<event>
 4    1  0.1101825E+000  0.2203580E+03  0.7546771E-02  0.1133616E+00
         21   -1    0    0  501  502  0.00000000000E+00  0.00000000000E+00  0.18602343209E+03  0.18602343209E+03  0.00000000000E+00 0.  1.
         21   -1    0    0  502  503 -0.00000000000E+00 -0.00000000000E+00 -0.26998841193E+03  0.26998841193E+03  0.00000000000E+00 0.  1.
          6    1    1    2  501    0 -0.13411855692E+03  0.31398660639E+02 -0.44947908294E+00  0.22035849253E+03  0.17200000000E+03 0.  1.
         -6    1    1    2    0  503  0.13411855692E+03 -0.31398660639E+02 -0.83515500761E+02  0.23565335149E+03  0.17200000000E+03 0.  1.
<mgrwt>
<rscale>  2 0.22035803E+03</rscale>
<asrwt>0</asrwt>
<pdfrwt beam="1">  1       21 0.46505858E-01 0.22035803E+03</pdfrwt>
<pdfrwt beam="2">  1       21 0.67497102E-01 0.22035803E+03</pdfrwt>
<totfact> 0.87218958E+03</totfact>
</mgrwt>
</event>
<event>
 4    1  0.1101825E+000  0.1788209E+03  0.7546771E-02  0.1168949E+00
         21   -1    0    0  503  502  0.00000000000E+00  0.00000000000E+00  0.22823719192E+03  0.22823719192E+03  0.00000000000E+00 0.  1.
         21   -1    0    0  501  503 -0.00000000000E+00 -0.00000000000E+00 -0.14213405570E+03  0.14213405570E+03  0.00000000000E+00 0.  1.
          6    1    1    2  501    0 -0.24482576730E+02  0.42349985676E+02  0.20919387321E+02  0.18004038052E+03  0.17200000000E+03 0. -1.
         -6    1    1    2    0  502  0.24482576730E+02 -0.42349985676E+02  0.65183748900E+02  0.19033086710E+03  0.17200000000E+03 0. -1.
<mgrwt>
<rscale>  2 0.17882091E+03</rscale>
<asrwt>0</asrwt>
<pdfrwt beam="1">  1       21 0.57059297E-01 0.17882091E+03</pdfrwt>
<pdfrwt beam="2">  1       21 0.35533514E-01 0.17882091E+03</pdfrwt>
<totfact> 0.22210935E+04</totfact>
</mgrwt>
</event>
<event>
 4    1  0.1101825E+000  0.1766888E+03  0.7546771E-02  0.1171047E+00
         21   -1    0    0  503  502  0.00000000000E+00  0.00000000000E+00  0.23572281024E+03  0.23572281024E+03  0.00000000000E+00 0. -1.
         21   -1    0    0  501  503 -0.00000000000E+00 -0.00000000000E+00 -0.20829861299E+03  0.20829861299E+03  0.00000000000E+00 0. -1.
          6    1    1    2  501    0  0.38416693647E+02  0.12612538272E+02 -0.12026659694E+03  0.21373575464E+03  0.17200000000E+03 0. -1.
         -6    1    1    2    0  502 -0.38416693647E+02 -0.12612538272E+02  0.14769079419E+03  0.23028566860E+03  0.17200000000E+03 0. -1.
<mgrwt>
<rscale>  2 0.17668876E+03</rscale>
<asrwt>0</asrwt>
<pdfrwt beam="1">  1       21 0.58930702E-01 0.17668876E+03</pdfrwt>
<pdfrwt beam="2">  1       21 0.52074653E-01 0.17668876E+03</pdfrwt>
<totfact> 0.95319555E+03</totfact>
</mgrwt>
</event>
<event>
 4    1  0.1101825E+000  0.1892152E+03  0.7546771E-02  0.1159171E+00
         21   -1    0    0  501  502  0.00000000000E+00  0.00000000000E+00  0.11119069888E+04  0.11119069888E+04  0.00000000000E+00 0.  1.
         21   -1    0    0  502  503 -0.00000000000E+00 -0.00000000000E+00 -0.36385115385E+03  0.36385115385E+03  0.00000000000E+00 0.  1.
          6    1    1    2  501    0 -0.27473820715E+02  0.73915992235E+02  0.10785014343E+04  0.10949738483E+04  0.17200000000E+03 0.  1.
         -6    1    1    2    0  503  0.27473820715E+02 -0.73915992235E+02 -0.33044559931E+03  0.38078429437E+03  0.17200000000E+03 0.  1.
<mgrwt>
<rscale>  2 0.18921518E+03</rscale>
<asrwt>0</asrwt>
<pdfrwt beam="1">  1       21 0.27797674E+00 0.18921518E+03</pdfrwt>
<pdfrwt beam="2">  1       21 0.90962791E-01 0.18921518E+03</pdfrwt>
<totfact> 0.47137473E+01</totfact>
</mgrwt>
</event>
<event>
 4    1  0.1101825E+000  0.2215127E+03  0.7546771E-02  0.1132760E+00
         21   -1    0    0  503  502  0.00000000000E+00  0.00000000000E+00  0.13384789101E+04  0.13384789101E+04  0.00000000000E+00 0.  1.
         21   -1    0    0  501  503 -0.00000000000E+00 -0.00000000000E+00 -0.47051109959E+02  0.47051109959E+02  0.00000000000E+00 0. -1.
          6    1    1    2  501    0 -0.82263796856E+02  0.11276774365E+03  0.32014452940E+03  0.38930761100E+03  0.17200000000E+03 0.  1.
         -6    1    1    2    0  502  0.82263796856E+02 -0.11276774365E+03  0.97128327074E+03  0.99622240905E+03  0.17200000000E+03 0. -1.
<mgrwt>
<rscale>  2 0.22151275E+03</rscale>
<asrwt>0</asrwt>
<pdfrwt beam="1">  1       21 0.33461960E+00 0.22151275E+03</pdfrwt>
<pdfrwt beam="2">  1       21 0.11762782E-01 0.22151275E+03</pdfrwt>
<totfact> 0.12602372E+03</totfact>
</mgrwt>
</event>
<event>
 4    1  0.1101825E+000  0.2039348E+03  0.7546771E-02  0.1146461E+00
         21   -1    0    0  503  502  0.00000000000E+00  0.00000000000E+00  0.16738899807E+03  0.16738899807E+03  0.00000000000E+00 0.  1.
         21   -1    0    0  501  503 -0.00000000000E+00 -0.00000000000E+00 -0.28267580480E+03  0.28267580480E+03  0.00000000000E+00 0.  1.
          6    1    1    2  501    0  0.56269835466E+02  0.94016478619E+02 -0.13593534552E+03  0.24508735340E+03  0.17200000000E+03 0.  1.
         -6    1    1    2    0  502 -0.56269835466E+02 -0.94016478619E+02  0.20648538796E+02  0.20497744947E+03  0.17200000000E+03 0.  1.
<mgrwt>
<rscale>  2 0.20393478E+03</rscale>
<asrwt>0</asrwt>
<pdfrwt beam="1">  1       21 0.41847250E-01 0.20393478E+03</pdfrwt>
<pdfrwt beam="2">  1       21 0.70668951E-01 0.20393478E+03</pdfrwt>
<totfact> 0.98960941E+03</totfact>
</mgrwt>
</event>
<event>
 4    1  0.1101825E+000  0.2061891E+03  0.7546771E-02  0.1144620E+00
         21   -1    0    0  501  502  0.00000000000E+00  0.00000000000E+00  0.98941401756E+03  0.98941401756E+03  0.00000000000E+00 0.  1.
         21   -1    0    0  502  503 -0.00000000000E+00 -0.00000000000E+00 -0.44033497489E+02  0.44033497489E+02  0.00000000000E+00 0.  1.
          6    1    1    2  501    0 -0.11147581771E+03  0.22430047611E+02  0.39234257452E+03  0.44322303725E+03  0.17200000000E+03 0.  1.
         -6    1    1    2    0  503  0.11147581771E+03 -0.22430047611E+02  0.55303794555E+03  0.59022447780E+03  0.17200000000E+03 0.  1.
<mgrwt>
<rscale>  2 0.20618915E+03</rscale>
<asrwt>0</asrwt>
<pdfrwt beam="1">  1       21 0.24735343E+00 0.20618915E+03</pdfrwt>
<pdfrwt beam="2">  1       21 0.11008378E-01 0.20618915E+03</pdfrwt>
<totfact> 0.46527181E+03</totfact>
</mgrwt>
</event>
<event>
 4    1  0.1101825E+000  0.1835704E+03  0.7546771E-02  0.1164392E+00
         21   -1    0    0  501  502  0.00000000000E+00  0.00000000000E+00  0.25441001140E+03  0.25441001140E+03  0.00000000000E+00 0.  1.
         21   -1    0    0  502  503 -0.00000000000E+00 -0.00000000000E+00 -0.13728205203E+03  0.13728205203E+03  0.00000000000E+00 0.  1.
          6    1    1    2  501    0 -0.46949205494E+02  0.43701967180E+02  0.95284720642E+02  0.20682666129E+03  0.17200000000E+03 0. -1.
         -6    1    1    2    0  503  0.46949205494E+02 -0.43701967180E+02  0.21843238723E+02  0.18486540214E+03  0.17200000000E+03 0. -1.
<mgrwt>
<rscale>  2 0.18357039E+03</rscale>
<asrwt>0</asrwt>
<pdfrwt beam="1">  1       21 0.63602502E-01 0.18357039E+03</pdfrwt>
<pdfrwt beam="2">  1       21 0.34320513E-01 0.18357039E+03</pdfrwt>
<totfact> 0.18795853E+04</totfact>
</mgrwt>
</event>
<event>
 4    1  0.1101825E+000  0.1730432E+03  0.7546771E-02  0.1174711E+00
         21   -1    0    0  503  502  0.00000000000E+00  0.00000000000E+00  0.34483700264E+03  0.34483700264E+03  0.00000000000E+00 0. -1.
         21   -1    0    0  501  503 -0.00000000000E+00 -0.00000000000E+00 -0.24927591742E+03  0.24927591742E+03  0.00000000000E+00 0. -1.
          6    1    1    2  501    0  0.16855501937E+02 -0.87087973429E+01 -0.19201794533E+03  0.25848567161E+03  0.17200000000E+03 0. -1.
         -6    1    1    2    0  502 -0.16855501937E+02  0.87087973429E+01  0.28757903055E+03  0.33562724846E+03  0.17200000000E+03 0. -1.
<mgrwt>
<rscale>  2 0.17304321E+03</rscale>
<asrwt>0</asrwt>
<pdfrwt beam="1">  1       21 0.86209250E-01 0.17304321E+03</pdfrwt>
<pdfrwt beam="2">  1       21 0.62318980E-01 0.17304321E+03</pdfrwt>
<totfact> 0.28192553E+03</totfact>
</mgrwt>
</event>
<event>
 4    1  0.1101825E+000  0.2048682E+03  0.7546771E-02  0.1145695E+00
         21   -1    0    0  503  502  0.00000000000E+00  0.00000000000E+00  0.57739045235E+02  0.57739045235E+02  0.00000000000E+00 0. -1.
         21   -1    0    0  501  503 -0.00000000000E+00 -0.00000000000E+00 -0.77332872508E+03  0.77332872508E+03  0.00000000000E+00 0.  1.
          6    1    1    2  501    0 -0.92289952599E+02  0.62205735592E+02 -0.25598749341E+03  0.32787281935E+03  0.17200000000E+03 0. -1.
         -6    1    1    2    0  502  0.92289952599E+02 -0.62205735592E+02 -0.45960218644E+03  0.50319495096E+03  0.17200000000E+03 0.  1.
<mgrwt>
<rscale>  2 0.20486822E+03</rscale>
<asrwt>0</asrwt>
<pdfrwt beam="1">  1       21 0.14434761E-01 0.20486822E+03</pdfrwt>
<pdfrwt beam="2">  1       21 0.19333218E+00 0.20486822E+03</pdfrwt>
<totfact> 0.61723132E+03</totfact>
</mgrwt>
</event>
<event>
 4    1  0.1101825E+000  0.1735058E+03  0.7546771E-02  0.1174240E+00
         21   -1    0    0  501  502  0.00000000000E+00  0.00000000000E+00  0.39720161606E+02  0.39720161606E+02  0.00000000000E+00 0. -1.
         21   -1    0    0  502  503 -0.00000000000E+00 -0.00000000000E+00 -0.76298426604E+03  0.76298426604E+03  0.00000000000E+00 0. -1.
          6    1    1    2  501    0 -0.20329121920E+02 -0.10343942152E+02 -0.39436572372E+03  0.43084636982E+03  0.17200000000E+03 0. -1.
         -6    1    1    2    0  503  0.20329121920E+02  0.10343942152E+02 -0.32889838071E+03  0.37185805783E+03  0.17200000000E+03 0. -1.
<mgrwt>
<rscale>  2 0.17350582E+03</rscale>
<asrwt>0</asrwt>
<pdfrwt beam="1">  1       21 0.99300400E-02 0.17350582E+03</pdfrwt>
<pdfrwt beam="2">  1       21 0.19074607E+00 0.17350582E+03</pdfrwt>
<totfact> 0.12870562E+04</totfact>
</mgrwt>
</event>
<event>
 4    1  0.1101825E+000  0.1786305E+03  0.7546771E-02  0.1169135E+00
         21   -1    0    0  503  502  0.00000000000E+00  0.00000000000E+00  0.10936895949E+03  0.10936895949E+03  0.00000000000E+00 0.  1.
         21   -1    0    0  501  503 -0.00000000000E+00 -0.00000000000E+00 -0.30069576577E+03  0.30069576577E+03  0.00000000000E+00 0.  1.
          6    1    1    2  501    0 -0.38562574244E+02 -0.28944554922E+02 -0.60307316397E+02  0.18853602256E+03  0.17200000000E+03 0.  1.
         -6    1    1    2    0  502  0.38562574244E+02  0.28944554922E+02 -0.13101948989E+03  0.22152870271E+03  0.17200000000E+03 0.  1.
<mgrwt>
<rscale>  2 0.17863051E+03</rscale>
<asrwt>0</asrwt>
<pdfrwt beam="1">  1       21 0.27342240E-01 0.17863051E+03</pdfrwt>
<pdfrwt beam="2">  1       21 0.75173941E-01 0.17863051E+03</pdfrwt>
<totfact> 0.20347474E+04</totfact>
</mgrwt>
</event>
<event>
 4    1  0.1101825E+000  0.2468674E+03  0.7546771E-02  0.1115301E+00
         21   -1    0    0  501  502  0.00000000000E+00  0.00000000000E+00  0.15786476853E+03  0.15786476853E+03  0.00000000000E+00 0.  1.
         21   -1    0    0  502  503 -0.00000000000E+00 -0.00000000000E+00 -0.43436196804E+03  0.43436196804E+03  0.00000000000E+00 0. -1.
          6    1    1    2  501    0 -0.40679130760E+02 -0.17235052039E+03 -0.39492214151E+02  0.25000625700E+03  0.17200000000E+03 0. -1.
         -6    1    1    2    0  503  0.40679130760E+02  0.17235052039E+03 -0.23700498535E+03  0.34222047957E+03  0.17200000000E+03 0. -1.
<mgrwt>
<rscale>  2 0.24686736E+03</rscale>
<asrwt>0</asrwt>
<pdfrwt beam="1">  1       21 0.39466192E-01 0.24686736E+03</pdfrwt>
<pdfrwt beam="2">  1       21 0.10859049E+00 0.24686736E+03</pdfrwt>
<totfact> 0.40043312E+03</totfact>
</mgrwt>
</event>
<event>
 4    1  0.1101825E+000  0.1997570E+03  0.7546771E-02  0.1149944E+00
         21   -1    0    0  503  502  0.00000000000E+00  0.00000000000E+00  0.38138980749E+03  0.38138980749E+03  0.00000000000E+00 0.  1.
         21   -1    0    0  501  503 -0.00000000000E+00 -0.00000000000E+00 -0.10560134028E+04  0.10560134028E+04  0.00000000000E+00 0.  1.
          6    1    1    2  501    0 -0.34081711694E+02 -0.95693661624E+02 -0.10194821919E+04  0.10388680279E+04  0.17200000000E+03 0.  1.
         -6    1    1    2    0  502  0.34081711694E+02  0.95693661624E+02  0.34485859656E+03  0.39853518235E+03  0.17200000000E+03 0.  1.
<mgrwt>
<rscale>  2 0.19975695E+03</rscale>
<asrwt>0</asrwt>
<pdfrwt beam="1">  1       21 0.95347452E-01 0.19975695E+03</pdfrwt>
<pdfrwt beam="2">  1       21 0.26400335E+00 0.19975695E+03</pdfrwt>
<totfact> 0.49998946E+01</totfact>
</mgrwt>
</event>
<event>
 4    1  0.1101825E+000  0.1923723E+03  0.7546771E-02  0.1156339E+00
         21   -1    0    0  501  502  0.00000000000E+00  0.00000000000E+00  0.66032145153E+02  0.66032145153E+02  0.00000000000E+00 0. -1.
         21   -1    0    0  502  503 -0.00000000000E+00 -0.00000000000E+00 -0.69243638238E+03  0.69243638238E+03  0.00000000000E+00 0. -1.
          6    1    1    2  501    0  0.73978890486E+02 -0.44161298253E+02 -0.14762602942E+03  0.24248822871E+03  0.17200000000E+03 0.  1.
         -6    1    1    2    0  503 -0.73978890486E+02  0.44161298253E+02 -0.47877820781E+03  0.51598029883E+03  0.17200000000E+03 0.  1.
<mgrwt>
<rscale>  2 0.19237229E+03</rscale>
<asrwt>0</asrwt>
<pdfrwt beam="1">  1       21 0.16508036E-01 0.19237229E+03</pdfrwt>
<pdfrwt beam="2">  1       21 0.17310910E+00 0.19237229E+03</pdfrwt>
<totfact> 0.66848954E+03</totfact>
</mgrwt>
</event>
<event>
 4    1  0.1101825E+000  0.3308036E+03  0.7546771E-02  0.1070782E+00
         21   -1    0    0  501  502  0.00000000000E+00  0.00000000000E+00  0.59717522037E+03  0.59717522037E+03  0.00000000000E+00 0.  1.
         21   -1    0    0  502  503 -0.00000000000E+00 -0.00000000000E+00 -0.21093849142E+03  0.21093849142E+03  0.00000000000E+00 0. -1.
          6    1    1    2  501    0  0.19479327255E+03 -0.20470126188E+03  0.33951521070E+03  0.47402700761E+03  0.17200000000E+03 0.  1.
         -6    1    1    2    0  503 -0.19479327255E+03  0.20470126188E+03  0.46721518250E+02  0.33408670419E+03  0.17200000000E+03 0. -1.
<mgrwt>
<rscale>  2 0.33080361E+03</rscale>
<asrwt>0</asrwt>
<pdfrwt beam="1">  1       21 0.14929380E+00 0.33080361E+03</pdfrwt>
<pdfrwt beam="2">  1       21 0.52734624E-01 0.33080361E+03</pdfrwt>
<totfact> 0.92364510E+02</totfact>
</mgrwt>
</event>
<event>
 4    1  0.1101825E+000  0.1983184E+03  0.7546771E-02  0.1151166E+00
         21   -1    0    0  501  502  0.00000000000E+00  0.00000000000E+00  0.13001159488E+03  0.13001159488E+03  0.00000000000E+00 0. -1.
         21   -1    0    0  502  503 -0.00000000000E+00 -0.00000000000E+00 -0.98135550670E+03  0.98135550670E+03  0.00000000000E+00 0. -1.
          6    1    1    2  501    0  0.96169981962E+02  0.22304857093E+02  0.36495048141E+02  0.20164835883E+03  0.17200000000E+03 0. -1.
         -6    1    1    2    0  503 -0.96169981962E+02 -0.22304857093E+02 -0.88783895996E+03  0.90971874275E+03  0.17200000000E+03 0. -1.
<mgrwt>
<rscale>  2 0.19831836E+03</rscale>
<asrwt>0</asrwt>
<pdfrwt beam="1">  1       21 0.32502899E-01 0.19831836E+03</pdfrwt>
<pdfrwt beam="2">  1       21 0.24533887E+00 0.19831836E+03</pdfrwt>
<totfact> 0.64061616E+02</totfact>
</mgrwt>
</event>
<event>
 4    1  0.1101825E+000  0.1781087E+03  0.7546771E-02  0.1169646E+00
         21   -1    0    0  503  502  0.00000000000E+00  0.00000000000E+00  0.15916805245E+03  0.15916805245E+03  0.00000000000E+00 0.  1.
         21   -1    0    0  501  503 -0.00000000000E+00 -0.00000000000E+00 -0.22127634671E+03  0.22127634671E+03  0.00000000000E+00 0.  1.
          6    1    1    2  501    0 -0.25519279124E+02  0.38567951286E+02 -0.90997177633E+02  0.20000801687E+03  0.17200000000E+03 0.  1.
         -6    1    1    2    0  502  0.25519279124E+02 -0.38567951286E+02  0.28888883365E+02  0.18043638229E+03  0.17200000000E+03 0.  1.
<mgrwt>
<rscale>  2 0.17810873E+03</rscale>
<asrwt>0</asrwt>
<pdfrwt beam="1">  1       21 0.39792013E-01 0.17810873E+03</pdfrwt>
<pdfrwt beam="2">  1       21 0.55319086E-01 0.17810873E+03</pdfrwt>
<totfact> 0.18922553E+04</totfact>
</mgrwt>
</event>
<event>
 4    1  0.1101825E+000  0.2958390E+03  0.7546771E-02  0.1087339E+00
         21   -1    0    0  503  502  0.00000000000E+00  0.00000000000E+00  0.43640059094E+03  0.43640059094E+03  0.00000000000E+00 0. -1.
         21   -1    0    0  501  503 -0.00000000000E+00 -0.00000000000E+00 -0.20264850393E+03  0.20264850393E+03  0.00000000000E+00 0.  1.
          6    1    1    2  501    0  0.19612637600E+03  0.13953900107E+03  0.14938155815E+03  0.33141445065E+03  0.17200000000E+03 0. -1.
         -6    1    1    2    0  502 -0.19612637600E+03 -0.13953900107E+03  0.84370528861E+02  0.30763464422E+03  0.17200000000E+03 0. -1.
<mgrwt>
<rscale>  2 0.29583896E+03</rscale>
<asrwt>0</asrwt>
<pdfrwt beam="1">  1       21 0.10910015E+00 0.29583896E+03</pdfrwt>
<pdfrwt beam="2">  1       21 0.50662127E-01 0.29583896E+03</pdfrwt>
<totfact> 0.22901638E+03</totfact>
</mgrwt>
</event>
<event>
 4    1  0.1101825E+000  0.1905609E+03  0.7546771E-02  0.1157956E+00
         21   -1    0    0  503  502  0.00000000000E+00  0.00000000000E+00  0.87458958396E+03  0.87458958396E+03  0.00000000000E+00 0.  1.
         21   -1    0    0  501  503 -0.00000000000E+00 -0.00000000000E+00 -0.76027432659E+02  0.76027432659E+02  0.00000000000E+00 0.  1.
          6    1    1    2  501    0  0.31061103374E+02 -0.75925313774E+02  0.79064908860E+02  0.20631215482E+03  0.17200000000E+03 0.  1.
         -6    1    1    2    0  502 -0.31061103374E+02  0.75925313774E+02  0.71949724244E+03  0.74430486179E+03  0.17200000000E+03 0.  1.
<mgrwt>
<rscale>  2 0.19056087E+03</rscale>
<asrwt>0</asrwt>
<pdfrwt beam="1">  1       21 0.21864736E+00 0.19056087E+03</pdfrwt>
<pdfrwt beam="2">  1       21 0.19006861E-01 0.19056087E+03</pdfrwt>
<totfact> 0.26084153E+03</totfact>
</mgrwt>
</event>
<event>
 4    1  0.1101825E+000  0.2089749E+03  0.7546771E-02  0.1142380E+00
         21   -1    0    0  501  502  0.00000000000E+00  0.00000000000E+00  0.37259092291E+03  0.37259092291E+03  0.00000000000E+00 0. -1.
         21   -1    0    0  502  503 -0.00000000000E+00 -0.00000000000E+00 -0.12937679451E+03  0.12937679451E+03  0.00000000000E+00 0.  1.
          6    1    1    2  501    0 -0.31841026842E+02 -0.11433564865E+03  0.19858182334E+03  0.28827978094E+03  0.17200000000E+03 0. -1.
         -6    1    1    2    0  503  0.31841026842E+02  0.11433564865E+03  0.44632305055E+02  0.21368793648E+03  0.17200000000E+03 0.  1.
<mgrwt>
<rscale>  2 0.20897486E+03</rscale>
<asrwt>0</asrwt>
<pdfrwt beam="1">  1       21 0.93147729E-01 0.20897486E+03</pdfrwt>
<pdfrwt beam="2">  1       21 0.32344199E-01 0.20897486E+03</pdfrwt>
<totfact> 0.88179806E+03</totfact>
</mgrwt>
</event>
<event>
 4    1  0.1101825E+000  0.1829878E+03  0.7546771E-02  0.1164942E+00
         21   -1    0    0  503  502  0.00000000000E+00  0.00000000000E+00  0.17162689287E+03  0.17162689287E+03  0.00000000000E+00 0. -1.
         21   -1    0    0  501  503 -0.00000000000E+00 -0.00000000000E+00 -0.14735600646E+04  0.14735600646E+04  0.00000000000E+00 0. -1.
          6    1    1    2  501    0 -0.41357585133E+02 -0.46798410930E+02 -0.14171712494E+04  0.14289362797E+04  0.17200000000E+03 0. -1.
         -6    1    1    2    0  502  0.41357585133E+02  0.46798410930E+02  0.11523807768E+03  0.21625067783E+03  0.17200000000E+03 0. -1.
<mgrwt>
<rscale>  2 0.18298782E+03</rscale>
<asrwt>0</asrwt>
<pdfrwt beam="1">  1       21 0.42906723E-01 0.18298782E+03</pdfrwt>
<pdfrwt beam="2">  1       21 0.36839002E+00 0.18298782E+03</pdfrwt>
<totfact> 0.72314699E+01</totfact>
</mgrwt>
</event>
<event>
 4    1  0.1101825E+000  0.1781514E+03  0.7546771E-02  0.1169604E+00
         21   -1    0    0  503  502  0.00000000000E+00  0.00000000000E+00  0.30959613736E+02  0.30959613736E+02  0.00000000000E+00 0.  1.
         21   -1    0    0  501  503 -0.00000000000E+00 -0.00000000000E+00 -0.13171844565E+04  0.13171844565E+04  0.00000000000E+00 0.  1.
          6    1    1    2  501    0  0.22562495159E+02  0.40556946857E+02 -0.96051295044E+03  0.97689460030E+03  0.17200000000E+03 0.  1.
         -6    1    1    2    0  502 -0.22562495159E+02 -0.40556946857E+02 -0.32571189229E+03  0.37124946991E+03  0.17200000000E+03 0.  1.
<mgrwt>
<rscale>  2 0.17815143E+03</rscale>
<asrwt>0</asrwt>
<pdfrwt beam="1">  1       21 0.77399042E-02 0.17815143E+03</pdfrwt>
<pdfrwt beam="2">  1       21 0.32929608E+00 0.17815143E+03</pdfrwt>
<totfact> 0.29959738E+03</totfact>
</mgrwt>
</event>
<event>
 4    1  0.1101825E+000  0.1823733E+03  0.7546771E-02  0.1165526E+00
         21   -1    0    0  501  502  0.00000000000E+00  0.00000000000E+00  0.66186956647E+03  0.66186956647E+03  0.00000000000E+00 0. -1.
         21   -1    0    0  502  503 -0.00000000000E+00 -0.00000000000E+00 -0.92681274707E+02  0.92681274707E+02  0.00000000000E+00 0.  1.
          6    1    1    2  501    0  0.57050778432E+02  0.20523455738E+02  0.53986273192E+03  0.56983486456E+03  0.17200000000E+03 0. -1.
         -6    1    1    2    0  503 -0.57050778432E+02 -0.20523455738E+02  0.29325559838E+02  0.18471597661E+03  0.17200000000E+03 0.  1.
<mgrwt>
<rscale>  2 0.18237325E+03</rscale>
<asrwt>0</asrwt>
<pdfrwt beam="1">  1       21 0.16546738E+00 0.18237325E+03</pdfrwt>
<pdfrwt beam="2">  1       21 0.23170321E-01 0.18237325E+03</pdfrwt>
<totfact> 0.40592447E+03</totfact>
</mgrwt>
</event>
<event>
 4    1  0.1101825E+000  0.2493174E+03  0.7546771E-02  0.1113737E+00
         21   -1    0    0  501  502  0.00000000000E+00  0.00000000000E+00  0.49325909776E+03  0.49325909776E+03  0.00000000000E+00 0. -1.
         21   -1    0    0  502  503 -0.00000000000E+00 -0.00000000000E+00 -0.13330990231E+03  0.13330990231E+03  0.00000000000E+00 0.  1.
          6    1    1    2  501    0 -0.14301020136E+03 -0.11010555428E+03  0.10670046029E+03  0.27119022660E+03  0.17200000000E+03 0.  1.
         -6    1    1    2    0  503  0.14301020136E+03  0.11010555428E+03  0.25324873516E+03  0.35537877347E+03  0.17200000000E+03 0. -1.
<mgrwt>
<rscale>  2 0.24931737E+03</rscale>
<asrwt>0</asrwt>
<pdfrwt beam="1">  1       21 0.12331477E+00 0.24931737E+03</pdfrwt>
<pdfrwt beam="2">  1       21 0.33327477E-01 0.24931737E+03</pdfrwt>
<totfact> 0.40999480E+03</totfact>
</mgrwt>
</event>
<event>
 4    1  0.1101825E+000  0.1968460E+03  0.7546771E-02  0.1152428E+00
         21   -1    0    0  503  502  0.00000000000E+00  0.00000000000E+00  0.31433149404E+02  0.31433149404E+02  0.00000000000E+00 0.  1.
         21   -1    0    0  501  503 -0.00000000000E+00 -0.00000000000E+00 -0.12428549202E+04  0.12428549202E+04  0.00000000000E+00 0.  1.
          6    1    1    2  501    0  0.88668082283E+02  0.36087458511E+02 -0.66324104978E+03  0.69183598027E+03  0.17200000000E+03 0.  1.
         -6    1    1    2    0  502 -0.88668082283E+02 -0.36087458511E+02 -0.54818072099E+03  0.58245208931E+03  0.17200000000E+03 0.  1.
<mgrwt>
<rscale>  2 0.19684596E+03</rscale>
<asrwt>0</asrwt>
<pdfrwt beam="1">  1       21 0.78582875E-02 0.19684596E+03</pdfrwt>
<pdfrwt beam="2">  1       21 0.31071372E+00 0.19684596E+03</pdfrwt>
<totfact> 0.36472741E+03</totfact>
</mgrwt>
</event>
<event>
 4    1  0.1101825E+000  0.3035465E+03  0.7546771E-02  0.1083481E+00
         21   -1    0    0  503  502  0.00000000000E+00  0.00000000000E+00  0.34293808471E+03  0.34293808471E+03  0.00000000000E+00 0.  1.
         21   -1    0    0  501  503 -0.00000000000E+00 -0.00000000000E+00 -0.26899395362E+03  0.26899395362E+03  0.00000000000E+00 0. -1.
          6    1    1    2  501    0 -0.24323117692E+03  0.58267469844E+02  0.26514308283E+02  0.30470233345E+03  0.17200000000E+03 0.  1.
         -6    1    1    2    0  502  0.24323117692E+03 -0.58267469844E+02  0.47429822809E+02  0.30722970488E+03  0.17200000000E+03 0.  1.
<mgrwt>
<rscale>  2 0.30354654E+03</rscale>
<asrwt>0</asrwt>
<pdfrwt beam="1">  1       21 0.85734521E-01 0.30354654E+03</pdfrwt>
<pdfrwt beam="2">  1       21 0.67248489E-01 0.30354654E+03</pdfrwt>
<totfact> 0.21960956E+03</totfact>
</mgrwt>
</event>
<event>
 4    1  0.1101825E+000  0.1875771E+03  0.7546771E-02  0.1160665E+00
         21   -1    0    0  503  502  0.00000000000E+00  0.00000000000E+00  0.69964555634E+03  0.69964555634E+03  0.00000000000E+00 0. -1.
         21   -1    0    0  501  503 -0.00000000000E+00 -0.00000000000E+00 -0.14407144533E+03  0.14407144533E+03  0.00000000000E+00 0. -1.
          6    1    1    2  501    0 -0.61437767452E+02  0.42738268595E+02 -0.62571257762E+02  0.19773801144E+03  0.17200000000E+03 0. -1.
         -6    1    1    2    0  502  0.61437767452E+02 -0.42738268595E+02  0.61814536877E+03  0.64597899022E+03  0.17200000000E+03 0. -1.
<mgrwt>
<rscale>  2 0.18757707E+03</rscale>
<asrwt>0</asrwt>
<pdfrwt beam="1">  1       21 0.17491138E+00 0.18757707E+03</pdfrwt>
<pdfrwt beam="2">  1       21 0.36017863E-01 0.18757707E+03</pdfrwt>
<totfact> 0.14737156E+03</totfact>
</mgrwt>
</event>
<event>
 4    1  0.1101825E+000  0.1764074E+03  0.7546771E-02  0.1171326E+00
         21   -1    0    0  501  502  0.00000000000E+00  0.00000000000E+00  0.20933320625E+03  0.20933320625E+03  0.00000000000E+00 0.  1.
         21   -1    0    0  502  503 -0.00000000000E+00 -0.00000000000E+00 -0.16312814939E+03  0.16312814939E+03  0.00000000000E+00 0.  1.
          6    1    1    2  501    0 -0.37130048962E+02  0.12527559228E+02 -0.32358213265E+02  0.17935059030E+03  0.17200000000E+03 0.  1.
         -6    1    1    2    0  503  0.37130048962E+02 -0.12527559228E+02  0.78563270130E+02  0.19311076534E+03  0.17200000000E+03 0.  1.
<mgrwt>
<rscale>  2 0.17640743E+03</rscale>
<asrwt>0</asrwt>
<pdfrwt beam="1">  1       21 0.52333301E-01 0.17640743E+03</pdfrwt>
<pdfrwt beam="2">  1       21 0.40782037E-01 0.17640743E+03</pdfrwt>
<totfact> 0.20257921E+04</totfact>
</mgrwt>
</event>
<event>
 4    1  0.1101825E+000  0.3248404E+03  0.7546771E-02  0.1073443E+00
         21   -1    0    0  503  502  0.00000000000E+00  0.00000000000E+00  0.66454662624E+03  0.66454662624E+03  0.00000000000E+00 0.  1.
         21   -1    0    0  501  503 -0.00000000000E+00 -0.00000000000E+00 -0.92904391481E+03  0.92904391481E+03  0.00000000000E+00 0. -1.
          6    1    1    2  501    0  0.15654695515E+03 -0.22678255896E+03 -0.85776376115E+03  0.91721314217E+03  0.17200000000E+03 0. -1.
         -6    1    1    2    0  502 -0.15654695515E+03  0.22678255896E+03  0.59326647259E+03  0.67637739888E+03  0.17200000000E+03 0.  1.
<mgrwt>
<rscale>  2 0.32484039E+03</rscale>
<asrwt>0</asrwt>
<pdfrwt beam="1">  1       21 0.16613666E+00 0.32484039E+03</pdfrwt>
<pdfrwt beam="2">  1       21 0.23226098E+00 0.32484039E+03</pdfrwt>
<totfact> 0.16094299E+01</totfact>
</mgrwt>
</event>
<event>
 4    1  0.1101825E+000  0.1798755E+03  0.7546771E-02  0.1167924E+00
         21   -1    0    0  503  502  0.00000000000E+00  0.00000000000E+00  0.78529542917E+02  0.78529542917E+02  0.00000000000E+00 0.  1.
         21   -1    0    0  501  503 -0.00000000000E+00 -0.00000000000E+00 -0.63673586396E+03  0.63673586396E+03  0.00000000000E+00 0.  1.
          6    1    1    2  501    0  0.50134166387E+02  0.16054586015E+02 -0.49156517794E+03  0.52344198201E+03  0.17200000000E+03 0.  1.
         -6    1    1    2    0  502 -0.50134166387E+02 -0.16054586015E+02 -0.66641143100E+02  0.19182342486E+03  0.17200000000E+03 0.  1.
<mgrwt>
<rscale>  2 0.17987547E+03</rscale>
<asrwt>0</asrwt>
<pdfrwt beam="1">  1       21 0.19632386E-01 0.17987547E+03</pdfrwt>
<pdfrwt beam="2">  1       21 0.15918397E+00 0.17987547E+03</pdfrwt>
<totfact> 0.61643391E+03</totfact>
</mgrwt>
</event>
<event>
 4    1  0.1101825E+000  0.1744053E+03  0.7546771E-02  0.1173330E+00
         21   -1    0    0  503  502  0.00000000000E+00  0.00000000000E+00  0.23719376253E+03  0.23719376253E+03  0.00000000000E+00 0.  1.
         21   -1    0    0  501  503 -0.00000000000E+00 -0.00000000000E+00 -0.35149241698E+03  0.35149241698E+03  0.00000000000E+00 0.  1.
          6    1    1    2  501    0 -0.12520950999E+02  0.26008167141E+02 -0.29173210188E+03  0.33988942060E+03  0.17200000000E+03 0.  1.
         -6    1    1    2    0  502  0.12520950999E+02 -0.26008167141E+02  0.17743344744E+03  0.24879675890E+03  0.17200000000E+03 0.  1.
<mgrwt>
<rscale>  2 0.17440527E+03</rscale>
<asrwt>0</asrwt>
<pdfrwt beam="1">  1       21 0.59298441E-01 0.17440527E+03</pdfrwt>
<pdfrwt beam="2">  1       21 0.87873104E-01 0.17440527E+03</pdfrwt>
<totfact> 0.29982231E+03</totfact>
</mgrwt>
</event>
<event>
 4    1  0.1101825E+000  0.2123775E+03  0.7546771E-02  0.1139697E+00
         21   -1    0    0  501  502  0.00000000000E+00  0.00000000000E+00  0.25475023080E+03  0.25475023080E+03  0.00000000000E+00 0.  1.
         21   -1    0    0  502  503 -0.00000000000E+00 -0.00000000000E+00 -0.20499694405E+03  0.20499694405E+03  0.00000000000E+00 0.  1.
          6    1    1    2  501    0  0.12457986382E+03  0.27257643116E+00  0.10974807836E+03  0.23905827212E+03  0.17200000000E+03 0.  1.
         -6    1    1    2    0  503 -0.12457986382E+03 -0.27257643116E+00 -0.59994791613E+02  0.22068890273E+03  0.17200000000E+03 0.  1.
<mgrwt>
<rscale>  2 0.21237753E+03</rscale>
<asrwt>0</asrwt>
<pdfrwt beam="1">  1       21 0.63687557E-01 0.21237753E+03</pdfrwt>
<pdfrwt beam="2">  1       21 0.51249236E-01 0.21237753E+03</pdfrwt>
<totfact> 0.81313785E+03</totfact>
</mgrwt>
</event>
<event>
 4    1  0.1101825E+000  0.2029192E+03  0.7546771E-02  0.1147299E+00
         21   -1    0    0  503  502  0.00000000000E+00  0.00000000000E+00  0.18920392800E+03  0.18920392800E+03  0.00000000000E+00 0.  1.
         21   -1    0    0  501  503 -0.00000000000E+00 -0.00000000000E+00 -0.22349609695E+03  0.22349609695E+03  0.00000000000E+00 0.  1.
          6    1    1    2  501    0  0.10759907022E+03 -0.38266276825E+01 -0.50580415190E+02  0.20912814586E+03  0.17200000000E+03 0.  1.
         -6    1    1    2    0  502 -0.10759907022E+03  0.38266276825E+01  0.16288246239E+02  0.20357187909E+03  0.17200000000E+03 0.  1.
<mgrwt>
<rscale>  2 0.20291920E+03</rscale>
<asrwt>0</asrwt>
<pdfrwt beam="1">  1       21 0.47300982E-01 0.20291920E+03</pdfrwt>
<pdfrwt beam="2">  1       21 0.55874024E-01 0.20291920E+03</pdfrwt>
<totfact> 0.12812275E+04</totfact>
</mgrwt>
</event>
<event>
 4    1  0.1101825E+000  0.1790464E+03  0.7546771E-02  0.1168729E+00
         21   -1    0    0  501  502  0.00000000000E+00  0.00000000000E+00  0.14448753242E+03  0.14448753242E+03  0.00000000000E+00 0.  1.
         21   -1    0    0  502  503 -0.00000000000E+00 -0.00000000000E+00 -0.26231942753E+03  0.26231942753E+03  0.00000000000E+00 0. -1.
          6    1    1    2  501    0  0.46602607151E+02  0.17373122015E+02  0.20955704922E+02  0.18026860495E+03  0.17200000000E+03 0.  1.
         -6    1    1    2    0  503 -0.46602607151E+02 -0.17373122015E+02 -0.13878760004E+03  0.22653835500E+03  0.17200000000E+03 0. -1.
<mgrwt>
<rscale>  2 0.17904644E+03</rscale>
<asrwt>0</asrwt>
<pdfrwt beam="1">  1       21 0.36121883E-01 0.17904644E+03</pdfrwt>
<pdfrwt beam="2">  1       21 0.65579857E-01 0.17904644E+03</pdfrwt>
<totfact> 0.15935933E+04</totfact>
</mgrwt>
</event>
<event>
 4    1  0.1101825E+000  0.1748120E+03  0.7546771E-02  0.1172921E+00
         21   -1    0    0  501  502  0.00000000000E+00  0.00000000000E+00  0.37517107061E+03  0.37517107061E+03  0.00000000000E+00 0.  1.
         21   -1    0    0  502  503 -0.00000000000E+00 -0.00000000000E+00 -0.10968397245E+03  0.10968397245E+03  0.00000000000E+00 0.  1.
          6    1    1    2  501    0  0.30856010119E+02 -0.48121966407E+01  0.25573196435E+03  0.30977102542E+03  0.17200000000E+03 0.  1.
         -6    1    1    2    0  503 -0.30856010119E+02  0.48121966407E+01  0.97551338085E+01  0.17508401764E+03  0.17200000000E+03 0.  1.
<mgrwt>
<rscale>  2 0.17481204E+03</rscale>
<asrwt>0</asrwt>
<pdfrwt beam="1">  1       21 0.93792765E-01 0.17481204E+03</pdfrwt>
<pdfrwt beam="2">  1       21 0.27420994E-01 0.17481204E+03</pdfrwt>
<totfact> 0.12257215E+04</totfact>
</mgrwt>
</event>
<event>
 4    1  0.1101825E+000  0.1801236E+03  0.7546771E-02  0.1167683E+00
         21   -1    0    0  501  502  0.00000000000E+00  0.00000000000E+00  0.17827200638E+03  0.17827200638E+03  0.00000000000E+00 0.  1.
         21   -1    0    0  502  503 -0.00000000000E+00 -0.00000000000E+00 -0.20105173841E+03  0.20105173841E+03  0.00000000000E+00 0.  1.
          6    1    1    2  501    0 -0.44137647942E+02 -0.30205562267E+02 -0.69782379375E+02  0.19316854928E+03  0.17200000000E+03 0.  1.
         -6    1    1    2    0  503  0.44137647942E+02  0.30205562267E+02  0.47002647349E+02  0.18615519551E+03  0.17200000000E+03 0.  1.
<mgrwt>
<rscale>  2 0.18012359E+03</rscale>
<asrwt>0</asrwt>
<pdfrwt beam="1">  1       21 0.44568002E-01 0.18012359E+03</pdfrwt>
<pdfrwt beam="2">  1       21 0.50262934E-01 0.18012359E+03</pdfrwt>
<totfact> 0.18356179E+04</totfact>
</mgrwt>
</event>
<event>
 4    1  0.1101825E+000  0.1733010E+03  0.7546771E-02  0.1174448E+00
         21   -1    0    0  501  502  0.00000000000E+00  0.00000000000E+00  0.17341649666E+03  0.17341649666E+03  0.00000000000E+00 0.  1.
         21   -1    0    0  502  503 -0.00000000000E+00 -0.00000000000E+00 -0.23614868571E+03  0.23614868571E+03  0.00000000000E+00 0.  1.
          6    1    1    2  501    0 -0.20046823164E+02 -0.68829331528E+01  0.74374822709E+02  0.18858648982E+03  0.17200000000E+03 0.  1.
         -6    1    1    2    0  503  0.20046823164E+02  0.68829331528E+01 -0.13710701176E+03  0.22097869255E+03  0.17200000000E+03 0.  1.
<mgrwt>
<rscale>  2 0.17330104E+03</rscale>
<asrwt>0</asrwt>
<pdfrwt beam="1">  1       21 0.43354124E-01 0.17330104E+03</pdfrwt>
<pdfrwt beam="2">  1       21 0.59037171E-01 0.17330104E+03</pdfrwt>
<totfact> 0.13896191E+04</totfact>
</mgrwt>
</event>
<event>
 4    1  0.1101825E+000  0.1788070E+03  0.7546771E-02  0.1168963E+00
         21   -1    0    0  501  502  0.00000000000E+00  0.00000000000E+00  0.41635449599E+03  0.41635449599E+03  0.00000000000E+00 0. -1.
         21   -1    0    0  502  503 -0.00000000000E+00 -0.00000000000E+00 -0.87280086898E+02  0.87280086898E+02  0.00000000000E+00 0. -1.
          6    1    1    2  501    0 -0.16568173455E+02  0.45972313518E+02  0.25183689859E+03  0.30885883745E+03  0.17200000000E+03 0. -1.
         -6    1    1    2    0  503  0.16568173455E+02 -0.45972313518E+02  0.77237510505E+02  0.19477574544E+03  0.17200000000E+03 0. -1.
<mgrwt>
<rscale>  2 0.17880704E+03</rscale>
<asrwt>0</asrwt>
<pdfrwt beam="1">  1       21 0.10408862E+00 0.17880704E+03</pdfrwt>
<pdfrwt beam="2">  1       21 0.21820023E-01 0.17880704E+03</pdfrwt>
<totfact> 0.14761049E+04</totfact>
</mgrwt>
</event>
<event>
 4    1  0.1101825E+000  0.1981795E+03  0.7546771E-02  0.1151284E+00
         21   -1    0    0  501  502  0.00000000000E+00  0.00000000000E+00  0.30402229518E+03  0.30402229518E+03  0.00000000000E+00 0. -1.
         21   -1    0    0  502  503 -0.00000000000E+00 -0.00000000000E+00 -0.19030246608E+03  0.19030246608E+03  0.00000000000E+00 0. -1.
          6    1    1    2  501    0  0.52299902999E+02 -0.83401595919E+02  0.19692922702E+03  0.27938544434E+03  0.17200000000E+03 0. -1.
         -6    1    1    2    0  503 -0.52299902999E+02  0.83401595919E+02 -0.83209397924E+02  0.21493931692E+03  0.17200000000E+03 0. -1.
<mgrwt>
<rscale>  2 0.19817948E+03</rscale>
<asrwt>0</asrwt>
<pdfrwt beam="1">  1       21 0.76005573E-01 0.19817948E+03</pdfrwt>
<pdfrwt beam="2">  1       21 0.47575617E-01 0.19817948E+03</pdfrwt>
<totfact> 0.64933388E+03</totfact>
</mgrwt>
</event>
<event>
 4    1  0.1101825E+000  0.2634203E+03  0.7546771E-02  0.1105105E+00
         21   -1    0    0  503  502  0.00000000000E+00  0.00000000000E+00  0.25460091617E+03  0.25460091617E+03  0.00000000000E+00 0. -1.
         21   -1    0    0  501  503 -0.00000000000E+00 -0.00000000000E+00 -0.27269708366E+03  0.27269708366E+03  0.00000000000E+00 0.  1.
          6    1    1    2  501    0 -0.19911934620E+03 -0.12560375598E+02 -0.28274854749E+01  0.26343551724E+03  0.17200000000E+03 0. -1.
         -6    1    1    2    0  502  0.19911934620E+03  0.12560375598E+02 -0.15268682019E+02  0.26386248259E+03  0.17200000000E+03 0.  1.
<mgrwt>
<rscale>  2 0.26342034E+03</rscale>
<asrwt>0</asrwt>
<pdfrwt beam="1">  1       21 0.63650229E-01 0.26342034E+03</pdfrwt>
<pdfrwt beam="2">  1       21 0.68174271E-01 0.26342034E+03</pdfrwt>
<totfact> 0.42633618E+03</totfact>
</mgrwt>
</event>
<event>
 4    1  0.1101825E+000  0.2679370E+03  0.7546771E-02  0.1102466E+00
         21   -1    0    0  503  502  0.00000000000E+00  0.00000000000E+00  0.18394723806E+03  0.18394723806E+03  0.00000000000E+00 0.  1.
         21   -1    0    0  501  503 -0.00000000000E+00 -0.00000000000E+00 -0.88423979947E+03  0.88423979947E+03  0.00000000000E+00 0.  1.
          6    1    1    2  501    0  0.12779297844E+03  0.16085772149E+03 -0.74933632111E+03  0.79579845064E+03  0.17200000000E+03 0.  1.
         -6    1    1    2    0  502 -0.12779297844E+03 -0.16085772149E+03  0.49043759700E+02  0.27238858689E+03  0.17200000000E+03 0.  1.
<mgrwt>
<rscale>  2 0.26793703E+03</rscale>
<asrwt>0</asrwt>
<pdfrwt beam="1">  1       21 0.45986811E-01 0.26793703E+03</pdfrwt>
<pdfrwt beam="2">  1       21 0.22105994E+00 0.26793703E+03</pdfrwt>
<totfact> 0.41375986E+02</totfact>
</mgrwt>
</event>
<event>
 4    1  0.1101825E+000  0.2040391E+03  0.7546771E-02  0.1146375E+00
         21   -1    0    0  501  502  0.00000000000E+00  0.00000000000E+00  0.42827021013E+03  0.42827021013E+03  0.00000000000E+00 0. -1.
         21   -1    0    0  502  503 -0.00000000000E+00 -0.00000000000E+00 -0.16288610773E+03  0.16288610773E+03  0.00000000000E+00 0.  1.
          6    1    1    2  501    0  0.57363756324E+02  0.93580677203E+02  0.32037965545E+03  0.37983557931E+03  0.17200000000E+03 0. -1.
         -6    1    1    2    0  503 -0.57363756324E+02 -0.93580677203E+02 -0.54995553056E+02  0.21132073855E+03  0.17200000000E+03 0. -1.
<mgrwt>
<rscale>  2 0.20403907E+03</rscale>
<asrwt>0</asrwt>
<pdfrwt beam="1">  1       21 0.10706755E+00 0.20403907E+03</pdfrwt>
<pdfrwt beam="2">  1       21 0.40721528E-01 0.20403907E+03</pdfrwt>
<totfact> 0.40124010E+03</totfact>
</mgrwt>
</event>
<event>
 4    1  0.1101825E+000  0.1789495E+03  0.7546771E-02  0.1168824E+00
         21   -1    0    0  503  502  0.00000000000E+00  0.00000000000E+00  0.53382286457E+03  0.53382286457E+03  0.00000000000E+00 0. -1.
         21   -1    0    0  501  503 -0.00000000000E+00 -0.00000000000E+00 -0.10223055867E+03  0.10223055867E+03  0.00000000000E+00 0. -1.
          6    1    1    2  501    0 -0.49092479450E+02  0.53699232387E+01  0.11364141492E+02  0.17930993092E+03  0.17200000000E+03 0. -1.
         -6    1    1    2    0  502  0.49092479450E+02 -0.53699232387E+01  0.42022816441E+03  0.45674349232E+03  0.17200000000E+03 0. -1.
<mgrwt>
<rscale>  2 0.17894946E+03</rscale>
<asrwt>0</asrwt>
<pdfrwt beam="1">  1       21 0.13345571E+00 0.17894946E+03</pdfrwt>
<pdfrwt beam="2">  1       21 0.25557641E-01 0.17894946E+03</pdfrwt>
<totfact> 0.59398337E+03</totfact>
</mgrwt>
</event>
<event>
 4    1  0.1101825E+000  0.2287090E+03  0.7546771E-02  0.1127552E+00
         21   -1    0    0  501  502  0.00000000000E+00  0.00000000000E+00  0.19089324157E+03  0.19089324157E+03  0.00000000000E+00 0. -1.
         21   -1    0    0  502  503 -0.00000000000E+00 -0.00000000000E+00 -0.35260841394E+03  0.35260841394E+03  0.00000000000E+00 0.  1.
          6    1    1    2  501    0  0.71846656454E+02 -0.13252115668E+03  0.47438942053E+02  0.23357707986E+03  0.17200000000E+03 0. -1.
         -6    1    1    2    0  503 -0.71846656454E+02  0.13252115668E+03 -0.20915411442E+03  0.30992457565E+03  0.17200000000E+03 0.  1.
<mgrwt>
<rscale>  2 0.22870898E+03</rscale>
<asrwt>0</asrwt>
<pdfrwt beam="1">  1       21 0.47723311E-01 0.22870898E+03</pdfrwt>
<pdfrwt beam="2">  1       21 0.88152103E-01 0.22870898E+03</pdfrwt>
<totfact> 0.45022414E+03</totfact>
</mgrwt>
</event>
<event>
 4    1  0.1101825E+000  0.2298360E+03  0.7546771E-02  0.1126755E+00
         21   -1    0    0  501  502  0.00000000000E+00  0.00000000000E+00  0.61241580028E+03  0.61241580028E+03  0.00000000000E+00 0. -1.
         21   -1    0    0  502  503 -0.00000000000E+00 -0.00000000000E+00 -0.88538680166E+02  0.88538680166E+02  0.00000000000E+00 0. -1.
          6    1    1    2  501    0 -0.13063503170E+03  0.78581507306E+02  0.31821304838E+03  0.39253548752E+03  0.17200000000E+03 0.  1.
         -6    1    1    2    0  503  0.13063503170E+03 -0.78581507306E+02  0.20566407173E+03  0.30841899293E+03  0.17200000000E+03 0.  1.
<mgrwt>
<rscale>  2 0.22983595E+03</rscale>
<asrwt>0</asrwt>
<pdfrwt beam="1">  1       21 0.15310394E+00 0.22983595E+03</pdfrwt>
<pdfrwt beam="2">  1       21 0.22134672E-01 0.22983595E+03</pdfrwt>
<totfact> 0.52465637E+03</totfact>
</mgrwt>
</event>
<event>
 4    1  0.1101825E+000  0.1870925E+03  0.7546771E-02  0.1161110E+00
         21   -1    0    0  501  502  0.00000000000E+00  0.00000000000E+00  0.21808336088E+03  0.21808336088E+03  0.00000000000E+00 0. -1.
         21   -1    0    0  502  503 -0.00000000000E+00 -0.00000000000E+00 -0.16911635219E+03  0.16911635219E+03  0.00000000000E+00 0. -1.
          6    1    1    2  501    0 -0.70158258594E+02  0.22302783237E+02  0.68168609764E+02  0.19912447049E+03  0.17200000000E+03 0. -1.
         -6    1    1    2    0  503  0.70158258594E+02 -0.22302783237E+02 -0.19201601083E+02  0.18807524258E+03  0.17200000000E+03 0. -1.
<mgrwt>
<rscale>  2 0.18709248E+03</rscale>
<asrwt>0</asrwt>
<pdfrwt beam="1">  1       21 0.54520840E-01 0.18709248E+03</pdfrwt>
<pdfrwt beam="2">  1       21 0.42279088E-01 0.18709248E+03</pdfrwt>
<totfact> 0.17163032E+04</totfact>
</mgrwt>
</event>
<event>
 4    1  0.1101825E+000  0.2224864E+03  0.7546771E-02  0.1132043E+00
         21   -1    0    0  503  502  0.00000000000E+00  0.00000000000E+00  0.47302430549E+03  0.47302430549E+03  0.00000000000E+00 0. -1.
         21   -1    0    0  501  503 -0.00000000000E+00 -0.00000000000E+00 -0.11367331381E+03  0.11367331381E+03  0.00000000000E+00 0. -1.
          6    1    1    2  501    0 -0.87430624276E+02 -0.11077946851E+03  0.97009083478E+02  0.24271581527E+03  0.17200000000E+03 0. -1.
         -6    1    1    2    0  502  0.87430624276E+02  0.11077946851E+03  0.26234190821E+03  0.34398180403E+03  0.17200000000E+03 0. -1.
<mgrwt>
<rscale>  2 0.22248641E+03</rscale>
<asrwt>0</asrwt>
<pdfrwt beam="1">  1       21 0.11825607E+00 0.22248641E+03</pdfrwt>
<pdfrwt beam="2">  1       21 0.28418330E-01 0.22248641E+03</pdfrwt>
<totfact> 0.63401930E+03</totfact>
</mgrwt>
</event>
<event>
 4    1  0.1101825E+000  0.2497286E+03  0.7546771E-02  0.1113476E+00
         21   -1    0    0  503  502  0.00000000000E+00  0.00000000000E+00  0.47983191605E+03  0.47983191605E+03  0.00000000000E+00 0.  1.
         21   -1    0    0  501  503 -0.00000000000E+00 -0.00000000000E+00 -0.28451292110E+03  0.28451292110E+03  0.00000000000E+00 0.  1.
          6    1    1    2  501    0  0.13899525320E+03 -0.11602025079E+03 -0.18400432709E+03  0.31019666567E+03  0.17200000000E+03 0.  1.
         -6    1    1    2    0  502 -0.13899525320E+03  0.11602025079E+03  0.37932332204E+03  0.45414817147E+03  0.17200000000E+03 0.  1.
<mgrwt>
<rscale>  2 0.24972861E+03</rscale>
<asrwt>0</asrwt>
<pdfrwt beam="1">  1       21 0.11995798E+00 0.24972861E+03</pdfrwt>
<pdfrwt beam="2">  1       21 0.71128231E-01 0.24972861E+03</pdfrwt>
<totfact> 0.89701214E+02</totfact>
</mgrwt>
</event>
<event>
 4    1  0.1101825E+000  0.1883784E+03  0.7546771E-02  0.1159932E+00
         21   -1    0    0  503  502  0.00000000000E+00  0.00000000000E+00  0.21273339283E+04  0.21273339283E+04  0.00000000000E+00 0. -1.
         21   -1    0    0  501  503 -0.00000000000E+00 -0.00000000000E+00 -0.20162568343E+02  0.20162568343E+02  0.00000000000E+00 0.  1.
          6    1    1    2  501    0 -0.74377775668E+02  0.19244463243E+02  0.60740899631E+03  0.63594975562E+03  0.17200000000E+03 0.  1.
         -6    1    1    2    0  502  0.74377775668E+02 -0.19244463243E+02  0.14997623637E+04  0.15115467411E+04  0.17200000000E+03 0. -1.
<mgrwt>
<rscale>  2 0.18837835E+03</rscale>
<asrwt>0</asrwt>
<pdfrwt beam="1">  1       21 0.53183272E+00 0.18837835E+03</pdfrwt>
<pdfrwt beam="2">  1       21 0.50406493E-02 0.18837835E+03</pdfrwt>
<totfact> 0.29898478E+02</totfact>
</mgrwt>
</event>
<event>
 4    1  0.1101825E+000  0.1991794E+03  0.7546771E-02  0.1150433E+00
         21   -1    0    0  503  502  0.00000000000E+00  0.00000000000E+00  0.41542916921E+03  0.41542916921E+03  0.00000000000E+00 0.  1.
         21   -1    0    0  501  503 -0.00000000000E+00 -0.00000000000E+00 -0.47038959837E+03  0.47038959837E+03  0.00000000000E+00 0.  1.
          6    1    1    2  501    0  0.82238340561E+01  0.10010389010E+03 -0.42288252953E+03  0.46744203281E+03  0.17200000000E+03 0.  1.
         -6    1    1    2    0  502 -0.82238340561E+01 -0.10010389010E+03  0.36792210036E+03  0.41837673477E+03  0.17200000000E+03 0.  1.
<mgrwt>
<rscale>  2 0.19917937E+03</rscale>
<asrwt>0</asrwt>
<pdfrwt beam="1">  1       21 0.10385729E+00 0.19917937E+03</pdfrwt>
<pdfrwt beam="2">  1       21 0.11759740E+00 0.19917937E+03</pdfrwt>
<totfact> 0.41328882E+02</totfact>
</mgrwt>
</event>
<event>
 4    1  0.1101825E+000  0.2025540E+03  0.7546771E-02  0.1147602E+00
         21   -1    0    0  501  502  0.00000000000E+00  0.00000000000E+00  0.43174081865E+03  0.43174081865E+03  0.00000000000E+00 0.  1.
         21   -1    0    0  502  503 -0.00000000000E+00 -0.00000000000E+00 -0.95561638408E+02  0.95561638408E+02  0.00000000000E+00 0. -1.
          6    1    1    2  501    0  0.93708210059E+02  0.51603343482E+02  0.14841608169E+03  0.25110847655E+03  0.17200000000E+03 0.  1.
         -6    1    1    2    0  503 -0.93708210059E+02 -0.51603343482E+02  0.18776309856E+03  0.27619398051E+03  0.17200000000E+03 0. -1.
<mgrwt>
<rscale>  2 0.20255403E+03</rscale>
<asrwt>0</asrwt>
<pdfrwt beam="1">  1       21 0.10793520E+00 0.20255403E+03</pdfrwt>
<pdfrwt beam="2">  1       21 0.23890411E-01 0.20255403E+03</pdfrwt>
<totfact> 0.11213511E+04</totfact>
</mgrwt>
</event>
<event>
 4    1  0.1101825E+000  0.2311338E+03  0.7546771E-02  0.1125844E+00
         21   -1    0    0  503  502  0.00000000000E+00  0.00000000000E+00  0.92508766710E+03  0.92508766710E+03  0.00000000000E+00 0.  1.
         21   -1    0    0  501  503 -0.00000000000E+00 -0.00000000000E+00 -0.20848624065E+03  0.20848624065E+03  0.00000000000E+00 0.  1.
          6    1    1    2  501    0  0.80854321674E+02 -0.13153484960E+03 -0.12363765617E+03  0.26212422249E+03  0.17200000000E+03 0.  1.
         -6    1    1    2    0  502 -0.80854321674E+02  0.13153484960E+03  0.84023908261E+03  0.87144968526E+03  0.17200000000E+03 0.  1.
<mgrwt>
<rscale>  2 0.23113381E+03</rscale>
<asrwt>0</asrwt>
<pdfrwt beam="1">  1       21 0.23127191E+00 0.23113381E+03</pdfrwt>
<pdfrwt beam="2">  1       21 0.52121563E-01 0.23113381E+03</pdfrwt>
<totfact> 0.28602823E+02</totfact>
</mgrwt>
</event>
<event>
 4    1  0.1101825E+000  0.1918597E+03  0.7546771E-02  0.1156795E+00
         21   -1    0    0  503  502  0.00000000000E+00  0.00000000000E+00  0.75523864265E+02  0.75523864265E+02  0.00000000000E+00 0. -1.
         21   -1    0    0  501  503 -0.00000000000E+00 -0.00000000000E+00 -0.95262180430E+03  0.95262180430E+03  0.00000000000E+00 0. -1.
          6    1    1    2  501    0  0.40186996989E+02  0.74907600902E+02 -0.79779798706E+03  0.82054358297E+03  0.17200000000E+03 0. -1.
         -6    1    1    2    0  502 -0.40186996989E+02 -0.74907600902E+02 -0.79299952973E+02  0.20760208559E+03  0.17200000000E+03 0. -1.
<mgrwt>
<rscale>  2 0.19185970E+03</rscale>
<asrwt>0</asrwt>
<pdfrwt beam="1">  1       21 0.18880967E-01 0.19185970E+03</pdfrwt>
<pdfrwt beam="2">  1       21 0.23815544E+00 0.19185970E+03</pdfrwt>
<totfact> 0.20097335E+03</totfact>
</mgrwt>
</event>
<event>
 4    1  0.1101825E+000  0.1852151E+03  0.7546771E-02  0.1162849E+00
         21   -1    0    0  503  502  0.00000000000E+00  0.00000000000E+00  0.47033050456E+03  0.47033050456E+03  0.00000000000E+00 0. -1.
         21   -1    0    0  501  503 -0.00000000000E+00 -0.00000000000E+00 -0.78872675634E+02  0.78872675634E+02  0.00000000000E+00 0. -1.
          6    1    1    2  501    0  0.50009286715E+02 -0.47113872417E+02  0.12039974227E+03  0.22090890356E+03  0.17200000000E+03 0. -1.
         -6    1    1    2    0  502 -0.50009286715E+02  0.47113872417E+02  0.27105808666E+03  0.32829427664E+03  0.17200000000E+03 0. -1.
<mgrwt>
<rscale>  2 0.18521513E+03</rscale>
<asrwt>0</asrwt>
<pdfrwt beam="1">  1       21 0.11758262E+00 0.18521513E+03</pdfrwt>
<pdfrwt beam="2">  1       21 0.19718170E-01 0.18521513E+03</pdfrwt>
<totfact> 0.13229229E+04</totfact>
</mgrwt>
</event>
<event>
 4    1  0.1101825E+000  0.2276650E+03  0.7546771E-02  0.1128294E+00
         21   -1    0    0  503  502  0.00000000000E+00  0.00000000000E+00  0.10258837517E+03  0.10258837517E+03  0.00000000000E+00 0. -1.
         21   -1    0    0  501  503 -0.00000000000E+00 -0.00000000000E+00 -0.51281324989E+03  0.51281324989E+03  0.00000000000E+00 0. -1.
          6    1    1    2  501    0  0.12219390863E+03 -0.85533725029E+02 -0.16771027616E+03  0.28276864422E+03  0.17200000000E+03 0. -1.
         -6    1    1    2    0  502 -0.12219390863E+03  0.85533725029E+02 -0.24251459857E+03  0.33263298084E+03  0.17200000000E+03 0. -1.
<mgrwt>
<rscale>  2 0.22766504E+03</rscale>
<asrwt>0</asrwt>
<pdfrwt beam="1">  1       21 0.25647095E-01 0.22766504E+03</pdfrwt>
<pdfrwt beam="2">  1       21 0.12820331E+00 0.22766504E+03</pdfrwt>
<totfact> 0.62907857E+03</totfact>
</mgrwt>
</event>
<event>
 4    1  0.1101825E+000  0.1839203E+03  0.7546771E-02  0.1164062E+00
         21   -1    0    0  501  502  0.00000000000E+00  0.00000000000E+00  0.28135027691E+03  0.28135027691E+03  0.00000000000E+00 0.  1.
         21   -1    0    0  502  503 -0.00000000000E+00 -0.00000000000E+00 -0.23545725015E+03  0.23545725015E+03  0.00000000000E+00 0.  1.
          6    1    1    2  501    0  0.29359442928E+02  0.58143640023E+02  0.20371426758E+03  0.27445612141E+03  0.17200000000E+03 0.  1.
         -6    1    1    2    0  503 -0.29359442928E+02 -0.58143640023E+02 -0.15782124082E+03  0.24235140565E+03  0.17200000000E+03 0.  1.
<mgrwt>
<rscale>  2 0.18392025E+03</rscale>
<asrwt>0</asrwt>
<pdfrwt beam="1">  1       21 0.70337569E-01 0.18392025E+03</pdfrwt>
<pdfrwt beam="2">  1       21 0.58864313E-01 0.18392025E+03</pdfrwt>
<totfact> 0.49834046E+03</totfact>
</mgrwt>
</event>
<event>
 4    1  0.1101825E+000  0.1817506E+03  0.7546771E-02  0.1166119E+00
         21   -1    0    0  503  502  0.00000000000E+00  0.00000000000E+00  0.32674931465E+03  0.32674931465E+03  0.00000000000E+00 0. -1.
         21   -1    0    0  501  503 -0.00000000000E+00 -0.00000000000E+00 -0.14298543540E+03  0.14298543540E+03  0.00000000000E+00 0. -1.
          6    1    1    2  501    0 -0.13767195163E+02 -0.57094262169E+02 -0.35241375931E+02  0.18513574753E+03  0.17200000000E+03 0. -1.
         -6    1    1    2    0  502  0.13767195163E+02  0.57094262169E+02  0.21900525518E+03  0.28459900251E+03  0.17200000000E+03 0. -1.
<mgrwt>
<rscale>  2 0.18175063E+03</rscale>
<asrwt>0</asrwt>
<pdfrwt beam="1">  1       21 0.81687327E-01 0.18175063E+03</pdfrwt>
<pdfrwt beam="2">  1       21 0.35746359E-01 0.18175063E+03</pdfrwt>
<totfact> 0.99751456E+03</totfact>
</mgrwt>
</event>
<event>
 4    1  0.1101825E+000  0.1927749E+03  0.7546771E-02  0.1155982E+00
         21   -1    0    0  501  502  0.00000000000E+00  0.00000000000E+00  0.37950779173E+02  0.37950779173E+02  0.00000000000E+00 0.  1.
         21   -1    0    0  502  503 -0.00000000000E+00 -0.00000000000E+00 -0.98185945741E+03  0.98185945741E+03  0.00000000000E+00 0.  1.
          6    1    1    2  501    0 -0.18773883599E+02 -0.85004041818E+02 -0.49839407093E+03  0.53437701650E+03  0.17200000000E+03 0.  1.
         -6    1    1    2    0  503  0.18773883599E+02  0.85004041818E+02 -0.44551460731E+03  0.48543322008E+03  0.17200000000E+03 0.  1.
<mgrwt>
<rscale>  2 0.19277486E+03</rscale>
<asrwt>0</asrwt>
<pdfrwt beam="1">  1       21 0.94876951E-02 0.19277486E+03</pdfrwt>
<pdfrwt beam="2">  1       21 0.24546486E+00 0.19277486E+03</pdfrwt>
<totfact> 0.62950893E+03</totfact>
</mgrwt>
</event>
<event>
 4    1  0.1101825E+000  0.1855377E+03  0.7546771E-02  0.1162549E+00
         21   -1    0    0  501  502  0.00000000000E+00  0.00000000000E+00  0.11537291651E+03  0.11537291651E+03  0.00000000000E+00 0.  1.
         21   -1    0    0  502  503 -0.00000000000E+00 -0.00000000000E+00 -0.65353795245E+03  0.65353795245E+03  0.00000000000E+00 0.  1.
          6    1    1    2  501    0  0.11706305512E+00  0.69571733933E+02  0.14334055533E+02  0.18609058282E+03  0.17200000000E+03 0.  1.
         -6    1    1    2    0  503 -0.11706305512E+00 -0.69571733933E+02 -0.55249909147E+03  0.58282028614E+03  0.17200000000E+03 0.  1.
<mgrwt>
<rscale>  2 0.18553770E+03</rscale>
<asrwt>0</asrwt>
<pdfrwt beam="1">  1       21 0.28843230E-01 0.18553770E+03</pdfrwt>
<pdfrwt beam="2">  1       21 0.16338449E+00 0.18553770E+03</pdfrwt>
<totfact> 0.27543550E+03</totfact>
</mgrwt>
</event>
<event>
 4    1  0.1101825E+000  0.2351631E+03  0.7546771E-02  0.1123058E+00
         21   -1    0    0  503  502  0.00000000000E+00  0.00000000000E+00  0.51390381156E+03  0.51390381156E+03  0.00000000000E+00 0.  1.
         21   -1    0    0  501  503 -0.00000000000E+00 -0.00000000000E+00 -0.10845729724E+03  0.10845729724E+03  0.00000000000E+00 0.  1.
          6    1    1    2  501    0 -0.14743591687E+03  0.63090016282E+02  0.23021144979E+03  0.32908815134E+03  0.17200000000E+03 0.  1.
         -6    1    1    2    0  502  0.14743591687E+03 -0.63090016282E+02  0.17523506453E+03  0.29327295746E+03  0.17200000000E+03 0.  1.
<mgrwt>
<rscale>  2 0.23516313E+03</rscale>
<asrwt>0</asrwt>
<pdfrwt beam="1">  1       21 0.12847595E+00 0.23516313E+03</pdfrwt>
<pdfrwt beam="2">  1       21 0.27114326E-01 0.23516313E+03</pdfrwt>
<totfact> 0.55916916E+03</totfact>
</mgrwt>
</event>
<event>
 4    1  0.1101825E+000  0.1839839E+03  0.7546771E-02  0.1164002E+00
         21   -1    0    0  503  502  0.00000000000E+00  0.00000000000E+00  0.37464157423E+03  0.37464157423E+03  0.00000000000E+00 0. -1.
         21   -1    0    0  501  503 -0.00000000000E+00 -0.00000000000E+00 -0.22888022734E+03  0.22888022734E+03  0.00000000000E+00 0. -1.
          6    1    1    2  501    0 -0.38871593741E+02 -0.52488838090E+02  0.30764171565E+03  0.35845990590E+03  0.17200000000E+03 0. -1.
         -6    1    1    2    0  502  0.38871593741E+02  0.52488838090E+02 -0.16188036876E+03  0.24506189568E+03  0.17200000000E+03 0. -1.
<mgrwt>
<rscale>  2 0.18398391E+03</rscale>
<asrwt>0</asrwt>
<pdfrwt beam="1">  1       21 0.93660393E-01 0.18398391E+03</pdfrwt>
<pdfrwt beam="2">  1       21 0.57220057E-01 0.18398391E+03</pdfrwt>
<totfact> 0.27673595E+03</totfact>
</mgrwt>
</event>
<event>
 4    1  0.1101825E+000  0.1994166E+03  0.7546771E-02  0.1150232E+00
         21   -1    0    0  501  502  0.00000000000E+00  0.00000000000E+00  0.17287340288E+03  0.17287340288E+03  0.00000000000E+00 0. -1.
         21   -1    0    0  502  503 -0.00000000000E+00 -0.00000000000E+00 -0.24544305813E+03  0.24544305813E+03  0.00000000000E+00 0. -1.
          6    1    1    2  501    0 -0.72502676692E+02  0.70187933265E+02 -0.88689425066E+02  0.21824939455E+03  0.17200000000E+03 0. -1.
         -6    1    1    2    0  503  0.72502676692E+02 -0.70187933265E+02  0.16119769810E+02  0.20006706646E+03  0.17200000000E+03 0. -1.
<mgrwt>
<rscale>  2 0.19941661E+03</rscale>
<asrwt>0</asrwt>
<pdfrwt beam="1">  1       21 0.43218351E-01 0.19941661E+03</pdfrwt>
<pdfrwt beam="2">  1       21 0.61360764E-01 0.19941661E+03</pdfrwt>
<totfact> 0.12652901E+04</totfact>
</mgrwt>
</event>
<event>
 4    1  0.1101825E+000  0.1851221E+03  0.7546771E-02  0.1162936E+00
         21   -1    0    0  503  502  0.00000000000E+00  0.00000000000E+00  0.29435192643E+02  0.29435192643E+02  0.00000000000E+00 0.  1.
         21   -1    0    0  501  503 -0.00000000000E+00 -0.00000000000E+00 -0.13465628040E+04  0.13465628040E+04  0.00000000000E+00 0.  1.
          6    1    1    2  501    0  0.52639256529E+02 -0.43763942347E+02 -0.91171089014E+03  0.93031549551E+03  0.17200000000E+03 0.  1.
         -6    1    1    2    0  502 -0.52639256529E+02  0.43763942347E+02 -0.40541672121E+03  0.44568250113E+03  0.17200000000E+03 0.  1.
<mgrwt>
<rscale>  2 0.18512205E+03</rscale>
<asrwt>0</asrwt>
<pdfrwt beam="1">  1       21 0.73587985E-02 0.18512205E+03</pdfrwt>
<pdfrwt beam="2">  1       21 0.33664069E+00 0.18512205E+03</pdfrwt>
<totfact> 0.29357408E+03</totfact>
</mgrwt>
</event>
<event>
 4    1  0.1101825E+000  0.2150912E+03  0.7546771E-02  0.1137597E+00
         21   -1    0    0  501  502  0.00000000000E+00  0.00000000000E+00  0.16360865761E+03  0.16360865761E+03  0.00000000000E+00 0.  1.
         21   -1    0    0  502  503 -0.00000000000E+00 -0.00000000000E+00 -0.29828368334E+03  0.29828368334E+03  0.00000000000E+00 0. -1.
          6    1    1    2  501    0 -0.38372611518E+02 -0.12331975668E+03 -0.14674927586E+02  0.21559121782E+03  0.17200000000E+03 0.  1.
         -6    1    1    2    0  503  0.38372611518E+02  0.12331975668E+03 -0.12000009814E+03  0.24630112313E+03  0.17200000000E+03 0. -1.
<mgrwt>
<rscale>  2 0.21509119E+03</rscale>
<asrwt>0</asrwt>
<pdfrwt beam="1">  1       21 0.40902165E-01 0.21509119E+03</pdfrwt>
<pdfrwt beam="2">  1       21 0.74570920E-01 0.21509119E+03</pdfrwt>
<totfact> 0.91303193E+03</totfact>
</mgrwt>
</event>
<event>
 4    1  0.1101825E+000  0.2235007E+03  0.7546771E-02  0.1131300E+00
         21   -1    0    0  503  502  0.00000000000E+00  0.00000000000E+00  0.86456474828E+03  0.86456474828E+03  0.00000000000E+00 0. -1.
         21   -1    0    0  501  503 -0.00000000000E+00 -0.00000000000E+00 -0.11847111186E+03  0.11847111186E+03  0.00000000000E+00 0.  1.
          6    1    1    2  501    0  0.90130848222E+02 -0.11065704705E+03  0.21240241855E+02  0.22450768302E+03  0.17200000000E+03 0.  1.
         -6    1    1    2    0  502 -0.90130848222E+02  0.11065704705E+03  0.72485339457E+03  0.75852817712E+03  0.17200000000E+03 0. -1.
<mgrwt>
<rscale>  2 0.22350068E+03</rscale>
<asrwt>0</asrwt>
<pdfrwt beam="1">  1       21 0.21614117E+00 0.22350068E+03</pdfrwt>
<pdfrwt beam="2">  1       21 0.29617781E-01 0.22350068E+03</pdfrwt>
<totfact> 0.11228619E+03</totfact>
</mgrwt>
</event>
<event>
 4    1  0.1101825E+000  0.1801367E+03  0.7546771E-02  0.1167671E+00
         21   -1    0    0  503  502  0.00000000000E+00  0.00000000000E+00  0.96366569232E+03  0.96366569232E+03  0.00000000000E+00 0.  1.
         21   -1    0    0  501  503 -0.00000000000E+00 -0.00000000000E+00 -0.34772594388E+02  0.34772594388E+02  0.00000000000E+00 0.  1.
          6    1    1    2  501    0 -0.49065256784E+02  0.21396999098E+02  0.55323308322E+03  0.58182134317E+03  0.17200000000E+03 0.  1.
         -6    1    1    2    0  502  0.49065256784E+02 -0.21396999098E+02  0.37566001471E+03  0.41661694354E+03  0.17200000000E+03 0.  1.
<mgrwt>
<rscale>  2 0.18013670E+03</rscale>
<asrwt>0</asrwt>
<pdfrwt beam="1">  1       21 0.24091633E+00 0.18013670E+03</pdfrwt>
<pdfrwt beam="2">  1       21 0.86931518E-02 0.18013670E+03</pdfrwt>
<totfact> 0.79070099E+03</totfact>
</mgrwt>
</event>
<event>
 4    1  0.1101825E+000  0.2121462E+03  0.7546771E-02  0.1139878E+00
         21   -1    0    0  503  502  0.00000000000E+00  0.00000000000E+00  0.14308649174E+03  0.14308649174E+03  0.00000000000E+00 0.  1.
         21   -1    0    0  501  503 -0.00000000000E+00 -0.00000000000E+00 -0.33866687056E+03  0.33866687056E+03  0.00000000000E+00 0.  1.
          6    1    1    2  501    0  0.11837686855E+03 -0.37535807042E+02 -0.33494125006E+02  0.21477401199E+03  0.17200000000E+03 0.  1.
         -6    1    1    2    0  502 -0.11837686855E+03  0.37535807042E+02 -0.16208625382E+03  0.26697935031E+03  0.17200000000E+03 0.  1.
<mgrwt>
<rscale>  2 0.21214622E+03</rscale>
<asrwt>0</asrwt>
<pdfrwt beam="1">  1       21 0.35771623E-01 0.21214622E+03</pdfrwt>
<pdfrwt beam="2">  1       21 0.84666717E-01 0.21214622E+03</pdfrwt>
<totfact> 0.89880241E+03</totfact>
</mgrwt>
</event>
<event>
 4    1  0.1101825E+000  0.1845288E+03  0.7546771E-02  0.1163491E+00
         21   -1    0    0  501  502  0.00000000000E+00  0.00000000000E+00  0.63114329559E+02  0.63114329559E+02  0.00000000000E+00 0. -1.
         21   -1    0    0  502  503 -0.00000000000E+00 -0.00000000000E+00 -0.72936814580E+03  0.72936814580E+03  0.00000000000E+00 0. -1.
          6    1    1    2  501    0  0.47061107079E+02 -0.47456669301E+02 -0.13096487314E+03  0.22628009470E+03  0.17200000000E+03 0. -1.
         -6    1    1    2    0  503 -0.47061107079E+02  0.47456669301E+02 -0.53528894309E+03  0.56620238065E+03  0.17200000000E+03 0. -1.
<mgrwt>
<rscale>  2 0.18452881E+03</rscale>
<asrwt>0</asrwt>
<pdfrwt beam="1">  1       21 0.15778582E-01 0.18452881E+03</pdfrwt>
<pdfrwt beam="2">  1       21 0.18234204E+00 0.18452881E+03</pdfrwt>
<totfact> 0.63196393E+03</totfact>
</mgrwt>
</event>
<event>
 4    1  0.1101825E+000  0.1930447E+03  0.7546771E-02  0.1155744E+00
         21   -1    0    0  503  502  0.00000000000E+00  0.00000000000E+00  0.33507067249E+03  0.33507067249E+03  0.00000000000E+00 0.  1.
         21   -1    0    0  501  503 -0.00000000000E+00 -0.00000000000E+00 -0.15343040619E+03  0.15343040619E+03  0.00000000000E+00 0.  1.
          6    1    1    2  501    0 -0.84313314082E+02  0.23948550181E+02 -0.37293121960E+02  0.19661394898E+03  0.17200000000E+03 0. -1.
         -6    1    1    2    0  502  0.84313314082E+02 -0.23948550181E+02  0.21893338827E+03  0.29188712970E+03  0.17200000000E+03 0. -1.
<mgrwt>
<rscale>  2 0.19304473E+03</rscale>
<asrwt>0</asrwt>
<pdfrwt beam="1">  1       21 0.83767667E-01 0.19304473E+03</pdfrwt>
<pdfrwt beam="2">  1       21 0.38357602E-01 0.19304473E+03</pdfrwt>
<totfact> 0.81183561E+03</totfact>
</mgrwt>
</event>
<event>
 4    1  0.1101825E+000  0.1826671E+03  0.7546771E-02  0.1165246E+00
         21   -1    0    0  503  502  0.00000000000E+00  0.00000000000E+00  0.20145882253E+03  0.20145882253E+03  0.00000000000E+00 0. -1.
         21   -1    0    0  501  503 -0.00000000000E+00 -0.00000000000E+00 -0.23627238171E+03  0.23627238171E+03  0.00000000000E+00 0. -1.
          6    1    1    2  501    0 -0.23984743131E+02 -0.56639212945E+02 -0.13708335044E+03  0.22838369757E+03  0.17200000000E+03 0. -1.
         -6    1    1    2    0  502  0.23984743131E+02  0.56639212945E+02  0.10226979126E+03  0.20934750667E+03  0.17200000000E+03 0. -1.
<mgrwt>
<rscale>  2 0.18266710E+03</rscale>
<asrwt>0</asrwt>
<pdfrwt beam="1">  1       21 0.50364706E-01 0.18266710E+03</pdfrwt>
<pdfrwt beam="2">  1       21 0.59068095E-01 0.18266710E+03</pdfrwt>
<totfact> 0.10126348E+04</totfact>
</mgrwt>
</event>
<event>
 4    1  0.1101825E+000  0.2411706E+03  0.7546771E-02  0.1119015E+00
         21   -1    0    0  501  502  0.00000000000E+00  0.00000000000E+00  0.15663544416E+04  0.15663544416E+04  0.00000000000E+00 0. -1.
         21   -1    0    0  502  503 -0.00000000000E+00 -0.00000000000E+00 -0.39278150308E+02  0.39278150308E+02  0.00000000000E+00 0.  1.
          6    1    1    2  501    0  0.30767407766E+02 -0.16623062149E+03  0.95115920643E+03  0.98125791149E+03  0.17200000000E+03 0. -1.
         -6    1    1    2    0  503 -0.30767407766E+02  0.16623062149E+03  0.57591708485E+03  0.62437468040E+03  0.17200000000E+03 0.  1.
<mgrwt>
<rscale>  2 0.24117059E+03</rscale>
<asrwt>0</asrwt>
<pdfrwt beam="1">  1       21 0.39158840E+00 0.24117059E+03</pdfrwt>
<pdfrwt beam="2">  1       21 0.98195428E-02 0.24117059E+03</pdfrwt>
<totfact> 0.76902021E+02</totfact>
</mgrwt>
</event>
<event>
 4    1  0.1101825E+000  0.1846779E+03  0.7546771E-02  0.1163351E+00
         21   -1    0    0  501  502  0.00000000000E+00  0.00000000000E+00  0.11261128202E+03  0.11261128202E+03  0.00000000000E+00 0. -1.
         21   -1    0    0  502  503 -0.00000000000E+00 -0.00000000000E+00 -0.45632989226E+03  0.45632989226E+03  0.00000000000E+00 0.  1.
          6    1    1    2  501    0 -0.66908095509E+02  0.67267829578E+01 -0.68899231052E+01  0.18480642276E+03  0.17200000000E+03 0. -1.
         -6    1    1    2    0  503  0.66908095509E+02 -0.67267829578E+01 -0.33682868713E+03  0.38413475152E+03  0.17200000000E+03 0.  1.
<mgrwt>
<rscale>  2 0.18467794E+03</rscale>
<asrwt>0</asrwt>
<pdfrwt beam="1">  1       21 0.28152821E-01 0.18467794E+03</pdfrwt>
<pdfrwt beam="2">  1       21 0.11408247E+00 0.18467794E+03</pdfrwt>
<totfact> 0.72510485E+03</totfact>
</mgrwt>
</event>
<event>
 4    1  0.1101825E+000  0.1990340E+03  0.7546771E-02  0.1150557E+00
         21   -1    0    0  501  502  0.00000000000E+00  0.00000000000E+00  0.87907955307E+02  0.87907955307E+02  0.00000000000E+00 0. -1.
         21   -1    0    0  502  503 -0.00000000000E+00 -0.00000000000E+00 -0.72940988901E+03  0.72940988901E+03  0.00000000000E+00 0. -1.
          6    1    1    2  501    0  0.86852046162E+02  0.49872370928E+02 -0.68111709051E+02  0.21036572015E+03  0.17200000000E+03 0. -1.
         -6    1    1    2    0  503 -0.86852046162E+02 -0.49872370928E+02 -0.57339022465E+03  0.60695212416E+03  0.17200000000E+03 0. -1.
<mgrwt>
<rscale>  2 0.19903400E+03</rscale>
<asrwt>0</asrwt>
<pdfrwt beam="1">  1       21 0.21976989E-01 0.19903400E+03</pdfrwt>
<pdfrwt beam="2">  1       21 0.18235247E+00 0.19903400E+03</pdfrwt>
<totfact> 0.33722026E+03</totfact>
</mgrwt>
</event>
<event>
 4    1  0.1101825E+000  0.1874866E+03  0.7546771E-02  0.1160748E+00
         21   -1    0    0  501  502  0.00000000000E+00  0.00000000000E+00  0.39897425528E+03  0.39897425528E+03  0.00000000000E+00 0.  1.
         21   -1    0    0  502  503 -0.00000000000E+00 -0.00000000000E+00 -0.89670204709E+02  0.89670204709E+02  0.00000000000E+00 0.  1.
          6    1    1    2  501    0 -0.52712868571E+02 -0.52806965098E+02  0.18694181008E+03  0.26476114223E+03  0.17200000000E+03 0.  1.
         -6    1    1    2    0  503  0.52712868571E+02  0.52806965098E+02  0.12236224049E+03  0.22388331776E+03  0.17200000000E+03 0.  1.
<mgrwt>
<rscale>  2 0.18748659E+03</rscale>
<asrwt>0</asrwt>
<pdfrwt beam="1">  1       21 0.99743559E-01 0.18748659E+03</pdfrwt>
<pdfrwt beam="2">  1       21 0.22417552E-01 0.18748659E+03</pdfrwt>
<totfact> 0.15439894E+04</totfact>
</mgrwt>
</event>
<event>
 4    1  0.1101825E+000  0.1853528E+03  0.7546771E-02  0.1162721E+00
         21   -1    0    0  501  502  0.00000000000E+00  0.00000000000E+00  0.31407266606E+03  0.31407266606E+03  0.00000000000E+00 0. -1.
         21   -1    0    0  502  503 -0.00000000000E+00 -0.00000000000E+00 -0.18387142545E+03  0.18387142545E+03  0.00000000000E+00 0. -1.
          6    1    1    2  501    0  0.11841697035E+02  0.68054521227E+02  0.22356241129E+03  0.29040625921E+03  0.17200000000E+03 0. -1.
         -6    1    1    2    0  503 -0.11841697035E+02 -0.68054521227E+02 -0.93361170672E+02  0.20753783230E+03  0.17200000000E+03 0. -1.
<mgrwt>
<rscale>  2 0.18535275E+03</rscale>
<asrwt>0</asrwt>
<pdfrwt beam="1">  1       21 0.78518166E-01 0.18535275E+03</pdfrwt>
<pdfrwt beam="2">  1       21 0.45967857E-01 0.18535275E+03</pdfrwt>
<totfact> 0.65427463E+03</totfact>
</mgrwt>
</event>
<event>
 4    1  0.1101825E+000  0.1730198E+03  0.7546771E-02  0.1174735E+00
         21   -1    0    0  501  502  0.00000000000E+00  0.00000000000E+00  0.58391156398E+03  0.58391156398E+03  0.00000000000E+00 0.  1.
         21   -1    0    0  502  503 -0.00000000000E+00 -0.00000000000E+00 -0.53482357702E+02  0.53482357702E+02  0.00000000000E+00 0.  1.
          6    1    1    2  501    0  0.16203540266E+02  0.94496356036E+01  0.33006579899E+03  0.37266510702E+03  0.17200000000E+03 0.  1.
         -6    1    1    2    0  503 -0.16203540266E+02 -0.94496356036E+01  0.20036340729E+03  0.26472881466E+03  0.17200000000E+03 0.  1.
<mgrwt>
<rscale>  2 0.17301980E+03</rscale>
<asrwt>0</asrwt>
<pdfrwt beam="1">  1       21 0.14597787E+00 0.17301980E+03</pdfrwt>
<pdfrwt beam="2">  1       21 0.13370591E-01 0.17301980E+03</pdfrwt>
<totfact> 0.15728841E+04</totfact>
</mgrwt>
</event>
<event>
 4    1  0.1101825E+000  0.2408802E+03  0.7546771E-02  0.1119208E+00
         21   -1    0    0  501  502  0.00000000000E+00  0.00000000000E+00  0.57578013093E+03  0.57578013093E+03  0.00000000000E+00 0. -1.
         21   -1    0    0  502  503 -0.00000000000E+00 -0.00000000000E+00 -0.10896664679E+03  0.10896664679E+03  0.00000000000E+00 0. -1.
          6    1    1    2  501    0  0.95490108322E+02 -0.13899965477E+03  0.32728906639E+03  0.40637593161E+03  0.17200000000E+03 0. -1.
         -6    1    1    2    0  503 -0.95490108322E+02  0.13899965477E+03  0.13952441775E+03  0.27837084611E+03  0.17200000000E+03 0. -1.
<mgrwt>
<rscale>  2 0.24088019E+03</rscale>
<asrwt>0</asrwt>
<pdfrwt beam="1">  1       21 0.14394502E+00 0.24088019E+03</pdfrwt>
<pdfrwt beam="2">  1       21 0.27241663E-01 0.24088019E+03</pdfrwt>
<totfact> 0.41178524E+03</totfact>
</mgrwt>
</event>
<event>
 4    1  0.1101825E+000  0.3855160E+03  0.7546771E-02  0.1048914E+00
         21   -1    0    0  501  502  0.00000000000E+00  0.00000000000E+00  0.65239203917E+03  0.65239203917E+03  0.00000000000E+00 0. -1.
         21   -1    0    0  502  503 -0.00000000000E+00 -0.00000000000E+00 -0.22949915970E+03  0.22949915970E+03  0.00000000000E+00 0.  1.
          6    1    1    2  501    0 -0.33825750565E+03  0.67973586088E+02  0.24925667572E+03  0.45907672445E+03  0.17200000000E+03 0. -1.
         -6    1    1    2    0  503  0.33825750565E+03 -0.67973586088E+02  0.17363620375E+03  0.42281447443E+03  0.17200000000E+03 0.  1.
<mgrwt>
<rscale>  2 0.38551595E+03</rscale>
<asrwt>0</asrwt>
<pdfrwt beam="1">  1       21 0.16309801E+00 0.38551595E+03</pdfrwt>
<pdfrwt beam="2">  1       21 0.57374791E-01 0.38551595E+03</pdfrwt>
<totfact> 0.58632051E+02</totfact>
</mgrwt>
</event>
<event>
 4    1  0.1101825E+000  0.1881212E+03  0.7546771E-02  0.1160167E+00
         21   -1    0    0  501  502  0.00000000000E+00  0.00000000000E+00  0.61379371947E+03  0.61379371947E+03  0.00000000000E+00 0. -1.
         21   -1    0    0  502  503 -0.00000000000E+00 -0.00000000000E+00 -0.12382426080E+03  0.12382426080E+03  0.00000000000E+00 0. -1.
          6    1    1    2  501    0  0.65292435976E+02  0.39274490460E+02  0.51458464963E+03  0.54789319163E+03  0.17200000000E+03 0. -1.
         -6    1    1    2    0  503 -0.65292435976E+02 -0.39274490460E+02 -0.24615190963E+02  0.18972478864E+03  0.17200000000E+03 0. -1.
<mgrwt>
<rscale>  2 0.18812121E+03</rscale>
<asrwt>0</asrwt>
<pdfrwt beam="1">  1       21 0.15344842E+00 0.18812121E+03</pdfrwt>
<pdfrwt beam="2">  1       21 0.30956067E-01 0.18812121E+03</pdfrwt>
<totfact> 0.28333079E+03</totfact>
</mgrwt>
</event>
<event>
 4    1  0.1101825E+000  0.2456933E+03  0.7546771E-02  0.1116057E+00
         21   -1    0    0  501  502  0.00000000000E+00  0.00000000000E+00  0.54669159360E+03  0.54669159360E+03  0.00000000000E+00 0.  1.
         21   -1    0    0  502  503 -0.00000000000E+00 -0.00000000000E+00 -0.11141277895E+03  0.11141277895E+03  0.00000000000E+00 0. -1.
          6    1    1    2  501    0 -0.13230855143E+03 -0.11522001174E+03  0.18656404032E+03  0.30849853327E+03  0.17200000000E+03 0. -1.
         -6    1    1    2    0  503  0.13230855143E+03  0.11522001174E+03  0.24871477433E+03  0.34960583928E+03  0.17200000000E+03 0.  1.
<mgrwt>
<rscale>  2 0.24569331E+03</rscale>
<asrwt>0</asrwt>
<pdfrwt beam="1">  1       21 0.13667289E+00 0.24569331E+03</pdfrwt>
<pdfrwt beam="2">  1       21 0.27853196E-01 0.24569331E+03</pdfrwt>
<totfact> 0.45002857E+03</totfact>
</mgrwt>
</event>
<event>
 4    1  0.1101825E+000  0.1833637E+03  0.7546771E-02  0.1164587E+00
         21   -1    0    0  501  502  0.00000000000E+00  0.00000000000E+00  0.56979281621E+03  0.56979281621E+03  0.00000000000E+00 0. -1.
         21   -1    0    0  502  503 -0.00000000000E+00 -0.00000000000E+00 -0.11763429563E+03  0.11763429563E+03  0.00000000000E+00 0. -1.
          6    1    1    2  501    0  0.42054584890E+02  0.47641064155E+02  0.46872708350E+03  0.50331633980E+03  0.17200000000E+03 0. -1.
         -6    1    1    2    0  503 -0.42054584890E+02 -0.47641064155E+02 -0.16568562920E+02  0.18411077204E+03  0.17200000000E+03 0. -1.
<mgrwt>
<rscale>  2 0.18336373E+03</rscale>
<asrwt>0</asrwt>
<pdfrwt beam="1">  1       21 0.14244820E+00 0.18336373E+03</pdfrwt>
<pdfrwt beam="2">  1       21 0.29408575E-01 0.18336373E+03</pdfrwt>
<totfact> 0.38208273E+03</totfact>
</mgrwt>
</event>
<event>
 4    1  0.1101825E+000  0.2114867E+03  0.7546771E-02  0.1140394E+00
         21   -1    0    0  503  502  0.00000000000E+00  0.00000000000E+00  0.13275050545E+03  0.13275050545E+03  0.00000000000E+00 0.  1.
         21   -1    0    0  501  503 -0.00000000000E+00 -0.00000000000E+00 -0.10027596730E+04  0.10027596730E+04  0.00000000000E+00 0.  1.
          6    1    1    2  501    0  0.12128456181E+03  0.20801357400E+02 -0.89764822986E+03  0.92222501917E+03  0.17200000000E+03 0.  1.
         -6    1    1    2    0  502 -0.12128456181E+03 -0.20801357400E+02  0.27639062323E+02  0.21328515928E+03  0.17200000000E+03 0.  1.
<mgrwt>
<rscale>  2 0.21148674E+03</rscale>
<asrwt>0</asrwt>
<pdfrwt beam="1">  1       21 0.33187627E-01 0.21148674E+03</pdfrwt>
<pdfrwt beam="2">  1       21 0.25068992E+00 0.21148674E+03</pdfrwt>
<totfact> 0.56239355E+02</totfact>
</mgrwt>
</event>
<event>
 4    1  0.1101825E+000  0.1804054E+03  0.7546771E-02  0.1167411E+00
         21   -1    0    0  501  502  0.00000000000E+00  0.00000000000E+00  0.19807584348E+03  0.19807584348E+03  0.00000000000E+00 0. -1.
         21   -1    0    0  502  503 -0.00000000000E+00 -0.00000000000E+00 -0.19322122330E+03  0.19322122330E+03  0.00000000000E+00 0. -1.
          6    1    1    2  501    0  0.69831079968E+01 -0.53975483476E+02  0.78105719869E+02  0.19658743625E+03  0.17200000000E+03 0. -1.
         -6    1    1    2    0  503 -0.69831079968E+01  0.53975483476E+02 -0.73251099689E+02  0.19470963053E+03  0.17200000000E+03 0. -1.
<mgrwt>
<rscale>  2 0.18040542E+03</rscale>
<asrwt>0</asrwt>
<pdfrwt beam="1">  1       21 0.49518961E-01 0.18040542E+03</pdfrwt>
<pdfrwt beam="2">  1       21 0.48305306E-01 0.18040542E+03</pdfrwt>
<totfact> 0.16038816E+04</totfact>
</mgrwt>
</event>
<event>
 4    1  0.1101825E+000  0.2662329E+03  0.7546771E-02  0.1103455E+00
         21   -1    0    0  501  502  0.00000000000E+00  0.00000000000E+00  0.10084746136E+03  0.10084746136E+03  0.00000000000E+00 0. -1.
         21   -1    0    0  502  503 -0.00000000000E+00 -0.00000000000E+00 -0.70355980984E+03  0.70355980984E+03  0.00000000000E+00 0. -1.
          6    1    1    2  501    0 -0.16029487230E+03  0.12490590937E+03 -0.31419417747E+03  0.41182267232E+03  0.17200000000E+03 0. -1.
         -6    1    1    2    0  503  0.16029487230E+03 -0.12490590937E+03 -0.28851817100E+03  0.39258459888E+03  0.17200000000E+03 0. -1.
<mgrwt>
<rscale>  2 0.26623285E+03</rscale>
<asrwt>0</asrwt>
<pdfrwt beam="1">  1       21 0.25211866E-01 0.26623285E+03</pdfrwt>
<pdfrwt beam="2">  1       21 0.17588995E+00 0.26623285E+03</pdfrwt>
<totfact> 0.27231016E+03</totfact>
</mgrwt>
</event>
<event>
 4    1  0.1101825E+000  0.1853262E+03  0.7546771E-02  0.1162746E+00
         21   -1    0    0  503  502  0.00000000000E+00  0.00000000000E+00  0.12134996941E+03  0.12134996941E+03  0.00000000000E+00 0. -1.
         21   -1    0    0  501  503 -0.00000000000E+00 -0.00000000000E+00 -0.87789835532E+03  0.87789835532E+03  0.00000000000E+00 0. -1.
          6    1    1    2  501    0 -0.68994617886E+02  0.12369497940E+01 -0.78954836003E+03  0.81100702843E+03  0.17200000000E+03 0. -1.
         -6    1    1    2    0  502  0.68994617886E+02 -0.12369497940E+01  0.32999974118E+02  0.18824129630E+03  0.17200000000E+03 0. -1.
<mgrwt>
<rscale>  2 0.18532616E+03</rscale>
<asrwt>0</asrwt>
<pdfrwt beam="1">  1       21 0.30337493E-01 0.18532616E+03</pdfrwt>
<pdfrwt beam="2">  1       21 0.21947459E+00 0.18532616E+03</pdfrwt>
<totfact> 0.10658828E+03</totfact>
</mgrwt>
</event>
<event>
 4    1  0.1101825E+000  0.2018662E+03  0.7546771E-02  0.1148174E+00
         21   -1    0    0  503  502  0.00000000000E+00  0.00000000000E+00  0.36273303377E+02  0.36273303377E+02  0.00000000000E+00 0. -1.
         21   -1    0    0  501  503 -0.00000000000E+00 -0.00000000000E+00 -0.11321485806E+04  0.11321485806E+04  0.00000000000E+00 0. -1.
          6    1    1    2  501    0 -0.78873940035E+02 -0.70319844685E+02 -0.59924859648E+03  0.63233603358E+03  0.17200000000E+03 0. -1.
         -6    1    1    2    0  502  0.78873940035E+02  0.70319844685E+02 -0.49662668070E+03  0.53608585036E+03  0.17200000000E+03 0. -1.
<mgrwt>
<rscale>  2 0.20186624E+03</rscale>
<asrwt>0</asrwt>
<pdfrwt beam="1">  1       21 0.90683260E-02 0.20186624E+03</pdfrwt>
<pdfrwt beam="2">  1       21 0.28303714E+00 0.20186624E+03</pdfrwt>
<totfact> 0.40779176E+03</totfact>
</mgrwt>
</event>
<event>
 4    1  0.1101825E+000  0.2376365E+03  0.7546771E-02  0.1121377E+00
         21   -1    0    0  501  502  0.00000000000E+00  0.00000000000E+00  0.12578188521E+03  0.12578188521E+03  0.00000000000E+00 0. -1.
         21   -1    0    0  502  503 -0.00000000000E+00 -0.00000000000E+00 -0.55001404977E+03  0.55001404977E+03  0.00000000000E+00 0. -1.
          6    1    1    2  501    0  0.15941511575E+03 -0.38391450533E+02 -0.67280677004E+02  0.24697727042E+03  0.17200000000E+03 0. -1.
         -6    1    1    2    0  503 -0.15941511575E+03  0.38391450533E+02 -0.35695148756E+03  0.42881866456E+03  0.17200000000E+03 0. -1.
<mgrwt>
<rscale>  2 0.23763645E+03</rscale>
<asrwt>0</asrwt>
<pdfrwt beam="1">  1       21 0.31445472E-01 0.23763645E+03</pdfrwt>
<pdfrwt beam="2">  1       21 0.13750351E+00 0.23763645E+03</pdfrwt>
<totfact> 0.35137041E+03</totfact>
</mgrwt>
</event>
<event>
 4    1  0.1101825E+000  0.2087947E+03  0.7546771E-02  0.1142524E+00
         21   -1    0    0  501  502  0.00000000000E+00  0.00000000000E+00  0.33281312941E+03  0.33281312941E+03  0.00000000000E+00 0.  1.
         21   -1    0    0  502  503 -0.00000000000E+00 -0.00000000000E+00 -0.55608604961E+03  0.55608604961E+03  0.00000000000E+00 0.  1.
          6    1    1    2  501    0 -0.11754076548E+03  0.13979095302E+02  0.27695652796E+03  0.34684314183E+03  0.17200000000E+03 0.  1.
         -6    1    1    2    0  503  0.11754076548E+03 -0.13979095302E+02 -0.50022944815E+03  0.54205603719E+03  0.17200000000E+03 0.  1.
<mgrwt>
<rscale>  2 0.20879475E+03</rscale>
<asrwt>0</asrwt>
<pdfrwt beam="1">  1       21 0.83203283E-01 0.20879475E+03</pdfrwt>
<pdfrwt beam="2">  1       21 0.13902151E+00 0.20879475E+03</pdfrwt>
<totfact> 0.45023883E+02</totfact>
</mgrwt>
</event>
<event>
 4    1  0.1101825E+000  0.3170015E+03  0.7546771E-02  0.1077038E+00
         21   -1    0    0  501  502  0.00000000000E+00  0.00000000000E+00  0.37661018390E+03  0.37661018390E+03  0.00000000000E+00 0.  1.
         21   -1    0    0  502  503 -0.00000000000E+00 -0.00000000000E+00 -0.31273478089E+03  0.31273478089E+03  0.00000000000E+00 0. -1.
          6    1    1    2  501    0 -0.26495929872E+03  0.26505464871E+02  0.16399399591E+03  0.35690895246E+03  0.17200000000E+03 0. -1.
         -6    1    1    2    0  503  0.26495929872E+03 -0.26505464871E+02 -0.10011859290E+03  0.33243601233E+03  0.17200000000E+03 0. -1.
<mgrwt>
<rscale>  2 0.31700153E+03</rscale>
<asrwt>0</asrwt>
<pdfrwt beam="1">  1       21 0.94152546E-01 0.31700153E+03</pdfrwt>
<pdfrwt beam="2">  1       21 0.78183695E-01 0.31700153E+03</pdfrwt>
<totfact> 0.12470350E+03</totfact>
</mgrwt>
</event>
<event>
 4    1  0.1101825E+000  0.1821569E+03  0.7546771E-02  0.1165732E+00
         21   -1    0    0  503  502  0.00000000000E+00  0.00000000000E+00  0.16039935579E+03  0.16039935579E+03  0.00000000000E+00 0. -1.
         21   -1    0    0  501  503 -0.00000000000E+00 -0.00000000000E+00 -0.25537079526E+03  0.25537079526E+03  0.00000000000E+00 0.  1.
          6    1    1    2  501    0 -0.19036112242E+02  0.56874828423E+02 -0.13808641428E+03  0.22858035237E+03  0.17200000000E+03 0.  1.
         -6    1    1    2    0  502  0.19036112242E+02 -0.56874828423E+02  0.43114974814E+02  0.18718979868E+03  0.17200000000E+03 0. -1.
<mgrwt>
<rscale>  2 0.18215685E+03</rscale>
<asrwt>0</asrwt>
<pdfrwt beam="1">  1       21 0.40099839E-01 0.18215685E+03</pdfrwt>
<pdfrwt beam="2">  1       21 0.63842698E-01 0.18215685E+03</pdfrwt>
<totfact> 0.13674993E+04</totfact>
</mgrwt>
</event>
<event>
 4    1  0.1101825E+000  0.2716022E+03  0.7546771E-02  0.1100366E+00
         21   -1    0    0  503  502  0.00000000000E+00  0.00000000000E+00  0.23744469735E+03  0.23744469735E+03  0.00000000000E+00 0.  1.
         21   -1    0    0  501  503 -0.00000000000E+00 -0.00000000000E+00 -0.38103654958E+03  0.38103654958E+03  0.00000000000E+00 0. -1.
          6    1    1    2  501    0 -0.74729761676E+02 -0.19646688994E+03 -0.20468385625E+03  0.34009301248E+03  0.17200000000E+03 0. -1.
         -6    1    1    2    0  502  0.74729761676E+02  0.19646688994E+03  0.61092004019E+02  0.27838823445E+03  0.17200000000E+03 0.  1.
<mgrwt>
<rscale>  2 0.27160224E+03</rscale>
<asrwt>0</asrwt>
<pdfrwt beam="1">  1       21 0.59361175E-01 0.27160224E+03</pdfrwt>
<pdfrwt beam="2">  1       21 0.95259137E-01 0.27160224E+03</pdfrwt>
<totfact> 0.22980382E+03</totfact>
</mgrwt>
</event>
<event>
 4    1  0.1101825E+000  0.1848559E+03  0.7546771E-02  0.1163185E+00
         21   -1    0    0  503  502  0.00000000000E+00  0.00000000000E+00  0.31907396141E+03  0.31907396141E+03  0.00000000000E+00 0.  1.
         21   -1    0    0  501  503 -0.00000000000E+00 -0.00000000000E+00 -0.23040420521E+03  0.23040420521E+03  0.00000000000E+00 0.  1.
          6    1    1    2  501    0  0.61815609853E+02  0.27686267599E+02 -0.15665323923E+03  0.24230546093E+03  0.17200000000E+03 0.  1.
         -6    1    1    2    0  502 -0.61815609853E+02 -0.27686267599E+02  0.24532299543E+03  0.30717270569E+03  0.17200000000E+03 0.  1.
<mgrwt>
<rscale>  2 0.18485589E+03</rscale>
<asrwt>0</asrwt>
<pdfrwt beam="1">  1       21 0.79768490E-01 0.18485589E+03</pdfrwt>
<pdfrwt beam="2">  1       21 0.57601051E-01 0.18485589E+03</pdfrwt>
<totfact> 0.39397209E+03</totfact>
</mgrwt>
</event>
<event>
 4    1  0.1101825E+000  0.2193580E+03  0.7546771E-02  0.1134363E+00
         21   -1    0    0  501  502  0.00000000000E+00  0.00000000000E+00  0.53161329536E+02  0.53161329536E+02  0.00000000000E+00 0. -1.
         21   -1    0    0  502  503 -0.00000000000E+00 -0.00000000000E+00 -0.10888943111E+04  0.10888943111E+04  0.00000000000E+00 0. -1.
          6    1    1    2  501    0  0.85960419963E+02 -0.10556854360E+03 -0.28328429064E+03  0.35828466409E+03  0.17200000000E+03 0. -1.
         -6    1    1    2    0  503 -0.85960419963E+02  0.10556854360E+03 -0.75244869087E+03  0.78377097649E+03  0.17200000000E+03 0. -1.
<mgrwt>
<rscale>  2 0.21935795E+03</rscale>
<asrwt>0</asrwt>
<pdfrwt beam="1">  1       21 0.13290332E-01 0.21935795E+03</pdfrwt>
<pdfrwt beam="2">  1       21 0.27222358E+00 0.21935795E+03</pdfrwt>
<totfact> 0.23394731E+03</totfact>
</mgrwt>
</event>
<event>
 4    1  0.1101825E+000  0.1747302E+03  0.7546771E-02  0.1173003E+00
         21   -1    0    0  503  502  0.00000000000E+00  0.00000000000E+00  0.79413507880E+03  0.79413507880E+03  0.00000000000E+00 0.  1.
         21   -1    0    0  501  503 -0.00000000000E+00 -0.00000000000E+00 -0.15576657716E+03  0.15576657716E+03  0.00000000000E+00 0.  1.
          6    1    1    2  501    0 -0.29108623373E+02  0.99666790700E+01 -0.93008328651E+02  0.19794240537E+03  0.17200000000E+03 0.  1.
         -6    1    1    2    0  502  0.29108623373E+02 -0.99666790700E+01  0.73137683029E+03  0.75195925058E+03  0.17200000000E+03 0.  1.
<mgrwt>
<rscale>  2 0.17473021E+03</rscale>
<asrwt>0</asrwt>
<pdfrwt beam="1">  1       21 0.19853376E+00 0.17473021E+03</pdfrwt>
<pdfrwt beam="2">  1       21 0.38941646E-01 0.17473021E+03</pdfrwt>
<totfact> 0.89129393E+02</totfact>
</mgrwt>
</event>
<event>
 4    1  0.1101825E+000  0.2072183E+03  0.7546771E-02  0.1143788E+00
         21   -1    0    0  503  502  0.00000000000E+00  0.00000000000E+00  0.63668234413E+03  0.63668234413E+03  0.00000000000E+00 0.  1.
         21   -1    0    0  501  503 -0.00000000000E+00 -0.00000000000E+00 -0.67611243951E+02  0.67611243951E+02  0.00000000000E+00 0.  1.
          6    1    1    2  501    0 -0.33025058774E+02 -0.11074640785E+03  0.26694075432E+03  0.33793015207E+03  0.17200000000E+03 0.  1.
         -6    1    1    2    0  502  0.33025058774E+02  0.11074640785E+03  0.30213034585E+03  0.36636343601E+03  0.17200000000E+03 0.  1.
<mgrwt>
<rscale>  2 0.20721829E+03</rscale>
<asrwt>0</asrwt>
<pdfrwt beam="1">  1       21 0.15917057E+00 0.20721829E+03</pdfrwt>
<pdfrwt beam="2">  1       21 0.16902813E-01 0.20721829E+03</pdfrwt>
<totfact> 0.79553305E+03</totfact>
</mgrwt>
</event>
<event>
 4    1  0.1101825E+000  0.2193410E+03  0.7546771E-02  0.1134375E+00
         21   -1    0    0  503  502  0.00000000000E+00  0.00000000000E+00  0.23374050103E+03  0.23374050103E+03  0.00000000000E+00 0. -1.
         21   -1    0    0  501  503 -0.00000000000E+00 -0.00000000000E+00 -0.56515028489E+03  0.56515028489E+03  0.00000000000E+00 0.  1.
          6    1    1    2  501    0 -0.13511846825E+03  0.16415049042E+02 -0.48421060119E+03  0.53157347621E+03  0.17200000000E+03 0.  1.
         -6    1    1    2    0  502  0.13511846825E+03 -0.16415049042E+02  0.15280081734E+03  0.26731730972E+03  0.17200000000E+03 0. -1.
<mgrwt>
<rscale>  2 0.21934095E+03</rscale>
<asrwt>0</asrwt>
<pdfrwt beam="1">  1       21 0.58435126E-01 0.21934095E+03</pdfrwt>
<pdfrwt beam="2">  1       21 0.14128757E+00 0.21934095E+03</pdfrwt>
<totfact> 0.93299090E+02</totfact>
</mgrwt>
</event>
<event>
 4    1  0.1101825E+000  0.1936433E+03  0.7546771E-02  0.1155216E+00
         21   -1    0    0  503  502  0.00000000000E+00  0.00000000000E+00  0.70368264527E+03  0.70368264527E+03  0.00000000000E+00 0. -1.
         21   -1    0    0  501  503 -0.00000000000E+00 -0.00000000000E+00 -0.12206006932E+03  0.12206006932E+03  0.00000000000E+00 0. -1.
          6    1    1    2  501    0  0.70438785149E+02 -0.54333168736E+02 -0.19097974458E+02  0.19458275439E+03  0.17200000000E+03 0. -1.
         -6    1    1    2    0  502 -0.70438785149E+02  0.54333168736E+02  0.60072055041E+03  0.63115996020E+03  0.17200000000E+03 0. -1.
<mgrwt>
<rscale>  2 0.19364327E+03</rscale>
<asrwt>0</asrwt>
<pdfrwt beam="1">  1       21 0.17592065E+00 0.19364327E+03</pdfrwt>
<pdfrwt beam="2">  1       21 0.30515019E-01 0.19364327E+03</pdfrwt>
<totfact> 0.19984905E+03</totfact>
</mgrwt>
</event>
<event>
 4    1  0.1101825E+000  0.1932088E+03  0.7546771E-02  0.1155599E+00
         21   -1    0    0  503  502  0.00000000000E+00  0.00000000000E+00  0.27865986717E+03  0.27865986717E+03  0.00000000000E+00 0. -1.
         21   -1    0    0  501  503 -0.00000000000E+00 -0.00000000000E+00 -0.13729206950E+03  0.13729206950E+03  0.00000000000E+00 0. -1.
          6    1    1    2  501    0  0.74625459323E+01 -0.87692344701E+02  0.38290017385E+02  0.19696639902E+03  0.17200000000E+03 0. -1.
         -6    1    1    2    0  502 -0.74625459323E+01  0.87692344701E+02  0.10307778028E+03  0.21898553765E+03  0.17200000000E+03 0. -1.
<mgrwt>
<rscale>  2 0.19320879E+03</rscale>
<asrwt>0</asrwt>
<pdfrwt beam="1">  1       21 0.69664966E-01 0.19320879E+03</pdfrwt>
<pdfrwt beam="2">  1       21 0.34323018E-01 0.19320879E+03</pdfrwt>
<totfact> 0.15313754E+04</totfact>
</mgrwt>
</event>
<event>
 4    1  0.1101825E+000  0.2584030E+03  0.7546771E-02  0.1108107E+00
         21   -1    0    0  501  502  0.00000000000E+00  0.00000000000E+00  0.20666536366E+03  0.20666536366E+03  0.00000000000E+00 0. -1.
         21   -1    0    0  502  503 -0.00000000000E+00 -0.00000000000E+00 -0.45111091050E+03  0.45111091050E+03  0.00000000000E+00 0.  1.
          6    1    1    2  501    0  0.11144656033E+03  0.15737773208E+03 -0.29742607583E+03  0.39399791490E+03  0.17200000000E+03 0. -1.
         -6    1    1    2    0  503 -0.11144656033E+03 -0.15737773208E+03  0.52980528988E+02  0.26377835926E+03  0.17200000000E+03 0. -1.
<mgrwt>
<rscale>  2 0.25840295E+03</rscale>
<asrwt>0</asrwt>
<pdfrwt beam="1">  1       21 0.51666341E-01 0.25840295E+03</pdfrwt>
<pdfrwt beam="2">  1       21 0.11277773E+00 0.25840295E+03</pdfrwt>
<totfact> 0.20748137E+03</totfact>
</mgrwt>
</event>
<event>
 4    1  0.1101825E+000  0.1773985E+03  0.7546771E-02  0.1170345E+00
         21   -1    0    0  503  502  0.00000000000E+00  0.00000000000E+00  0.14617016962E+03  0.14617016962E+03  0.00000000000E+00 0. -1.
         21   -1    0    0  501  503 -0.00000000000E+00 -0.00000000000E+00 -0.22233569422E+03  0.22233569422E+03  0.00000000000E+00 0. -1.
          6    1    1    2  501    0  0.29601203510E+02 -0.31780686012E+02 -0.70862411797E+02  0.19102807296E+03  0.17200000000E+03 0.  1.
         -6    1    1    2    0  502 -0.29601203510E+02  0.31780686012E+02 -0.53031128000E+01  0.17747779089E+03  0.17200000000E+03 0.  1.
<mgrwt>
<rscale>  2 0.17739854E+03</rscale>
<asrwt>0</asrwt>
<pdfrwt beam="1">  1       21 0.36542543E-01 0.17739854E+03</pdfrwt>
<pdfrwt beam="2">  1       21 0.55583923E-01 0.17739854E+03</pdfrwt>
<totfact> 0.22226574E+04</totfact>
</mgrwt>
</event>
<event>
 4    1  0.1101825E+000  0.2011297E+03  0.7546771E-02  0.1148789E+00
         21   -1    0    0  501  502  0.00000000000E+00  0.00000000000E+00  0.14734645596E+04  0.14734645596E+04  0.00000000000E+00 0.  1.
         21   -1    0    0  502  503 -0.00000000000E+00 -0.00000000000E+00 -0.39827609598E+02  0.39827609598E+02  0.00000000000E+00 0.  1.
          6    1    1    2  501    0 -0.71412963208E+02 -0.75956218379E+02  0.11385547750E+04  0.11561834344E+04  0.17200000000E+03 0.  1.
         -6    1    1    2    0  503  0.71412963208E+02  0.75956218379E+02  0.29508217498E+03  0.35710873472E+03  0.17200000000E+03 0.  1.
<mgrwt>
<rscale>  2 0.20112971E+03</rscale>
<asrwt>0</asrwt>
<pdfrwt beam="1">  1       21 0.36836596E+00 0.20112971E+03</pdfrwt>
<pdfrwt beam="2">  1       21 0.99569073E-02 0.20112971E+03</pdfrwt>
<totfact> 0.10980732E+03</totfact>
</mgrwt>
</event>
<event>
 4    1  0.1101825E+000  0.3399545E+03  0.7546771E-02  0.1066815E+00
         21   -1    0    0  503  502  0.00000000000E+00  0.00000000000E+00  0.86986450288E+03  0.86986450288E+03  0.00000000000E+00 0. -1.
         21   -1    0    0  501  503 -0.00000000000E+00 -0.00000000000E+00 -0.16594810247E+03  0.16594810247E+03  0.00000000000E+00 0.  1.
          6    1    1    2  501    0  0.23119335773E+03 -0.18037382355E+03  0.12069348378E+03  0.36074367896E+03  0.17200000000E+03 0.  1.
         -6    1    1    2    0  502 -0.23119335773E+03  0.18037382355E+03  0.58322291663E+03  0.67506892638E+03  0.17200000000E+03 0. -1.
<mgrwt>
<rscale>  2 0.33995453E+03</rscale>
<asrwt>0</asrwt>
<pdfrwt beam="1">  1       21 0.21746611E+00 0.33995453E+03</pdfrwt>
<pdfrwt beam="2">  1       21 0.41487028E-01 0.33995453E+03</pdfrwt>
<totfact> 0.50925894E+02</totfact>
</mgrwt>
</event>
<event>
 4    1  0.1101825E+000  0.2155412E+03  0.7546771E-02  0.1137252E+00
         21   -1    0    0  501  502  0.00000000000E+00  0.00000000000E+00  0.55571938549E+03  0.55571938549E+03  0.00000000000E+00 0. -1.
         21   -1    0    0  502  503 -0.00000000000E+00 -0.00000000000E+00 -0.83994289113E+02  0.83994289113E+02  0.00000000000E+00 0. -1.
          6    1    1    2  501    0  0.12976884982E+03 -0.58372466411E+01  0.25778302050E+03  0.33602100156E+03  0.17200000000E+03 0. -1.
         -6    1    1    2    0  503 -0.12976884982E+03  0.58372466411E+01  0.21394207588E+03  0.30369267305E+03  0.17200000000E+03 0. -1.
<mgrwt>
<rscale>  2 0.21554124E+03</rscale>
<asrwt>0</asrwt>
<pdfrwt beam="1">  1       21 0.13892984E+00 0.21554124E+03</pdfrwt>
<pdfrwt beam="2">  1       21 0.20998574E-01 0.21554124E+03</pdfrwt>
<totfact> 0.75586050E+03</totfact>
</mgrwt>
</event>
<event>
 4    1  0.1101825E+000  0.2386125E+03  0.7546771E-02  0.1120721E+00
         21   -1    0    0  501  502  0.00000000000E+00  0.00000000000E+00  0.16917336239E+03  0.16917336239E+03  0.00000000000E+00 0.  1.
         21   -1    0    0  502  503 -0.00000000000E+00 -0.00000000000E+00 -0.34676917660E+03  0.34676917660E+03  0.00000000000E+00 0.  1.
          6    1    1    2  501    0 -0.87689219879E+02 -0.14022310637E+03 -0.13307516241E+03  0.27321222098E+03  0.17200000000E+03 0.  1.
         -6    1    1    2    0  503  0.87689219879E+02  0.14022310637E+03 -0.44520651797E+02  0.24273031801E+03  0.17200000000E+03 0.  1.
<mgrwt>
<rscale>  2 0.23861249E+03</rscale>
<asrwt>0</asrwt>
<pdfrwt beam="1">  1       21 0.42293341E-01 0.23861249E+03</pdfrwt>
<pdfrwt beam="2">  1       21 0.86692294E-01 0.23861249E+03</pdfrwt>
<totfact> 0.59645551E+03</totfact>
</mgrwt>
</event>
<event>
 4    1  0.1101825E+000  0.1945479E+03  0.7546771E-02  0.1154422E+00
         21   -1    0    0  503  502  0.00000000000E+00  0.00000000000E+00  0.35659862678E+03  0.35659862678E+03  0.00000000000E+00 0.  1.
         21   -1    0    0  501  503 -0.00000000000E+00 -0.00000000000E+00 -0.10937534520E+03  0.10937534520E+03  0.00000000000E+00 0.  1.
          6    1    1    2  501    0  0.64758248122E+02  0.63806421977E+02  0.16369130723E+03  0.25425132103E+03  0.17200000000E+03 0.  1.
         -6    1    1    2    0  502 -0.64758248122E+02 -0.63806421977E+02  0.83531974357E+02  0.21172265095E+03  0.17200000000E+03 0.  1.
<mgrwt>
<rscale>  2 0.19454791E+03</rscale>
<asrwt>0</asrwt>
<pdfrwt beam="1">  1       21 0.89149654E-01 0.19454791E+03</pdfrwt>
<pdfrwt beam="2">  1       21 0.27343837E-01 0.19454791E+03</pdfrwt>
<totfact> 0.13680473E+04</totfact>
</mgrwt>
</event>
<event>
 4    1  0.1101825E+000  0.1799863E+03  0.7546771E-02  0.1167816E+00
         21   -1    0    0  503  502  0.00000000000E+00  0.00000000000E+00  0.99314547290E+02  0.99314547290E+02  0.00000000000E+00 0. -1.
         21   -1    0    0  501  503 -0.00000000000E+00 -0.00000000000E+00 -0.32981335652E+03  0.32981335652E+03  0.00000000000E+00 0. -1.
          6    1    1    2  501    0 -0.51646775260E+02 -0.11986527083E+02 -0.13774962826E+03  0.22664956720E+03  0.17200000000E+03 0.  1.
         -6    1    1    2    0  502  0.51646775260E+02  0.11986527083E+02 -0.92749180977E+02  0.20247833661E+03  0.17200000000E+03 0.  1.
<mgrwt>
<rscale>  2 0.17998629E+03</rscale>
<asrwt>0</asrwt>
<pdfrwt beam="1">  1       21 0.24828637E-01 0.17998629E+03</pdfrwt>
<pdfrwt beam="2">  1       21 0.82453338E-01 0.17998629E+03</pdfrwt>
<totfact> 0.19862875E+04</totfact>
</mgrwt>
</event>
<event>
 4    1  0.1101825E+000  0.2155338E+03  0.7546771E-02  0.1137257E+00
         21   -1    0    0  501  502  0.00000000000E+00  0.00000000000E+00  0.52418077125E+03  0.52418077125E+03  0.00000000000E+00 0. -1.
         21   -1    0    0  502  503 -0.00000000000E+00 -0.00000000000E+00 -0.11212352531E+03  0.11212352531E+03  0.00000000000E+00 0.  1.
          6    1    1    2  501    0 -0.12869168534E+03  0.17585587458E+02  0.35168162866E+03  0.41247396367E+03  0.17200000000E+03 0. -1.
         -6    1    1    2    0  503  0.12869168534E+03 -0.17585587458E+02  0.60375617272E+02  0.22383033290E+03  0.17200000000E+03 0.  1.
<mgrwt>
<rscale>  2 0.21553376E+03</rscale>
<asrwt>0</asrwt>
<pdfrwt beam="1">  1       21 0.13104519E+00 0.21553376E+03</pdfrwt>
<pdfrwt beam="2">  1       21 0.28030883E-01 0.21553376E+03</pdfrwt>
<totfact> 0.50571235E+03</totfact>
</mgrwt>
</event>
<event>
 4    1  0.1101825E+000  0.1983510E+03  0.7546771E-02  0.1151138E+00
         21   -1    0    0  501  502  0.00000000000E+00  0.00000000000E+00  0.93392942601E+02  0.93392942601E+02  0.00000000000E+00 0. -1.
         21   -1    0    0  502  503 -0.00000000000E+00 -0.00000000000E+00 -0.53079829121E+03  0.53079829121E+03  0.00000000000E+00 0. -1.
          6    1    1    2  501    0  0.48388202096E+02 -0.86126097224E+02 -0.76928491498E+02  0.21274659934E+03  0.17200000000E+03 0. -1.
         -6    1    1    2    0  503 -0.48388202096E+02  0.86126097224E+02 -0.36047685711E+03  0.41144463447E+03  0.17200000000E+03 0. -1.
<mgrwt>
<rscale>  2 0.19835101E+03</rscale>
<asrwt>0</asrwt>
<pdfrwt beam="1">  1       21 0.23348236E-01 0.19835101E+03</pdfrwt>
<pdfrwt beam="2">  1       21 0.13269957E+00 0.19835101E+03</pdfrwt>
<totfact> 0.70474923E+03</totfact>
</mgrwt>
</event>
<event>
 4    1  0.1101825E+000  0.2129976E+03  0.7546771E-02  0.1139214E+00
         21   -1    0    0  503  502  0.00000000000E+00  0.00000000000E+00  0.16920705061E+03  0.16920705061E+03  0.00000000000E+00 0. -1.
         21   -1    0    0  501  503 -0.00000000000E+00 -0.00000000000E+00 -0.29318071084E+03  0.29318071084E+03  0.00000000000E+00 0. -1.
          6    1    1    2  501    0  0.10189754429E+03 -0.73490575111E+02 -0.12957895910E+03  0.24931642707E+03  0.17200000000E+03 0. -1.
         -6    1    1    2    0  502 -0.10189754429E+03  0.73490575111E+02  0.56052988685E+01  0.21307133439E+03  0.17200000000E+03 0. -1.
<mgrwt>
<rscale>  2 0.21299759E+03</rscale>
<asrwt>0</asrwt>
<pdfrwt beam="1">  1       21 0.42301763E-01 0.21299759E+03</pdfrwt>
<pdfrwt beam="2">  1       21 0.73295177E-01 0.21299759E+03</pdfrwt>
<totfact> 0.88728287E+03</totfact>
</mgrwt>
</event>
<event>
 4    1  0.1101825E+000  0.1731543E+03  0.7546771E-02  0.1174598E+00
         21   -1    0    0  501  502  0.00000000000E+00  0.00000000000E+00  0.14723357008E+03  0.14723357008E+03  0.00000000000E+00 0.  1.
         21   -1    0    0  502  503 -0.00000000000E+00 -0.00000000000E+00 -0.24380578400E+03  0.24380578400E+03  0.00000000000E+00 0.  1.
          6    1    1    2  501    0  0.17730492774E+02 -0.91672683248E+01  0.31074544280E+02  0.17592054026E+03  0.17200000000E+03 0.  1.
         -6    1    1    2    0  503 -0.17730492774E+02  0.91672683248E+01 -0.12764675820E+03  0.21511881382E+03  0.17200000000E+03 0.  1.
<mgrwt>
<rscale>  2 0.17315429E+03</rscale>
<asrwt>0</asrwt>
<pdfrwt beam="1">  1       21 0.36808393E-01 0.17315429E+03</pdfrwt>
<pdfrwt beam="2">  1       21 0.60951445E-01 0.17315429E+03</pdfrwt>
<totfact> 0.18049066E+04</totfact>
</mgrwt>
</event>
<event>
 4    1  0.1101825E+000  0.2367443E+03  0.7546771E-02  0.1121981E+00
         21   -1    0    0  503  502  0.00000000000E+00  0.00000000000E+00  0.21253287627E+03  0.21253287627E+03  0.00000000000E+00 0. -1.
         21   -1    0    0  501  503 -0.00000000000E+00 -0.00000000000E+00 -0.28940649971E+03  0.28940649971E+03  0.00000000000E+00 0.  1.
          6    1    1    2  501    0  0.16042223212E+03 -0.26991768345E+02  0.36340900185E+02  0.23951724185E+03  0.17200000000E+03 0. -1.
         -6    1    1    2    0  502 -0.16042223212E+03  0.26991768345E+02 -0.11321452362E+03  0.26242213412E+03  0.17200000000E+03 0.  1.
<mgrwt>
<rscale>  2 0.23674427E+03</rscale>
<asrwt>0</asrwt>
<pdfrwt beam="1">  1       21 0.53133219E-01 0.23674427E+03</pdfrwt>
<pdfrwt beam="2">  1       21 0.72351624E-01 0.23674427E+03</pdfrwt>
<totfact> 0.55997791E+03</totfact>
</mgrwt>
</event>
<event>
 4    1  0.1101825E+000  0.2086815E+03  0.7546771E-02  0.1142614E+00
         21   -1    0    0  501  502  0.00000000000E+00  0.00000000000E+00  0.27371620974E+03  0.27371620974E+03  0.00000000000E+00 0.  1.
         21   -1    0    0  502  503 -0.00000000000E+00 -0.00000000000E+00 -0.23116838247E+03  0.23116838247E+03  0.00000000000E+00 0.  1.
          6    1    1    2  501    0 -0.11555176356E+03 -0.24733518354E+02  0.16222664825E+03  0.26432071881E+03  0.17200000000E+03 0.  1.
         -6    1    1    2    0  503  0.11555176356E+03  0.24733518354E+02 -0.11967882099E+03  0.24056387340E+03  0.17200000000E+03 0.  1.
<mgrwt>
<rscale>  2 0.20868147E+03</rscale>
<asrwt>0</asrwt>
<pdfrwt beam="1">  1       21 0.68429052E-01 0.20868147E+03</pdfrwt>
<pdfrwt beam="2">  1       21 0.57792096E-01 0.20868147E+03</pdfrwt>
<totfact> 0.54026968E+03</totfact>
</mgrwt>
</event>
<event>
 4    1  0.1101825E+000  0.2131830E+03  0.7546771E-02  0.1139070E+00
         21   -1    0    0  503  502  0.00000000000E+00  0.00000000000E+00  0.14851562470E+03  0.14851562470E+03  0.00000000000E+00 0.  1.
         21   -1    0    0  501  503 -0.00000000000E+00 -0.00000000000E+00 -0.31345612588E+03  0.31345612588E+03  0.00000000000E+00 0.  1.
          6    1    1    2  501    0 -0.12474010537E+03  0.17404154099E+02 -0.11807556443E+03  0.24369825067E+03  0.17200000000E+03 0.  1.
         -6    1    1    2    0  502  0.12474010537E+03 -0.17404154099E+02 -0.46864936747E+02  0.21827349991E+03  0.17200000000E+03 0.  1.
<mgrwt>
<rscale>  2 0.21318302E+03</rscale>
<asrwt>0</asrwt>
<pdfrwt beam="1">  1       21 0.37128906E-01 0.21318302E+03</pdfrwt>
<pdfrwt beam="2">  1       21 0.78364031E-01 0.21318302E+03</pdfrwt>
<totfact> 0.99411185E+03</totfact>
</mgrwt>
</event>
<event>
 4    1  0.1101825E+000  0.1855118E+03  0.7546771E-02  0.1162573E+00
         21   -1    0    0  501  502  0.00000000000E+00  0.00000000000E+00  0.35759968800E+03  0.35759968800E+03  0.00000000000E+00 0.  1.
         21   -1    0    0  502  503 -0.00000000000E+00 -0.00000000000E+00 -0.10418481809E+03  0.10418481809E+03  0.00000000000E+00 0.  1.
          6    1    1    2  501    0  0.38282702510E+02  0.58009259220E+02  0.19047602021E+03  0.26588673104E+03  0.17200000000E+03 0.  1.
         -6    1    1    2    0  503 -0.38282702510E+02 -0.58009259220E+02  0.62938849696E+02  0.19589777505E+03  0.17200000000E+03 0.  1.
<mgrwt>
<rscale>  2 0.18551183E+03</rscale>
<asrwt>0</asrwt>
<pdfrwt beam="1">  1       21 0.89399919E-01 0.18551183E+03</pdfrwt>
<pdfrwt beam="2">  1       21 0.26046205E-01 0.18551183E+03</pdfrwt>
<totfact> 0.15010822E+04</totfact>
</mgrwt>
</event>
<event>
 4    1  0.1101825E+000  0.1901736E+03  0.7546771E-02  0.1158305E+00
         21   -1    0    0  501  502  0.00000000000E+00  0.00000000000E+00  0.33153549022E+03  0.33153549022E+03  0.00000000000E+00 0. -1.
         21   -1    0    0  502  503 -0.00000000000E+00 -0.00000000000E+00 -0.13078802483E+03  0.13078802483E+03  0.00000000000E+00 0. -1.
          6    1    1    2  501    0 -0.28421648135E+02  0.75988229243E+02  0.19453634232E+03  0.27204850588E+03  0.17200000000E+03 0. -1.
         -6    1    1    2    0  503  0.28421648135E+02 -0.75988229243E+02  0.62111230721E+01  0.19027500917E+03  0.17200000000E+03 0. -1.
<mgrwt>
<rscale>  2 0.19017361E+03</rscale>
<asrwt>0</asrwt>
<pdfrwt beam="1">  1       21 0.82883871E-01 0.19017361E+03</pdfrwt>
<pdfrwt beam="2">  1       21 0.32697007E-01 0.19017361E+03</pdfrwt>
<totfact> 0.11445719E+04</totfact>
</mgrwt>
</event>
<event>
 4    1  0.1101825E+000  0.1988069E+03  0.7546771E-02  0.1150750E+00
         21   -1    0    0  503  502  0.00000000000E+00  0.00000000000E+00  0.14432389545E+03  0.14432389545E+03  0.00000000000E+00 0.  1.
         21   -1    0    0  501  503 -0.00000000000E+00 -0.00000000000E+00 -0.27953897601E+03  0.27953897601E+03  0.00000000000E+00 0.  1.
          6    1    1    2  501    0 -0.41369019074E+02 -0.90712730571E+02 -0.97821042440E+02  0.22156974426E+03  0.17200000000E+03 0.  1.
         -6    1    1    2    0  502  0.41369019074E+02  0.90712730571E+02 -0.37394038125E+02  0.20229312720E+03  0.17200000000E+03 0.  1.
<mgrwt>
<rscale>  2 0.19880693E+03</rscale>
<asrwt>0</asrwt>
<pdfrwt beam="1">  1       21 0.36080974E-01 0.19880693E+03</pdfrwt>
<pdfrwt beam="2">  1       21 0.69884743E-01 0.19880693E+03</pdfrwt>
<totfact> 0.13720151E+04</totfact>
</mgrwt>
</event>
<event>
 4    1  0.1101825E+000  0.2544734E+03  0.7546771E-02  0.1110510E+00
         21   -1    0    0  501  502  0.00000000000E+00  0.00000000000E+00  0.83704667263E+02  0.83704667263E+02  0.00000000000E+00 0. -1.
         21   -1    0    0  502  503 -0.00000000000E+00 -0.00000000000E+00 -0.86123899737E+03  0.86123899737E+03  0.00000000000E+00 0. -1.
          6    1    1    2  501    0  0.65386924985E+02  0.17577622772E+03 -0.23807876115E+03  0.34847988278E+03  0.17200000000E+03 0. -1.
         -6    1    1    2    0  503 -0.65386924985E+02 -0.17577622772E+03 -0.53945556895E+03  0.59646378185E+03  0.17200000000E+03 0. -1.
<mgrwt>
<rscale>  2 0.25447344E+03</rscale>
<asrwt>0</asrwt>
<pdfrwt beam="1">  1       21 0.20926167E-01 0.25447344E+03</pdfrwt>
<pdfrwt beam="2">  1       21 0.21530975E+00 0.25447344E+03</pdfrwt>
<totfact> 0.21523911E+03</totfact>
</mgrwt>
</event>
<event>
 4    1  0.1101825E+000  0.3518631E+03  0.7546771E-02  0.1061853E+00
         21   -1    0    0  501  502  0.00000000000E+00  0.00000000000E+00  0.30599206319E+03  0.30599206319E+03  0.00000000000E+00 0.  1.
         21   -1    0    0  502  503 -0.00000000000E+00 -0.00000000000E+00 -0.42248249806E+03  0.42248249806E+03  0.00000000000E+00 0. -1.
          6    1    1    2  501    0 -0.56741955776E+02 -0.30166870178E+03  0.16669037406E+02  0.35225773517E+03  0.17200000000E+03 0.  1.
         -6    1    1    2    0  503  0.56741955776E+02  0.30166870178E+03 -0.13315947227E+03  0.37621682609E+03  0.17200000000E+03 0. -1.
<mgrwt>
<rscale>  2 0.35186312E+03</rscale>
<asrwt>0</asrwt>
<pdfrwt beam="1">  1       21 0.76498016E-01 0.35186312E+03</pdfrwt>
<pdfrwt beam="2">  1       21 0.10562062E+00 0.35186312E+03</pdfrwt>
<totfact> 0.97413211E+02</totfact>
</mgrwt>
</event>
<event>
 4    1  0.1101825E+000  0.1829609E+03  0.7546771E-02  0.1164968E+00
         21   -1    0    0  503  502  0.00000000000E+00  0.00000000000E+00  0.30816923293E+02  0.30816923293E+02  0.00000000000E+00 0. -1.
         21   -1    0    0  501  503 -0.00000000000E+00 -0.00000000000E+00 -0.12615777779E+04  0.12615777779E+04  0.00000000000E+00 0. -1.
          6    1    1    2  501    0  0.27661479593E+01 -0.62314109154E+02 -0.85628269206E+03  0.87561107148E+03  0.17200000000E+03 0. -1.
         -6    1    1    2    0  502 -0.27661479593E+01  0.62314109154E+02 -0.37447816255E+03  0.41678362972E+03  0.17200000000E+03 0. -1.
<mgrwt>
<rscale>  2 0.18296092E+03</rscale>
<asrwt>0</asrwt>
<pdfrwt beam="1">  1       21 0.77042305E-02 0.18296092E+03</pdfrwt>
<pdfrwt beam="2">  1       21 0.31539446E+00 0.18296092E+03</pdfrwt>
<totfact> 0.36095606E+03</totfact>
</mgrwt>
</event>
<event>
 4    1  0.1101825E+000  0.1918574E+03  0.7546771E-02  0.1156797E+00
         21   -1    0    0  501  502  0.00000000000E+00  0.00000000000E+00  0.41357297039E+03  0.41357297039E+03  0.00000000000E+00 0. -1.
         21   -1    0    0  502  503 -0.00000000000E+00 -0.00000000000E+00 -0.14134100890E+03  0.14134100890E+03  0.00000000000E+00 0. -1.
          6    1    1    2  501    0  0.84082136676E+02  0.12468277913E+02 -0.32721898397E+02  0.19462781481E+03  0.17200000000E+03 0. -1.
         -6    1    1    2    0  503 -0.84082136676E+02 -0.12468277913E+02  0.30495385988E+03  0.36028616448E+03  0.17200000000E+03 0. -1.
<mgrwt>
<rscale>  2 0.19185740E+03</rscale>
<asrwt>0</asrwt>
<pdfrwt beam="1">  1       21 0.10339324E+00 0.19185740E+03</pdfrwt>
<pdfrwt beam="2">  1       21 0.35335253E-01 0.19185740E+03</pdfrwt>
<totfact> 0.58580287E+03</totfact>
</mgrwt>
</event>
<event>
 4    1  0.1101825E+000  0.2712862E+03  0.7546771E-02  0.1100546E+00
         21   -1    0    0  501  502  0.00000000000E+00  0.00000000000E+00  0.13852724361E+03  0.13852724361E+03  0.00000000000E+00 0. -1.
         21   -1    0    0  502  503 -0.00000000000E+00 -0.00000000000E+00 -0.73475644387E+03  0.73475644387E+03  0.00000000000E+00 0.  1.
          6    1    1    2  501    0  0.15394046266E+03  0.14252916568E+03 -0.68333257185E+02  0.27976000992E+03  0.17200000000E+03 0. -1.
         -6    1    1    2    0  503 -0.15394046266E+03 -0.14252916568E+03 -0.52789594307E+03  0.59352367756E+03  0.17200000000E+03 0.  1.
<mgrwt>
<rscale>  2 0.27128625E+03</rscale>
<asrwt>0</asrwt>
<pdfrwt beam="1">  1       21 0.34631811E-01 0.27128625E+03</pdfrwt>
<pdfrwt beam="2">  1       21 0.18368911E+00 0.27128625E+03</pdfrwt>
<totfact> 0.12857136E+03</totfact>
</mgrwt>
</event>
<event>
 4    1  0.1101825E+000  0.1772586E+03  0.7546771E-02  0.1170483E+00
         21   -1    0    0  503  502  0.00000000000E+00  0.00000000000E+00  0.38299210555E+03  0.38299210555E+03  0.00000000000E+00 0.  1.
         21   -1    0    0  501  503 -0.00000000000E+00 -0.00000000000E+00 -0.11928079261E+03  0.11928079261E+03  0.00000000000E+00 0. -1.
          6    1    1    2  501    0  0.84499416417E+01 -0.42014239514E+02 -0.84693539810E+01  0.17746077818E+03  0.17200000000E+03 0. -1.
         -6    1    1    2    0  502 -0.84499416417E+01  0.42014239514E+02  0.27218066692E+03  0.32481211997E+03  0.17200000000E+03 0.  1.
<mgrwt>
<rscale>  2 0.17725856E+03</rscale>
<asrwt>0</asrwt>
<pdfrwt beam="1">  1       21 0.95748024E-01 0.17725856E+03</pdfrwt>
<pdfrwt beam="2">  1       21 0.29820199E-01 0.17725856E+03</pdfrwt>
<totfact> 0.99141813E+03</totfact>
</mgrwt>
</event>
<event>
 4    1  0.1101825E+000  0.1789402E+03  0.7546771E-02  0.1168833E+00
         21   -1    0    0  501  502  0.00000000000E+00  0.00000000000E+00  0.15149859352E+03  0.15149859352E+03  0.00000000000E+00 0. -1.
         21   -1    0    0  502  503 -0.00000000000E+00 -0.00000000000E+00 -0.25489830995E+03  0.25489830995E+03  0.00000000000E+00 0. -1.
          6    1    1    2  501    0  0.35885127052E+02 -0.33879809932E+02 -0.13568662208E+03  0.22456723554E+03  0.17200000000E+03 0. -1.
         -6    1    1    2    0  503 -0.35885127052E+02  0.33879809932E+02  0.32286905653E+02  0.18182966793E+03  0.17200000000E+03 0. -1.
<mgrwt>
<rscale>  2 0.17894017E+03</rscale>
<asrwt>0</asrwt>
<pdfrwt beam="1">  1       21 0.37874649E-01 0.17894017E+03</pdfrwt>
<pdfrwt beam="2">  1       21 0.63724577E-01 0.17894017E+03</pdfrwt>
<totfact> 0.15431317E+04</totfact>
</mgrwt>
</event>
<event>
 4    1  0.1101825E+000  0.2074118E+03  0.7546771E-02  0.1143632E+00
         21   -1    0    0  501  502  0.00000000000E+00  0.00000000000E+00  0.29410085064E+03  0.29410085064E+03  0.00000000000E+00 0.  1.
         21   -1    0    0  502  503 -0.00000000000E+00 -0.00000000000E+00 -0.20853834039E+03  0.20853834039E+03  0.00000000000E+00 0. -1.
          6    1    1    2  501    0  0.45573156889E+02  0.10657730332E+03  0.18010613286E+03  0.27469592881E+03  0.17200000000E+03 0.  1.
         -6    1    1    2    0  503 -0.45573156889E+02 -0.10657730332E+03 -0.94543622610E+02  0.22794326221E+03  0.17200000000E+03 0. -1.
<mgrwt>
<rscale>  2 0.20741175E+03</rscale>
<asrwt>0</asrwt>
<pdfrwt beam="1">  1       21 0.73525212E-01 0.20741175E+03</pdfrwt>
<pdfrwt beam="2">  1       21 0.52134585E-01 0.20741175E+03</pdfrwt>
<totfact> 0.57379095E+03</totfact>
</mgrwt>
</event>
<event>
 4    1  0.1101825E+000  0.1773260E+03  0.7546771E-02  0.1170416E+00
         21   -1    0    0  503  502  0.00000000000E+00  0.00000000000E+00  0.11700766558E+03  0.11700766558E+03  0.00000000000E+00 0. -1.
         21   -1    0    0  501  503 -0.00000000000E+00 -0.00000000000E+00 -0.37018708858E+03  0.37018708858E+03  0.00000000000E+00 0. -1.
          6    1    1    2  501    0 -0.39413038387E+02 -0.17524946447E+02  0.93199694674E+00  0.17732845220E+03  0.17200000000E+03 0. -1.
         -6    1    1    2    0  502  0.39413038387E+02  0.17524946447E+02 -0.25411141995E+03  0.30986630196E+03  0.17200000000E+03 0. -1.
<mgrwt>
<rscale>  2 0.17732600E+03</rscale>
<asrwt>0</asrwt>
<pdfrwt beam="1">  1       21 0.29251917E-01 0.17732600E+03</pdfrwt>
<pdfrwt beam="2">  1       21 0.92546772E-01 0.17732600E+03</pdfrwt>
<totfact> 0.11139848E+04</totfact>
</mgrwt>
</event>
<event>
 4    1  0.1101825E+000  0.2023764E+03  0.7546771E-02  0.1147749E+00
         21   -1    0    0  503  502  0.00000000000E+00  0.00000000000E+00  0.58919157968E+03  0.58919157968E+03  0.00000000000E+00 0.  1.
         21   -1    0    0  501  503 -0.00000000000E+00 -0.00000000000E+00 -0.77419917404E+02  0.77419917404E+02  0.00000000000E+00 0.  1.
          6    1    1    2  501    0 -0.10301164103E+03 -0.27582946214E+02  0.14936561477E+03  0.25152793878E+03  0.17200000000E+03 0.  1.
         -6    1    1    2    0  502  0.10301164103E+03  0.27582946214E+02  0.36240604750E+03  0.41508355831E+03  0.17200000000E+03 0.  1.
<mgrwt>
<rscale>  2 0.20237642E+03</rscale>
<asrwt>0</asrwt>
<pdfrwt beam="1">  1       21 0.14729788E+00 0.20237642E+03</pdfrwt>
<pdfrwt beam="2">  1       21 0.19354981E-01 0.20237642E+03</pdfrwt>
<totfact> 0.76346891E+03</totfact>
</mgrwt>
</event>
<event>
 4    1  0.1101825E+000  0.1900235E+03  0.7546771E-02  0.1158440E+00
         21   -1    0    0  501  502  0.00000000000E+00  0.00000000000E+00  0.37661217540E+03  0.37661217540E+03  0.00000000000E+00 0.  1.
         21   -1    0    0  502  503 -0.00000000000E+00 -0.00000000000E+00 -0.11052371532E+03  0.11052371532E+03  0.00000000000E+00 0.  1.
          6    1    1    2  501    0 -0.59958667486E+02 -0.54128558629E+02  0.22170733671E+03  0.29199843461E+03  0.17200000000E+03 0.  1.
         -6    1    1    2    0  503  0.59958667486E+02  0.54128558629E+02  0.44381123374E+02  0.19513745611E+03  0.17200000000E+03 0.  1.
<mgrwt>
<rscale>  2 0.19002353E+03</rscale>
<asrwt>0</asrwt>
<pdfrwt beam="1">  1       21 0.94153041E-01 0.19002353E+03</pdfrwt>
<pdfrwt beam="2">  1       21 0.27630930E-01 0.19002353E+03</pdfrwt>
<totfact> 0.11845737E+04</totfact>
</mgrwt>
</event>
<event>
 4    1  0.1101825E+000  0.3019534E+03  0.7546771E-02  0.1084268E+00
         21   -1    0    0  501  502  0.00000000000E+00  0.00000000000E+00  0.89865247994E+02  0.89865247994E+02  0.00000000000E+00 0. -1.
         21   -1    0    0  502  503 -0.00000000000E+00 -0.00000000000E+00 -0.17002690878E+04  0.17002690878E+04  0.00000000000E+00 0. -1.
          6    1    1    2  501    0 -0.24299857949E+03  0.50433772544E+02 -0.13736084204E+04  0.14064053355E+04  0.17200000000E+03 0. -1.
         -6    1    1    2    0  503  0.24299857949E+03 -0.50433772544E+02 -0.23679541943E+03  0.38372900035E+03  0.17200000000E+03 0. -1.
<mgrwt>
<rscale>  2 0.30195343E+03</rscale>
<asrwt>0</asrwt>
<pdfrwt beam="1">  1       21 0.22466312E-01 0.30195343E+03</pdfrwt>
<pdfrwt beam="2">  1       21 0.42506727E+00 0.30195343E+03</pdfrwt>
<totfact> 0.95886078E+01</totfact>
</mgrwt>
</event>
<event>
 4    1  0.1101825E+000  0.1954145E+03  0.7546771E-02  0.1153667E+00
         21   -1    0    0  503  502  0.00000000000E+00  0.00000000000E+00  0.23160012392E+03  0.23160012392E+03  0.00000000000E+00 0.  1.
         21   -1    0    0  501  503 -0.00000000000E+00 -0.00000000000E+00 -0.16837704911E+03  0.16837704911E+03  0.00000000000E+00 0.  1.
          6    1    1    2  501    0 -0.85062975675E+02  0.36974397523E+02  0.60422453350E+02  0.20454263314E+03  0.17200000000E+03 0.  1.
         -6    1    1    2    0  502  0.85062975675E+02 -0.36974397523E+02  0.28006214662E+01  0.19543453989E+03  0.17200000000E+03 0.  1.
<mgrwt>
<rscale>  2 0.19541447E+03</rscale>
<asrwt>0</asrwt>
<pdfrwt beam="1">  1       21 0.57900031E-01 0.19541447E+03</pdfrwt>
<pdfrwt beam="2">  1       21 0.42094262E-01 0.19541447E+03</pdfrwt>
<totfact> 0.15163138E+04</totfact>
</mgrwt>
</event>
<event>
 4    1  0.1101825E+000  0.3119469E+03  0.7546771E-02  0.1079416E+00
         21   -1    0    0  503  502  0.00000000000E+00  0.00000000000E+00  0.19728935361E+03  0.19728935361E+03  0.00000000000E+00 0. -1.
         21   -1    0    0  501  503 -0.00000000000E+00 -0.00000000000E+00 -0.62135242412E+03  0.62135242412E+03  0.00000000000E+00 0. -1.
          6    1    1    2  501    0 -0.25709863381E+03 -0.40338277373E+02 -0.39789393348E+03  0.50559911633E+03  0.17200000000E+03 0. -1.
         -6    1    1    2    0  502  0.25709863381E+03  0.40338277373E+02 -0.26169137032E+02  0.31304266141E+03  0.17200000000E+03 0. -1.
<mgrwt>
<rscale>  2 0.31194693E+03</rscale>
<asrwt>0</asrwt>
<pdfrwt beam="1">  1       21 0.49322339E-01 0.31194693E+03</pdfrwt>
<pdfrwt beam="2">  1       21 0.15533810E+00 0.31194693E+03</pdfrwt>
<totfact> 0.96767368E+02</totfact>
</mgrwt>
</event>
<event>
 4    1  0.1101825E+000  0.1923629E+03  0.7546771E-02  0.1156347E+00
         21   -1    0    0  503  502  0.00000000000E+00  0.00000000000E+00  0.11716224791E+04  0.11716224791E+04  0.00000000000E+00 0.  1.
         21   -1    0    0  501  503 -0.00000000000E+00 -0.00000000000E+00 -0.42679863143E+02  0.42679863143E+02  0.00000000000E+00 0.  1.
          6    1    1    2  501    0 -0.86053157297E+02 -0.37842946828E+01  0.25488372129E+03  0.31932613133E+03  0.17200000000E+03 0. -1.
         -6    1    1    2    0  502  0.86053157297E+02  0.37842946828E+01  0.87405889465E+03  0.89497621090E+03  0.17200000000E+03 0. -1.
<mgrwt>
<rscale>  2 0.19236285E+03</rscale>
<asrwt>0</asrwt>
<pdfrwt beam="1">  1       21 0.29290551E+00 0.19236285E+03</pdfrwt>
<pdfrwt beam="2">  1       21 0.10669970E-01 0.19236285E+03</pdfrwt>
<totfact> 0.27138163E+03</totfact>
</mgrwt>
</event>
<event>
 4    1  0.1101825E+000  0.2467784E+03  0.7546771E-02  0.1115358E+00
         21   -1    0    0  501  502  0.00000000000E+00  0.00000000000E+00  0.60656920026E+02  0.60656920026E+02  0.00000000000E+00 0.  1.
         21   -1    0    0  502  503 -0.00000000000E+00 -0.00000000000E+00 -0.12593452832E+04  0.12593452832E+04  0.00000000000E+00 0.  1.
          6    1    1    2  501    0  0.87379339931E+02 -0.15388447275E+03 -0.30215313756E+03  0.39012318380E+03  0.17200000000E+03 0.  1.
         -6    1    1    2    0  503 -0.87379339931E+02  0.15388447275E+03 -0.89653522557E+03  0.92987901938E+03  0.17200000000E+03 0.  1.
<mgrwt>
<rscale>  2 0.24677840E+03</rscale>
<asrwt>0</asrwt>
<pdfrwt beam="1">  1       21 0.15164229E-01 0.24677840E+03</pdfrwt>
<pdfrwt beam="2">  1       21 0.31483634E+00 0.24677840E+03</pdfrwt>
<totfact> 0.10089711E+03</totfact>
</mgrwt>
</event>
<event>
 4    1  0.1101825E+000  0.1761302E+03  0.7546771E-02  0.1171602E+00
         21   -1    0    0  503  502  0.00000000000E+00  0.00000000000E+00  0.10307421907E+04  0.10307421907E+04  0.00000000000E+00 0.  1.
         21   -1    0    0  501  503 -0.00000000000E+00 -0.00000000000E+00 -0.36897913779E+02  0.36897913779E+02  0.00000000000E+00 0.  1.
          6    1    1    2  501    0  0.14292090819E+02  0.35122367783E+02  0.26773507529E+03  0.32047451556E+03  0.17200000000E+03 0. -1.
         -6    1    1    2    0  502 -0.14292090819E+02 -0.35122367783E+02  0.72610920159E+03  0.74716558888E+03  0.17200000000E+03 0. -1.
<mgrwt>
<rscale>  2 0.17613019E+03</rscale>
<asrwt>0</asrwt>
<pdfrwt beam="1">  1       21 0.25768545E+00 0.17613019E+03</pdfrwt>
<pdfrwt beam="2">  1       21 0.92244819E-02 0.17613019E+03</pdfrwt>
<totfact> 0.57085210E+03</totfact>
</mgrwt>
</event>
<event>
 4    1  0.1101825E+000  0.1779628E+03  0.7546771E-02  0.1169789E+00
         21   -1    0    0  501  502  0.00000000000E+00  0.00000000000E+00  0.50949924147E+03  0.50949924147E+03  0.00000000000E+00 0. -1.
         21   -1    0    0  502  503 -0.00000000000E+00 -0.00000000000E+00 -0.89232486351E+02  0.89232486351E+02  0.00000000000E+00 0. -1.
          6    1    1    2  501    0  0.18761743926E+02  0.41650211716E+02  0.37502576118E+03  0.41510849752E+03  0.17200000000E+03 0. -1.
         -6    1    1    2    0  503 -0.18761743926E+02 -0.41650211716E+02  0.45240993940E+02  0.18362323029E+03  0.17200000000E+03 0. -1.
<mgrwt>
<rscale>  2 0.17796276E+03</rscale>
<asrwt>0</asrwt>
<pdfrwt beam="1">  1       21 0.12737480E+00 0.17796276E+03</pdfrwt>
<pdfrwt beam="2">  1       21 0.22308123E-01 0.17796276E+03</pdfrwt>
<totfact> 0.86523048E+03</totfact>
</mgrwt>
</event>
<event>
 4    1  0.1101825E+000  0.2233945E+03  0.7546771E-02  0.1131377E+00
         21   -1    0    0  501  502  0.00000000000E+00  0.00000000000E+00  0.12089464694E+04  0.12089464694E+04  0.00000000000E+00 0. -1.
         21   -1    0    0  502  503 -0.00000000000E+00 -0.00000000000E+00 -0.77726555787E+02  0.77726555787E+02  0.00000000000E+00 0. -1.
          6    1    1    2  501    0 -0.12984556120E+03 -0.58832069766E+02  0.10061474330E+04  0.10306491833E+04  0.17200000000E+03 0. -1.
         -6    1    1    2    0  503  0.12984556120E+03  0.58832069766E+02  0.12507248065E+03  0.25602384188E+03  0.17200000000E+03 0. -1.
<mgrwt>
<rscale>  2 0.22339445E+03</rscale>
<asrwt>0</asrwt>
<pdfrwt beam="1">  1       21 0.30223656E+00 0.22339445E+03</pdfrwt>
<pdfrwt beam="2">  1       21 0.19431643E-01 0.22339445E+03</pdfrwt>
<totfact> 0.77557920E+02</totfact>
</mgrwt>
</event>
<event>
 4    1  0.1101825E+000  0.1885706E+03  0.7546771E-02  0.1159757E+00
         21   -1    0    0  503  502  0.00000000000E+00  0.00000000000E+00  0.10581540776E+03  0.10581540776E+03  0.00000000000E+00 0.  1.
         21   -1    0    0  501  503 -0.00000000000E+00 -0.00000000000E+00 -0.33605040084E+03  0.33605040084E+03  0.00000000000E+00 0.  1.
          6    1    1    2  501    0 -0.73469240635E+02 -0.24024121786E+02 -0.11435599695E+03  0.22053612354E+03  0.17200000000E+03 0. -1.
         -6    1    1    2    0  502  0.73469240635E+02  0.24024121786E+02 -0.11587899613E+03  0.22132968507E+03  0.17200000000E+03 0. -1.
<mgrwt>
<rscale>  2 0.18857064E+03</rscale>
<asrwt>0</asrwt>
<pdfrwt beam="1">  1       21 0.26453852E-01 0.18857064E+03</pdfrwt>
<pdfrwt beam="2">  1       21 0.84012599E-01 0.18857064E+03</pdfrwt>
<totfact> 0.16771481E+04</totfact>
</mgrwt>
</event>
<event>
 4    1  0.1101825E+000  0.2015469E+03  0.7546771E-02  0.1148440E+00
         21   -1    0    0  501  502  0.00000000000E+00  0.00000000000E+00  0.15150384680E+03  0.15150384680E+03  0.00000000000E+00 0. -1.
         21   -1    0    0  502  503 -0.00000000000E+00 -0.00000000000E+00 -0.39072614496E+03  0.39072614496E+03  0.00000000000E+00 0.  1.
          6    1    1    2  501    0 -0.44785823303E+02  0.95033528529E+02  0.32259636473E+02  0.20411228689E+03  0.17200000000E+03 0. -1.
         -6    1    1    2    0  503  0.44785823303E+02 -0.95033528529E+02 -0.27148193463E+03  0.33811770487E+03  0.17200000000E+03 0.  1.
<mgrwt>
<rscale>  2 0.20154687E+03</rscale>
<asrwt>0</asrwt>
<pdfrwt beam="1">  1       21 0.37875962E-01 0.20154687E+03</pdfrwt>
<pdfrwt beam="2">  1       21 0.97681535E-01 0.20154687E+03</pdfrwt>
<totfact> 0.57934638E+03</totfact>
</mgrwt>
</event>
<event>
 4    1  0.1101825E+000  0.1923709E+03  0.7546771E-02  0.1156340E+00
         21   -1    0    0  501  502  0.00000000000E+00  0.00000000000E+00  0.10144111896E+03  0.10144111896E+03  0.00000000000E+00 0.  1.
         21   -1    0    0  502  503 -0.00000000000E+00 -0.00000000000E+00 -0.54540497868E+03  0.54540497868E+03  0.00000000000E+00 0.  1.
          6    1    1    2  501    0  0.72252913790E+02 -0.46926223889E+02 -0.35873350710E+02  0.19568712612E+03  0.17200000000E+03 0.  1.
         -6    1    1    2    0  503 -0.72252913790E+02  0.46926223889E+02 -0.40809050900E+03  0.45115897152E+03  0.17200000000E+03 0.  1.
<mgrwt>
<rscale>  2 0.19237088E+03</rscale>
<asrwt>0</asrwt>
<pdfrwt beam="1">  1       21 0.25360280E-01 0.19237088E+03</pdfrwt>
<pdfrwt beam="2">  1       21 0.13635124E+00 0.19237088E+03</pdfrwt>
<totfact> 0.56462756E+03</totfact>
</mgrwt>
</event>
<event>
 4    1  0.1101825E+000  0.1820627E+03  0.7546771E-02  0.1165822E+00
         21   -1    0    0  501  502  0.00000000000E+00  0.00000000000E+00  0.13458144569E+03  0.13458144569E+03  0.00000000000E+00 0.  1.
         21   -1    0    0  502  503 -0.00000000000E+00 -0.00000000000E+00 -0.31913392002E+03  0.31913392002E+03  0.00000000000E+00 0.  1.
          6    1    1    2  501    0  0.52948393932E+02 -0.27555052258E+02  0.16103244675E+02  0.18277343301E+03  0.17200000000E+03 0.  1.
         -6    1    1    2    0  503 -0.52948393932E+02  0.27555052258E+02 -0.20065571901E+03  0.27094193270E+03  0.17200000000E+03 0.  1.
<mgrwt>
<rscale>  2 0.18206266E+03</rscale>
<asrwt>0</asrwt>
<pdfrwt beam="1">  1       21 0.33645362E-01 0.18206266E+03</pdfrwt>
<pdfrwt beam="2">  1       21 0.79783479E-01 0.18206266E+03</pdfrwt>
<totfact> 0.11859237E+04</totfact>
</mgrwt>
</event>
<event>
 4    1  0.1101825E+000  0.2169682E+03  0.7546771E-02  0.1136164E+00
         21   -1    0    0  503  502  0.00000000000E+00  0.00000000000E+00  0.11917738289E+03  0.11917738289E+03  0.00000000000E+00 0.  1.
         21   -1    0    0  501  503 -0.00000000000E+00 -0.00000000000E+00 -0.44925933633E+03  0.44925933633E+03  0.00000000000E+00 0. -1.
          6    1    1    2  501    0  0.13172560227E+03  0.11813281591E+02 -0.26381363126E+03  0.34157403290E+03  0.17200000000E+03 0.  1.
         -6    1    1    2    0  502 -0.13172560227E+03 -0.11813281591E+02 -0.66268322182E+02  0.22686268631E+03  0.17200000000E+03 0. -1.
<mgrwt>
<rscale>  2 0.21696817E+03</rscale>
<asrwt>0</asrwt>
<pdfrwt beam="1">  1       21 0.29794346E-01 0.21696817E+03</pdfrwt>
<pdfrwt beam="2">  1       21 0.11231483E+00 0.21696817E+03</pdfrwt>
<totfact> 0.65858829E+03</totfact>
</mgrwt>
</event>
<event>
 4    1  0.1101825E+000  0.2041639E+03  0.7546771E-02  0.1146273E+00
         21   -1    0    0  503  502  0.00000000000E+00  0.00000000000E+00  0.30628568789E+03  0.30628568789E+03  0.00000000000E+00 0. -1.
         21   -1    0    0  501  503 -0.00000000000E+00 -0.00000000000E+00 -0.14578736301E+03  0.14578736301E+03  0.00000000000E+00 0.  1.
          6    1    1    2  501    0  0.45169725191E+02  0.10029246904E+03  0.21956811288E+02  0.20534114293E+03  0.17200000000E+03 0.  1.
         -6    1    1    2    0  502 -0.45169725191E+02 -0.10029246904E+03  0.13854151359E+03  0.24673190796E+03  0.17200000000E+03 0. -1.
<mgrwt>
<rscale>  2 0.20416386E+03</rscale>
<asrwt>0</asrwt>
<pdfrwt beam="1">  1       21 0.76571421E-01 0.20416386E+03</pdfrwt>
<pdfrwt beam="2">  1       21 0.36446841E-01 0.20416386E+03</pdfrwt>
<totfact> 0.10933637E+04</totfact>
</mgrwt>
</event>
<event>
 4    1  0.1101825E+000  0.1825448E+03  0.7546771E-02  0.1165363E+00
         21   -1    0    0  501  502  0.00000000000E+00  0.00000000000E+00  0.39219981622E+02  0.39219981622E+02  0.00000000000E+00 0.  1.
         21   -1    0    0  502  503 -0.00000000000E+00 -0.00000000000E+00 -0.94905044346E+03  0.94905044346E+03  0.00000000000E+00 0.  1.
          6    1    1    2  501    0  0.52381349351E+01  0.60919270644E+02 -0.29498440688E+03  0.34689825006E+03  0.17200000000E+03 0.  1.
         -6    1    1    2    0  503 -0.52381349351E+01 -0.60919270644E+02 -0.61484605496E+03  0.64137217502E+03  0.17200000000E+03 0.  1.
<mgrwt>
<rscale>  2 0.18254478E+03</rscale>
<asrwt>0</asrwt>
<pdfrwt beam="1">  1       21 0.98049953E-02 0.18254478E+03</pdfrwt>
<pdfrwt beam="2">  1       21 0.23726261E+00 0.18254478E+03</pdfrwt>
<totfact> 0.67129245E+03</totfact>
</mgrwt>
</event>
<event>
 4    1  0.1101825E+000  0.2241594E+03  0.7546771E-02  0.1130819E+00
         21   -1    0    0  501  502  0.00000000000E+00  0.00000000000E+00  0.25544182818E+03  0.25544182818E+03  0.00000000000E+00 0.  1.
         21   -1    0    0  502  503 -0.00000000000E+00 -0.00000000000E+00 -0.21578762757E+03  0.21578762757E+03  0.00000000000E+00 0. -1.
          6    1    1    2  501    0  0.61412248422E+02 -0.12996920113E+03 -0.50233495628E+02  0.22971909276E+03  0.17200000000E+03 0.  1.
         -6    1    1    2    0  503 -0.61412248422E+02  0.12996920113E+03  0.89887696236E+02  0.24151036299E+03  0.17200000000E+03 0.  1.
<mgrwt>
<rscale>  2 0.22415945E+03</rscale>
<asrwt>0</asrwt>
<pdfrwt beam="1">  1       21 0.63860457E-01 0.22415945E+03</pdfrwt>
<pdfrwt beam="2">  1       21 0.53946907E-01 0.22415945E+03</pdfrwt>
<totfact> 0.71984413E+03</totfact>
</mgrwt>
</event>
<event>
 4    1  0.1101825E+000  0.3072614E+03  0.7546771E-02  0.1081666E+00
         21   -1    0    0  501  502  0.00000000000E+00  0.00000000000E+00  0.38710143208E+03  0.38710143208E+03  0.00000000000E+00 0.  1.
         21   -1    0    0  502  503 -0.00000000000E+00 -0.00000000000E+00 -0.25775931671E+03  0.25775931671E+03  0.00000000000E+00 0.  1.
          6    1    1    2  501    0 -0.23116584119E+03 -0.10671430942E+03 -0.10125167973E+02  0.30742821763E+03  0.17200000000E+03 0.  1.
         -6    1    1    2    0  503  0.23116584119E+03  0.10671430942E+03  0.13946728335E+03  0.33743253117E+03  0.17200000000E+03 0.  1.
<mgrwt>
<rscale>  2 0.30726144E+03</rscale>
<asrwt>0</asrwt>
<pdfrwt beam="1">  1       21 0.96775357E-01 0.30726144E+03</pdfrwt>
<pdfrwt beam="2">  1       21 0.64439830E-01 0.30726144E+03</pdfrwt>
<totfact> 0.18110953E+03</totfact>
</mgrwt>
</event>
<event>
 4    1  0.1101825E+000  0.2419713E+03  0.7546771E-02  0.1118487E+00
         21   -1    0    0  501  502  0.00000000000E+00  0.00000000000E+00  0.52502021009E+03  0.52502021009E+03  0.00000000000E+00 0.  1.
         21   -1    0    0  502  503 -0.00000000000E+00 -0.00000000000E+00 -0.11301882970E+03  0.11301882970E+03  0.00000000000E+00 0.  1.
          6    1    1    2  501    0  0.13886964883E+03 -0.98393695432E+02  0.16925885782E+03  0.29529419164E+03  0.17200000000E+03 0.  1.
         -6    1    1    2    0  503 -0.13886964883E+03  0.98393695432E+02  0.24274252257E+03  0.34274484815E+03  0.17200000000E+03 0.  1.
<mgrwt>
<rscale>  2 0.24197128E+03</rscale>
<asrwt>0</asrwt>
<pdfrwt beam="1">  1       21 0.13125505E+00 0.24197128E+03</pdfrwt>
<pdfrwt beam="2">  1       21 0.28254709E-01 0.24197128E+03</pdfrwt>
<totfact> 0.48664746E+03</totfact>
</mgrwt>
</event>
<event>
 4    1  0.1101825E+000  0.2359644E+03  0.7546771E-02  0.1122511E+00
         21   -1    0    0  501  502  0.00000000000E+00  0.00000000000E+00  0.68502876362E+03  0.68502876362E+03  0.00000000000E+00 0.  1.
         21   -1    0    0  502  503 -0.00000000000E+00 -0.00000000000E+00 -0.85109253997E+02  0.85109253997E+02  0.00000000000E+00 0.  1.
          6    1    1    2  501    0 -0.58722780739E+02 -0.15048859698E+03  0.38163746352E+03  0.44869403424E+03  0.17200000000E+03 0.  1.
         -6    1    1    2    0  503  0.58722780739E+02  0.15048859698E+03  0.21828204610E+03  0.32144398338E+03  0.17200000000E+03 0.  1.
<mgrwt>
<rscale>  2 0.23596437E+03</rscale>
<asrwt>0</asrwt>
<pdfrwt beam="1">  1       21 0.17125717E+00 0.23596437E+03</pdfrwt>
<pdfrwt beam="2">  1       21 0.21277316E-01 0.23596437E+03</pdfrwt>
<totfact> 0.41457634E+03</totfact>
</mgrwt>
</event>
<event>
 4    1  0.1101825E+000  0.1740344E+03  0.7546771E-02  0.1173705E+00
         21   -1    0    0  503  502  0.00000000000E+00  0.00000000000E+00  0.78755240601E+03  0.78755240601E+03  0.00000000000E+00 0. -1.
         21   -1    0    0  501  503 -0.00000000000E+00 -0.00000000000E+00 -0.39851297891E+02  0.39851297891E+02  0.00000000000E+00 0. -1.
          6    1    1    2  501    0  0.25688421112E+02 -0.66394406016E+01  0.29650569145E+03  0.34380750750E+03  0.17200000000E+03 0.  1.
         -6    1    1    2    0  502 -0.25688421112E+02  0.66394406016E+01  0.45119541667E+03  0.48359619641E+03  0.17200000000E+03 0.  1.
<mgrwt>
<rscale>  2 0.17403441E+03</rscale>
<asrwt>0</asrwt>
<pdfrwt beam="1">  1       21 0.19688805E+00 0.17403441E+03</pdfrwt>
<pdfrwt beam="2">  1       21 0.99628270E-02 0.17403441E+03</pdfrwt>
<totfact> 0.11667725E+04</totfact>
</mgrwt>
</event>
<event>
 4    1  0.1101825E+000  0.1953118E+03  0.7546771E-02  0.1153756E+00
         21   -1    0    0  503  502  0.00000000000E+00  0.00000000000E+00  0.26510830869E+03  0.26510830869E+03  0.00000000000E+00 0. -1.
         21   -1    0    0  501  503 -0.00000000000E+00 -0.00000000000E+00 -0.15302120590E+03  0.15302120590E+03  0.00000000000E+00 0. -1.
          6    1    1    2  501    0  0.34635544931E+02 -0.85808341896E+02  0.49758930418E+01  0.19537515713E+03  0.17200000000E+03 0. -1.
         -6    1    1    2    0  502 -0.34635544931E+02  0.85808341896E+02  0.10711120975E+03  0.22275435746E+03  0.17200000000E+03 0. -1.
<mgrwt>
<rscale>  2 0.19531178E+03</rscale>
<asrwt>0</asrwt>
<pdfrwt beam="1">  1       21 0.66277077E-01 0.19531178E+03</pdfrwt>
<pdfrwt beam="2">  1       21 0.38255302E-01 0.19531178E+03</pdfrwt>
<totfact> 0.13741907E+04</totfact>
</mgrwt>
</event>
<event>
 4    1  0.1101825E+000  0.2339562E+03  0.7546771E-02  0.1123886E+00
         21   -1    0    0  501  502  0.00000000000E+00  0.00000000000E+00  0.27622872719E+03  0.27622872719E+03  0.00000000000E+00 0. -1.
         21   -1    0    0  502  503 -0.00000000000E+00 -0.00000000000E+00 -0.52164591280E+03  0.52164591280E+03  0.00000000000E+00 0. -1.
          6    1    1    2  501    0  0.14855632891E+03 -0.55520573307E+02  0.19145020715E+03  0.30230563795E+03  0.17200000000E+03 0. -1.
         -6    1    1    2    0  503 -0.14855632891E+03  0.55520573307E+02 -0.43686739276E+03  0.49556900204E+03  0.17200000000E+03 0. -1.
<mgrwt>
<rscale>  2 0.23395623E+03</rscale>
<asrwt>0</asrwt>
<pdfrwt beam="1">  1       21 0.69057182E-01 0.23395623E+03</pdfrwt>
<pdfrwt beam="2">  1       21 0.13041148E+00 0.23395623E+03</pdfrwt>
<totfact> 0.78611959E+02</totfact>
</mgrwt>
</event>
<event>
 4    1  0.1101825E+000  0.1735371E+03  0.7546771E-02  0.1174209E+00
         21   -1    0    0  503  502  0.00000000000E+00  0.00000000000E+00  0.39568578535E+03  0.39568578535E+03  0.00000000000E+00 0.  1.
         21   -1    0    0  501  503 -0.00000000000E+00 -0.00000000000E+00 -0.83521808065E+02  0.83521808065E+02  0.00000000000E+00 0.  1.
          6    1    1    2  501    0 -0.81867334433E+01  0.21543133927E+02  0.84699114709E+02  0.19310377846E+03  0.17200000000E+03 0. -1.
         -6    1    1    2    0  502  0.81867334433E+01 -0.21543133927E+02  0.22746486257E+03  0.28610381495E+03  0.17200000000E+03 0. -1.
<mgrwt>
<rscale>  2 0.17353711E+03</rscale>
<asrwt>0</asrwt>
<pdfrwt beam="1">  1       21 0.98921441E-01 0.17353711E+03</pdfrwt>
<pdfrwt beam="2">  1       21 0.20880453E-01 0.17353711E+03</pdfrwt>
<totfact> 0.18157598E+04</totfact>
</mgrwt>
</event>
<event>
 4    1  0.1101825E+000  0.2289946E+03  0.7546771E-02  0.1127349E+00
         21   -1    0    0  503  502  0.00000000000E+00  0.00000000000E+00  0.25524103784E+03  0.25524103784E+03  0.00000000000E+00 0.  1.
         21   -1    0    0  501  503 -0.00000000000E+00 -0.00000000000E+00 -0.40657275444E+03  0.40657275444E+03  0.00000000000E+00 0.  1.
          6    1    1    2  501    0  0.95841614178E+02 -0.11691416521E+03 -0.30840551625E+03  0.38412562982E+03  0.17200000000E+03 0.  1.
         -6    1    1    2    0  502 -0.95841614178E+02  0.11691416521E+03  0.15707379964E+03  0.27768816246E+03  0.17200000000E+03 0.  1.
<mgrwt>
<rscale>  2 0.22899462E+03</rscale>
<asrwt>0</asrwt>
<pdfrwt beam="1">  1       21 0.63810260E-01 0.22899462E+03</pdfrwt>
<pdfrwt beam="2">  1       21 0.10164319E+00 0.22899462E+03</pdfrwt>
<totfact> 0.17354785E+03</totfact>
</mgrwt>
</event>
<event>
 4    1  0.1101825E+000  0.1927714E+03  0.7546771E-02  0.1155985E+00
         21   -1    0    0  501  502  0.00000000000E+00  0.00000000000E+00  0.18031830539E+03  0.18031830539E+03  0.00000000000E+00 0.  1.
         21   -1    0    0  502  503 -0.00000000000E+00 -0.00000000000E+00 -0.36826197450E+03  0.36826197450E+03  0.00000000000E+00 0. -1.
          6    1    1    2  501    0 -0.47272644198E+02  0.73089808655E+02  0.88051434988E+02  0.21192894616E+03  0.17200000000E+03 0.  1.
         -6    1    1    2    0  503  0.47272644198E+02 -0.73089808655E+02 -0.27599510409E+03  0.33665133373E+03  0.17200000000E+03 0. -1.
<mgrwt>
<rscale>  2 0.19277143E+03</rscale>
<asrwt>0</asrwt>
<pdfrwt beam="1">  1       21 0.45079577E-01 0.19277143E+03</pdfrwt>
<pdfrwt beam="2">  1       21 0.92065493E-01 0.19277143E+03</pdfrwt>
<totfact> 0.47058126E+03</totfact>
</mgrwt>
</event>
<event>
 4    1  0.1101825E+000  0.1808732E+03  0.7546771E-02  0.1166961E+00
         21   -1    0    0  501  502  0.00000000000E+00  0.00000000000E+00  0.74893075653E+03  0.74893075653E+03  0.00000000000E+00 0. -1.
         21   -1    0    0  502  503 -0.00000000000E+00 -0.00000000000E+00 -0.13778872909E+03  0.13778872909E+03  0.00000000000E+00 0. -1.
          6    1    1    2  501    0 -0.55546761742E+02  0.67576985694E+01  0.67197380653E+03  0.69589072841E+03  0.17200000000E+03 0. -1.
         -6    1    1    2    0  503  0.55546761742E+02 -0.67576985694E+01 -0.60831779086E+02  0.19082875721E+03  0.17200000000E+03 0. -1.
<mgrwt>
<rscale>  2 0.18087319E+03</rscale>
<asrwt>0</asrwt>
<pdfrwt beam="1">  1       21 0.18723268E+00 0.18087319E+03</pdfrwt>
<pdfrwt beam="2">  1       21 0.34447184E-01 0.18087319E+03</pdfrwt>
<totfact> 0.13384987E+03</totfact>
</mgrwt>
</event>
<event>
 4    1  0.1101825E+000  0.1728043E+03  0.7546771E-02  0.1174955E+00
         21   -1    0    0  503  502  0.00000000000E+00  0.00000000000E+00  0.96057961622E+03  0.96057961622E+03  0.00000000000E+00 0. -1.
         21   -1    0    0  501  503 -0.00000000000E+00 -0.00000000000E+00 -0.97634213069E+02  0.97634213069E+02  0.00000000000E+00 0. -1.
          6    1    1    2  501    0 -0.16048048124E+02  0.44471297194E+01 -0.53529278961E+01  0.17288716161E+03  0.17200000000E+03 0. -1.
         -6    1    1    2    0  502  0.16048048124E+02 -0.44471297194E+01  0.86829833104E+03  0.88532666768E+03  0.17200000000E+03 0. -1.
<mgrwt>
<rscale>  2 0.17280427E+03</rscale>
<asrwt>0</asrwt>
<pdfrwt beam="1">  1       21 0.24014488E+00 0.17280427E+03</pdfrwt>
<pdfrwt beam="2">  1       21 0.24408556E-01 0.17280427E+03</pdfrwt>
<totfact> 0.12357375E+03</totfact>
</mgrwt>
</event>
<event>
 4    1  0.1101825E+000  0.2050487E+03  0.7546771E-02  0.1145548E+00
         21   -1    0    0  503  502  0.00000000000E+00  0.00000000000E+00  0.32762289726E+03  0.32762289726E+03  0.00000000000E+00 0.  1.
         21   -1    0    0  501  503 -0.00000000000E+00 -0.00000000000E+00 -0.20002944740E+03  0.20002944740E+03  0.00000000000E+00 0.  1.
          6    1    1    2  501    0 -0.35853056434E+02 -0.10571445913E+03 -0.94152774970E+02  0.22563185405E+03  0.17200000000E+03 0. -1.
         -6    1    1    2    0  502  0.35853056434E+02  0.10571445913E+03  0.22174622483E+03  0.30202049061E+03  0.17200000000E+03 0. -1.
<mgrwt>
<rscale>  2 0.20504875E+03</rscale>
<asrwt>0</asrwt>
<pdfrwt beam="1">  1       21 0.81905724E-01 0.20504875E+03</pdfrwt>
<pdfrwt beam="2">  1       21 0.50007362E-01 0.20504875E+03</pdfrwt>
<totfact> 0.49191827E+03</totfact>
</mgrwt>
</event>
<event>
 4    1  0.1101825E+000  0.2237643E+03  0.7546771E-02  0.1131107E+00
         21   -1    0    0  501  502  0.00000000000E+00  0.00000000000E+00  0.57374979351E+03  0.57374979351E+03  0.00000000000E+00 0. -1.
         21   -1    0    0  502  503 -0.00000000000E+00 -0.00000000000E+00 -0.87359594558E+02  0.87359594558E+02  0.00000000000E+00 0. -1.
          6    1    1    2  501    0 -0.18518324920E+02 -0.14192786854E+03  0.25385247456E+03  0.33839551869E+03  0.17200000000E+03 0. -1.
         -6    1    1    2    0  503  0.18518324920E+02  0.14192786854E+03  0.23253772439E+03  0.32271386938E+03  0.17200000000E+03 0. -1.
<mgrwt>
<rscale>  2 0.22376427E+03</rscale>
<asrwt>0</asrwt>
<pdfrwt beam="1">  1       21 0.14343744E+00 0.22376427E+03</pdfrwt>
<pdfrwt beam="2">  1       21 0.21839900E-01 0.22376427E+03</pdfrwt>
<totfact> 0.64208864E+03</totfact>
</mgrwt>
</event>
<event>
 4    1  0.1101825E+000  0.1726092E+03  0.7546771E-02  0.1175154E+00
         21   -1    0    0  501  502  0.00000000000E+00  0.00000000000E+00  0.27187241239E+04  0.27187241239E+04  0.00000000000E+00 0. -1.
         21   -1    0    0  502  503 -0.00000000000E+00 -0.00000000000E+00 -0.14799115081E+02  0.14799115081E+02  0.00000000000E+00 0. -1.
          6    1    1    2  501    0 -0.11463872766E+02 -0.88616319035E+01  0.20482016451E+04  0.20554619744E+04  0.17200000000E+03 0. -1.
         -6    1    1    2    0  503  0.11463872766E+02  0.88616319035E+01  0.65572336365E+03  0.67806126459E+03  0.17200000000E+03 0. -1.
<mgrwt>
<rscale>  2 0.17260924E+03</rscale>
<asrwt>0</asrwt>
<pdfrwt beam="1">  1       21 0.67967932E+00 0.17260924E+03</pdfrwt>
<pdfrwt beam="2">  1       21 0.36997881E-02 0.17260924E+03</pdfrwt>
<totfact> 0.34862935E+01</totfact>
</mgrwt>
</event>
<event>
 4    1  0.1101825E+000  0.2458721E+03  0.7546771E-02  0.1115942E+00
         21   -1    0    0  501  502  0.00000000000E+00  0.00000000000E+00  0.16715665316E+03  0.16715665316E+03  0.00000000000E+00 0.  1.
         21   -1    0    0  502  503 -0.00000000000E+00 -0.00000000000E+00 -0.55170621090E+03  0.55170621090E+03  0.00000000000E+00 0.  1.
          6    1    1    2  501    0 -0.72432788911E+01  0.17554668978E+03  0.18683700412E+02  0.24658099287E+03  0.17200000000E+03 0.  1.
         -6    1    1    2    0  503  0.72432788911E+01 -0.17554668978E+03 -0.40323325815E+03  0.47228187120E+03  0.17200000000E+03 0.  1.
<mgrwt>
<rscale>  2 0.24587213E+03</rscale>
<asrwt>0</asrwt>
<pdfrwt beam="1">  1       21 0.41789164E-01 0.24587213E+03</pdfrwt>
<pdfrwt beam="2">  1       21 0.13792655E+00 0.24587213E+03</pdfrwt>
<totfact> 0.19588296E+03</totfact>
</mgrwt>
</event>
<event>
 4    1  0.1101825E+000  0.2192516E+03  0.7546771E-02  0.1134442E+00
         21   -1    0    0  503  502  0.00000000000E+00  0.00000000000E+00  0.56475568159E+02  0.56475568159E+02  0.00000000000E+00 0. -1.
         21   -1    0    0  501  503 -0.00000000000E+00 -0.00000000000E+00 -0.87978904154E+03  0.87978904154E+03  0.00000000000E+00 0.  1.
          6    1    1    2  501    0  0.78482677721E+02  0.11103028705E+03 -0.49606398615E+03  0.54235664807E+03  0.17200000000E+03 0.  1.
         -6    1    1    2    0  502 -0.78482677721E+02 -0.11103028705E+03 -0.32724948723E+03  0.39390796163E+03  0.17200000000E+03 0. -1.
<mgrwt>
<rscale>  2 0.21925158E+03</rscale>
<asrwt>0</asrwt>
<pdfrwt beam="1">  1       21 0.14118892E-01 0.21925158E+03</pdfrwt>
<pdfrwt beam="2">  1       21 0.21994726E+00 0.21925158E+03</pdfrwt>
<totfact> 0.42990224E+03</totfact>
</mgrwt>
</event>
<event>
 4    1  0.1101825E+000  0.1852310E+03  0.7546771E-02  0.1162834E+00
         21   -1    0    0  501  502  0.00000000000E+00  0.00000000000E+00  0.38050689327E+03  0.38050689327E+03  0.00000000000E+00 0. -1.
         21   -1    0    0  502  503 -0.00000000000E+00 -0.00000000000E+00 -0.27426880763E+03  0.27426880763E+03  0.00000000000E+00 0.  1.
          6    1    1    2  501    0  0.70009266248E+01  0.68392281431E+02  0.32134399982E+03  0.37090764801E+03  0.17200000000E+03 0. -1.
         -6    1    1    2    0  503 -0.70009266248E+01 -0.68392281431E+02 -0.21510591419E+03  0.28386805289E+03  0.17200000000E+03 0.  1.
<mgrwt>
<rscale>  2 0.18523098E+03</rscale>
<asrwt>0</asrwt>
<pdfrwt beam="1">  1       21 0.95126723E-01 0.18523098E+03</pdfrwt>
<pdfrwt beam="2">  1       21 0.68567202E-01 0.18523098E+03</pdfrwt>
<totfact> 0.18032822E+03</totfact>
</mgrwt>
</event>
<event>
 4    1  0.1101825E+000  0.2457488E+03  0.7546771E-02  0.1116021E+00
         21   -1    0    0  501  502  0.00000000000E+00  0.00000000000E+00  0.38432144145E+03  0.38432144145E+03  0.00000000000E+00 0. -1.
         21   -1    0    0  502  503 -0.00000000000E+00 -0.00000000000E+00 -0.20184419560E+03  0.20184419560E+03  0.00000000000E+00 0. -1.
          6    1    1    2  501    0 -0.12845332609E+03 -0.11961698242E+03  0.22916703563E+03  0.33602084710E+03  0.17200000000E+03 0. -1.
         -6    1    1    2    0  503  0.12845332609E+03  0.11961698242E+03 -0.46689789778E+02  0.25014478994E+03  0.17200000000E+03 0. -1.
<mgrwt>
<rscale>  2 0.24574881E+03</rscale>
<asrwt>0</asrwt>
<pdfrwt beam="1">  1       21 0.96080359E-01 0.24574881E+03</pdfrwt>
<pdfrwt beam="2">  1       21 0.50461049E-01 0.24574881E+03</pdfrwt>
<totfact> 0.32376472E+03</totfact>
</mgrwt>
</event>
<event>
 4    1  0.1101825E+000  0.2619728E+03  0.7546771E-02  0.1105964E+00
         21   -1    0    0  503  502  0.00000000000E+00  0.00000000000E+00  0.10254518630E+03  0.10254518630E+03  0.00000000000E+00 0.  1.
         21   -1    0    0  501  503 -0.00000000000E+00 -0.00000000000E+00 -0.76571921306E+03  0.76571921306E+03  0.00000000000E+00 0.  1.
          6    1    1    2  501    0  0.28814583359E+02  0.19548783554E+03 -0.48566857905E+03  0.55181857774E+03  0.17200000000E+03 0.  1.
         -6    1    1    2    0  502 -0.28814583359E+02 -0.19548783554E+03 -0.17750544770E+03  0.31644582163E+03  0.17200000000E+03 0.  1.
<mgrwt>
<rscale>  2 0.26197285E+03</rscale>
<asrwt>0</asrwt>
<pdfrwt beam="1">  1       21 0.25636297E-01 0.26197285E+03</pdfrwt>
<pdfrwt beam="2">  1       21 0.19142980E+00 0.26197285E+03</pdfrwt>
<totfact> 0.20723783E+03</totfact>
</mgrwt>
</event>
<event>
 4    1  0.1101825E+000  0.2751899E+03  0.7546771E-02  0.1098345E+00
         21   -1    0    0  503  502  0.00000000000E+00  0.00000000000E+00  0.93756853145E+03  0.93756853145E+03  0.00000000000E+00 0.  1.
         21   -1    0    0  501  503 -0.00000000000E+00 -0.00000000000E+00 -0.89035017473E+02  0.89035017473E+02  0.00000000000E+00 0. -1.
          6    1    1    2  501    0 -0.21474403538E+03 -0.55217015324E+01  0.26789585364E+03  0.38405426480E+03  0.17200000000E+03 0. -1.
         -6    1    1    2    0  502  0.21474403538E+03  0.55217015324E+01  0.58063766034E+03  0.64254928412E+03  0.17200000000E+03 0.  1.
<mgrwt>
<rscale>  2 0.27518992E+03</rscale>
<asrwt>0</asrwt>
<pdfrwt beam="1">  1       21 0.23439210E+00 0.27518992E+03</pdfrwt>
<pdfrwt beam="2">  1       21 0.22258757E-01 0.27518992E+03</pdfrwt>
<totfact> 0.14344379E+03</totfact>
</mgrwt>
</event>
<event>
 4    1  0.1101825E+000  0.2025644E+03  0.7546771E-02  0.1147593E+00
         21   -1    0    0  503  502  0.00000000000E+00  0.00000000000E+00  0.54061425412E+03  0.54061425412E+03  0.00000000000E+00 0. -1.
         21   -1    0    0  501  503 -0.00000000000E+00 -0.00000000000E+00 -0.93498374740E+02  0.93498374740E+02  0.00000000000E+00 0. -1.
          6    1    1    2  501    0  0.74904588317E+02  0.76404419636E+02  0.86002662205E+02  0.22006542345E+03  0.17200000000E+03 0. -1.
         -6    1    1    2    0  502 -0.74904588317E+02 -0.76404419636E+02  0.36111321717E+03  0.41404720541E+03  0.17200000000E+03 0. -1.
<mgrwt>
<rscale>  2 0.20256439E+03</rscale>
<asrwt>0</asrwt>
<pdfrwt beam="1">  1       21 0.13515355E+00 0.20256439E+03</pdfrwt>
<pdfrwt beam="2">  1       21 0.23374595E-01 0.20256439E+03</pdfrwt>
<totfact> 0.66902545E+03</totfact>
</mgrwt>
</event>
<event>
 4    1  0.1101825E+000  0.2182753E+03  0.7546771E-02  0.1135175E+00
         21   -1    0    0  503  502  0.00000000000E+00  0.00000000000E+00  0.25849082070E+03  0.25849082070E+03  0.00000000000E+00 0.  1.
         21   -1    0    0  501  503 -0.00000000000E+00 -0.00000000000E+00 -0.37497312246E+03  0.37497312246E+03  0.00000000000E+00 0. -1.
          6    1    1    2  501    0 -0.11081030493E+03  0.76033960354E+02 -0.28409003188E+03  0.35826140319E+03  0.17200000000E+03 0. -1.
         -6    1    1    2    0  502  0.11081030493E+03 -0.76033960354E+02  0.16760773012E+03  0.27520253996E+03  0.17200000000E+03 0.  1.
<mgrwt>
<rscale>  2 0.21827525E+03</rscale>
<asrwt>0</asrwt>
<pdfrwt beam="1">  1       21 0.64622706E-01 0.21827525E+03</pdfrwt>
<pdfrwt beam="2">  1       21 0.93743280E-01 0.21827525E+03</pdfrwt>
<totfact> 0.20627743E+03</totfact>
</mgrwt>
</event>
<event>
 4    1  0.1101825E+000  0.2334671E+03  0.7546771E-02  0.1124223E+00
         21   -1    0    0  501  502  0.00000000000E+00  0.00000000000E+00  0.31152083000E+03  0.31152083000E+03  0.00000000000E+00 0.  1.
         21   -1    0    0  502  503 -0.00000000000E+00 -0.00000000000E+00 -0.10826366881E+04  0.10826366881E+04  0.00000000000E+00 0.  1.
          6    1    1    2  501    0 -0.15750294149E+03  0.10757844120E+02  0.25271084003E+03  0.34404894485E+03  0.17200000000E+03 0.  1.
         -6    1    1    2    0  503  0.15750294149E+03 -0.10757844120E+02 -0.10238266982E+04  0.10501085733E+04  0.17200000000E+03 0.  1.
<mgrwt>
<rscale>  2 0.23346714E+03</rscale>
<asrwt>0</asrwt>
<pdfrwt beam="1">  1       21 0.77880208E-01 0.23346714E+03</pdfrwt>
<pdfrwt beam="2">  1       21 0.27065917E+00 0.23346714E+03</pdfrwt>
<totfact> 0.69272926E+01</totfact>
</mgrwt>
</event>
<event>
 4    1  0.1101825E+000  0.2181987E+03  0.7546771E-02  0.1135233E+00
         21   -1    0    0  503  502  0.00000000000E+00  0.00000000000E+00  0.19123735506E+03  0.19123735506E+03  0.00000000000E+00 0.  1.
         21   -1    0    0  501  503 -0.00000000000E+00 -0.00000000000E+00 -0.25061484342E+03  0.25061484342E+03  0.00000000000E+00 0.  1.
          6    1    1    2  501    0 -0.12829433159E+03 -0.39588137513E+02 -0.47635332556E+02  0.22333781824E+03  0.17200000000E+03 0. -1.
         -6    1    1    2    0  502  0.12829433159E+03  0.39588137513E+02 -0.11742155805E+02  0.21851438024E+03  0.17200000000E+03 0. -1.
<mgrwt>
<rscale>  2 0.21819866E+03</rscale>
<asrwt>0</asrwt>
<pdfrwt beam="1">  1       21 0.47809339E-01 0.21819866E+03</pdfrwt>
<pdfrwt beam="2">  1       21 0.62653710E-01 0.21819866E+03</pdfrwt>
<totfact> 0.97037724E+03</totfact>
</mgrwt>
</event>
<event>
 4    1  0.1101825E+000  0.1804723E+03  0.7546771E-02  0.1167347E+00
         21   -1    0    0  501  502  0.00000000000E+00  0.00000000000E+00  0.20354291239E+02  0.20354291239E+02  0.00000000000E+00 0.  1.
         21   -1    0    0  502  503 -0.00000000000E+00 -0.00000000000E+00 -0.18592333875E+04  0.18592333875E+04  0.00000000000E+00 0.  1.
          6    1    1    2  501    0 -0.37022816313E+02  0.40194081734E+02 -0.56862978750E+03  0.59658200473E+03  0.17200000000E+03 0.  1.
         -6    1    1    2    0  503  0.37022816313E+02 -0.40194081734E+02 -0.12702493087E+04  0.12830056740E+04  0.17200000000E+03 0.  1.
<mgrwt>
<rscale>  2 0.18047231E+03</rscale>
<asrwt>0</asrwt>
<pdfrwt beam="1">  1       21 0.50885741E-02 0.18047231E+03</pdfrwt>
<pdfrwt beam="2">  1       21 0.46480823E+00 0.18047231E+03</pdfrwt>
<totfact> 0.88283708E+02</totfact>
</mgrwt>
</event>
<event>
 4    1  0.1101825E+000  0.1832683E+03  0.7546771E-02  0.1164677E+00
         21   -1    0    0  503  502  0.00000000000E+00  0.00000000000E+00  0.99940382443E+02  0.99940382443E+02  0.00000000000E+00 0. -1.
         21   -1    0    0  501  503 -0.00000000000E+00 -0.00000000000E+00 -0.33608829667E+03  0.33608829667E+03  0.00000000000E+00 0. -1.
          6    1    1    2  501    0 -0.39809221698E+01 -0.63146179033E+02 -0.11953341030E+03  0.21880476194E+03  0.17200000000E+03 0. -1.
         -6    1    1    2    0  502  0.39809221698E+01  0.63146179033E+02 -0.11661450393E+03  0.21722391718E+03  0.17200000000E+03 0. -1.
<mgrwt>
<rscale>  2 0.18326835E+03</rscale>
<asrwt>0</asrwt>
<pdfrwt beam="1">  1       21 0.24985096E-01 0.18326835E+03</pdfrwt>
<pdfrwt beam="2">  1       21 0.84022074E-01 0.18326835E+03</pdfrwt>
<totfact> 0.18764800E+04</totfact>
</mgrwt>
</event>
<event>
 4    1  0.1101825E+000  0.2020918E+03  0.7546771E-02  0.1147986E+00
         21   -1    0    0  501  502  0.00000000000E+00  0.00000000000E+00  0.36212078279E+02  0.36212078279E+02  0.00000000000E+00 0.  1.
         21   -1    0    0  502  503 -0.00000000000E+00 -0.00000000000E+00 -0.11376487844E+04  0.11376487844E+04  0.00000000000E+00 0.  1.
          6    1    1    2  501    0  0.79155411191E+02  0.70650616770E+02 -0.49619295424E+03  0.53576910755E+03  0.17200000000E+03 0.  1.
         -6    1    1    2    0  503 -0.79155411191E+02 -0.70650616770E+02 -0.60524375191E+03  0.63809175515E+03  0.17200000000E+03 0.  1.
<mgrwt>
<rscale>  2 0.20209178E+03</rscale>
<asrwt>0</asrwt>
<pdfrwt beam="1">  1       21 0.90530195E-02 0.20209178E+03</pdfrwt>
<pdfrwt beam="2">  1       21 0.28441220E+00 0.20209178E+03</pdfrwt>
<totfact> 0.40149071E+03</totfact>
</mgrwt>
</event>
<event>
 4    1  0.1101825E+000  0.1813717E+03  0.7546771E-02  0.1166482E+00
         21   -1    0    0  501  502  0.00000000000E+00  0.00000000000E+00  0.14382820748E+03  0.14382820748E+03  0.00000000000E+00 0.  1.
         21   -1    0    0  502  503 -0.00000000000E+00 -0.00000000000E+00 -0.40442242813E+03  0.40442242813E+03  0.00000000000E+00 0.  1.
          6    1    1    2  501    0  0.42569076862E+02  0.38724336961E+02  0.50389644166E+02  0.18824137913E+03  0.17200000000E+03 0.  1.
         -6    1    1    2    0  503 -0.42569076862E+02 -0.38724336961E+02 -0.31098386481E+03  0.36000925648E+03  0.17200000000E+03 0.  1.
<mgrwt>
<rscale>  2 0.18137172E+03</rscale>
<asrwt>0</asrwt>
<pdfrwt beam="1">  1       21 0.35957052E-01 0.18137172E+03</pdfrwt>
<pdfrwt beam="2">  1       21 0.10110561E+00 0.18137172E+03</pdfrwt>
<totfact> 0.60176203E+03</totfact>
</mgrwt>
</event>
<event>
 4    1  0.1101825E+000  0.1856510E+03  0.7546771E-02  0.1162443E+00
         21   -1    0    0  503  502  0.00000000000E+00  0.00000000000E+00  0.19132202808E+03  0.19132202808E+03  0.00000000000E+00 0.  1.
         21   -1    0    0  501  503 -0.00000000000E+00 -0.00000000000E+00 -0.24195994662E+03  0.24195994662E+03  0.00000000000E+00 0. -1.
          6    1    1    2  501    0 -0.68614771516E+02 -0.13202774642E+02 -0.13481659456E+03  0.22943804022E+03  0.17200000000E+03 0. -1.
         -6    1    1    2    0  502  0.68614771516E+02  0.13202774642E+02  0.84178676027E+02  0.20384393448E+03  0.17200000000E+03 0.  1.
<mgrwt>
<rscale>  2 0.18565102E+03</rscale>
<asrwt>0</asrwt>
<pdfrwt beam="1">  1       21 0.47830507E-01 0.18565102E+03</pdfrwt>
<pdfrwt beam="2">  1       21 0.60489986E-01 0.18565102E+03</pdfrwt>
<totfact> 0.10690216E+04</totfact>
</mgrwt>
</event>
<event>
 4    1  0.1101825E+000  0.1746849E+03  0.7546771E-02  0.1173048E+00
         21   -1    0    0  503  502  0.00000000000E+00  0.00000000000E+00  0.15071678027E+03  0.15071678027E+03  0.00000000000E+00 0.  1.
         21   -1    0    0  501  503 -0.00000000000E+00 -0.00000000000E+00 -0.20487993084E+03  0.20487993084E+03  0.00000000000E+00 0.  1.
          6    1    1    2  501    0 -0.15134174191E+02  0.26491272495E+02 -0.46385941045E+02  0.18073872378E+03  0.17200000000E+03 0.  1.
         -6    1    1    2    0  502  0.15134174191E+02 -0.26491272495E+02 -0.77772095204E+01  0.17485798733E+03  0.17200000000E+03 0.  1.
<mgrwt>
<rscale>  2 0.17468495E+03</rscale>
<asrwt>0</asrwt>
<pdfrwt beam="1">  1       21 0.37679195E-01 0.17468495E+03</pdfrwt>
<pdfrwt beam="2">  1       21 0.51219982E-01 0.17468495E+03</pdfrwt>
<totfact> 0.24868049E+04</totfact>
</mgrwt>
</event>
<event>
 4    1  0.1101825E+000  0.1786608E+03  0.7546771E-02  0.1169105E+00
         21   -1    0    0  503  502  0.00000000000E+00  0.00000000000E+00  0.15671699207E+03  0.15671699207E+03  0.00000000000E+00 0.  1.
         21   -1    0    0  501  503 -0.00000000000E+00 -0.00000000000E+00 -0.21275405087E+03  0.21275405087E+03  0.00000000000E+00 0.  1.
          6    1    1    2  501    0 -0.42846887474E+02 -0.22357058977E+02 -0.66175746491E+02  0.19052276314E+03  0.17200000000E+03 0.  1.
         -6    1    1    2    0  502  0.42846887474E+02  0.22357058977E+02  0.10138687691E+02  0.17894827979E+03  0.17200000000E+03 0.  1.
<mgrwt>
<rscale>  2 0.17866083E+03</rscale>
<asrwt>0</asrwt>
<pdfrwt beam="1">  1       21 0.39179248E-01 0.17866083E+03</pdfrwt>
<pdfrwt beam="2">  1       21 0.53188512E-01 0.17866083E+03</pdfrwt>
<totfact> 0.21199816E+04</totfact>
</mgrwt>
</event>
<event>
 4    1  0.1101825E+000  0.1840899E+03  0.7546771E-02  0.1163903E+00
         21   -1    0    0  501  502  0.00000000000E+00  0.00000000000E+00  0.59382821701E+02  0.59382821701E+02  0.00000000000E+00 0.  1.
         21   -1    0    0  502  503 -0.00000000000E+00 -0.00000000000E+00 -0.57253444228E+03  0.57253444228E+03  0.00000000000E+00 0.  1.
          6    1    1    2  501    0 -0.31357820265E+02 -0.57634769940E+02 -0.27451760565E+03  0.33052835795E+03  0.17200000000E+03 0.  1.
         -6    1    1    2    0  503  0.31357820265E+02  0.57634769940E+02 -0.23863401494E+03  0.30138890604E+03  0.17200000000E+03 0.  1.
<mgrwt>
<rscale>  2 0.18408987E+03</rscale>
<asrwt>0</asrwt>
<pdfrwt beam="1">  1       21 0.14845706E-01 0.18408987E+03</pdfrwt>
<pdfrwt beam="2">  1       21 0.14313361E+00 0.18408987E+03</pdfrwt>
<totfact> 0.13588739E+04</totfact>
</mgrwt>
</event>
<event>
 4    1  0.1101825E+000  0.1961375E+03  0.7546771E-02  0.1153039E+00
         21   -1    0    0  501  502  0.00000000000E+00  0.00000000000E+00  0.38294085690E+03  0.38294085690E+03  0.00000000000E+00 0. -1.
         21   -1    0    0  502  503 -0.00000000000E+00 -0.00000000000E+00 -0.11968205897E+03  0.11968205897E+03  0.00000000000E+00 0. -1.
          6    1    1    2  501    0 -0.94106712080E+02 -0.54639433131E+01  0.23234734889E+03  0.30406449722E+03  0.17200000000E+03 0. -1.
         -6    1    1    2    0  503  0.94106712080E+02  0.54639433131E+01  0.30911449035E+02  0.19855841865E+03  0.17200000000E+03 0. -1.
<mgrwt>
<rscale>  2 0.19613752E+03</rscale>
<asrwt>0</asrwt>
<pdfrwt beam="1">  1       21 0.95735211E-01 0.19613752E+03</pdfrwt>
<pdfrwt beam="2">  1       21 0.29920516E-01 0.19613752E+03</pdfrwt>
<totfact> 0.97210664E+03</totfact>
</mgrwt>
</event>
<event>
 4    1  0.1101825E+000  0.2016397E+03  0.7546771E-02  0.1148363E+00
         21   -1    0    0  501  502  0.00000000000E+00  0.00000000000E+00  0.15856354777E+03  0.15856354777E+03  0.00000000000E+00 0.  1.
         21   -1    0    0  502  503 -0.00000000000E+00 -0.00000000000E+00 -0.34441315266E+03  0.34441315266E+03  0.00000000000E+00 0. -1.
          6    1    1    2  501    0 -0.26028711152E+02 -0.10196604877E+03 -0.22004280314E+03  0.29845837921E+03  0.17200000000E+03 0. -1.
         -6    1    1    2    0  503  0.26028711152E+02  0.10196604877E+03  0.34193198252E+02  0.20451832122E+03  0.17200000000E+03 0.  1.
<mgrwt>
<rscale>  2 0.20163970E+03</rscale>
<asrwt>0</asrwt>
<pdfrwt beam="1">  1       21 0.39640887E-01 0.20163970E+03</pdfrwt>
<pdfrwt beam="2">  1       21 0.86103287E-01 0.20163970E+03</pdfrwt>
<totfact> 0.70890985E+03</totfact>
</mgrwt>
</event>
<event>
 4    1  0.1101825E+000  0.3179434E+03  0.7546771E-02  0.1076600E+00
         21   -1    0    0  501  502  0.00000000000E+00  0.00000000000E+00  0.71143828178E+03  0.71143828178E+03  0.00000000000E+00 0.  1.
         21   -1    0    0  502  503 -0.00000000000E+00 -0.00000000000E+00 -0.14224181299E+03  0.14224181299E+03  0.00000000000E+00 0. -1.
          6    1    1    2  501    0  0.16624509333E+03  0.20944355409E+03  0.29855780426E+03  0.43614767669E+03  0.17200000000E+03 0.  1.
         -6    1    1    2    0  503 -0.16624509333E+03 -0.20944355409E+03  0.27063866453E+03  0.41753241808E+03  0.17200000000E+03 0. -1.
<mgrwt>
<rscale>  2 0.31794344E+03</rscale>
<asrwt>0</asrwt>
<pdfrwt beam="1">  1       21 0.17785956E+00 0.31794344E+03</pdfrwt>
<pdfrwt beam="2">  1       21 0.35560455E-01 0.31794344E+03</pdfrwt>
<totfact> 0.12953501E+03</totfact>
</mgrwt>
</event>
<event>
 4    1  0.1101825E+000  0.1898053E+03  0.7546771E-02  0.1158637E+00
         21   -1    0    0  501  502  0.00000000000E+00  0.00000000000E+00  0.78740986101E+03  0.78740986101E+03  0.00000000000E+00 0. -1.
         21   -1    0    0  502  503 -0.00000000000E+00 -0.00000000000E+00 -0.45980531640E+02  0.45980531640E+02  0.00000000000E+00 0. -1.
          6    1    1    2  501    0 -0.57952166904E+02 -0.55530048478E+02  0.34137574895E+03  0.39059370438E+03  0.17200000000E+03 0. -1.
         -6    1    1    2    0  503  0.57952166904E+02  0.55530048478E+02  0.40005358041E+03  0.44279668826E+03  0.17200000000E+03 0. -1.
<mgrwt>
<rscale>  2 0.18980527E+03</rscale>
<asrwt>0</asrwt>
<pdfrwt beam="1">  1       21 0.19685242E+00 0.18980527E+03</pdfrwt>
<pdfrwt beam="2">  1       21 0.11495135E-01 0.18980527E+03</pdfrwt>
<totfact> 0.89366971E+03</totfact>
</mgrwt>
</event>
<event>
 4    1  0.1101825E+000  0.1812077E+03  0.7546771E-02  0.1166639E+00
         21   -1    0    0  503  502  0.00000000000E+00  0.00000000000E+00  0.40451860516E+03  0.40451860516E+03  0.00000000000E+00 0. -1.
         21   -1    0    0  501  503 -0.00000000000E+00 -0.00000000000E+00 -0.10510650938E+03  0.10510650938E+03  0.00000000000E+00 0. -1.
          6    1    1    2  501    0  0.45423197707E+02  0.34481231117E+02  0.28114335240E+02  0.18337567460E+03  0.17200000000E+03 0. -1.
         -6    1    1    2    0  502 -0.45423197707E+02 -0.34481231117E+02  0.27129776054E+03  0.32624943995E+03  0.17200000000E+03 0. -1.
<mgrwt>
<rscale>  2 0.18120768E+03</rscale>
<asrwt>0</asrwt>
<pdfrwt beam="1">  1       21 0.10112965E+00 0.18120768E+03</pdfrwt>
<pdfrwt beam="2">  1       21 0.26276628E-01 0.18120768E+03</pdfrwt>
<totfact> 0.11094200E+04</totfact>
</mgrwt>
</event>
<event>
 4    1  0.1101825E+000  0.2025280E+03  0.7546771E-02  0.1147624E+00
         21   -1    0    0  501  502  0.00000000000E+00  0.00000000000E+00  0.58252194542E+02  0.58252194542E+02  0.00000000000E+00 0. -1.
         21   -1    0    0  502  503 -0.00000000000E+00 -0.00000000000E+00 -0.70429089590E+03  0.70429089590E+03  0.00000000000E+00 0. -1.
          6    1    1    2  501    0 -0.69941716979E+02  0.80880998572E+02 -0.31740040102E+03  0.37651108120E+03  0.17200000000E+03 0. -1.
         -6    1    1    2    0  503  0.69941716979E+02 -0.80880998572E+02 -0.32863830034E+03  0.38603200923E+03  0.17200000000E+03 0. -1.
<mgrwt>
<rscale>  2 0.20252797E+03</rscale>
<asrwt>0</asrwt>
<pdfrwt beam="1">  1       21 0.14563049E-01 0.20252797E+03</pdfrwt>
<pdfrwt beam="2">  1       21 0.17607272E+00 0.20252797E+03</pdfrwt>
<totfact> 0.79489668E+03</totfact>
</mgrwt>
</event>
<event>
 4    1  0.1101825E+000  0.2072139E+03  0.7546771E-02  0.1143791E+00
         21   -1    0    0  503  502  0.00000000000E+00  0.00000000000E+00  0.28836544838E+03  0.28836544838E+03  0.00000000000E+00 0.  1.
         21   -1    0    0  501  503 -0.00000000000E+00 -0.00000000000E+00 -0.17103681885E+03  0.17103681885E+03  0.00000000000E+00 0. -1.
          6    1    1    2  501    0  0.11108582106E+03 -0.31836229299E+02 -0.23973016513E+02  0.20859604660E+03  0.17200000000E+03 0. -1.
         -6    1    1    2    0  502 -0.11108582106E+03  0.31836229299E+02  0.14130164604E+03  0.25080622063E+03  0.17200000000E+03 0.  1.
<mgrwt>
<rscale>  2 0.20721391E+03</rscale>
<asrwt>0</asrwt>
<pdfrwt beam="1">  1       21 0.72091361E-01 0.20721391E+03</pdfrwt>
<pdfrwt beam="2">  1       21 0.42759205E-01 0.20721391E+03</pdfrwt>
<totfact> 0.90410513E+03</totfact>
</mgrwt>
</event>
<event>
 4    1  0.1101825E+000  0.1767401E+03  0.7546771E-02  0.1170996E+00
         21   -1    0    0  503  502  0.00000000000E+00  0.00000000000E+00  0.50142971640E+02  0.50142971640E+02  0.00000000000E+00 0.  1.
         21   -1    0    0  501  503 -0.00000000000E+00 -0.00000000000E+00 -0.83392959092E+03  0.83392959092E+03  0.00000000000E+00 0.  1.
          6    1    1    2  501    0 -0.13133251258E+02  0.38478358181E+02 -0.61422590616E+03  0.63914828494E+03  0.17200000000E+03 0.  1.
         -6    1    1    2    0  502  0.13133251258E+02 -0.38478358181E+02 -0.16956071312E+03  0.24492427763E+03  0.17200000000E+03 0.  1.
<mgrwt>
<rscale>  2 0.17674011E+03</rscale>
<asrwt>0</asrwt>
<pdfrwt beam="1">  1       21 0.12535743E-01 0.17674011E+03</pdfrwt>
<pdfrwt beam="2">  1       21 0.20848240E+00 0.17674011E+03</pdfrwt>
<totfact> 0.65333814E+03</totfact>
</mgrwt>
</event>
<event>
 4    1  0.1101825E+000  0.1976514E+03  0.7546771E-02  0.1151736E+00
         21   -1    0    0  503  502  0.00000000000E+00  0.00000000000E+00  0.12547304836E+03  0.12547304836E+03  0.00000000000E+00 0.  1.
         21   -1    0    0  501  503 -0.00000000000E+00 -0.00000000000E+00 -0.50531985669E+03  0.50531985669E+03  0.00000000000E+00 0. -1.
          6    1    1    2  501    0 -0.95804437321E+02 -0.17423281692E+02 -0.38533057661E+03  0.43306548492E+03  0.17200000000E+03 0. -1.
         -6    1    1    2    0  502  0.95804437321E+02  0.17423281692E+02  0.54837682805E+01  0.19772742013E+03  0.17200000000E+03 0.  1.
<mgrwt>
<rscale>  2 0.19765136E+03</rscale>
<asrwt>0</asrwt>
<pdfrwt beam="1">  1       21 0.31368262E-01 0.19765136E+03</pdfrwt>
<pdfrwt beam="2">  1       21 0.12632996E+00 0.19765136E+03</pdfrwt>
<totfact> 0.45184168E+03</totfact>
</mgrwt>
</event>
<event>
 4    1  0.1101825E+000  0.1759975E+03  0.7546771E-02  0.1171734E+00
         21   -1    0    0  501  502  0.00000000000E+00  0.00000000000E+00  0.22593590814E+03  0.22593590814E+03  0.00000000000E+00 0. -1.
         21   -1    0    0  502  503 -0.00000000000E+00 -0.00000000000E+00 -0.33397261087E+03  0.33397261087E+03  0.00000000000E+00 0. -1.
          6    1    1    2  501    0 -0.20380241257E+02  0.31237039338E+02  0.16092684877E+03  0.23847967946E+03  0.17200000000E+03 0. -1.
         -6    1    1    2    0  503  0.20380241257E+02 -0.31237039338E+02 -0.26896355150E+03  0.32142883955E+03  0.17200000000E+03 0. -1.
<mgrwt>
<rscale>  2 0.17599746E+03</rscale>
<asrwt>0</asrwt>
<pdfrwt beam="1">  1       21 0.56483977E-01 0.17599746E+03</pdfrwt>
<pdfrwt beam="2">  1       21 0.83493153E-01 0.17599746E+03</pdfrwt>
<totfact> 0.37319271E+03</totfact>
</mgrwt>
</event>
<event>
 4    1  0.1101825E+000  0.1845120E+03  0.7546771E-02  0.1163506E+00
         21   -1    0    0  501  502  0.00000000000E+00  0.00000000000E+00  0.18630626430E+03  0.18630626430E+03  0.00000000000E+00 0. -1.
         21   -1    0    0  502  503 -0.00000000000E+00 -0.00000000000E+00 -0.22590900745E+03  0.22590900745E+03  0.00000000000E+00 0.  1.
          6    1    1    2  501    0  0.13666748214E+02  0.65375186474E+02  0.70301359393E+02  0.19745119940E+03  0.17200000000E+03 0. -1.
         -6    1    1    2    0  503 -0.13666748214E+02 -0.65375186474E+02 -0.10990410255E+03  0.21476407234E+03  0.17200000000E+03 0. -1.
<mgrwt>
<rscale>  2 0.18451205E+03</rscale>
<asrwt>0</asrwt>
<pdfrwt beam="1">  1       21 0.46576566E-01 0.18451205E+03</pdfrwt>
<pdfrwt beam="2">  1       21 0.56477252E-01 0.18451205E+03</pdfrwt>
<totfact> 0.13085951E+04</totfact>
</mgrwt>
</event>
<event>
 4    1  0.1101825E+000  0.2250542E+03  0.7546771E-02  0.1130170E+00
         21   -1    0    0  501  502  0.00000000000E+00  0.00000000000E+00  0.13242955221E+03  0.13242955221E+03  0.00000000000E+00 0.  1.
         21   -1    0    0  502  503 -0.00000000000E+00 -0.00000000000E+00 -0.42418534229E+03  0.42418534229E+03  0.00000000000E+00 0.  1.
          6    1    1    2  501    0 -0.13085767046E+03 -0.62782524528E+02 -0.58594333122E+02  0.23255681280E+03  0.17200000000E+03 0.  1.
         -6    1    1    2    0  503  0.13085767046E+03  0.62782524528E+02 -0.23316145696E+03  0.32405808170E+03  0.17200000000E+03 0.  1.
<mgrwt>
<rscale>  2 0.22505416E+03</rscale>
<asrwt>0</asrwt>
<pdfrwt beam="1">  1       21 0.33107388E-01 0.22505416E+03</pdfrwt>
<pdfrwt beam="2">  1       21 0.10604633E+00 0.22505416E+03</pdfrwt>
<totfact> 0.61189431E+03</totfact>
</mgrwt>
</event>
<event>
 4    1  0.1101825E+000  0.1822237E+03  0.7546771E-02  0.1165668E+00
         21   -1    0    0  503  502  0.00000000000E+00  0.00000000000E+00  0.44768311903E+03  0.44768311903E+03  0.00000000000E+00 0.  1.
         21   -1    0    0  501  503 -0.00000000000E+00 -0.00000000000E+00 -0.90498465617E+02  0.90498465617E+02  0.00000000000E+00 0.  1.
          6    1    1    2  501    0 -0.57838576704E+02 -0.16618288681E+02  0.64297438002E+02  0.19323464753E+03  0.17200000000E+03 0.  1.
         -6    1    1    2    0  502  0.57838576704E+02  0.16618288681E+02  0.29288721541E+03  0.34494693712E+03  0.17200000000E+03 0.  1.
<mgrwt>
<rscale>  2 0.18222368E+03</rscale>
<asrwt>0</asrwt>
<pdfrwt beam="1">  1       21 0.11192077E+00 0.18222368E+03</pdfrwt>
<pdfrwt beam="2">  1       21 0.22624618E-01 0.18222368E+03</pdfrwt>
<totfact> 0.11550767E+04</totfact>
</mgrwt>
</event>
<event>
 4    1  0.1101825E+000  0.1934163E+03  0.7546771E-02  0.1155416E+00
         21   -1    0    0  501  502  0.00000000000E+00  0.00000000000E+00  0.99453247440E+03  0.99453247440E+03  0.00000000000E+00 0. -1.
         21   -1    0    0  502  503 -0.00000000000E+00 -0.00000000000E+00 -0.47008206368E+02  0.47008206368E+02  0.00000000000E+00 0. -1.
          6    1    1    2  501    0  0.76441839473E+02 -0.44525506872E+02  0.70654652763E+03  0.73254206110E+03  0.17200000000E+03 0. -1.
         -6    1    1    2    0  503 -0.76441839473E+02  0.44525506872E+02  0.24097774041E+03  0.30899861967E+03  0.17200000000E+03 0. -1.
<mgrwt>
<rscale>  2 0.19341633E+03</rscale>
<asrwt>0</asrwt>
<pdfrwt beam="1">  1       21 0.24863305E+00 0.19341633E+03</pdfrwt>
<pdfrwt beam="2">  1       21 0.11752055E-01 0.19341633E+03</pdfrwt>
<totfact> 0.41228123E+03</totfact>
</mgrwt>
</event>
<event>
 4    1  0.1101825E+000  0.1900245E+03  0.7546771E-02  0.1158439E+00
         21   -1    0    0  501  502  0.00000000000E+00  0.00000000000E+00  0.62445356218E+02  0.62445356218E+02  0.00000000000E+00 0. -1.
         21   -1    0    0  502  503 -0.00000000000E+00 -0.00000000000E+00 -0.67199644411E+03  0.67199644411E+03  0.00000000000E+00 0. -1.
          6    1    1    2  501    0  0.11833565518E+02  0.79908007487E+02 -0.16762095710E+03  0.25338924246E+03  0.17200000000E+03 0.  1.
         -6    1    1    2    0  503 -0.11833565518E+02 -0.79908007487E+02 -0.44193013079E+03  0.48105255787E+03  0.17200000000E+03 0.  1.
<mgrwt>
<rscale>  2 0.19002453E+03</rscale>
<asrwt>0</asrwt>
<pdfrwt beam="1">  1       21 0.15611339E-01 0.19002453E+03</pdfrwt>
<pdfrwt beam="2">  1       21 0.16799911E+00 0.19002453E+03</pdfrwt>
<totfact> 0.80568866E+03</totfact>
</mgrwt>
</event>
<event>
 4    1  0.1101825E+000  0.1935903E+03  0.7546771E-02  0.1155262E+00
         21   -1    0    0  503  502  0.00000000000E+00  0.00000000000E+00  0.55963093991E+02  0.55963093991E+02  0.00000000000E+00 0.  1.
         21   -1    0    0  501  503 -0.00000000000E+00 -0.00000000000E+00 -0.66972057244E+03  0.66972057244E+03  0.00000000000E+00 0.  1.
          6    1    1    2  501    0  0.17646442893E+02 -0.87073540798E+02 -0.30395298694E+03  0.36036733582E+03  0.17200000000E+03 0.  1.
         -6    1    1    2    0  502 -0.17646442893E+02  0.87073540798E+02 -0.30980449151E+03  0.36531633061E+03  0.17200000000E+03 0.  1.
<mgrwt>
<rscale>  2 0.19359029E+03</rscale>
<asrwt>0</asrwt>
<pdfrwt beam="1">  1       21 0.13990774E-01 0.19359029E+03</pdfrwt>
<pdfrwt beam="2">  1       21 0.16743014E+00 0.19359029E+03</pdfrwt>
<totfact> 0.98977174E+03</totfact>
</mgrwt>
</event>
<event>
 4    1  0.1101825E+000  0.2077951E+03  0.7546771E-02  0.1143324E+00
         21   -1    0    0  501  502  0.00000000000E+00  0.00000000000E+00  0.61716871185E+03  0.61716871185E+03  0.00000000000E+00 0. -1.
         21   -1    0    0  502  503 -0.00000000000E+00 -0.00000000000E+00 -0.13390497336E+03  0.13390497336E+03  0.00000000000E+00 0. -1.
          6    1    1    2  501    0 -0.66841180978E+01 -0.11640507128E+03  0.50113827092E+03  0.54251118388E+03  0.17200000000E+03 0. -1.
         -6    1    1    2    0  503  0.66841180978E+01  0.11640507128E+03 -0.17874532431E+02  0.20856250134E+03  0.17200000000E+03 0. -1.
<mgrwt>
<rscale>  2 0.20779513E+03</rscale>
<asrwt>0</asrwt>
<pdfrwt beam="1">  1       21 0.15429217E+00 0.20779513E+03</pdfrwt>
<pdfrwt beam="2">  1       21 0.33476245E-01 0.20779513E+03</pdfrwt>
<totfact> 0.23510487E+03</totfact>
</mgrwt>
</event>
<event>
 4    1  0.1101825E+000  0.1724105E+03  0.7546771E-02  0.1175357E+00
         21   -1    0    0  501  502  0.00000000000E+00  0.00000000000E+00  0.89528173628E+03  0.89528173628E+03  0.00000000000E+00 0.  1.
         21   -1    0    0  502  503 -0.00000000000E+00 -0.00000000000E+00 -0.33748262742E+02  0.33748262742E+02  0.00000000000E+00 0.  1.
          6    1    1    2  501    0 -0.11555865086E+02  0.27992009518E+01  0.37168231765E+03  0.40972322219E+03  0.17200000000E+03 0.  1.
         -6    1    1    2    0  503  0.11555865086E+02 -0.27992009518E+01  0.48985115589E+03  0.51930677684E+03  0.17200000000E+03 0.  1.
<mgrwt>
<rscale>  2 0.17241048E+03</rscale>
<asrwt>0</asrwt>
<pdfrwt beam="1">  1       21 0.22382036E+00 0.17241048E+03</pdfrwt>
<pdfrwt beam="2">  1       21 0.84370686E-02 0.17241048E+03</pdfrwt>
<totfact> 0.10623006E+04</totfact>
</mgrwt>
</event>
<event>
 4    1  0.1101825E+000  0.2020892E+03  0.7546771E-02  0.1147988E+00
         21   -1    0    0  503  502  0.00000000000E+00  0.00000000000E+00  0.47471916799E+03  0.47471916799E+03  0.00000000000E+00 0.  1.
         21   -1    0    0  501  503 -0.00000000000E+00 -0.00000000000E+00 -0.24964734378E+03  0.24964734378E+03  0.00000000000E+00 0.  1.
          6    1    1    2  501    0 -0.21116152549E+02 -0.10397190778E+03 -0.18067469419E+03  0.27107820759E+03  0.17200000000E+03 0.  1.
         -6    1    1    2    0  502  0.21116152549E+02  0.10397190778E+03  0.40574651841E+03  0.45328830418E+03  0.17200000000E+03 0.  1.
<mgrwt>
<rscale>  2 0.20208921E+03</rscale>
<asrwt>0</asrwt>
<pdfrwt beam="1">  1       21 0.11867979E+00 0.20208921E+03</pdfrwt>
<pdfrwt beam="2">  1       21 0.62411837E-01 0.20208921E+03</pdfrwt>
<totfact> 0.12801133E+03</totfact>
</mgrwt>
</event>
<event>
 4    1  0.1101825E+000  0.1974004E+03  0.7546771E-02  0.1151951E+00
         21   -1    0    0  503  502  0.00000000000E+00  0.00000000000E+00  0.20456918003E+03  0.20456918003E+03  0.00000000000E+00 0.  1.
         21   -1    0    0  501  503 -0.00000000000E+00 -0.00000000000E+00 -0.22865752263E+03  0.22865752263E+03  0.00000000000E+00 0.  1.
          6    1    1    2  501    0 -0.33253810395E+02  0.90978618281E+02 -0.10055165860E+03  0.22153455924E+03  0.17200000000E+03 0.  1.
         -6    1    1    2    0  502  0.33253810395E+02 -0.90978618281E+02  0.76463316005E+02  0.21169214342E+03  0.17200000000E+03 0.  1.
<mgrwt>
<rscale>  2 0.19740042E+03</rscale>
<asrwt>0</asrwt>
<pdfrwt beam="1">  1       21 0.51142295E-01 0.19740042E+03</pdfrwt>
<pdfrwt beam="2">  1       21 0.57164380E-01 0.19740042E+03</pdfrwt>
<totfact> 0.10412222E+04</totfact>
</mgrwt>
</event>
<event>
 4    1  0.1101825E+000  0.1926714E+03  0.7546771E-02  0.1156074E+00
         21   -1    0    0  503  502  0.00000000000E+00  0.00000000000E+00  0.45896396938E+02  0.45896396938E+02  0.00000000000E+00 0.  1.
         21   -1    0    0  501  503 -0.00000000000E+00 -0.00000000000E+00 -0.99211420416E+03  0.99211420416E+03  0.00000000000E+00 0.  1.
          6    1    1    2  501    0 -0.83789402416E+02 -0.22750850032E+02 -0.25003102067E+03  0.31565452069E+03  0.17200000000E+03 0. -1.
         -6    1    1    2    0  502  0.83789402416E+02  0.22750850032E+02 -0.69618678655E+03  0.72235608041E+03  0.17200000000E+03 0. -1.
<mgrwt>
<rscale>  2 0.19267139E+03</rscale>
<asrwt>0</asrwt>
<pdfrwt beam="1">  1       21 0.11474099E-01 0.19267139E+03</pdfrwt>
<pdfrwt beam="2">  1       21 0.24802856E+00 0.19267139E+03</pdfrwt>
<totfact> 0.43416319E+03</totfact>
</mgrwt>
</event>
<event>
 4    1  0.1101825E+000  0.1861547E+03  0.7546771E-02  0.1161976E+00
         21   -1    0    0  503  502  0.00000000000E+00  0.00000000000E+00  0.11329552016E+04  0.11329552016E+04  0.00000000000E+00 0. -1.
         21   -1    0    0  501  503 -0.00000000000E+00 -0.00000000000E+00 -0.32631728846E+02  0.32631728846E+02  0.00000000000E+00 0. -1.
          6    1    1    2  501    0  0.16054719565E+02  0.69367250555E+02  0.40427198000E+03  0.44507235735E+03  0.17200000000E+03 0. -1.
         -6    1    1    2    0  502 -0.16054719565E+02 -0.69367250555E+02  0.69605149279E+03  0.72051457312E+03  0.17200000000E+03 0. -1.
<mgrwt>
<rscale>  2 0.18615469E+03</rscale>
<asrwt>0</asrwt>
<pdfrwt beam="1">  1       21 0.28323867E+00 0.18615469E+03</pdfrwt>
<pdfrwt beam="2">  1       21 0.81579360E-02 0.18615469E+03</pdfrwt>
<totfact> 0.49811114E+03</totfact>
</mgrwt>
</event>
<event>
 4    1  0.1101825E+000  0.2042592E+03  0.7546771E-02  0.1146194E+00
         21   -1    0    0  503  502  0.00000000000E+00  0.00000000000E+00  0.48595544148E+03  0.48595544148E+03  0.00000000000E+00 0. -1.
         21   -1    0    0  501  503 -0.00000000000E+00 -0.00000000000E+00 -0.30999807347E+03  0.30999807347E+03  0.00000000000E+00 0. -1.
          6    1    1    2  501    0 -0.22723543766E+02  0.10780289942E+03 -0.25042932570E+03  0.32316663153E+03  0.17200000000E+03 0. -1.
         -6    1    1    2    0  502  0.22723543766E+02 -0.10780289942E+03  0.42638669371E+03  0.47278688342E+03  0.17200000000E+03 0. -1.
<mgrwt>
<rscale>  2 0.20425921E+03</rscale>
<asrwt>0</asrwt>
<pdfrwt beam="1">  1       21 0.12148886E+00 0.20425921E+03</pdfrwt>
<pdfrwt beam="2">  1       21 0.77499519E-01 0.20425921E+03</pdfrwt>
<totfact> 0.74754306E+02</totfact>
</mgrwt>
</event>
<event>
 4    1  0.1101825E+000  0.2898465E+03  0.7546771E-02  0.1090429E+00
         21   -1    0    0  503  502  0.00000000000E+00  0.00000000000E+00  0.32432377101E+03  0.32432377101E+03  0.00000000000E+00 0. -1.
         21   -1    0    0  501  503 -0.00000000000E+00 -0.00000000000E+00 -0.31523032839E+03  0.31523032839E+03  0.00000000000E+00 0.  1.
          6    1    1    2  501    0 -0.16677631444E+03 -0.16313388084E+03  0.13956291299E+03  0.32169676532E+03  0.17200000000E+03 0. -1.
         -6    1    1    2    0  502  0.16677631444E+03  0.16313388084E+03 -0.13046947037E+03  0.31785733409E+03  0.17200000000E+03 0.  1.
<mgrwt>
<rscale>  2 0.28984651E+03</rscale>
<asrwt>0</asrwt>
<pdfrwt beam="1">  1       21 0.81080943E-01 0.28984651E+03</pdfrwt>
<pdfrwt beam="2">  1       21 0.78807582E-01 0.28984651E+03</pdfrwt>
<totfact> 0.17632909E+03</totfact>
</mgrwt>
</event>
<event>
 4    1  0.1101825E+000  0.1748835E+03  0.7546771E-02  0.1172849E+00
         21   -1    0    0  503  502  0.00000000000E+00  0.00000000000E+00  0.25208477999E+03  0.25208477999E+03  0.00000000000E+00 0.  1.
         21   -1    0    0  501  503 -0.00000000000E+00 -0.00000000000E+00 -0.12667898382E+03  0.12667898382E+03  0.00000000000E+00 0. -1.
          6    1    1    2  501    0 -0.15879288923E+01  0.31586532470E+02  0.23769932096E+02  0.17649147352E+03  0.17200000000E+03 0. -1.
         -6    1    1    2    0  502  0.15879288923E+01 -0.31586532470E+02  0.10163586407E+03  0.20227229029E+03  0.17200000000E+03 0.  1.
<mgrwt>
<rscale>  2 0.17488348E+03</rscale>
<asrwt>0</asrwt>
<pdfrwt beam="1">  1       21 0.63021194E-01 0.17488348E+03</pdfrwt>
<pdfrwt beam="2">  1       21 0.31669746E-01 0.17488348E+03</pdfrwt>
<totfact> 0.22576567E+04</totfact>
</mgrwt>
</event>
<event>
 4    1  0.1101825E+000  0.2360662E+03  0.7546771E-02  0.1122442E+00
         21   -1    0    0  501  502  0.00000000000E+00  0.00000000000E+00  0.97955882173E+02  0.97955882173E+02  0.00000000000E+00 0.  1.
         21   -1    0    0  502  503 -0.00000000000E+00 -0.00000000000E+00 -0.57217387535E+03  0.57217387535E+03  0.00000000000E+00 0.  1.
          6    1    1    2  501    0  0.14841316504E+03  0.64162049725E+02 -0.21176911027E+03  0.31713308286E+03  0.17200000000E+03 0.  1.
         -6    1    1    2    0  503 -0.14841316504E+03 -0.64162049725E+02 -0.26244888290E+03  0.35299667466E+03  0.17200000000E+03 0.  1.
<mgrwt>
<rscale>  2 0.23606617E+03</rscale>
<asrwt>0</asrwt>
<pdfrwt beam="1">  1       21 0.24488971E-01 0.23606617E+03</pdfrwt>
<pdfrwt beam="2">  1       21 0.14304347E+00 0.23606617E+03</pdfrwt>
<totfact> 0.51564731E+03</totfact>
</mgrwt>
</event>
<event>
 4    1  0.1101825E+000  0.1922214E+03  0.7546771E-02  0.1156473E+00
         21   -1    0    0  501  502  0.00000000000E+00  0.00000000000E+00  0.37793731472E+03  0.37793731472E+03  0.00000000000E+00 0. -1.
         21   -1    0    0  502  503 -0.00000000000E+00 -0.00000000000E+00 -0.10099696804E+03  0.10099696804E+03  0.00000000000E+00 0.  1.
          6    1    1    2  501    0 -0.75927682522E+02  0.40000599914E+02  0.18130744898E+03  0.26423749171E+03  0.17200000000E+03 0. -1.
         -6    1    1    2    0  503  0.75927682522E+02 -0.40000599914E+02  0.95632897691E+02  0.21469679105E+03  0.17200000000E+03 0.  1.
<mgrwt>
<rscale>  2 0.19222139E+03</rscale>
<asrwt>0</asrwt>
<pdfrwt beam="1">  1       21 0.94484325E-01 0.19222139E+03</pdfrwt>
<pdfrwt beam="2">  1       21 0.25249243E-01 0.19222139E+03</pdfrwt>
<totfact> 0.13948934E+04</totfact>
</mgrwt>
</event>
<event>
 4    1  0.1101825E+000  0.2001815E+03  0.7546771E-02  0.1149586E+00
         21   -1    0    0  501  502  0.00000000000E+00  0.00000000000E+00  0.80874656933E+02  0.80874656933E+02  0.00000000000E+00 0. -1.
         21   -1    0    0  502  503 -0.00000000000E+00 -0.00000000000E+00 -0.67500801756E+03  0.67500801756E+03  0.00000000000E+00 0. -1.
          6    1    1    2  501    0 -0.96257155885E+02 -0.34974152185E+02 -0.10216156411E+03  0.22474344609E+03  0.17200000000E+03 0. -1.
         -6    1    1    2    0  503  0.96257155885E+02  0.34974152185E+02 -0.49197179651E+03  0.53113922840E+03  0.17200000000E+03 0. -1.
<mgrwt>
<rscale>  2 0.20018150E+03</rscale>
<asrwt>0</asrwt>
<pdfrwt beam="1">  1       21 0.20218665E-01 0.20018150E+03</pdfrwt>
<pdfrwt beam="2">  1       21 0.16875200E+00 0.20018150E+03</pdfrwt>
<totfact> 0.48929329E+03</totfact>
</mgrwt>
</event>
<event>
 4    1  0.1101825E+000  0.2098260E+03  0.7546771E-02  0.1141704E+00
         21   -1    0    0  501  502  0.00000000000E+00  0.00000000000E+00  0.88350216048E+02  0.88350216048E+02  0.00000000000E+00 0.  1.
         21   -1    0    0  502  503 -0.00000000000E+00 -0.00000000000E+00 -0.57514087039E+03  0.57514087039E+03  0.00000000000E+00 0. -1.
          6    1    1    2  501    0 -0.12016587981E+03  0.17687575464E+01 -0.36463601591E+03  0.42069750566E+03  0.17200000000E+03 0. -1.
         -6    1    1    2    0  503  0.12016587981E+03 -0.17687575464E+01 -0.12215463843E+03  0.24279358077E+03  0.17200000000E+03 0.  1.
<mgrwt>
<rscale>  2 0.20982604E+03</rscale>
<asrwt>0</asrwt>
<pdfrwt beam="1">  1       21 0.22087554E-01 0.20982604E+03</pdfrwt>
<pdfrwt beam="2">  1       21 0.14378522E+00 0.20982604E+03</pdfrwt>
<totfact> 0.63109282E+03</totfact>
</mgrwt>
</event>
<event>
 4    1  0.1101825E+000  0.1899972E+03  0.7546771E-02  0.1158464E+00
         21   -1    0    0  501  502  0.00000000000E+00  0.00000000000E+00  0.23714489108E+03  0.23714489108E+03  0.00000000000E+00 0. -1.
         21   -1    0    0  502  503 -0.00000000000E+00 -0.00000000000E+00 -0.16713261060E+03  0.16713261060E+03  0.00000000000E+00 0. -1.
          6    1    1    2  501    0  0.30014011144E+02  0.74927355655E+02 -0.25367797840E+02  0.19168326650E+03  0.17200000000E+03 0. -1.
         -6    1    1    2    0  503 -0.30014011144E+02 -0.74927355655E+02  0.95380078314E+02  0.21259423518E+03  0.17200000000E+03 0. -1.
<mgrwt>
<rscale>  2 0.18999724E+03</rscale>
<asrwt>0</asrwt>
<pdfrwt beam="1">  1       21 0.59286222E-01 0.18999724E+03</pdfrwt>
<pdfrwt beam="2">  1       21 0.41783153E-01 0.18999724E+03</pdfrwt>
<totfact> 0.14684380E+04</totfact>
</mgrwt>
</event>
<event>
 4    1  0.1101825E+000  0.1823720E+03  0.7546771E-02  0.1165527E+00
         21   -1    0    0  503  502  0.00000000000E+00  0.00000000000E+00  0.97459074062E+02  0.97459074062E+02  0.00000000000E+00 0.  1.
         21   -1    0    0  501  503 -0.00000000000E+00 -0.00000000000E+00 -0.52820562195E+03  0.52820562195E+03  0.00000000000E+00 0.  1.
          6    1    1    2  501    0 -0.60098461256E+02 -0.79823377092E+01 -0.40147908676E+03  0.44095918164E+03  0.17200000000E+03 0.  1.
         -6    1    1    2    0  502  0.60098461256E+02  0.79823377092E+01 -0.29267461125E+02  0.18470551438E+03  0.17200000000E+03 0.  1.
<mgrwt>
<rscale>  2 0.18237199E+03</rscale>
<asrwt>0</asrwt>
<pdfrwt beam="1">  1       21 0.24364769E-01 0.18237199E+03</pdfrwt>
<pdfrwt beam="2">  1       21 0.13205140E+00 0.18237199E+03</pdfrwt>
<totfact> 0.66638722E+03</totfact>
</mgrwt>
</event>
<event>
 4    1  0.1101825E+000  0.2741613E+03  0.7546771E-02  0.1098921E+00
         21   -1    0    0  503  502  0.00000000000E+00  0.00000000000E+00  0.10434135060E+03  0.10434135060E+03  0.00000000000E+00 0.  1.
         21   -1    0    0  501  503 -0.00000000000E+00 -0.00000000000E+00 -0.10651883472E+04  0.10651883472E+04  0.00000000000E+00 0. -1.
          6    1    1    2  501    0  0.94565687757E+02 -0.19140984463E+03 -0.14771559121E+03  0.31142301426E+03  0.17200000000E+03 0.  1.
         -6    1    1    2    0  502 -0.94565687757E+02  0.19140984463E+03 -0.81313140542E+03  0.85810668357E+03  0.17200000000E+03 0. -1.
<mgrwt>
<rscale>  2 0.27416126E+03</rscale>
<asrwt>0</asrwt>
<pdfrwt beam="1">  1       21 0.26085338E-01 0.27416126E+03</pdfrwt>
<pdfrwt beam="2">  1       21 0.26629709E+00 0.27416126E+03</pdfrwt>
<totfact> 0.68162308E+02</totfact>
</mgrwt>
</event>
<event>
 4    1  0.1101825E+000  0.1767271E+03  0.7546771E-02  0.1171009E+00
         21   -1    0    0  503  502  0.00000000000E+00  0.00000000000E+00  0.43621859859E+03  0.43621859859E+03  0.00000000000E+00 0.  1.
         21   -1    0    0  501  503 -0.00000000000E+00 -0.00000000000E+00 -0.10840905103E+03  0.10840905103E+03  0.00000000000E+00 0.  1.
          6    1    1    2  501    0 -0.40362449604E+02  0.43975902813E+01  0.52238017480E+01  0.17680428231E+03  0.17200000000E+03 0.  1.
         -6    1    1    2    0  502  0.40362449604E+02 -0.43975902813E+01  0.32258574581E+03  0.36782336731E+03  0.17200000000E+03 0.  1.
<mgrwt>
<rscale>  2 0.17672710E+03</rscale>
<asrwt>0</asrwt>
<pdfrwt beam="1">  1       21 0.10905465E+00 0.17672710E+03</pdfrwt>
<pdfrwt beam="2">  1       21 0.27102264E-01 0.17672710E+03</pdfrwt>
<totfact> 0.87553956E+03</totfact>
</mgrwt>
</event>
<event>
 4    1  0.1101825E+000  0.1945956E+03  0.7546771E-02  0.1154380E+00
         21   -1    0    0  501  502  0.00000000000E+00  0.00000000000E+00  0.11351647166E+04  0.11351647166E+04  0.00000000000E+00 0. -1.
         21   -1    0    0  502  503 -0.00000000000E+00 -0.00000000000E+00 -0.50527003540E+02  0.50527003540E+02  0.00000000000E+00 0. -1.
          6    1    1    2  501    0  0.14813236737E+02  0.89799931677E+02  0.19674133255E+03  0.27672118033E+03  0.17200000000E+03 0. -1.
         -6    1    1    2    0  503 -0.14813236737E+02 -0.89799931677E+02  0.88789638047E+03  0.90897053976E+03  0.17200000000E+03 0. -1.
<mgrwt>
<rscale>  2 0.19459563E+03</rscale>
<asrwt>0</asrwt>
<pdfrwt beam="1">  1       21 0.28379110E+00 0.19459563E+03</pdfrwt>
<pdfrwt beam="2">  1       21 0.12631755E-01 0.19459563E+03</pdfrwt>
<totfact> 0.22597881E+03</totfact>
</mgrwt>
</event>
<event>
 4    1  0.1101825E+000  0.3439436E+03  0.7546771E-02  0.1065129E+00
         21   -1    0    0  501  502  0.00000000000E+00  0.00000000000E+00  0.61173563379E+03  0.61173563379E+03  0.00000000000E+00 0.  1.
         21   -1    0    0  502  503 -0.00000000000E+00 -0.00000000000E+00 -0.23791954905E+03  0.23791954905E+03  0.00000000000E+00 0. -1.
          6    1    1    2  501    0 -0.35812017914E+02  0.29568678313E+03  0.37071953056E+03  0.50569768111E+03  0.17200000000E+03 0. -1.
         -6    1    1    2    0  503  0.35812017914E+02 -0.29568678313E+03  0.30965541890E+01  0.34395750173E+03  0.17200000000E+03 0.  1.
<mgrwt>
<rscale>  2 0.34394356E+03</rscale>
<asrwt>0</asrwt>
<pdfrwt beam="1">  1       21 0.15293391E+00 0.34394356E+03</pdfrwt>
<pdfrwt beam="2">  1       21 0.59479888E-01 0.34394356E+03</pdfrwt>
<totfact> 0.66277835E+02</totfact>
</mgrwt>
</event>
<event>
 4    1  0.1101825E+000  0.2034270E+03  0.7546771E-02  0.1146879E+00
         21   -1    0    0  503  502  0.00000000000E+00  0.00000000000E+00  0.51942246502E+03  0.51942246502E+03  0.00000000000E+00 0.  1.
         21   -1    0    0  501  503 -0.00000000000E+00 -0.00000000000E+00 -0.83135544498E+02  0.83135544498E+02  0.00000000000E+00 0.  1.
          6    1    1    2  501    0 -0.99083378196E+02  0.44508834913E+02  0.27965284719E+03  0.34581536571E+03  0.17200000000E+03 0.  1.
         -6    1    1    2    0  502  0.99083378196E+02 -0.44508834913E+02  0.15663407333E+03  0.25674264380E+03  0.17200000000E+03 0.  1.
<mgrwt>
<rscale>  2 0.20342702E+03</rscale>
<asrwt>0</asrwt>
<pdfrwt beam="1">  1       21 0.12985561E+00 0.20342702E+03</pdfrwt>
<pdfrwt beam="2">  1       21 0.20783888E-01 0.20342702E+03</pdfrwt>
<totfact> 0.92372479E+03</totfact>
</mgrwt>
</event>
<event>
 4    1  0.1101825E+000  0.2924037E+03  0.7546771E-02  0.1089101E+00
         21   -1    0    0  503  502  0.00000000000E+00  0.00000000000E+00  0.68411847680E+02  0.68411847680E+02  0.00000000000E+00 0.  1.
         21   -1    0    0  501  503 -0.00000000000E+00 -0.00000000000E+00 -0.13211964750E+04  0.13211964750E+04  0.00000000000E+00 0. -1.
          6    1    1    2  501    0 -0.21834587006E+03  0.90780053498E+02 -0.78792856392E+03  0.84043521994E+03  0.17200000000E+03 0. -1.
         -6    1    1    2    0  502  0.21834587006E+03 -0.90780053498E+02 -0.46485606339E+03  0.54917310273E+03  0.17200000000E+03 0.  1.
<mgrwt>
<rscale>  2 0.29240372E+03</rscale>
<asrwt>0</asrwt>
<pdfrwt beam="1">  1       21 0.17102962E-01 0.29240372E+03</pdfrwt>
<pdfrwt beam="2">  1       21 0.33029913E+00 0.29240372E+03</pdfrwt>
<totfact> 0.62549107E+02</totfact>
</mgrwt>
</event>
<event>
 4    1  0.1101825E+000  0.2048027E+03  0.7546771E-02  0.1145749E+00
         21   -1    0    0  501  502  0.00000000000E+00  0.00000000000E+00  0.41886187558E+03  0.41886187558E+03  0.00000000000E+00 0.  1.
         21   -1    0    0  502  503 -0.00000000000E+00 -0.00000000000E+00 -0.22166360497E+03  0.22166360497E+03  0.00000000000E+00 0. -1.
          6    1    1    2  501    0 -0.99909777815E+01 -0.11072626526E+03  0.33573243222E+03  0.39326885397E+03  0.17200000000E+03 0.  1.
         -6    1    1    2    0  503  0.99909777815E+01  0.11072626526E+03 -0.13853416161E+03  0.24725662658E+03  0.17200000000E+03 0. -1.
<mgrwt>
<rscale>  2 0.20480265E+03</rscale>
<asrwt>0</asrwt>
<pdfrwt beam="1">  1       21 0.10471547E+00 0.20480265E+03</pdfrwt>
<pdfrwt beam="2">  1       21 0.55415902E-01 0.20480265E+03</pdfrwt>
<totfact> 0.22332039E+03</totfact>
</mgrwt>
</event>
<event>
 4    1  0.1101825E+000  0.2016023E+03  0.7546771E-02  0.1148394E+00
         21   -1    0    0  501  502  0.00000000000E+00  0.00000000000E+00  0.51237355970E+03  0.51237355970E+03  0.00000000000E+00 0. -1.
         21   -1    0    0  502  503 -0.00000000000E+00 -0.00000000000E+00 -0.10396580976E+03  0.10396580976E+03  0.00000000000E+00 0. -1.
          6    1    1    2  501    0  0.38560796441E+02 -0.97839439532E+02  0.35423502833E+03  0.40758550790E+03  0.17200000000E+03 0. -1.
         -6    1    1    2    0  503 -0.38560796441E+02  0.97839439532E+02  0.54172721603E+02  0.20875386156E+03  0.17200000000E+03 0. -1.
<mgrwt>
<rscale>  2 0.20160231E+03</rscale>
<asrwt>0</asrwt>
<pdfrwt beam="1">  1       21 0.12809338E+00 0.20160231E+03</pdfrwt>
<pdfrwt beam="2">  1       21 0.25991454E-01 0.20160231E+03</pdfrwt>
<totfact> 0.62640203E+03</totfact>
</mgrwt>
</event>
<event>
 4    1  0.1101825E+000  0.1872573E+03  0.7546771E-02  0.1160959E+00
         21   -1    0    0  501  502  0.00000000000E+00  0.00000000000E+00  0.47324418692E+02  0.47324418692E+02  0.00000000000E+00 0.  1.
         21   -1    0    0  502  503 -0.00000000000E+00 -0.00000000000E+00 -0.78985825753E+03  0.78985825753E+03  0.00000000000E+00 0.  1.
          6    1    1    2  501    0 -0.34710291458E+02  0.65394901067E+02 -0.26711159499E+03  0.32621143695E+03  0.17200000000E+03 0.  1.
         -6    1    1    2    0  503  0.34710291458E+02 -0.65394901067E+02 -0.47542224385E+03  0.51097123927E+03  0.17200000000E+03 0.  1.
<mgrwt>
<rscale>  2 0.18725730E+03</rscale>
<asrwt>0</asrwt>
<pdfrwt beam="1">  1       21 0.11831105E-01 0.18725730E+03</pdfrwt>
<pdfrwt beam="2">  1       21 0.19746456E+00 0.18725730E+03</pdfrwt>
<totfact> 0.84303802E+03</totfact>
</mgrwt>
</event>
<event>
 4    1  0.1101825E+000  0.2593870E+03  0.7546771E-02  0.1107512E+00
         21   -1    0    0  503  502  0.00000000000E+00  0.00000000000E+00  0.76970436982E+03  0.76970436982E+03  0.00000000000E+00 0.  1.
         21   -1    0    0  501  503 -0.00000000000E+00 -0.00000000000E+00 -0.99587454105E+02  0.99587454105E+02  0.00000000000E+00 0.  1.
          6    1    1    2  501    0  0.12789272158E+03  0.14608588043E+03  0.18308405741E+03  0.31749236962E+03  0.17200000000E+03 0.  1.
         -6    1    1    2    0  502 -0.12789272158E+03 -0.14608588043E+03  0.48703285831E+03  0.55179945430E+03  0.17200000000E+03 0.  1.
<mgrwt>
<rscale>  2 0.25938703E+03</rscale>
<asrwt>0</asrwt>
<pdfrwt beam="1">  1       21 0.19242607E+00 0.25938703E+03</pdfrwt>
<pdfrwt beam="2">  1       21 0.24896866E-01 0.25938703E+03</pdfrwt>
<totfact> 0.21635393E+03</totfact>
</mgrwt>
</event>
<event>
 4    1  0.1101825E+000  0.2103632E+03  0.7546771E-02  0.1141279E+00
         21   -1    0    0  501  502  0.00000000000E+00  0.00000000000E+00  0.34308464393E+03  0.34308464393E+03  0.00000000000E+00 0. -1.
         21   -1    0    0  502  503 -0.00000000000E+00 -0.00000000000E+00 -0.18310548837E+03  0.18310548837E+03  0.00000000000E+00 0.  1.
          6    1    1    2  501    0 -0.12065207717E+03  0.10571836172E+02  0.22302508963E+03  0.30658257949E+03  0.17200000000E+03 0. -1.
         -6    1    1    2    0  503  0.12065207717E+03 -0.10571836172E+02 -0.63045934074E+02  0.21960755281E+03  0.17200000000E+03 0.  1.
<mgrwt>
<rscale>  2 0.21036323E+03</rscale>
<asrwt>0</asrwt>
<pdfrwt beam="1">  1       21 0.85771160E-01 0.21036323E+03</pdfrwt>
<pdfrwt beam="2">  1       21 0.45776373E-01 0.21036323E+03</pdfrwt>
<totfact> 0.52974372E+03</totfact>
</mgrwt>
</event>
<event>
 4    1  0.1101825E+000  0.1773730E+03  0.7546771E-02  0.1170370E+00
         21   -1    0    0  503  502  0.00000000000E+00  0.00000000000E+00  0.89031654470E+02  0.89031654470E+02  0.00000000000E+00 0.  1.
         21   -1    0    0  501  503 -0.00000000000E+00 -0.00000000000E+00 -0.64023734579E+03  0.64023734579E+03  0.00000000000E+00 0.  1.
          6    1    1    2  501    0 -0.85487942171E+01  0.42474754741E+02 -0.51968004429E+03  0.54911613990E+03  0.17200000000E+03 0.  1.
         -6    1    1    2    0  502  0.85487942171E+01 -0.42474754741E+02 -0.31525647030E+02  0.18015286035E+03  0.17200000000E+03 0.  1.
<mgrwt>
<rscale>  2 0.17737302E+03</rscale>
<asrwt>0</asrwt>
<pdfrwt beam="1">  1       21 0.22257914E-01 0.17737302E+03</pdfrwt>
<pdfrwt beam="2">  1       21 0.16005933E+00 0.17737302E+03</pdfrwt>
<totfact> 0.48128191E+03</totfact>
</mgrwt>
</event>
<event>
 4    1  0.1101825E+000  0.1767906E+03  0.7546771E-02  0.1170946E+00
         21   -1    0    0  501  502  0.00000000000E+00  0.00000000000E+00  0.99943167191E+02  0.99943167191E+02  0.00000000000E+00 0.  1.
         21   -1    0    0  502  503 -0.00000000000E+00 -0.00000000000E+00 -0.80171707789E+03  0.80171707789E+03  0.00000000000E+00 0.  1.
          6    1    1    2  501    0 -0.40781891415E+02  0.27852647065E+01  0.12020072343E+01  0.17679469785E+03  0.17200000000E+03 0.  1.
         -6    1    1    2    0  503  0.40781891415E+02 -0.27852647065E+01 -0.70297591794E+03  0.72486554723E+03  0.17200000000E+03 0.  1.
<mgrwt>
<rscale>  2 0.17679061E+03</rscale>
<asrwt>0</asrwt>
<pdfrwt beam="1">  1       21 0.24985792E-01 0.17679061E+03</pdfrwt>
<pdfrwt beam="2">  1       21 0.20042927E+00 0.17679061E+03</pdfrwt>
<totfact> 0.20579104E+03</totfact>
</mgrwt>
</event>
<event>
 4    1  0.1101825E+000  0.1932517E+03  0.7546771E-02  0.1155561E+00
         21   -1    0    0  501  502  0.00000000000E+00  0.00000000000E+00  0.10055162956E+03  0.10055162956E+03  0.00000000000E+00 0.  1.
         21   -1    0    0  502  503 -0.00000000000E+00 -0.00000000000E+00 -0.38042304685E+03  0.38042304685E+03  0.00000000000E+00 0. -1.
          6    1    1    2  501    0  0.23788319146E+02 -0.84831117843E+02 -0.10292584661E+03  0.21895189559E+03  0.17200000000E+03 0.  1.
         -6    1    1    2    0  503 -0.23788319146E+02  0.84831117843E+02 -0.17694557069E+03  0.26202278082E+03  0.17200000000E+03 0. -1.
<mgrwt>
<rscale>  2 0.19325166E+03</rscale>
<asrwt>0</asrwt>
<pdfrwt beam="1">  1       21 0.25137908E-01 0.19325166E+03</pdfrwt>
<pdfrwt beam="2">  1       21 0.95105761E-01 0.19325166E+03</pdfrwt>
<totfact> 0.13843841E+04</totfact>
</mgrwt>
</event>
<event>
 4    1  0.1101825E+000  0.1723698E+03  0.7546771E-02  0.1175399E+00
         21   -1    0    0  503  502  0.00000000000E+00  0.00000000000E+00  0.19858987345E+03  0.19858987345E+03  0.00000000000E+00 0.  1.
         21   -1    0    0  501  503 -0.00000000000E+00 -0.00000000000E+00 -0.18567919513E+03  0.18567919513E+03  0.00000000000E+00 0.  1.
          6    1    1    2  501    0  0.38526789093E+01  0.10607528905E+02 -0.78224880383E+02  0.18928944692E+03  0.17200000000E+03 0.  1.
         -6    1    1    2    0  502 -0.38526789093E+01 -0.10607528905E+02  0.91135558698E+02  0.19497962166E+03  0.17200000000E+03 0.  1.
<mgrwt>
<rscale>  2 0.17236984E+03</rscale>
<asrwt>0</asrwt>
<pdfrwt beam="1">  1       21 0.49647468E-01 0.17236984E+03</pdfrwt>
<pdfrwt beam="2">  1       21 0.46419799E-01 0.17236984E+03</pdfrwt>
<totfact> 0.17409482E+04</totfact>
</mgrwt>
</event>
<event>
 4    1  0.1101825E+000  0.1976232E+03  0.7546771E-02  0.1151760E+00
         21   -1    0    0  501  502  0.00000000000E+00  0.00000000000E+00  0.13319473698E+03  0.13319473698E+03  0.00000000000E+00 0.  1.
         21   -1    0    0  502  503 -0.00000000000E+00 -0.00000000000E+00 -0.36078802514E+03  0.36078802514E+03  0.00000000000E+00 0. -1.
          6    1    1    2  501    0  0.66546062677E+02  0.71011027066E+02 -0.69068107746E+01  0.19774389613E+03  0.17200000000E+03 0.  1.
         -6    1    1    2    0  503 -0.66546062677E+02 -0.71011027066E+02 -0.22068647738E+03  0.29623886599E+03  0.17200000000E+03 0.  1.
<mgrwt>
<rscale>  2 0.19762324E+03</rscale>
<asrwt>0</asrwt>
<pdfrwt beam="1">  1       21 0.33298685E-01 0.19762324E+03</pdfrwt>
<pdfrwt beam="2">  1       21 0.90197006E-01 0.19762324E+03</pdfrwt>
<totfact> 0.90460881E+03</totfact>
</mgrwt>
</event>
<event>
 4    1  0.1101825E+000  0.2600973E+03  0.7546771E-02  0.1107085E+00
         21   -1    0    0  501  502  0.00000000000E+00  0.00000000000E+00  0.14749728808E+04  0.14749728808E+04  0.00000000000E+00 0. -1.
         21   -1    0    0  502  503 -0.00000000000E+00 -0.00000000000E+00 -0.79321120115E+02  0.79321120115E+02  0.00000000000E+00 0. -1.
          6    1    1    2  501    0 -0.12746249666E+03 -0.14771571297E+03  0.12025362090E+04  0.12303430228E+04  0.17200000000E+03 0. -1.
         -6    1    1    2    0  503  0.12746249666E+03  0.14771571297E+03  0.19311555178E+03  0.32395097816E+03  0.17200000000E+03 0. -1.
<mgrwt>
<rscale>  2 0.26009733E+03</rscale>
<asrwt>0</asrwt>
<pdfrwt beam="1">  1       21 0.36874313E+00 0.26009733E+03</pdfrwt>
<pdfrwt beam="2">  1       21 0.19830285E-01 0.26009733E+03</pdfrwt>
<totfact> 0.28851831E+02</totfact>
</mgrwt>
</event>
<event>
 4    1  0.1101825E+000  0.1841064E+03  0.7546771E-02  0.1163887E+00
         21   -1    0    0  503  502  0.00000000000E+00  0.00000000000E+00  0.49058025084E+03  0.49058025084E+03  0.00000000000E+00 0.  1.
         21   -1    0    0  501  503 -0.00000000000E+00 -0.00000000000E+00 -0.16802819378E+03  0.16802819378E+03  0.00000000000E+00 0.  1.
          6    1    1    2  501    0  0.34534897468E+02 -0.55843585947E+02 -0.91411520749E+02  0.20555104320E+03  0.17200000000E+03 0.  1.
         -6    1    1    2    0  502 -0.34534897468E+02  0.55843585947E+02  0.41396357781E+03  0.45305740143E+03  0.17200000000E+03 0.  1.
<mgrwt>
<rscale>  2 0.18410640E+03</rscale>
<asrwt>0</asrwt>
<pdfrwt beam="1">  1       21 0.12264506E+00 0.18410640E+03</pdfrwt>
<pdfrwt beam="2">  1       21 0.42007050E-01 0.18410640E+03</pdfrwt>
<totfact> 0.27495150E+03</totfact>
</mgrwt>
</event>
<event>
 4    1  0.1101825E+000  0.1722253E+03  0.7546771E-02  0.1175547E+00
         21   -1    0    0  501  502  0.00000000000E+00  0.00000000000E+00  0.85131841379E+03  0.85131841379E+03  0.00000000000E+00 0. -1.
         21   -1    0    0  502  503 -0.00000000000E+00 -0.00000000000E+00 -0.27627645674E+03  0.27627645674E+03  0.00000000000E+00 0. -1.
          6    1    1    2  501    0 -0.66622137154E+01 -0.57582278699E+01  0.81456984301E+03  0.83257766690E+03  0.17200000000E+03 0. -1.
         -6    1    1    2    0  503  0.66622137154E+01  0.57582278699E+01 -0.23952788596E+03  0.29501720362E+03  0.17200000000E+03 0. -1.
<mgrwt>
<rscale>  2 0.17222527E+03</rscale>
<asrwt>0</asrwt>
<pdfrwt beam="1">  1       21 0.21282960E+00 0.17222527E+03</pdfrwt>
<pdfrwt beam="2">  1       21 0.69069116E-01 0.17222527E+03</pdfrwt>
<totfact> 0.21892102E+02</totfact>
</mgrwt>
</event>
<event>
 4    1  0.1101825E+000  0.2259796E+03  0.7546771E-02  0.1129502E+00
         21   -1    0    0  503  502  0.00000000000E+00  0.00000000000E+00  0.65355300905E+03  0.65355300905E+03  0.00000000000E+00 0. -1.
         21   -1    0    0  501  503 -0.00000000000E+00 -0.00000000000E+00 -0.99515492210E+02  0.99515492210E+02  0.00000000000E+00 0. -1.
          6    1    1    2  501    0 -0.37030454917E+02 -0.14181513943E+03  0.10249849554E+03  0.24813852976E+03  0.17200000000E+03 0. -1.
         -6    1    1    2    0  502  0.37030454917E+02  0.14181513943E+03  0.45153902130E+03  0.50492997150E+03  0.17200000000E+03 0. -1.
<mgrwt>
<rscale>  2 0.22597962E+03</rscale>
<asrwt>0</asrwt>
<pdfrwt beam="1">  1       21 0.16338824E+00 0.22597962E+03</pdfrwt>
<pdfrwt beam="2">  1       21 0.24878875E-01 0.22597962E+03</pdfrwt>
<totfact> 0.35332188E+03</totfact>
</mgrwt>
</event>
<event>
 4    1  0.1101825E+000  0.1939214E+03  0.7546771E-02  0.1154971E+00
         21   -1    0    0  501  502  0.00000000000E+00  0.00000000000E+00  0.28767116674E+03  0.28767116674E+03  0.00000000000E+00 0.  1.
         21   -1    0    0  502  503 -0.00000000000E+00 -0.00000000000E+00 -0.13145483328E+03  0.13145483328E+03  0.00000000000E+00 0.  1.
          6    1    1    2  501    0 -0.78317860057E+02 -0.43449019159E+02  0.62481825293E+02  0.20373876156E+03  0.17200000000E+03 0.  1.
         -6    1    1    2    0  503  0.78317860057E+02  0.43449019159E+02  0.93734508170E+02  0.21538723846E+03  0.17200000000E+03 0.  1.
<mgrwt>
<rscale>  2 0.19392139E+03</rscale>
<asrwt>0</asrwt>
<pdfrwt beam="1">  1       21 0.71917791E-01 0.19392139E+03</pdfrwt>
<pdfrwt beam="2">  1       21 0.32863709E-01 0.19392139E+03</pdfrwt>
<totfact> 0.15545580E+04</totfact>
</mgrwt>
</event>
<event>
 4    1  0.1101825E+000  0.1770622E+03  0.7546771E-02  0.1170677E+00
         21   -1    0    0  501  502  0.00000000000E+00  0.00000000000E+00  0.72051151545E+03  0.72051151545E+03  0.00000000000E+00 0. -1.
         21   -1    0    0  502  503 -0.00000000000E+00 -0.00000000000E+00 -0.47805615914E+02  0.47805615914E+02  0.00000000000E+00 0. -1.
          6    1    1    2  501    0 -0.40536927984E+02 -0.11126027902E+02  0.45147890710E+03  0.48495797197E+03  0.17200000000E+03 0. -1.
         -6    1    1    2    0  503  0.40536927984E+02  0.11126027902E+02  0.22122699244E+03  0.28335915939E+03  0.17200000000E+03 0. -1.
<mgrwt>
<rscale>  2 0.17706222E+03</rscale>
<asrwt>0</asrwt>
<pdfrwt beam="1">  1       21 0.18012784E+00 0.17706222E+03</pdfrwt>
<pdfrwt beam="2">  1       21 0.11951406E-01 0.17706222E+03</pdfrwt>
<totfact> 0.10871168E+04</totfact>
</mgrwt>
</event>
<event>
 4    1  0.1101825E+000  0.1809291E+03  0.7546771E-02  0.1166907E+00
         21   -1    0    0  503  502  0.00000000000E+00  0.00000000000E+00  0.13574353681E+04  0.13574353681E+04  0.00000000000E+00 0. -1.
         21   -1    0    0  501  503 -0.00000000000E+00 -0.00000000000E+00 -0.42769017614E+02  0.42769017614E+02  0.00000000000E+00 0.  1.
          6    1    1    2  501    0  0.29592415751E+02 -0.47703573579E+02  0.19497745690E+03  0.26599163653E+03  0.17200000000E+03 0.  1.
         -6    1    1    2    0  502 -0.29592415751E+02  0.47703573579E+02  0.11196888936E+04  0.11342127492E+04  0.17200000000E+03 0.  1.
<mgrwt>
<rscale>  2 0.18092911E+03</rscale>
<asrwt>0</asrwt>
<pdfrwt beam="1">  1       21 0.33935870E+00 0.18092911E+03</pdfrwt>
<pdfrwt beam="2">  1       21 0.10692259E-01 0.18092911E+03</pdfrwt>
<totfact> 0.14805170E+03</totfact>
</mgrwt>
</event>
<event>
 4    1  0.1101825E+000  0.2796508E+03  0.7546771E-02  0.1095880E+00
         21   -1    0    0  503  502  0.00000000000E+00  0.00000000000E+00  0.54552167757E+03  0.54552167757E+03  0.00000000000E+00 0. -1.
         21   -1    0    0  501  503 -0.00000000000E+00 -0.00000000000E+00 -0.14878636096E+03  0.14878636096E+03  0.00000000000E+00 0.  1.
          6    1    1    2  501    0 -0.83428590722E+02  0.20410847146E+03  0.26468038776E+03  0.38504584862E+03  0.17200000000E+03 0. -1.
         -6    1    1    2    0  502  0.83428590722E+02 -0.20410847146E+03  0.13205492885E+03  0.30926218991E+03  0.17200000000E+03 0.  1.
<mgrwt>
<rscale>  2 0.27965085E+03</rscale>
<asrwt>0</asrwt>
<pdfrwt beam="1">  1       21 0.13638041E+00 0.27965085E+03</pdfrwt>
<pdfrwt beam="2">  1       21 0.37196592E-01 0.27965085E+03</pdfrwt>
<totfact> 0.24957837E+03</totfact>
</mgrwt>
</event>
<event>
 4    1  0.1101825E+000  0.1883988E+03  0.7546771E-02  0.1159913E+00
         21   -1    0    0  501  502  0.00000000000E+00  0.00000000000E+00  0.68434029880E+02  0.68434029880E+02  0.00000000000E+00 0.  1.
         21   -1    0    0  502  503 -0.00000000000E+00 -0.00000000000E+00 -0.52078197219E+03  0.52078197219E+03  0.00000000000E+00 0.  1.
          6    1    1    2  501    0 -0.71347423189E+02  0.28629567365E+02 -0.20737572242E+03  0.28017636797E+03  0.17200000000E+03 0.  1.
         -6    1    1    2    0  503  0.71347423189E+02 -0.28629567365E+02 -0.24497221990E+03  0.30903963410E+03  0.17200000000E+03 0.  1.
<mgrwt>
<rscale>  2 0.18839880E+03</rscale>
<asrwt>0</asrwt>
<pdfrwt beam="1">  1       21 0.17108508E-01 0.18839880E+03</pdfrwt>
<pdfrwt beam="2">  1       21 0.13019549E+00 0.18839880E+03</pdfrwt>
<totfact> 0.13316997E+04</totfact>
</mgrwt>
</event>
<event>
 4    1  0.1101825E+000  0.1727595E+03  0.7546771E-02  0.1175000E+00
         21   -1    0    0  501  502  0.00000000000E+00  0.00000000000E+00  0.13383164224E+03  0.13383164224E+03  0.00000000000E+00 0.  1.
         21   -1    0    0  502  503 -0.00000000000E+00 -0.00000000000E+00 -0.28907111337E+03  0.28907111337E+03  0.00000000000E+00 0.  1.
          6    1    1    2  501    0  0.10033855911E+02  0.12694665425E+02  0.23463742457E+02  0.17434557638E+03  0.17200000000E+03 0.  1.
         -6    1    1    2    0  503 -0.10033855911E+02 -0.12694665425E+02 -0.17870321359E+03  0.24855717922E+03  0.17200000000E+03 0.  1.
<mgrwt>
<rscale>  2 0.17275947E+03</rscale>
<asrwt>0</asrwt>
<pdfrwt beam="1">  1       21 0.33457911E-01 0.17275947E+03</pdfrwt>
<pdfrwt beam="2">  1       21 0.72267778E-01 0.17275947E+03</pdfrwt>
<totfact> 0.15050187E+04</totfact>
</mgrwt>
</event>
<event>
 4    1  0.1101825E+000  0.2261901E+03  0.7546771E-02  0.1129350E+00
         21   -1    0    0  503  502  0.00000000000E+00  0.00000000000E+00  0.20064480074E+04  0.20064480074E+04  0.00000000000E+00 0. -1.
         21   -1    0    0  501  503 -0.00000000000E+00 -0.00000000000E+00 -0.26628476477E+02  0.26628476477E+02  0.00000000000E+00 0. -1.
          6    1    1    2  501    0 -0.13095669769E+03 -0.66545555118E+02  0.78053116780E+03  0.81264436962E+03  0.17200000000E+03 0. -1.
         -6    1    1    2    0  502  0.13095669769E+03  0.66545555118E+02  0.11992883631E+04  0.12204321142E+04  0.17200000000E+03 0. -1.
<mgrwt>
<rscale>  2 0.22619011E+03</rscale>
<asrwt>0</asrwt>
<pdfrwt beam="1">  1       21 0.50161149E+00 0.22619011E+03</pdfrwt>
<pdfrwt beam="2">  1       21 0.66571259E-02 0.22619011E+03</pdfrwt>
<totfact> 0.28823748E+02</totfact>
</mgrwt>
</event>
<event>
 4    1  0.1101825E+000  0.1869469E+03  0.7546771E-02  0.1161244E+00
         21   -1    0    0  501  502  0.00000000000E+00  0.00000000000E+00  0.83641025497E+02  0.83641025497E+02  0.00000000000E+00 0.  1.
         21   -1    0    0  502  503 -0.00000000000E+00 -0.00000000000E+00 -0.61677059825E+03  0.61677059825E+03  0.00000000000E+00 0.  1.
          6    1    1    2  501    0 -0.26519863900E+02  0.68277601347E+02 -0.67678471797E+02  0.19882029467E+03  0.17200000000E+03 0.  1.
         -6    1    1    2    0  503  0.26519863900E+02 -0.68277601347E+02 -0.46545110096E+03  0.50159132908E+03  0.17200000000E+03 0.  1.
<mgrwt>
<rscale>  2 0.18694687E+03</rscale>
<asrwt>0</asrwt>
<pdfrwt beam="1">  1       21 0.20910256E-01 0.18694687E+03</pdfrwt>
<pdfrwt beam="2">  1       21 0.15419265E+00 0.18694687E+03</pdfrwt>
<totfact> 0.59302399E+03</totfact>
</mgrwt>
</event>
<event>
 4    1  0.1101825E+000  0.1928076E+03  0.7546771E-02  0.1155953E+00
         21   -1    0    0  503  502  0.00000000000E+00  0.00000000000E+00  0.45683197662E+03  0.45683197662E+03  0.00000000000E+00 0. -1.
         21   -1    0    0  501  503 -0.00000000000E+00 -0.00000000000E+00 -0.23885406570E+03  0.23885406570E+03  0.00000000000E+00 0. -1.
          6    1    1    2  501    0  0.10779612603E+02 -0.86455579640E+02 -0.17345233907E+03  0.25934625740E+03  0.17200000000E+03 0. -1.
         -6    1    1    2    0  502 -0.10779612603E+02  0.86455579640E+02  0.39143024999E+03  0.43633978492E+03  0.17200000000E+03 0. -1.
<mgrwt>
<rscale>  2 0.19280759E+03</rscale>
<asrwt>0</asrwt>
<pdfrwt beam="1">  1       21 0.11420799E+00 0.19280759E+03</pdfrwt>
<pdfrwt beam="2">  1       21 0.59713517E-01 0.19280759E+03</pdfrwt>
<totfact> 0.15607321E+03</totfact>
</mgrwt>
</event>
<event>
 4    1  0.1101825E+000  0.2062685E+03  0.7546771E-02  0.1144555E+00
         21   -1    0    0  503  502  0.00000000000E+00  0.00000000000E+00  0.96556285060E+02  0.96556285060E+02  0.00000000000E+00 0.  1.
         21   -1    0    0  501  503 -0.00000000000E+00 -0.00000000000E+00 -0.44155059399E+03  0.44155059399E+03  0.00000000000E+00 0.  1.
          6    1    1    2  501    0 -0.52973290651E+02  0.10077954284E+03 -0.16028749857E+03  0.26122551173E+03  0.17200000000E+03 0.  1.
         -6    1    1    2    0  502  0.52973290651E+02 -0.10077954284E+03 -0.18470681035E+03  0.27688136732E+03  0.17200000000E+03 0.  1.
<mgrwt>
<rscale>  2 0.20626848E+03</rscale>
<asrwt>0</asrwt>
<pdfrwt beam="1">  1       21 0.24139072E-01 0.20626848E+03</pdfrwt>
<pdfrwt beam="2">  1       21 0.11038765E+00 0.20626848E+03</pdfrwt>
<totfact> 0.10385814E+04</totfact>
</mgrwt>
</event>
<event>
 4    1  0.1101825E+000  0.1905049E+03  0.7546771E-02  0.1158007E+00
         21   -1    0    0  503  502  0.00000000000E+00  0.00000000000E+00  0.99815680546E+03  0.99815680546E+03  0.00000000000E+00 0. -1.
         21   -1    0    0  501  503 -0.00000000000E+00 -0.00000000000E+00 -0.72427390945E+02  0.72427390945E+02  0.00000000000E+00 0. -1.
          6    1    1    2  501    0 -0.12682369641E+02 -0.80915321867E+02  0.85116944881E+02  0.20865528059E+03  0.17200000000E+03 0. -1.
         -6    1    1    2    0  502  0.12682369641E+02  0.80915321867E+02  0.84061246963E+03  0.86192891581E+03  0.17200000000E+03 0. -1.
<mgrwt>
<rscale>  2 0.19050494E+03</rscale>
<asrwt>0</asrwt>
<pdfrwt beam="1">  1       21 0.24953916E+00 0.19050494E+03</pdfrwt>
<pdfrwt beam="2">  1       21 0.18106851E-01 0.19050494E+03</pdfrwt>
<totfact> 0.18627758E+03</totfact>
</mgrwt>
</event>
<event>
 4    1  0.1101825E+000  0.1918174E+03  0.7546771E-02  0.1156832E+00
         21   -1    0    0  501  502  0.00000000000E+00  0.00000000000E+00  0.34552884011E+03  0.34552884011E+03  0.00000000000E+00 0. -1.
         21   -1    0    0  502  503 -0.00000000000E+00 -0.00000000000E+00 -0.48078475494E+03  0.48078475494E+03  0.00000000000E+00 0. -1.
          6    1    1    2  501    0 -0.41282583502E+02 -0.74200143593E+02  0.29691513120E+03  0.35348622059E+03  0.17200000000E+03 0. -1.
         -6    1    1    2    0  503  0.41282583502E+02  0.74200143593E+02 -0.43217104603E+03  0.47282737446E+03  0.17200000000E+03 0. -1.
<mgrwt>
<rscale>  2 0.19181739E+03</rscale>
<asrwt>0</asrwt>
<pdfrwt beam="1">  1       21 0.86382211E-01 0.19181739E+03</pdfrwt>
<pdfrwt beam="2">  1       21 0.12019619E+00 0.19181739E+03</pdfrwt>
<totfact> 0.60795454E+02</totfact>
</mgrwt>
</event>
<event>
 4    1  0.1101825E+000  0.2709445E+03  0.7546771E-02  0.1100740E+00
         21   -1    0    0  501  502  0.00000000000E+00  0.00000000000E+00  0.28603481579E+03  0.28603481579E+03  0.00000000000E+00 0.  1.
         21   -1    0    0  502  503 -0.00000000000E+00 -0.00000000000E+00 -0.30365305248E+03  0.30365305248E+03  0.00000000000E+00 0. -1.
          6    1    1    2  501    0 -0.15102023966E+03 -0.14498207665E+03  0.10719278452E+03  0.29137811927E+03  0.17200000000E+03 0.  1.
         -6    1    1    2    0  503  0.15102023966E+03  0.14498207665E+03 -0.12481102121E+03  0.29830974900E+03  0.17200000000E+03 0. -1.
<mgrwt>
<rscale>  2 0.27094449E+03</rscale>
<asrwt>0</asrwt>
<pdfrwt beam="1">  1       21 0.71508704E-01 0.27094449E+03</pdfrwt>
<pdfrwt beam="2">  1       21 0.75913263E-01 0.27094449E+03</pdfrwt>
<totfact> 0.25803517E+03</totfact>
</mgrwt>
</event>
<event>
 4    1  0.1101825E+000  0.1842232E+03  0.7546771E-02  0.1163777E+00
         21   -1    0    0  503  502  0.00000000000E+00  0.00000000000E+00  0.54426012960E+03  0.54426012960E+03  0.00000000000E+00 0. -1.
         21   -1    0    0  501  503 -0.00000000000E+00 -0.00000000000E+00 -0.63633052644E+02  0.63633052644E+02  0.00000000000E+00 0. -1.
          6    1    1    2  501    0 -0.61334935922E+02 -0.24335713079E+02  0.28336236788E+03  0.33798288836E+03  0.17200000000E+03 0.  1.
         -6    1    1    2    0  502  0.61334935922E+02  0.24335713079E+02  0.19726470908E+03  0.26991029388E+03  0.17200000000E+03 0.  1.
<mgrwt>
<rscale>  2 0.18422324E+03</rscale>
<asrwt>0</asrwt>
<pdfrwt beam="1">  1       21 0.13606502E+00 0.18422324E+03</pdfrwt>
<pdfrwt beam="2">  1       21 0.15908265E-01 0.18422324E+03</pdfrwt>
<totfact> 0.13648652E+04</totfact>
</mgrwt>
</event>
<event>
 4    1  0.1101825E+000  0.1826841E+03  0.7546771E-02  0.1165230E+00
         21   -1    0    0  501  502  0.00000000000E+00  0.00000000000E+00  0.21497160046E+03  0.21497160046E+03  0.00000000000E+00 0.  1.
         21   -1    0    0  502  503 -0.00000000000E+00 -0.00000000000E+00 -0.17604431348E+03  0.17604431348E+03  0.00000000000E+00 0.  1.
          6    1    1    2  501    0  0.54200954898E+02 -0.29184526315E+02  0.86663376120E+02  0.20219797439E+03  0.17200000000E+03 0.  1.
         -6    1    1    2    0  503 -0.54200954898E+02  0.29184526315E+02 -0.47736089143E+02  0.18881793955E+03  0.17200000000E+03 0.  1.
<mgrwt>
<rscale>  2 0.18268410E+03</rscale>
<asrwt>0</asrwt>
<pdfrwt beam="1">  1       21 0.53742900E-01 0.18268410E+03</pdfrwt>
<pdfrwt beam="2">  1       21 0.44011078E-01 0.18268410E+03</pdfrwt>
<totfact> 0.16344771E+04</totfact>
</mgrwt>
</event>
<event>
 4    1  0.1101825E+000  0.1730758E+03  0.7546771E-02  0.1174678E+00
         21   -1    0    0  501  502  0.00000000000E+00  0.00000000000E+00  0.10228992455E+04  0.10228992455E+04  0.00000000000E+00 0.  1.
         21   -1    0    0  502  503 -0.00000000000E+00 -0.00000000000E+00 -0.41145475374E+02  0.41145475374E+02  0.00000000000E+00 0.  1.
          6    1    1    2  501    0 -0.96605017184E+01  0.16670221935E+02  0.77652196193E+03  0.79557625590E+03  0.17200000000E+03 0.  1.
         -6    1    1    2    0  503  0.96605017184E+01 -0.16670221935E+02  0.20523180822E+03  0.26846846500E+03  0.17200000000E+03 0.  1.
<mgrwt>
<rscale>  2 0.17307577E+03</rscale>
<asrwt>0</asrwt>
<pdfrwt beam="1">  1       21 0.25572473E+00 0.17307577E+03</pdfrwt>
<pdfrwt beam="2">  1       21 0.10286372E-01 0.17307577E+03</pdfrwt>
<totfact> 0.48547026E+03</totfact>
</mgrwt>
</event>
<event>
 4    1  0.1101825E+000  0.2448645E+03  0.7546771E-02  0.1116594E+00
         21   -1    0    0  503  502  0.00000000000E+00  0.00000000000E+00  0.55228782002E+03  0.55228782002E+03  0.00000000000E+00 0. -1.
         21   -1    0    0  501  503 -0.00000000000E+00 -0.00000000000E+00 -0.18816983755E+03  0.18816983755E+03  0.00000000000E+00 0.  1.
          6    1    1    2  501    0 -0.51045146342E+02 -0.16664036156E+03 -0.58747105317E+02  0.25181310420E+03  0.17200000000E+03 0.  1.
         -6    1    1    2    0  502  0.51045146342E+02  0.16664036156E+03  0.42286508779E+03  0.48864455337E+03  0.17200000000E+03 0. -1.
<mgrwt>
<rscale>  2 0.24486449E+03</rscale>
<asrwt>0</asrwt>
<pdfrwt beam="1">  1       21 0.13807195E+00 0.24486449E+03</pdfrwt>
<pdfrwt beam="2">  1       21 0.47042461E-01 0.24486449E+03</pdfrwt>
<totfact> 0.15314991E+03</totfact>
</mgrwt>
</event>
<event>
 4    1  0.1101825E+000  0.1916723E+03  0.7546771E-02  0.1156962E+00
         21   -1    0    0  503  502  0.00000000000E+00  0.00000000000E+00  0.17983480989E+03  0.17983480989E+03  0.00000000000E+00 0.  1.
         21   -1    0    0  501  503 -0.00000000000E+00 -0.00000000000E+00 -0.21010541346E+03  0.21010541346E+03  0.00000000000E+00 0. -1.
          6    1    1    2  501    0  0.54278406744E+02  0.64870112072E+02  0.17304362313E+02  0.19245185848E+03  0.17200000000E+03 0.  1.
         -6    1    1    2    0  502 -0.54278406744E+02 -0.64870112072E+02 -0.47574965890E+02  0.19748836487E+03  0.17200000000E+03 0. -1.
<mgrwt>
<rscale>  2 0.19167232E+03</rscale>
<asrwt>0</asrwt>
<pdfrwt beam="1">  1       21 0.44958703E-01 0.19167232E+03</pdfrwt>
<pdfrwt beam="2">  1       21 0.52526353E-01 0.19167232E+03</pdfrwt>
<totfact> 0.16327850E+04</totfact>
</mgrwt>
</event>
<event>
 4    1  0.1101825E+000  0.1883417E+03  0.7546771E-02  0.1159966E+00
         21   -1    0    0  501  502  0.00000000000E+00  0.00000000000E+00  0.50328891586E+03  0.50328891586E+03  0.00000000000E+00 0.  1.
         21   -1    0    0  502  503 -0.00000000000E+00 -0.00000000000E+00 -0.11430191991E+03  0.11430191991E+03  0.00000000000E+00 0.  1.
          6    1    1    2  501    0  0.63724632534E+02 -0.42752211883E+02  0.38569096249E+03  0.42922033848E+03  0.17200000000E+03 0.  1.
         -6    1    1    2    0  503 -0.63724632534E+02  0.42752211883E+02  0.32960334587E+01  0.18837049729E+03  0.17200000000E+03 0.  1.
<mgrwt>
<rscale>  2 0.18834166E+03</rscale>
<asrwt>0</asrwt>
<pdfrwt beam="1">  1       21 0.12582222E+00 0.18834166E+03</pdfrwt>
<pdfrwt beam="2">  1       21 0.28575481E-01 0.18834166E+03</pdfrwt>
<totfact> 0.55155391E+03</totfact>
</mgrwt>
</event>
<event>
 4    1  0.1101825E+000  0.1823906E+03  0.7546771E-02  0.1165509E+00
         21   -1    0    0  501  502  0.00000000000E+00  0.00000000000E+00  0.79725419377E+03  0.79725419377E+03  0.00000000000E+00 0. -1.
         21   -1    0    0  502  503 -0.00000000000E+00 -0.00000000000E+00 -0.68113200951E+02  0.68113200951E+02  0.00000000000E+00 0.  1.
          6    1    1    2  501    0  0.22646030525E+02 -0.56298162586E+02  0.63387929639E+03  0.65959782307E+03  0.17200000000E+03 0. -1.
         -6    1    1    2    0  503 -0.22646030525E+02  0.56298162586E+02  0.95261696422E+02  0.20576957164E+03  0.17200000000E+03 0.  1.
<mgrwt>
<rscale>  2 0.18239059E+03</rscale>
<asrwt>0</asrwt>
<pdfrwt beam="1">  1       21 0.19931352E+00 0.18239059E+03</pdfrwt>
<pdfrwt beam="2">  1       21 0.17028303E-01 0.18239059E+03</pdfrwt>
<totfact> 0.42605733E+03</totfact>
</mgrwt>
</event>
<event>
 4    1  0.1101825E+000  0.1967188E+03  0.7546771E-02  0.1152537E+00
         21   -1    0    0  501  502  0.00000000000E+00  0.00000000000E+00  0.11851224902E+04  0.11851224902E+04  0.00000000000E+00 0.  1.
         21   -1    0    0  502  503 -0.00000000000E+00 -0.00000000000E+00 -0.16101343930E+03  0.16101343930E+03  0.00000000000E+00 0.  1.
          6    1    1    2  501    0 -0.86497064187E+02  0.40404632936E+02  0.11130106712E+04  0.11302614878E+04  0.17200000000E+03 0.  1.
         -6    1    1    2    0  503  0.86497064187E+02 -0.40404632936E+02 -0.88901620363E+02  0.21587444170E+03  0.17200000000E+03 0.  1.
<mgrwt>
<rscale>  2 0.19671878E+03</rscale>
<asrwt>0</asrwt>
<pdfrwt beam="1">  1       21 0.29628060E+00 0.19671878E+03</pdfrwt>
<pdfrwt beam="2">  1       21 0.40253363E-01 0.19671878E+03</pdfrwt>
<totfact> 0.21194689E+02</totfact>
</mgrwt>
</event>
<event>
 4    1  0.1101825E+000  0.1839234E+03  0.7546771E-02  0.1164059E+00
         21   -1    0    0  501  502  0.00000000000E+00  0.00000000000E+00  0.96896663503E+03  0.96896663503E+03  0.00000000000E+00 0.  1.
         21   -1    0    0  502  503 -0.00000000000E+00 -0.00000000000E+00 -0.11296833052E+03  0.11296833052E+03  0.00000000000E+00 0.  1.
          6    1    1    2  501    0 -0.33064075870E+02  0.56129935943E+02  0.87767447373E+03  0.89673869363E+03  0.17200000000E+03 0.  1.
         -6    1    1    2    0  503  0.33064075870E+02 -0.56129935943E+02 -0.21676169218E+02  0.18519627192E+03  0.17200000000E+03 0.  1.
<mgrwt>
<rscale>  2 0.18392336E+03</rscale>
<asrwt>0</asrwt>
<pdfrwt beam="1">  1       21 0.24224163E+00 0.18392336E+03</pdfrwt>
<pdfrwt beam="2">  1       21 0.28242086E-01 0.18392336E+03</pdfrwt>
<totfact> 0.89517769E+02</totfact>
</mgrwt>
</event>
<event>
 4    1  0.1101825E+000  0.1919945E+03  0.7546771E-02  0.1156675E+00
         21   -1    0    0  503  502  0.00000000000E+00  0.00000000000E+00  0.12296947096E+04  0.12296947096E+04  0.00000000000E+00 0.  1.
         21   -1    0    0  501  503 -0.00000000000E+00 -0.00000000000E+00 -0.80732236916E+02  0.80732236916E+02  0.00000000000E+00 0.  1.
          6    1    1    2  501    0 -0.70374325562E+02 -0.48221920727E+02  0.54961502683E+02  0.19970644986E+03  0.17200000000E+03 0.  1.
         -6    1    1    2    0  502  0.70374325562E+02  0.48221920727E+02  0.10940009700E+04  0.11107204967E+04  0.17200000000E+03 0.  1.
<mgrwt>
<rscale>  2 0.19199453E+03</rscale>
<asrwt>0</asrwt>
<pdfrwt beam="1">  1       21 0.30742362E+00 0.19199453E+03</pdfrwt>
<pdfrwt beam="2">  1       21 0.20183063E-01 0.19199453E+03</pdfrwt>
<totfact> 0.70267052E+02</totfact>
</mgrwt>
</event>
<event>
 4    1  0.1101825E+000  0.1819983E+03  0.7546771E-02  0.1165883E+00
         21   -1    0    0  501  502  0.00000000000E+00  0.00000000000E+00  0.62007434861E+03  0.62007434861E+03  0.00000000000E+00 0.  1.
         21   -1    0    0  502  503 -0.00000000000E+00 -0.00000000000E+00 -0.58464311758E+02  0.58464311758E+02  0.00000000000E+00 0.  1.
          6    1    1    2  501    0 -0.58770906951E+02  0.92388592425E+01  0.38047611891E+03  0.42176468923E+03  0.17200000000E+03 0.  1.
         -6    1    1    2    0  503  0.58770906951E+02 -0.92388592425E+01  0.18113391795E+03  0.25677397114E+03  0.17200000000E+03 0.  1.
<mgrwt>
<rscale>  2 0.18199829E+03</rscale>
<asrwt>0</asrwt>
<pdfrwt beam="1">  1       21 0.15501857E+00 0.18199829E+03</pdfrwt>
<pdfrwt beam="2">  1       21 0.14616080E-01 0.18199829E+03</pdfrwt>
<totfact> 0.11358316E+04</totfact>
</mgrwt>
</event>
<event>
 4    1  0.1101825E+000  0.2066796E+03  0.7546771E-02  0.1144223E+00
         21   -1    0    0  501  502  0.00000000000E+00  0.00000000000E+00  0.47376330911E+03  0.47376330911E+03  0.00000000000E+00 0.  1.
         21   -1    0    0  502  503 -0.00000000000E+00 -0.00000000000E+00 -0.99666701177E+02  0.99666701177E+02  0.00000000000E+00 0. -1.
          6    1    1    2  501    0 -0.67540667906E+02 -0.92578196906E+02  0.27557934498E+03  0.34447124661E+03  0.17200000000E+03 0.  1.
         -6    1    1    2    0  503  0.67540667906E+02  0.92578196906E+02  0.98517262955E+02  0.22895876368E+03  0.17200000000E+03 0. -1.
<mgrwt>
<rscale>  2 0.20667962E+03</rscale>
<asrwt>0</asrwt>
<pdfrwt beam="1">  1       21 0.11844082E+00 0.20667962E+03</pdfrwt>
<pdfrwt beam="2">  1       21 0.24916677E-01 0.20667962E+03</pdfrwt>
<totfact> 0.82294778E+03</totfact>
</mgrwt>
</event>
<event>
 4    1  0.1101825E+000  0.1734850E+03  0.7546771E-02  0.1174261E+00
         21   -1    0    0  501  502  0.00000000000E+00  0.00000000000E+00  0.38801559441E+03  0.38801559441E+03  0.00000000000E+00 0.  1.
         21   -1    0    0  502  503 -0.00000000000E+00 -0.00000000000E+00 -0.14126047746E+03  0.14126047746E+03  0.00000000000E+00 0.  1.
          6    1    1    2  501    0  0.17877566255E+02 -0.13908717715E+02  0.30107889377E+03  0.34748461847E+03  0.17200000000E+03 0.  1.
         -6    1    1    2    0  503 -0.17877566255E+02  0.13908717715E+02 -0.54323776815E+02  0.18179145340E+03  0.17200000000E+03 0.  1.
<mgrwt>
<rscale>  2 0.17348504E+03</rscale>
<asrwt>0</asrwt>
<pdfrwt beam="1">  1       21 0.97003896E-01 0.17348504E+03</pdfrwt>
<pdfrwt beam="2">  1       21 0.35315120E-01 0.17348504E+03</pdfrwt>
<totfact> 0.69204398E+03</totfact>
</mgrwt>
</event>
<event>
 4    1  0.1101825E+000  0.3196848E+03  0.7546771E-02  0.1075794E+00
         21   -1    0    0  503  502  0.00000000000E+00  0.00000000000E+00  0.92247987224E+02  0.92247987224E+02  0.00000000000E+00 0.  1.
         21   -1    0    0  501  503 -0.00000000000E+00 -0.00000000000E+00 -0.11110400013E+04  0.11110400013E+04  0.00000000000E+00 0. -1.
          6    1    1    2  501    0  0.24762866299E+03 -0.10627524932E+03 -0.47723741536E+03  0.57441616792E+03  0.17200000000E+03 0. -1.
         -6    1    1    2    0  502 -0.24762866299E+03  0.10627524932E+03 -0.54155459869E+03  0.62887182058E+03  0.17200000000E+03 0.  1.
<mgrwt>
<rscale>  2 0.31968482E+03</rscale>
<asrwt>0</asrwt>
<pdfrwt beam="1">  1       21 0.23061997E-01 0.31968482E+03</pdfrwt>
<pdfrwt beam="2">  1       21 0.27776000E+00 0.31968482E+03</pdfrwt>
<totfact> 0.71102220E+02</totfact>
</mgrwt>
</event>
<event>
 4    1  0.1101825E+000  0.2052803E+03  0.7546771E-02  0.1145359E+00
         21   -1    0    0  501  502  0.00000000000E+00  0.00000000000E+00  0.81270422147E+02  0.81270422147E+02  0.00000000000E+00 0. -1.
         21   -1    0    0  502  503 -0.00000000000E+00 -0.00000000000E+00 -0.55004198568E+03  0.55004198568E+03  0.00000000000E+00 0. -1.
          6    1    1    2  501    0  0.78451754698E+02  0.80008273898E+02 -0.15881536708E+03  0.25954252547E+03  0.17200000000E+03 0. -1.
         -6    1    1    2    0  503 -0.78451754698E+02 -0.80008273898E+02 -0.30995619645E+03  0.37176988235E+03  0.17200000000E+03 0. -1.
<mgrwt>
<rscale>  2 0.20528030E+03</rscale>
<asrwt>0</asrwt>
<pdfrwt beam="1">  1       21 0.20317606E-01 0.20528030E+03</pdfrwt>
<pdfrwt beam="2">  1       21 0.13751049E+00 0.20528030E+03</pdfrwt>
<totfact> 0.83197630E+03</totfact>
</mgrwt>
</event>
<event>
 4    1  0.1101825E+000  0.1745115E+03  0.7546771E-02  0.1173223E+00
         21   -1    0    0  503  502  0.00000000000E+00  0.00000000000E+00  0.32531570219E+03  0.32531570219E+03  0.00000000000E+00 0. -1.
         21   -1    0    0  501  503 -0.00000000000E+00 -0.00000000000E+00 -0.16506951136E+03  0.16506951136E+03  0.00000000000E+00 0. -1.
          6    1    1    2  501    0 -0.21883739482E+02  0.19782526746E+02 -0.81197744608E+02  0.19247680418E+03  0.17200000000E+03 0. -1.
         -6    1    1    2    0  502  0.21883739482E+02 -0.19782526746E+02  0.24144393543E+03  0.29790840937E+03  0.17200000000E+03 0. -1.
<mgrwt>
<rscale>  2 0.17451145E+03</rscale>
<asrwt>0</asrwt>
<pdfrwt beam="1">  1       21 0.81328925E-01 0.17451145E+03</pdfrwt>
<pdfrwt beam="2">  1       21 0.41267378E-01 0.17451145E+03</pdfrwt>
<totfact> 0.75949305E+03</totfact>
</mgrwt>
</event>
<event>
 4    1  0.1101825E+000  0.2436112E+03  0.7546771E-02  0.1117410E+00
         21   -1    0    0  501  502  0.00000000000E+00  0.00000000000E+00  0.11689802289E+03  0.11689802289E+03  0.00000000000E+00 0.  1.
         21   -1    0    0  502  503 -0.00000000000E+00 -0.00000000000E+00 -0.64232567428E+03  0.64232567428E+03  0.00000000000E+00 0.  1.
          6    1    1    2  501    0  0.46967590433E+02 -0.16600132768E+03 -0.88908235018E+02  0.25932811185E+03  0.17200000000E+03 0.  1.
         -6    1    1    2    0  503 -0.46967590433E+02  0.16600132768E+03 -0.43651941637E+03  0.49989558531E+03  0.17200000000E+03 0.  1.
<mgrwt>
<rscale>  2 0.24361116E+03</rscale>
<asrwt>0</asrwt>
<pdfrwt beam="1">  1       21 0.29224506E-01 0.24361116E+03</pdfrwt>
<pdfrwt beam="2">  1       21 0.16058142E+00 0.24361116E+03</pdfrwt>
<totfact> 0.26764062E+03</totfact>
</mgrwt>
</event>
<event>
 4    1  0.1101825E+000  0.3342367E+03  0.7546771E-02  0.1069277E+00
         21   -1    0    0  503  502  0.00000000000E+00  0.00000000000E+00  0.46842240304E+03  0.46842240304E+03  0.00000000000E+00 0. -1.
         21   -1    0    0  501  503 -0.00000000000E+00 -0.00000000000E+00 -0.24282088712E+03  0.24282088712E+03  0.00000000000E+00 0.  1.
          6    1    1    2  501    0 -0.27871528340E+03 -0.66693050469E+02  0.16029286876E+03  0.37068581839E+03  0.17200000000E+03 0.  1.
         -6    1    1    2    0  502  0.27871528340E+03  0.66693050469E+02  0.65308647166E+02  0.34055747177E+03  0.17200000000E+03 0. -1.
<mgrwt>
<rscale>  2 0.33423670E+03</rscale>
<asrwt>0</asrwt>
<pdfrwt beam="1">  1       21 0.11710560E+00 0.33423670E+03</pdfrwt>
<pdfrwt beam="2">  1       21 0.60705222E-01 0.33423670E+03</pdfrwt>
<totfact> 0.12761335E+03</totfact>
</mgrwt>
</event>
<event>
 4    1  0.1101825E+000  0.1823581E+03  0.7546771E-02  0.1165540E+00
         21   -1    0    0  501  502  0.00000000000E+00  0.00000000000E+00  0.39599960531E+03  0.39599960531E+03  0.00000000000E+00 0. -1.
         21   -1    0    0  502  503 -0.00000000000E+00 -0.00000000000E+00 -0.91892606421E+02  0.91892606421E+02  0.00000000000E+00 0. -1.
          6    1    1    2  501    0  0.58005236195E+02 -0.17488701203E+02  0.80451824016E+02  0.19931622634E+03  0.17200000000E+03 0. -1.
         -6    1    1    2    0  503 -0.58005236195E+02  0.17488701203E+02  0.22365517488E+03  0.28857598539E+03  0.17200000000E+03 0. -1.
<mgrwt>
<rscale>  2 0.18235806E+03</rscale>
<asrwt>0</asrwt>
<pdfrwt beam="1">  1       21 0.98999897E-01 0.18235806E+03</pdfrwt>
<pdfrwt beam="2">  1       21 0.22973153E-01 0.18235806E+03</pdfrwt>
<totfact> 0.15055471E+04</totfact>
</mgrwt>
</event>
<event>
 4    1  0.1101825E+000  0.1971013E+03  0.7546771E-02  0.1152208E+00
         21   -1    0    0  501  502  0.00000000000E+00  0.00000000000E+00  0.10761878384E+03  0.10761878384E+03  0.00000000000E+00 0.  1.
         21   -1    0    0  502  503 -0.00000000000E+00 -0.00000000000E+00 -0.69132576042E+03  0.69132576042E+03  0.00000000000E+00 0.  1.
          6    1    1    2  501    0 -0.90168619100E+02  0.33682712692E+02 -0.15715913069E+02  0.19772681894E+03  0.17200000000E+03 0.  1.
         -6    1    1    2    0  503  0.90168619100E+02 -0.33682712692E+02 -0.56799106352E+03  0.60121772532E+03  0.17200000000E+03 0.  1.
<mgrwt>
<rscale>  2 0.19710126E+03</rscale>
<asrwt>0</asrwt>
<pdfrwt beam="1">  1       21 0.26904696E-01 0.19710126E+03</pdfrwt>
<pdfrwt beam="2">  1       21 0.17283144E+00 0.19710126E+03</pdfrwt>
<totfact> 0.26713146E+03</totfact>
</mgrwt>
</event>
<event>
 4    1  0.1101825E+000  0.2229774E+03  0.7546771E-02  0.1131683E+00
         21   -1    0    0  501  502  0.00000000000E+00  0.00000000000E+00  0.28655798194E+03  0.28655798194E+03  0.00000000000E+00 0.  1.
         21   -1    0    0  502  503 -0.00000000000E+00 -0.00000000000E+00 -0.28677723201E+03  0.28677723201E+03  0.00000000000E+00 0.  1.
          6    1    1    2  501    0  0.14183796331E+03 -0.41130323875E+01  0.18005525708E+03  0.28659870983E+03  0.17200000000E+03 0.  1.
         -6    1    1    2    0  503 -0.14183796331E+03  0.41130323875E+01 -0.18027450716E+03  0.28673650413E+03  0.17200000000E+03 0.  1.
<mgrwt>
<rscale>  2 0.22297741E+03</rscale>
<asrwt>0</asrwt>
<pdfrwt beam="1">  1       21 0.71639496E-01 0.22297741E+03</pdfrwt>
<pdfrwt beam="2">  1       21 0.71694308E-01 0.22297741E+03</pdfrwt>
<totfact> 0.30190401E+03</totfact>
</mgrwt>
</event>
<event>
 4    1  0.1101825E+000  0.2068018E+03  0.7546771E-02  0.1144124E+00
         21   -1    0    0  501  502  0.00000000000E+00  0.00000000000E+00  0.19976829740E+03  0.19976829740E+03  0.00000000000E+00 0.  1.
         21   -1    0    0  502  503 -0.00000000000E+00 -0.00000000000E+00 -0.86069280316E+03  0.86069280316E+03  0.00000000000E+00 0.  1.
          6    1    1    2  501    0  0.10459324007E+03 -0.47362629314E+02  0.12911852617E+03  0.24380024266E+03  0.17200000000E+03 0.  1.
         -6    1    1    2    0  503 -0.10459324007E+03  0.47362629314E+02 -0.79004303193E+03  0.81666085790E+03  0.17200000000E+03 0.  1.
<mgrwt>
<rscale>  2 0.20680175E+03</rscale>
<asrwt>0</asrwt>
<pdfrwt beam="1">  1       21 0.49942074E-01 0.20680175E+03</pdfrwt>
<pdfrwt beam="2">  1       21 0.21517320E+00 0.20680175E+03</pdfrwt>
<totfact> 0.40434312E+02</totfact>
</mgrwt>
</event>
<event>
 4    1  0.1101825E+000  0.1727570E+03  0.7546771E-02  0.1175003E+00
         21   -1    0    0  503  502  0.00000000000E+00  0.00000000000E+00  0.66058038457E+03  0.66058038457E+03  0.00000000000E+00 0.  1.
         21   -1    0    0  501  503 -0.00000000000E+00 -0.00000000000E+00 -0.66676180758E+02  0.66676180758E+02  0.00000000000E+00 0.  1.
          6    1    1    2  501    0  0.16083152212E+02 -0.15223230719E+01  0.90483741779E+02  0.19501869854E+03  0.17200000000E+03 0.  1.
         -6    1    1    2    0  502 -0.16083152212E+02  0.15223230719E+01  0.50342046204E+03  0.53223786679E+03  0.17200000000E+03 0.  1.
<mgrwt>
<rscale>  2 0.17275701E+03</rscale>
<asrwt>0</asrwt>
<pdfrwt beam="1">  1       21 0.16514508E+00 0.17275701E+03</pdfrwt>
<pdfrwt beam="2">  1       21 0.16669047E-01 0.17275701E+03</pdfrwt>
<totfact> 0.75979595E+03</totfact>
</mgrwt>
</event>
<event>
 4    1  0.1101825E+000  0.1752939E+03  0.7546771E-02  0.1172437E+00
         21   -1    0    0  501  502  0.00000000000E+00  0.00000000000E+00  0.92098963082E+02  0.92098963082E+02  0.00000000000E+00 0. -1.
         21   -1    0    0  502  503 -0.00000000000E+00 -0.00000000000E+00 -0.38893305058E+03  0.38893305058E+03  0.00000000000E+00 0. -1.
          6    1    1    2  501    0 -0.28759961462E+02  0.17798861704E+02 -0.57731039770E+02  0.18455570382E+03  0.17200000000E+03 0. -1.
         -6    1    1    2    0  503  0.28759961462E+02 -0.17798861704E+02 -0.23910304773E+03  0.29647630983E+03  0.17200000000E+03 0. -1.
<mgrwt>
<rscale>  2 0.17529385E+03</rscale>
<asrwt>0</asrwt>
<pdfrwt beam="1">  1       21 0.23024741E-01 0.17529385E+03</pdfrwt>
<pdfrwt beam="2">  1       21 0.97233260E-01 0.17529385E+03</pdfrwt>
<totfact> 0.15714903E+04</totfact>
</mgrwt>
</event>
<event>
 4    1  0.1101825E+000  0.1775598E+03  0.7546771E-02  0.1170186E+00
         21   -1    0    0  503  502  0.00000000000E+00  0.00000000000E+00  0.87600514816E+03  0.87600514816E+03  0.00000000000E+00 0. -1.
         21   -1    0    0  501  503 -0.00000000000E+00 -0.00000000000E+00 -0.67934287644E+02  0.67934287644E+02  0.00000000000E+00 0. -1.
          6    1    1    2  501    0  0.16679032021E+01  0.44053315504E+02  0.80392720860E+02  0.19491143136E+03  0.17200000000E+03 0. -1.
         -6    1    1    2    0  502 -0.16679032021E+01 -0.44053315504E+02  0.72767813965E+03  0.74902800444E+03  0.17200000000E+03 0. -1.
<mgrwt>
<rscale>  2 0.17755978E+03</rscale>
<asrwt>0</asrwt>
<pdfrwt beam="1">  1       21 0.21900125E+00 0.17755978E+03</pdfrwt>
<pdfrwt beam="2">  1       21 0.16983575E-01 0.17755978E+03</pdfrwt>
<totfact> 0.32398122E+03</totfact>
</mgrwt>
</event>
<event>
 4    1  0.1101825E+000  0.3164236E+03  0.7546771E-02  0.1077307E+00
         21   -1    0    0  501  502  0.00000000000E+00  0.00000000000E+00  0.50332054220E+03  0.50332054220E+03  0.00000000000E+00 0. -1.
         21   -1    0    0  502  503 -0.00000000000E+00 -0.00000000000E+00 -0.26693444421E+03  0.26693444421E+03  0.00000000000E+00 0.  1.
          6    1    1    2  501    0  0.53521542064E+02  0.26014484149E+03  0.31258639814E+03  0.44478551047E+03  0.17200000000E+03 0. -1.
         -6    1    1    2    0  503 -0.53521542064E+02 -0.26014484149E+03 -0.76200300154E+02  0.32546947593E+03  0.17200000000E+03 0.  1.
<mgrwt>
<rscale>  2 0.31642360E+03</rscale>
<asrwt>0</asrwt>
<pdfrwt beam="1">  1       21 0.12583013E+00 0.31642360E+03</pdfrwt>
<pdfrwt beam="2">  1       21 0.66733612E-01 0.31642360E+03</pdfrwt>
<totfact> 0.87364874E+02</totfact>
</mgrwt>
</event>
<event>
 4    1  0.1101825E+000  0.1897604E+03  0.7546771E-02  0.1158678E+00
         21   -1    0    0  501  502  0.00000000000E+00  0.00000000000E+00  0.49549367667E+03  0.49549367667E+03  0.00000000000E+00 0. -1.
         21   -1    0    0  502  503 -0.00000000000E+00 -0.00000000000E+00 -0.85175983434E+02  0.85175983434E+02  0.00000000000E+00 0. -1.
          6    1    1    2  501    0 -0.51983372480E+02  0.61014330710E+02  0.31639529712E+03  0.36893766900E+03  0.17200000000E+03 0. -1.
         -6    1    1    2    0  503  0.51983372480E+02 -0.61014330710E+02  0.93922396119E+02  0.21173199111E+03  0.17200000000E+03 0. -1.
<mgrwt>
<rscale>  2 0.18976043E+03</rscale>
<asrwt>0</asrwt>
<pdfrwt beam="1">  1       21 0.12387341E+00 0.18976043E+03</pdfrwt>
<pdfrwt beam="2">  1       21 0.21293997E-01 0.18976043E+03</pdfrwt>
<totfact> 0.10036340E+04</totfact>
</mgrwt>
</event>
<event>
 4    1  0.1101825E+000  0.2221321E+03  0.7546771E-02  0.1132303E+00
         21   -1    0    0  501  502  0.00000000000E+00  0.00000000000E+00  0.57537871762E+02  0.57537871762E+02  0.00000000000E+00 0. -1.
         21   -1    0    0  502  503 -0.00000000000E+00 -0.00000000000E+00 -0.12353266736E+04  0.12353266736E+04  0.00000000000E+00 0.  1.
          6    1    1    2  501    0  0.11909127892E+03 -0.74672199701E+02 -0.94636392181E+03  0.97208402036E+03  0.17200000000E+03 0.  1.
         -6    1    1    2    0  503 -0.11909127892E+03  0.74672199701E+02 -0.23142487999E+03  0.32078052497E+03  0.17200000000E+03 0. -1.
<mgrwt>
<rscale>  2 0.22213210E+03</rscale>
<asrwt>0</asrwt>
<pdfrwt beam="1">  1       21 0.14384468E-01 0.22213210E+03</pdfrwt>
<pdfrwt beam="2">  1       21 0.30883166E+00 0.22213210E+03</pdfrwt>
<totfact> 0.12383126E+03</totfact>
</mgrwt>
</event>
<event>
 4    1  0.1101825E+000  0.1895726E+03  0.7546771E-02  0.1158847E+00
         21   -1    0    0  503  502  0.00000000000E+00  0.00000000000E+00  0.15958922105E+04  0.15958922105E+04  0.00000000000E+00 0. -1.
         21   -1    0    0  501  503 -0.00000000000E+00 -0.00000000000E+00 -0.13220781781E+03  0.13220781781E+03  0.00000000000E+00 0. -1.
          6    1    1    2  501    0  0.58417972129E+02 -0.54232119186E+02 -0.55188430654E+02  0.19744251087E+03  0.17200000000E+03 0. -1.
         -6    1    1    2    0  502 -0.58417972129E+02  0.54232119186E+02  0.15188728234E+04  0.15306575175E+04  0.17200000000E+03 0. -1.
<mgrwt>
<rscale>  2 0.18957263E+03</rscale>
<asrwt>0</asrwt>
<pdfrwt beam="1">  1       21 0.39897299E+00 0.18957263E+03</pdfrwt>
<pdfrwt beam="2">  1       21 0.33051959E-01 0.18957263E+03</pdfrwt>
<totfact> 0.78375880E+01</totfact>
</mgrwt>
</event>
<event>
 4    1  0.1101825E+000  0.1769830E+03  0.7546771E-02  0.1170755E+00
         21   -1    0    0  501  502  0.00000000000E+00  0.00000000000E+00  0.35771321624E+03  0.35771321624E+03  0.00000000000E+00 0. -1.
         21   -1    0    0  502  503 -0.00000000000E+00 -0.00000000000E+00 -0.11478146641E+03  0.11478146641E+03  0.00000000000E+00 0. -1.
          6    1    1    2  501    0  0.18309690981E+02 -0.37466519991E+02  0.23650637756E+03  0.29539507702E+03  0.17200000000E+03 0. -1.
         -6    1    1    2    0  503 -0.18309690981E+02  0.37466519991E+02  0.64253722806E+01  0.17709960563E+03  0.17200000000E+03 0. -1.
<mgrwt>
<rscale>  2 0.17698301E+03</rscale>
<asrwt>0</asrwt>
<pdfrwt beam="1">  1       21 0.89428301E-01 0.17698301E+03</pdfrwt>
<pdfrwt beam="2">  1       21 0.28695367E-01 0.17698301E+03</pdfrwt>
<totfact> 0.12519632E+04</totfact>
</mgrwt>
</event>
<event>
 4    1  0.1101825E+000  0.1744134E+03  0.7546771E-02  0.1173322E+00
         21   -1    0    0  501  502  0.00000000000E+00  0.00000000000E+00  0.43165377243E+02  0.43165377243E+02  0.00000000000E+00 0.  1.
         21   -1    0    0  502  503 -0.00000000000E+00 -0.00000000000E+00 -0.13101000467E+04  0.13101000467E+04  0.00000000000E+00 0.  1.
          6    1    1    2  501    0  0.12662536727E+01  0.28886314454E+02 -0.17351745836E+03  0.24602506156E+03  0.17200000000E+03 0.  1.
         -6    1    1    2    0  503 -0.12662536727E+01 -0.28886314454E+02 -0.10934172111E+04  0.11072403624E+04  0.17200000000E+03 0.  1.
<mgrwt>
<rscale>  2 0.17441337E+03</rscale>
<asrwt>0</asrwt>
<pdfrwt beam="1">  1       21 0.10791344E-01 0.17441337E+03</pdfrwt>
<pdfrwt beam="2">  1       21 0.32752501E+00 0.17441337E+03</pdfrwt>
<totfact> 0.17224885E+03</totfact>
</mgrwt>
</event>
<event>
 4    1  0.1101825E+000  0.2235100E+03  0.7546771E-02  0.1131293E+00
         21   -1    0    0  501  502  0.00000000000E+00  0.00000000000E+00  0.11328837403E+03  0.11328837403E+03  0.00000000000E+00 0.  1.
         21   -1    0    0  502  503 -0.00000000000E+00 -0.00000000000E+00 -0.44331223893E+03  0.44331223893E+03  0.00000000000E+00 0.  1.
          6    1    1    2  501    0  0.63023145247E+02  0.12806558335E+03 -0.18524336535E+03  0.29029608141E+03  0.17200000000E+03 0.  1.
         -6    1    1    2    0  503 -0.63023145247E+02 -0.12806558335E+03 -0.14478049955E+03  0.26630453155E+03  0.17200000000E+03 0.  1.
<mgrwt>
<rscale>  2 0.22350998E+03</rscale>
<asrwt>0</asrwt>
<pdfrwt beam="1">  1       21 0.28322094E-01 0.22350998E+03</pdfrwt>
<pdfrwt beam="2">  1       21 0.11082806E+00 0.22350998E+03</pdfrwt>
<totfact> 0.74751756E+03</totfact>
</mgrwt>
</event>
<event>
 4    1  0.1101825E+000  0.1848348E+03  0.7546771E-02  0.1163204E+00
         21   -1    0    0  503  502  0.00000000000E+00  0.00000000000E+00  0.72856187971E+03  0.72856187971E+03  0.00000000000E+00 0. -1.
         21   -1    0    0  501  503 -0.00000000000E+00 -0.00000000000E+00 -0.46932189687E+02  0.46932189687E+02  0.00000000000E+00 0. -1.
          6    1    1    2  501    0 -0.27818663517E+02 -0.61693054262E+02  0.32950447683E+03  0.37780565273E+03  0.17200000000E+03 0. -1.
         -6    1    1    2    0  502  0.27818663517E+02  0.61693054262E+02  0.35212521319E+03  0.39768841666E+03  0.17200000000E+03 0. -1.
<mgrwt>
<rscale>  2 0.18483482E+03</rscale>
<asrwt>0</asrwt>
<pdfrwt beam="1">  1       21 0.18214043E+00 0.18483482E+03</pdfrwt>
<pdfrwt beam="2">  1       21 0.11733050E-01 0.18483482E+03</pdfrwt>
<totfact> 0.10818574E+04</totfact>
</mgrwt>
</event>
<event>
 4    1  0.1101825E+000  0.1789073E+03  0.7546771E-02  0.1168865E+00
         21   -1    0    0  501  502  0.00000000000E+00  0.00000000000E+00  0.29815379693E+03  0.29815379693E+03  0.00000000000E+00 0.  1.
         21   -1    0    0  502  503 -0.00000000000E+00 -0.00000000000E+00 -0.16837980800E+03  0.16837980800E+03  0.00000000000E+00 0.  1.
          6    1    1    2  501    0  0.47909966039E+02 -0.11334059792E+02  0.20531923094E+03  0.27233033682E+03  0.17200000000E+03 0.  1.
         -6    1    1    2    0  503 -0.47909966039E+02  0.11334059792E+02 -0.75545242010E+02  0.19420326812E+03  0.17200000000E+03 0.  1.
<mgrwt>
<rscale>  2 0.17890731E+03</rscale>
<asrwt>0</asrwt>
<pdfrwt beam="1">  1       21 0.74538448E-01 0.17890731E+03</pdfrwt>
<pdfrwt beam="2">  1       21 0.42094952E-01 0.17890731E+03</pdfrwt>
<totfact> 0.88415693E+03</totfact>
</mgrwt>
</event>
<event>
 4    1  0.1101825E+000  0.2639780E+03  0.7546771E-02  0.1104776E+00
         21   -1    0    0  503  502  0.00000000000E+00  0.00000000000E+00  0.21257890095E+03  0.21257890095E+03  0.00000000000E+00 0.  1.
         21   -1    0    0  501  503 -0.00000000000E+00 -0.00000000000E+00 -0.34135619964E+03  0.34135619964E+03  0.00000000000E+00 0.  1.
          6    1    1    2  501    0  0.83893643682E+02 -0.18183022959E+03 -0.92040756334E+01  0.26413839337E+03  0.17200000000E+03 0.  1.
         -6    1    1    2    0  502 -0.83893643682E+02  0.18183022959E+03 -0.11957322306E+03  0.28979670722E+03  0.17200000000E+03 0.  1.
<mgrwt>
<rscale>  2 0.26397798E+03</rscale>
<asrwt>0</asrwt>
<pdfrwt beam="1">  1       21 0.53144725E-01 0.26397798E+03</pdfrwt>
<pdfrwt beam="2">  1       21 0.85339050E-01 0.26397798E+03</pdfrwt>
<totfact> 0.37837176E+03</totfact>
</mgrwt>
</event>
<event>
 4    1  0.1101825E+000  0.2072809E+03  0.7546771E-02  0.1143737E+00
         21   -1    0    0  503  502  0.00000000000E+00  0.00000000000E+00  0.20184118237E+03  0.20184118237E+03  0.00000000000E+00 0. -1.
         21   -1    0    0  501  503 -0.00000000000E+00 -0.00000000000E+00 -0.32275514926E+03  0.32275514926E+03  0.00000000000E+00 0.  1.
          6    1    1    2  501    0 -0.81232246312E+02 -0.82357172811E+02 -0.21350706204E+03  0.29757460795E+03  0.17200000000E+03 0.  1.
         -6    1    1    2    0  502  0.81232246312E+02  0.82357172811E+02  0.92593095146E+02  0.22702172368E+03  0.17200000000E+03 0. -1.
<mgrwt>
<rscale>  2 0.20728092E+03</rscale>
<asrwt>0</asrwt>
<pdfrwt beam="1">  1       21 0.50460296E-01 0.20728092E+03</pdfrwt>
<pdfrwt beam="2">  1       21 0.80688787E-01 0.20728092E+03</pdfrwt>
<totfact> 0.49858414E+03</totfact>
</mgrwt>
</event>
<event>
 4    1  0.1101825E+000  0.2860849E+03  0.7546771E-02  0.1092411E+00
         21   -1    0    0  503  502  0.00000000000E+00  0.00000000000E+00  0.10116032365E+04  0.10116032365E+04  0.00000000000E+00 0.  1.
         21   -1    0    0  501  503 -0.00000000000E+00 -0.00000000000E+00 -0.90288149213E+02  0.90288149213E+02  0.00000000000E+00 0.  1.
          6    1    1    2  501    0  0.23412336588E+02  0.22740372529E+03  0.63825988850E+03  0.69944283329E+03  0.17200000000E+03 0.  1.
         -6    1    1    2    0  502 -0.23412336588E+02 -0.22740372529E+03  0.28305519879E+03  0.40244855242E+03  0.17200000000E+03 0.  1.
<mgrwt>
<rscale>  2 0.28608494E+03</rscale>
<asrwt>0</asrwt>
<pdfrwt beam="1">  1       21 0.25290077E+00 0.28608494E+03</pdfrwt>
<pdfrwt beam="2">  1       21 0.22572040E-01 0.28608494E+03</pdfrwt>
<totfact> 0.10700234E+03</totfact>
</mgrwt>
</event>
<event>
 4    1  0.1101825E+000  0.1847492E+03  0.7546771E-02  0.1163284E+00
         21   -1    0    0  501  502  0.00000000000E+00  0.00000000000E+00  0.15610909825E+03  0.15610909825E+03  0.00000000000E+00 0. -1.
         21   -1    0    0  502  503 -0.00000000000E+00 -0.00000000000E+00 -0.41855862683E+03  0.41855862683E+03  0.00000000000E+00 0. -1.
          6    1    1    2  501    0  0.41361369331E+02  0.53268151276E+02  0.67353338487E+02  0.19664366509E+03  0.17200000000E+03 0. -1.
         -6    1    1    2    0  503 -0.41361369331E+02 -0.53268151276E+02 -0.32980286706E+03  0.37802405999E+03  0.17200000000E+03 0. -1.
<mgrwt>
<rscale>  2 0.18474918E+03</rscale>
<asrwt>0</asrwt>
<pdfrwt beam="1">  1       21 0.39027275E-01 0.18474918E+03</pdfrwt>
<pdfrwt beam="2">  1       21 0.10463966E+00 0.18474918E+03</pdfrwt>
<totfact> 0.46931819E+03</totfact>
</mgrwt>
</event>
<event>
 4    1  0.1101825E+000  0.2016544E+03  0.7546771E-02  0.1148351E+00
         21   -1    0    0  503  502  0.00000000000E+00  0.00000000000E+00  0.16592649674E+03  0.16592649674E+03  0.00000000000E+00 0. -1.
         21   -1    0    0  501  503 -0.00000000000E+00 -0.00000000000E+00 -0.30516102120E+03  0.30516102120E+03  0.00000000000E+00 0. -1.
          6    1    1    2  501    0 -0.96312672102E+02  0.42477756637E+02 -0.17413562779E+03  0.26643518439E+03  0.17200000000E+03 0. -1.
         -6    1    1    2    0  502  0.96312672102E+02 -0.42477756637E+02  0.34901103328E+02  0.20465233356E+03  0.17200000000E+03 0. -1.
<mgrwt>
<rscale>  2 0.20165438E+03</rscale>
<asrwt>0</asrwt>
<pdfrwt beam="1">  1       21 0.41481624E-01 0.20165438E+03</pdfrwt>
<pdfrwt beam="2">  1       21 0.76290255E-01 0.20165438E+03</pdfrwt>
<totfact> 0.85089333E+03</totfact>
</mgrwt>
</event>
<event>
 4    1  0.1101825E+000  0.1954926E+03  0.7546771E-02  0.1153599E+00
         21   -1    0    0  503  502  0.00000000000E+00  0.00000000000E+00  0.44029937087E+03  0.44029937087E+03  0.00000000000E+00 0.  1.
         21   -1    0    0  501  503 -0.00000000000E+00 -0.00000000000E+00 -0.10766618439E+03  0.10766618439E+03  0.00000000000E+00 0.  1.
          6    1    1    2  501    0 -0.87940031648E+02 -0.29998494835E+02  0.45696424584E+02  0.20076235224E+03  0.17200000000E+03 0.  1.
         -6    1    1    2    0  502  0.87940031648E+02  0.29998494835E+02  0.28693676190E+03  0.34720320302E+03  0.17200000000E+03 0.  1.
<mgrwt>
<rscale>  2 0.19549261E+03</rscale>
<asrwt>0</asrwt>
<pdfrwt beam="1">  1       21 0.11007484E+00 0.19549261E+03</pdfrwt>
<pdfrwt beam="2">  1       21 0.26916547E-01 0.19549261E+03</pdfrwt>
<totfact> 0.85548448E+03</totfact>
</mgrwt>
</event>
<event>
 4    1  0.1101825E+000  0.2037550E+03  0.7546771E-02  0.1146609E+00
         21   -1    0    0  503  502  0.00000000000E+00  0.00000000000E+00  0.50039896897E+02  0.50039896897E+02  0.00000000000E+00 0.  1.
         21   -1    0    0  501  503 -0.00000000000E+00 -0.00000000000E+00 -0.87806068000E+03  0.87806068000E+03  0.00000000000E+00 0. -1.
          6    1    1    2  501    0  0.76125226825E+02 -0.78339274087E+02 -0.30505987191E+03  0.36684822131E+03  0.17200000000E+03 0. -1.
         -6    1    1    2    0  502 -0.76125226825E+02  0.78339274087E+02 -0.52296091119E+03  0.56125235559E+03  0.17200000000E+03 0. -1.
<mgrwt>
<rscale>  2 0.20375498E+03</rscale>
<asrwt>0</asrwt>
<pdfrwt beam="1">  1       21 0.12509974E-01 0.20375498E+03</pdfrwt>
<pdfrwt beam="2">  1       21 0.21951517E+00 0.20375498E+03</pdfrwt>
<totfact> 0.54592340E+03</totfact>
</mgrwt>
</event>
<event>
 4    1  0.1101825E+000  0.2835583E+03  0.7546771E-02  0.1093761E+00
         21   -1    0    0  503  502  0.00000000000E+00  0.00000000000E+00  0.88007254548E+02  0.88007254548E+02  0.00000000000E+00 0. -1.
         21   -1    0    0  501  503 -0.00000000000E+00 -0.00000000000E+00 -0.97761851625E+03  0.97761851625E+03  0.00000000000E+00 0.  1.
          6    1    1    2  501    0  0.17209329624E+03 -0.14562013224E+03 -0.58112879462E+03  0.64661889971E+03  0.17200000000E+03 0.  1.
         -6    1    1    2    0  502 -0.17209329624E+03  0.14562013224E+03 -0.30848246708E+03  0.41900687109E+03  0.17200000000E+03 0. -1.
<mgrwt>
<rscale>  2 0.28355833E+03</rscale>
<asrwt>0</asrwt>
<pdfrwt beam="1">  1       21 0.22001814E-01 0.28355833E+03</pdfrwt>
<pdfrwt beam="2">  1       21 0.24440462E+00 0.28355833E+03</pdfrwt>
<totfact> 0.12663024E+03</totfact>
</mgrwt>
</event>
<event>
 4    1  0.1101825E+000  0.2193664E+03  0.7546771E-02  0.1134356E+00
         21   -1    0    0  501  502  0.00000000000E+00  0.00000000000E+00  0.11222502731E+03  0.11222502731E+03  0.00000000000E+00 0. -1.
         21   -1    0    0  502  503 -0.00000000000E+00 -0.00000000000E+00 -0.46921940190E+03  0.46921940190E+03  0.00000000000E+00 0. -1.
          6    1    1    2  501    0  0.96001276637E+01  0.13581397206E+03 -0.93165793756E+02  0.23833057417E+03  0.17200000000E+03 0. -1.
         -6    1    1    2    0  503 -0.96001276637E+01 -0.13581397206E+03 -0.26382858084E+03  0.34311385505E+03  0.17200000000E+03 0. -1.
<mgrwt>
<rscale>  2 0.21936635E+03</rscale>
<asrwt>0</asrwt>
<pdfrwt beam="1">  1       21 0.28056257E-01 0.21936635E+03</pdfrwt>
<pdfrwt beam="2">  1       21 0.11730485E+00 0.21936635E+03</pdfrwt>
<totfact> 0.66450406E+03</totfact>
</mgrwt>
</event>
<event>
 4    1  0.1101825E+000  0.1722671E+03  0.7546771E-02  0.1175504E+00
         21   -1    0    0  503  502  0.00000000000E+00  0.00000000000E+00  0.31596951137E+02  0.31596951137E+02  0.00000000000E+00 0. -1.
         21   -1    0    0  501  503 -0.00000000000E+00 -0.00000000000E+00 -0.10012496757E+04  0.10012496757E+04  0.00000000000E+00 0. -1.
          6    1    1    2  501    0 -0.48388718421E+01 -0.82786917118E+01 -0.35626990624E+03  0.39573248225E+03  0.17200000000E+03 0. -1.
         -6    1    1    2    0  502  0.48388718421E+01  0.82786917118E+01 -0.61338281832E+03  0.63711414459E+03  0.17200000000E+03 0. -1.
<mgrwt>
<rscale>  2 0.17226709E+03</rscale>
<asrwt>0</asrwt>
<pdfrwt beam="1">  1       21 0.78992374E-02 0.17226709E+03</pdfrwt>
<pdfrwt beam="2">  1       21 0.25031243E+00 0.17226709E+03</pdfrwt>
<totfact> 0.82939127E+03</totfact>
</mgrwt>
</event>
<event>
 4    1  0.1101825E+000  0.2441475E+03  0.7546771E-02  0.1117060E+00
         21   -1    0    0  501  502  0.00000000000E+00  0.00000000000E+00  0.77373361550E+03  0.77373361550E+03  0.00000000000E+00 0. -1.
         21   -1    0    0  502  503 -0.00000000000E+00 -0.00000000000E+00 -0.13082356135E+03  0.13082356135E+03  0.00000000000E+00 0. -1.
          6    1    1    2  501    0 -0.15018248943E+02  0.17262226565E+03  0.61144977719E+03  0.65839108775E+03  0.17200000000E+03 0. -1.
         -6    1    1    2    0  503  0.15018248943E+02 -0.17262226565E+03  0.31460276959E+02  0.24616608911E+03  0.17200000000E+03 0. -1.
<mgrwt>
<rscale>  2 0.24414748E+03</rscale>
<asrwt>0</asrwt>
<pdfrwt beam="1">  1       21 0.19343339E+00 0.24414748E+03</pdfrwt>
<pdfrwt beam="2">  1       21 0.32705893E-01 0.24414748E+03</pdfrwt>
<totfact> 0.12669985E+03</totfact>
</mgrwt>
</event>
<event>
 4    1  0.1101825E+000  0.2806866E+03  0.7546771E-02  0.1095315E+00
         21   -1    0    0  503  502  0.00000000000E+00  0.00000000000E+00  0.45906699712E+03  0.45906699712E+03  0.00000000000E+00 0.  1.
         21   -1    0    0  501  503 -0.00000000000E+00 -0.00000000000E+00 -0.25080656216E+03  0.25080656216E+03  0.00000000000E+00 0. -1.
          6    1    1    2  501    0 -0.18491481846E+03  0.12250506185E+03  0.30356820604E+03  0.41344725901E+03  0.17200000000E+03 0.  1.
         -6    1    1    2    0  502  0.18491481846E+03 -0.12250506185E+03 -0.95307771081E+02  0.29642630027E+03  0.17200000000E+03 0. -1.
<mgrwt>
<rscale>  2 0.28068662E+03</rscale>
<asrwt>0</asrwt>
<pdfrwt beam="1">  1       21 0.11476675E+00 0.28068662E+03</pdfrwt>
<pdfrwt beam="2">  1       21 0.62701641E-01 0.28068662E+03</pdfrwt>
<totfact> 0.12917823E+03</totfact>
</mgrwt>
</event>
<event>
 4    1  0.1101825E+000  0.2237193E+03  0.7546771E-02  0.1131140E+00
         21   -1    0    0  503  502  0.00000000000E+00  0.00000000000E+00  0.94821751098E+03  0.94821751098E+03  0.00000000000E+00 0.  1.
         21   -1    0    0  501  503 -0.00000000000E+00 -0.00000000000E+00 -0.52801381137E+02  0.52801381137E+02  0.00000000000E+00 0.  1.
          6    1    1    2  501    0 -0.44756986045E+01  0.14299056545E+03  0.43852323672E+03  0.49229357383E+03  0.17200000000E+03 0.  1.
         -6    1    1    2    0  502  0.44756986045E+01 -0.14299056545E+03  0.45689289311E+03  0.50872531828E+03  0.17200000000E+03 0.  1.
<mgrwt>
<rscale>  2 0.22371932E+03</rscale>
<asrwt>0</asrwt>
<pdfrwt beam="1">  1       21 0.23705432E+00 0.22371932E+03</pdfrwt>
<pdfrwt beam="2">  1       21 0.13200348E-01 0.22371932E+03</pdfrwt>
<totfact> 0.38047799E+03</totfact>
</mgrwt>
</event>
<event>
 4    1  0.1101825E+000  0.2069124E+03  0.7546771E-02  0.1144035E+00
         21   -1    0    0  503  502  0.00000000000E+00  0.00000000000E+00  0.67568652397E+03  0.67568652397E+03  0.00000000000E+00 0.  1.
         21   -1    0    0  501  503 -0.00000000000E+00 -0.00000000000E+00 -0.43731328840E+03  0.43731328840E+03  0.00000000000E+00 0.  1.
          6    1    1    2  501    0  0.11464311961E+03  0.92575663793E+01 -0.39542118037E+03  0.44628539892E+03  0.17200000000E+03 0.  1.
         -6    1    1    2    0  502 -0.11464311961E+03 -0.92575663793E+01  0.63379441594E+03  0.66671441344E+03  0.17200000000E+03 0.  1.
<mgrwt>
<rscale>  2 0.20691241E+03</rscale>
<asrwt>0</asrwt>
<pdfrwt beam="1">  1       21 0.16892163E+00 0.20691241E+03</pdfrwt>
<pdfrwt beam="2">  1       21 0.10932832E+00 0.20691241E+03</pdfrwt>
<totfact> 0.14125793E+02</totfact>
</mgrwt>
</event>
<event>
 4    1  0.1101825E+000  0.3116556E+03  0.7546771E-02  0.1079555E+00
         21   -1    0    0  501  502  0.00000000000E+00  0.00000000000E+00  0.10953371884E+04  0.10953371884E+04  0.00000000000E+00 0.  1.
         21   -1    0    0  502  503 -0.00000000000E+00 -0.00000000000E+00 -0.14095608902E+03  0.14095608902E+03  0.00000000000E+00 0. -1.
          6    1    1    2  501    0 -0.75782362490E+02  0.24860055565E+03  0.85365262393E+03  0.90876399856E+03  0.17200000000E+03 0.  1.
         -6    1    1    2    0  503  0.75782362490E+02 -0.24860055565E+03  0.10072847544E+03  0.32752927884E+03  0.17200000000E+03 0. -1.
<mgrwt>
<rscale>  2 0.31165558E+03</rscale>
<asrwt>0</asrwt>
<pdfrwt beam="1">  1       21 0.27383427E+00 0.31165558E+03</pdfrwt>
<pdfrwt beam="2">  1       21 0.35239025E-01 0.31165558E+03</pdfrwt>
<totfact> 0.32887873E+02</totfact>
</mgrwt>
</event>
<event>
 4    1  0.1101825E+000  0.2605008E+03  0.7546771E-02  0.1106843E+00
         21   -1    0    0  503  502  0.00000000000E+00  0.00000000000E+00  0.13843623053E+03  0.13843623053E+03  0.00000000000E+00 0. -1.
         21   -1    0    0  501  503 -0.00000000000E+00 -0.00000000000E+00 -0.72289373769E+03  0.72289373769E+03  0.00000000000E+00 0.  1.
          6    1    1    2  501    0 -0.16542513520E+03  0.10445663553E+03 -0.53657175855E+03  0.59646451373E+03  0.17200000000E+03 0.  1.
         -6    1    1    2    0  502  0.16542513520E+03 -0.10445663553E+03 -0.47885748607E+02  0.26486545449E+03  0.17200000000E+03 0. -1.
<mgrwt>
<rscale>  2 0.26050079E+03</rscale>
<asrwt>0</asrwt>
<pdfrwt beam="1">  1       21 0.34609058E-01 0.26050079E+03</pdfrwt>
<pdfrwt beam="2">  1       21 0.18072343E+00 0.26050079E+03</pdfrwt>
<totfact> 0.13604455E+03</totfact>
</mgrwt>
</event>
<event>
 4    1  0.1101825E+000  0.1931745E+03  0.7546771E-02  0.1155629E+00
         21   -1    0    0  501  502  0.00000000000E+00  0.00000000000E+00  0.40468768763E+02  0.40468768763E+02  0.00000000000E+00 0.  1.
         21   -1    0    0  502  503 -0.00000000000E+00 -0.00000000000E+00 -0.98074206868E+03  0.98074206868E+03  0.00000000000E+00 0.  1.
          6    1    1    2  501    0 -0.67299631810E+02  0.56596265953E+02 -0.59499026484E+03  0.62556358032E+03  0.17200000000E+03 0.  1.
         -6    1    1    2    0  503  0.67299631810E+02 -0.56596265953E+02 -0.34528303508E+03  0.39564725713E+03  0.17200000000E+03 0.  1.
<mgrwt>
<rscale>  2 0.19317447E+03</rscale>
<asrwt>0</asrwt>
<pdfrwt beam="1">  1       21 0.10117193E-01 0.19317447E+03</pdfrwt>
<pdfrwt beam="2">  1       21 0.24518550E+00 0.19317447E+03</pdfrwt>
<totfact> 0.56396866E+03</totfact>
</mgrwt>
</event>
<event>
 4    1  0.1101825E+000  0.2491574E+03  0.7546771E-02  0.1113838E+00
         21   -1    0    0  501  502  0.00000000000E+00  0.00000000000E+00  0.35303575252E+03  0.35303575252E+03  0.00000000000E+00 0. -1.
         21   -1    0    0  502  503 -0.00000000000E+00 -0.00000000000E+00 -0.38045630836E+03  0.38045630836E+03  0.00000000000E+00 0. -1.
          6    1    1    2  501    0 -0.66507249067E+01  0.18014207159E+03  0.25524394384E+03  0.35669155999E+03  0.17200000000E+03 0. -1.
         -6    1    1    2    0  503  0.66507249067E+01 -0.18014207159E+03 -0.28266449968E+03  0.37680050090E+03  0.17200000000E+03 0. -1.
<mgrwt>
<rscale>  2 0.24915738E+03</rscale>
<asrwt>0</asrwt>
<pdfrwt beam="1">  1       21 0.88258938E-01 0.24915738E+03</pdfrwt>
<pdfrwt beam="2">  1       21 0.95114077E-01 0.24915738E+03</pdfrwt>
<totfact> 0.96471523E+02</totfact>
</mgrwt>
</event>
<event>
 4    1  0.1101825E+000  0.1816536E+03  0.7546771E-02  0.1166212E+00
         21   -1    0    0  503  502  0.00000000000E+00  0.00000000000E+00  0.10677546628E+03  0.10677546628E+03  0.00000000000E+00 0.  1.
         21   -1    0    0  501  503 -0.00000000000E+00 -0.00000000000E+00 -0.31336264619E+03  0.31336264619E+03  0.00000000000E+00 0.  1.
          6    1    1    2  501    0 -0.48315745639E+02 -0.32857827828E+02 -0.12796187491E+03  0.22219876138E+03  0.17200000000E+03 0.  1.
         -6    1    1    2    0  502  0.48315745639E+02  0.32857827828E+02 -0.78625304990E+02  0.19793935109E+03  0.17200000000E+03 0.  1.
<mgrwt>
<rscale>  2 0.18165365E+03</rscale>
<asrwt>0</asrwt>
<pdfrwt beam="1">  1       21 0.26693867E-01 0.18165365E+03</pdfrwt>
<pdfrwt beam="2">  1       21 0.78340661E-01 0.18165365E+03</pdfrwt>
<totfact> 0.19392027E+04</totfact>
</mgrwt>
</event>
<event>
 4    1  0.1101825E+000  0.1963238E+03  0.7546771E-02  0.1152878E+00
         21   -1    0    0  503  502  0.00000000000E+00  0.00000000000E+00  0.15555479570E+03  0.15555479570E+03  0.00000000000E+00 0.  1.
         21   -1    0    0  501  503 -0.00000000000E+00 -0.00000000000E+00 -0.26812227737E+03  0.26812227737E+03  0.00000000000E+00 0.  1.
          6    1    1    2  501    0 -0.78890560804E+02 -0.52300080699E+02 -0.11463660808E+03  0.22734240901E+03  0.17200000000E+03 0.  1.
         -6    1    1    2    0  502  0.78890560804E+02  0.52300080699E+02  0.20691264155E+01  0.19633466405E+03  0.17200000000E+03 0.  1.
<mgrwt>
<rscale>  2 0.19632376E+03</rscale>
<asrwt>0</asrwt>
<pdfrwt beam="1">  1       21 0.38888699E-01 0.19632376E+03</pdfrwt>
<pdfrwt beam="2">  1       21 0.67030569E-01 0.19632376E+03</pdfrwt>
<totfact> 0.12962254E+04</totfact>
</mgrwt>
</event>
<event>
 4    1  0.1101825E+000  0.1996115E+03  0.7546771E-02  0.1150067E+00
         21   -1    0    0  503  502  0.00000000000E+00  0.00000000000E+00  0.24111212252E+02  0.24111212252E+02  0.00000000000E+00 0.  1.
         21   -1    0    0  501  503 -0.00000000000E+00 -0.00000000000E+00 -0.16534060357E+04  0.16534060357E+04  0.00000000000E+00 0.  1.
          6    1    1    2  501    0 -0.48308821422E+02 -0.89033723250E+02 -0.83384203942E+03  0.85740147702E+03  0.17200000000E+03 0.  1.
         -6    1    1    2    0  502  0.48308821422E+02  0.89033723250E+02 -0.79545278402E+03  0.82011577092E+03  0.17200000000E+03 0.  1.
<mgrwt>
<rscale>  2 0.19961149E+03</rscale>
<asrwt>0</asrwt>
<pdfrwt beam="1">  1       21 0.60278043E-02 0.19961149E+03</pdfrwt>
<pdfrwt beam="2">  1       21 0.41335142E+00 0.19961149E+03</pdfrwt>
<totfact> 0.13909329E+03</totfact>
</mgrwt>
</event>
<event>
 4    1  0.1101825E+000  0.1722826E+03  0.7546771E-02  0.1175488E+00
         21   -1    0    0  501  502  0.00000000000E+00  0.00000000000E+00  0.65714249202E+03  0.65714249202E+03  0.00000000000E+00 0.  1.
         21   -1    0    0  502  503 -0.00000000000E+00 -0.00000000000E+00 -0.68256437257E+02  0.68256437257E+02  0.00000000000E+00 0.  1.
          6    1    1    2  501    0 -0.58865829989E+01 -0.79143444390E+01  0.50539319086E+03  0.53395090231E+03  0.17200000000E+03 0. -1.
         -6    1    1    2    0  503  0.58865829989E+01  0.79143444390E+01  0.83492863900E+02  0.19144802697E+03  0.17200000000E+03 0. -1.
<mgrwt>
<rscale>  2 0.17228258E+03</rscale>
<asrwt>0</asrwt>
<pdfrwt beam="1">  1       21 0.16428560E+00 0.17228258E+03</pdfrwt>
<pdfrwt beam="2">  1       21 0.17064111E-01 0.17228258E+03</pdfrwt>
<totfact> 0.73852705E+03</totfact>
</mgrwt>
</event>
<event>
 4    1  0.1101825E+000  0.2775188E+03  0.7546771E-02  0.1097052E+00
         21   -1    0    0  501  502  0.00000000000E+00  0.00000000000E+00  0.11989658917E+04  0.11989658917E+04  0.00000000000E+00 0. -1.
         21   -1    0    0  502  503 -0.00000000000E+00 -0.00000000000E+00 -0.67114052580E+02  0.67114052580E+02  0.00000000000E+00 0.  1.
          6    1    1    2  501    0  0.96899293946E+02  0.19504662277E+03  0.43483247115E+03  0.51584487609E+03  0.17200000000E+03 0.  1.
         -6    1    1    2    0  503 -0.96899293946E+02 -0.19504662277E+03  0.69701936801E+03  0.75023506823E+03  0.17200000000E+03 0.  1.
<mgrwt>
<rscale>  2 0.27751875E+03</rscale>
<asrwt>0</asrwt>
<pdfrwt beam="1">  1       21 0.29974140E+00 0.27751875E+03</pdfrwt>
<pdfrwt beam="2">  1       21 0.16778517E-01 0.27751875E+03</pdfrwt>
<totfact> 0.99534679E+02</totfact>
</mgrwt>
</event>
<event>
 4    1  0.1101825E+000  0.1881614E+03  0.7546771E-02  0.1160130E+00
         21   -1    0    0  503  502  0.00000000000E+00  0.00000000000E+00  0.35970967252E+02  0.35970967252E+02  0.00000000000E+00 0.  1.
         21   -1    0    0  501  503 -0.00000000000E+00 -0.00000000000E+00 -0.10469654324E+04  0.10469654324E+04  0.00000000000E+00 0. -1.
          6    1    1    2  501    0 -0.90260931530E+01 -0.75757733168E+02 -0.37298162142E+03  0.41775590290E+03  0.17200000000E+03 0. -1.
         -6    1    1    2    0  502  0.90260931530E+01  0.75757733168E+02 -0.63801284371E+03  0.66518049673E+03  0.17200000000E+03 0. -1.
<mgrwt>
<rscale>  2 0.18816138E+03</rscale>
<asrwt>0</asrwt>
<pdfrwt beam="1">  1       21 0.89927420E-02 0.18816138E+03</pdfrwt>
<pdfrwt beam="2">  1       21 0.26174135E+00 0.18816138E+03</pdfrwt>
<totfact> 0.55797094E+03</totfact>
</mgrwt>
</event>
<event>
 4    1  0.1101825E+000  0.1737816E+03  0.7546771E-02  0.1173961E+00
         21   -1    0    0  503  502  0.00000000000E+00  0.00000000000E+00  0.18343566166E+03  0.18343566166E+03  0.00000000000E+00 0.  1.
         21   -1    0    0  501  503 -0.00000000000E+00 -0.00000000000E+00 -0.20571665147E+03  0.20571665147E+03  0.00000000000E+00 0. -1.
          6    1    1    2  501    0  0.99435704534E+01 -0.22741040407E+02 -0.98091775240E+02  0.19955456868E+03  0.17200000000E+03 0. -1.
         -6    1    1    2    0  502 -0.99435704534E+01  0.22741040407E+02  0.75810785428E+02  0.18959774445E+03  0.17200000000E+03 0.  1.
<mgrwt>
<rscale>  2 0.17378156E+03</rscale>
<asrwt>0</asrwt>
<pdfrwt beam="1">  1       21 0.45858916E-01 0.17378156E+03</pdfrwt>
<pdfrwt beam="2">  1       21 0.51429163E-01 0.17378156E+03</pdfrwt>
<totfact> 0.16570787E+04</totfact>
</mgrwt>
</event>
<event>
 4    1  0.1101825E+000  0.1802837E+03  0.7546771E-02  0.1167529E+00
         21   -1    0    0  501  502  0.00000000000E+00  0.00000000000E+00  0.18742030126E+03  0.18742030126E+03  0.00000000000E+00 0. -1.
         21   -1    0    0  502  503 -0.00000000000E+00 -0.00000000000E+00 -0.40783666476E+03  0.40783666476E+03  0.00000000000E+00 0. -1.
          6    1    1    2  501    0  0.43959782715E+02  0.31396826115E+02  0.11543728572E+03  0.21407473023E+03  0.17200000000E+03 0. -1.
         -6    1    1    2    0  503 -0.43959782715E+02 -0.31396826115E+02 -0.33585364922E+03  0.38118223579E+03  0.17200000000E+03 0. -1.
<mgrwt>
<rscale>  2 0.18028373E+03</rscale>
<asrwt>0</asrwt>
<pdfrwt beam="1">  1       21 0.46855076E-01 0.18028373E+03</pdfrwt>
<pdfrwt beam="2">  1       21 0.10195917E+00 0.18028373E+03</pdfrwt>
<totfact> 0.34544690E+03</totfact>
</mgrwt>
</event>
<event>
 4    1  0.1101825E+000  0.2099065E+03  0.7546771E-02  0.1141640E+00
         21   -1    0    0  501  502  0.00000000000E+00  0.00000000000E+00  0.41338860840E+03  0.41338860840E+03  0.00000000000E+00 0. -1.
         21   -1    0    0  502  503 -0.00000000000E+00 -0.00000000000E+00 -0.11356360936E+03  0.11356360936E+03  0.00000000000E+00 0. -1.
          6    1    1    2  501    0 -0.11570889256E+03 -0.32987660397E+02  0.84595231040E+02  0.22631192340E+03  0.17200000000E+03 0. -1.
         -6    1    1    2    0  503  0.11570889256E+03  0.32987660397E+02  0.21522976800E+03  0.30064029436E+03  0.17200000000E+03 0. -1.
<mgrwt>
<rscale>  2 0.20990649E+03</rscale>
<asrwt>0</asrwt>
<pdfrwt beam="1">  1       21 0.10334715E+00 0.20990649E+03</pdfrwt>
<pdfrwt beam="2">  1       21 0.28390903E-01 0.20990649E+03</pdfrwt>
<totfact> 0.88916972E+03</totfact>
</mgrwt>
</event>
<event>
 4    1  0.1101825E+000  0.2265001E+03  0.7546771E-02  0.1129128E+00
         21   -1    0    0  503  502  0.00000000000E+00  0.00000000000E+00  0.37339756505E+03  0.37339756505E+03  0.00000000000E+00 0.  1.
         21   -1    0    0  501  503 -0.00000000000E+00 -0.00000000000E+00 -0.13796112267E+03  0.13796112267E+03  0.00000000000E+00 0.  1.
          6    1    1    2  501    0  0.35999501824E+02  0.14290665831E+03  0.13412303561E+03  0.26323234186E+03  0.17200000000E+03 0.  1.
         -6    1    1    2    0  502 -0.35999501824E+02 -0.14290665831E+03  0.10131340678E+03  0.24812634587E+03  0.17200000000E+03 0.  1.
<mgrwt>
<rscale>  2 0.22650006E+03</rscale>
<asrwt>0</asrwt>
<pdfrwt beam="1">  1       21 0.93349389E-01 0.22650006E+03</pdfrwt>
<pdfrwt beam="2">  1       21 0.34490281E-01 0.22650006E+03</pdfrwt>
<totfact> 0.76355914E+03</totfact>
</mgrwt>
</event>
<event>
 4    1  0.1101825E+000  0.1750853E+03  0.7546771E-02  0.1172646E+00
         21   -1    0    0  503  502  0.00000000000E+00  0.00000000000E+00  0.30697717598E+03  0.30697717598E+03  0.00000000000E+00 0.  1.
         21   -1    0    0  501  503 -0.00000000000E+00 -0.00000000000E+00 -0.15269589899E+03  0.15269589899E+03  0.00000000000E+00 0.  1.
          6    1    1    2  501    0  0.25701414107E+02  0.20255788396E+02  0.21233803954E+03  0.27521319497E+03  0.17200000000E+03 0.  1.
         -6    1    1    2    0  502 -0.25701414107E+02 -0.20255788396E+02 -0.58056762555E+02  0.18445988000E+03  0.17200000000E+03 0.  1.
<mgrwt>
<rscale>  2 0.17508529E+03</rscale>
<asrwt>0</asrwt>
<pdfrwt beam="1">  1       21 0.76744293E-01 0.17508529E+03</pdfrwt>
<pdfrwt beam="2">  1       21 0.38173975E-01 0.17508529E+03</pdfrwt>
<totfact> 0.10118450E+04</totfact>
</mgrwt>
</event>
<event>
 4    1  0.1101825E+000  0.2398435E+03  0.7546771E-02  0.1119897E+00
         21   -1    0    0  501  502  0.00000000000E+00  0.00000000000E+00  0.29028861831E+03  0.29028861831E+03  0.00000000000E+00 0.  1.
         21   -1    0    0  502  503 -0.00000000000E+00 -0.00000000000E+00 -0.21462211823E+03  0.21462211823E+03  0.00000000000E+00 0.  1.
          6    1    1    2  501    0 -0.16608495718E+03 -0.18885700325E+02  0.10774201036E+03  0.26293197500E+03  0.17200000000E+03 0.  1.
         -6    1    1    2    0  503  0.16608495718E+03  0.18885700325E+02 -0.32075510286E+02  0.24197876155E+03  0.17200000000E+03 0.  1.
<mgrwt>
<rscale>  2 0.23984345E+03</rscale>
<asrwt>0</asrwt>
<pdfrwt beam="1">  1       21 0.72572154E-01 0.23984345E+03</pdfrwt>
<pdfrwt beam="2">  1       21 0.53655530E-01 0.23984345E+03</pdfrwt>
<totfact> 0.54371867E+03</totfact>
</mgrwt>
</event>
<event>
 4    1  0.1101825E+000  0.1912686E+03  0.7546771E-02  0.1157322E+00
         21   -1    0    0  501  502  0.00000000000E+00  0.00000000000E+00  0.67415286870E+02  0.67415286870E+02  0.00000000000E+00 0. -1.
         21   -1    0    0  502  503 -0.00000000000E+00 -0.00000000000E+00 -0.60754743978E+03  0.60754743978E+03  0.00000000000E+00 0. -1.
          6    1    1    2  501    0  0.38776887123E+02  0.74135210339E+02 -0.15977631160E+03  0.24922308508E+03  0.17200000000E+03 0. -1.
         -6    1    1    2    0  503 -0.38776887123E+02 -0.74135210339E+02 -0.38035584131E+03  0.42573964157E+03  0.17200000000E+03 0. -1.
<mgrwt>
<rscale>  2 0.19126860E+03</rscale>
<asrwt>0</asrwt>
<pdfrwt beam="1">  1       21 0.16853822E-01 0.19126860E+03</pdfrwt>
<pdfrwt beam="2">  1       21 0.15188686E+00 0.19126860E+03</pdfrwt>
<totfact> 0.91769977E+03</totfact>
</mgrwt>
</event>
<event>
 4    1  0.1101825E+000  0.1847377E+03  0.7546771E-02  0.1163295E+00
         21   -1    0    0  501  502  0.00000000000E+00  0.00000000000E+00  0.40546335173E+03  0.40546335173E+03  0.00000000000E+00 0.  1.
         21   -1    0    0  502  503 -0.00000000000E+00 -0.00000000000E+00 -0.21559229531E+03  0.21559229531E+03  0.00000000000E+00 0.  1.
          6    1    1    2  501    0 -0.47102714716E+01 -0.67244626091E+02  0.33738302677E+03  0.38464962387E+03  0.17200000000E+03 0.  1.
         -6    1    1    2    0  503  0.47102714716E+01  0.67244626091E+02 -0.14751197034E+03  0.23640602317E+03  0.17200000000E+03 0.  1.
<mgrwt>
<rscale>  2 0.18473772E+03</rscale>
<asrwt>0</asrwt>
<pdfrwt beam="1">  1       21 0.10136584E+00 0.18473772E+03</pdfrwt>
<pdfrwt beam="2">  1       21 0.53898074E-01 0.18473772E+03</pdfrwt>
<totfact> 0.26059242E+03</totfact>
</mgrwt>
</event>
<event>
 4    1  0.1101825E+000  0.2328518E+03  0.7546771E-02  0.1124649E+00
         21   -1    0    0  501  502  0.00000000000E+00  0.00000000000E+00  0.98277613089E+03  0.98277613089E+03  0.00000000000E+00 0. -1.
         21   -1    0    0  502  503 -0.00000000000E+00 -0.00000000000E+00 -0.58649119730E+02  0.58649119730E+02  0.00000000000E+00 0.  1.
          6    1    1    2  501    0  0.27682474455E+02 -0.15449796684E+03  0.58888430507E+03  0.63324929207E+03  0.17200000000E+03 0. -1.
         -6    1    1    2    0  503 -0.27682474455E+02  0.15449796684E+03  0.33524270610E+03  0.40817595856E+03  0.17200000000E+03 0.  1.
<mgrwt>
<rscale>  2 0.23285176E+03</rscale>
<asrwt>0</asrwt>
<pdfrwt beam="1">  1       21 0.24569398E+00 0.23285176E+03</pdfrwt>
<pdfrwt beam="2">  1       21 0.14662283E-01 0.23285176E+03</pdfrwt>
<totfact> 0.27666699E+03</totfact>
</mgrwt>
</event>
<event>
 4    1  0.1101825E+000  0.1952855E+03  0.7546771E-02  0.1153779E+00
         21   -1    0    0  503  502  0.00000000000E+00  0.00000000000E+00  0.27104075071E+03  0.27104075071E+03  0.00000000000E+00 0. -1.
         21   -1    0    0  501  503 -0.00000000000E+00 -0.00000000000E+00 -0.15362310208E+03  0.15362310208E+03  0.00000000000E+00 0. -1.
          6    1    1    2  501    0 -0.92408644408E+02 -0.36176951217E+01 -0.28666401013E+01  0.19530658695E+03  0.17200000000E+03 0. -1.
         -6    1    1    2    0  502  0.92408644408E+02  0.36176951217E+01  0.12028428874E+03  0.22935726585E+03  0.17200000000E+03 0. -1.
<mgrwt>
<rscale>  2 0.19528555E+03</rscale>
<asrwt>0</asrwt>
<pdfrwt beam="1">  1       21 0.67760187E-01 0.19528555E+03</pdfrwt>
<pdfrwt beam="2">  1       21 0.38405776E-01 0.19528555E+03</pdfrwt>
<totfact> 0.12989544E+04</totfact>
</mgrwt>
</event>
<event>
 4    1  0.1101825E+000  0.1971725E+03  0.7546771E-02  0.1152147E+00
         21   -1    0    0  501  502  0.00000000000E+00  0.00000000000E+00  0.16445931049E+03  0.16445931049E+03  0.00000000000E+00 0. -1.
         21   -1    0    0  502  503 -0.00000000000E+00 -0.00000000000E+00 -0.25624349379E+03  0.25624349379E+03  0.00000000000E+00 0.  1.
          6    1    1    2  501    0  0.83822354633E+02  0.47611085540E+02 -0.10443933521E+03  0.22312457807E+03  0.17200000000E+03 0. -1.
         -6    1    1    2    0  503 -0.83822354633E+02 -0.47611085540E+02  0.12655151909E+02  0.19757822621E+03  0.17200000000E+03 0. -1.
<mgrwt>
<rscale>  2 0.19717252E+03</rscale>
<asrwt>0</asrwt>
<pdfrwt beam="1">  1       21 0.41114828E-01 0.19717252E+03</pdfrwt>
<pdfrwt beam="2">  1       21 0.64060873E-01 0.19717252E+03</pdfrwt>
<totfact> 0.12778678E+04</totfact>
</mgrwt>
</event>
<event>
 4    1  0.1101825E+000  0.2326656E+03  0.7546771E-02  0.1124778E+00
         21   -1    0    0  501  502  0.00000000000E+00  0.00000000000E+00  0.12824338686E+04  0.12824338686E+04  0.00000000000E+00 0.  1.
         21   -1    0    0  502  503 -0.00000000000E+00 -0.00000000000E+00 -0.13703858150E+03  0.13703858150E+03  0.00000000000E+00 0.  1.
          6    1    1    2  501    0  0.96532953530E+02  0.12341253998E+03  0.11630918382E+04  0.11861348534E+04  0.17200000000E+03 0.  1.
         -6    1    1    2    0  503 -0.96532953530E+02 -0.12341253998E+03 -0.17696551136E+02  0.23333759677E+03  0.17200000000E+03 0.  1.
<mgrwt>
<rscale>  2 0.23266557E+03</rscale>
<asrwt>0</asrwt>
<pdfrwt beam="1">  1       21 0.32060843E+00 0.23266557E+03</pdfrwt>
<pdfrwt beam="2">  1       21 0.34259649E-01 0.23266557E+03</pdfrwt>
<totfact> 0.20099279E+02</totfact>
</mgrwt>
</event>
<event>
 4    1  0.1101825E+000  0.2042502E+03  0.7546771E-02  0.1146202E+00
         21   -1    0    0  503  502  0.00000000000E+00  0.00000000000E+00  0.19262572975E+03  0.19262572975E+03  0.00000000000E+00 0. -1.
         21   -1    0    0  501  503 -0.00000000000E+00 -0.00000000000E+00 -0.23147963991E+03  0.23147963991E+03  0.00000000000E+00 0.  1.
          6    1    1    2  501    0 -0.79976025967E+02 -0.75749481924E+02 -0.73232944766E+02  0.21698205672E+03  0.17200000000E+03 0. -1.
         -6    1    1    2    0  502  0.79976025967E+02  0.75749481924E+02  0.34379034603E+02  0.20712331294E+03  0.17200000000E+03 0.  1.
<mgrwt>
<rscale>  2 0.20425021E+03</rscale>
<asrwt>0</asrwt>
<pdfrwt beam="1">  1       21 0.48156433E-01 0.20425021E+03</pdfrwt>
<pdfrwt beam="2">  1       21 0.57869910E-01 0.20425021E+03</pdfrwt>
<totfact> 0.11445452E+04</totfact>
</mgrwt>
</event>
<event>
 4    1  0.1101825E+000  0.1734289E+03  0.7546771E-02  0.1174319E+00
         21   -1    0    0  503  502  0.00000000000E+00  0.00000000000E+00  0.12775416750E+03  0.12775416750E+03  0.00000000000E+00 0.  1.
         21   -1    0    0  501  503 -0.00000000000E+00 -0.00000000000E+00 -0.55312873882E+03  0.55312873882E+03  0.00000000000E+00 0.  1.
          6    1    1    2  501    0  0.21077746147E+02  0.70220824524E+01 -0.47069627420E+03  0.50162990697E+03  0.17200000000E+03 0.  1.
         -6    1    1    2    0  502 -0.21077746147E+02 -0.70220824524E+01  0.45321702870E+02  0.17925299935E+03  0.17200000000E+03 0.  1.
<mgrwt>
<rscale>  2 0.17342889E+03</rscale>
<asrwt>0</asrwt>
<pdfrwt beam="1">  1       21 0.31938542E-01 0.17342889E+03</pdfrwt>
<pdfrwt beam="2">  1       21 0.13828218E+00 0.17342889E+03</pdfrwt>
<totfact> 0.35438052E+03</totfact>
</mgrwt>
</event>
<event>
 4    1  0.1101825E+000  0.1907494E+03  0.7546771E-02  0.1157787E+00
         21   -1    0    0  501  502  0.00000000000E+00  0.00000000000E+00  0.64831876910E+02  0.64831876910E+02  0.00000000000E+00 0. -1.
         21   -1    0    0  502  503 -0.00000000000E+00 -0.00000000000E+00 -0.88321997454E+03  0.88321997454E+03  0.00000000000E+00 0.  1.
          6    1    1    2  501    0  0.62523616649E+01 -0.82232954942E+02 -0.12297972779E+03  0.22695674555E+03  0.17200000000E+03 0. -1.
         -6    1    1    2    0  503 -0.62523616649E+01  0.82232954942E+02 -0.69540836984E+03  0.72109510590E+03  0.17200000000E+03 0.  1.
<mgrwt>
<rscale>  2 0.19074945E+03</rscale>
<asrwt>0</asrwt>
<pdfrwt beam="1">  1       21 0.16207969E-01 0.19074945E+03</pdfrwt>
<pdfrwt beam="2">  1       21 0.22080499E+00 0.19074945E+03</pdfrwt>
<totfact> 0.33935995E+03</totfact>
</mgrwt>
</event>
<event>
 4    1  0.1101825E+000  0.1825527E+03  0.7546771E-02  0.1165355E+00
         21   -1    0    0  501  502  0.00000000000E+00  0.00000000000E+00  0.50154379105E+02  0.50154379105E+02  0.00000000000E+00 0. -1.
         21   -1    0    0  502  503 -0.00000000000E+00 -0.00000000000E+00 -0.79614761698E+03  0.79614761698E+03  0.00000000000E+00 0.  1.
          6    1    1    2  501    0 -0.49975966046E+02  0.35268631443E+02 -0.20089914425E+03  0.27145154209E+03  0.17200000000E+03 0. -1.
         -6    1    1    2    0  503  0.49975966046E+02 -0.35268631443E+02 -0.54509409363E+03  0.57485045399E+03  0.17200000000E+03 0.  1.
<mgrwt>
<rscale>  2 0.18255266E+03</rscale>
<asrwt>0</asrwt>
<pdfrwt beam="1">  1       21 0.12538595E-01 0.18255266E+03</pdfrwt>
<pdfrwt beam="2">  1       21 0.19903690E+00 0.18255266E+03</pdfrwt>
<totfact> 0.74543804E+03</totfact>
</mgrwt>
</event>
<event>
 4    1  0.1101825E+000  0.1786754E+03  0.7546771E-02  0.1169091E+00
         21   -1    0    0  501  502  0.00000000000E+00  0.00000000000E+00  0.32059419239E+03  0.32059419239E+03  0.00000000000E+00 0.  1.
         21   -1    0    0  502  503 -0.00000000000E+00 -0.00000000000E+00 -0.11335460279E+03  0.11335460279E+03  0.00000000000E+00 0.  1.
          6    1    1    2  501    0  0.21581759728E+02 -0.43302797976E+02  0.17925462145E+03  0.25309508880E+03  0.17200000000E+03 0.  1.
         -6    1    1    2    0  503 -0.21581759728E+02  0.43302797976E+02  0.27984968155E+02  0.18085370637E+03  0.17200000000E+03 0.  1.
<mgrwt>
<rscale>  2 0.17867542E+03</rscale>
<asrwt>0</asrwt>
<pdfrwt beam="1">  1       21 0.80148546E-01 0.17867542E+03</pdfrwt>
<pdfrwt beam="2">  1       21 0.28338651E-01 0.17867542E+03</pdfrwt>
<totfact> 0.16447837E+04</totfact>
</mgrwt>
</event>
<event>
 4    1  0.1101825E+000  0.2150429E+03  0.7546771E-02  0.1137634E+00
         21   -1    0    0  503  502  0.00000000000E+00  0.00000000000E+00  0.69087900759E+03  0.69087900759E+03  0.00000000000E+00 0.  1.
         21   -1    0    0  501  503 -0.00000000000E+00 -0.00000000000E+00 -0.67655613382E+02  0.67655613382E+02  0.00000000000E+00 0.  1.
          6    1    1    2  501    0  0.10046796100E+03  0.81028571888E+02  0.35077529203E+03  0.41144470606E+03  0.17200000000E+03 0.  1.
         -6    1    1    2    0  502 -0.10046796100E+03 -0.81028571888E+02  0.27244810218E+03  0.34708991491E+03  0.17200000000E+03 0.  1.
<mgrwt>
<rscale>  2 0.21504288E+03</rscale>
<asrwt>0</asrwt>
<pdfrwt beam="1">  1       21 0.17271973E+00 0.21504288E+03</pdfrwt>
<pdfrwt beam="2">  1       21 0.16913905E-01 0.21504288E+03</pdfrwt>
<totfact> 0.63138493E+03</totfact>
</mgrwt>
</event>
<event>
 4    1  0.1101825E+000  0.2142579E+03  0.7546771E-02  0.1138238E+00
         21   -1    0    0  501  502  0.00000000000E+00  0.00000000000E+00  0.37471606239E+03  0.37471606239E+03  0.00000000000E+00 0.  1.
         21   -1    0    0  502  503 -0.00000000000E+00 -0.00000000000E+00 -0.16536274225E+03  0.16536274225E+03  0.00000000000E+00 0.  1.
          6    1    1    2  501    0 -0.12521836277E+03  0.25353559089E+02  0.24214349452E+03  0.32332632629E+03  0.17200000000E+03 0.  1.
         -6    1    1    2    0  503  0.12521836277E+03 -0.25353559089E+02 -0.32790174385E+02  0.21675247835E+03  0.17200000000E+03 0.  1.
<mgrwt>
<rscale>  2 0.21425789E+03</rscale>
<asrwt>0</asrwt>
<pdfrwt beam="1">  1       21 0.93679014E-01 0.21425789E+03</pdfrwt>
<pdfrwt beam="2">  1       21 0.41340686E-01 0.21425789E+03</pdfrwt>
<totfact> 0.53050773E+03</totfact>
</mgrwt>
</event>
<event>
 4    1  0.1101825E+000  0.2407669E+03  0.7546771E-02  0.1119283E+00
         21   -1    0    0  501  502  0.00000000000E+00  0.00000000000E+00  0.13877464590E+03  0.13877464590E+03  0.00000000000E+00 0. -1.
         21   -1    0    0  502  503 -0.00000000000E+00 -0.00000000000E+00 -0.45889831072E+03  0.45889831072E+03  0.00000000000E+00 0.  1.
          6    1    1    2  501    0 -0.92475315144E+02  0.14082980814E+03 -0.24958145510E+03  0.34678469040E+03  0.17200000000E+03 0.  1.
         -6    1    1    2    0  503  0.92475315144E+02 -0.14082980814E+03 -0.70542209727E+02  0.25088826622E+03  0.17200000000E+03 0. -1.
<mgrwt>
<rscale>  2 0.24076694E+03</rscale>
<asrwt>0</asrwt>
<pdfrwt beam="1">  1       21 0.34693662E-01 0.24076694E+03</pdfrwt>
<pdfrwt beam="2">  1       21 0.11472458E+00 0.24076694E+03</pdfrwt>
<totfact> 0.45549831E+03</totfact>
</mgrwt>
</event>
<event>
 4    1  0.1101825E+000  0.1848832E+03  0.7546771E-02  0.1163159E+00
         21   -1    0    0  501  502  0.00000000000E+00  0.00000000000E+00  0.62094631452E+02  0.62094631452E+02  0.00000000000E+00 0.  1.
         21   -1    0    0  502  503 -0.00000000000E+00 -0.00000000000E+00 -0.64175595457E+03  0.64175595457E+03  0.00000000000E+00 0. -1.
          6    1    1    2  501    0  0.39065246212E+02 -0.55422926042E+02 -0.15710773128E+03  0.24262034833E+03  0.17200000000E+03 0.  1.
         -6    1    1    2    0  503 -0.39065246212E+02  0.55422926042E+02 -0.42255359183E+03  0.46123023770E+03  0.17200000000E+03 0. -1.
<mgrwt>
<rscale>  2 0.18488319E+03</rscale>
<asrwt>0</asrwt>
<pdfrwt beam="1">  1       21 0.15523658E-01 0.18488319E+03</pdfrwt>
<pdfrwt beam="2">  1       21 0.16043898E+00 0.18488319E+03</pdfrwt>
<totfact> 0.92628904E+03</totfact>
</mgrwt>
</event>
<event>
 4    1  0.1101825E+000  0.1744986E+03  0.7546771E-02  0.1173236E+00
         21   -1    0    0  503  502  0.00000000000E+00  0.00000000000E+00  0.18136974649E+03  0.18136974649E+03  0.00000000000E+00 0. -1.
         21   -1    0    0  501  503 -0.00000000000E+00 -0.00000000000E+00 -0.32270789667E+03  0.32270789667E+03  0.00000000000E+00 0. -1.
          6    1    1    2  501    0  0.12747370261E+02 -0.26519118812E+02  0.10390364455E+03  0.20309043912E+03  0.17200000000E+03 0. -1.
         -6    1    1    2    0  502 -0.12747370261E+02  0.26519118812E+02 -0.24524179474E+03  0.30098720404E+03  0.17200000000E+03 0. -1.
<mgrwt>
<rscale>  2 0.17449859E+03</rscale>
<asrwt>0</asrwt>
<pdfrwt beam="1">  1       21 0.45342437E-01 0.17449859E+03</pdfrwt>
<pdfrwt beam="2">  1       21 0.80676974E-01 0.17449859E+03</pdfrwt>
<totfact> 0.63842330E+03</totfact>
</mgrwt>
</event>
<event>
 4    1  0.1101825E+000  0.2318816E+03  0.7546771E-02  0.1125322E+00
         21   -1    0    0  503  502  0.00000000000E+00  0.00000000000E+00  0.11932905786E+04  0.11932905786E+04  0.00000000000E+00 0. -1.
         21   -1    0    0  501  503 -0.00000000000E+00 -0.00000000000E+00 -0.17688830900E+03  0.17688830900E+03  0.00000000000E+00 0.  1.
          6    1    1    2  501    0  0.15085296306E+03 -0.37794720451E+02 -0.83228254594E+02  0.24636558144E+03  0.17200000000E+03 0.  1.
         -6    1    1    2    0  502 -0.15085296306E+03  0.37794720451E+02  0.10996305242E+04  0.11238133062E+04  0.17200000000E+03 0. -1.
<mgrwt>
<rscale>  2 0.23188156E+03</rscale>
<asrwt>0</asrwt>
<pdfrwt beam="1">  1       21 0.29832262E+00 0.23188156E+03</pdfrwt>
<pdfrwt beam="2">  1       21 0.44222081E-01 0.23188156E+03</pdfrwt>
<totfact> 0.16193322E+02</totfact>
</mgrwt>
</event>
<event>
 4    1  0.1101825E+000  0.1994575E+03  0.7546771E-02  0.1150198E+00
         21   -1    0    0  501  502  0.00000000000E+00  0.00000000000E+00  0.77773551504E+03  0.77773551504E+03  0.00000000000E+00 0. -1.
         21   -1    0    0  502  503 -0.00000000000E+00 -0.00000000000E+00 -0.53234127941E+02  0.53234127941E+02  0.00000000000E+00 0. -1.
          6    1    1    2  501    0 -0.10098710088E+03 -0.94316010701E+00  0.28009473092E+03  0.34385511830E+03  0.17200000000E+03 0. -1.
         -6    1    1    2    0  503  0.10098710088E+03  0.94316010701E+00  0.44440665618E+03  0.48711452468E+03  0.17200000000E+03 0. -1.
<mgrwt>
<rscale>  2 0.19945747E+03</rscale>
<asrwt>0</asrwt>
<pdfrwt beam="1">  1       21 0.19443384E+00 0.19945747E+03</pdfrwt>
<pdfrwt beam="2">  1       21 0.13308534E-01 0.19945747E+03</pdfrwt>
<totfact> 0.70660376E+03</totfact>
</mgrwt>
</event>
<event>
 4    1  0.1101825E+000  0.1781959E+03  0.7546771E-02  0.1169561E+00
         21   -1    0    0  501  502  0.00000000000E+00  0.00000000000E+00  0.14374985705E+03  0.14374985705E+03  0.00000000000E+00 0.  1.
         21   -1    0    0  502  503 -0.00000000000E+00 -0.00000000000E+00 -0.26958503294E+03  0.26958503294E+03  0.00000000000E+00 0.  1.
          6    1    1    2  501    0 -0.30766441760E+02 -0.34974337758E+02  0.24911718169E+02  0.17992879687E+03  0.17200000000E+03 0.  1.
         -6    1    1    2    0  503  0.30766441760E+02  0.34974337758E+02 -0.15074689406E+03  0.23340609313E+03  0.17200000000E+03 0.  1.
<mgrwt>
<rscale>  2 0.17819590E+03</rscale>
<asrwt>0</asrwt>
<pdfrwt beam="1">  1       21 0.35937465E-01 0.17819590E+03</pdfrwt>
<pdfrwt beam="2">  1       21 0.67396258E-01 0.17819590E+03</pdfrwt>
<totfact> 0.15176344E+04</totfact>
</mgrwt>
</event>
<event>
 4    1  0.1101825E+000  0.2716063E+03  0.7546771E-02  0.1100364E+00
         21   -1    0    0  503  502  0.00000000000E+00  0.00000000000E+00  0.51932467094E+03  0.51932467094E+03  0.00000000000E+00 0. -1.
         21   -1    0    0  501  503 -0.00000000000E+00 -0.00000000000E+00 -0.14379500321E+03  0.14379500321E+03  0.00000000000E+00 0.  1.
          6    1    1    2  501    0  0.28031282080E+02 -0.20832726280E+03  0.15123863307E+03  0.31087477436E+03  0.17200000000E+03 0.  1.
         -6    1    1    2    0  502 -0.28031282080E+02  0.20832726280E+03  0.22429103466E+03  0.35224489979E+03  0.17200000000E+03 0. -1.
<mgrwt>
<rscale>  2 0.27160633E+03</rscale>
<asrwt>0</asrwt>
<pdfrwt beam="1">  1       21 0.12983116E+00 0.27160633E+03</pdfrwt>
<pdfrwt beam="2">  1       21 0.35948752E-01 0.27160633E+03</pdfrwt>
<totfact> 0.30490253E+03</totfact>
</mgrwt>
</event>
<event>
 4    1  0.1101825E+000  0.2311578E+03  0.7546771E-02  0.1125827E+00
         21   -1    0    0  501  502  0.00000000000E+00  0.00000000000E+00  0.27090880915E+03  0.27090880915E+03  0.00000000000E+00 0. -1.
         21   -1    0    0  502  503 -0.00000000000E+00 -0.00000000000E+00 -0.43977893017E+03  0.43977893017E+03  0.00000000000E+00 0.  1.
          6    1    1    2  501    0  0.29008761292E+02 -0.15168533761E+03  0.17945479148E+03  0.29263966249E+03  0.17200000000E+03 0. -1.
         -6    1    1    2    0  503 -0.29008761292E+02  0.15168533761E+03 -0.34832491250E+03  0.41804807684E+03  0.17200000000E+03 0.  1.
<mgrwt>
<rscale>  2 0.23115785E+03</rscale>
<asrwt>0</asrwt>
<pdfrwt beam="1">  1       21 0.67727203E-01 0.23115785E+03</pdfrwt>
<pdfrwt beam="2">  1       21 0.10994473E+00 0.23115785E+03</pdfrwt>
<totfact> 0.12576293E+03</totfact>
</mgrwt>
</event>
<event>
 4    1  0.1101825E+000  0.2026885E+03  0.7546771E-02  0.1147490E+00
         21   -1    0    0  501  502  0.00000000000E+00  0.00000000000E+00  0.11970086186E+04  0.11970086186E+04  0.00000000000E+00 0.  1.
         21   -1    0    0  502  503 -0.00000000000E+00 -0.00000000000E+00 -0.35422973657E+02  0.35422973657E+02  0.00000000000E+00 0. -1.
          6    1    1    2  501    0 -0.86978032841E+02  0.62717372043E+02  0.47211094503E+03  0.51378146266E+03  0.17200000000E+03 0.  1.
         -6    1    1    2    0  503  0.86978032841E+02 -0.62717372043E+02  0.68947469990E+03  0.71865012959E+03  0.17200000000E+03 0. -1.
<mgrwt>
<rscale>  2 0.20268855E+03</rscale>
<asrwt>0</asrwt>
<pdfrwt beam="1">  1       21 0.29925202E+00 0.20268855E+03</pdfrwt>
<pdfrwt beam="2">  1       21 0.88557474E-02 0.20268855E+03</pdfrwt>
<totfact> 0.34238244E+03</totfact>
</mgrwt>
</event>
<event>
 4    1  0.1101825E+000  0.2068116E+03  0.7546771E-02  0.1144116E+00
         21   -1    0    0  501  502  0.00000000000E+00  0.00000000000E+00  0.46346885957E+03  0.46346885957E+03  0.00000000000E+00 0.  1.
         21   -1    0    0  502  503 -0.00000000000E+00 -0.00000000000E+00 -0.32231095034E+03  0.32231095034E+03  0.00000000000E+00 0.  1.
          6    1    1    2  501    0 -0.55155654636E+02  0.10072188724E+03  0.40249031774E+03  0.45251464140E+03  0.17200000000E+03 0.  1.
         -6    1    1    2    0  503  0.55155654636E+02 -0.10072188724E+03 -0.26133240850E+03  0.33326516851E+03  0.17200000000E+03 0.  1.
<mgrwt>
<rscale>  2 0.20681162E+03</rscale>
<asrwt>0</asrwt>
<pdfrwt beam="1">  1       21 0.11586721E+00 0.20681162E+03</pdfrwt>
<pdfrwt beam="2">  1       21 0.80577738E-01 0.20681162E+03</pdfrwt>
<totfact> 0.76758113E+02</totfact>
</mgrwt>
</event>
<event>
 4    1  0.1101825E+000  0.3401818E+03  0.7546771E-02  0.1066719E+00
         21   -1    0    0  503  502  0.00000000000E+00  0.00000000000E+00  0.29984352125E+03  0.29984352125E+03  0.00000000000E+00 0.  1.
         21   -1    0    0  501  503 -0.00000000000E+00 -0.00000000000E+00 -0.38683055000E+03  0.38683055000E+03  0.00000000000E+00 0. -1.
          6    1    1    2  501    0  0.20021392428E+03 -0.21460211048E+03 -0.27083940274E+02  0.34125829091E+03  0.17200000000E+03 0.  1.
         -6    1    1    2    0  502 -0.20021392428E+03  0.21460211048E+03 -0.59903088470E+02  0.34541578034E+03  0.17200000000E+03 0. -1.
<mgrwt>
<rscale>  2 0.34018184E+03</rscale>
<asrwt>0</asrwt>
<pdfrwt beam="1">  1       21 0.74960880E-01 0.34018184E+03</pdfrwt>
<pdfrwt beam="2">  1       21 0.96707637E-01 0.34018184E+03</pdfrwt>
<totfact> 0.12706378E+03</totfact>
</mgrwt>
</event>
<event>
 4    1  0.1101825E+000  0.2058848E+03  0.7546771E-02  0.1144867E+00
         21   -1    0    0  501  502  0.00000000000E+00  0.00000000000E+00  0.22282003915E+03  0.22282003915E+03  0.00000000000E+00 0.  1.
         21   -1    0    0  502  503 -0.00000000000E+00 -0.00000000000E+00 -0.19563899083E+03  0.19563899083E+03  0.00000000000E+00 0.  1.
          6    1    1    2  501    0 -0.57122824875E+02 -0.97680852370E+02  0.48358638455E+02  0.21148788134E+03  0.17200000000E+03 0.  1.
         -6    1    1    2    0  503  0.57122824875E+02  0.97680852370E+02 -0.21177590134E+02  0.20697114863E+03  0.17200000000E+03 0.  1.
<mgrwt>
<rscale>  2 0.20588484E+03</rscale>
<asrwt>0</asrwt>
<pdfrwt beam="1">  1       21 0.55705010E-01 0.20588484E+03</pdfrwt>
<pdfrwt beam="2">  1       21 0.48909748E-01 0.20588484E+03</pdfrwt>
<totfact> 0.12006721E+04</totfact>
</mgrwt>
</event>
<event>
 4    1  0.1101825E+000  0.1762396E+03  0.7546771E-02  0.1171493E+00
         21   -1    0    0  501  502  0.00000000000E+00  0.00000000000E+00  0.35105357890E+03  0.35105357890E+03  0.00000000000E+00 0. -1.
         21   -1    0    0  502  503 -0.00000000000E+00 -0.00000000000E+00 -0.11058023481E+03  0.11058023481E+03  0.00000000000E+00 0. -1.
          6    1    1    2  501    0 -0.28821546180E+02 -0.25410711273E+02  0.22342977538E+03  0.28457204764E+03  0.17200000000E+03 0.  1.
         -6    1    1    2    0  503  0.28821546180E+02  0.25410711273E+02  0.17043568712E+02  0.17706176608E+03  0.17200000000E+03 0.  1.
<mgrwt>
<rscale>  2 0.17623957E+03</rscale>
<asrwt>0</asrwt>
<pdfrwt beam="1">  1       21 0.87763392E-01 0.17623957E+03</pdfrwt>
<pdfrwt beam="2">  1       21 0.27645060E-01 0.17623957E+03</pdfrwt>
<totfact> 0.14056132E+04</totfact>
</mgrwt>
</event>
<event>
 4    1  0.1101825E+000  0.3284495E+03  0.7546771E-02  0.1071825E+00
         21   -1    0    0  501  502  0.00000000000E+00  0.00000000000E+00  0.20110666089E+04  0.20110666089E+04  0.00000000000E+00 0.  1.
         21   -1    0    0  502  503 -0.00000000000E+00 -0.00000000000E+00 -0.84112375611E+02  0.84112375611E+02  0.00000000000E+00 0. -1.
          6    1    1    2  501    0 -0.17602955336E+03  0.21750558157E+03  0.15939914469E+04  0.16274789751E+04  0.17200000000E+03 0.  1.
         -6    1    1    2    0  503  0.17602955336E+03 -0.21750558157E+03  0.33296278641E+03  0.46770000941E+03  0.17200000000E+03 0. -1.
<mgrwt>
<rscale>  2 0.32844951E+03</rscale>
<asrwt>0</asrwt>
<pdfrwt beam="1">  1       21 0.50276649E+00 0.32844951E+03</pdfrwt>
<pdfrwt beam="2">  1       21 0.21028100E-01 0.32844951E+03</pdfrwt>
<totfact> 0.31144369E+01</totfact>
</mgrwt>
</event>
<event>
 4    1  0.1101825E+000  0.3307286E+03  0.7546771E-02  0.1070815E+00
         21   -1    0    0  503  502  0.00000000000E+00  0.00000000000E+00  0.30588383970E+03  0.30588383970E+03  0.00000000000E+00 0. -1.
         21   -1    0    0  501  503 -0.00000000000E+00 -0.00000000000E+00 -0.35814710088E+03  0.35814710088E+03  0.00000000000E+00 0.  1.
          6    1    1    2  501    0  0.14789835538E+02 -0.28209693792E+03 -0.39210176367E+02  0.33304483114E+03  0.17200000000E+03 0. -1.
         -6    1    1    2    0  502 -0.14789835538E+02  0.28209693792E+03 -0.13053084813E+02  0.33098610944E+03  0.17200000000E+03 0.  1.
<mgrwt>
<rscale>  2 0.33072862E+03</rscale>
<asrwt>0</asrwt>
<pdfrwt beam="1">  1       21 0.76470960E-01 0.33072862E+03</pdfrwt>
<pdfrwt beam="2">  1       21 0.89536775E-01 0.33072862E+03</pdfrwt>
<totfact> 0.14650427E+03</totfact>
</mgrwt>
</event>
<event>
 4    1  0.1101825E+000  0.2167942E+03  0.7546771E-02  0.1136296E+00
         21   -1    0    0  501  502  0.00000000000E+00  0.00000000000E+00  0.45188700010E+03  0.45188700010E+03  0.00000000000E+00 0. -1.
         21   -1    0    0  502  503 -0.00000000000E+00 -0.00000000000E+00 -0.13557067335E+03  0.13557067335E+03  0.00000000000E+00 0. -1.
          6    1    1    2  501    0  0.12858144945E+03 -0.29707856921E+02  0.29988509457E+03  0.37004164070E+03  0.17200000000E+03 0. -1.
         -6    1    1    2    0  503 -0.12858144945E+03  0.29707856921E+02  0.16431232170E+02  0.21741603275E+03  0.17200000000E+03 0. -1.
<mgrwt>
<rscale>  2 0.21679425E+03</rscale>
<asrwt>0</asrwt>
<pdfrwt beam="1">  1       21 0.11297175E+00 0.21679425E+03</pdfrwt>
<pdfrwt beam="2">  1       21 0.33892669E-01 0.21679425E+03</pdfrwt>
<totfact> 0.50391184E+03</totfact>
</mgrwt>
</event>
<event>
 4    1  0.1101825E+000  0.1912417E+03  0.7546771E-02  0.1157346E+00
         21   -1    0    0  501  502  0.00000000000E+00  0.00000000000E+00  0.92341103588E+03  0.92341103588E+03  0.00000000000E+00 0. -1.
         21   -1    0    0  502  503 -0.00000000000E+00 -0.00000000000E+00 -0.47307084919E+02  0.47307084919E+02  0.00000000000E+00 0.  1.
          6    1    1    2  501    0  0.83601660030E+02 -0.38607940310E+00  0.63386993304E+03  0.66209098969E+03  0.17200000000E+03 0. -1.
         -6    1    1    2    0  503 -0.83601660030E+02  0.38607940310E+00  0.24223401792E+03  0.30862713110E+03  0.17200000000E+03 0.  1.
<mgrwt>
<rscale>  2 0.19124170E+03</rscale>
<asrwt>0</asrwt>
<pdfrwt beam="1">  1       21 0.23085270E+00 0.19124170E+03</pdfrwt>
<pdfrwt beam="2">  1       21 0.11826774E-01 0.19124170E+03</pdfrwt>
<totfact> 0.52125239E+03</totfact>
</mgrwt>
</event>
<event>
 4    1  0.1101825E+000  0.2606512E+03  0.7546771E-02  0.1106753E+00
         21   -1    0    0  503  502  0.00000000000E+00  0.00000000000E+00  0.29683532167E+03  0.29683532167E+03  0.00000000000E+00 0.  1.
         21   -1    0    0  501  503 -0.00000000000E+00 -0.00000000000E+00 -0.26606593780E+03  0.26606593780E+03  0.00000000000E+00 0. -1.
          6    1    1    2  501    0 -0.19569927446E+03 -0.75383274399E+01 -0.89838014047E+02  0.27569893212E+03  0.17200000000E+03 0. -1.
         -6    1    1    2    0  502  0.19569927446E+03  0.75383274399E+01  0.12060739791E+03  0.28720232735E+03  0.17200000000E+03 0.  1.
<mgrwt>
<rscale>  2 0.26065117E+03</rscale>
<asrwt>0</asrwt>
<pdfrwt beam="1">  1       21 0.74208830E-01 0.26065117E+03</pdfrwt>
<pdfrwt beam="2">  1       21 0.66516485E-01 0.26065117E+03</pdfrwt>
<totfact> 0.32093310E+03</totfact>
</mgrwt>
</event>
<event>
 4    1  0.1101825E+000  0.1993471E+03  0.7546771E-02  0.1150291E+00
         21   -1    0    0  501  502  0.00000000000E+00  0.00000000000E+00  0.19145060400E+03  0.19145060400E+03  0.00000000000E+00 0.  1.
         21   -1    0    0  502  503 -0.00000000000E+00 -0.00000000000E+00 -0.38771293934E+03  0.38771293934E+03  0.00000000000E+00 0.  1.
          6    1    1    2  501    0 -0.84880849287E+02  0.54318423586E+02  0.99259062566E+02  0.22269174034E+03  0.17200000000E+03 0.  1.
         -6    1    1    2    0  503  0.84880849287E+02 -0.54318423586E+02 -0.29552139790E+03  0.35647180300E+03  0.17200000000E+03 0.  1.
<mgrwt>
<rscale>  2 0.19934706E+03</rscale>
<asrwt>0</asrwt>
<pdfrwt beam="1">  1       21 0.47862651E-01 0.19934706E+03</pdfrwt>
<pdfrwt beam="2">  1       21 0.96928234E-01 0.19934706E+03</pdfrwt>
<totfact> 0.36668582E+03</totfact>
</mgrwt>
</event>
<event>
 4    1  0.1101825E+000  0.1761854E+03  0.7546771E-02  0.1171547E+00
         21   -1    0    0  503  502  0.00000000000E+00  0.00000000000E+00  0.29758122011E+03  0.29758122011E+03  0.00000000000E+00 0. -1.
         21   -1    0    0  501  503 -0.00000000000E+00 -0.00000000000E+00 -0.23815168482E+03  0.23815168482E+03  0.00000000000E+00 0.  1.
          6    1    1    2  501    0 -0.34068873616E+02  0.17222495783E+02 -0.17109456530E+03  0.24559041672E+03  0.17200000000E+03 0.  1.
         -6    1    1    2    0  502  0.34068873616E+02 -0.17222495783E+02  0.23052410059E+03  0.29014248820E+03  0.17200000000E+03 0. -1.
<mgrwt>
<rscale>  2 0.17618542E+03</rscale>
<asrwt>0</asrwt>
<pdfrwt beam="1">  1       21 0.74395305E-01 0.17618542E+03</pdfrwt>
<pdfrwt beam="2">  1       21 0.59537921E-01 0.17618542E+03</pdfrwt>
<totfact> 0.43231762E+03</totfact>
</mgrwt>
</event>
<event>
 4    1  0.1101825E+000  0.1823474E+03  0.7546771E-02  0.1165550E+00
         21   -1    0    0  501  502  0.00000000000E+00  0.00000000000E+00  0.44999928644E+03  0.44999928644E+03  0.00000000000E+00 0.  1.
         21   -1    0    0  502  503 -0.00000000000E+00 -0.00000000000E+00 -0.79417169682E+02  0.79417169682E+02  0.00000000000E+00 0.  1.
          6    1    1    2  501    0  0.12467248451E+01 -0.60539542489E+02  0.25512219805E+03  0.31358878562E+03  0.17200000000E+03 0.  1.
         -6    1    1    2    0  503 -0.12467248451E+01  0.60539542489E+02  0.11545991871E+03  0.21582767051E+03  0.17200000000E+03 0.  1.
<mgrwt>
<rscale>  2 0.18234744E+03</rscale>
<asrwt>0</asrwt>
<pdfrwt beam="1">  1       21 0.11249981E+00 0.18234744E+03</pdfrwt>
<pdfrwt beam="2">  1       21 0.19854294E-01 0.18234744E+03</pdfrwt>
<totfact> 0.14572704E+04</totfact>
</mgrwt>
</event>
<event>
 4    1  0.1101825E+000  0.1935503E+03  0.7546771E-02  0.1155298E+00
         21   -1    0    0  501  502  0.00000000000E+00  0.00000000000E+00  0.44530169027E+03  0.44530169027E+03  0.00000000000E+00 0.  1.
         21   -1    0    0  502  503 -0.00000000000E+00 -0.00000000000E+00 -0.36526984282E+03  0.36526984282E+03  0.00000000000E+00 0.  1.
          6    1    1    2  501    0 -0.31992337801E+02 -0.82790191934E+02  0.39558030856E+03  0.44039244553E+03  0.17200000000E+03 0.  1.
         -6    1    1    2    0  503  0.31992337801E+02  0.82790191934E+02 -0.31554846111E+03  0.37017908756E+03  0.17200000000E+03 0.  1.
<mgrwt>
<rscale>  2 0.19355032E+03</rscale>
<asrwt>0</asrwt>
<pdfrwt beam="1">  1       21 0.11132542E+00 0.19355032E+03</pdfrwt>
<pdfrwt beam="2">  1       21 0.91317461E-01 0.19355032E+03</pdfrwt>
<totfact> 0.64385087E+02</totfact>
</mgrwt>
</event>
<event>
 4    1  0.1101825E+000  0.1891674E+03  0.7546771E-02  0.1159214E+00
         21   -1    0    0  503  502  0.00000000000E+00  0.00000000000E+00  0.15357105077E+03  0.15357105077E+03  0.00000000000E+00 0.  1.
         21   -1    0    0  501  503 -0.00000000000E+00 -0.00000000000E+00 -0.36972616301E+03  0.36972616301E+03  0.00000000000E+00 0.  1.
          6    1    1    2  501    0  0.72513356310E+02  0.30694112675E+02  0.51026323086E+02  0.19592856107E+03  0.17200000000E+03 0.  1.
         -6    1    1    2    0  502 -0.72513356310E+02 -0.30694112675E+02 -0.26718143532E+03  0.32736865271E+03  0.17200000000E+03 0.  1.
<mgrwt>
<rscale>  2 0.18916743E+03</rscale>
<asrwt>0</asrwt>
<pdfrwt beam="1">  1       21 0.38392763E-01 0.18916743E+03</pdfrwt>
<pdfrwt beam="2">  1       21 0.92431540E-01 0.18916743E+03</pdfrwt>
<totfact> 0.64779001E+03</totfact>
</mgrwt>
</event>
<event>
 4    1  0.1101825E+000  0.1829333E+03  0.7546771E-02  0.1164994E+00
         21   -1    0    0  503  502  0.00000000000E+00  0.00000000000E+00  0.93033470658E+02  0.93033470658E+02  0.00000000000E+00 0.  1.
         21   -1    0    0  501  503 -0.00000000000E+00 -0.00000000000E+00 -0.49039978594E+03  0.49039978594E+03  0.00000000000E+00 0.  1.
          6    1    1    2  501    0 -0.58810787467E+02 -0.20539807776E+02 -0.34927983739E+03  0.39428542610E+03  0.17200000000E+03 0.  1.
         -6    1    1    2    0  502  0.58810787467E+02  0.20539807776E+02 -0.48086477889E+02  0.18914783050E+03  0.17200000000E+03 0.  1.
<mgrwt>
<rscale>  2 0.18293330E+03</rscale>
<asrwt>0</asrwt>
<pdfrwt beam="1">  1       21 0.23258368E-01 0.18293330E+03</pdfrwt>
<pdfrwt beam="2">  1       21 0.12259995E+00 0.18293330E+03</pdfrwt>
<totfact> 0.87637267E+03</totfact>
</mgrwt>
</event>
<event>
 4    1  0.1101825E+000  0.1761833E+03  0.7546771E-02  0.1171549E+00
         21   -1    0    0  503  502  0.00000000000E+00  0.00000000000E+00  0.54742658953E+02  0.54742658953E+02  0.00000000000E+00 0. -1.
         21   -1    0    0  501  503 -0.00000000000E+00 -0.00000000000E+00 -0.68008128038E+03  0.68008128038E+03  0.00000000000E+00 0. -1.
          6    1    1    2  501    0 -0.37330198395E+02 -0.79369415232E+01 -0.46247121703E+03  0.49489409507E+03  0.17200000000E+03 0. -1.
         -6    1    1    2    0  502  0.37330198395E+02  0.79369415232E+01 -0.16286740439E+03  0.23992984426E+03  0.17200000000E+03 0. -1.
<mgrwt>
<rscale>  2 0.17618325E+03</rscale>
<asrwt>0</asrwt>
<pdfrwt beam="1">  1       21 0.13685665E-01 0.17618325E+03</pdfrwt>
<pdfrwt beam="2">  1       21 0.17002032E+00 0.17618325E+03</pdfrwt>
<totfact> 0.10014811E+04</totfact>
</mgrwt>
</event>
<event>
 4    1  0.1101825E+000  0.2579483E+03  0.7546771E-02  0.1108382E+00
         21   -1    0    0  501  502  0.00000000000E+00  0.00000000000E+00  0.26099382206E+03  0.26099382206E+03  0.00000000000E+00 0.  1.
         21   -1    0    0  502  503 -0.00000000000E+00 -0.00000000000E+00 -0.25498584289E+03  0.25498584289E+03  0.00000000000E+00 0. -1.
          6    1    1    2  501    0  0.17341224520E+03  0.82954851904E+02  0.65277875116E+01  0.25803086298E+03  0.17200000000E+03 0.  1.
         -6    1    1    2    0  503 -0.17341224520E+03 -0.82954851904E+02 -0.51980833733E+00  0.25794880198E+03  0.17200000000E+03 0. -1.
<mgrwt>
<rscale>  2 0.25794828E+03</rscale>
<asrwt>0</asrwt>
<pdfrwt beam="1">  1       21 0.65248455E-01 0.25794828E+03</pdfrwt>
<pdfrwt beam="2">  1       21 0.63746461E-01 0.25794828E+03</pdfrwt>
<totfact> 0.46959162E+03</totfact>
</mgrwt>
</event>
<event>
 4    1  0.1101825E+000  0.1984418E+03  0.7546771E-02  0.1151060E+00
         21   -1    0    0  503  502  0.00000000000E+00  0.00000000000E+00  0.42986790408E+02  0.42986790408E+02  0.00000000000E+00 0.  1.
         21   -1    0    0  501  503 -0.00000000000E+00 -0.00000000000E+00 -0.92030766183E+03  0.92030766183E+03  0.00000000000E+00 0. -1.
          6    1    1    2  501    0  0.51814970734E+02  0.84322990757E+02 -0.47132138640E+03  0.51139320218E+03  0.17200000000E+03 0. -1.
         -6    1    1    2    0  502 -0.51814970734E+02 -0.84322990757E+02 -0.40599948503E+03  0.45190125006E+03  0.17200000000E+03 0.  1.
<mgrwt>
<rscale>  2 0.19844183E+03</rscale>
<asrwt>0</asrwt>
<pdfrwt beam="1">  1       21 0.10746698E-01 0.19844183E+03</pdfrwt>
<pdfrwt beam="2">  1       21 0.23007691E+00 0.19844183E+03</pdfrwt>
<totfact> 0.62055708E+03</totfact>
</mgrwt>
</event>
<event>
 4    1  0.1101825E+000  0.1979506E+03  0.7546771E-02  0.1151480E+00
         21   -1    0    0  501  502  0.00000000000E+00  0.00000000000E+00  0.16219181630E+03  0.16219181630E+03  0.00000000000E+00 0.  1.
         21   -1    0    0  502  503 -0.00000000000E+00 -0.00000000000E+00 -0.28219110237E+03  0.28219110237E+03  0.00000000000E+00 0. -1.
          6    1    1    2  501    0  0.51260018893E+02 -0.83503651869E+02  0.24276992108E+02  0.19943375281E+03  0.17200000000E+03 0.  1.
         -6    1    1    2    0  503 -0.51260018893E+02  0.83503651869E+02 -0.14427627818E+03  0.24494916587E+03  0.17200000000E+03 0.  1.
<mgrwt>
<rscale>  2 0.19795062E+03</rscale>
<asrwt>0</asrwt>
<pdfrwt beam="1">  1       21 0.40547954E-01 0.19795062E+03</pdfrwt>
<pdfrwt beam="2">  1       21 0.70547775E-01 0.19795062E+03</pdfrwt>
<totfact> 0.10634364E+04</totfact>
</mgrwt>
</event>
<event>
 4    1  0.1101825E+000  0.2639826E+03  0.7546771E-02  0.1104774E+00
         21   -1    0    0  501  502  0.00000000000E+00  0.00000000000E+00  0.95250075314E+02  0.95250075314E+02  0.00000000000E+00 0.  1.
         21   -1    0    0  502  503 -0.00000000000E+00 -0.00000000000E+00 -0.73660234350E+03  0.73660234350E+03  0.00000000000E+00 0.  1.
          6    1    1    2  501    0 -0.13641243979E+03 -0.14660996116E+03 -0.28646808439E+03  0.38955204764E+03  0.17200000000E+03 0.  1.
         -6    1    1    2    0  503  0.13641243979E+03  0.14660996116E+03 -0.35488418379E+03  0.44230037118E+03  0.17200000000E+03 0.  1.
<mgrwt>
<rscale>  2 0.26398264E+03</rscale>
<asrwt>0</asrwt>
<pdfrwt beam="1">  1       21 0.23812519E-01 0.26398264E+03</pdfrwt>
<pdfrwt beam="2">  1       21 0.18415058E+00 0.26398264E+03</pdfrwt>
<totfact> 0.26690431E+03</totfact>
</mgrwt>
</event>
<event>
 4    1  0.1101825E+000  0.1890883E+03  0.7546771E-02  0.1159286E+00
         21   -1    0    0  503  502  0.00000000000E+00  0.00000000000E+00  0.73618288234E+03  0.73618288234E+03  0.00000000000E+00 0.  1.
         21   -1    0    0  501  503 -0.00000000000E+00 -0.00000000000E+00 -0.49715760691E+02  0.49715760691E+02  0.00000000000E+00 0.  1.
          6    1    1    2  501    0 -0.77899332708E+02  0.10102731965E+02  0.40295892167E+03  0.44511825820E+03  0.17200000000E+03 0.  1.
         -6    1    1    2    0  502  0.77899332708E+02 -0.10102731965E+02  0.28350819997E+03  0.34078038483E+03  0.17200000000E+03 0.  1.
<mgrwt>
<rscale>  2 0.18908826E+03</rscale>
<asrwt>0</asrwt>
<pdfrwt beam="1">  1       21 0.18404569E+00 0.18908826E+03</pdfrwt>
<pdfrwt beam="2">  1       21 0.12428943E-01 0.18908826E+03</pdfrwt>
<totfact> 0.94425699E+03</totfact>
</mgrwt>
</event>
<event>
 4    1  0.1101825E+000  0.1854993E+03  0.7546771E-02  0.1162584E+00
         21   -1    0    0  503  502  0.00000000000E+00  0.00000000000E+00  0.43905092089E+02  0.43905092089E+02  0.00000000000E+00 0. -1.
         21   -1    0    0  501  503 -0.00000000000E+00 -0.00000000000E+00 -0.10102876316E+04  0.10102876316E+04  0.00000000000E+00 0. -1.
          6    1    1    2  501    0  0.23384977516E+02 -0.65414944324E+02 -0.73279538065E+03  0.75590941390E+03  0.17200000000E+03 0. -1.
         -6    1    1    2    0  502 -0.23384977516E+02  0.65414944324E+02 -0.23358715885E+03  0.29828330978E+03  0.17200000000E+03 0. -1.
<mgrwt>
<rscale>  2 0.18549925E+03</rscale>
<asrwt>0</asrwt>
<pdfrwt beam="1">  1       21 0.10976274E-01 0.18549925E+03</pdfrwt>
<pdfrwt beam="2">  1       21 0.25257190E+00 0.18549925E+03</pdfrwt>
<totfact> 0.44522900E+03</totfact>
</mgrwt>
</event>
<event>
 4    1  0.1101825E+000  0.1725151E+03  0.7546771E-02  0.1175250E+00
         21   -1    0    0  501  502  0.00000000000E+00  0.00000000000E+00  0.14496310195E+03  0.14496310195E+03  0.00000000000E+00 0. -1.
         21   -1    0    0  502  503 -0.00000000000E+00 -0.00000000000E+00 -0.38800081163E+03  0.38800081163E+03  0.00000000000E+00 0. -1.
          6    1    1    2  501    0 -0.93173313444E+00  0.13288493433E+02  0.61340593930E+02  0.18309593291E+03  0.17200000000E+03 0. -1.
         -6    1    1    2    0  503  0.93173313444E+00 -0.13288493433E+02 -0.30437830361E+03  0.34986798066E+03  0.17200000000E+03 0. -1.
<mgrwt>
<rscale>  2 0.17251508E+03</rscale>
<asrwt>0</asrwt>
<pdfrwt beam="1">  1       21 0.36240776E-01 0.17251508E+03</pdfrwt>
<pdfrwt beam="2">  1       21 0.97000203E-01 0.17251508E+03</pdfrwt>
<totfact> 0.65797797E+03</totfact>
</mgrwt>
</event>
<event>
 4    1  0.1101825E+000  0.1737961E+03  0.7546771E-02  0.1173946E+00
         21   -1    0    0  503  502  0.00000000000E+00  0.00000000000E+00  0.21651549747E+03  0.21651549747E+03  0.00000000000E+00 0.  1.
         21   -1    0    0  501  503 -0.00000000000E+00 -0.00000000000E+00 -0.31351618319E+03  0.31351618319E+03  0.00000000000E+00 0.  1.
          6    1    1    2  501    0  0.46841878241E+01  0.24477112871E+02 -0.24593800152E+03  0.30114875271E+03  0.17200000000E+03 0.  1.
         -6    1    1    2    0  502 -0.46841878241E+01 -0.24477112871E+02  0.14893731580E+03  0.22888292795E+03  0.17200000000E+03 0.  1.
<mgrwt>
<rscale>  2 0.17379606E+03</rscale>
<asrwt>0</asrwt>
<pdfrwt beam="1">  1       21 0.54128875E-01 0.17379606E+03</pdfrwt>
<pdfrwt beam="2">  1       21 0.78379045E-01 0.17379606E+03</pdfrwt>
<totfact> 0.47188218E+03</totfact>
</mgrwt>
</event>
<event>
 4    1  0.1101825E+000  0.1765486E+03  0.7546771E-02  0.1171186E+00
         21   -1    0    0  501  502  0.00000000000E+00  0.00000000000E+00  0.18083178400E+03  0.18083178400E+03  0.00000000000E+00 0. -1.
         21   -1    0    0  502  503 -0.00000000000E+00 -0.00000000000E+00 -0.23974819323E+03  0.23974819323E+03  0.00000000000E+00 0. -1.
          6    1    1    2  501    0  0.31777899504E+02  0.23990833520E+02  0.82025383052E+02  0.19467295255E+03  0.17200000000E+03 0. -1.
         -6    1    1    2    0  503 -0.31777899504E+02 -0.23990833520E+02 -0.14094179228E+03  0.22590702468E+03  0.17200000000E+03 0. -1.
<mgrwt>
<rscale>  2 0.17654856E+03</rscale>
<asrwt>0</asrwt>
<pdfrwt beam="1">  1       21 0.45207946E-01 0.17654856E+03</pdfrwt>
<pdfrwt beam="2">  1       21 0.59937048E-01 0.17654856E+03</pdfrwt>
<totfact> 0.12322671E+04</totfact>
</mgrwt>
</event>
<event>
 4    1  0.1101825E+000  0.2470890E+03  0.7546771E-02  0.1115158E+00
         21   -1    0    0  503  502  0.00000000000E+00  0.00000000000E+00  0.17319427726E+03  0.17319427726E+03  0.00000000000E+00 0.  1.
         21   -1    0    0  501  503 -0.00000000000E+00 -0.00000000000E+00 -0.35261129126E+03  0.35261129126E+03  0.00000000000E+00 0. -1.
          6    1    1    2  501    0 -0.16105799075E+03  0.74359384224E+02 -0.85288299259E+02  0.26139450720E+03  0.17200000000E+03 0. -1.
         -6    1    1    2    0  502  0.16105799075E+03 -0.74359384224E+02 -0.94128714736E+02  0.26441106131E+03  0.17200000000E+03 0.  1.
<mgrwt>
<rscale>  2 0.24708904E+03</rscale>
<asrwt>0</asrwt>
<pdfrwt beam="1">  1       21 0.43298570E-01 0.24708904E+03</pdfrwt>
<pdfrwt beam="2">  1       21 0.88152822E-01 0.24708904E+03</pdfrwt>
<totfact> 0.54394752E+03</totfact>
</mgrwt>
</event>
<event>
 4    1  0.1101825E+000  0.1753343E+03  0.7546771E-02  0.1172396E+00
         21   -1    0    0  501  502  0.00000000000E+00  0.00000000000E+00  0.90488649336E+02  0.90488649336E+02  0.00000000000E+00 0.  1.
         21   -1    0    0  502  503 -0.00000000000E+00 -0.00000000000E+00 -0.42863885936E+03  0.42863885936E+03  0.00000000000E+00 0.  1.
          6    1    1    2  501    0 -0.33771970039E+02  0.41936132441E+01 -0.50863703882E+02  0.18256299933E+03  0.17200000000E+03 0. -1.
         -6    1    1    2    0  503  0.33771970039E+02 -0.41936132441E+01 -0.28728650614E+03  0.33656450936E+03  0.17200000000E+03 0. -1.
<mgrwt>
<rscale>  2 0.17533434E+03</rscale>
<asrwt>0</asrwt>
<pdfrwt beam="1">  1       21 0.22622162E-01 0.17533434E+03</pdfrwt>
<pdfrwt beam="2">  1       21 0.10715971E+00 0.17533434E+03</pdfrwt>
<totfact> 0.12893896E+04</totfact>
</mgrwt>
</event>
<event>
 4    1  0.1101825E+000  0.2108857E+03  0.7546771E-02  0.1140866E+00
         21   -1    0    0  501  502  0.00000000000E+00  0.00000000000E+00  0.28308233107E+03  0.28308233107E+03  0.00000000000E+00 0.  1.
         21   -1    0    0  502  503 -0.00000000000E+00 -0.00000000000E+00 -0.15735290027E+03  0.15735290027E+03  0.00000000000E+00 0.  1.
          6    1    1    2  501    0  0.11452105306E+03 -0.42115621549E+02  0.71658484019E+02  0.22272794056E+03  0.17200000000E+03 0.  1.
         -6    1    1    2    0  503 -0.11452105306E+03  0.42115621549E+02  0.54070946786E+02  0.21770729078E+03  0.17200000000E+03 0.  1.
<mgrwt>
<rscale>  2 0.21088574E+03</rscale>
<asrwt>0</asrwt>
<pdfrwt beam="1">  1       21 0.70770582E-01 0.21088574E+03</pdfrwt>
<pdfrwt beam="2">  1       21 0.39338226E-01 0.21088574E+03</pdfrwt>
<totfact> 0.11131212E+04</totfact>
</mgrwt>
</event>
<event>
 4    1  0.1101825E+000  0.1936658E+03  0.7546771E-02  0.1155196E+00
         21   -1    0    0  501  502  0.00000000000E+00  0.00000000000E+00  0.14112613701E+03  0.14112613701E+03  0.00000000000E+00 0. -1.
         21   -1    0    0  502  503 -0.00000000000E+00 -0.00000000000E+00 -0.32412795981E+03  0.32412795981E+03  0.00000000000E+00 0.  1.
          6    1    1    2  501    0 -0.34349874190E+02  0.82112837887E+02  0.72109750107E+01  0.19379997462E+03  0.17200000000E+03 0. -1.
         -6    1    1    2    0  503  0.34349874190E+02 -0.82112837887E+02 -0.19021279781E+03  0.27145412219E+03  0.17200000000E+03 0.  1.
<mgrwt>
<rscale>  2 0.19366577E+03</rscale>
<asrwt>0</asrwt>
<pdfrwt beam="1">  1       21 0.35281535E-01 0.19366577E+03</pdfrwt>
<pdfrwt beam="2">  1       21 0.81031989E-01 0.19366577E+03</pdfrwt>
<totfact> 0.10341210E+04</totfact>
</mgrwt>
</event>
<event>
 4    1  0.1101825E+000  0.2762910E+03  0.7546771E-02  0.1097732E+00
         21   -1    0    0  501  502  0.00000000000E+00  0.00000000000E+00  0.72600414302E+02  0.72600414302E+02  0.00000000000E+00 0.  1.
         21   -1    0    0  502  503 -0.00000000000E+00 -0.00000000000E+00 -0.12489940390E+04  0.12489940390E+04  0.00000000000E+00 0.  1.
          6    1    1    2  501    0 -0.21465936991E+03  0.25962525766E+02 -0.32540915110E+03  0.42688149814E+03  0.17200000000E+03 0.  1.
         -6    1    1    2    0  503  0.21465936991E+03 -0.25962525766E+02 -0.85098447356E+03  0.89471295513E+03  0.17200000000E+03 0.  1.
<mgrwt>
<rscale>  2 0.27629097E+03</rscale>
<asrwt>0</asrwt>
<pdfrwt beam="1">  1       21 0.18150104E-01 0.27629097E+03</pdfrwt>
<pdfrwt beam="2">  1       21 0.31224850E+00 0.27629097E+03</pdfrwt>
<totfact> 0.72699457E+02</totfact>
</mgrwt>
</event>
<event>
 4    1  0.1101825E+000  0.1805719E+03  0.7546771E-02  0.1167251E+00
         21   -1    0    0  503  502  0.00000000000E+00  0.00000000000E+00  0.44438438537E+03  0.44438438537E+03  0.00000000000E+00 0. -1.
         21   -1    0    0  501  503 -0.00000000000E+00 -0.00000000000E+00 -0.77413917101E+02  0.77413917101E+02  0.00000000000E+00 0.  1.
          6    1    1    2  501    0 -0.40428168050E+02  0.37252680601E+02  0.12388379608E+03  0.21898263382E+03  0.17200000000E+03 0.  1.
         -6    1    1    2    0  502  0.40428168050E+02 -0.37252680601E+02  0.24308667219E+03  0.30281566865E+03  0.17200000000E+03 0.  1.
<mgrwt>
<rscale>  2 0.18057187E+03</rscale>
<asrwt>0</asrwt>
<pdfrwt beam="1">  1       21 0.11109609E+00 0.18057187E+03</pdfrwt>
<pdfrwt beam="2">  1       21 0.19353481E-01 0.18057187E+03</pdfrwt>
<totfact> 0.15773374E+04</totfact>
</mgrwt>
</event>
<event>
 4    1  0.1101825E+000  0.1971674E+03  0.7546771E-02  0.1152151E+00
         21   -1    0    0  503  502  0.00000000000E+00  0.00000000000E+00  0.21901580137E+03  0.21901580137E+03  0.00000000000E+00 0.  1.
         21   -1    0    0  501  503 -0.00000000000E+00 -0.00000000000E+00 -0.45509926040E+03  0.45509926040E+03  0.00000000000E+00 0.  1.
          6    1    1    2  501    0 -0.58508238568E+02 -0.76601480801E+02 -0.38128738225E+03  0.42924942482E+03  0.17200000000E+03 0.  1.
         -6    1    1    2    0  502  0.58508238568E+02  0.76601480801E+02  0.14520392322E+03  0.24486563695E+03  0.17200000000E+03 0.  1.
<mgrwt>
<rscale>  2 0.19716744E+03</rscale>
<asrwt>0</asrwt>
<pdfrwt beam="1">  1       21 0.54753951E-01 0.19716744E+03</pdfrwt>
<pdfrwt beam="2">  1       21 0.11377481E+00 0.19716744E+03</pdfrwt>
<totfact> 0.18869754E+03</totfact>
</mgrwt>
</event>
<event>
 4    1  0.1101825E+000  0.2675805E+03  0.7546771E-02  0.1102672E+00
         21   -1    0    0  503  502  0.00000000000E+00  0.00000000000E+00  0.95587135141E+02  0.95587135141E+02  0.00000000000E+00 0. -1.
         21   -1    0    0  501  503 -0.00000000000E+00 -0.00000000000E+00 -0.79297510789E+03  0.79297510789E+03  0.00000000000E+00 0.  1.
          6    1    1    2  501    0  0.16022467346E+03  0.12784117039E+03 -0.45326144122E+03  0.52635087624E+03  0.17200000000E+03 0.  1.
         -6    1    1    2    0  502 -0.16022467346E+03 -0.12784117039E+03 -0.24412653154E+03  0.36221136679E+03  0.17200000000E+03 0. -1.
<mgrwt>
<rscale>  2 0.26758048E+03</rscale>
<asrwt>0</asrwt>
<pdfrwt beam="1">  1       21 0.23896784E-01 0.26758048E+03</pdfrwt>
<pdfrwt beam="2">  1       21 0.19824378E+00 0.26758048E+03</pdfrwt>
<totfact> 0.21292727E+03</totfact>
</mgrwt>
</event>
<event>
 4    1  0.1101825E+000  0.2358317E+03  0.7546771E-02  0.1122601E+00
         21   -1    0    0  501  502  0.00000000000E+00  0.00000000000E+00  0.80895812806E+03  0.80895812806E+03  0.00000000000E+00 0.  1.
         21   -1    0    0  502  503 -0.00000000000E+00 -0.00000000000E+00 -0.90415042999E+02  0.90415042999E+02  0.00000000000E+00 0. -1.
          6    1    1    2  501    0  0.15828573055E+03 -0.31276437159E+02  0.57939203881E+03  0.62554913689E+03  0.17200000000E+03 0.  1.
         -6    1    1    2    0  503 -0.15828573055E+03  0.31276437159E+02  0.13915104625E+03  0.27382403417E+03  0.17200000000E+03 0.  1.
<mgrwt>
<rscale>  2 0.23583169E+03</rscale>
<asrwt>0</asrwt>
<pdfrwt beam="1">  1       21 0.20223951E+00 0.23583169E+03</pdfrwt>
<pdfrwt beam="2">  1       21 0.22603763E-01 0.23583169E+03</pdfrwt>
<totfact> 0.22871681E+03</totfact>
</mgrwt>
</event>
<event>
 4    1  0.1101825E+000  0.2698714E+03  0.7546771E-02  0.1101353E+00
         21   -1    0    0  501  502  0.00000000000E+00  0.00000000000E+00  0.75276404617E+03  0.75276404617E+03  0.00000000000E+00 0.  1.
         21   -1    0    0  502  503 -0.00000000000E+00 -0.00000000000E+00 -0.97874381091E+02  0.97874381091E+02  0.00000000000E+00 0. -1.
          6    1    1    2  501    0  0.19526489168E+03 -0.71541423674E+02  0.37301442166E+03  0.46040233709E+03  0.17200000000E+03 0. -1.
         -6    1    1    2    0  503 -0.19526489168E+03  0.71541423674E+02  0.28187524342E+03  0.39023609018E+03  0.17200000000E+03 0.  1.
<mgrwt>
<rscale>  2 0.26987136E+03</rscale>
<asrwt>0</asrwt>
<pdfrwt beam="1">  1       21 0.18819099E+00 0.26987136E+03</pdfrwt>
<pdfrwt beam="2">  1       21 0.24468597E-01 0.26987136E+03</pdfrwt>
<totfact> 0.23688625E+03</totfact>
</mgrwt>
</event>
<event>
 4    1  0.1101825E+000  0.1970481E+03  0.7546771E-02  0.1152254E+00
         21   -1    0    0  501  502  0.00000000000E+00  0.00000000000E+00  0.52120782366E+02  0.52120782366E+02  0.00000000000E+00 0. -1.
         21   -1    0    0  502  503 -0.00000000000E+00 -0.00000000000E+00 -0.10147430886E+04  0.10147430886E+04  0.00000000000E+00 0.  1.
          6    1    1    2  501    0 -0.75410563684E+02 -0.59642316190E+02 -0.20626385621E+03  0.28525907063E+03  0.17200000000E+03 0. -1.
         -6    1    1    2    0  503  0.75410563684E+02  0.59642316190E+02 -0.75635845005E+03  0.78160480037E+03  0.17200000000E+03 0.  1.
<mgrwt>
<rscale>  2 0.19704811E+03</rscale>
<asrwt>0</asrwt>
<pdfrwt beam="1">  1       21 0.13030196E-01 0.19704811E+03</pdfrwt>
<pdfrwt beam="2">  1       21 0.25368577E+00 0.19704811E+03</pdfrwt>
<totfact> 0.31868571E+03</totfact>
</mgrwt>
</event>
<event>
 4    1  0.1101825E+000  0.1925282E+03  0.7546771E-02  0.1156201E+00
         21   -1    0    0  501  502  0.00000000000E+00  0.00000000000E+00  0.32348857188E+02  0.32348857188E+02  0.00000000000E+00 0. -1.
         21   -1    0    0  502  503 -0.00000000000E+00 -0.00000000000E+00 -0.12084599120E+04  0.12084599120E+04  0.00000000000E+00 0. -1.
          6    1    1    2  501    0  0.44124388461E+02  0.74405227860E+02 -0.72926471563E+03  0.75425070438E+03  0.17200000000E+03 0. -1.
         -6    1    1    2    0  503 -0.44124388461E+02 -0.74405227860E+02 -0.44684633915E+03  0.48655806478E+03  0.17200000000E+03 0. -1.
<mgrwt>
<rscale>  2 0.19252818E+03</rscale>
<asrwt>0</asrwt>
<pdfrwt beam="1">  1       21 0.80872149E-02 0.19252818E+03</pdfrwt>
<pdfrwt beam="2">  1       21 0.30211496E+00 0.19252818E+03</pdfrwt>
<totfact> 0.39091490E+03</totfact>
</mgrwt>
</event>
<event>
 4    1  0.1101825E+000  0.1858312E+03  0.7546771E-02  0.1162276E+00
         21   -1    0    0  501  502  0.00000000000E+00  0.00000000000E+00  0.18252313482E+03  0.18252313482E+03  0.00000000000E+00 0. -1.
         21   -1    0    0  502  503 -0.00000000000E+00 -0.00000000000E+00 -0.18920005588E+03  0.18920005588E+03  0.00000000000E+00 0.  1.
          6    1    1    2  501    0  0.46239530093E+02  0.53020075759E+02 -0.29325263570E+01  0.18585430393E+03  0.17200000000E+03 0. -1.
         -6    1    1    2    0  503 -0.46239530093E+02 -0.53020075759E+02 -0.37443947057E+01  0.18586888677E+03  0.17200000000E+03 0. -1.
<mgrwt>
<rscale>  2 0.18583117E+03</rscale>
<asrwt>0</asrwt>
<pdfrwt beam="1">  1       21 0.45630784E-01 0.18583117E+03</pdfrwt>
<pdfrwt beam="2">  1       21 0.47300014E-01 0.18583117E+03</pdfrwt>
<totfact> 0.19770725E+04</totfact>
</mgrwt>
</event>
<event>
 4    1  0.1101825E+000  0.1847476E+03  0.7546771E-02  0.1163286E+00
         21   -1    0    0  503  502  0.00000000000E+00  0.00000000000E+00  0.97279397932E+03  0.97279397932E+03  0.00000000000E+00 0.  1.
         21   -1    0    0  501  503 -0.00000000000E+00 -0.00000000000E+00 -0.56622550933E+02  0.56622550933E+02  0.00000000000E+00 0. -1.
          6    1    1    2  501    0  0.63961705584E+02 -0.21367649102E+02  0.14065265564E+03  0.23219570571E+03  0.17200000000E+03 0.  1.
         -6    1    1    2    0  502 -0.63961705584E+02  0.21367649102E+02  0.77551877274E+03  0.79722082454E+03  0.17200000000E+03 0.  1.
<mgrwt>
<rscale>  2 0.18474760E+03</rscale>
<asrwt>0</asrwt>
<pdfrwt beam="1">  1       21 0.24319844E+00 0.18474760E+03</pdfrwt>
<pdfrwt beam="2">  1       21 0.14155641E-01 0.18474760E+03</pdfrwt>
<totfact> 0.32061751E+03</totfact>
</mgrwt>
</event>
<event>
 4    1  0.1101825E+000  0.1797877E+03  0.7546771E-02  0.1168009E+00
         21   -1    0    0  501  502  0.00000000000E+00  0.00000000000E+00  0.32751543263E+03  0.32751543263E+03  0.00000000000E+00 0.  1.
         21   -1    0    0  502  503 -0.00000000000E+00 -0.00000000000E+00 -0.30367520597E+03  0.30367520597E+03  0.00000000000E+00 0.  1.
          6    1    1    2  501    0  0.52140282886E+02 -0.45816913563E+01  0.27120880593E+03  0.32538871740E+03  0.17200000000E+03 0.  1.
         -6    1    1    2    0  503 -0.52140282886E+02  0.45816913563E+01 -0.24736857928E+03  0.30580192120E+03  0.17200000000E+03 0.  1.
<mgrwt>
<rscale>  2 0.17978766E+03</rscale>
<asrwt>0</asrwt>
<pdfrwt beam="1">  1       21 0.81878858E-01 0.17978766E+03</pdfrwt>
<pdfrwt beam="2">  1       21 0.75918801E-01 0.17978766E+03</pdfrwt>
<totfact> 0.20431767E+03</totfact>
</mgrwt>
</event>
<event>
 4    1  0.1101825E+000  0.1926498E+03  0.7546771E-02  0.1156093E+00
         21   -1    0    0  501  502  0.00000000000E+00  0.00000000000E+00  0.70207519290E+03  0.70207519290E+03  0.00000000000E+00 0. -1.
         21   -1    0    0  502  503 -0.00000000000E+00 -0.00000000000E+00 -0.11961947965E+03  0.11961947965E+03  0.00000000000E+00 0. -1.
          6    1    1    2  501    0 -0.34468404255E+02 -0.79635851693E+02  0.59814814039E+03  0.62840682493E+03  0.17200000000E+03 0. -1.
         -6    1    1    2    0  503  0.34468404255E+02  0.79635851693E+02 -0.15692427135E+02  0.19328784762E+03  0.17200000000E+03 0. -1.
<mgrwt>
<rscale>  2 0.19264979E+03</rscale>
<asrwt>0</asrwt>
<pdfrwt beam="1">  1       21 0.17551879E+00 0.19264979E+03</pdfrwt>
<pdfrwt beam="2">  1       21 0.29904872E-01 0.19264979E+03</pdfrwt>
<totfact> 0.20942087E+03</totfact>
</mgrwt>
</event>
<event>
 4    1  0.1101825E+000  0.1828597E+03  0.7546771E-02  0.1165064E+00
         21   -1    0    0  501  502  0.00000000000E+00  0.00000000000E+00  0.24322136575E+03  0.24322136575E+03  0.00000000000E+00 0.  1.
         21   -1    0    0  502  503 -0.00000000000E+00 -0.00000000000E+00 -0.24834150405E+03  0.24834150405E+03  0.00000000000E+00 0.  1.
          6    1    1    2  501    0 -0.13774143156E+02  0.60530366912E+02  0.16165696172E+03  0.24407094381E+03  0.17200000000E+03 0.  1.
         -6    1    1    2    0  503  0.13774143156E+02 -0.60530366912E+02 -0.16677710003E+03  0.24749192599E+03  0.17200000000E+03 0.  1.
<mgrwt>
<rscale>  2 0.18285965E+03</rscale>
<asrwt>0</asrwt>
<pdfrwt beam="1">  1       21 0.60805341E-01 0.18285965E+03</pdfrwt>
<pdfrwt beam="2">  1       21 0.62085376E-01 0.18285965E+03</pdfrwt>
<totfact> 0.61070696E+03</totfact>
</mgrwt>
</event>
<event>
 4    1  0.1101825E+000  0.3789986E+03  0.7546771E-02  0.1051305E+00
         21   -1    0    0  503  502  0.00000000000E+00  0.00000000000E+00  0.82236424665E+03  0.82236424665E+03  0.00000000000E+00 0.  1.
         21   -1    0    0  501  503 -0.00000000000E+00 -0.00000000000E+00 -0.35420355635E+03  0.35420355635E+03  0.00000000000E+00 0. -1.
          6    1    1    2  501    0  0.28611839339E+03 -0.17942176252E+03 -0.18474884196E+03  0.42163021537E+03  0.17200000000E+03 0. -1.
         -6    1    1    2    0  502 -0.28611839339E+03  0.17942176252E+03  0.65290953227E+03  0.75493758764E+03  0.17200000000E+03 0.  1.
<mgrwt>
<rscale>  2 0.37899855E+03</rscale>
<asrwt>0</asrwt>
<pdfrwt beam="1">  1       21 0.20559106E+00 0.37899855E+03</pdfrwt>
<pdfrwt beam="2">  1       21 0.88550891E-01 0.37899855E+03</pdfrwt>
<totfact> 0.11235870E+02</totfact>
</mgrwt>
</event>
<event>
 4    1  0.1101825E+000  0.1914481E+03  0.7546771E-02  0.1157162E+00
         21   -1    0    0  501  502  0.00000000000E+00  0.00000000000E+00  0.64314040540E+03  0.64314040540E+03  0.00000000000E+00 0. -1.
         21   -1    0    0  502  503 -0.00000000000E+00 -0.00000000000E+00 -0.67591223301E+02  0.67591223301E+02  0.00000000000E+00 0.  1.
          6    1    1    2  501    0  0.80466011279E+02  0.24363699165E+02  0.42851374852E+03  0.46933612846E+03  0.17200000000E+03 0. -1.
         -6    1    1    2    0  503 -0.80466011279E+02 -0.24363699165E+02  0.14703543358E+03  0.24139550024E+03  0.17200000000E+03 0.  1.
<mgrwt>
<rscale>  2 0.19144808E+03</rscale>
<asrwt>0</asrwt>
<pdfrwt beam="1">  1       21 0.16078508E+00 0.19144808E+03</pdfrwt>
<pdfrwt beam="2">  1       21 0.16897808E-01 0.19144808E+03</pdfrwt>
<totfact> 0.78433072E+03</totfact>
</mgrwt>
</event>
<event>
 4    1  0.1101825E+000  0.2580005E+03  0.7546771E-02  0.1108351E+00
         21   -1    0    0  503  502  0.00000000000E+00  0.00000000000E+00  0.52077130367E+03  0.52077130367E+03  0.00000000000E+00 0.  1.
         21   -1    0    0  501  503 -0.00000000000E+00 -0.00000000000E+00 -0.15604608089E+03  0.15604608089E+03  0.00000000000E+00 0. -1.
          6    1    1    2  501    0  0.12121942335E+03  0.14928536626E+03  0.38432723596E+02  0.26084735655E+03  0.17200000000E+03 0. -1.
         -6    1    1    2    0  502 -0.12121942335E+03 -0.14928536626E+03  0.32629249918E+03  0.41597002800E+03  0.17200000000E+03 0.  1.
<mgrwt>
<rscale>  2 0.25800052E+03</rscale>
<asrwt>0</asrwt>
<pdfrwt beam="1">  1       21 0.13019282E+00 0.25800052E+03</pdfrwt>
<pdfrwt beam="2">  1       21 0.39011521E-01 0.25800052E+03</pdfrwt>
<totfact> 0.25903934E+03</totfact>
</mgrwt>
</event>
<event>
 4    1  0.1101825E+000  0.2149489E+03  0.7546771E-02  0.1137706E+00
         21   -1    0    0  503  502  0.00000000000E+00  0.00000000000E+00  0.27347369282E+03  0.27347369282E+03  0.00000000000E+00 0.  1.
         21   -1    0    0  501  503 -0.00000000000E+00 -0.00000000000E+00 -0.17913709229E+03  0.17913709229E+03  0.00000000000E+00 0.  1.
          6    1    1    2  501    0  0.74546652892E+02  0.10517521110E+03 -0.68019821858E+01  0.21505649362E+03  0.17200000000E+03 0. -1.
         -6    1    1    2    0  502 -0.74546652892E+02 -0.10517521110E+03  0.10113858272E+03  0.23755429149E+03  0.17200000000E+03 0. -1.
<mgrwt>
<rscale>  2 0.21494890E+03</rscale>
<asrwt>0</asrwt>
<pdfrwt beam="1">  1       21 0.68368423E-01 0.21494890E+03</pdfrwt>
<pdfrwt beam="2">  1       21 0.44784273E-01 0.21494890E+03</pdfrwt>
<totfact> 0.91980316E+03</totfact>
</mgrwt>
</event>
<event>
 4    1  0.1101825E+000  0.1928674E+03  0.7546771E-02  0.1155900E+00
         21   -1    0    0  503  502  0.00000000000E+00  0.00000000000E+00  0.21180897792E+03  0.21180897792E+03  0.00000000000E+00 0. -1.
         21   -1    0    0  501  503 -0.00000000000E+00 -0.00000000000E+00 -0.17628295354E+03  0.17628295354E+03  0.00000000000E+00 0. -1.
          6    1    1    2  501    0 -0.80548464716E+02 -0.33552759334E+02  0.29664962215E+02  0.19513547297E+03  0.17200000000E+03 0. -1.
         -6    1    1    2    0  502  0.80548464716E+02  0.33552759334E+02  0.58610621663E+01  0.19295645850E+03  0.17200000000E+03 0. -1.
<mgrwt>
<rscale>  2 0.19286742E+03</rscale>
<asrwt>0</asrwt>
<pdfrwt beam="1">  1       21 0.52952244E-01 0.19286742E+03</pdfrwt>
<pdfrwt beam="2">  1       21 0.44070738E-01 0.19286742E+03</pdfrwt>
<totfact> 0.16711305E+04</totfact>
</mgrwt>
</event>
<event>
 4    1  0.1101825E+000  0.2312284E+03  0.7546771E-02  0.1125778E+00
         21   -1    0    0  501  502  0.00000000000E+00  0.00000000000E+00  0.67455440547E+03  0.67455440547E+03  0.00000000000E+00 0. -1.
         21   -1    0    0  502  503 -0.00000000000E+00 -0.00000000000E+00 -0.22893380666E+03  0.22893380666E+03  0.00000000000E+00 0.  1.
          6    1    1    2  501    0  0.14881716267E+03  0.41665356760E+02  0.58807482081E+03  0.63190073962E+03  0.17200000000E+03 0. -1.
         -6    1    1    2    0  503 -0.14881716267E+03 -0.41665356760E+02 -0.14245422200E+03  0.27158747251E+03  0.17200000000E+03 0.  1.
<mgrwt>
<rscale>  2 0.23122835E+03</rscale>
<asrwt>0</asrwt>
<pdfrwt beam="1">  1       21 0.16863860E+00 0.23122835E+03</pdfrwt>
<pdfrwt beam="2">  1       21 0.57233453E-01 0.23122835E+03</pdfrwt>
<totfact> 0.60022842E+02</totfact>
</mgrwt>
</event>
<event>
 4    1  0.1101825E+000  0.2248093E+03  0.7546771E-02  0.1130347E+00
         21   -1    0    0  501  502  0.00000000000E+00  0.00000000000E+00  0.30763084101E+03  0.30763084101E+03  0.00000000000E+00 0. -1.
         21   -1    0    0  502  503 -0.00000000000E+00 -0.00000000000E+00 -0.18259371283E+03  0.18259371283E+03  0.00000000000E+00 0.  1.
          6    1    1    2  501    0 -0.50033032957E+02  0.13583789300E+03  0.14013380660E+03  0.26490889247E+03  0.17200000000E+03 0. -1.
         -6    1    1    2    0  503  0.50033032957E+02 -0.13583789300E+03 -0.15096678414E+02  0.22531566137E+03  0.17200000000E+03 0. -1.
<mgrwt>
<rscale>  2 0.22480934E+03</rscale>
<asrwt>0</asrwt>
<pdfrwt beam="1">  1       21 0.76907710E-01 0.22480934E+03</pdfrwt>
<pdfrwt beam="2">  1       21 0.45648429E-01 0.22480934E+03</pdfrwt>
<totfact> 0.67597666E+03</totfact>
</mgrwt>
</event>
<event>
 4    1  0.1101825E+000  0.1789424E+03  0.7546771E-02  0.1168831E+00
         21   -1    0    0  501  502  0.00000000000E+00  0.00000000000E+00  0.97046287822E+02  0.97046287822E+02  0.00000000000E+00 0. -1.
         21   -1    0    0  502  503 -0.00000000000E+00 -0.00000000000E+00 -0.33046354326E+03  0.33046354326E+03  0.00000000000E+00 0. -1.
          6    1    1    2  501    0 -0.45782368098E+02  0.18448449045E+02 -0.10827780368E+03  0.20915174699E+03  0.17200000000E+03 0.  1.
         -6    1    1    2    0  503  0.45782368098E+02 -0.18448449045E+02 -0.12513945177E+03  0.21835808409E+03  0.17200000000E+03 0.  1.
<mgrwt>
<rscale>  2 0.17894237E+03</rscale>
<asrwt>0</asrwt>
<pdfrwt beam="1">  1       21 0.24261572E-01 0.17894237E+03</pdfrwt>
<pdfrwt beam="2">  1       21 0.82615885E-01 0.17894237E+03</pdfrwt>
<totfact> 0.20676111E+04</totfact>
</mgrwt>
</event>
<event>
 4    1  0.1101825E+000  0.1744785E+03  0.7546771E-02  0.1173256E+00
         21   -1    0    0  503  502  0.00000000000E+00  0.00000000000E+00  0.10807811273E+04  0.10807811273E+04  0.00000000000E+00 0. -1.
         21   -1    0    0  501  503 -0.00000000000E+00 -0.00000000000E+00 -0.55061811587E+02  0.55061811587E+02  0.00000000000E+00 0. -1.
          6    1    1    2  501    0  0.11773913740E+02 -0.26834765984E+02  0.11594736929E+03  0.20949110281E+03  0.17200000000E+03 0. -1.
         -6    1    1    2    0  502 -0.11773913740E+02  0.26834765984E+02  0.90977194638E+03  0.92635183603E+03  0.17200000000E+03 0. -1.
<mgrwt>
<rscale>  2 0.17447845E+03</rscale>
<asrwt>0</asrwt>
<pdfrwt beam="1">  1       21 0.27019521E+00 0.17447845E+03</pdfrwt>
<pdfrwt beam="2">  1       21 0.13765456E-01 0.17447845E+03</pdfrwt>
<totfact> 0.23770218E+03</totfact>
</mgrwt>
</event>
<event>
 4    1  0.1101825E+000  0.2322809E+03  0.7546771E-02  0.1125045E+00
         21   -1    0    0  501  502  0.00000000000E+00  0.00000000000E+00  0.63492709112E+03  0.63492709112E+03  0.00000000000E+00 0. -1.
         21   -1    0    0  502  503 -0.00000000000E+00 -0.00000000000E+00 -0.15272737641E+03  0.15272737641E+03  0.00000000000E+00 0. -1.
          6    1    1    2  501    0 -0.12753493181E+03 -0.90029190638E+02  0.50340214140E+03  0.55440790937E+03  0.17200000000E+03 0. -1.
         -6    1    1    2    0  503  0.12753493181E+03  0.90029190638E+02 -0.21202426698E+02  0.23324655817E+03  0.17200000000E+03 0. -1.
<mgrwt>
<rscale>  2 0.23228089E+03</rscale>
<asrwt>0</asrwt>
<pdfrwt beam="1">  1       21 0.15873177E+00 0.23228089E+03</pdfrwt>
<pdfrwt beam="2">  1       21 0.38181846E-01 0.23228089E+03</pdfrwt>
<totfact> 0.16395790E+03</totfact>
</mgrwt>
</event>
<event>
 4    1  0.1101825E+000  0.1723470E+03  0.7546771E-02  0.1175422E+00
         21   -1    0    0  501  502  0.00000000000E+00  0.00000000000E+00  0.13685878642E+04  0.13685878642E+04  0.00000000000E+00 0. -1.
         21   -1    0    0  502  503 -0.00000000000E+00 -0.00000000000E+00 -0.23518766553E+02  0.23518766553E+02  0.00000000000E+00 0. -1.
          6    1    1    2  501    0 -0.22745098842E+01 -0.10691764578E+02  0.47917052565E+03  0.50922281948E+03  0.17200000000E+03 0. -1.
         -6    1    1    2    0  503  0.22745098842E+01  0.10691764578E+02  0.86589857200E+03  0.88288381128E+03  0.17200000000E+03 0. -1.
<mgrwt>
<rscale>  2 0.17234700E+03</rscale>
<asrwt>0</asrwt>
<pdfrwt beam="1">  1       21 0.34214670E+00 0.17234700E+03</pdfrwt>
<pdfrwt beam="2">  1       21 0.58796963E-02 0.17234700E+03</pdfrwt>
<totfact> 0.40807672E+03</totfact>
</mgrwt>
</event>
<event>
 4    1  0.1101825E+000  0.1869169E+03  0.7546771E-02  0.1161272E+00
         21   -1    0    0  503  502  0.00000000000E+00  0.00000000000E+00  0.13421831753E+04  0.13421831753E+04  0.00000000000E+00 0. -1.
         21   -1    0    0  501  503 -0.00000000000E+00 -0.00000000000E+00 -0.67125788400E+02  0.67125788400E+02  0.00000000000E+00 0. -1.
          6    1    1    2  501    0 -0.47654693574E+02  0.55524490711E+02  0.86179693456E+02  0.20582730250E+03  0.17200000000E+03 0. -1.
         -6    1    1    2    0  502  0.47654693574E+02 -0.55524490711E+02  0.11888776935E+04  0.12034816612E+04  0.17200000000E+03 0. -1.
<mgrwt>
<rscale>  2 0.18691693E+03</rscale>
<asrwt>0</asrwt>
<pdfrwt beam="1">  1       21 0.33554571E+00 0.18691693E+03</pdfrwt>
<pdfrwt beam="2">  1       21 0.16781451E-01 0.18691693E+03</pdfrwt>
<totfact> 0.68509565E+02</totfact>
</mgrwt>
</event>
<event>
 4    1  0.1101825E+000  0.2309627E+03  0.7546771E-02  0.1125964E+00
         21   -1    0    0  503  502  0.00000000000E+00  0.00000000000E+00  0.46963590683E+02  0.46963590683E+02  0.00000000000E+00 0. -1.
         21   -1    0    0  501  503 -0.00000000000E+00 -0.00000000000E+00 -0.16104032467E+04  0.16104032467E+04  0.00000000000E+00 0.  1.
          6    1    1    2  501    0  0.42242248235E+02 -0.14824089508E+03 -0.12315639911E+04  0.12530337723E+04  0.17200000000E+03 0.  1.
         -6    1    1    2    0  502 -0.42242248235E+02  0.14824089508E+03 -0.33187566497E+03  0.40433306507E+03  0.17200000000E+03 0. -1.
<mgrwt>
<rscale>  2 0.23096270E+03</rscale>
<asrwt>0</asrwt>
<pdfrwt beam="1">  1       21 0.11740899E-01 0.23096270E+03</pdfrwt>
<pdfrwt beam="2">  1       21 0.40260077E+00 0.23096270E+03</pdfrwt>
<totfact> 0.48343302E+02</totfact>
</mgrwt>
</event>
<event>
 4    1  0.1101825E+000  0.2102853E+03  0.7546771E-02  0.1141340E+00
         21   -1    0    0  503  502  0.00000000000E+00  0.00000000000E+00  0.29317058352E+03  0.29317058352E+03  0.00000000000E+00 0.  1.
         21   -1    0    0  501  503 -0.00000000000E+00 -0.00000000000E+00 -0.29122199946E+03  0.29122199946E+03  0.00000000000E+00 0.  1.
          6    1    1    2  501    0 -0.12082316161E+03  0.61383692847E+01 -0.20190070682E+03  0.29151983015E+03  0.17200000000E+03 0.  1.
         -6    1    1    2    0  502  0.12082316161E+03 -0.61383692847E+01  0.20384929087E+03  0.29287275283E+03  0.17200000000E+03 0.  1.
<mgrwt>
<rscale>  2 0.21028532E+03</rscale>
<asrwt>0</asrwt>
<pdfrwt beam="1">  1       21 0.73292646E-01 0.21028532E+03</pdfrwt>
<pdfrwt beam="2">  1       21 0.72805500E-01 0.21028532E+03</pdfrwt>
<totfact> 0.28009136E+03</totfact>
</mgrwt>
</event>
<event>
 4    1  0.1101825E+000  0.2195708E+03  0.7546771E-02  0.1134203E+00
         21   -1    0    0  503  502  0.00000000000E+00  0.00000000000E+00  0.93016970192E+02  0.93016970192E+02  0.00000000000E+00 0. -1.
         21   -1    0    0  501  503 -0.00000000000E+00 -0.00000000000E+00 -0.60188639126E+03  0.60188639126E+03  0.00000000000E+00 0. -1.
          6    1    1    2  501    0  0.35414280168E+02  0.13180730158E+03 -0.38391004982E+03  0.44226492326E+03  0.17200000000E+03 0. -1.
         -6    1    1    2    0  502 -0.35414280168E+02 -0.13180730158E+03 -0.12495937125E+03  0.25263843819E+03  0.17200000000E+03 0. -1.
<mgrwt>
<rscale>  2 0.21957080E+03</rscale>
<asrwt>0</asrwt>
<pdfrwt beam="1">  1       21 0.23254243E-01 0.21957080E+03</pdfrwt>
<pdfrwt beam="2">  1       21 0.15047159E+00 0.21957080E+03</pdfrwt>
<totfact> 0.50416913E+03</totfact>
</mgrwt>
</event>
<event>
 4    1  0.1101825E+000  0.1769882E+03  0.7546771E-02  0.1170750E+00
         21   -1    0    0  503  502  0.00000000000E+00  0.00000000000E+00  0.19606459379E+03  0.19606459379E+03  0.00000000000E+00 0. -1.
         21   -1    0    0  501  503 -0.00000000000E+00 -0.00000000000E+00 -0.26166572405E+03  0.26166572405E+03  0.00000000000E+00 0. -1.
          6    1    1    2  501    0 -0.41283147833E+02  0.60428596203E+01 -0.17562051338E+03  0.24933387088E+03  0.17200000000E+03 0. -1.
         -6    1    1    2    0  502  0.41283147833E+02 -0.60428596203E+01  0.11001938312E+03  0.20839644697E+03  0.17200000000E+03 0. -1.
<mgrwt>
<rscale>  2 0.17698818E+03</rscale>
<asrwt>0</asrwt>
<pdfrwt beam="1">  1       21 0.49016149E-01 0.17698818E+03</pdfrwt>
<pdfrwt beam="2">  1       21 0.65416431E-01 0.17698818E+03</pdfrwt>
<totfact> 0.86329059E+03</totfact>
</mgrwt>
</event>
<event>
 4    1  0.1101825E+000  0.2528730E+03  0.7546771E-02  0.1111502E+00
         21   -1    0    0  503  502  0.00000000000E+00  0.00000000000E+00  0.74058555842E+03  0.74058555842E+03  0.00000000000E+00 0.  1.
         21   -1    0    0  501  503 -0.00000000000E+00 -0.00000000000E+00 -0.86344169749E+02  0.86344169749E+02  0.00000000000E+00 0. -1.
          6    1    1    2  501    0 -0.89720605008E+01  0.18514928023E+03  0.32826679210E+03  0.41437162142E+03  0.17200000000E+03 0.  1.
         -6    1    1    2    0  502  0.89720605008E+01 -0.18514928023E+03  0.32597459656E+03  0.41255810675E+03  0.17200000000E+03 0. -1.
<mgrwt>
<rscale>  2 0.25287300E+03</rscale>
<asrwt>0</asrwt>
<pdfrwt beam="1">  1       21 0.18514637E+00 0.25287300E+03</pdfrwt>
<pdfrwt beam="2">  1       21 0.21586045E-01 0.25287300E+03</pdfrwt>
<totfact> 0.31935452E+03</totfact>
</mgrwt>
</event>
<event>
 4    1  0.1101825E+000  0.1911753E+03  0.7546771E-02  0.1157406E+00
         21   -1    0    0  501  502  0.00000000000E+00  0.00000000000E+00  0.69718723659E+03  0.69718723659E+03  0.00000000000E+00 0.  1.
         21   -1    0    0  502  503 -0.00000000000E+00 -0.00000000000E+00 -0.53882649797E+02  0.53882649797E+02  0.00000000000E+00 0.  1.
          6    1    1    2  501    0 -0.78129321059E+02  0.29322203232E+02  0.38348124402E+03  0.42849252844E+03  0.17200000000E+03 0. -1.
         -6    1    1    2    0  503  0.78129321059E+02 -0.29322203232E+02  0.25982334277E+03  0.32257735794E+03  0.17200000000E+03 0. -1.
<mgrwt>
<rscale>  2 0.19117527E+03</rscale>
<asrwt>0</asrwt>
<pdfrwt beam="1">  1       21 0.17429678E+00 0.19117527E+03</pdfrwt>
<pdfrwt beam="2">  1       21 0.13470665E-01 0.19117527E+03</pdfrwt>
<totfact> 0.95055550E+03</totfact>
</mgrwt>
</event>
<event>
 4    1  0.1101825E+000  0.2347897E+03  0.7546771E-02  0.1123313E+00
         21   -1    0    0  501  502  0.00000000000E+00  0.00000000000E+00  0.20186405622E+03  0.20186405622E+03  0.00000000000E+00 0.  1.
         21   -1    0    0  502  503 -0.00000000000E+00 -0.00000000000E+00 -0.27409183896E+03  0.27409183896E+03  0.00000000000E+00 0.  1.
          6    1    1    2  501    0 -0.29816539820E+02  0.15701326104E+03 -0.21695582022E+02  0.23578992445E+03  0.17200000000E+03 0.  1.
         -6    1    1    2    0  503  0.29816539820E+02 -0.15701326104E+03 -0.50532200711E+02  0.24016597074E+03  0.17200000000E+03 0.  1.
<mgrwt>
<rscale>  2 0.23478967E+03</rscale>
<asrwt>0</asrwt>
<pdfrwt beam="1">  1       21 0.50466014E-01 0.23478967E+03</pdfrwt>
<pdfrwt beam="2">  1       21 0.68522959E-01 0.23478967E+03</pdfrwt>
<totfact> 0.70504952E+03</totfact>
</mgrwt>
</event>
<event>
 4    1  0.1101825E+000  0.2224895E+03  0.7546771E-02  0.1132041E+00
         21   -1    0    0  501  502  0.00000000000E+00  0.00000000000E+00  0.29538763133E+03  0.29538763133E+03  0.00000000000E+00 0.  1.
         21   -1    0    0  502  503 -0.00000000000E+00 -0.00000000000E+00 -0.20413697897E+03  0.20413697897E+03  0.00000000000E+00 0. -1.
          6    1    1    2  501    0 -0.11490787204E+03  0.81937409920E+02  0.15131709552E+03  0.26906954788E+03  0.17200000000E+03 0.  1.
         -6    1    1    2    0  503  0.11490787204E+03 -0.81937409920E+02 -0.60066443157E+02  0.23045506242E+03  0.17200000000E+03 0. -1.
<mgrwt>
<rscale>  2 0.22248946E+03</rscale>
<asrwt>0</asrwt>
<pdfrwt beam="1">  1       21 0.73846907E-01 0.22248946E+03</pdfrwt>
<pdfrwt beam="2">  1       21 0.51034245E-01 0.22248946E+03</pdfrwt>
<totfact> 0.58793969E+03</totfact>
</mgrwt>
</event>
<event>
 4    1  0.1101825E+000  0.1944454E+03  0.7546771E-02  0.1154512E+00
         21   -1    0    0  503  502  0.00000000000E+00  0.00000000000E+00  0.10490443751E+03  0.10490443751E+03  0.00000000000E+00 0.  1.
         21   -1    0    0  501  503 -0.00000000000E+00 -0.00000000000E+00 -0.62869345722E+03  0.62869345722E+03  0.00000000000E+00 0.  1.
          6    1    1    2  501    0  0.48513679078E+02 -0.76625183233E+02 -0.50150320168E+03  0.53787959346E+03  0.17200000000E+03 0.  1.
         -6    1    1    2    0  502 -0.48513679078E+02  0.76625183233E+02 -0.22285818027E+02  0.19571830126E+03  0.17200000000E+03 0.  1.
<mgrwt>
<rscale>  2 0.19444535E+03</rscale>
<asrwt>0</asrwt>
<pdfrwt beam="1">  1       21 0.26226110E-01 0.19444535E+03</pdfrwt>
<pdfrwt beam="2">  1       21 0.15717336E+00 0.19444535E+03</pdfrwt>
<totfact> 0.36436400E+03</totfact>
</mgrwt>
</event>
<event>
 4    1  0.1101825E+000  0.1871618E+03  0.7546771E-02  0.1161046E+00
         21   -1    0    0  503  502  0.00000000000E+00  0.00000000000E+00  0.76944229624E+02  0.76944229624E+02  0.00000000000E+00 0. -1.
         21   -1    0    0  501  503 -0.00000000000E+00 -0.00000000000E+00 -0.45579796637E+03  0.45579796637E+03  0.00000000000E+00 0. -1.
          6    1    1    2  501    0  0.50692538845E+02  0.53626422999E+02 -0.18026425436E+03  0.25985520610E+03  0.17200000000E+03 0. -1.
         -6    1    1    2    0  502 -0.50692538845E+02 -0.53626422999E+02 -0.19858948239E+03  0.27288698989E+03  0.17200000000E+03 0. -1.
<mgrwt>
<rscale>  2 0.18716177E+03</rscale>
<asrwt>0</asrwt>
<pdfrwt beam="1">  1       21 0.19236058E-01 0.18716177E+03</pdfrwt>
<pdfrwt beam="2">  1       21 0.11394949E+00 0.18716177E+03</pdfrwt>
<totfact> 0.14935301E+04</totfact>
</mgrwt>
</event>
<event>
 4    1  0.1101825E+000  0.1892145E+03  0.7546771E-02  0.1159172E+00
         21   -1    0    0  503  502  0.00000000000E+00  0.00000000000E+00  0.76735938636E+03  0.76735938636E+03  0.00000000000E+00 0. -1.
         21   -1    0    0  501  503 -0.00000000000E+00 -0.00000000000E+00 -0.75678932111E+02  0.75678932111E+02  0.00000000000E+00 0.  1.
          6    1    1    2  501    0 -0.26227294358E+02 -0.74365582540E+02  0.84805312921E+02  0.20735007098E+03  0.17200000000E+03 0. -1.
         -6    1    1    2    0  502  0.26227294358E+02  0.74365582540E+02  0.60687514132E+03  0.63568824749E+03  0.17200000000E+03 0. -1.
<mgrwt>
<rscale>  2 0.18921446E+03</rscale>
<asrwt>0</asrwt>
<pdfrwt beam="1">  1       21 0.19183982E+00 0.18921446E+03</pdfrwt>
<pdfrwt beam="2">  1       21 0.18919735E-01 0.18921446E+03</pdfrwt>
<totfact> 0.38958241E+03</totfact>
</mgrwt>
</event>
<event>
 4    1  0.1101825E+000  0.2609953E+03  0.7546771E-02  0.1106547E+00
         21   -1    0    0  503  502  0.00000000000E+00  0.00000000000E+00  0.76642671309E+02  0.76642671309E+02  0.00000000000E+00 0. -1.
         21   -1    0    0  501  503 -0.00000000000E+00 -0.00000000000E+00 -0.10439751971E+04  0.10439751971E+04  0.00000000000E+00 0. -1.
          6    1    1    2  501    0 -0.54451370617E+02  0.18859909727E+03 -0.69969911994E+03  0.74679142316E+03  0.17200000000E+03 0. -1.
         -6    1    1    2    0  502  0.54451370617E+02 -0.18859909727E+03 -0.26763340589E+03  0.37382644529E+03  0.17200000000E+03 0. -1.
<mgrwt>
<rscale>  2 0.26099535E+03</rscale>
<asrwt>0</asrwt>
<pdfrwt beam="1">  1       21 0.19160668E-01 0.26099535E+03</pdfrwt>
<pdfrwt beam="2">  1       21 0.26099380E+00 0.26099535E+03</pdfrwt>
<totfact> 0.13339891E+03</totfact>
</mgrwt>
</event>
<event>
 4    1  0.1101825E+000  0.1986857E+03  0.7546771E-02  0.1150853E+00
         21   -1    0    0  501  502  0.00000000000E+00  0.00000000000E+00  0.20430736328E+03  0.20430736328E+03  0.00000000000E+00 0. -1.
         21   -1    0    0  502  503 -0.00000000000E+00 -0.00000000000E+00 -0.20285921534E+03  0.20285921534E+03  0.00000000000E+00 0. -1.
          6    1    1    2  501    0 -0.86416629769E+02 -0.49235971689E+02  0.45104717390E+02  0.20374113561E+03  0.17200000000E+03 0. -1.
         -6    1    1    2    0  503  0.86416629769E+02  0.49235971689E+02 -0.43656569456E+02  0.20342544301E+03  0.17200000000E+03 0. -1.
<mgrwt>
<rscale>  2 0.19868572E+03</rscale>
<asrwt>0</asrwt>
<pdfrwt beam="1">  1       21 0.51076841E-01 0.19868572E+03</pdfrwt>
<pdfrwt beam="2">  1       21 0.50714804E-01 0.19868572E+03</pdfrwt>
<totfact> 0.13428991E+04</totfact>
</mgrwt>
</event>
<event>
 4    1  0.1101825E+000  0.2579499E+03  0.7546771E-02  0.1108381E+00
         21   -1    0    0  501  502  0.00000000000E+00  0.00000000000E+00  0.35000878049E+03  0.35000878049E+03  0.00000000000E+00 0. -1.
         21   -1    0    0  502  503 -0.00000000000E+00 -0.00000000000E+00 -0.22331025007E+03  0.22331025007E+03  0.00000000000E+00 0. -1.
          6    1    1    2  501    0  0.78222516904E+02  0.17560004791E+03  0.17388956720E+03  0.31108796273E+03  0.17200000000E+03 0. -1.
         -6    1    1    2    0  503 -0.78222516904E+02 -0.17560004791E+03 -0.47191036776E+02  0.26223106782E+03  0.17200000000E+03 0. -1.
<mgrwt>
<rscale>  2 0.25794988E+03</rscale>
<asrwt>0</asrwt>
<pdfrwt beam="1">  1       21 0.87502194E-01 0.25794988E+03</pdfrwt>
<pdfrwt beam="2">  1       21 0.55827563E-01 0.25794988E+03</pdfrwt>
<totfact> 0.32275520E+03</totfact>
</mgrwt>
</event>
<event>
 4    1  0.1101825E+000  0.1894401E+03  0.7546771E-02  0.1158967E+00
         21   -1    0    0  501  502  0.00000000000E+00  0.00000000000E+00  0.33482514732E+03  0.33482514732E+03  0.00000000000E+00 0.  1.
         21   -1    0    0  502  503 -0.00000000000E+00 -0.00000000000E+00 -0.11043634842E+03  0.11043634842E+03  0.00000000000E+00 0. -1.
          6    1    1    2  501    0  0.52736518517E+02  0.59350034585E+02  0.15040587175E+03  0.24188735653E+03  0.17200000000E+03 0.  1.
         -6    1    1    2    0  503 -0.52736518517E+02 -0.59350034585E+02  0.73982927144E+02  0.20337413921E+03  0.17200000000E+03 0. -1.
<mgrwt>
<rscale>  2 0.18944014E+03</rscale>
<asrwt>0</asrwt>
<pdfrwt beam="1">  1       21 0.83706284E-01 0.18944014E+03</pdfrwt>
<pdfrwt beam="2">  1       21 0.27609088E-01 0.18944014E+03</pdfrwt>
<totfact> 0.15567848E+04</totfact>
</mgrwt>
</event>
<event>
 4    1  0.1101825E+000  0.1974355E+03  0.7546771E-02  0.1151921E+00
         21   -1    0    0  503  502  0.00000000000E+00  0.00000000000E+00  0.53948701915E+03  0.53948701915E+03  0.00000000000E+00 0. -1.
         21   -1    0    0  501  503 -0.00000000000E+00 -0.00000000000E+00 -0.72551614336E+02  0.72551614336E+02  0.00000000000E+00 0.  1.
          6    1    1    2  501    0 -0.61767125917E+02 -0.74710140668E+02  0.25302549810E+03  0.32094031478E+03  0.17200000000E+03 0. -1.
         -6    1    1    2    0  502  0.61767125917E+02  0.74710140668E+02  0.21390990671E+03  0.29109831870E+03  0.17200000000E+03 0. -1.
<mgrwt>
<rscale>  2 0.19743552E+03</rscale>
<asrwt>0</asrwt>
<pdfrwt beam="1">  1       21 0.13487174E+00 0.19743552E+03</pdfrwt>
<pdfrwt beam="2">  1       21 0.18137905E-01 0.19743552E+03</pdfrwt>
<totfact> 0.10863002E+04</totfact>
</mgrwt>
</event>
<event>
 4    1  0.1101825E+000  0.2257486E+03  0.7546771E-02  0.1129668E+00
         21   -1    0    0  501  502  0.00000000000E+00  0.00000000000E+00  0.19836918503E+03  0.19836918503E+03  0.00000000000E+00 0. -1.
         21   -1    0    0  502  503 -0.00000000000E+00 -0.00000000000E+00 -0.37287330250E+03  0.37287330250E+03  0.00000000000E+00 0. -1.
          6    1    1    2  501    0 -0.70815026063E+02  0.12792056896E+03  0.72033239920E+02  0.23696250238E+03  0.17200000000E+03 0. -1.
         -6    1    1    2    0  503  0.70815026063E+02 -0.12792056896E+03 -0.24653735740E+03  0.33427998515E+03  0.17200000000E+03 0. -1.
<mgrwt>
<rscale>  2 0.22574862E+03</rscale>
<asrwt>0</asrwt>
<pdfrwt beam="1">  1       21 0.49592297E-01 0.22574862E+03</pdfrwt>
<pdfrwt beam="2">  1       21 0.93218325E-01 0.22574862E+03</pdfrwt>
<totfact> 0.36562822E+03</totfact>
</mgrwt>
</event>
<event>
 4    1  0.1101825E+000  0.1784296E+03  0.7546771E-02  0.1169332E+00
         21   -1    0    0  503  502  0.00000000000E+00  0.00000000000E+00  0.21498629653E+03  0.21498629653E+03  0.00000000000E+00 0.  1.
         21   -1    0    0  501  503 -0.00000000000E+00 -0.00000000000E+00 -0.16461849364E+03  0.16461849364E+03  0.00000000000E+00 0.  1.
          6    1    1    2  501    0  0.47424671232E+02  0.20035315224E+01 -0.34960009893E+02  0.18182220951E+03  0.17200000000E+03 0.  1.
         -6    1    1    2    0  502 -0.47424671232E+02 -0.20035315224E+01  0.85327812777E+02  0.19778258066E+03  0.17200000000E+03 0.  1.
<mgrwt>
<rscale>  2 0.17842958E+03</rscale>
<asrwt>0</asrwt>
<pdfrwt beam="1">  1       21 0.53746574E-01 0.17842958E+03</pdfrwt>
<pdfrwt beam="2">  1       21 0.41154623E-01 0.17842958E+03</pdfrwt>
<totfact> 0.18782985E+04</totfact>
</mgrwt>
</event>
<event>
 4    1  0.1101825E+000  0.2969496E+03  0.7546771E-02  0.1086775E+00
         21   -1    0    0  503  502  0.00000000000E+00  0.00000000000E+00  0.97720731589E+03  0.97720731589E+03  0.00000000000E+00 0. -1.
         21   -1    0    0  501  503 -0.00000000000E+00 -0.00000000000E+00 -0.15350382512E+03  0.15350382512E+03  0.00000000000E+00 0. -1.
          6    1    1    2  501    0 -0.17064682260E+03  0.17168202600E+03  0.48895468410E+02  0.30094820642E+03  0.17200000000E+03 0. -1.
         -6    1    1    2    0  502  0.17064682260E+03 -0.17168202600E+03  0.77480802236E+03  0.82976293459E+03  0.17200000000E+03 0. -1.
<mgrwt>
<rscale>  2 0.29694959E+03</rscale>
<asrwt>0</asrwt>
<pdfrwt beam="1">  1       21 0.24430181E+00 0.29694959E+03</pdfrwt>
<pdfrwt beam="2">  1       21 0.38375959E-01 0.29694959E+03</pdfrwt>
<totfact> 0.42113262E+02</totfact>
</mgrwt>
</event>
<event>
 4    1  0.1101825E+000  0.1870825E+03  0.7546771E-02  0.1161119E+00
         21   -1    0    0  501  502  0.00000000000E+00  0.00000000000E+00  0.15038090561E+04  0.15038090561E+04  0.00000000000E+00 0.  1.
         21   -1    0    0  502  503 -0.00000000000E+00 -0.00000000000E+00 -0.43721167798E+02  0.43721167798E+02  0.00000000000E+00 0.  1.
          6    1    1    2  501    0  0.63476547165E+02 -0.37236870145E+02  0.12591934601E+04  0.12730153284E+04  0.17200000000E+03 0.  1.
         -6    1    1    2    0  503 -0.63476547165E+02  0.37236870145E+02  0.20089442823E+03  0.27451489547E+03  0.17200000000E+03 0.  1.
<mgrwt>
<rscale>  2 0.18708249E+03</rscale>
<asrwt>0</asrwt>
<pdfrwt beam="1">  1       21 0.37595209E+00 0.18708249E+03</pdfrwt>
<pdfrwt beam="2">  1       21 0.10930297E-01 0.18708249E+03</pdfrwt>
<totfact> 0.85560445E+02</totfact>
</mgrwt>
</event>
<event>
 4    1  0.1101825E+000  0.2182962E+03  0.7546771E-02  0.1135160E+00
         21   -1    0    0  503  502  0.00000000000E+00  0.00000000000E+00  0.85068284284E+03  0.85068284284E+03  0.00000000000E+00 0.  1.
         21   -1    0    0  501  503 -0.00000000000E+00 -0.00000000000E+00 -0.10114432089E+03  0.10114432089E+03  0.00000000000E+00 0. -1.
          6    1    1    2  501    0 -0.10675634703E+03  0.81684333482E+02  0.56881338364E+02  0.22558531562E+03  0.17200000000E+03 0. -1.
         -6    1    1    2    0  502  0.10675634703E+03 -0.81684333482E+02  0.69265718359E+03  0.72624184811E+03  0.17200000000E+03 0.  1.
<mgrwt>
<rscale>  2 0.21829624E+03</rscale>
<asrwt>0</asrwt>
<pdfrwt beam="1">  1       21 0.21267069E+00 0.21829624E+03</pdfrwt>
<pdfrwt beam="2">  1       21 0.25286083E-01 0.21829624E+03</pdfrwt>
<totfact> 0.16112774E+03</totfact>
</mgrwt>
</event>
<event>
 4    1  0.1101825E+000  0.2507281E+03  0.7546771E-02  0.1112846E+00
         21   -1    0    0  503  502  0.00000000000E+00  0.00000000000E+00  0.69263778767E+03  0.69263778767E+03  0.00000000000E+00 0.  1.
         21   -1    0    0  501  503 -0.00000000000E+00 -0.00000000000E+00 -0.38225145892E+03  0.38225145892E+03  0.00000000000E+00 0. -1.
          6    1    1    2  501    0 -0.17410202058E+03 -0.54488954418E+02 -0.31412920282E+03  0.40192252461E+03  0.17200000000E+03 0. -1.
         -6    1    1    2    0  502  0.17410202058E+03  0.54488954418E+02  0.62451553157E+03  0.67296672198E+03  0.17200000000E+03 0.  1.
<mgrwt>
<rscale>  2 0.25072806E+03</rscale>
<asrwt>0</asrwt>
<pdfrwt beam="1">  1       21 0.17315945E+00 0.25072806E+03</pdfrwt>
<pdfrwt beam="2">  1       21 0.95562866E-01 0.25072806E+03</pdfrwt>
<totfact> 0.17315334E+02</totfact>
</mgrwt>
</event>
<event>
 4    1  0.1101825E+000  0.1880030E+03  0.7546771E-02  0.1160275E+00
         21   -1    0    0  501  502  0.00000000000E+00  0.00000000000E+00  0.15992696617E+04  0.15992696617E+04  0.00000000000E+00 0.  1.
         21   -1    0    0  502  503 -0.00000000000E+00 -0.00000000000E+00 -0.54647747340E+02  0.54647747340E+02  0.00000000000E+00 0.  1.
          6    1    1    2  501    0  0.20857192910E+02 -0.72980280494E+02  0.14105050807E+04  0.14229791729E+04  0.17200000000E+03 0.  1.
         -6    1    1    2    0  503 -0.20857192910E+02  0.72980280494E+02  0.13411683365E+03  0.23093823613E+03  0.17200000000E+03 0.  1.
<mgrwt>
<rscale>  2 0.18800304E+03</rscale>
<asrwt>0</asrwt>
<pdfrwt beam="1">  1       21 0.39981726E+00 0.18800304E+03</pdfrwt>
<pdfrwt beam="2">  1       21 0.13661942E-01 0.18800304E+03</pdfrwt>
<totfact> 0.40917129E+02</totfact>
</mgrwt>
</event>
<event>
 4    1  0.1101825E+000  0.2405561E+03  0.7546771E-02  0.1119423E+00
         21   -1    0    0  501  502  0.00000000000E+00  0.00000000000E+00  0.11061565284E+03  0.11061565284E+03  0.00000000000E+00 0. -1.
         21   -1    0    0  502  503 -0.00000000000E+00 -0.00000000000E+00 -0.52445166421E+03  0.52445166421E+03  0.00000000000E+00 0. -1.
          6    1    1    2  501    0  0.28436986101E+02  0.16575450929E+03 -0.22281177240E+03  0.32789069131E+03  0.17200000000E+03 0. -1.
         -6    1    1    2    0  503 -0.28436986101E+02 -0.16575450929E+03 -0.19102423897E+03  0.30717662575E+03  0.17200000000E+03 0. -1.
<mgrwt>
<rscale>  2 0.24055606E+03</rscale>
<asrwt>0</asrwt>
<pdfrwt beam="1">  1       21 0.27653914E-01 0.24055606E+03</pdfrwt>
<pdfrwt beam="2">  1       21 0.13111291E+00 0.24055606E+03</pdfrwt>
<totfact> 0.50929447E+03</totfact>
</mgrwt>
</event>
<event>
 4    1  0.1101825E+000  0.1790529E+03  0.7546771E-02  0.1168723E+00
         21   -1    0    0  503  502  0.00000000000E+00  0.00000000000E+00  0.36004196105E+03  0.36004196105E+03  0.00000000000E+00 0.  1.
         21   -1    0    0  501  503 -0.00000000000E+00 -0.00000000000E+00 -0.13180114556E+03  0.13180114556E+03  0.00000000000E+00 0.  1.
          6    1    1    2  501    0 -0.45752761617E+02  0.19561193609E+02 -0.25946649779E+02  0.18092314425E+03  0.17200000000E+03 0.  1.
         -6    1    1    2    0  502  0.45752761617E+02 -0.19561193609E+02  0.25418746527E+03  0.31091996236E+03  0.17200000000E+03 0.  1.
<mgrwt>
<rscale>  2 0.17905294E+03</rscale>
<asrwt>0</asrwt>
<pdfrwt beam="1">  1       21 0.90010488E-01 0.17905294E+03</pdfrwt>
<pdfrwt beam="2">  1       21 0.32950287E-01 0.17905294E+03</pdfrwt>
<totfact> 0.94038788E+03</totfact>
</mgrwt>
</event>
<event>
 4    1  0.1101825E+000  0.2088996E+03  0.7546771E-02  0.1142440E+00
         21   -1    0    0  501  502  0.00000000000E+00  0.00000000000E+00  0.21790028576E+03  0.21790028576E+03  0.00000000000E+00 0.  1.
         21   -1    0    0  502  503 -0.00000000000E+00 -0.00000000000E+00 -0.28667771398E+03  0.28667771398E+03  0.00000000000E+00 0. -1.
          6    1    1    2  501    0 -0.11576759702E+03 -0.25552331154E+02  0.10411954475E+03  0.23340937802E+03  0.17200000000E+03 0.  1.
         -6    1    1    2    0  503  0.11576759702E+03  0.25552331154E+02 -0.17289697297E+03  0.27116862172E+03  0.17200000000E+03 0. -1.
<mgrwt>
<rscale>  2 0.20889964E+03</rscale>
<asrwt>0</asrwt>
<pdfrwt beam="1">  1       21 0.54475072E-01 0.20889964E+03</pdfrwt>
<pdfrwt beam="2">  1       21 0.71669428E-01 0.20889964E+03</pdfrwt>
<totfact> 0.55301787E+03</totfact>
</mgrwt>
</event>
<event>
 4    1  0.1101825E+000  0.2037169E+03  0.7546771E-02  0.1146640E+00
         21   -1    0    0  503  502  0.00000000000E+00  0.00000000000E+00  0.18003807869E+04  0.18003807869E+04  0.00000000000E+00 0. -1.
         21   -1    0    0  501  503 -0.00000000000E+00 -0.00000000000E+00 -0.39240011535E+02  0.39240011535E+02  0.00000000000E+00 0.  1.
          6    1    1    2  501    0 -0.10882778146E+03  0.85498139280E+01  0.28976579845E+03  0.35421011178E+03  0.17200000000E+03 0.  1.
         -6    1    1    2    0  502  0.10882778146E+03 -0.85498139280E+01  0.14713749769E+04  0.14854106867E+04  0.17200000000E+03 0. -1.
<mgrwt>
<rscale>  2 0.20371692E+03</rscale>
<asrwt>0</asrwt>
<pdfrwt beam="1">  1       21 0.45009492E+00 0.20371692E+03</pdfrwt>
<pdfrwt beam="2">  1       21 0.98100089E-02 0.20371692E+03</pdfrwt>
<totfact> 0.34238640E+02</totfact>
</mgrwt>
</event>
<event>
 4    1  0.1101825E+000  0.1744194E+03  0.7546771E-02  0.1173316E+00
         21   -1    0    0  503  502  0.00000000000E+00  0.00000000000E+00  0.71108517408E+03  0.71108517408E+03  0.00000000000E+00 0.  1.
         21   -1    0    0  501  503 -0.00000000000E+00 -0.00000000000E+00 -0.94574343022E+02  0.94574343022E+02  0.00000000000E+00 0.  1.
          6    1    1    2  501    0  0.18941188423E+02 -0.21894512485E+02  0.10153507653E+02  0.17471471608E+03  0.17200000000E+03 0.  1.
         -6    1    1    2    0  502 -0.18941188423E+02  0.21894512485E+02  0.60635732340E+03  0.63094480102E+03  0.17200000000E+03 0.  1.
<mgrwt>
<rscale>  2 0.17441943E+03</rscale>
<asrwt>0</asrwt>
<pdfrwt beam="1">  1       21 0.17777128E+00 0.17441943E+03</pdfrwt>
<pdfrwt beam="2">  1       21 0.23643588E-01 0.17441943E+03</pdfrwt>
<totfact> 0.32312814E+03</totfact>
</mgrwt>
</event>
<event>
 4    1  0.1101825E+000  0.2030130E+03  0.7546771E-02  0.1147222E+00
         21   -1    0    0  503  502  0.00000000000E+00  0.00000000000E+00  0.11442838095E+04  0.11442838095E+04  0.00000000000E+00 0.  1.
         21   -1    0    0  501  503 -0.00000000000E+00 -0.00000000000E+00 -0.62062267801E+02  0.62062267801E+02  0.00000000000E+00 0.  1.
          6    1    1    2  501    0 -0.97484976795E+02  0.46118817133E+02  0.15037050189E+03  0.25263719804E+03  0.17200000000E+03 0.  1.
         -6    1    1    2    0  502  0.97484976795E+02 -0.46118817133E+02  0.93185103981E+03  0.95370887927E+03  0.17200000000E+03 0.  1.
<mgrwt>
<rscale>  2 0.20301297E+03</rscale>
<asrwt>0</asrwt>
<pdfrwt beam="1">  1       21 0.28607088E+00 0.20301297E+03</pdfrwt>
<pdfrwt beam="2">  1       21 0.15515571E-01 0.20301297E+03</pdfrwt>
<totfact> 0.14949942E+03</totfact>
</mgrwt>
</event>
<event>
 4    1  0.1101825E+000  0.1999364E+03  0.7546771E-02  0.1149793E+00
         21   -1    0    0  501  502  0.00000000000E+00  0.00000000000E+00  0.78235818432E+02  0.78235818432E+02  0.00000000000E+00 0.  1.
         21   -1    0    0  502  503 -0.00000000000E+00 -0.00000000000E+00 -0.54645450609E+03  0.54645450609E+03  0.00000000000E+00 0. -1.
          6    1    1    2  501    0 -0.10142501207E+03  0.10174576643E+02 -0.31372571096E+03  0.37201932316E+03  0.17200000000E+03 0.  1.
         -6    1    1    2    0  503  0.10142501207E+03 -0.10174576643E+02 -0.15449297669E+03  0.25267100136E+03  0.17200000000E+03 0.  1.
<mgrwt>
<rscale>  2 0.19993638E+03</rscale>
<asrwt>0</asrwt>
<pdfrwt beam="1">  1       21 0.19558955E-01 0.19993638E+03</pdfrwt>
<pdfrwt beam="2">  1       21 0.13661362E+00 0.19993638E+03</pdfrwt>
<totfact> 0.91211628E+03</totfact>
</mgrwt>
</event>
<event>
 4    1  0.1101825E+000  0.2104311E+03  0.7546771E-02  0.1141225E+00
         21   -1    0    0  503  502  0.00000000000E+00  0.00000000000E+00  0.28037732246E+03  0.28037732246E+03  0.00000000000E+00 0.  1.
         21   -1    0    0  501  503 -0.00000000000E+00 -0.00000000000E+00 -0.18643283489E+03  0.18643283489E+03  0.00000000000E+00 0.  1.
          6    1    1    2  501    0 -0.12187553267E+01  0.12122602453E+03 -0.44283314783E+02  0.21504010406E+03  0.17200000000E+03 0.  1.
         -6    1    1    2    0  502  0.12187553267E+01 -0.12122602453E+03  0.13822780236E+03  0.25177005329E+03  0.17200000000E+03 0.  1.
<mgrwt>
<rscale>  2 0.21043107E+03</rscale>
<asrwt>0</asrwt>
<pdfrwt beam="1">  1       21 0.70094330E-01 0.21043107E+03</pdfrwt>
<pdfrwt beam="2">  1       21 0.46608209E-01 0.21043107E+03</pdfrwt>
<totfact> 0.80418179E+03</totfact>
</mgrwt>
</event>
<event>
 4    1  0.1101825E+000  0.3398375E+03  0.7546771E-02  0.1066865E+00
         21   -1    0    0  503  502  0.00000000000E+00  0.00000000000E+00  0.13265769951E+03  0.13265769951E+03  0.00000000000E+00 0.  1.
         21   -1    0    0  501  503 -0.00000000000E+00 -0.00000000000E+00 -0.91624604190E+03  0.91624604190E+03  0.00000000000E+00 0. -1.
          6    1    1    2  501    0 -0.27714251289E+03 -0.95381202862E+02 -0.50887389929E+03  0.61191681762E+03  0.17200000000E+03 0.  1.
         -6    1    1    2    0  502  0.27714251289E+03  0.95381202862E+02 -0.27471444311E+03  0.43698692379E+03  0.17200000000E+03 0. -1.
<mgrwt>
<rscale>  2 0.33983753E+03</rscale>
<asrwt>0</asrwt>
<pdfrwt beam="1">  1       21 0.33164425E-01 0.33983753E+03</pdfrwt>
<pdfrwt beam="2">  1       21 0.22906151E+00 0.33983753E+03</pdfrwt>
<totfact> 0.67809994E+02</totfact>
</mgrwt>
</event>
<event>
 4    1  0.1101825E+000  0.1726157E+03  0.7546771E-02  0.1175147E+00
         21   -1    0    0  503  502  0.00000000000E+00  0.00000000000E+00  0.47195470617E+03  0.47195470617E+03  0.00000000000E+00 0.  1.
         21   -1    0    0  501  503 -0.00000000000E+00 -0.00000000000E+00 -0.10257374504E+03  0.10257374504E+03  0.00000000000E+00 0.  1.
          6    1    1    2  501    0  0.89892141945E+01 -0.11461566257E+02  0.65621509253E+01  0.17274036962E+03  0.17200000000E+03 0.  1.
         -6    1    1    2    0  502 -0.89892141945E+01  0.11461566257E+02  0.36281881020E+03  0.40178808159E+03  0.17200000000E+03 0.  1.
<mgrwt>
<rscale>  2 0.17261568E+03</rscale>
<asrwt>0</asrwt>
<pdfrwt beam="1">  1       21 0.11798867E+00 0.17261568E+03</pdfrwt>
<pdfrwt beam="2">  1       21 0.25643438E-01 0.17261568E+03</pdfrwt>
<totfact> 0.80682289E+03</totfact>
</mgrwt>
</event>
<event>
 4    1  0.1101825E+000  0.1782212E+03  0.7546771E-02  0.1169536E+00
         21   -1    0    0  501  502  0.00000000000E+00  0.00000000000E+00  0.45502223082E+03  0.45502223082E+03  0.00000000000E+00 0.  1.
         21   -1    0    0  502  503 -0.00000000000E+00 -0.00000000000E+00 -0.84556329264E+02  0.84556329264E+02  0.00000000000E+00 0.  1.
          6    1    1    2  501    0 -0.71944439245E+01  0.46119946262E+02  0.29791838136E+03  0.34715727188E+03  0.17200000000E+03 0.  1.
         -6    1    1    2    0  503  0.71944439245E+01 -0.46119946262E+02  0.72547520192E+02  0.19242128820E+03  0.17200000000E+03 0.  1.
<mgrwt>
<rscale>  2 0.17822124E+03</rscale>
<asrwt>0</asrwt>
<pdfrwt beam="1">  1       21 0.11375555E+00 0.17822124E+03</pdfrwt>
<pdfrwt beam="2">  1       21 0.21139084E-01 0.17822124E+03</pdfrwt>
<totfact> 0.12653139E+04</totfact>
</mgrwt>
</event>
<event>
 4    1  0.1101825E+000  0.1725259E+03  0.7546771E-02  0.1175239E+00
         21   -1    0    0  501  502  0.00000000000E+00  0.00000000000E+00  0.54971734510E+03  0.54971734510E+03  0.00000000000E+00 0.  1.
         21   -1    0    0  502  503 -0.00000000000E+00 -0.00000000000E+00 -0.54153252732E+02  0.54153252732E+02  0.00000000000E+00 0.  1.
          6    1    1    2  501    0  0.98234507558E+01 -0.92024317602E+01  0.25119220199E+03  0.30473383021E+03  0.17200000000E+03 0. -1.
         -6    1    1    2    0  503 -0.98234507558E+01  0.92024317602E+01  0.24437189038E+03  0.29913676762E+03  0.17200000000E+03 0. -1.
<mgrwt>
<rscale>  2 0.17252590E+03</rscale>
<asrwt>0</asrwt>
<pdfrwt beam="1">  1       21 0.13742932E+00 0.17252590E+03</pdfrwt>
<pdfrwt beam="2">  1       21 0.13538315E-01 0.17252590E+03</pdfrwt>
<totfact> 0.17978807E+04</totfact>
</mgrwt>
</event>
<event>
 4    1  0.1101825E+000  0.2392576E+03  0.7546771E-02  0.1120288E+00
         21   -1    0    0  503  502  0.00000000000E+00  0.00000000000E+00  0.44749208432E+03  0.44749208432E+03  0.00000000000E+00 0.  1.
         21   -1    0    0  501  503 -0.00000000000E+00 -0.00000000000E+00 -0.17900516590E+03  0.17900516590E+03  0.00000000000E+00 0.  1.
          6    1    1    2  501    0 -0.16577549012E+03 -0.13367344255E+02 -0.33094391306E+02  0.24153558279E+03  0.17200000000E+03 0.  1.
         -6    1    1    2    0  502  0.16577549012E+03  0.13367344255E+02  0.30158130972E+03  0.38496166743E+03  0.17200000000E+03 0.  1.
<mgrwt>
<rscale>  2 0.23925760E+03</rscale>
<asrwt>0</asrwt>
<pdfrwt beam="1">  1       21 0.11187302E+00 0.23925760E+03</pdfrwt>
<pdfrwt beam="2">  1       21 0.44751292E-01 0.23925760E+03</pdfrwt>
<totfact> 0.28945789E+03</totfact>
</mgrwt>
</event>
<event>
 4    1  0.1101825E+000  0.1851317E+03  0.7546771E-02  0.1162927E+00
         21   -1    0    0  501  502  0.00000000000E+00  0.00000000000E+00  0.12624577063E+03  0.12624577063E+03  0.00000000000E+00 0. -1.
         21   -1    0    0  502  503 -0.00000000000E+00 -0.00000000000E+00 -0.36483772459E+03  0.36483772459E+03  0.00000000000E+00 0. -1.
          6    1    1    2  501    0  0.46663465373E+02  0.50122381173E+02  0.49095243570E+01  0.18519674815E+03  0.17200000000E+03 0. -1.
         -6    1    1    2    0  503 -0.46663465373E+02 -0.50122381173E+02 -0.24350147831E+03  0.30588674708E+03  0.17200000000E+03 0. -1.
<mgrwt>
<rscale>  2 0.18513166E+03</rscale>
<asrwt>0</asrwt>
<pdfrwt beam="1">  1       21 0.31561443E-01 0.18513166E+03</pdfrwt>
<pdfrwt beam="2">  1       21 0.91209431E-01 0.18513166E+03</pdfrwt>
<totfact> 0.98813152E+03</totfact>
</mgrwt>
</event>
<event>
 4    1  0.1101825E+000  0.2748850E+03  0.7546771E-02  0.1098516E+00
         21   -1    0    0  503  502  0.00000000000E+00  0.00000000000E+00  0.79573405715E+03  0.79573405715E+03  0.00000000000E+00 0.  1.
         21   -1    0    0  501  503 -0.00000000000E+00 -0.00000000000E+00 -0.96016652257E+02  0.96016652257E+02  0.00000000000E+00 0. -1.
          6    1    1    2  501    0 -0.11332733261E+03 -0.18202935460E+03  0.39666446943E+03  0.48260177327E+03  0.17200000000E+03 0. -1.
         -6    1    1    2    0  502  0.11332733261E+03  0.18202935460E+03  0.30305293546E+03  0.40914893614E+03  0.17200000000E+03 0.  1.
<mgrwt>
<rscale>  2 0.27488501E+03</rscale>
<asrwt>0</asrwt>
<pdfrwt beam="1">  1       21 0.19893349E+00 0.27488501E+03</pdfrwt>
<pdfrwt beam="2">  1       21 0.24004165E-01 0.27488501E+03</pdfrwt>
<totfact> 0.20778654E+03</totfact>
</mgrwt>
</event>
<event>
 4    1  0.1101825E+000  0.3238972E+03  0.7546771E-02  0.1073870E+00
         21   -1    0    0  503  502  0.00000000000E+00  0.00000000000E+00  0.13509662139E+04  0.13509662139E+04  0.00000000000E+00 0.  1.
         21   -1    0    0  501  503 -0.00000000000E+00 -0.00000000000E+00 -0.88503099538E+02  0.88503099538E+02  0.00000000000E+00 0. -1.
          6    1    1    2  501    0  0.20823127828E+03 -0.17878788243E+03  0.37925005534E+03  0.49873838496E+03  0.17200000000E+03 0.  1.
         -6    1    1    2    0  502 -0.20823127828E+03  0.17878788243E+03  0.88321305902E+03  0.94073092847E+03  0.17200000000E+03 0. -1.
<mgrwt>
<rscale>  2 0.32389716E+03</rscale>
<asrwt>0</asrwt>
<pdfrwt beam="1">  1       21 0.33774149E+00 0.32389716E+03</pdfrwt>
<pdfrwt beam="2">  1       21 0.22125779E-01 0.32389716E+03</pdfrwt>
<totfact> 0.33778985E+02</totfact>
</mgrwt>
</event>
<event>
 4    1  0.1101825E+000  0.2213499E+03  0.7546771E-02  0.1132881E+00
         21   -1    0    0  501  502  0.00000000000E+00  0.00000000000E+00  0.11367303916E+04  0.11367303916E+04  0.00000000000E+00 0.  1.
         21   -1    0    0  502  503 -0.00000000000E+00 -0.00000000000E+00 -0.58258139832E+02  0.58258139832E+02  0.00000000000E+00 0.  1.
          6    1    1    2  501    0 -0.37315548616E+02 -0.13423616829E+03  0.84398640968E+03  0.87253014777E+03  0.17200000000E+03 0.  1.
         -6    1    1    2    0  503  0.37315548616E+02  0.13423616829E+03  0.23448584204E+03  0.32245838362E+03  0.17200000000E+03 0.  1.
<mgrwt>
<rscale>  2 0.22134995E+03</rscale>
<asrwt>0</asrwt>
<pdfrwt beam="1">  1       21 0.28418253E+00 0.22134995E+03</pdfrwt>
<pdfrwt beam="2">  1       21 0.14564539E-01 0.22134995E+03</pdfrwt>
<totfact> 0.16843784E+03</totfact>
</mgrwt>
</event>
<event>
 4    1  0.1101825E+000  0.2195487E+03  0.7546771E-02  0.1134220E+00
         21   -1    0    0  503  502  0.00000000000E+00  0.00000000000E+00  0.28529345220E+03  0.28529345220E+03  0.00000000000E+00 0.  1.
         21   -1    0    0  501  503 -0.00000000000E+00 -0.00000000000E+00 -0.36282884322E+03  0.36282884322E+03  0.00000000000E+00 0. -1.
          6    1    1    2  501    0 -0.94403540401E+02  0.98516931050E+02 -0.27565196791E+03  0.35239980357E+03  0.17200000000E+03 0. -1.
         -6    1    1    2    0  502  0.94403540401E+02 -0.98516931050E+02  0.19811657689E+03  0.29572249184E+03  0.17200000000E+03 0.  1.
<mgrwt>
<rscale>  2 0.21954866E+03</rscale>
<asrwt>0</asrwt>
<pdfrwt beam="1">  1       21 0.71323363E-01 0.21954866E+03</pdfrwt>
<pdfrwt beam="2">  1       21 0.90707210E-01 0.21954866E+03</pdfrwt>
<totfact> 0.17910078E+03</totfact>
</mgrwt>
</event>
<event>
 4    1  0.1101825E+000  0.1846427E+03  0.7546771E-02  0.1163384E+00
         21   -1    0    0  501  502  0.00000000000E+00  0.00000000000E+00  0.36501525524E+03  0.36501525524E+03  0.00000000000E+00 0.  1.
         21   -1    0    0  502  503 -0.00000000000E+00 -0.00000000000E+00 -0.11465230690E+03  0.11465230690E+03  0.00000000000E+00 0. -1.
          6    1    1    2  501    0  0.28287738712E+02  0.60899468281E+02  0.22843562870E+03  0.29372738697E+03  0.17200000000E+03 0.  1.
         -6    1    1    2    0  503 -0.28287738712E+02 -0.60899468281E+02  0.21927319640E+02  0.18594017518E+03  0.17200000000E+03 0. -1.
<mgrwt>
<rscale>  2 0.18464274E+03</rscale>
<asrwt>0</asrwt>
<pdfrwt beam="1">  1       21 0.91253811E-01 0.18464274E+03</pdfrwt>
<pdfrwt beam="2">  1       21 0.28663078E-01 0.18464274E+03</pdfrwt>
<totfact> 0.11910980E+04</totfact>
</mgrwt>
</event>
<event>
 4    1  0.1101825E+000  0.2027791E+03  0.7546771E-02  0.1147415E+00
         21   -1    0    0  501  502  0.00000000000E+00  0.00000000000E+00  0.21701793784E+03  0.21701793784E+03  0.00000000000E+00 0.  1.
         21   -1    0    0  502  503 -0.00000000000E+00 -0.00000000000E+00 -0.23190377257E+03  0.23190377257E+03  0.00000000000E+00 0.  1.
          6    1    1    2  501    0  0.90155407084E+02  0.58372797347E+02  0.88567670920E+02  0.22127723161E+03  0.17200000000E+03 0.  1.
         -6    1    1    2    0  503 -0.90155407084E+02 -0.58372797347E+02 -0.10345350565E+03  0.22764447880E+03  0.17200000000E+03 0.  1.
<mgrwt>
<rscale>  2 0.20277914E+03</rscale>
<asrwt>0</asrwt>
<pdfrwt beam="1">  1       21 0.54254485E-01 0.20277914E+03</pdfrwt>
<pdfrwt beam="2">  1       21 0.57975943E-01 0.20277914E+03</pdfrwt>
<totfact> 0.88896488E+03</totfact>
</mgrwt>
</event>
<event>
 4    1  0.1101825E+000  0.1985844E+03  0.7546771E-02  0.1150939E+00
         21   -1    0    0  501  502  0.00000000000E+00  0.00000000000E+00  0.95437483767E+03  0.95437483767E+03  0.00000000000E+00 0.  1.
         21   -1    0    0  502  503 -0.00000000000E+00 -0.00000000000E+00 -0.63688844328E+02  0.63688844328E+02  0.00000000000E+00 0.  1.
          6    1    1    2  501    0 -0.92053338466E+02 -0.37120556421E+02  0.74700806535E+03  0.77295329906E+03  0.17200000000E+03 0.  1.
         -6    1    1    2    0  503  0.92053338466E+02  0.37120556421E+02  0.14367792799E+03  0.24511038294E+03  0.17200000000E+03 0.  1.
<mgrwt>
<rscale>  2 0.19858437E+03</rscale>
<asrwt>0</asrwt>
<pdfrwt beam="1">  1       21 0.23859366E+00 0.19858437E+03</pdfrwt>
<pdfrwt beam="2">  1       21 0.15922214E-01 0.19858437E+03</pdfrwt>
<totfact> 0.27150915E+03</totfact>
</mgrwt>
</event>
<event>
 4    1  0.1101825E+000  0.2492111E+03  0.7546771E-02  0.1113804E+00
         21   -1    0    0  503  502  0.00000000000E+00  0.00000000000E+00  0.70315193513E+02  0.70315193513E+02  0.00000000000E+00 0.  1.
         21   -1    0    0  501  503 -0.00000000000E+00 -0.00000000000E+00 -0.92844695622E+03  0.92844695622E+03  0.00000000000E+00 0. -1.
          6    1    1    2  501    0 -0.17062660535E+03  0.58384231721E+02 -0.53924269361E+03  0.59404447609E+03  0.17200000000E+03 0. -1.
         -6    1    1    2    0  502  0.17062660535E+03 -0.58384231721E+02 -0.31888906910E+03  0.40471767364E+03  0.17200000000E+03 0.  1.
<mgrwt>
<rscale>  2 0.24921107E+03</rscale>
<asrwt>0</asrwt>
<pdfrwt beam="1">  1       21 0.17578798E-01 0.24921107E+03</pdfrwt>
<pdfrwt beam="2">  1       21 0.23211174E+00 0.24921107E+03</pdfrwt>
<totfact> 0.23584855E+03</totfact>
</mgrwt>
</event>
<event>
 4    1  0.1101825E+000  0.1909872E+03  0.7546771E-02  0.1157574E+00
         21   -1    0    0  501  502  0.00000000000E+00  0.00000000000E+00  0.26004628951E+02  0.26004628951E+02  0.00000000000E+00 0. -1.
         21   -1    0    0  502  503 -0.00000000000E+00 -0.00000000000E+00 -0.14031102106E+04  0.14031102106E+04  0.00000000000E+00 0. -1.
          6    1    1    2  501    0 -0.73910932701E+02 -0.37805980541E+02 -0.70109554339E+03  0.72664370850E+03  0.17200000000E+03 0. -1.
         -6    1    1    2    0  503  0.73910932701E+02  0.37805980541E+02 -0.67601003824E+03  0.70247113104E+03  0.17200000000E+03 0. -1.
<mgrwt>
<rscale>  2 0.19098722E+03</rscale>
<asrwt>0</asrwt>
<pdfrwt beam="1">  1       21 0.65011579E-02 0.19098722E+03</pdfrwt>
<pdfrwt beam="2">  1       21 0.35077752E+00 0.19098722E+03</pdfrwt>
<totfact> 0.29796033E+03</totfact>
</mgrwt>
</event>
<event>
 4    1  0.1101825E+000  0.1800929E+03  0.7546771E-02  0.1167713E+00
         21   -1    0    0  503  502  0.00000000000E+00  0.00000000000E+00  0.15042282539E+03  0.15042282539E+03  0.00000000000E+00 0.  1.
         21   -1    0    0  501  503 -0.00000000000E+00 -0.00000000000E+00 -0.33136004049E+03  0.33136004049E+03  0.00000000000E+00 0.  1.
          6    1    1    2  501    0 -0.52311433542E+02  0.10628674586E+02  0.51902550637E+02  0.18742286297E+03  0.17200000000E+03 0.  1.
         -6    1    1    2    0  502  0.52311433542E+02 -0.10628674586E+02 -0.23283976574E+03  0.29436000291E+03  0.17200000000E+03 0.  1.
<mgrwt>
<rscale>  2 0.18009291E+03</rscale>
<asrwt>0</asrwt>
<pdfrwt beam="1">  1       21 0.37605707E-01 0.18009291E+03</pdfrwt>
<pdfrwt beam="2">  1       21 0.82840010E-01 0.18009291E+03</pdfrwt>
<totfact> 0.87446379E+03</totfact>
</mgrwt>
</event>
<event>
 4    1  0.1101825E+000  0.2236216E+03  0.7546771E-02  0.1131211E+00
         21   -1    0    0  501  502  0.00000000000E+00  0.00000000000E+00  0.69431211832E+02  0.69431211832E+02  0.00000000000E+00 0.  1.
         21   -1    0    0  502  503 -0.00000000000E+00 -0.00000000000E+00 -0.98903034329E+03  0.98903034329E+03  0.00000000000E+00 0. -1.
          6    1    1    2  501    0  0.52742195590E+02 -0.13281890887E+03 -0.18389852917E+03  0.28952594146E+03  0.17200000000E+03 0.  1.
         -6    1    1    2    0  503 -0.52742195590E+02  0.13281890887E+03 -0.73570060229E+03  0.76893561366E+03  0.17200000000E+03 0.  1.
<mgrwt>
<rscale>  2 0.22362156E+03</rscale>
<asrwt>0</asrwt>
<pdfrwt beam="1">  1       21 0.17357803E-01 0.22362156E+03</pdfrwt>
<pdfrwt beam="2">  1       21 0.24725759E+00 0.22362156E+03</pdfrwt>
<totfact> 0.20040568E+03</totfact>
</mgrwt>
</event>
<event>
 4    1  0.1101825E+000  0.2011579E+03  0.7546771E-02  0.1148766E+00
         21   -1    0    0  503  502  0.00000000000E+00  0.00000000000E+00  0.89263432152E+03  0.89263432152E+03  0.00000000000E+00 0. -1.
         21   -1    0    0  501  503 -0.00000000000E+00 -0.00000000000E+00 -0.10967010128E+03  0.10967010128E+03  0.00000000000E+00 0. -1.
          6    1    1    2  501    0 -0.71942230386E+02  0.75530104063E+02  0.76323893369E+01  0.20130259437E+03  0.17200000000E+03 0. -1.
         -6    1    1    2    0  502  0.71942230386E+02 -0.75530104063E+02  0.77533183091E+03  0.80100182843E+03  0.17200000000E+03 0. -1.
<mgrwt>
<rscale>  2 0.20115785E+03</rscale>
<asrwt>0</asrwt>
<pdfrwt beam="1">  1       21 0.22315856E+00 0.20115785E+03</pdfrwt>
<pdfrwt beam="2">  1       21 0.27417528E-01 0.20115785E+03</pdfrwt>
<totfact> 0.12091351E+03</totfact>
</mgrwt>
</event>
<event>
 4    1  0.1101825E+000  0.2696811E+03  0.7546771E-02  0.1101462E+00
         21   -1    0    0  501  502  0.00000000000E+00  0.00000000000E+00  0.61779735127E+03  0.61779735127E+03  0.00000000000E+00 0.  1.
         21   -1    0    0  502  503 -0.00000000000E+00 -0.00000000000E+00 -0.12457408224E+03  0.12457408224E+03  0.00000000000E+00 0.  1.
          6    1    1    2  501    0  0.12480351596E+03  0.16603615452E+03  0.15955334886E+03  0.31334516645E+03  0.17200000000E+03 0.  1.
         -6    1    1    2    0  503 -0.12480351596E+03 -0.16603615452E+03  0.33366992017E+03  0.42902626706E+03  0.17200000000E+03 0.  1.
<mgrwt>
<rscale>  2 0.26968115E+03</rscale>
<asrwt>0</asrwt>
<pdfrwt beam="1">  1       21 0.15444933E+00 0.26968115E+03</pdfrwt>
<pdfrwt beam="2">  1       21 0.31143522E-01 0.26968115E+03</pdfrwt>
<totfact> 0.25769875E+03</totfact>
</mgrwt>
</event>
<event>
 4    1  0.1101825E+000  0.1742914E+03  0.7546771E-02  0.1173445E+00
         21   -1    0    0  503  502  0.00000000000E+00  0.00000000000E+00  0.74520999254E+03  0.74520999254E+03  0.00000000000E+00 0. -1.
         21   -1    0    0  501  503 -0.00000000000E+00 -0.00000000000E+00 -0.42028842928E+02  0.42028842928E+02  0.00000000000E+00 0. -1.
          6    1    1    2  501    0 -0.28165352195E+02  0.45033757287E+00  0.28329717329E+03  0.33261806665E+03  0.17200000000E+03 0. -1.
         -6    1    1    2    0  502  0.28165352195E+02 -0.45033757287E+00  0.41988397632E+03  0.45462076881E+03  0.17200000000E+03 0. -1.
<mgrwt>
<rscale>  2 0.17429139E+03</rscale>
<asrwt>0</asrwt>
<pdfrwt beam="1">  1       21 0.18630246E+00 0.17429139E+03</pdfrwt>
<pdfrwt beam="2">  1       21 0.10507213E-01 0.17429139E+03</pdfrwt>
<totfact> 0.12452770E+04</totfact>
</mgrwt>
</event>
<event>
 4    1  0.1101825E+000  0.2744911E+03  0.7546771E-02  0.1098736E+00
         21   -1    0    0  503  502  0.00000000000E+00  0.00000000000E+00  0.30592300110E+03  0.30592300110E+03  0.00000000000E+00 0. -1.
         21   -1    0    0  501  503 -0.00000000000E+00 -0.00000000000E+00 -0.25254932879E+03  0.25254932879E+03  0.00000000000E+00 0.  1.
          6    1    1    2  501    0 -0.21060144589E+03  0.37528395879E+02 -0.17278539687E+02  0.27503435684E+03  0.17200000000E+03 0. -1.
         -6    1    1    2    0  502  0.21060144589E+03 -0.37528395879E+02  0.70652211997E+02  0.28343797305E+03  0.17200000000E+03 0.  1.
<mgrwt>
<rscale>  2 0.27449107E+03</rscale>
<asrwt>0</asrwt>
<pdfrwt beam="1">  1       21 0.76480750E-01 0.27449107E+03</pdfrwt>
<pdfrwt beam="2">  1       21 0.63137332E-01 0.27449107E+03</pdfrwt>
<totfact> 0.33331681E+03</totfact>
</mgrwt>
</event>
<event>
 4    1  0.1101825E+000  0.1956624E+03  0.7546771E-02  0.1153451E+00
         21   -1    0    0  503  502  0.00000000000E+00  0.00000000000E+00  0.25266898794E+03  0.25266898794E+03  0.00000000000E+00 0.  1.
         21   -1    0    0  501  503 -0.00000000000E+00 -0.00000000000E+00 -0.18127373422E+03  0.18127373422E+03  0.00000000000E+00 0.  1.
          6    1    1    2  501    0  0.76928519866E+02  0.52742546342E+02 -0.52209474000E+02  0.20250827770E+03  0.17200000000E+03 0.  1.
         -6    1    1    2    0  502 -0.76928519866E+02 -0.52742546342E+02  0.12360472772E+03  0.23143444445E+03  0.17200000000E+03 0.  1.
<mgrwt>
<rscale>  2 0.19566240E+03</rscale>
<asrwt>0</asrwt>
<pdfrwt beam="1">  1       21 0.63167247E-01 0.19566240E+03</pdfrwt>
<pdfrwt beam="2">  1       21 0.45318434E-01 0.19566240E+03</pdfrwt>
<totfact> 0.10809567E+04</totfact>
</mgrwt>
</event>
<event>
 4    1  0.1101825E+000  0.1952323E+03  0.7546771E-02  0.1153825E+00
         21   -1    0    0  503  502  0.00000000000E+00  0.00000000000E+00  0.40238441282E+03  0.40238441282E+03  0.00000000000E+00 0.  1.
         21   -1    0    0  501  503 -0.00000000000E+00 -0.00000000000E+00 -0.95063229059E+02  0.95063229059E+02  0.00000000000E+00 0. -1.
          6    1    1    2  501    0 -0.61231860729E+02  0.69154124072E+02  0.16850910599E+03  0.25789717417E+03  0.17200000000E+03 0.  1.
         -6    1    1    2    0  502  0.61231860729E+02 -0.69154124072E+02  0.13881207777E+03  0.23955046771E+03  0.17200000000E+03 0. -1.
<mgrwt>
<rscale>  2 0.19523226E+03</rscale>
<asrwt>0</asrwt>
<pdfrwt beam="1">  1       21 0.10059610E+00 0.19523226E+03</pdfrwt>
<pdfrwt beam="2">  1       21 0.23765808E-01 0.19523226E+03</pdfrwt>
<totfact> 0.13478319E+04</totfact>
</mgrwt>
</event>
<event>
 4    1  0.1101825E+000  0.2460786E+03  0.7546771E-02  0.1115808E+00
         21   -1    0    0  501  502  0.00000000000E+00  0.00000000000E+00  0.11350067369E+04  0.11350067369E+04  0.00000000000E+00 0. -1.
         21   -1    0    0  502  503 -0.00000000000E+00 -0.00000000000E+00 -0.10926128287E+03  0.10926128287E+03  0.00000000000E+00 0. -1.
          6    1    1    2  501    0  0.17144571047E+03  0.39712167108E+02  0.95790695277E+03  0.98900981695E+03  0.17200000000E+03 0. -1.
         -6    1    1    2    0  503 -0.17144571047E+03 -0.39712167108E+02  0.67838501278E+02  0.25525820283E+03  0.17200000000E+03 0. -1.
<mgrwt>
<rscale>  2 0.24607862E+03</rscale>
<asrwt>0</asrwt>
<pdfrwt beam="1">  1       21 0.28375165E+00 0.24607862E+03</pdfrwt>
<pdfrwt beam="2">  1       21 0.27315324E-01 0.24607862E+03</pdfrwt>
<totfact> 0.50640453E+02</totfact>
</mgrwt>
</event>
<event>
 4    1  0.1101825E+000  0.1757683E+03  0.7546771E-02  0.1171962E+00
         21   -1    0    0  501  502  0.00000000000E+00  0.00000000000E+00  0.24727690422E+03  0.24727690422E+03  0.00000000000E+00 0. -1.
         21   -1    0    0  502  503 -0.00000000000E+00 -0.00000000000E+00 -0.18069469591E+03  0.18069469591E+03  0.00000000000E+00 0. -1.
          6    1    1    2  501    0 -0.22058770482E+02 -0.28703713206E+02  0.15215704984E+03  0.23247851583E+03  0.17200000000E+03 0. -1.
         -6    1    1    2    0  503  0.22058770482E+02  0.28703713206E+02 -0.85574841532E+02  0.19549308430E+03  0.17200000000E+03 0. -1.
<mgrwt>
<rscale>  2 0.17576829E+03</rscale>
<asrwt>0</asrwt>
<pdfrwt beam="1">  1       21 0.61819226E-01 0.17576829E+03</pdfrwt>
<pdfrwt beam="2">  1       21 0.45173674E-01 0.17576829E+03</pdfrwt>
<totfact> 0.11555363E+04</totfact>
</mgrwt>
</event>
<event>
 4    1  0.1101825E+000  0.2360511E+03  0.7546771E-02  0.1122452E+00
         21   -1    0    0  501  502  0.00000000000E+00  0.00000000000E+00  0.20389974870E+03  0.20389974870E+03  0.00000000000E+00 0. -1.
         21   -1    0    0  502  503 -0.00000000000E+00 -0.00000000000E+00 -0.54768675170E+03  0.54768675170E+03  0.00000000000E+00 0. -1.
          6    1    1    2  501    0  0.12639729447E+03  0.10079595059E+03  0.94109510977E+02  0.25411945962E+03  0.17200000000E+03 0. -1.
         -6    1    1    2    0  503 -0.12639729447E+03 -0.10079595059E+03 -0.43789651398E+03  0.49746704078E+03  0.17200000000E+03 0. -1.
<mgrwt>
<rscale>  2 0.23605105E+03</rscale>
<asrwt>0</asrwt>
<pdfrwt beam="1">  1       21 0.50974938E-01 0.23605105E+03</pdfrwt>
<pdfrwt beam="2">  1       21 0.13692169E+00 0.23605105E+03</pdfrwt>
<totfact> 0.13326147E+03</totfact>
</mgrwt>
</event>
<event>
 4    1  0.1101825E+000  0.1817911E+03  0.7546771E-02  0.1166081E+00
         21   -1    0    0  503  502  0.00000000000E+00  0.00000000000E+00  0.44408322654E+03  0.44408322654E+03  0.00000000000E+00 0.  1.
         21   -1    0    0  501  503 -0.00000000000E+00 -0.00000000000E+00 -0.76600709877E+02  0.76600709877E+02  0.00000000000E+00 0.  1.
          6    1    1    2  501    0 -0.49407452652E+02 -0.31982991002E+02  0.13979965149E+03  0.22932934973E+03  0.17200000000E+03 0. -1.
         -6    1    1    2    0  502  0.49407452652E+02  0.31982991002E+02  0.22768286517E+03  0.29135458669E+03  0.17200000000E+03 0. -1.
<mgrwt>
<rscale>  2 0.18179111E+03</rscale>
<asrwt>0</asrwt>
<pdfrwt beam="1">  1       21 0.11102080E+00 0.18179111E+03</pdfrwt>
<pdfrwt beam="2">  1       21 0.19150179E-01 0.18179111E+03</pdfrwt>
<totfact> 0.16099228E+04</totfact>
</mgrwt>
</event>
<event>
 4    1  0.1101825E+000  0.1729410E+03  0.7546771E-02  0.1174815E+00
         21   -1    0    0  501  502  0.00000000000E+00  0.00000000000E+00  0.12860713001E+03  0.12860713001E+03  0.00000000000E+00 0.  1.
         21   -1    0    0  502  503 -0.00000000000E+00 -0.00000000000E+00 -0.24523278502E+03  0.24523278502E+03  0.00000000000E+00 0.  1.
          6    1    1    2  501    0 -0.55430865450E+00 -0.18007979072E+02 -0.15817645891E+02  0.17366287021E+03  0.17200000000E+03 0.  1.
         -6    1    1    2    0  503  0.55430865450E+00  0.18007979072E+02 -0.10080800912E+03  0.20017704482E+03  0.17200000000E+03 0.  1.
<mgrwt>
<rscale>  2 0.17294101E+03</rscale>
<asrwt>0</asrwt>
<pdfrwt beam="1">  1       21 0.32151783E-01 0.17294101E+03</pdfrwt>
<pdfrwt beam="2">  1       21 0.61308196E-01 0.17294101E+03</pdfrwt>
<totfact> 0.23286829E+04</totfact>
</mgrwt>
</event>
<event>
 4    1  0.1101825E+000  0.1952251E+03  0.7546771E-02  0.1153831E+00
         21   -1    0    0  501  502  0.00000000000E+00  0.00000000000E+00  0.21409927101E+02  0.21409927101E+02  0.00000000000E+00 0. -1.
         21   -1    0    0  502  503 -0.00000000000E+00 -0.00000000000E+00 -0.17803171342E+04  0.17803171342E+04  0.00000000000E+00 0.  1.
          6    1    1    2  501    0  0.91450235664E+02 -0.12871894244E+02 -0.88824350348E+03  0.90944452978E+03  0.17200000000E+03 0. -1.
         -6    1    1    2    0  503 -0.91450235664E+02  0.12871894244E+02 -0.87066370361E+03  0.89228253151E+03  0.17200000000E+03 0. -1.
<mgrwt>
<rscale>  2 0.19522508E+03</rscale>
<asrwt>0</asrwt>
<pdfrwt beam="1">  1       21 0.53524819E-02 0.19522508E+03</pdfrwt>
<pdfrwt beam="2">  1       21 0.44507927E+00 0.19522508E+03</pdfrwt>
<totfact> 0.10699670E+03</totfact>
</mgrwt>
</event>
<event>
 4    1  0.1101825E+000  0.1948717E+03  0.7546771E-02  0.1154139E+00
         21   -1    0    0  503  502  0.00000000000E+00  0.00000000000E+00  0.58203425813E+02  0.58203425813E+02  0.00000000000E+00 0.  1.
         21   -1    0    0  501  503 -0.00000000000E+00 -0.00000000000E+00 -0.69816158989E+03  0.69816158989E+03  0.00000000000E+00 0.  1.
          6    1    1    2  501    0  0.85728482194E+02  0.32273987820E+02 -0.22321286856E+03  0.29630890577E+03  0.17200000000E+03 0.  1.
         -6    1    1    2    0  502 -0.85728482194E+02 -0.32273987820E+02 -0.41674529552E+03  0.46005610993E+03  0.17200000000E+03 0.  1.
<mgrwt>
<rscale>  2 0.19487171E+03</rscale>
<asrwt>0</asrwt>
<pdfrwt beam="1">  1       21 0.14550856E-01 0.19487171E+03</pdfrwt>
<pdfrwt beam="2">  1       21 0.17454040E+00 0.19487171E+03</pdfrwt>
<totfact> 0.82094375E+03</totfact>
</mgrwt>
</event>
<event>
 4    1  0.1101825E+000  0.2009284E+03  0.7546771E-02  0.1148958E+00
         21   -1    0    0  501  502  0.00000000000E+00  0.00000000000E+00  0.11783789423E+03  0.11783789423E+03  0.00000000000E+00 0. -1.
         21   -1    0    0  502  503 -0.00000000000E+00 -0.00000000000E+00 -0.34266409215E+03  0.34266409215E+03  0.00000000000E+00 0. -1.
          6    1    1    2  501    0 -0.97207117619E+02 -0.36592545005E+02 -0.10947451534E+03  0.22881631842E+03  0.17200000000E+03 0.  1.
         -6    1    1    2    0  503  0.97207117619E+02  0.36592545005E+02 -0.11535168259E+03  0.23168566797E+03  0.17200000000E+03 0.  1.
<mgrwt>
<rscale>  2 0.20092844E+03</rscale>
<asrwt>0</asrwt>
<pdfrwt beam="1">  1       21 0.29459474E-01 0.20092844E+03</pdfrwt>
<pdfrwt beam="2">  1       21 0.85666022E-01 0.20092844E+03</pdfrwt>
<totfact> 0.12923175E+04</totfact>
</mgrwt>
</event>
<event>
 4    1  0.1101825E+000  0.2763759E+03  0.7546771E-02  0.1097685E+00
         21   -1    0    0  501  502  0.00000000000E+00  0.00000000000E+00  0.79443483549E+03  0.79443483549E+03  0.00000000000E+00 0.  1.
         21   -1    0    0  502  503 -0.00000000000E+00 -0.00000000000E+00 -0.12376323065E+03  0.12376323065E+03  0.00000000000E+00 0. -1.
          6    1    1    2  501    0  0.90863076533E+02  0.19632512787E+03  0.11847473486E+03  0.30069904774E+03  0.17200000000E+03 0. -1.
         -6    1    1    2    0  503 -0.90863076533E+02 -0.19632512787E+03  0.55219686998E+03  0.61749901840E+03  0.17200000000E+03 0.  1.
<mgrwt>
<rscale>  2 0.27637593E+03</rscale>
<asrwt>0</asrwt>
<pdfrwt beam="1">  1       21 0.19860869E+00 0.27637593E+03</pdfrwt>
<pdfrwt beam="2">  1       21 0.30940810E-01 0.27637593E+03</pdfrwt>
<totfact> 0.12732544E+03</totfact>
</mgrwt>
</event>
<event>
 4    1  0.1101825E+000  0.1808330E+03  0.7546771E-02  0.1166999E+00
         21   -1    0    0  503  502  0.00000000000E+00  0.00000000000E+00  0.60268314585E+02  0.60268314585E+02  0.00000000000E+00 0. -1.
         21   -1    0    0  501  503 -0.00000000000E+00 -0.00000000000E+00 -0.60279489699E+03  0.60279489699E+03  0.00000000000E+00 0.  1.
          6    1    1    2  501    0  0.55076200646E+02  0.91208537899E+01 -0.37604377898E+03  0.41726430660E+03  0.17200000000E+03 0.  1.
         -6    1    1    2    0  502 -0.55076200646E+02 -0.91208537899E+01 -0.16648280343E+03  0.24579890498E+03  0.17200000000E+03 0. -1.
<mgrwt>
<rscale>  2 0.18083301E+03</rscale>
<asrwt>0</asrwt>
<pdfrwt beam="1">  1       21 0.15067079E-01 0.18083301E+03</pdfrwt>
<pdfrwt beam="2">  1       21 0.15069872E+00 0.18083301E+03</pdfrwt>
<totfact> 0.11591119E+04</totfact>
</mgrwt>
</event>
<event>
 4    1  0.1101825E+000  0.1757097E+03  0.7546771E-02  0.1172021E+00
         21   -1    0    0  501  502  0.00000000000E+00  0.00000000000E+00  0.14733581464E+03  0.14733581464E+03  0.00000000000E+00 0. -1.
         21   -1    0    0  502  503 -0.00000000000E+00 -0.00000000000E+00 -0.21346332849E+03  0.21346332849E+03  0.00000000000E+00 0.  1.
          6    1    1    2  501    0  0.26184761783E+02 -0.24581910163E+02 -0.86315360645E+01  0.17592161741E+03  0.17200000000E+03 0. -1.
         -6    1    1    2    0  503 -0.26184761783E+02  0.24581910163E+02 -0.57495977786E+02  0.18487752573E+03  0.17200000000E+03 0.  1.
<mgrwt>
<rscale>  2 0.17570974E+03</rscale>
<asrwt>0</asrwt>
<pdfrwt beam="1">  1       21 0.36833954E-01 0.17570974E+03</pdfrwt>
<pdfrwt beam="2">  1       21 0.53365832E-01 0.17570974E+03</pdfrwt>
<totfact> 0.23862523E+04</totfact>
</mgrwt>
</event>
<event>
 4    1  0.1101825E+000  0.1903133E+03  0.7546771E-02  0.1158179E+00
         21   -1    0    0  503  502  0.00000000000E+00  0.00000000000E+00  0.42310127909E+03  0.42310127909E+03  0.00000000000E+00 0.  1.
         21   -1    0    0  501  503 -0.00000000000E+00 -0.00000000000E+00 -0.98685914657E+02  0.98685914657E+02  0.00000000000E+00 0.  1.
          6    1    1    2  501    0  0.79119519844E+02 -0.19371412170E+02  0.25719638489E+03  0.31995176267E+03  0.17200000000E+03 0.  1.
         -6    1    1    2    0  502 -0.79119519844E+02  0.19371412170E+02  0.67218979538E+02  0.20183543108E+03  0.17200000000E+03 0.  1.
<mgrwt>
<rscale>  2 0.19031329E+03</rscale>
<asrwt>0</asrwt>
<pdfrwt beam="1">  1       21 0.10577532E+00 0.19031329E+03</pdfrwt>
<pdfrwt beam="2">  1       21 0.24671480E-01 0.19031329E+03</pdfrwt>
<totfact> 0.11168787E+04</totfact>
</mgrwt>
</event>
<event>
 4    1  0.1101825E+000  0.2293023E+03  0.7546771E-02  0.1127132E+00
         21   -1    0    0  501  502  0.00000000000E+00  0.00000000000E+00  0.31815658406E+03  0.31815658406E+03  0.00000000000E+00 0. -1.
         21   -1    0    0  502  503 -0.00000000000E+00 -0.00000000000E+00 -0.18242697703E+03  0.18242697703E+03  0.00000000000E+00 0.  1.
          6    1    1    2  501    0 -0.13730125175E+03  0.64373122642E+02 -0.89084914905E+01  0.22947525765E+03  0.17200000000E+03 0.  1.
         -6    1    1    2    0  503  0.13730125175E+03 -0.64373122642E+02  0.14463809853E+03  0.27110830344E+03  0.17200000000E+03 0. -1.
<mgrwt>
<rscale>  2 0.22930227E+03</rscale>
<asrwt>0</asrwt>
<pdfrwt beam="1">  1       21 0.79539145E-01 0.22930227E+03</pdfrwt>
<pdfrwt beam="2">  1       21 0.45606745E-01 0.22930227E+03</pdfrwt>
<totfact> 0.62579402E+03</totfact>
</mgrwt>
</event>
<event>
 4    1  0.1101825E+000  0.2186947E+03  0.7546771E-02  0.1134860E+00
         21   -1    0    0  503  502  0.00000000000E+00  0.00000000000E+00  0.17564187076E+03  0.17564187076E+03  0.00000000000E+00 0.  1.
         21   -1    0    0  501  503 -0.00000000000E+00 -0.00000000000E+00 -0.27240429932E+03  0.27240429932E+03  0.00000000000E+00 0. -1.
          6    1    1    2  501    0 -0.65418433615E+02  0.11816852119E+03 -0.44008373727E+02  0.22307870319E+03  0.17200000000E+03 0.  1.
         -6    1    1    2    0  502  0.65418433615E+02 -0.11816852119E+03 -0.52754054836E+02  0.22496746689E+03  0.17200000000E+03 0. -1.
<mgrwt>
<rscale>  2 0.21869470E+03</rscale>
<asrwt>0</asrwt>
<pdfrwt beam="1">  1       21 0.43910468E-01 0.21869470E+03</pdfrwt>
<pdfrwt beam="2">  1       21 0.68101075E-01 0.21869470E+03</pdfrwt>
<totfact> 0.96377956E+03</totfact>
</mgrwt>
</event>
<event>
 4    1  0.1101825E+000  0.2098740E+03  0.7546771E-02  0.1141666E+00
         21   -1    0    0  501  502  0.00000000000E+00  0.00000000000E+00  0.36687674762E+03  0.36687674762E+03  0.00000000000E+00 0. -1.
         21   -1    0    0  502  503 -0.00000000000E+00 -0.00000000000E+00 -0.13492130349E+03  0.13492130349E+03  0.00000000000E+00 0. -1.
          6    1    1    2  501    0  0.27760013406E+01 -0.12023060850E+03  0.19924834594E+03  0.28939075445E+03  0.17200000000E+03 0. -1.
         -6    1    1    2    0  503 -0.27760013406E+01  0.12023060850E+03  0.32707098191E+02  0.21240729666E+03  0.17200000000E+03 0. -1.
<mgrwt>
<rscale>  2 0.20987402E+03</rscale>
<asrwt>0</asrwt>
<pdfrwt beam="1">  1       21 0.91719185E-01 0.20987402E+03</pdfrwt>
<pdfrwt beam="2">  1       21 0.33730327E-01 0.20987402E+03</pdfrwt>
<totfact> 0.84094438E+03</totfact>
</mgrwt>
</event>
<event>
 4    1  0.1101825E+000  0.1989850E+03  0.7546771E-02  0.1150598E+00
         21   -1    0    0  501  502  0.00000000000E+00  0.00000000000E+00  0.12424844808E+04  0.12424844808E+04  0.00000000000E+00 0. -1.
         21   -1    0    0  502  503 -0.00000000000E+00 -0.00000000000E+00 -0.14155671603E+03  0.14155671603E+03  0.00000000000E+00 0. -1.
          6    1    1    2  501    0  0.41360004161E+02 -0.91106357671E+02  0.11596296905E+04  0.11765781051E+04  0.17200000000E+03 0. -1.
         -6    1    1    2    0  503 -0.41360004161E+02  0.91106357671E+02 -0.58701925708E+02  0.20746309174E+03  0.17200000000E+03 0. -1.
<mgrwt>
<rscale>  2 0.19898497E+03</rscale>
<asrwt>0</asrwt>
<pdfrwt beam="1">  1       21 0.31062109E+00 0.19898497E+03</pdfrwt>
<pdfrwt beam="2">  1       21 0.35389183E-01 0.19898497E+03</pdfrwt>
<totfact> 0.22604336E+02</totfact>
</mgrwt>
</event>
<event>
 4    1  0.1101825E+000  0.2205157E+03  0.7546771E-02  0.1133499E+00
         21   -1    0    0  501  502  0.00000000000E+00  0.00000000000E+00  0.85110828920E+02  0.85110828920E+02  0.00000000000E+00 0. -1.
         21   -1    0    0  502  503 -0.00000000000E+00 -0.00000000000E+00 -0.57872939641E+03  0.57872939641E+03  0.00000000000E+00 0.  1.
          6    1    1    2  501    0 -0.49854350986E+02  0.12867680257E+03 -0.20930197757E+03  0.30403041566E+03  0.17200000000E+03 0. -1.
         -6    1    1    2    0  503  0.49854350986E+02 -0.12867680257E+03 -0.28431658992E+03  0.35980980967E+03  0.17200000000E+03 0. -1.
<mgrwt>
<rscale>  2 0.22051570E+03</rscale>
<asrwt>0</asrwt>
<pdfrwt beam="1">  1       21 0.21277708E-01 0.22051570E+03</pdfrwt>
<pdfrwt beam="2">  1       21 0.14468235E+00 0.22051570E+03</pdfrwt>
<totfact> 0.66095378E+03</totfact>
</mgrwt>
</event>
<event>
 4    1  0.1101825E+000  0.2075388E+03  0.7546771E-02  0.1143530E+00
         21   -1    0    0  503  502  0.00000000000E+00  0.00000000000E+00  0.10702968818E+03  0.10702968818E+03  0.00000000000E+00 0. -1.
         21   -1    0    0  501  503 -0.00000000000E+00 -0.00000000000E+00 -0.51143542125E+03  0.51143542125E+03  0.00000000000E+00 0. -1.
          6    1    1    2  501    0  0.20566738631E+02  0.11430378940E+03 -0.34496288783E+03  0.40258134705E+03  0.17200000000E+03 0. -1.
         -6    1    1    2    0  502 -0.20566738631E+02 -0.11430378940E+03 -0.59442845233E+02  0.21588376238E+03  0.17200000000E+03 0. -1.
<mgrwt>
<rscale>  2 0.20753878E+03</rscale>
<asrwt>0</asrwt>
<pdfrwt beam="1">  1       21 0.26757422E-01 0.20753878E+03</pdfrwt>
<pdfrwt beam="2">  1       21 0.12785885E+00 0.20753878E+03</pdfrwt>
<totfact> 0.59240392E+03</totfact>
</mgrwt>
</event>
<event>
 4    1  0.1101825E+000  0.1773127E+03  0.7546771E-02  0.1170429E+00
         21   -1    0    0  503  502  0.00000000000E+00  0.00000000000E+00  0.14343191217E+03  0.14343191217E+03  0.00000000000E+00 0.  1.
         21   -1    0    0  501  503 -0.00000000000E+00 -0.00000000000E+00 -0.28838280494E+03  0.28838280494E+03  0.00000000000E+00 0.  1.
          6    1    1    2  501    0  0.56738258953E+01  0.42703583522E+02 -0.17822839832E+03  0.25140634501E+03  0.17200000000E+03 0.  1.
         -6    1    1    2    0  502 -0.56738258953E+01 -0.42703583522E+02  0.33277505546E+02  0.18040837209E+03  0.17200000000E+03 0.  1.
<mgrwt>
<rscale>  2 0.17731269E+03</rscale>
<asrwt>0</asrwt>
<pdfrwt beam="1">  1       21 0.35857978E-01 0.17731269E+03</pdfrwt>
<pdfrwt beam="2">  1       21 0.72095701E-01 0.17731269E+03</pdfrwt>
<totfact> 0.13151664E+04</totfact>
</mgrwt>
</event>
<event>
 4    1  0.1101825E+000  0.1915745E+03  0.7546771E-02  0.1157049E+00
         21   -1    0    0  503  502  0.00000000000E+00  0.00000000000E+00  0.16902533902E+03  0.16902533902E+03  0.00000000000E+00 0.  1.
         21   -1    0    0  501  503 -0.00000000000E+00 -0.00000000000E+00 -0.22275275040E+03  0.22275275040E+03  0.00000000000E+00 0.  1.
          6    1    1    2  501    0 -0.21545548171E+02 -0.81563402845E+02 -0.57980738641E+02  0.20015635234E+03  0.17200000000E+03 0.  1.
         -6    1    1    2    0  502  0.21545548171E+02  0.81563402845E+02  0.42533272581E+01  0.19162173708E+03  0.17200000000E+03 0.  1.
<mgrwt>
<rscale>  2 0.19157453E+03</rscale>
<asrwt>0</asrwt>
<pdfrwt beam="1">  1       21 0.42256335E-01 0.19157453E+03</pdfrwt>
<pdfrwt beam="2">  1       21 0.55688187E-01 0.19157453E+03</pdfrwt>
<totfact> 0.16384353E+04</totfact>
</mgrwt>
</event>
<event>
 4    1  0.1101825E+000  0.1937401E+03  0.7546771E-02  0.1155131E+00
         21   -1    0    0  503  502  0.00000000000E+00  0.00000000000E+00  0.30763696754E+03  0.30763696754E+03  0.00000000000E+00 0. -1.
         21   -1    0    0  501  503 -0.00000000000E+00 -0.00000000000E+00 -0.37606086145E+03  0.37606086145E+03  0.00000000000E+00 0. -1.
          6    1    1    2  501    0  0.73900554080E+02 -0.49899204359E+02 -0.31518473520E+03  0.36996843080E+03  0.17200000000E+03 0. -1.
         -6    1    1    2    0  502 -0.73900554080E+02  0.49899204359E+02  0.24676084130E+03  0.31372939819E+03  0.17200000000E+03 0. -1.
<mgrwt>
<rscale>  2 0.19374009E+03</rscale>
<asrwt>0</asrwt>
<pdfrwt beam="1">  1       21 0.76909242E-01 0.19374009E+03</pdfrwt>
<pdfrwt beam="2">  1       21 0.94015215E-01 0.19374009E+03</pdfrwt>
<totfact> 0.14251858E+03</totfact>
</mgrwt>
</event>
<event>
 4    1  0.1101825E+000  0.1870010E+03  0.7546771E-02  0.1161194E+00
         21   -1    0    0  501  502  0.00000000000E+00  0.00000000000E+00  0.83287400667E+03  0.83287400667E+03  0.00000000000E+00 0.  1.
         21   -1    0    0  502  503 -0.00000000000E+00 -0.00000000000E+00 -0.42491385925E+02  0.42491385925E+02  0.00000000000E+00 0.  1.
          6    1    1    2  501    0 -0.38389111076E+02  0.62543167908E+02  0.44290614977E+03  0.48076525374E+03  0.17200000000E+03 0.  1.
         -6    1    1    2    0  503  0.38389111076E+02 -0.62543167908E+02  0.34747647098E+03  0.39460013886E+03  0.17200000000E+03 0.  1.
<mgrwt>
<rscale>  2 0.18700099E+03</rscale>
<asrwt>0</asrwt>
<pdfrwt beam="1">  1       21 0.20821845E+00 0.18700099E+03</pdfrwt>
<pdfrwt beam="2">  1       21 0.10622849E-01 0.18700099E+03</pdfrwt>
<totfact> 0.87249813E+03</totfact>
</mgrwt>
</event>
<event>
 4    1  0.1101825E+000  0.1760129E+03  0.7546771E-02  0.1171718E+00
         21   -1    0    0  501  502  0.00000000000E+00  0.00000000000E+00  0.63643116706E+03  0.63643116706E+03  0.00000000000E+00 0. -1.
         21   -1    0    0  502  503 -0.00000000000E+00 -0.00000000000E+00 -0.57630391510E+02  0.57630391510E+02  0.00000000000E+00 0.  1.
          6    1    1    2  501    0  0.28655366105E+02 -0.23987915585E+02  0.42617272274E+03  0.46108973064E+03  0.17200000000E+03 0. -1.
         -6    1    1    2    0  503 -0.28655366105E+02  0.23987915585E+02  0.15262805281E+03  0.23297182792E+03  0.17200000000E+03 0.  1.
<mgrwt>
<rscale>  2 0.17601293E+03</rscale>
<asrwt>0</asrwt>
<pdfrwt beam="1">  1       21 0.15910777E+00 0.17601293E+03</pdfrwt>
<pdfrwt beam="2">  1       21 0.14407600E-01 0.17601293E+03</pdfrwt>
<totfact> 0.10925787E+04</totfact>
</mgrwt>
</event>
<event>
 4    1  0.1101825E+000  0.1884234E+03  0.7546771E-02  0.1159891E+00
         21   -1    0    0  503  502  0.00000000000E+00  0.00000000000E+00  0.36482968900E+03  0.36482968900E+03  0.00000000000E+00 0. -1.
         21   -1    0    0  501  503 -0.00000000000E+00 -0.00000000000E+00 -0.12078913011E+03  0.12078913011E+03  0.00000000000E+00 0. -1.
          6    1    1    2  501    0  0.44857235706E+02  0.62507735780E+02  0.14980141974E+02  0.18901797079E+03  0.17200000000E+03 0. -1.
         -6    1    1    2    0  502 -0.44857235706E+02 -0.62507735780E+02  0.22906041691E+03  0.29660084832E+03  0.17200000000E+03 0. -1.
<mgrwt>
<rscale>  2 0.18842343E+03</rscale>
<asrwt>0</asrwt>
<pdfrwt beam="1">  1       21 0.91207420E-01 0.18842343E+03</pdfrwt>
<pdfrwt beam="2">  1       21 0.30197283E-01 0.18842343E+03</pdfrwt>
<totfact> 0.10748246E+04</totfact>
</mgrwt>
</event>
<event>
 4    1  0.1101825E+000  0.1786344E+03  0.7546771E-02  0.1169131E+00
         21   -1    0    0  503  502  0.00000000000E+00  0.00000000000E+00  0.54776412642E+03  0.54776412642E+03  0.00000000000E+00 0.  1.
         21   -1    0    0  501  503 -0.00000000000E+00 -0.00000000000E+00 -0.94051255687E+02  0.94051255687E+02  0.00000000000E+00 0.  1.
          6    1    1    2  501    0 -0.40172655028E+02  0.26690775903E+02  0.28879788887E+02  0.18095381161E+03  0.17200000000E+03 0.  1.
         -6    1    1    2    0  502  0.40172655028E+02 -0.26690775903E+02  0.42483308185E+03  0.46086157050E+03  0.17200000000E+03 0.  1.
<mgrwt>
<rscale>  2 0.17863437E+03</rscale>
<asrwt>0</asrwt>
<pdfrwt beam="1">  1       21 0.13694102E+00 0.17863437E+03</pdfrwt>
<pdfrwt beam="2">  1       21 0.23512815E-01 0.17863437E+03</pdfrwt>
<totfact> 0.65213066E+03</totfact>
</mgrwt>
</event>
<event>
 4    1  0.1101825E+000  0.2921910E+03  0.7546771E-02  0.1089211E+00
         21   -1    0    0  501  502  0.00000000000E+00  0.00000000000E+00  0.12282098528E+03  0.12282098528E+03  0.00000000000E+00 0.  1.
         21   -1    0    0  502  503 -0.00000000000E+00 -0.00000000000E+00 -0.77331233638E+03  0.77331233638E+03  0.00000000000E+00 0. -1.
          6    1    1    2  501    0 -0.23012455682E+03  0.53238106866E+02 -0.18276996677E+03  0.34464542421E+03  0.17200000000E+03 0.  1.
         -6    1    1    2    0  503  0.23012455682E+03 -0.53238106866E+02 -0.46772138434E+03  0.55148789745E+03  0.17200000000E+03 0. -1.
<mgrwt>
<rscale>  2 0.29219105E+03</rscale>
<asrwt>0</asrwt>
<pdfrwt beam="1">  1       21 0.30705247E-01 0.29219105E+03</pdfrwt>
<pdfrwt beam="2">  1       21 0.19332808E+00 0.29219105E+03</pdfrwt>
<totfact> 0.13847100E+03</totfact>
</mgrwt>
</event>
<event>
 4    1  0.1101825E+000  0.2104688E+03  0.7546771E-02  0.1141195E+00
         21   -1    0    0  501  502  0.00000000000E+00  0.00000000000E+00  0.12100145870E+04  0.12100145870E+04  0.00000000000E+00 0.  1.
         21   -1    0    0  502  503 -0.00000000000E+00 -0.00000000000E+00 -0.55482908167E+02  0.55482908167E+02  0.00000000000E+00 0.  1.
          6    1    1    2  501    0 -0.28602464785E+02  0.11787711151E+03  0.94631612732E+03  0.96943866605E+03  0.17200000000E+03 0.  1.
         -6    1    1    2    0  503  0.28602464785E+02 -0.11787711151E+03  0.20821555154E+03  0.29605882915E+03  0.17200000000E+03 0.  1.
<mgrwt>
<rscale>  2 0.21046880E+03</rscale>
<asrwt>0</asrwt>
<pdfrwt beam="1">  1       21 0.30250356E+00 0.21046880E+03</pdfrwt>
<pdfrwt beam="2">  1       21 0.13870731E-01 0.21046880E+03</pdfrwt>
<totfact> 0.14599858E+03</totfact>
</mgrwt>
</event>
<event>
 4    1  0.1101825E+000  0.3019530E+03  0.7546771E-02  0.1084268E+00
         21   -1    0    0  503  502  0.00000000000E+00  0.00000000000E+00  0.61731372802E+03  0.61731372802E+03  0.00000000000E+00 0.  1.
         21   -1    0    0  501  503 -0.00000000000E+00 -0.00000000000E+00 -0.18342918058E+03  0.18342918058E+03  0.00000000000E+00 0.  1.
          6    1    1    2  501    0  0.22013953788E+03  0.11458697054E+03  0.40234098692E+02  0.30462168776E+03  0.17200000000E+03 0.  1.
         -6    1    1    2    0  502 -0.22013953788E+03 -0.11458697054E+03  0.39365044875E+03  0.49612122083E+03  0.17200000000E+03 0.  1.
<mgrwt>
<rscale>  2 0.30195296E+03</rscale>
<asrwt>0</asrwt>
<pdfrwt beam="1">  1       21 0.15432843E+00 0.30195296E+03</pdfrwt>
<pdfrwt beam="2">  1       21 0.45857297E-01 0.30195296E+03</pdfrwt>
<totfact> 0.11546548E+03</totfact>
</mgrwt>
</event>
<event>
 4    1  0.1101825E+000  0.2226691E+03  0.7546771E-02  0.1131909E+00
         21   -1    0    0  501  502  0.00000000000E+00  0.00000000000E+00  0.23157993168E+03  0.23157993168E+03  0.00000000000E+00 0. -1.
         21   -1    0    0  502  503 -0.00000000000E+00 -0.00000000000E+00 -0.90561732681E+03  0.90561732681E+03  0.00000000000E+00 0. -1.
          6    1    1    2  501    0  0.91678994204E+01 -0.14111512714E+03  0.15984197072E+03  0.27410031939E+03  0.17200000000E+03 0. -1.
         -6    1    1    2    0  503 -0.91678994204E+01  0.14111512714E+03 -0.83387936585E+03  0.86309693910E+03  0.17200000000E+03 0. -1.
<mgrwt>
<rscale>  2 0.22266910E+03</rscale>
<asrwt>0</asrwt>
<pdfrwt beam="1">  1       21 0.57894984E-01 0.22266910E+03</pdfrwt>
<pdfrwt beam="2">  1       21 0.22640433E+00 0.22266910E+03</pdfrwt>
<totfact> 0.24747108E+02</totfact>
</mgrwt>
</event>
<event>
 4    1  0.1101825E+000  0.2049205E+03  0.7546771E-02  0.1145653E+00
         21   -1    0    0  501  502  0.00000000000E+00  0.00000000000E+00  0.85082708721E+03  0.85082708721E+03  0.00000000000E+00 0. -1.
         21   -1    0    0  502  503 -0.00000000000E+00 -0.00000000000E+00 -0.52928530791E+02  0.52928530791E+02  0.00000000000E+00 0. -1.
          6    1    1    2  501    0  0.89152591060E+02  0.66784940597E+02  0.51636767619E+03  0.55554296846E+03  0.17200000000E+03 0. -1.
         -6    1    1    2    0  503 -0.89152591060E+02 -0.66784940597E+02  0.28153088023E+03  0.34821264955E+03  0.17200000000E+03 0. -1.
<mgrwt>
<rscale>  2 0.20492050E+03</rscale>
<asrwt>0</asrwt>
<pdfrwt beam="1">  1       21 0.21270673E+00 0.20492050E+03</pdfrwt>
<pdfrwt beam="2">  1       21 0.13232135E-01 0.20492050E+03</pdfrwt>
<totfact> 0.54327815E+03</totfact>
</mgrwt>
</event>
<event>
 4    1  0.1101825E+000  0.1964550E+03  0.7546771E-02  0.1152765E+00
         21   -1    0    0  503  502  0.00000000000E+00  0.00000000000E+00  0.17243979315E+03  0.17243979315E+03  0.00000000000E+00 0. -1.
         21   -1    0    0  501  503 -0.00000000000E+00 -0.00000000000E+00 -0.22386885271E+03  0.22386885271E+03  0.00000000000E+00 0.  1.
          6    1    1    2  501    0  0.50388720968E+02  0.80445821941E+02 -0.22631470098E+02  0.19775423360E+03  0.17200000000E+03 0.  1.
         -6    1    1    2    0  502 -0.50388720968E+02 -0.80445821941E+02 -0.28797589461E+02  0.19855441226E+03  0.17200000000E+03 0. -1.
<mgrwt>
<rscale>  2 0.19645497E+03</rscale>
<asrwt>0</asrwt>
<pdfrwt beam="1">  1       21 0.43109949E-01 0.19645497E+03</pdfrwt>
<pdfrwt beam="2">  1       21 0.55967213E-01 0.19645497E+03</pdfrwt>
<totfact> 0.15515708E+04</totfact>
</mgrwt>
</event>
<event>
 4    1  0.1101825E+000  0.2278104E+03  0.7546771E-02  0.1128190E+00
         21   -1    0    0  501  502  0.00000000000E+00  0.00000000000E+00  0.45306651352E+03  0.45306651352E+03  0.00000000000E+00 0.  1.
         21   -1    0    0  502  503 -0.00000000000E+00 -0.00000000000E+00 -0.13106887711E+03  0.13106887711E+03  0.00000000000E+00 0.  1.
          6    1    1    2  501    0  0.14927378130E+03 -0.55595268165E+01  0.26469404860E+03  0.34922844885E+03  0.17200000000E+03 0.  1.
         -6    1    1    2    0  503 -0.14927378130E+03  0.55595268165E+01  0.57303587807E+02  0.23490694178E+03  0.17200000000E+03 0.  1.
<mgrwt>
<rscale>  2 0.22781038E+03</rscale>
<asrwt>0</asrwt>
<pdfrwt beam="1">  1       21 0.11326662E+00 0.22781038E+03</pdfrwt>
<pdfrwt beam="2">  1       21 0.32767220E-01 0.22781038E+03</pdfrwt>
<totfact> 0.53110553E+03</totfact>
</mgrwt>
</event>
<event>
 4    1  0.1101825E+000  0.2074250E+03  0.7546771E-02  0.1143621E+00
         21   -1    0    0  501  502  0.00000000000E+00  0.00000000000E+00  0.27855698851E+03  0.27855698851E+03  0.00000000000E+00 0.  1.
         21   -1    0    0  502  503 -0.00000000000E+00 -0.00000000000E+00 -0.19260527304E+03  0.19260527304E+03  0.00000000000E+00 0.  1.
          6    1    1    2  501    0 -0.11591027424E+03 -0.24378011578E+01  0.14781963913E+03  0.25470724422E+03  0.17200000000E+03 0.  1.
         -6    1    1    2    0  503  0.11591027424E+03  0.24378011578E+01 -0.61867923655E+02  0.21645501733E+03  0.17200000000E+03 0.  1.
<mgrwt>
<rscale>  2 0.20742501E+03</rscale>
<asrwt>0</asrwt>
<pdfrwt beam="1">  1       21 0.69639247E-01 0.20742501E+03</pdfrwt>
<pdfrwt beam="2">  1       21 0.48151319E-01 0.20742501E+03</pdfrwt>
<totfact> 0.76415886E+03</totfact>
</mgrwt>
</event>
<event>
 4    1  0.1101825E+000  0.1751925E+03  0.7546771E-02  0.1172539E+00
         21   -1    0    0  501  502  0.00000000000E+00  0.00000000000E+00  0.24631300485E+03  0.24631300485E+03  0.00000000000E+00 0. -1.
         21   -1    0    0  502  503 -0.00000000000E+00 -0.00000000000E+00 -0.12665860996E+03  0.12665860996E+03  0.00000000000E+00 0. -1.
          6    1    1    2  501    0 -0.27534444756E+02 -0.18715721870E+02  0.36095262322E+02  0.17887227805E+03  0.17200000000E+03 0. -1.
         -6    1    1    2    0  503  0.27534444756E+02  0.18715721870E+02  0.83559132569E+02  0.19409933676E+03  0.17200000000E+03 0. -1.
<mgrwt>
<rscale>  2 0.17519253E+03</rscale>
<asrwt>0</asrwt>
<pdfrwt beam="1">  1       21 0.61578250E-01 0.17519253E+03</pdfrwt>
<pdfrwt beam="2">  1       21 0.31664653E-01 0.17519253E+03</pdfrwt>
<totfact> 0.23735184E+04</totfact>
</mgrwt>
</event>
<event>
 4    1  0.1101825E+000  0.2349937E+03  0.7546771E-02  0.1123174E+00
         21   -1    0    0  501  502  0.00000000000E+00  0.00000000000E+00  0.17572816252E+03  0.17572816252E+03  0.00000000000E+00 0.  1.
         21   -1    0    0  502  503 -0.00000000000E+00 -0.00000000000E+00 -0.37910190941E+03  0.37910190941E+03  0.00000000000E+00 0. -1.
          6    1    1    2  501    0  0.13413470165E+03 -0.87441021285E+02  0.13055384308E+02  0.23535609924E+03  0.17200000000E+03 0.  1.
         -6    1    1    2    0  503 -0.13413470165E+03  0.87441021285E+02 -0.21642913120E+03  0.31947397268E+03  0.17200000000E+03 0. -1.
<mgrwt>
<rscale>  2 0.23499372E+03</rscale>
<asrwt>0</asrwt>
<pdfrwt beam="1">  1       21 0.43932041E-01 0.23499372E+03</pdfrwt>
<pdfrwt beam="2">  1       21 0.94775477E-01 0.23499372E+03</pdfrwt>
<totfact> 0.44920761E+03</totfact>
</mgrwt>
</event>
<event>
 4    1  0.1101825E+000  0.2031065E+03  0.7546771E-02  0.1147144E+00
         21   -1    0    0  501  502  0.00000000000E+00  0.00000000000E+00  0.46652665363E+03  0.46652665363E+03  0.00000000000E+00 0.  1.
         21   -1    0    0  502  503 -0.00000000000E+00 -0.00000000000E+00 -0.14283764632E+03  0.14283764632E+03  0.00000000000E+00 0. -1.
          6    1    1    2  501    0  0.43034168285E+02  0.99077226329E+02  0.34989689849E+03  0.40457394379E+03  0.17200000000E+03 0.  1.
         -6    1    1    2    0  503 -0.43034168285E+02 -0.99077226329E+02 -0.26207891183E+02  0.20479035616E+03  0.17200000000E+03 0. -1.
<mgrwt>
<rscale>  2 0.20310647E+03</rscale>
<asrwt>0</asrwt>
<pdfrwt beam="1">  1       21 0.11663166E+00 0.20310647E+03</pdfrwt>
<pdfrwt beam="2">  1       21 0.35709413E-01 0.20310647E+03</pdfrwt>
<totfact> 0.42466307E+03</totfact>
</mgrwt>
</event>
<event>
 4    1  0.1101825E+000  0.1964523E+03  0.7546771E-02  0.1152767E+00
         21   -1    0    0  503  502  0.00000000000E+00  0.00000000000E+00  0.94294710092E+02  0.94294710092E+02  0.00000000000E+00 0. -1.
         21   -1    0    0  501  503 -0.00000000000E+00 -0.00000000000E+00 -0.41002537843E+03  0.41002537843E+03  0.00000000000E+00 0. -1.
          6    1    1    2  501    0 -0.71994911368E+02 -0.61856449100E+02 -0.16857455124E+03  0.25886457247E+03  0.17200000000E+03 0. -1.
         -6    1    1    2    0  502  0.71994911368E+02  0.61856449100E+02 -0.14715611710E+03  0.24545551605E+03  0.17200000000E+03 0. -1.
<mgrwt>
<rscale>  2 0.19645225E+03</rscale>
<asrwt>0</asrwt>
<pdfrwt beam="1">  1       21 0.23573678E-01 0.19645225E+03</pdfrwt>
<pdfrwt beam="2">  1       21 0.10250634E+00 0.19645225E+03</pdfrwt>
<totfact> 0.13075747E+04</totfact>
</mgrwt>
</event>
<event>
 4    1  0.1101825E+000  0.2079619E+03  0.7546771E-02  0.1143190E+00
         21   -1    0    0  501  502  0.00000000000E+00  0.00000000000E+00  0.80137187281E+02  0.80137187281E+02  0.00000000000E+00 0. -1.
         21   -1    0    0  502  503 -0.00000000000E+00 -0.00000000000E+00 -0.75749473729E+03  0.75749473729E+03  0.00000000000E+00 0. -1.
          6    1    1    2  501    0 -0.86425595918E+02 -0.78706876636E+02 -0.11409387980E+03  0.23720364556E+03  0.17200000000E+03 0. -1.
         -6    1    1    2    0  503  0.86425595918E+02  0.78706876636E+02 -0.56326367021E+03  0.60042827901E+03  0.17200000000E+03 0. -1.
<mgrwt>
<rscale>  2 0.20796191E+03</rscale>
<asrwt>0</asrwt>
<pdfrwt beam="1">  1       21 0.20034297E-01 0.20796191E+03</pdfrwt>
<pdfrwt beam="2">  1       21 0.18937368E+00 0.20796191E+03</pdfrwt>
<totfact> 0.35718562E+03</totfact>
</mgrwt>
</event>
<event>
 4    1  0.1101825E+000  0.1934060E+03  0.7546771E-02  0.1155425E+00
         21   -1    0    0  501  502  0.00000000000E+00  0.00000000000E+00  0.27402641786E+03  0.27402641786E+03  0.00000000000E+00 0. -1.
         21   -1    0    0  502  503 -0.00000000000E+00 -0.00000000000E+00 -0.20284023139E+03  0.20284023139E+03  0.00000000000E+00 0. -1.
          6    1    1    2  501    0 -0.78580053638E+02 -0.40584119917E+02  0.17194555782E+03  0.25878788703E+03  0.17200000000E+03 0. -1.
         -6    1    1    2    0  503  0.78580053638E+02  0.40584119917E+02 -0.10075937135E+03  0.21807876223E+03  0.17200000000E+03 0. -1.
<mgrwt>
<rscale>  2 0.19340604E+03</rscale>
<asrwt>0</asrwt>
<pdfrwt beam="1">  1       21 0.68506604E-01 0.19340604E+03</pdfrwt>
<pdfrwt beam="2">  1       21 0.50710058E-01 0.19340604E+03</pdfrwt>
<totfact> 0.71852777E+03</totfact>
</mgrwt>
</event>
<event>
 4    1  0.1101825E+000  0.1827404E+03  0.7546771E-02  0.1165177E+00
         21   -1    0    0  503  502  0.00000000000E+00  0.00000000000E+00  0.10482755106E+04  0.10482755106E+04  0.00000000000E+00 0. -1.
         21   -1    0    0  501  503 -0.00000000000E+00 -0.00000000000E+00 -0.64776212297E+02  0.64776212297E+02  0.00000000000E+00 0. -1.
          6    1    1    2  501    0 -0.38896336232E+02  0.47928499947E+02  0.95008157353E+02  0.20596265691E+03  0.17200000000E+03 0. -1.
         -6    1    1    2    0  502  0.38896336232E+02 -0.47928499947E+02  0.88849114092E+03  0.90708906596E+03  0.17200000000E+03 0. -1.
<mgrwt>
<rscale>  2 0.18274043E+03</rscale>
<asrwt>0</asrwt>
<pdfrwt beam="1">  1       21 0.26206882E+00 0.18274043E+03</pdfrwt>
<pdfrwt beam="2">  1       21 0.16194056E-01 0.18274043E+03</pdfrwt>
<totfact> 0.19510168E+03</totfact>
</mgrwt>
</event>
<event>
 4    1  0.1101825E+000  0.1754216E+03  0.7546771E-02  0.1172309E+00
         21   -1    0    0  501  502  0.00000000000E+00  0.00000000000E+00  0.42369622442E+03  0.42369622442E+03  0.00000000000E+00 0. -1.
         21   -1    0    0  502  503 -0.00000000000E+00 -0.00000000000E+00 -0.14354937919E+03  0.14354937919E+03  0.00000000000E+00 0. -1.
          6    1    1    2  501    0  0.34460051373E+02 -0.11078868590E+01  0.33942760964E+03  0.38207829661E+03  0.17200000000E+03 0. -1.
         -6    1    1    2    0  503 -0.34460051373E+02  0.11078868590E+01 -0.59280764412E+02  0.18516730700E+03  0.17200000000E+03 0. -1.
<mgrwt>
<rscale>  2 0.17542156E+03</rscale>
<asrwt>0</asrwt>
<pdfrwt beam="1">  1       21 0.10592405E+00 0.17542156E+03</pdfrwt>
<pdfrwt beam="2">  1       21 0.35887346E-01 0.17542156E+03</pdfrwt>
<totfact> 0.54314429E+03</totfact>
</mgrwt>
</event>
<event>
 4    1  0.1101825E+000  0.1980470E+03  0.7546771E-02  0.1151397E+00
         21   -1    0    0  501  502  0.00000000000E+00  0.00000000000E+00  0.14142820638E+03  0.14142820638E+03  0.00000000000E+00 0. -1.
         21   -1    0    0  502  503 -0.00000000000E+00 -0.00000000000E+00 -0.36869181372E+03  0.36869181372E+03  0.00000000000E+00 0. -1.
          6    1    1    2  501    0 -0.62081426686E+02  0.76056080456E+02  0.13334114938E+02  0.19849541439E+03  0.17200000000E+03 0. -1.
         -6    1    1    2    0  503  0.62081426686E+02 -0.76056080456E+02 -0.24059772228E+03  0.31162460570E+03  0.17200000000E+03 0. -1.
<mgrwt>
<rscale>  2 0.19804704E+03</rscale>
<asrwt>0</asrwt>
<pdfrwt beam="1">  1       21 0.35357052E-01 0.19804704E+03</pdfrwt>
<pdfrwt beam="2">  1       21 0.92172953E-01 0.19804704E+03</pdfrwt>
<totfact> 0.76358158E+03</totfact>
</mgrwt>
</event>
<event>
 4    1  0.1101825E+000  0.2102345E+03  0.7546771E-02  0.1141380E+00
         21   -1    0    0  503  502  0.00000000000E+00  0.00000000000E+00  0.18141202228E+03  0.18141202228E+03  0.00000000000E+00 0.  1.
         21   -1    0    0  501  503 -0.00000000000E+00 -0.00000000000E+00 -0.24375847467E+03  0.24375847467E+03  0.00000000000E+00 0. -1.
          6    1    1    2  501    0  0.11423297028E+03 -0.39564917473E+02 -0.26413951097E+02  0.21188735452E+03  0.17200000000E+03 0.  1.
         -6    1    1    2    0  502 -0.11423297028E+03  0.39564917473E+02 -0.35932501297E+02  0.21328314243E+03  0.17200000000E+03 0. -1.
<mgrwt>
<rscale>  2 0.21023452E+03</rscale>
<asrwt>0</asrwt>
<pdfrwt beam="1">  1       21 0.45353006E-01 0.21023452E+03</pdfrwt>
<pdfrwt beam="2">  1       21 0.60939619E-01 0.21023452E+03</pdfrwt>
<totfact> 0.11550890E+04</totfact>
</mgrwt>
</event>
<event>
 4    1  0.1101825E+000  0.2632614E+03  0.7546771E-02  0.1105199E+00
         21   -1    0    0  501  502  0.00000000000E+00  0.00000000000E+00  0.57698284817E+03  0.57698284817E+03  0.00000000000E+00 0.  1.
         21   -1    0    0  502  503 -0.00000000000E+00 -0.00000000000E+00 -0.12827261568E+03  0.12827261568E+03  0.00000000000E+00 0. -1.
          6    1    1    2  501    0  0.65515716154E+02  0.18822926641E+03  0.31326014203E+03  0.40919247596E+03  0.17200000000E+03 0.  1.
         -6    1    1    2    0  503 -0.65515716154E+02 -0.18822926641E+03  0.13545009046E+03  0.29606298789E+03  0.17200000000E+03 0. -1.
<mgrwt>
<rscale>  2 0.26326140E+03</rscale>
<asrwt>0</asrwt>
<pdfrwt beam="1">  1       21 0.14424571E+00 0.26326140E+03</pdfrwt>
<pdfrwt beam="2">  1       21 0.32068155E-01 0.26326140E+03</pdfrwt>
<totfact> 0.29301844E+03</totfact>
</mgrwt>
</event>
<event>
 4    1  0.1101825E+000  0.1863975E+03  0.7546771E-02  0.1161751E+00
         21   -1    0    0  501  502  0.00000000000E+00  0.00000000000E+00  0.33666478206E+03  0.33666478206E+03  0.00000000000E+00 0. -1.
         21   -1    0    0  502  503 -0.00000000000E+00 -0.00000000000E+00 -0.11078982026E+03  0.11078982026E+03  0.00000000000E+00 0. -1.
          6    1    1    2  501    0 -0.45488161441E+02 -0.55595451812E+02  0.17149274837E+03  0.25328598429E+03  0.17200000000E+03 0. -1.
         -6    1    1    2    0  503  0.45488161441E+02  0.55595451812E+02  0.54382213434E+02  0.19416861804E+03  0.17200000000E+03 0. -1.
<mgrwt>
<rscale>  2 0.18639750E+03</rscale>
<asrwt>0</asrwt>
<pdfrwt beam="1">  1       21 0.84166193E-01 0.18639750E+03</pdfrwt>
<pdfrwt beam="2">  1       21 0.27697456E-01 0.18639750E+03</pdfrwt>
<totfact> 0.15309412E+04</totfact>
</mgrwt>
</event>
<event>
 4    1  0.1101825E+000  0.1781613E+03  0.7546771E-02  0.1169594E+00
         21   -1    0    0  503  502  0.00000000000E+00  0.00000000000E+00  0.59894370816E+02  0.59894370816E+02  0.00000000000E+00 0.  1.
         21   -1    0    0  501  503 -0.00000000000E+00 -0.00000000000E+00 -0.10041866921E+04  0.10041866921E+04  0.00000000000E+00 0.  1.
          6    1    1    2  501    0  0.46118547709E+02  0.55252246787E+01 -0.10652459692E+03  0.20757875204E+03  0.17200000000E+03 0.  1.
         -6    1    1    2    0  502 -0.46118547709E+02 -0.55252246787E+01 -0.83776772437E+03  0.85650231088E+03  0.17200000000E+03 0.  1.
<mgrwt>
<rscale>  2 0.17816130E+03</rscale>
<asrwt>0</asrwt>
<pdfrwt beam="1">  1       21 0.14973593E-01 0.17816130E+03</pdfrwt>
<pdfrwt beam="2">  1       21 0.25104667E+00 0.17816130E+03</pdfrwt>
<totfact> 0.26236927E+03</totfact>
</mgrwt>
</event>
<event>
 4    1  0.1101825E+000  0.1985946E+03  0.7546771E-02  0.1150930E+00
         21   -1    0    0  503  502  0.00000000000E+00  0.00000000000E+00  0.52163938999E+03  0.52163938999E+03  0.00000000000E+00 0. -1.
         21   -1    0    0  501  503 -0.00000000000E+00 -0.00000000000E+00 -0.87311879723E+02  0.87311879723E+02  0.00000000000E+00 0.  1.
          6    1    1    2  501    0  0.87976009806E+02  0.46000225131E+02  0.32864245547E+03  0.38398653954E+03  0.17200000000E+03 0. -1.
         -6    1    1    2    0  502 -0.87976009806E+02 -0.46000225131E+02  0.10568505480E+03  0.22496473017E+03  0.17200000000E+03 0.  1.
<mgrwt>
<rscale>  2 0.19859456E+03</rscale>
<asrwt>0</asrwt>
<pdfrwt beam="1">  1       21 0.13040984E+00 0.19859456E+03</pdfrwt>
<pdfrwt beam="2">  1       21 0.21827971E-01 0.19859456E+03</pdfrwt>
<totfact> 0.83635092E+03</totfact>
</mgrwt>
</event>
<event>
 4    1  0.1101825E+000  0.2069760E+03  0.7546771E-02  0.1143983E+00
         21   -1    0    0  503  502  0.00000000000E+00  0.00000000000E+00  0.64579171079E+03  0.64579171079E+03  0.00000000000E+00 0.  1.
         21   -1    0    0  501  503 -0.00000000000E+00 -0.00000000000E+00 -0.16850368420E+03  0.16850368420E+03  0.00000000000E+00 0. -1.
          6    1    1    2  501    0  0.10494995262E+03 -0.47334503578E+02 -0.78389144524E+02  0.22132308005E+03  0.17200000000E+03 0. -1.
         -6    1    1    2    0  502 -0.10494995262E+03  0.47334503578E+02  0.55567717112E+03  0.59297231494E+03  0.17200000000E+03 0.  1.
<mgrwt>
<rscale>  2 0.20697596E+03</rscale>
<asrwt>0</asrwt>
<pdfrwt beam="1">  1       21 0.16144792E+00 0.20697596E+03</pdfrwt>
<pdfrwt beam="2">  1       21 0.42125923E-01 0.20697596E+03</pdfrwt>
<totfact> 0.13130389E+03</totfact>
</mgrwt>
</event>
<event>
 4    1  0.1101825E+000  0.2415366E+03  0.7546771E-02  0.1118773E+00
         21   -1    0    0  501  502  0.00000000000E+00  0.00000000000E+00  0.23082936045E+03  0.23082936045E+03  0.00000000000E+00 0.  1.
         21   -1    0    0  502  503 -0.00000000000E+00 -0.00000000000E+00 -0.39501141917E+03  0.39501141917E+03  0.00000000000E+00 0.  1.
          6    1    1    2  501    0 -0.17838392629E+01  0.16956628689E+03  0.10570536073E+03  0.26365418832E+03  0.17200000000E+03 0.  1.
         -6    1    1    2    0  503  0.17838392629E+01 -0.16956628689E+03 -0.26988741946E+03  0.36218659130E+03  0.17200000000E+03 0.  1.
<mgrwt>
<rscale>  2 0.24153656E+03</rscale>
<asrwt>0</asrwt>
<pdfrwt beam="1">  1       21 0.57707341E-01 0.24153656E+03</pdfrwt>
<pdfrwt beam="2">  1       21 0.98752854E-01 0.24153656E+03</pdfrwt>
<totfact> 0.22887761E+03</totfact>
</mgrwt>
</event>
<event>
 4    1  0.1101825E+000  0.2433364E+03  0.7546771E-02  0.1117590E+00
         21   -1    0    0  501  502  0.00000000000E+00  0.00000000000E+00  0.40782270100E+03  0.40782270100E+03  0.00000000000E+00 0. -1.
         21   -1    0    0  502  503 -0.00000000000E+00 -0.00000000000E+00 -0.16713470958E+03  0.16713470958E+03  0.00000000000E+00 0. -1.
          6    1    1    2  501    0  0.70007398579E+02 -0.15725005915E+03  0.22450781983E+03  0.33108364219E+03  0.17200000000E+03 0. -1.
         -6    1    1    2    0  503 -0.70007398579E+02  0.15725005915E+03  0.16180171586E+02  0.24387376840E+03  0.17200000000E+03 0. -1.
<mgrwt>
<rscale>  2 0.24333643E+03</rscale>
<asrwt>0</asrwt>
<pdfrwt beam="1">  1       21 0.10195567E+00 0.24333643E+03</pdfrwt>
<pdfrwt beam="2">  1       21 0.41783678E-01 0.24333643E+03</pdfrwt>
<totfact> 0.41620897E+03</totfact>
</mgrwt>
</event>
<event>
 4    1  0.1101825E+000  0.1821521E+03  0.7546771E-02  0.1165736E+00
         21   -1    0    0  503  502  0.00000000000E+00  0.00000000000E+00  0.34240897270E+03  0.34240897270E+03  0.00000000000E+00 0. -1.
         21   -1    0    0  501  503 -0.00000000000E+00 -0.00000000000E+00 -0.99084729454E+02  0.99084729454E+02  0.00000000000E+00 0. -1.
          6    1    1    2  501    0 -0.12848612168E+02  0.58568710443E+02  0.88882484356E+02  0.20268072603E+03  0.17200000000E+03 0. -1.
         -6    1    1    2    0  502  0.12848612168E+02 -0.58568710443E+02  0.15444175889E+03  0.23881297613E+03  0.17200000000E+03 0. -1.
<mgrwt>
<rscale>  2 0.18215208E+03</rscale>
<asrwt>0</asrwt>
<pdfrwt beam="1">  1       21 0.85602240E-01 0.18215208E+03</pdfrwt>
<pdfrwt beam="2">  1       21 0.24771183E-01 0.18215208E+03</pdfrwt>
<totfact> 0.18293155E+04</totfact>
</mgrwt>
</event>
<event>
 4    1  0.1101825E+000  0.2298584E+03  0.7546771E-02  0.1126739E+00
         21   -1    0    0  501  502  0.00000000000E+00  0.00000000000E+00  0.50632022650E+03  0.50632022650E+03  0.00000000000E+00 0. -1.
         21   -1    0    0  502  503 -0.00000000000E+00 -0.00000000000E+00 -0.12103073717E+03  0.12103073717E+03  0.00000000000E+00 0.  1.
          6    1    1    2  501    0  0.82889427635E+02  0.12798521465E+03  0.30909251622E+03  0.38519223248E+03  0.17200000000E+03 0. -1.
         -6    1    1    2    0  503 -0.82889427635E+02 -0.12798521465E+03  0.76196973112E+02  0.24215873120E+03  0.17200000000E+03 0. -1.
<mgrwt>
<rscale>  2 0.22985837E+03</rscale>
<asrwt>0</asrwt>
<pdfrwt beam="1">  1       21 0.12658005E+00 0.22985837E+03</pdfrwt>
<pdfrwt beam="2">  1       21 0.30257686E-01 0.22985837E+03</pdfrwt>
<totfact> 0.47064964E+03</totfact>
</mgrwt>
</event>
<event>
 4    1  0.1101825E+000  0.2174234E+03  0.7546771E-02  0.1135819E+00
         21   -1    0    0  501  502  0.00000000000E+00  0.00000000000E+00  0.12207352930E+04  0.12207352930E+04  0.00000000000E+00 0.  1.
         21   -1    0    0  502  503 -0.00000000000E+00 -0.00000000000E+00 -0.42365717720E+02  0.42365717720E+02  0.00000000000E+00 0.  1.
          6    1    1    2  501    0  0.13273442516E+03  0.83958994319E+01  0.77432340547E+03  0.80426964073E+03  0.17200000000E+03 0. -1.
         -6    1    1    2    0  503 -0.13273442516E+03 -0.83958994319E+01  0.40404616985E+03  0.45883137003E+03  0.17200000000E+03 0. -1.
<mgrwt>
<rscale>  2 0.21742336E+03</rscale>
<asrwt>0</asrwt>
<pdfrwt beam="1">  1       21 0.30518371E+00 0.21742336E+03</pdfrwt>
<pdfrwt beam="2">  1       21 0.10591433E-01 0.21742336E+03</pdfrwt>
<totfact> 0.22674976E+03</totfact>
</mgrwt>
</event>
<event>
 4    1  0.1101825E+000  0.2071798E+03  0.7546771E-02  0.1143819E+00
         21   -1    0    0  501  502  0.00000000000E+00  0.00000000000E+00  0.12482372664E+04  0.12482372664E+04  0.00000000000E+00 0.  1.
         21   -1    0    0  502  503 -0.00000000000E+00 -0.00000000000E+00 -0.37502103964E+02  0.37502103964E+02  0.00000000000E+00 0.  1.
          6    1    1    2  501    0  0.32530521596E+02 -0.11082077511E+03  0.79064060211E+03  0.81733471768E+03  0.17200000000E+03 0.  1.
         -6    1    1    2    0  503 -0.32530521596E+02  0.11082077511E+03  0.42009456029E+03  0.46840465264E+03  0.17200000000E+03 0.  1.
<mgrwt>
<rscale>  2 0.20717982E+03</rscale>
<asrwt>0</asrwt>
<pdfrwt beam="1">  1       21 0.31205918E+00 0.20717982E+03</pdfrwt>
<pdfrwt beam="2">  1       21 0.93755302E-02 0.20717982E+03</pdfrwt>
<totfact> 0.25979614E+03</totfact>
</mgrwt>
</event>
<event>
 4    1  0.1101825E+000  0.1849964E+03  0.7546771E-02  0.1163053E+00
         21   -1    0    0  501  502  0.00000000000E+00  0.00000000000E+00  0.42603723428E+03  0.42603723428E+03  0.00000000000E+00 0. -1.
         21   -1    0    0  502  503 -0.00000000000E+00 -0.00000000000E+00 -0.10037655619E+03  0.10037655619E+03  0.00000000000E+00 0. -1.
          6    1    1    2  501    0  0.63676318955E+02 -0.24186724958E+02  0.28045501933E+03  0.33597423878E+03  0.17200000000E+03 0. -1.
         -6    1    1    2    0  503 -0.63676318955E+02  0.24186724958E+02  0.45205658765E+02  0.19043955168E+03  0.17200000000E+03 0. -1.
<mgrwt>
<rscale>  2 0.18499641E+03</rscale>
<asrwt>0</asrwt>
<pdfrwt beam="1">  1       21 0.10650930E+00 0.18499641E+03</pdfrwt>
<pdfrwt beam="2">  1       21 0.25094140E-01 0.18499641E+03</pdfrwt>
<totfact> 0.10673940E+04</totfact>
</mgrwt>
</event>
<event>
 4    1  0.1101825E+000  0.1814351E+03  0.7546771E-02  0.1166421E+00
         21   -1    0    0  503  502  0.00000000000E+00  0.00000000000E+00  0.64349147671E+02  0.64349147671E+02  0.00000000000E+00 0.  1.
         21   -1    0    0  501  503 -0.00000000000E+00 -0.00000000000E+00 -0.53126415509E+03  0.53126415509E+03  0.00000000000E+00 0. -1.
          6    1    1    2  501    0  0.17043966309E+02  0.55174224410E+02 -0.29080528531E+03  0.34276290025E+03  0.17200000000E+03 0.  1.
         -6    1    1    2    0  502 -0.17043966309E+02 -0.55174224410E+02 -0.17610972212E+03  0.25285040251E+03  0.17200000000E+03 0.  1.
<mgrwt>
<rscale>  2 0.18143509E+03</rscale>
<asrwt>0</asrwt>
<pdfrwt beam="1">  1       21 0.16087287E-01 0.18143509E+03</pdfrwt>
<pdfrwt beam="2">  1       21 0.13281604E+00 0.18143509E+03</pdfrwt>
<totfact> 0.14245978E+04</totfact>
</mgrwt>
</event>
<event>
 4    1  0.1101825E+000  0.2762675E+03  0.7546771E-02  0.1097745E+00
         21   -1    0    0  503  502  0.00000000000E+00  0.00000000000E+00  0.14385634027E+03  0.14385634027E+03  0.00000000000E+00 0. -1.
         21   -1    0    0  501  503 -0.00000000000E+00 -0.00000000000E+00 -0.53563912509E+03  0.53563912509E+03  0.00000000000E+00 0. -1.
          6    1    1    2  501    0  0.11237647547E+03  0.18469239873E+03 -0.16279256807E+03  0.32066364715E+03  0.17200000000E+03 0. -1.
         -6    1    1    2    0  502 -0.11237647547E+03 -0.18469239873E+03 -0.22899021676E+03  0.35883181821E+03  0.17200000000E+03 0. -1.
<mgrwt>
<rscale>  2 0.27626754E+03</rscale>
<asrwt>0</asrwt>
<pdfrwt beam="1">  1       21 0.35964085E-01 0.27626754E+03</pdfrwt>
<pdfrwt beam="2">  1       21 0.13390978E+00 0.27626754E+03</pdfrwt>
<totfact> 0.28059575E+03</totfact>
</mgrwt>
</event>
<event>
 4    1  0.1101825E+000  0.1977995E+03  0.7546771E-02  0.1151609E+00
         21   -1    0    0  503  502  0.00000000000E+00  0.00000000000E+00  0.28378023349E+03  0.28378023349E+03  0.00000000000E+00 0.  1.
         21   -1    0    0  501  503 -0.00000000000E+00 -0.00000000000E+00 -0.29139585865E+03  0.29139585865E+03  0.00000000000E+00 0.  1.
          6    1    1    2  501    0 -0.94777308720E+02 -0.23620096866E+02 -0.21255497263E+03  0.29035196506E+03  0.17200000000E+03 0.  1.
         -6    1    1    2    0  502  0.94777308720E+02  0.23620096866E+02  0.20493934747E+03  0.28482412708E+03  0.17200000000E+03 0.  1.
<mgrwt>
<rscale>  2 0.19779951E+03</rscale>
<asrwt>0</asrwt>
<pdfrwt beam="1">  1       21 0.70945058E-01 0.19779951E+03</pdfrwt>
<pdfrwt beam="2">  1       21 0.72848965E-01 0.19779951E+03</pdfrwt>
<totfact> 0.30382500E+03</totfact>
</mgrwt>
</event>
<event>
 4    1  0.1101825E+000  0.1820249E+03  0.7546771E-02  0.1165858E+00
         21   -1    0    0  503  502  0.00000000000E+00  0.00000000000E+00  0.35359382354E+03  0.35359382354E+03  0.00000000000E+00 0.  1.
         21   -1    0    0  501  503 -0.00000000000E+00 -0.00000000000E+00 -0.98263166648E+02  0.98263166648E+02  0.00000000000E+00 0. -1.
          6    1    1    2  501    0  0.58310367009E+02  0.12205378779E+02  0.17633180197E+03  0.25342844071E+03  0.17200000000E+03 0.  1.
         -6    1    1    2    0  502 -0.58310367009E+02 -0.12205378779E+02  0.78998854923E+02  0.19842854949E+03  0.17200000000E+03 0. -1.
<mgrwt>
<rscale>  2 0.18202492E+03</rscale>
<asrwt>0</asrwt>
<pdfrwt beam="1">  1       21 0.88398453E-01 0.18202492E+03</pdfrwt>
<pdfrwt beam="2">  1       21 0.24565792E-01 0.18202492E+03</pdfrwt>
<totfact> 0.17265406E+04</totfact>
</mgrwt>
</event>
<event>
 4    1  0.1101825E+000  0.2993022E+03  0.7546771E-02  0.1085590E+00
         21   -1    0    0  501  502  0.00000000000E+00  0.00000000000E+00  0.15905440678E+03  0.15905440678E+03  0.00000000000E+00 0. -1.
         21   -1    0    0  502  503 -0.00000000000E+00 -0.00000000000E+00 -0.75127497429E+03  0.75127497429E+03  0.00000000000E+00 0. -1.
          6    1    1    2  501    0 -0.20691037323E+03  0.13109511152E+03 -0.68381846034E+02  0.30701450728E+03  0.17200000000E+03 0. -1.
         -6    1    1    2    0  503  0.20691037323E+03 -0.13109511152E+03 -0.52383872147E+03  0.60331487378E+03  0.17200000000E+03 0. -1.
<mgrwt>
<rscale>  2 0.29930224E+03</rscale>
<asrwt>0</asrwt>
<pdfrwt beam="1">  1       21 0.39763602E-01 0.29930224E+03</pdfrwt>
<pdfrwt beam="2">  1       21 0.18781874E+00 0.29930224E+03</pdfrwt>
<totfact> 0.89334215E+02</totfact>
</mgrwt>
</event>
<event>
 4    1  0.1101825E+000  0.2790744E+03  0.7546771E-02  0.1096196E+00
         21   -1    0    0  503  502  0.00000000000E+00  0.00000000000E+00  0.10462763782E+04  0.10462763782E+04  0.00000000000E+00 0.  1.
         21   -1    0    0  501  503 -0.00000000000E+00 -0.00000000000E+00 -0.81455558224E+02  0.81455558224E+02  0.00000000000E+00 0. -1.
          6    1    1    2  501    0 -0.19327852499E+03  0.10460382308E+03  0.31690444501E+03  0.42226884244E+03  0.17200000000E+03 0. -1.
         -6    1    1    2    0  502  0.19327852499E+03 -0.10460382308E+03  0.64791637496E+03  0.70546309398E+03  0.17200000000E+03 0.  1.
<mgrwt>
<rscale>  2 0.27907445E+03</rscale>
<asrwt>0</asrwt>
<pdfrwt beam="1">  1       21 0.26156905E+00 0.27907445E+03</pdfrwt>
<pdfrwt beam="2">  1       21 0.20363893E-01 0.27907445E+03</pdfrwt>
<totfact> 0.11615182E+03</totfact>
</mgrwt>
</event>
<event>
 4    1  0.1101825E+000  0.1938685E+03  0.7546771E-02  0.1155018E+00
         21   -1    0    0  503  502  0.00000000000E+00  0.00000000000E+00  0.82059883296E+02  0.82059883296E+02  0.00000000000E+00 0.  1.
         21   -1    0    0  501  503 -0.00000000000E+00 -0.00000000000E+00 -0.67486938753E+03  0.67486938753E+03  0.00000000000E+00 0.  1.
          6    1    1    2  501    0 -0.63994637681E+02 -0.62495303285E+02 -0.51093851600E+03  0.54648251913E+03  0.17200000000E+03 0.  1.
         -6    1    1    2    0  502  0.63994637681E+02  0.62495303285E+02 -0.81870988237E+02  0.21044675170E+03  0.17200000000E+03 0.  1.
<mgrwt>
<rscale>  2 0.19386845E+03</rscale>
<asrwt>0</asrwt>
<pdfrwt beam="1">  1       21 0.20514971E-01 0.19386845E+03</pdfrwt>
<pdfrwt beam="2">  1       21 0.16871735E+00 0.19386845E+03</pdfrwt>
<totfact> 0.47906216E+03</totfact>
</mgrwt>
</event>
<event>
 4    1  0.1101825E+000  0.2055654E+03  0.7546771E-02  0.1145127E+00
         21   -1    0    0  501  502  0.00000000000E+00  0.00000000000E+00  0.23224302107E+03  0.23224302107E+03  0.00000000000E+00 0. -1.
         21   -1    0    0  502  503 -0.00000000000E+00 -0.00000000000E+00 -0.42947497673E+03  0.42947497673E+03  0.00000000000E+00 0. -1.
          6    1    1    2  501    0  0.98012524476E+02 -0.55377647386E+02  0.15256200287E+03  0.25599278018E+03  0.17200000000E+03 0. -1.
         -6    1    1    2    0  503 -0.98012524476E+02  0.55377647386E+02 -0.34979395853E+03  0.40572521762E+03  0.17200000000E+03 0. -1.
<mgrwt>
<rscale>  2 0.20556541E+03</rscale>
<asrwt>0</asrwt>
<pdfrwt beam="1">  1       21 0.58060756E-01 0.20556541E+03</pdfrwt>
<pdfrwt beam="2">  1       21 0.10736874E+00 0.20556541E+03</pdfrwt>
<totfact> 0.19024880E+03</totfact>
</mgrwt>
</event>
<event>
 4    1  0.1101825E+000  0.1956957E+03  0.7546771E-02  0.1153422E+00
         21   -1    0    0  501  502  0.00000000000E+00  0.00000000000E+00  0.51338625293E+03  0.51338625293E+03  0.00000000000E+00 0.  1.
         21   -1    0    0  502  503 -0.00000000000E+00 -0.00000000000E+00 -0.10052225189E+03  0.10052225189E+03  0.00000000000E+00 0. -1.
          6    1    1    2  501    0 -0.69668833684E+02 -0.62121196528E+02  0.36231856632E+03  0.41179064213E+03  0.17200000000E+03 0.  1.
         -6    1    1    2    0  503  0.69668833684E+02  0.62121196528E+02  0.50545434721E+02  0.20211786268E+03  0.17200000000E+03 0.  1.
<mgrwt>
<rscale>  2 0.19569566E+03</rscale>
<asrwt>0</asrwt>
<pdfrwt beam="1">  1       21 0.12834656E+00 0.19569566E+03</pdfrwt>
<pdfrwt beam="2">  1       21 0.25130564E-01 0.19569566E+03</pdfrwt>
<totfact> 0.66791526E+03</totfact>
</mgrwt>
</event>
<event>
 4    1  0.1101825E+000  0.1872022E+03  0.7546771E-02  0.1161009E+00
         21   -1    0    0  501  502  0.00000000000E+00  0.00000000000E+00  0.15942180723E+03  0.15942180723E+03  0.00000000000E+00 0.  1.
         21   -1    0    0  502  503 -0.00000000000E+00 -0.00000000000E+00 -0.53327862967E+03  0.53327862967E+03  0.00000000000E+00 0.  1.
          6    1    1    2  501    0  0.63701606160E+02  0.37453310947E+02  0.78609252262E+02  0.20303708939E+03  0.17200000000E+03 0.  1.
         -6    1    1    2    0  503 -0.63701606160E+02 -0.37453310947E+02 -0.45246607470E+03  0.48966334750E+03  0.17200000000E+03 0.  1.
<mgrwt>
<rscale>  2 0.18720215E+03</rscale>
<asrwt>0</asrwt>
<pdfrwt beam="1">  1       21 0.39855452E-01 0.18720215E+03</pdfrwt>
<pdfrwt beam="2">  1       21 0.13331966E+00 0.18720215E+03</pdfrwt>
<totfact> 0.24730983E+03</totfact>
</mgrwt>
</event>
<event>
 4    1  0.1101825E+000  0.1803219E+03  0.7546771E-02  0.1167492E+00
         21   -1    0    0  501  502  0.00000000000E+00  0.00000000000E+00  0.72034227028E+03  0.72034227028E+03  0.00000000000E+00 0.  1.
         21   -1    0    0  502  503 -0.00000000000E+00 -0.00000000000E+00 -0.95724766183E+02  0.95724766183E+02  0.00000000000E+00 0.  1.
          6    1    1    2  501    0 -0.21647386656E+02  0.49632607222E+02  0.60892505435E+03  0.63506356128E+03  0.17200000000E+03 0.  1.
         -6    1    1    2    0  503  0.21647386656E+02 -0.49632607222E+02  0.15692449744E+02  0.18100347518E+03  0.17200000000E+03 0.  1.
<mgrwt>
<rscale>  2 0.18032195E+03</rscale>
<asrwt>0</asrwt>
<pdfrwt beam="1">  1       21 0.18008555E+00 0.18032195E+03</pdfrwt>
<pdfrwt beam="2">  1       21 0.23931194E-01 0.18032195E+03</pdfrwt>
<totfact> 0.30275254E+03</totfact>
</mgrwt>
</event>
<event>
 4    1  0.1101825E+000  0.1890369E+03  0.7546771E-02  0.1159333E+00
         21   -1    0    0  503  502  0.00000000000E+00  0.00000000000E+00  0.39972045761E+03  0.39972045761E+03  0.00000000000E+00 0.  1.
         21   -1    0    0  501  503 -0.00000000000E+00 -0.00000000000E+00 -0.15088666671E+03  0.15088666671E+03  0.00000000000E+00 0.  1.
          6    1    1    2  501    0 -0.49380515760E+02  0.60930493730E+02 -0.51325807668E+02  0.19588082840E+03  0.17200000000E+03 0.  1.
         -6    1    1    2    0  502  0.49380515760E+02 -0.60930493730E+02  0.30015959857E+03  0.35472629592E+03  0.17200000000E+03 0.  1.
<mgrwt>
<rscale>  2 0.18903693E+03</rscale>
<asrwt>0</asrwt>
<pdfrwt beam="1">  1       21 0.99930112E-01 0.18903693E+03</pdfrwt>
<pdfrwt beam="2">  1       21 0.37721667E-01 0.18903693E+03</pdfrwt>
<totfact> 0.55893982E+03</totfact>
</mgrwt>
</event>
<event>
 4    1  0.1101825E+000  0.1861897E+03  0.7546771E-02  0.1161944E+00
         21   -1    0    0  503  502  0.00000000000E+00  0.00000000000E+00  0.29566434124E+03  0.29566434124E+03  0.00000000000E+00 0. -1.
         21   -1    0    0  501  503 -0.00000000000E+00 -0.00000000000E+00 -0.24500673951E+03  0.24500673951E+03  0.00000000000E+00 0.  1.
          6    1    1    2  501    0 -0.33201385835E+02 -0.63089266328E+02  0.22054073486E+03  0.28862571486E+03  0.17200000000E+03 0. -1.
         -6    1    1    2    0  502  0.33201385835E+02  0.63089266328E+02 -0.16988313313E+03  0.25204536590E+03  0.17200000000E+03 0.  1.
<mgrwt>
<rscale>  2 0.18618965E+03</rscale>
<asrwt>0</asrwt>
<pdfrwt beam="1">  1       21 0.73916085E-01 0.18618965E+03</pdfrwt>
<pdfrwt beam="2">  1       21 0.61251685E-01 0.18618965E+03</pdfrwt>
<totfact> 0.40923395E+03</totfact>
</mgrwt>
</event>
<event>
 4    1  0.1101825E+000  0.1905377E+03  0.7546771E-02  0.1157977E+00
         21   -1    0    0  501  502  0.00000000000E+00  0.00000000000E+00  0.86102206902E+02  0.86102206902E+02  0.00000000000E+00 0. -1.
         21   -1    0    0  502  503 -0.00000000000E+00 -0.00000000000E+00 -0.42272041710E+03  0.42272041710E+03  0.00000000000E+00 0. -1.
          6    1    1    2  501    0  0.80504192903E+02 -0.15481537225E+02 -0.18113858484E+03  0.26289882082E+03  0.17200000000E+03 0. -1.
         -6    1    1    2    0  503 -0.80504192903E+02  0.15481537225E+02 -0.15547962535E+03  0.24592380318E+03  0.17200000000E+03 0. -1.
<mgrwt>
<rscale>  2 0.19053767E+03</rscale>
<asrwt>0</asrwt>
<pdfrwt beam="1">  1       21 0.21525552E-01 0.19053767E+03</pdfrwt>
<pdfrwt beam="2">  1       21 0.10568010E+00 0.19053767E+03</pdfrwt>
<totfact> 0.14488532E+04</totfact>
</mgrwt>
</event>
<event>
 4    1  0.1101825E+000  0.2344101E+03  0.7546771E-02  0.1123574E+00
         21   -1    0    0  501  502  0.00000000000E+00  0.00000000000E+00  0.63039634652E+03  0.63039634652E+03  0.00000000000E+00 0. -1.
         21   -1    0    0  502  503 -0.00000000000E+00 -0.00000000000E+00 -0.91676780073E+02  0.91676780073E+02  0.00000000000E+00 0. -1.
          6    1    1    2  501    0 -0.15924254316E+03 -0.24325271968E+01  0.34945848168E+03  0.42079607313E+03  0.17200000000E+03 0. -1.
         -6    1    1    2    0  503  0.15924254316E+03  0.24325271968E+01  0.18926108476E+03  0.30127705347E+03  0.17200000000E+03 0. -1.
<mgrwt>
<rscale>  2 0.23441012E+03</rscale>
<asrwt>0</asrwt>
<pdfrwt beam="1">  1       21 0.15759907E+00 0.23441012E+03</pdfrwt>
<pdfrwt beam="2">  1       21 0.22919197E-01 0.23441012E+03</pdfrwt>
<totfact> 0.45285464E+03</totfact>
</mgrwt>
</event>
<event>
 4    1  0.1101825E+000  0.2369138E+03  0.7546771E-02  0.1121866E+00
         21   -1    0    0  503  502  0.00000000000E+00  0.00000000000E+00  0.34151516271E+03  0.34151516271E+03  0.00000000000E+00 0. -1.
         21   -1    0    0  501  503 -0.00000000000E+00 -0.00000000000E+00 -0.40957266305E+03  0.40957266305E+03  0.00000000000E+00 0. -1.
          6    1    1    2  501    0  0.47059687435E+01 -0.16285575348E+03 -0.32461510867E+03  0.40187449702E+03  0.17200000000E+03 0. -1.
         -6    1    1    2    0  502 -0.47059687435E+01  0.16285575348E+03  0.25655760832E+03  0.34921332874E+03  0.17200000000E+03 0. -1.
<mgrwt>
<rscale>  2 0.23691379E+03</rscale>
<asrwt>0</asrwt>
<pdfrwt beam="1">  1       21 0.85378791E-01 0.23691379E+03</pdfrwt>
<pdfrwt beam="2">  1       21 0.10239317E+00 0.23691379E+03</pdfrwt>
<totfact> 0.88269540E+02</totfact>
</mgrwt>
</event>
<event>
 4    1  0.1101825E+000  0.1940828E+03  0.7546771E-02  0.1154830E+00
         21   -1    0    0  503  502  0.00000000000E+00  0.00000000000E+00  0.46256551155E+03  0.46256551155E+03  0.00000000000E+00 0.  1.
         21   -1    0    0  501  503 -0.00000000000E+00 -0.00000000000E+00 -0.81468453211E+02  0.81468453211E+02  0.00000000000E+00 0. -1.
          6    1    1    2  501    0 -0.86949606064E+02 -0.22889033785E+02  0.18488172454E+03  0.26804737255E+03  0.17200000000E+03 0. -1.
         -6    1    1    2    0  502  0.86949606064E+02  0.22889033785E+02  0.19621533380E+03  0.27598659221E+03  0.17200000000E+03 0. -1.
<mgrwt>
<rscale>  2 0.19408282E+03</rscale>
<asrwt>0</asrwt>
<pdfrwt beam="1">  1       21 0.11564137E+00 0.19408282E+03</pdfrwt>
<pdfrwt beam="2">  1       21 0.20367115E-01 0.19408282E+03</pdfrwt>
<totfact> 0.12891904E+04</totfact>
</mgrwt>
</event>
<event>
 4    1  0.1101825E+000  0.1731932E+03  0.7546771E-02  0.1174558E+00
         21   -1    0    0  501  502  0.00000000000E+00  0.00000000000E+00  0.13914075532E+03  0.13914075532E+03  0.00000000000E+00 0. -1.
         21   -1    0    0  502  503 -0.00000000000E+00 -0.00000000000E+00 -0.36252427324E+03  0.36252427324E+03  0.00000000000E+00 0. -1.
          6    1    1    2  501    0  0.20074714312E+02  0.29841532577E+01  0.48003604072E+02  0.17972269008E+03  0.17200000000E+03 0. -1.
         -6    1    1    2    0  503 -0.20074714312E+02 -0.29841532577E+01 -0.27138712199E+03  0.32194233848E+03  0.17200000000E+03 0. -1.
<mgrwt>
<rscale>  2 0.17319324E+03</rscale>
<asrwt>0</asrwt>
<pdfrwt beam="1">  1       21 0.34785189E-01 0.17319324E+03</pdfrwt>
<pdfrwt beam="2">  1       21 0.90631067E-01 0.17319324E+03</pdfrwt>
<totfact> 0.83543983E+03</totfact>
</mgrwt>
</event>
<event>
 4    1  0.1101825E+000  0.1745882E+03  0.7546771E-02  0.1173146E+00
         21   -1    0    0  501  502  0.00000000000E+00  0.00000000000E+00  0.49796147659E+03  0.49796147659E+03  0.00000000000E+00 0.  1.
         21   -1    0    0  502  503 -0.00000000000E+00 -0.00000000000E+00 -0.63231986920E+02  0.63231986920E+02  0.00000000000E+00 0.  1.
          6    1    1    2  501    0 -0.44096456385E+01 -0.29624148519E+02  0.26752132553E+03  0.31945061397E+03  0.17200000000E+03 0.  1.
         -6    1    1    2    0  503  0.44096456385E+01  0.29624148519E+02  0.16720816414E+03  0.24174284954E+03  0.17200000000E+03 0.  1.
<mgrwt>
<rscale>  2 0.17458819E+03</rscale>
<asrwt>0</asrwt>
<pdfrwt beam="1">  1       21 0.12449036E+00 0.17458819E+03</pdfrwt>
<pdfrwt beam="2">  1       21 0.15807998E-01 0.17458819E+03</pdfrwt>
<totfact> 0.17388173E+04</totfact>
</mgrwt>
</event>
<event>
 4    1  0.1101825E+000  0.1951102E+03  0.7546771E-02  0.1153931E+00
         21   -1    0    0  501  502  0.00000000000E+00  0.00000000000E+00  0.42447651766E+03  0.42447651766E+03  0.00000000000E+00 0. -1.
         21   -1    0    0  502  503 -0.00000000000E+00 -0.00000000000E+00 -0.10929331422E+03  0.10929331422E+03  0.00000000000E+00 0.  1.
          6    1    1    2  501    0 -0.18784891845E+02  0.90172731085E+02  0.27064359348E+03  0.33364044762E+03  0.17200000000E+03 0. -1.
         -6    1    1    2    0  503  0.18784891845E+02 -0.90172731085E+02  0.44539609958E+02  0.20012938427E+03  0.17200000000E+03 0. -1.
<mgrwt>
<rscale>  2 0.19511021E+03</rscale>
<asrwt>0</asrwt>
<pdfrwt beam="1">  1       21 0.10611913E+00 0.19511021E+03</pdfrwt>
<pdfrwt beam="2">  1       21 0.27323330E-01 0.19511021E+03</pdfrwt>
<totfact> 0.90814269E+03</totfact>
</mgrwt>
</event>
<event>
 4    1  0.1101825E+000  0.1978556E+03  0.7546771E-02  0.1151561E+00
         21   -1    0    0  503  502  0.00000000000E+00  0.00000000000E+00  0.40591061172E+02  0.40591061172E+02  0.00000000000E+00 0.  1.
         21   -1    0    0  501  503 -0.00000000000E+00 -0.00000000000E+00 -0.10242505340E+04  0.10242505340E+04  0.00000000000E+00 0. -1.
          6    1    1    2  501    0  0.78323853306E+02  0.58551053941E+02 -0.62050986939E+03  0.65129052652E+03  0.17200000000E+03 0. -1.
         -6    1    1    2    0  502 -0.78323853306E+02 -0.58551053941E+02 -0.36314960345E+03  0.41355106867E+03  0.17200000000E+03 0.  1.
<mgrwt>
<rscale>  2 0.19785563E+03</rscale>
<asrwt>0</asrwt>
<pdfrwt beam="1">  1       21 0.10147766E-01 0.19785563E+03</pdfrwt>
<pdfrwt beam="2">  1       21 0.25606262E+00 0.19785563E+03</pdfrwt>
<totfact> 0.48178643E+03</totfact>
</mgrwt>
</event>
<event>
 4    1  0.1101825E+000  0.1805760E+03  0.7546771E-02  0.1167247E+00
         21   -1    0    0  501  502  0.00000000000E+00  0.00000000000E+00  0.30869871932E+03  0.30869871932E+03  0.00000000000E+00 0. -1.
         21   -1    0    0  502  503 -0.00000000000E+00 -0.00000000000E+00 -0.11921977809E+03  0.11921977809E+03  0.00000000000E+00 0. -1.
          6    1    1    2  501    0  0.70807718283E+01 -0.54530157550E+02  0.16697850091E+03  0.24594612251E+03  0.17200000000E+03 0. -1.
         -6    1    1    2    0  503 -0.70807718283E+01  0.54530157550E+02  0.22500440313E+02  0.18197237490E+03  0.17200000000E+03 0. -1.
<mgrwt>
<rscale>  2 0.18057595E+03</rscale>
<asrwt>0</asrwt>
<pdfrwt beam="1">  1       21 0.77174678E-01 0.18057595E+03</pdfrwt>
<pdfrwt beam="2">  1       21 0.29804945E-01 0.18057595E+03</pdfrwt>
<totfact> 0.16218874E+04</totfact>
</mgrwt>
</event>
<event>
 4    1  0.1101825E+000  0.2142288E+03  0.7546771E-02  0.1138260E+00
         21   -1    0    0  503  502  0.00000000000E+00  0.00000000000E+00  0.13521533731E+03  0.13521533731E+03  0.00000000000E+00 0.  1.
         21   -1    0    0  501  503 -0.00000000000E+00 -0.00000000000E+00 -0.67089519959E+03  0.67089519959E+03  0.00000000000E+00 0.  1.
          6    1    1    2  501    0  0.31543217232E+02 -0.12375387091E+03 -0.55115301441E+03  0.59132363424E+03  0.17200000000E+03 0.  1.
         -6    1    1    2    0  502 -0.31543217232E+02  0.12375387091E+03  0.15473152132E+02  0.21478690266E+03  0.17200000000E+03 0.  1.
<mgrwt>
<rscale>  2 0.21422884E+03</rscale>
<asrwt>0</asrwt>
<pdfrwt beam="1">  1       21 0.33803835E-01 0.21422884E+03</pdfrwt>
<pdfrwt beam="2">  1       21 0.16772380E+00 0.21422884E+03</pdfrwt>
<totfact> 0.18283280E+03</totfact>
</mgrwt>
</event>
<event>
 4    1  0.1101825E+000  0.3003512E+03  0.7546771E-02  0.1085065E+00
         21   -1    0    0  503  502  0.00000000000E+00  0.00000000000E+00  0.30996812621E+03  0.30996812621E+03  0.00000000000E+00 0. -1.
         21   -1    0    0  501  503 -0.00000000000E+00 -0.00000000000E+00 -0.43639135996E+03  0.43639135996E+03  0.00000000000E+00 0.  1.
          6    1    1    2  501    0  0.24413987247E+03  0.31977973047E+02 -0.27858915540E+03  0.40966179417E+03  0.17200000000E+03 0.  1.
         -6    1    1    2    0  502 -0.24413987247E+03 -0.31977973047E+02  0.15216592165E+03  0.33669769201E+03  0.17200000000E+03 0. -1.
<mgrwt>
<rscale>  2 0.30035124E+03</rscale>
<asrwt>0</asrwt>
<pdfrwt beam="1">  1       21 0.77492032E-01 0.30035124E+03</pdfrwt>
<pdfrwt beam="2">  1       21 0.10909784E+00 0.30035124E+03</pdfrwt>
<totfact> 0.90111433E+02</totfact>
</mgrwt>
</event>
<event>
 4    1  0.1101825E+000  0.2075207E+03  0.7546771E-02  0.1143544E+00
         21   -1    0    0  501  502  0.00000000000E+00  0.00000000000E+00  0.12423607892E+03  0.12423607892E+03  0.00000000000E+00 0. -1.
         21   -1    0    0  502  503 -0.00000000000E+00 -0.00000000000E+00 -0.35467774260E+03  0.35467774260E+03  0.00000000000E+00 0. -1.
          6    1    1    2  501    0 -0.10843360431E+03 -0.41509134177E+02 -0.79167010909E+02  0.22210869046E+03  0.17200000000E+03 0. -1.
         -6    1    1    2    0  503  0.10843360431E+03  0.41509134177E+02 -0.15127465278E+03  0.25680513105E+03  0.17200000000E+03 0. -1.
<mgrwt>
<rscale>  2 0.20752073E+03</rscale>
<asrwt>0</asrwt>
<pdfrwt beam="1">  1       21 0.31059020E-01 0.20752073E+03</pdfrwt>
<pdfrwt beam="2">  1       21 0.88669435E-01 0.20752073E+03</pdfrwt>
<totfact> 0.10718611E+04</totfact>
</mgrwt>
</event>
<event>
 4    1  0.1101825E+000  0.1962600E+03  0.7546771E-02  0.1152933E+00
         21   -1    0    0  501  502  0.00000000000E+00  0.00000000000E+00  0.26868159237E+03  0.26868159237E+03  0.00000000000E+00 0.  1.
         21   -1    0    0  502  503 -0.00000000000E+00 -0.00000000000E+00 -0.99917325572E+03  0.99917325572E+03  0.00000000000E+00 0.  1.
          6    1    1    2  501    0  0.37452790414E+02 -0.86782845266E+02  0.22144439162E+03  0.29589794241E+03  0.17200000000E+03 0.  1.
         -6    1    1    2    0  503 -0.37452790414E+02  0.86782845266E+02 -0.95193605497E+03  0.97195690568E+03  0.17200000000E+03 0.  1.
<mgrwt>
<rscale>  2 0.19625996E+03</rscale>
<asrwt>0</asrwt>
<pdfrwt beam="1">  1       21 0.67170399E-01 0.19625996E+03</pdfrwt>
<pdfrwt beam="2">  1       21 0.24979331E+00 0.19625996E+03</pdfrwt>
<totfact> 0.13455353E+02</totfact>
</mgrwt>
</event>
<event>
 4    1  0.1101825E+000  0.2016617E+03  0.7546771E-02  0.1148345E+00
         21   -1    0    0  501  502  0.00000000000E+00  0.00000000000E+00  0.41448001207E+02  0.41448001207E+02  0.00000000000E+00 0.  1.
         21   -1    0    0  502  503 -0.00000000000E+00 -0.00000000000E+00 -0.98134849761E+03  0.98134849761E+03  0.00000000000E+00 0.  1.
          6    1    1    2  501    0  0.22039668078E+02 -0.10294511828E+03 -0.46301090545E+03  0.50502132916E+03  0.17200000000E+03 0.  1.
         -6    1    1    2    0  503 -0.22039668078E+02  0.10294511828E+03 -0.47688959095E+03  0.51777516965E+03  0.17200000000E+03 0.  1.
<mgrwt>
<rscale>  2 0.20166171E+03</rscale>
<asrwt>0</asrwt>
<pdfrwt beam="1">  1       21 0.10362000E-01 0.20166171E+03</pdfrwt>
<pdfrwt beam="2">  1       21 0.24533713E+00 0.20166171E+03</pdfrwt>
<totfact> 0.53490796E+03</totfact>
</mgrwt>
</event>
<event>
 4    1  0.1101825E+000  0.1995257E+03  0.7546771E-02  0.1150140E+00
         21   -1    0    0  503  502  0.00000000000E+00  0.00000000000E+00  0.24553264795E+03  0.24553264795E+03  0.00000000000E+00 0. -1.
         21   -1    0    0  501  503 -0.00000000000E+00 -0.00000000000E+00 -0.43060845766E+03  0.43060845766E+03  0.00000000000E+00 0. -1.
          6    1    1    2  501    0 -0.73651641881E+02 -0.69295906202E+02 -0.35947767459E+03  0.41113828026E+03  0.17200000000E+03 0. -1.
         -6    1    1    2    0  502  0.73651641881E+02  0.69295906202E+02  0.17440186489E+03  0.26500282535E+03  0.17200000000E+03 0. -1.
<mgrwt>
<rscale>  2 0.19952565E+03</rscale>
<asrwt>0</asrwt>
<pdfrwt beam="1">  1       21 0.61383162E-01 0.19952565E+03</pdfrwt>
<pdfrwt beam="2">  1       21 0.10765211E+00 0.19952565E+03</pdfrwt>
<totfact> 0.16866807E+03</totfact>
</mgrwt>
</event>
<event>
 4    1  0.1101825E+000  0.1822848E+03  0.7546771E-02  0.1165610E+00
         21   -1    0    0  503  502  0.00000000000E+00  0.00000000000E+00  0.38956825970E+03  0.38956825970E+03  0.00000000000E+00 0. -1.
         21   -1    0    0  501  503 -0.00000000000E+00 -0.00000000000E+00 -0.15614811811E+03  0.15614811811E+03  0.00000000000E+00 0.  1.
          6    1    1    2  501    0 -0.59993206104E+02 -0.66762281657E+01 -0.67092583914E+02  0.19423998460E+03  0.17200000000E+03 0.  1.
         -6    1    1    2    0  502  0.59993206104E+02  0.66762281657E+01  0.30051272550E+03  0.35147639322E+03  0.17200000000E+03 0. -1.
<mgrwt>
<rscale>  2 0.18228482E+03</rscale>
<asrwt>0</asrwt>
<pdfrwt beam="1">  1       21 0.97392063E-01 0.18228482E+03</pdfrwt>
<pdfrwt beam="2">  1       21 0.39037030E-01 0.18228482E+03</pdfrwt>
<totfact> 0.55738269E+03</totfact>
</mgrwt>
</event>
<event>
 4    1  0.1101825E+000  0.1937508E+03  0.7546771E-02  0.1155121E+00
         21   -1    0    0  503  502  0.00000000000E+00  0.00000000000E+00  0.80303804724E+02  0.80303804724E+02  0.00000000000E+00 0. -1.
         21   -1    0    0  501  503 -0.00000000000E+00 -0.00000000000E+00 -0.59175357547E+03  0.59175357547E+03  0.00000000000E+00 0.  1.
          6    1    1    2  501    0 -0.56042611639E+02  0.69387240449E+02 -0.40972404676E+03  0.45322528388E+03  0.17200000000E+03 0.  1.
         -6    1    1    2    0  502  0.56042611639E+02 -0.69387240449E+02 -0.10172572399E+03  0.21883209631E+03  0.17200000000E+03 0. -1.
<mgrwt>
<rscale>  2 0.19375078E+03</rscale>
<asrwt>0</asrwt>
<pdfrwt beam="1">  1       21 0.20075951E-01 0.19375078E+03</pdfrwt>
<pdfrwt beam="2">  1       21 0.14793839E+00 0.19375078E+03</pdfrwt>
<totfact> 0.70986481E+03</totfact>
</mgrwt>
</event>
<event>
 4    1  0.1101825E+000  0.1787652E+03  0.7546771E-02  0.1169003E+00
         21   -1    0    0  503  502  0.00000000000E+00  0.00000000000E+00  0.39235526589E+02  0.39235526589E+02  0.00000000000E+00 0. -1.
         21   -1    0    0  501  503 -0.00000000000E+00 -0.00000000000E+00 -0.94855439749E+03  0.94855439749E+03  0.00000000000E+00 0. -1.
          6    1    1    2  501    0  0.34087015137E+02  0.34800583001E+02 -0.64033625231E+03  0.66482142053E+03  0.17200000000E+03 0. -1.
         -6    1    1    2    0  502 -0.34087015137E+02 -0.34800583001E+02 -0.26898261859E+03  0.32296850355E+03  0.17200000000E+03 0. -1.
<mgrwt>
<rscale>  2 0.17876522E+03</rscale>
<asrwt>0</asrwt>
<pdfrwt beam="1">  1       21 0.98088818E-02 0.17876522E+03</pdfrwt>
<pdfrwt beam="2">  1       21 0.23713860E+00 0.17876522E+03</pdfrwt>
<totfact> 0.67456161E+03</totfact>
</mgrwt>
</event>
<event>
 4    1  0.1101825E+000  0.1886974E+03  0.7546771E-02  0.1159641E+00
         21   -1    0    0  503  502  0.00000000000E+00  0.00000000000E+00  0.99031302373E+02  0.99031302373E+02  0.00000000000E+00 0.  1.
         21   -1    0    0  501  503 -0.00000000000E+00 -0.00000000000E+00 -0.81162060694E+03  0.81162060694E+03  0.00000000000E+00 0.  1.
          6    1    1    2  501    0 -0.64198392630E+02 -0.43603579454E+02 -0.69611470645E+03  0.72123670892E+03  0.17200000000E+03 0.  1.
         -6    1    1    2    0  502  0.64198392630E+02  0.43603579454E+02 -0.16474598120E+02  0.18941520040E+03  0.17200000000E+03 0.  1.
<mgrwt>
<rscale>  2 0.18869739E+03</rscale>
<asrwt>0</asrwt>
<pdfrwt beam="1">  1       21 0.24757826E-01 0.18869739E+03</pdfrwt>
<pdfrwt beam="2">  1       21 0.20290515E+00 0.18869739E+03</pdfrwt>
<totfact> 0.19934673E+03</totfact>
</mgrwt>
</event>
<event>
 4    1  0.1101825E+000  0.1975675E+03  0.7546771E-02  0.1151808E+00
         21   -1    0    0  501  502  0.00000000000E+00  0.00000000000E+00  0.11672667998E+03  0.11672667998E+03  0.00000000000E+00 0. -1.
         21   -1    0    0  502  503 -0.00000000000E+00 -0.00000000000E+00 -0.11508440934E+04  0.11508440934E+04  0.00000000000E+00 0. -1.
          6    1    1    2  501    0  0.93756626197E+02  0.25663758955E+02  0.16765505237E+02  0.19827762265E+03  0.17200000000E+03 0. -1.
         -6    1    1    2    0  503 -0.93756626197E+02 -0.25663758955E+02 -0.10508829187E+04  0.10692931508E+04  0.17200000000E+03 0. -1.
<mgrwt>
<rscale>  2 0.19756754E+03</rscale>
<asrwt>0</asrwt>
<pdfrwt beam="1">  1       21 0.29181670E-01 0.19756754E+03</pdfrwt>
<pdfrwt beam="2">  1       21 0.28771102E+00 0.19756754E+03</pdfrwt>
<totfact> 0.44865295E+02</totfact>
</mgrwt>
</event>
<event>
 4    1  0.1101825E+000  0.2386146E+03  0.7546771E-02  0.1120719E+00
         21   -1    0    0  501  502  0.00000000000E+00  0.00000000000E+00  0.10727238714E+04  0.10727238714E+04  0.00000000000E+00 0.  1.
         21   -1    0    0  502  503 -0.00000000000E+00 -0.00000000000E+00 -0.84444341943E+02  0.84444341943E+02  0.00000000000E+00 0.  1.
          6    1    1    2  501    0 -0.16530470794E+03  0.52225563544E+01  0.14150886859E+03  0.27741968469E+03  0.17200000000E+03 0.  1.
         -6    1    1    2    0  503  0.16530470794E+03 -0.52225563544E+01  0.84677066083E+03  0.87974852862E+03  0.17200000000E+03 0.  1.
<mgrwt>
<rscale>  2 0.23861459E+03</rscale>
<asrwt>0</asrwt>
<pdfrwt beam="1">  1       21 0.26818093E+00 0.23861459E+03</pdfrwt>
<pdfrwt beam="2">  1       21 0.21111089E-01 0.23861459E+03</pdfrwt>
<totfact> 0.10302635E+03</totfact>
</mgrwt>
</event>
<event>
 4    1  0.1101825E+000  0.2212572E+03  0.7546771E-02  0.1132949E+00
         21   -1    0    0  501  502  0.00000000000E+00  0.00000000000E+00  0.31986926939E+03  0.31986926939E+03  0.00000000000E+00 0. -1.
         21   -1    0    0  502  503 -0.00000000000E+00 -0.00000000000E+00 -0.33621063092E+03  0.33621063092E+03  0.00000000000E+00 0. -1.
          6    1    1    2  501    0 -0.13902398962E+03 -0.65643646414E+01  0.23395544040E+03  0.32200917481E+03  0.17200000000E+03 0. -1.
         -6    1    1    2    0  503  0.13902398962E+03  0.65643646414E+01 -0.25029680193E+03  0.33407072549E+03  0.17200000000E+03 0. -1.
<mgrwt>
<rscale>  2 0.22125723E+03</rscale>
<asrwt>0</asrwt>
<pdfrwt beam="1">  1       21 0.79967318E-01 0.22125723E+03</pdfrwt>
<pdfrwt beam="2">  1       21 0.84052658E-01 0.22125723E+03</pdfrwt>
<totfact> 0.16496981E+03</totfact>
</mgrwt>
</event>
<event>
 4    1  0.1101825E+000  0.1813042E+03  0.7546771E-02  0.1166547E+00
         21   -1    0    0  503  502  0.00000000000E+00  0.00000000000E+00  0.79649703757E+03  0.79649703757E+03  0.00000000000E+00 0.  1.
         21   -1    0    0  501  503 -0.00000000000E+00 -0.00000000000E+00 -0.73481503337E+02  0.73481503337E+02  0.00000000000E+00 0.  1.
          6    1    1    2  501    0  0.41148122104E+02  0.39925427906E+02  0.73504821507E+02  0.19563784534E+03  0.17200000000E+03 0.  1.
         -6    1    1    2    0  502 -0.41148122104E+02 -0.39925427906E+02  0.64951071272E+03  0.67434069556E+03  0.17200000000E+03 0.  1.
<mgrwt>
<rscale>  2 0.18130419E+03</rscale>
<asrwt>0</asrwt>
<pdfrwt beam="1">  1       21 0.19912423E+00 0.18130419E+03</pdfrwt>
<pdfrwt beam="2">  1       21 0.18370378E-01 0.18130419E+03</pdfrwt>
<totfact> 0.37189056E+03</totfact>
</mgrwt>
</event>
<event>
 4    1  0.1101825E+000  0.1810999E+03  0.7546771E-02  0.1166743E+00
         21   -1    0    0  503  502  0.00000000000E+00  0.00000000000E+00  0.19282435074E+03  0.19282435074E+03  0.00000000000E+00 0.  1.
         21   -1    0    0  501  503 -0.00000000000E+00 -0.00000000000E+00 -0.17013271464E+03  0.17013271464E+03  0.00000000000E+00 0. -1.
          6    1    1    2  501    0  0.56672153850E+02  0.12055127032E+01  0.84170841435E+01  0.18129543179E+03  0.17200000000E+03 0.  1.
         -6    1    1    2    0  502 -0.56672153850E+02 -0.12055127032E+01  0.14274551952E+02  0.18166163358E+03  0.17200000000E+03 0. -1.
<mgrwt>
<rscale>  2 0.18109993E+03</rscale>
<asrwt>0</asrwt>
<pdfrwt beam="1">  1       21 0.48206088E-01 0.18109993E+03</pdfrwt>
<pdfrwt beam="2">  1       21 0.42533179E-01 0.18109993E+03</pdfrwt>
<totfact> 0.22010452E+04</totfact>
</mgrwt>
</event>
<event>
 4    1  0.1101825E+000  0.1848664E+03  0.7546771E-02  0.1163175E+00
         21   -1    0    0  501  502  0.00000000000E+00  0.00000000000E+00  0.11536106048E+03  0.11536106048E+03  0.00000000000E+00 0.  1.
         21   -1    0    0  502  503 -0.00000000000E+00 -0.00000000000E+00 -0.32399592442E+03  0.32399592442E+03  0.00000000000E+00 0.  1.
          6    1    1    2  501    0 -0.26592924652E+02  0.62325096252E+02 -0.40030155855E+02  0.18915077225E+03  0.17200000000E+03 0.  1.
         -6    1    1    2    0  503  0.26592924652E+02 -0.62325096252E+02 -0.16860470809E+03  0.25020621266E+03  0.17200000000E+03 0.  1.
<mgrwt>
<rscale>  2 0.18486644E+03</rscale>
<asrwt>0</asrwt>
<pdfrwt beam="1">  1       21 0.28840265E-01 0.18486644E+03</pdfrwt>
<pdfrwt beam="2">  1       21 0.80998980E-01 0.18486644E+03</pdfrwt>
<totfact> 0.15462028E+04</totfact>
</mgrwt>
</event>
<event>
 4    1  0.1101825E+000  0.1940970E+03  0.7546771E-02  0.1154817E+00
         21   -1    0    0  503  502  0.00000000000E+00  0.00000000000E+00  0.12863379892E+04  0.12863379892E+04  0.00000000000E+00 0. -1.
         21   -1    0    0  501  503 -0.00000000000E+00 -0.00000000000E+00 -0.46903341575E+02  0.46903341575E+02  0.00000000000E+00 0.  1.
          6    1    1    2  501    0 -0.47535803482E+02  0.76354428399E+02  0.21118322158E+03  0.28683096839E+03  0.17200000000E+03 0.  1.
         -6    1    1    2    0  502  0.47535803482E+02 -0.76354428399E+02  0.10282514260E+04  0.10464103623E+04  0.17200000000E+03 0.  1.
<mgrwt>
<rscale>  2 0.19409702E+03</rscale>
<asrwt>0</asrwt>
<pdfrwt beam="1">  1       21 0.32158438E+00 0.19409702E+03</pdfrwt>
<pdfrwt beam="2">  1       21 0.11725840E-01 0.19409702E+03</pdfrwt>
<totfact> 0.15641159E+03</totfact>
</mgrwt>
</event>
<event>
 4    1  0.1101825E+000  0.3355995E+03  0.7546771E-02  0.1068686E+00
         21   -1    0    0  503  502  0.00000000000E+00  0.00000000000E+00  0.66643713947E+03  0.66643713947E+03  0.00000000000E+00 0. -1.
         21   -1    0    0  501  503 -0.00000000000E+00 -0.00000000000E+00 -0.17263389082E+03  0.17263389082E+03  0.00000000000E+00 0.  1.
          6    1    1    2  501    0  0.28651446803E+03 -0.30861923948E+02  0.30778102041E+03  0.45536376147E+03  0.17200000000E+03 0.  1.
         -6    1    1    2    0  502 -0.28651446803E+03  0.30861923948E+02  0.18602222824E+03  0.38370726881E+03  0.17200000000E+03 0. -1.
<mgrwt>
<rscale>  2 0.33559946E+03</rscale>
<asrwt>0</asrwt>
<pdfrwt beam="1">  1       21 0.16660928E+00 0.33559946E+03</pdfrwt>
<pdfrwt beam="2">  1       21 0.43158474E-01 0.33559946E+03</pdfrwt>
<totfact> 0.10383504E+03</totfact>
</mgrwt>
</event>
<event>
 4    1  0.1101825E+000  0.2335374E+03  0.7546771E-02  0.1124174E+00
         21   -1    0    0  501  502  0.00000000000E+00  0.00000000000E+00  0.25719578053E+03  0.25719578053E+03  0.00000000000E+00 0. -1.
         21   -1    0    0  502  503 -0.00000000000E+00 -0.00000000000E+00 -0.30332055683E+03  0.30332055683E+03  0.00000000000E+00 0. -1.
          6    1    1    2  501    0 -0.93145010716E+02  0.12759201235E+03  0.13066817744E+03  0.26760771146E+03  0.17200000000E+03 0. -1.
         -6    1    1    2    0  503  0.93145010716E+02 -0.12759201235E+03 -0.17679295373E+03  0.29290862590E+03  0.17200000000E+03 0. -1.
<mgrwt>
<rscale>  2 0.23353739E+03</rscale>
<asrwt>0</asrwt>
<pdfrwt beam="1">  1       21 0.64298945E-01 0.23353739E+03</pdfrwt>
<pdfrwt beam="2">  1       21 0.75830139E-01 0.23353739E+03</pdfrwt>
<totfact> 0.33530563E+03</totfact>
</mgrwt>
</event>
<event>
 4    1  0.1101825E+000  0.1723582E+03  0.7546771E-02  0.1175411E+00
         21   -1    0    0  501  502  0.00000000000E+00  0.00000000000E+00  0.11266854675E+03  0.11266854675E+03  0.00000000000E+00 0. -1.
         21   -1    0    0  502  503 -0.00000000000E+00 -0.00000000000E+00 -0.27529440093E+03  0.27529440093E+03  0.00000000000E+00 0. -1.
          6    1    1    2  501    0  0.76221101726E+01 -0.80785620060E+01 -0.41452719206E+02  0.17727291857E+03  0.17200000000E+03 0.  1.
         -6    1    1    2    0  503 -0.76221101726E+01  0.80785620060E+01 -0.12117313498E+03  0.21069002912E+03  0.17200000000E+03 0.  1.
<mgrwt>
<rscale>  2 0.17235823E+03</rscale>
<asrwt>0</asrwt>
<pdfrwt beam="1">  1       21 0.28167137E-01 0.17235823E+03</pdfrwt>
<pdfrwt beam="2">  1       21 0.68823600E-01 0.17235823E+03</pdfrwt>
<totfact> 0.23443729E+04</totfact>
</mgrwt>
</event>
<event>
 4    1  0.1101825E+000  0.1749362E+03  0.7546771E-02  0.1172796E+00
         21   -1    0    0  503  502  0.00000000000E+00  0.00000000000E+00  0.34225794099E+02  0.34225794099E+02  0.00000000000E+00 0. -1.
         21   -1    0    0  501  503 -0.00000000000E+00 -0.00000000000E+00 -0.89784818131E+03  0.89784818131E+03  0.00000000000E+00 0. -1.
          6    1    1    2  501    0 -0.15633925156E+02 -0.27825304047E+02 -0.46175952820E+03  0.49378591418E+03  0.17200000000E+03 0.  1.
         -6    1    1    2    0  502  0.15633925156E+02  0.27825304047E+02 -0.40186285902E+03  0.43828806123E+03  0.17200000000E+03 0.  1.
<mgrwt>
<rscale>  2 0.17493618E+03</rscale>
<asrwt>0</asrwt>
<pdfrwt beam="1">  1       21 0.85564482E-02 0.17493618E+03</pdfrwt>
<pdfrwt beam="2">  1       21 0.22446205E+00 0.17493618E+03</pdfrwt>
<totfact> 0.10248845E+04</totfact>
</mgrwt>
</event>
<event>
 4    1  0.1101825E+000  0.1925387E+03  0.7546771E-02  0.1156191E+00
         21   -1    0    0  503  502  0.00000000000E+00  0.00000000000E+00  0.39992041049E+03  0.39992041049E+03  0.00000000000E+00 0.  1.
         21   -1    0    0  501  503 -0.00000000000E+00 -0.00000000000E+00 -0.11404720631E+03  0.11404720631E+03  0.00000000000E+00 0. -1.
          6    1    1    2  501    0 -0.85092360837E+02  0.15698475681E+02  0.31745164091E+02  0.19513817529E+03  0.17200000000E+03 0.  1.
         -6    1    1    2    0  502  0.85092360837E+02 -0.15698475681E+02  0.25412804009E+03  0.31882944151E+03  0.17200000000E+03 0. -1.
<mgrwt>
<rscale>  2 0.19253870E+03</rscale>
<asrwt>0</asrwt>
<pdfrwt beam="1">  1       21 0.99980099E-01 0.19253870E+03</pdfrwt>
<pdfrwt beam="2">  1       21 0.28511803E-01 0.19253870E+03</pdfrwt>
<totfact> 0.96635792E+03</totfact>
</mgrwt>
</event>
<event>
 4    1  0.1101825E+000  0.2562081E+03  0.7546771E-02  0.1109443E+00
         21   -1    0    0  501  502  0.00000000000E+00  0.00000000000E+00  0.10879820064E+03  0.10879820064E+03  0.00000000000E+00 0. -1.
         21   -1    0    0  502  503 -0.00000000000E+00 -0.00000000000E+00 -0.84057102402E+03  0.84057102402E+03  0.00000000000E+00 0. -1.
          6    1    1    2  501    0 -0.15165299009E+03 -0.11428015087E+03 -0.11371179666E+03  0.28030867804E+03  0.17200000000E+03 0. -1.
         -6    1    1    2    0  503  0.15165299009E+03  0.11428015087E+03 -0.61806102672E+03  0.66906054661E+03  0.17200000000E+03 0. -1.
<mgrwt>
<rscale>  2 0.25620808E+03</rscale>
<asrwt>0</asrwt>
<pdfrwt beam="1">  1       21 0.27199550E-01 0.25620808E+03</pdfrwt>
<pdfrwt beam="2">  1       21 0.21014275E+00 0.25620808E+03</pdfrwt>
<totfact> 0.14032143E+03</totfact>
</mgrwt>
</event>
<event>
 4    1  0.1101825E+000  0.2200137E+03  0.7546771E-02  0.1133873E+00
         21   -1    0    0  501  502  0.00000000000E+00  0.00000000000E+00  0.34357584830E+03  0.34357584830E+03  0.00000000000E+00 0. -1.
         21   -1    0    0  502  503 -0.00000000000E+00 -0.00000000000E+00 -0.17197527568E+03  0.17197527568E+03  0.00000000000E+00 0.  1.
          6    1    1    2  501    0 -0.10541512775E+03 -0.87804876736E+02  0.19539593949E+03  0.29425434356E+03  0.17200000000E+03 0. -1.
         -6    1    1    2    0  503  0.10541512775E+03  0.87804876736E+02 -0.23795366868E+02  0.22129678042E+03  0.17200000000E+03 0.  1.
<mgrwt>
<rscale>  2 0.22001374E+03</rscale>
<asrwt>0</asrwt>
<pdfrwt beam="1">  1       21 0.85893961E-01 0.22001374E+03</pdfrwt>
<pdfrwt beam="2">  1       21 0.42993819E-01 0.22001374E+03</pdfrwt>
<totfact> 0.59649375E+03</totfact>
</mgrwt>
</event>
<event>
 4    1  0.1101825E+000  0.2141971E+03  0.7546771E-02  0.1138285E+00
         21   -1    0    0  501  502  0.00000000000E+00  0.00000000000E+00  0.22822071675E+03  0.22822071675E+03  0.00000000000E+00 0. -1.
         21   -1    0    0  502  503 -0.00000000000E+00 -0.00000000000E+00 -0.24333204458E+03  0.24333204458E+03  0.00000000000E+00 0.  1.
          6    1    1    2  501    0 -0.10900996229E+03  0.66432264674E+02 -0.10585581236E+03  0.23892649639E+03  0.17200000000E+03 0.  1.
         -6    1    1    2    0  503  0.10900996229E+03 -0.66432264674E+02  0.90744484523E+02  0.23262626494E+03  0.17200000000E+03 0. -1.
<mgrwt>
<rscale>  2 0.21419715E+03</rscale>
<asrwt>0</asrwt>
<pdfrwt beam="1">  1       21 0.57055179E-01 0.21419715E+03</pdfrwt>
<pdfrwt beam="2">  1       21 0.60833011E-01 0.21419715E+03</pdfrwt>
<totfact> 0.71476744E+03</totfact>
</mgrwt>
</event>
<event>
 4    1  0.1101825E+000  0.1800053E+03  0.7546771E-02  0.1167798E+00
         21   -1    0    0  503  502  0.00000000000E+00  0.00000000000E+00  0.80755119449E+02  0.80755119449E+02  0.00000000000E+00 0. -1.
         21   -1    0    0  501  503 -0.00000000000E+00 -0.00000000000E+00 -0.40526572872E+03  0.40526572872E+03  0.00000000000E+00 0. -1.
          6    1    1    2  501    0 -0.27118593180E+02 -0.45634142184E+02 -0.18648631745E+03  0.25918919658E+03  0.17200000000E+03 0. -1.
         -6    1    1    2    0  502  0.27118593180E+02  0.45634142184E+02 -0.13802429182E+03  0.22683165159E+03  0.17200000000E+03 0. -1.
<mgrwt>
<rscale>  2 0.18000526E+03</rscale>
<asrwt>0</asrwt>
<pdfrwt beam="1">  1       21 0.20188781E-01 0.18000526E+03</pdfrwt>
<pdfrwt beam="2">  1       21 0.10131643E+00 0.18000526E+03</pdfrwt>
<totfact> 0.18194804E+04</totfact>
</mgrwt>
</event>
<event>
 4    1  0.1101825E+000  0.1851278E+03  0.7546771E-02  0.1162931E+00
         21   -1    0    0  503  502  0.00000000000E+00  0.00000000000E+00  0.14050779880E+03  0.14050779880E+03  0.00000000000E+00 0. -1.
         21   -1    0    0  501  503 -0.00000000000E+00 -0.00000000000E+00 -0.45402687482E+03  0.45402687482E+03  0.00000000000E+00 0. -1.
          6    1    1    2  501    0  0.68452815828E+02 -0.15817072581E+01 -0.35898194878E+03  0.40390633734E+03  0.17200000000E+03 0. -1.
         -6    1    1    2    0  502 -0.68452815828E+02  0.15817072581E+01  0.45462872762E+02  0.19062833628E+03  0.17200000000E+03 0. -1.
<mgrwt>
<rscale>  2 0.18512777E+03</rscale>
<asrwt>0</asrwt>
<pdfrwt beam="1">  1       21 0.35126950E-01 0.18512777E+03</pdfrwt>
<pdfrwt beam="2">  1       21 0.11350672E+00 0.18512777E+03</pdfrwt>
<totfact> 0.47577414E+03</totfact>
</mgrwt>
</event>
<event>
 4    1  0.1101825E+000  0.2069896E+03  0.7546771E-02  0.1143972E+00
         21   -1    0    0  501  502  0.00000000000E+00  0.00000000000E+00  0.50365107083E+03  0.50365107083E+03  0.00000000000E+00 0.  1.
         21   -1    0    0  502  503 -0.00000000000E+00 -0.00000000000E+00 -0.97639854044E+02  0.97639854044E+02  0.00000000000E+00 0. -1.
          6    1    1    2  501    0  0.35390108023E+02 -0.10958217958E+03  0.31088450283E+03  0.37348880562E+03  0.17200000000E+03 0.  1.
         -6    1    1    2    0  503 -0.35390108023E+02  0.10958217958E+03  0.95126713964E+02  0.22780211926E+03  0.17200000000E+03 0. -1.
<mgrwt>
<rscale>  2 0.20698965E+03</rscale>
<asrwt>0</asrwt>
<pdfrwt beam="1">  1       21 0.12591276E+00 0.20698965E+03</pdfrwt>
<pdfrwt beam="2">  1       21 0.24409965E-01 0.20698965E+03</pdfrwt>
<totfact> 0.73451618E+03</totfact>
</mgrwt>
</event>
<event>
 4    1  0.1101825E+000  0.1744023E+03  0.7546771E-02  0.1173333E+00
         21   -1    0    0  501  502  0.00000000000E+00  0.00000000000E+00  0.26312767435E+02  0.26312767435E+02  0.00000000000E+00 0. -1.
         21   -1    0    0  502  503 -0.00000000000E+00 -0.00000000000E+00 -0.11755229349E+04  0.11755229349E+04  0.00000000000E+00 0. -1.
          6    1    1    2  501    0 -0.24218935416E+02  0.15671417394E+02 -0.49705774680E+03  0.52676612819E+03  0.17200000000E+03 0.  1.
         -6    1    1    2    0  503  0.24218935416E+02 -0.15671417394E+02 -0.65215242067E+03  0.67506957415E+03  0.17200000000E+03 0.  1.
<mgrwt>
<rscale>  2 0.17440227E+03</rscale>
<asrwt>0</asrwt>
<pdfrwt beam="1">  1       21 0.65781921E-02 0.17440227E+03</pdfrwt>
<pdfrwt beam="2">  1       21 0.29388072E+00 0.17440227E+03</pdfrwt>
<totfact> 0.63671562E+03</totfact>
</mgrwt>
</event>
<event>
 4    1  0.1101825E+000  0.1913178E+03  0.7546771E-02  0.1157278E+00
         21   -1    0    0  501  502  0.00000000000E+00  0.00000000000E+00  0.29845011689E+03  0.29845011689E+03  0.00000000000E+00 0.  1.
         21   -1    0    0  502  503 -0.00000000000E+00 -0.00000000000E+00 -0.12267558220E+03  0.12267558220E+03  0.00000000000E+00 0.  1.
          6    1    1    2  501    0  0.74366519256E+02  0.38575953006E+02  0.91377333410E+02  0.21201957551E+03  0.17200000000E+03 0.  1.
         -6    1    1    2    0  503 -0.74366519256E+02 -0.38575953006E+02  0.84397201274E+02  0.20910612358E+03  0.17200000000E+03 0.  1.
<mgrwt>
<rscale>  2 0.19131775E+03</rscale>
<asrwt>0</asrwt>
<pdfrwt beam="1">  1       21 0.74612528E-01 0.19131775E+03</pdfrwt>
<pdfrwt beam="2">  1       21 0.30668896E-01 0.19131775E+03</pdfrwt>
<totfact> 0.16431942E+04</totfact>
</mgrwt>
</event>
<event>
 4    1  0.1101825E+000  0.2095357E+03  0.7546771E-02  0.1141934E+00
         21   -1    0    0  503  502  0.00000000000E+00  0.00000000000E+00  0.26735912749E+03  0.26735912749E+03  0.00000000000E+00 0.  1.
         21   -1    0    0  501  503 -0.00000000000E+00 -0.00000000000E+00 -0.28655490558E+03  0.28655490558E+03  0.00000000000E+00 0. -1.
          6    1    1    2  501    0 -0.12065239399E+02  0.11906147340E+03 -0.19055974410E+03  0.28322821279E+03  0.17200000000E+03 0. -1.
         -6    1    1    2    0  502  0.12065239399E+02 -0.11906147340E+03  0.17136396601E+03  0.27068582027E+03  0.17200000000E+03 0.  1.
<mgrwt>
<rscale>  2 0.20953569E+03</rscale>
<asrwt>0</asrwt>
<pdfrwt beam="1">  1       21 0.66839782E-01 0.20953569E+03</pdfrwt>
<pdfrwt beam="2">  1       21 0.71638726E-01 0.20953569E+03</pdfrwt>
<totfact> 0.35612616E+03</totfact>
</mgrwt>
</event>
<event>
 4    1  0.1101825E+000  0.2764565E+03  0.7546771E-02  0.1097640E+00
         21   -1    0    0  501  502  0.00000000000E+00  0.00000000000E+00  0.22309419453E+03  0.22309419453E+03  0.00000000000E+00 0. -1.
         21   -1    0    0  502  503 -0.00000000000E+00 -0.00000000000E+00 -0.38005787895E+03  0.38005787895E+03  0.00000000000E+00 0.  1.
          6    1    1    2  501    0 -0.21553014882E+03  0.19772133468E+02  0.16216979547E+02  0.27693171133E+03  0.17200000000E+03 0. -1.
         -6    1    1    2    0  503  0.21553014882E+03 -0.19772133468E+02 -0.17318066396E+03  0.32622036216E+03  0.17200000000E+03 0. -1.
<mgrwt>
<rscale>  2 0.27645647E+03</rscale>
<asrwt>0</asrwt>
<pdfrwt beam="1">  1       21 0.55773549E-01 0.27645647E+03</pdfrwt>
<pdfrwt beam="2">  1       21 0.95014469E-01 0.27645647E+03</pdfrwt>
<totfact> 0.26356924E+03</totfact>
</mgrwt>
</event>
<event>
 4    1  0.1101825E+000  0.2629429E+03  0.7546771E-02  0.1105388E+00
         21   -1    0    0  501  502  0.00000000000E+00  0.00000000000E+00  0.41570222842E+03  0.41570222842E+03  0.00000000000E+00 0.  1.
         21   -1    0    0  502  503 -0.00000000000E+00 -0.00000000000E+00 -0.16705053027E+03  0.16705053027E+03  0.00000000000E+00 0. -1.
          6    1    1    2  501    0  0.52013490427E+02 -0.19196245737E+03  0.10503804904E+03  0.28314656977E+03  0.17200000000E+03 0. -1.
         -6    1    1    2    0  503 -0.52013490427E+02  0.19196245737E+03  0.14361364912E+03  0.29960618892E+03  0.17200000000E+03 0.  1.
<mgrwt>
<rscale>  2 0.26294294E+03</rscale>
<asrwt>0</asrwt>
<pdfrwt beam="1">  1       21 0.10392556E+00 0.26294294E+03</pdfrwt>
<pdfrwt beam="2">  1       21 0.41762633E-01 0.26294294E+03</pdfrwt>
<totfact> 0.39289029E+03</totfact>
</mgrwt>
</event>
<event>
 4    1  0.1101825E+000  0.1740919E+03  0.7546771E-02  0.1173647E+00
         21   -1    0    0  501  502  0.00000000000E+00  0.00000000000E+00  0.34838827164E+03  0.34838827164E+03  0.00000000000E+00 0.  1.
         21   -1    0    0  502  503 -0.00000000000E+00 -0.00000000000E+00 -0.92176504625E+02  0.92176504625E+02  0.00000000000E+00 0.  1.
          6    1    1    2  501    0 -0.24643239482E+02 -0.10802887777E+02  0.18033385320E+03  0.25065572056E+03  0.17200000000E+03 0.  1.
         -6    1    1    2    0  503  0.24643239482E+02  0.10802887777E+02  0.75877913814E+02  0.18990905571E+03  0.17200000000E+03 0.  1.
<mgrwt>
<rscale>  2 0.17409191E+03</rscale>
<asrwt>0</asrwt>
<pdfrwt beam="1">  1       21 0.87097065E-01 0.17409191E+03</pdfrwt>
<pdfrwt beam="2">  1       21 0.23044127E-01 0.17409191E+03</pdfrwt>
<totfact> 0.20268743E+04</totfact>
</mgrwt>
</event>
<event>
 4    1  0.1101825E+000  0.1721809E+03  0.7546771E-02  0.1175592E+00
         21   -1    0    0  501  502  0.00000000000E+00  0.00000000000E+00  0.55105738418E+03  0.55105738418E+03  0.00000000000E+00 0. -1.
         21   -1    0    0  502  503 -0.00000000000E+00 -0.00000000000E+00 -0.64538525216E+02  0.64538525216E+02  0.00000000000E+00 0. -1.
          6    1    1    2  501    0  0.39766021957E+01 -0.68147994101E+01  0.11769930510E+03  0.20856505287E+03  0.17200000000E+03 0. -1.
         -6    1    1    2    0  503 -0.39766021957E+01  0.68147994101E+01  0.36881955386E+03  0.40703085653E+03  0.17200000000E+03 0. -1.
<mgrwt>
<rscale>  2 0.17218088E+03</rscale>
<asrwt>0</asrwt>
<pdfrwt beam="1">  1       21 0.13776433E+00 0.17218088E+03</pdfrwt>
<pdfrwt beam="2">  1       21 0.16134633E-01 0.17218088E+03</pdfrwt>
<totfact> 0.13000309E+04</totfact>
</mgrwt>
</event>
<event>
 4    1  0.1101825E+000  0.1834031E+03  0.7546771E-02  0.1164550E+00
         21   -1    0    0  501  502  0.00000000000E+00  0.00000000000E+00  0.44194486602E+03  0.44194486602E+03  0.00000000000E+00 0. -1.
         21   -1    0    0  502  503 -0.00000000000E+00 -0.00000000000E+00 -0.91717723810E+02  0.91717723810E+02  0.00000000000E+00 0. -1.
          6    1    1    2  501    0 -0.19772368481E+02 -0.60512470271E+02  0.28518409714E+03  0.33906736038E+03  0.17200000000E+03 0. -1.
         -6    1    1    2    0  503  0.19772368481E+02  0.60512470271E+02  0.65043045075E+02  0.19459522945E+03  0.17200000000E+03 0. -1.
<mgrwt>
<rscale>  2 0.18340312E+03</rscale>
<asrwt>0</asrwt>
<pdfrwt beam="1">  1       21 0.11048621E+00 0.18340312E+03</pdfrwt>
<pdfrwt beam="2">  1       21 0.22929432E-01 0.18340312E+03</pdfrwt>
<totfact> 0.11609934E+04</totfact>
</mgrwt>
</event>
<event>
 4    1  0.1101825E+000  0.1747836E+03  0.7546771E-02  0.1172949E+00
         21   -1    0    0  503  502  0.00000000000E+00  0.00000000000E+00  0.93720877270E+03  0.93720877270E+03  0.00000000000E+00 0.  1.
         21   -1    0    0  501  503 -0.00000000000E+00 -0.00000000000E+00 -0.66817299689E+02  0.66817299689E+02  0.00000000000E+00 0.  1.
          6    1    1    2  501    0 -0.10568937135E+01 -0.31051444794E+02  0.75927822898E+02  0.19056322714E+03  0.17200000000E+03 0.  1.
         -6    1    1    2    0  502  0.10568937135E+01  0.31051444794E+02  0.79446365011E+03  0.81346284525E+03  0.17200000000E+03 0.  1.
<mgrwt>
<rscale>  2 0.17478361E+03</rscale>
<asrwt>0</asrwt>
<pdfrwt beam="1">  1       21 0.23430215E+00 0.17478361E+03</pdfrwt>
<pdfrwt beam="2">  1       21 0.16704328E-01 0.17478361E+03</pdfrwt>
<totfact> 0.27085039E+03</totfact>
</mgrwt>
</event>
<event>
 4    1  0.1101825E+000  0.1904214E+03  0.7546771E-02  0.1158082E+00
         21   -1    0    0  503  502  0.00000000000E+00  0.00000000000E+00  0.76167123773E+02  0.76167123773E+02  0.00000000000E+00 0. -1.
         21   -1    0    0  501  503 -0.00000000000E+00 -0.00000000000E+00 -0.48075788811E+03  0.48075788811E+03  0.00000000000E+00 0. -1.
          6    1    1    2  501    0  0.49522068620E+02  0.64991455800E+02 -0.22981429184E+03  0.29845423994E+03  0.17200000000E+03 0. -1.
         -6    1    1    2    0  502 -0.49522068620E+02 -0.64991455800E+02 -0.17477647250E+03  0.25847077194E+03  0.17200000000E+03 0. -1.
<mgrwt>
<rscale>  2 0.19042144E+03</rscale>
<asrwt>0</asrwt>
<pdfrwt beam="1">  1       21 0.19041781E-01 0.19042144E+03</pdfrwt>
<pdfrwt beam="2">  1       21 0.12018947E+00 0.19042144E+03</pdfrwt>
<totfact> 0.13326626E+04</totfact>
</mgrwt>
</event>
<event>
 4    1  0.1101825E+000  0.3261349E+03  0.7546771E-02  0.1072860E+00
         21   -1    0    0  503  502  0.00000000000E+00  0.00000000000E+00  0.28779700615E+03  0.28779700615E+03  0.00000000000E+00 0.  1.
         21   -1    0    0  501  503 -0.00000000000E+00 -0.00000000000E+00 -0.47542470489E+03  0.47542470489E+03  0.00000000000E+00 0. -1.
          6    1    1    2  501    0 -0.17868472256E+03  0.21178235838E+03 -0.27387273555E+03  0.42587588882E+03  0.17200000000E+03 0. -1.
         -6    1    1    2    0  502  0.17868472256E+03 -0.21178235838E+03  0.86245036812E+02  0.33734582223E+03  0.17200000000E+03 0.  1.
<mgrwt>
<rscale>  2 0.32613494E+03</rscale>
<asrwt>0</asrwt>
<pdfrwt beam="1">  1       21 0.71949252E-01 0.32613494E+03</pdfrwt>
<pdfrwt beam="2">  1       21 0.11885618E+00 0.32613494E+03</pdfrwt>
<totfact> 0.84832137E+02</totfact>
</mgrwt>
</event>
<event>
 4    1  0.1101825E+000  0.1952560E+03  0.7546771E-02  0.1153804E+00
         21   -1    0    0  501  502  0.00000000000E+00  0.00000000000E+00  0.40939362520E+03  0.40939362520E+03  0.00000000000E+00 0. -1.
         21   -1    0    0  502  503 -0.00000000000E+00 -0.00000000000E+00 -0.93688684338E+02  0.93688684338E+02  0.00000000000E+00 0.  1.
          6    1    1    2  501    0 -0.85485846514E+02 -0.35115092121E+02  0.17735864547E+03  0.26378208577E+03  0.17200000000E+03 0.  1.
         -6    1    1    2    0  503  0.85485846514E+02  0.35115092121E+02  0.13834629540E+03  0.23930022378E+03  0.17200000000E+03 0. -1.
<mgrwt>
<rscale>  2 0.19525598E+03</rscale>
<asrwt>0</asrwt>
<pdfrwt beam="1">  1       21 0.10234840E+00 0.19525598E+03</pdfrwt>
<pdfrwt beam="2">  1       21 0.23422172E-01 0.19525598E+03</pdfrwt>
<totfact> 0.13296567E+04</totfact>
</mgrwt>
</event>
<event>
 4    1  0.1101825E+000  0.1815210E+03  0.7546771E-02  0.1166339E+00
         21   -1    0    0  503  502  0.00000000000E+00  0.00000000000E+00  0.42637805137E+03  0.42637805137E+03  0.00000000000E+00 0. -1.
         21   -1    0    0  501  503 -0.00000000000E+00 -0.00000000000E+00 -0.81448330648E+02  0.81448330648E+02  0.00000000000E+00 0.  1.
          6    1    1    2  501    0  0.57582120376E+02  0.70831507834E+01  0.11501334330E+03  0.21489053202E+03  0.17200000000E+03 0. -1.
         -6    1    1    2    0  502 -0.57582120376E+02 -0.70831507834E+01  0.22991637742E+03  0.29293585000E+03  0.17200000000E+03 0. -1.
<mgrwt>
<rscale>  2 0.18152099E+03</rscale>
<asrwt>0</asrwt>
<pdfrwt beam="1">  1       21 0.10659451E+00 0.18152099E+03</pdfrwt>
<pdfrwt beam="2">  1       21 0.20362084E-01 0.18152099E+03</pdfrwt>
<totfact> 0.15843027E+04</totfact>
</mgrwt>
</event>
<event>
 4    1  0.1101825E+000  0.2636773E+03  0.7546771E-02  0.1104954E+00
         21   -1    0    0  501  502  0.00000000000E+00  0.00000000000E+00  0.43979701034E+03  0.43979701034E+03  0.00000000000E+00 0. -1.
         21   -1    0    0  502  503 -0.00000000000E+00 -0.00000000000E+00 -0.46209931745E+03  0.46209931745E+03  0.00000000000E+00 0.  1.
          6    1    1    2  501    0 -0.17764229100E+03  0.91569428648E+02  0.35461648128E+03  0.44190337474E+03  0.17200000000E+03 0. -1.
         -6    1    1    2    0  503  0.17764229100E+03 -0.91569428648E+02 -0.37691878839E+03  0.45999295305E+03  0.17200000000E+03 0.  1.
<mgrwt>
<rscale>  2 0.26367735E+03</rscale>
<asrwt>0</asrwt>
<pdfrwt beam="1">  1       21 0.10994925E+00 0.26367735E+03</pdfrwt>
<pdfrwt beam="2">  1       21 0.11552483E+00 0.26367735E+03</pdfrwt>
<totfact> 0.35292487E+02</totfact>
</mgrwt>
</event>
<event>
 4    1  0.1101825E+000  0.2493034E+03  0.7546771E-02  0.1113746E+00
         21   -1    0    0  501  502  0.00000000000E+00  0.00000000000E+00  0.25250193476E+03  0.25250193476E+03  0.00000000000E+00 0. -1.
         21   -1    0    0  502  503 -0.00000000000E+00 -0.00000000000E+00 -0.26161132813E+03  0.26161132813E+03  0.00000000000E+00 0. -1.
          6    1    1    2  501    0 -0.45230289550E+02  0.17470668298E+03  0.57946413312E+02  0.25594919610E+03  0.17200000000E+03 0. -1.
         -6    1    1    2    0  503  0.45230289550E+02 -0.17470668298E+03 -0.67055806685E+02  0.25816406679E+03  0.17200000000E+03 0. -1.
<mgrwt>
<rscale>  2 0.24930344E+03</rscale>
<asrwt>0</asrwt>
<pdfrwt beam="1">  1       21 0.63125484E-01 0.24930344E+03</pdfrwt>
<pdfrwt beam="2">  1       21 0.65402832E-01 0.24930344E+03</pdfrwt>
<totfact> 0.47978230E+03</totfact>
</mgrwt>
</event>
<event>
 4    1  0.1101825E+000  0.1755324E+03  0.7546771E-02  0.1172198E+00
         21   -1    0    0  503  502  0.00000000000E+00  0.00000000000E+00  0.33861064114E+03  0.33861064114E+03  0.00000000000E+00 0.  1.
         21   -1    0    0  501  503 -0.00000000000E+00 -0.00000000000E+00 -0.30226840634E+03  0.30226840634E+03  0.00000000000E+00 0.  1.
          6    1    1    2  501    0  0.12514506981E+02 -0.32726151349E+02 -0.24972900386E+03  0.30524775058E+03  0.17200000000E+03 0.  1.
         -6    1    1    2    0  502 -0.12514506981E+02  0.32726151349E+02  0.28607123866E+03  0.33563129690E+03  0.17200000000E+03 0.  1.
<mgrwt>
<rscale>  2 0.17553237E+03</rscale>
<asrwt>0</asrwt>
<pdfrwt beam="1">  1       21 0.84652660E-01 0.17553237E+03</pdfrwt>
<pdfrwt beam="2">  1       21 0.75567102E-01 0.17553237E+03</pdfrwt>
<totfact> 0.19218019E+03</totfact>
</mgrwt>
</event>
<event>
 4    1  0.1101825E+000  0.1817487E+03  0.7546771E-02  0.1166121E+00
         21   -1    0    0  503  502  0.00000000000E+00  0.00000000000E+00  0.43098336252E+02  0.43098336252E+02  0.00000000000E+00 0.  1.
         21   -1    0    0  501  503 -0.00000000000E+00 -0.00000000000E+00 -0.84924270163E+03  0.84924270163E+03  0.00000000000E+00 0.  1.
          6    1    1    2  501    0 -0.22334323081E+02  0.54311684632E+02 -0.54238447213E+03  0.57202578323E+03  0.17200000000E+03 0.  1.
         -6    1    1    2    0  502  0.22334323081E+02 -0.54311684632E+02 -0.26375989325E+03  0.32031525465E+03  0.17200000000E+03 0.  1.
<mgrwt>
<rscale>  2 0.18174868E+03</rscale>
<asrwt>0</asrwt>
<pdfrwt beam="1">  1       21 0.10774584E-01 0.18174868E+03</pdfrwt>
<pdfrwt beam="2">  1       21 0.21231069E+00 0.18174868E+03</pdfrwt>
<totfact> 0.80604051E+03</totfact>
</mgrwt>
</event>
<event>
 4    1  0.1101825E+000  0.1794067E+03  0.7546771E-02  0.1168378E+00
         21   -1    0    0  501  502  0.00000000000E+00  0.00000000000E+00  0.59744736589E+03  0.59744736589E+03  0.00000000000E+00 0. -1.
         21   -1    0    0  502  503 -0.00000000000E+00 -0.00000000000E+00 -0.13699768253E+03  0.13699768253E+03  0.00000000000E+00 0. -1.
          6    1    1    2  501    0  0.60754686260E+01  0.50654375627E+02  0.51627061573E+03  0.54655477836E+03  0.17200000000E+03 0. -1.
         -6    1    1    2    0  503 -0.60754686260E+01 -0.50654375627E+02 -0.55820932376E+02  0.18789027005E+03  0.17200000000E+03 0. -1.
<mgrwt>
<rscale>  2 0.17940674E+03</rscale>
<asrwt>0</asrwt>
<pdfrwt beam="1">  1       21 0.14936183E+00 0.17940674E+03</pdfrwt>
<pdfrwt beam="2">  1       21 0.34249422E-01 0.17940674E+03</pdfrwt>
<totfact> 0.25146939E+03</totfact>
</mgrwt>
</event>
<event>
 4    1  0.1101825E+000  0.1847219E+03  0.7546771E-02  0.1163310E+00
         21   -1    0    0  503  502  0.00000000000E+00  0.00000000000E+00  0.16885463393E+03  0.16885463393E+03  0.00000000000E+00 0.  1.
         21   -1    0    0  501  503 -0.00000000000E+00 -0.00000000000E+00 -0.26211103263E+03  0.26211103263E+03  0.00000000000E+00 0.  1.
          6    1    1    2  501    0  0.65913375433E+02  0.13913982043E+02 -0.14975162794E+03  0.23779764933E+03  0.17200000000E+03 0.  1.
         -6    1    1    2    0  502 -0.65913375433E+02 -0.13913982043E+02  0.56495229235E+02  0.19316801724E+03  0.17200000000E+03 0.  1.
<mgrwt>
<rscale>  2 0.18472188E+03</rscale>
<asrwt>0</asrwt>
<pdfrwt beam="1">  1       21 0.42213659E-01 0.18472188E+03</pdfrwt>
<pdfrwt beam="2">  1       21 0.65527758E-01 0.18472188E+03</pdfrwt>
<totfact> 0.11625657E+04</totfact>
</mgrwt>
</event>
<event>
 4    1  0.1101825E+000  0.1868701E+03  0.7546771E-02  0.1161315E+00
         21   -1    0    0  501  502  0.00000000000E+00  0.00000000000E+00  0.76844969657E+02  0.76844969657E+02  0.00000000000E+00 0.  1.
         21   -1    0    0  502  503 -0.00000000000E+00 -0.00000000000E+00 -0.47666594925E+03  0.47666594925E+03  0.00000000000E+00 0.  1.
          6    1    1    2  501    0  0.13056984660E+02 -0.71874529681E+02 -0.25968909483E+03  0.31993571048E+03  0.17200000000E+03 0.  1.
         -6    1    1    2    0  503 -0.13056984660E+02  0.71874529681E+02 -0.14013188476E+03  0.23357520843E+03  0.17200000000E+03 0.  1.
<mgrwt>
<rscale>  2 0.18687010E+03</rscale>
<asrwt>0</asrwt>
<pdfrwt beam="1">  1       21 0.19211242E-01 0.18687010E+03</pdfrwt>
<pdfrwt beam="2">  1       21 0.11916649E+00 0.18687010E+03</pdfrwt>
<totfact> 0.13421690E+04</totfact>
</mgrwt>
</event>
<event>
 4    1  0.1101825E+000  0.1868151E+03  0.7546771E-02  0.1161366E+00
         21   -1    0    0  503  502  0.00000000000E+00  0.00000000000E+00  0.17346080862E+03  0.17346080862E+03  0.00000000000E+00 0. -1.
         21   -1    0    0  501  503 -0.00000000000E+00 -0.00000000000E+00 -0.20646298734E+03  0.20646298734E+03  0.00000000000E+00 0. -1.
          6    1    1    2  501    0  0.72879201311E+02  0.21222819402E+01 -0.46837517159E+02  0.19259707962E+03  0.17200000000E+03 0. -1.
         -6    1    1    2    0  502 -0.72879201311E+02 -0.21222819402E+01  0.13835338446E+02  0.18732671634E+03  0.17200000000E+03 0. -1.
<mgrwt>
<rscale>  2 0.18681510E+03</rscale>
<asrwt>0</asrwt>
<pdfrwt beam="1">  1       21 0.43365202E-01 0.18681510E+03</pdfrwt>
<pdfrwt beam="2">  1       21 0.51615747E-01 0.18681510E+03</pdfrwt>
<totfact> 0.18289791E+04</totfact>
</mgrwt>
</event>
<event>
 4    1  0.1101825E+000  0.1856598E+03  0.7546771E-02  0.1162435E+00
         21   -1    0    0  501  502  0.00000000000E+00  0.00000000000E+00  0.10392768303E+03  0.10392768303E+03  0.00000000000E+00 0. -1.
         21   -1    0    0  502  503 -0.00000000000E+00 -0.00000000000E+00 -0.88505405318E+03  0.88505405318E+03  0.00000000000E+00 0. -1.
          6    1    1    2  501    0  0.63442248243E+02  0.29336536395E+02  0.44625222721E+00  0.18566030909E+03  0.17200000000E+03 0. -1.
         -6    1    1    2    0  503 -0.63442248243E+02 -0.29336536395E+02 -0.78157262238E+03  0.80332142712E+03  0.17200000000E+03 0. -1.
<mgrwt>
<rscale>  2 0.18565977E+03</rscale>
<asrwt>0</asrwt>
<pdfrwt beam="1">  1       21 0.25981921E-01 0.18565977E+03</pdfrwt>
<pdfrwt beam="2">  1       21 0.22126351E+00 0.18565977E+03</pdfrwt>
<totfact> 0.14016917E+03</totfact>
</mgrwt>
</event>
<event>
 4    1  0.1101825E+000  0.2643644E+03  0.7546771E-02  0.1104549E+00
         21   -1    0    0  501  502  0.00000000000E+00  0.00000000000E+00  0.46816956714E+03  0.46816956714E+03  0.00000000000E+00 0.  1.
         21   -1    0    0  502  503 -0.00000000000E+00 -0.00000000000E+00 -0.17744675980E+03  0.17744675980E+03  0.00000000000E+00 0.  1.
          6    1    1    2  501    0  0.19850685865E+03 -0.29993135608E+02  0.27397162633E+03  0.38072170039E+03  0.17200000000E+03 0.  1.
         -6    1    1    2    0  503 -0.19850685865E+03  0.29993135608E+02  0.16751181013E+02  0.26489462656E+03  0.17200000000E+03 0.  1.
<mgrwt>
<rscale>  2 0.26436445E+03</rscale>
<asrwt>0</asrwt>
<pdfrwt beam="1">  1       21 0.11704239E+00 0.26436445E+03</pdfrwt>
<pdfrwt beam="2">  1       21 0.44361691E-01 0.26436445E+03</pdfrwt>
<totfact> 0.25927219E+03</totfact>
</mgrwt>
</event>
<event>
 4    1  0.1101825E+000  0.1797285E+03  0.7546771E-02  0.1168066E+00
         21   -1    0    0  501  502  0.00000000000E+00  0.00000000000E+00  0.46856241530E+03  0.46856241530E+03  0.00000000000E+00 0. -1.
         21   -1    0    0  502  503 -0.00000000000E+00 -0.00000000000E+00 -0.97022594023E+03  0.97022594023E+03  0.00000000000E+00 0. -1.
          6    1    1    2  501    0 -0.47941513740E+02  0.20492297176E+02  0.44253331848E+03  0.47763800199E+03  0.17200000000E+03 0. -1.
         -6    1    1    2    0  503  0.47941513740E+02 -0.20492297176E+02 -0.94419684341E+03  0.96115035353E+03  0.17200000000E+03 0. -1.
<mgrwt>
<rscale>  2 0.17972847E+03</rscale>
<asrwt>0</asrwt>
<pdfrwt beam="1">  1       21 0.11714060E+00 0.17972847E+03</pdfrwt>
<pdfrwt beam="2">  1       21 0.24255648E+00 0.17972847E+03</pdfrwt>
<totfact> 0.42165010E+01</totfact>
</mgrwt>
</event>
<event>
 4    1  0.1101825E+000  0.2820298E+03  0.7546771E-02  0.1094585E+00
         21   -1    0    0  503  502  0.00000000000E+00  0.00000000000E+00  0.40143087210E+03  0.40143087210E+03  0.00000000000E+00 0.  1.
         21   -1    0    0  501  503 -0.00000000000E+00 -0.00000000000E+00 -0.20049924304E+03  0.20049924304E+03  0.00000000000E+00 0. -1.
          6    1    1    2  501    0 -0.10432980564E+03  0.19766659541E+03  0.67840646182E+02  0.29007437764E+03  0.17200000000E+03 0. -1.
         -6    1    1    2    0  502  0.10432980564E+03 -0.19766659541E+03  0.13309098288E+03  0.31185573750E+03  0.17200000000E+03 0.  1.
<mgrwt>
<rscale>  2 0.28202977E+03</rscale>
<asrwt>0</asrwt>
<pdfrwt beam="1">  1       21 0.10035772E+00 0.28202977E+03</pdfrwt>
<pdfrwt beam="2">  1       21 0.50124811E-01 0.28202977E+03</pdfrwt>
<totfact> 0.28923155E+03</totfact>
</mgrwt>
</event>
<event>
 4    1  0.1101825E+000  0.2021430E+03  0.7546771E-02  0.1147943E+00
         21   -1    0    0  503  502  0.00000000000E+00  0.00000000000E+00  0.92174032699E+03  0.92174032699E+03  0.00000000000E+00 0. -1.
         21   -1    0    0  501  503 -0.00000000000E+00 -0.00000000000E+00 -0.71363466939E+02  0.71363466939E+02  0.00000000000E+00 0. -1.
          6    1    1    2  501    0 -0.65142420661E+02 -0.83870557347E+02  0.73079897795E+03  0.75824069498E+03  0.17200000000E+03 0. -1.
         -6    1    1    2    0  502  0.65142420661E+02  0.83870557347E+02  0.11957788211E+03  0.23486309895E+03  0.17200000000E+03 0. -1.
<mgrwt>
<rscale>  2 0.20214303E+03</rscale>
<asrwt>0</asrwt>
<pdfrwt beam="1">  1       21 0.23043504E+00 0.20214303E+03</pdfrwt>
<pdfrwt beam="2">  1       21 0.17840870E-01 0.20214303E+03</pdfrwt>
<totfact> 0.24560125E+03</totfact>
</mgrwt>
</event>
<event>
 4    1  0.1101825E+000  0.2128545E+03  0.7546771E-02  0.1139325E+00
         21   -1    0    0  503  502  0.00000000000E+00  0.00000000000E+00  0.78343469901E+03  0.78343469901E+03  0.00000000000E+00 0.  1.
         21   -1    0    0  501  503 -0.00000000000E+00 -0.00000000000E+00 -0.10213212295E+03  0.10213212295E+03  0.00000000000E+00 0.  1.
          6    1    1    2  501    0  0.11385772569E+03 -0.52530476894E+02  0.49032064704E+02  0.21842888104E+03  0.17200000000E+03 0.  1.
         -6    1    1    2    0  502 -0.11385772569E+03  0.52530476894E+02  0.63227051135E+03  0.66713794093E+03  0.17200000000E+03 0.  1.
<mgrwt>
<rscale>  2 0.21285449E+03</rscale>
<asrwt>0</asrwt>
<pdfrwt beam="1">  1       21 0.19585866E+00 0.21285449E+03</pdfrwt>
<pdfrwt beam="2">  1       21 0.25533033E-01 0.21285449E+03</pdfrwt>
<totfact> 0.20359526E+03</totfact>
</mgrwt>
</event>
<event>
 4    1  0.1101825E+000  0.2966607E+03  0.7546771E-02  0.1086922E+00
         21   -1    0    0  503  502  0.00000000000E+00  0.00000000000E+00  0.15381238530E+03  0.15381238530E+03  0.00000000000E+00 0. -1.
         21   -1    0    0  501  503 -0.00000000000E+00 -0.00000000000E+00 -0.77126678754E+03  0.77126678754E+03  0.00000000000E+00 0.  1.
          6    1    1    2  501    0 -0.13876603563E+03  0.19790796419E+03 -0.54373022710E+03  0.61939497479E+03  0.17200000000E+03 0.  1.
         -6    1    1    2    0  502  0.13876603563E+03 -0.19790796419E+03 -0.73724175136E+02  0.30568419804E+03  0.17200000000E+03 0. -1.
<mgrwt>
<rscale>  2 0.29666071E+03</rscale>
<asrwt>0</asrwt>
<pdfrwt beam="1">  1       21 0.38453097E-01 0.29666071E+03</pdfrwt>
<pdfrwt beam="2">  1       21 0.19281669E+00 0.29666071E+03</pdfrwt>
<totfact> 0.88691544E+02</totfact>
</mgrwt>
</event>
<event>
 4    1  0.1101825E+000  0.2793806E+03  0.7546771E-02  0.1096028E+00
         21   -1    0    0  503  502  0.00000000000E+00  0.00000000000E+00  0.50722887372E+03  0.50722887372E+03  0.00000000000E+00 0. -1.
         21   -1    0    0  501  503 -0.00000000000E+00 -0.00000000000E+00 -0.16922712301E+03  0.16922712301E+03  0.00000000000E+00 0.  1.
          6    1    1    2  501    0  0.18600285318E+03 -0.11778143375E+03  0.67152051272E+02  0.28733765071E+03  0.17200000000E+03 0. -1.
         -6    1    1    2    0  502 -0.18600285318E+03  0.11778143375E+03  0.27084969943E+03  0.38911834602E+03  0.17200000000E+03 0.  1.
<mgrwt>
<rscale>  2 0.27938061E+03</rscale>
<asrwt>0</asrwt>
<pdfrwt beam="1">  1       21 0.12680722E+00 0.27938061E+03</pdfrwt>
<pdfrwt beam="2">  1       21 0.42306782E-01 0.27938061E+03</pdfrwt>
<totfact> 0.23144227E+03</totfact>
</mgrwt>
</event>
<event>
 4    1  0.1101825E+000  0.2036013E+03  0.7546771E-02  0.1146736E+00
         21   -1    0    0  503  502  0.00000000000E+00  0.00000000000E+00  0.41458051704E+03  0.41458051704E+03  0.00000000000E+00 0. -1.
         21   -1    0    0  501  503 -0.00000000000E+00 -0.00000000000E+00 -0.10119623919E+03  0.10119623919E+03  0.00000000000E+00 0.  1.
          6    1    1    2  501    0  0.88431015943E+02 -0.63635276187E+02  0.12852481832E+03  0.24077400583E+03  0.17200000000E+03 0.  1.
         -6    1    1    2    0  502 -0.88431015943E+02  0.63635276187E+02  0.18485945952E+03  0.27500275040E+03  0.17200000000E+03 0. -1.
<mgrwt>
<rscale>  2 0.20360131E+03</rscale>
<asrwt>0</asrwt>
<pdfrwt beam="1">  1       21 0.10364512E+00 0.20360131E+03</pdfrwt>
<pdfrwt beam="2">  1       21 0.25299061E-01 0.20360131E+03</pdfrwt>
<totfact> 0.11075528E+04</totfact>
</mgrwt>
</event>
<event>
 4    1  0.1101825E+000  0.1724624E+03  0.7546771E-02  0.1175304E+00
         21   -1    0    0  501  502  0.00000000000E+00  0.00000000000E+00  0.89718830058E+02  0.89718830058E+02  0.00000000000E+00 0.  1.
         21   -1    0    0  502  503 -0.00000000000E+00 -0.00000000000E+00 -0.37418571445E+03  0.37418571445E+03  0.00000000000E+00 0.  1.
          6    1    1    2  501    0 -0.58779414538E+01  0.11168135073E+02 -0.63906337245E+02  0.18392198720E+03  0.17200000000E+03 0.  1.
         -6    1    1    2    0  503  0.58779414538E+01 -0.11168135073E+02 -0.22056054715E+03  0.27998255731E+03  0.17200000000E+03 0.  1.
<mgrwt>
<rscale>  2 0.17246239E+03</rscale>
<asrwt>0</asrwt>
<pdfrwt beam="1">  1       21 0.22429708E-01 0.17246239E+03</pdfrwt>
<pdfrwt beam="2">  1       21 0.93546428E-01 0.17246239E+03</pdfrwt>
<totfact> 0.18105143E+04</totfact>
</mgrwt>
</event>
<event>
 4    1  0.1101825E+000  0.2507881E+03  0.7546771E-02  0.1112808E+00
         21   -1    0    0  501  502  0.00000000000E+00  0.00000000000E+00  0.14831693481E+04  0.14831693481E+04  0.00000000000E+00 0.  1.
         21   -1    0    0  502  503 -0.00000000000E+00 -0.00000000000E+00 -0.62263313598E+02  0.62263313598E+02  0.00000000000E+00 0.  1.
          6    1    1    2  501    0 -0.16940772453E+03  0.67909446829E+02  0.11468369134E+04  0.11739376372E+04  0.17200000000E+03 0.  1.
         -6    1    1    2    0  503  0.16940772453E+03 -0.67909446829E+02  0.27406912118E+03  0.37149502457E+03  0.17200000000E+03 0.  1.
<mgrwt>
<rscale>  2 0.25078810E+03</rscale>
<asrwt>0</asrwt>
<pdfrwt beam="1">  1       21 0.37079222E+00 0.25078810E+03</pdfrwt>
<pdfrwt beam="2">  1       21 0.15565833E-01 0.25078810E+03</pdfrwt>
<totfact> 0.44453464E+02</totfact>
</mgrwt>
</event>
<event>
 4    1  0.1101825E+000  0.2233871E+03  0.7546771E-02  0.1131383E+00
         21   -1    0    0  501  502  0.00000000000E+00  0.00000000000E+00  0.57085871168E+03  0.57085871168E+03  0.00000000000E+00 0.  1.
         21   -1    0    0  502  503 -0.00000000000E+00 -0.00000000000E+00 -0.94756493840E+02  0.94756493840E+02  0.00000000000E+00 0. -1.
          6    1    1    2  501    0  0.12952955832E+03 -0.59496850840E+02  0.33068550834E+03  0.39906727148E+03  0.17200000000E+03 0.  1.
         -6    1    1    2    0  503 -0.12952955832E+03  0.59496850840E+02  0.14541670950E+03  0.26654793404E+03  0.17200000000E+03 0.  1.
<mgrwt>
<rscale>  2 0.22338707E+03</rscale>
<asrwt>0</asrwt>
<pdfrwt beam="1">  1       21 0.14271467E+00 0.22338707E+03</pdfrwt>
<pdfrwt beam="2">  1       21 0.23689125E-01 0.22338707E+03</pdfrwt>
<totfact> 0.55777690E+03</totfact>
</mgrwt>
</event>
<event>
 4    1  0.1101825E+000  0.2103103E+03  0.7546771E-02  0.1141321E+00
         21   -1    0    0  501  502  0.00000000000E+00  0.00000000000E+00  0.36956669698E+03  0.36956669698E+03  0.00000000000E+00 0. -1.
         21   -1    0    0  502  503 -0.00000000000E+00 -0.00000000000E+00 -0.12490485518E+03  0.12490485518E+03  0.00000000000E+00 0. -1.
          6    1    1    2  501    0  0.93976167304E+02 -0.76255500762E+02  0.17288804926E+03  0.27225116895E+03  0.17200000000E+03 0. -1.
         -6    1    1    2    0  503 -0.93976167304E+02  0.76255500762E+02  0.71773792542E+02  0.22222038321E+03  0.17200000000E+03 0. -1.
<mgrwt>
<rscale>  2 0.21031030E+03</rscale>
<asrwt>0</asrwt>
<pdfrwt beam="1">  1       21 0.92391672E-01 0.21031030E+03</pdfrwt>
<pdfrwt beam="2">  1       21 0.31226215E-01 0.21031030E+03</pdfrwt>
<totfact> 0.96222004E+03</totfact>
</mgrwt>
</event>
<event>
 4    1  0.1101825E+000  0.1982873E+03  0.7546771E-02  0.1151192E+00
         21   -1    0    0  503  502  0.00000000000E+00  0.00000000000E+00  0.30916210358E+03  0.30916210358E+03  0.00000000000E+00 0.  1.
         21   -1    0    0  501  503 -0.00000000000E+00 -0.00000000000E+00 -0.22406947409E+03  0.22406947409E+03  0.00000000000E+00 0.  1.
          6    1    1    2  501    0  0.76747947264E+02  0.61996953805E+02 -0.13277823138E+03  0.23863765088E+03  0.17200000000E+03 0.  1.
         -6    1    1    2    0  502 -0.76747947264E+02 -0.61996953805E+02  0.21787086087E+03  0.29459392680E+03  0.17200000000E+03 0.  1.
<mgrwt>
<rscale>  2 0.19828734E+03</rscale>
<asrwt>0</asrwt>
<pdfrwt beam="1">  1       21 0.77290526E-01 0.19828734E+03</pdfrwt>
<pdfrwt beam="2">  1       21 0.56017369E-01 0.19828734E+03</pdfrwt>
<totfact> 0.44396529E+03</totfact>
</mgrwt>
</event>
<event>
 4    1  0.1101825E+000  0.2182823E+03  0.7546771E-02  0.1135170E+00
         21   -1    0    0  503  502  0.00000000000E+00  0.00000000000E+00  0.19032084605E+03  0.19032084605E+03  0.00000000000E+00 0. -1.
         21   -1    0    0  501  503 -0.00000000000E+00 -0.00000000000E+00 -0.29138114490E+03  0.29138114490E+03  0.00000000000E+00 0.  1.
          6    1    1    2  501    0  0.12245525440E+03  0.55388449185E+02 -0.14090860674E+03  0.25981224969E+03  0.17200000000E+03 0.  1.
         -6    1    1    2    0  502 -0.12245525440E+03 -0.55388449185E+02  0.39848307894E+02  0.22188974126E+03  0.17200000000E+03 0. -1.
<mgrwt>
<rscale>  2 0.21828232E+03</rscale>
<asrwt>0</asrwt>
<pdfrwt beam="1">  1       21 0.47580212E-01 0.21828232E+03</pdfrwt>
<pdfrwt beam="2">  1       21 0.72845286E-01 0.21828232E+03</pdfrwt>
<totfact> 0.70364215E+03</totfact>
</mgrwt>
</event>
<event>
 4    1  0.1101825E+000  0.2169116E+03  0.7546771E-02  0.1136207E+00
         21   -1    0    0  501  502  0.00000000000E+00  0.00000000000E+00  0.30158367660E+03  0.30158367660E+03  0.00000000000E+00 0.  1.
         21   -1    0    0  502  503 -0.00000000000E+00 -0.00000000000E+00 -0.15730646328E+03  0.15730646328E+03  0.00000000000E+00 0. -1.
          6    1    1    2  501    0  0.68514553242E+02 -0.11301507579E+03  0.92952920631E+02  0.23598918792E+03  0.17200000000E+03 0. -1.
         -6    1    1    2    0  503 -0.68514553242E+02  0.11301507579E+03  0.51324292691E+02  0.22290095196E+03  0.17200000000E+03 0.  1.
<mgrwt>
<rscale>  2 0.21691162E+03</rscale>
<asrwt>0</asrwt>
<pdfrwt beam="1">  1       21 0.75395918E-01 0.21691162E+03</pdfrwt>
<pdfrwt beam="2">  1       21 0.39326616E-01 0.21691162E+03</pdfrwt>
<totfact> 0.96349533E+03</totfact>
</mgrwt>
</event>
<event>
 4    1  0.1101825E+000  0.1742604E+03  0.7546771E-02  0.1173476E+00
         21   -1    0    0  501  502  0.00000000000E+00  0.00000000000E+00  0.31136561362E+03  0.31136561362E+03  0.00000000000E+00 0.  1.
         21   -1    0    0  502  503 -0.00000000000E+00 -0.00000000000E+00 -0.14225950049E+03  0.14225950049E+03  0.00000000000E+00 0.  1.
          6    1    1    2  501    0  0.10753158801E+02 -0.25827313949E+02 -0.42631995637E+02  0.17939946383E+03  0.17200000000E+03 0.  1.
         -6    1    1    2    0  503 -0.10753158801E+02  0.25827313949E+02  0.21173810876E+03  0.27422565028E+03  0.17200000000E+03 0.  1.
<mgrwt>
<rscale>  2 0.17426038E+03</rscale>
<asrwt>0</asrwt>
<pdfrwt beam="1">  1       21 0.77841402E-01 0.17426038E+03</pdfrwt>
<pdfrwt beam="2">  1       21 0.35564876E-01 0.17426038E+03</pdfrwt>
<totfact> 0.11293765E+04</totfact>
</mgrwt>
</event>
<event>
 4    1  0.1101825E+000  0.1850199E+03  0.7546771E-02  0.1163031E+00
         21   -1    0    0  501  502  0.00000000000E+00  0.00000000000E+00  0.19763866515E+03  0.19763866515E+03  0.00000000000E+00 0. -1.
         21   -1    0    0  502  503 -0.00000000000E+00 -0.00000000000E+00 -0.30349847970E+03  0.30349847970E+03  0.00000000000E+00 0.  1.
          6    1    1    2  501    0 -0.72886042432E+01 -0.67788177488E+02  0.11124496236E+03  0.21588840268E+03  0.17200000000E+03 0. -1.
         -6    1    1    2    0  503  0.72886042432E+01  0.67788177488E+02 -0.21710477691E+03  0.28524874218E+03  0.17200000000E+03 0.  1.
<mgrwt>
<rscale>  2 0.18501989E+03</rscale>
<asrwt>0</asrwt>
<pdfrwt beam="1">  1       21 0.49409667E-01 0.18501989E+03</pdfrwt>
<pdfrwt beam="2">  1       21 0.75874620E-01 0.18501989E+03</pdfrwt>
<totfact> 0.60863841E+03</totfact>
</mgrwt>
</event>
<event>
 4    1  0.1101825E+000  0.2295787E+03  0.7546771E-02  0.1126937E+00
         21   -1    0    0  503  502  0.00000000000E+00  0.00000000000E+00  0.67452448402E+03  0.67452448402E+03  0.00000000000E+00 0.  1.
         21   -1    0    0  501  503 -0.00000000000E+00 -0.00000000000E+00 -0.11286088255E+03  0.11286088255E+03  0.00000000000E+00 0. -1.
          6    1    1    2  501    0 -0.11466873879E+03  0.99867255190E+02  0.62463369774E+02  0.23792448567E+03  0.17200000000E+03 0. -1.
         -6    1    1    2    0  502  0.11466873879E+03 -0.99867255190E+02  0.49920023170E+03  0.54946088090E+03  0.17200000000E+03 0.  1.
<mgrwt>
<rscale>  2 0.22957872E+03</rscale>
<asrwt>0</asrwt>
<pdfrwt beam="1">  1       21 0.16863111E+00 0.22957872E+03</pdfrwt>
<pdfrwt beam="2">  1       21 0.28215223E-01 0.22957872E+03</pdfrwt>
<totfact> 0.25337085E+03</totfact>
</mgrwt>
</event>
<event>
 4    1  0.1101825E+000  0.1964509E+03  0.7546771E-02  0.1152768E+00
         21   -1    0    0  503  502  0.00000000000E+00  0.00000000000E+00  0.18803505506E+03  0.18803505506E+03  0.00000000000E+00 0. -1.
         21   -1    0    0  501  503 -0.00000000000E+00 -0.00000000000E+00 -0.22118745309E+03  0.22118745309E+03  0.00000000000E+00 0. -1.
          6    1    1    2  501    0 -0.90725551745E+02 -0.27889896824E+02 -0.71510971562E+02  0.20906169218E+03  0.17200000000E+03 0. -1.
         -6    1    1    2    0  502  0.90725551745E+02  0.27889896824E+02  0.38358573538E+02  0.20016081597E+03  0.17200000000E+03 0. -1.
<mgrwt>
<rscale>  2 0.19645094E+03</rscale>
<asrwt>0</asrwt>
<pdfrwt beam="1">  1       21 0.47008764E-01 0.19645094E+03</pdfrwt>
<pdfrwt beam="2">  1       21 0.55296863E-01 0.19645094E+03</pdfrwt>
<totfact> 0.13323145E+04</totfact>
</mgrwt>
</event>
<event>
 4    1  0.1101825E+000  0.2171957E+03  0.7546771E-02  0.1135991E+00
         21   -1    0    0  503  502  0.00000000000E+00  0.00000000000E+00  0.11004519504E+04  0.11004519504E+04  0.00000000000E+00 0. -1.
         21   -1    0    0  501  503 -0.00000000000E+00 -0.00000000000E+00 -0.71856377816E+02  0.71856377816E+02  0.00000000000E+00 0.  1.
          6    1    1    2  501    0 -0.11097573442E+03 -0.72624869921E+02  0.14199830082E+03  0.25949470668E+03  0.17200000000E+03 0.  1.
         -6    1    1    2    0  502  0.11097573442E+03  0.72624869921E+02  0.88659727177E+03  0.91281362154E+03  0.17200000000E+03 0. -1.
<mgrwt>
<rscale>  2 0.21719573E+03</rscale>
<asrwt>0</asrwt>
<pdfrwt beam="1">  1       21 0.27511293E+00 0.21719573E+03</pdfrwt>
<pdfrwt beam="2">  1       21 0.17964098E-01 0.21719573E+03</pdfrwt>
<totfact> 0.12993506E+03</totfact>
</mgrwt>
</event>
<event>
 4    1  0.1101825E+000  0.2332973E+03  0.7546771E-02  0.1124340E+00
         21   -1    0    0  503  502  0.00000000000E+00  0.00000000000E+00  0.45278433618E+03  0.45278433618E+03  0.00000000000E+00 0.  1.
         21   -1    0    0  501  503 -0.00000000000E+00 -0.00000000000E+00 -0.38538825432E+03  0.38538825432E+03  0.00000000000E+00 0.  1.
          6    1    1    2  501    0  0.14488372558E+03  0.62067377900E+02 -0.31393894974E+03  0.39113337559E+03  0.17200000000E+03 0.  1.
         -6    1    1    2    0  502 -0.14488372558E+03 -0.62067377900E+02  0.38133503160E+03  0.44703921490E+03  0.17200000000E+03 0.  1.
<mgrwt>
<rscale>  2 0.23329735E+03</rscale>
<asrwt>0</asrwt>
<pdfrwt beam="1">  1       21 0.11319608E+00 0.23329735E+03</pdfrwt>
<pdfrwt beam="2">  1       21 0.96347064E-01 0.23329735E+03</pdfrwt>
<totfact> 0.52373697E+02</totfact>
</mgrwt>
</event>
<event>
 4    1  0.1101825E+000  0.1975815E+03  0.7546771E-02  0.1151796E+00
         21   -1    0    0  501  502  0.00000000000E+00  0.00000000000E+00  0.10540997561E+03  0.10540997561E+03  0.00000000000E+00 0. -1.
         21   -1    0    0  502  503 -0.00000000000E+00 -0.00000000000E+00 -0.41028201139E+03  0.41028201139E+03  0.00000000000E+00 0. -1.
          6    1    1    2  501    0 -0.74139948295E+02 -0.62910539190E+02 -0.71993481137E+02  0.21028915617E+03  0.17200000000E+03 0. -1.
         -6    1    1    2    0  503  0.74139948295E+02  0.62910539190E+02 -0.23287855464E+03  0.30540283084E+03  0.17200000000E+03 0. -1.
<mgrwt>
<rscale>  2 0.19758155E+03</rscale>
<asrwt>0</asrwt>
<pdfrwt beam="1">  1       21 0.26352494E-01 0.19758155E+03</pdfrwt>
<pdfrwt beam="2">  1       21 0.10257050E+00 0.19758155E+03</pdfrwt>
<totfact> 0.10545315E+04</totfact>
</mgrwt>
</event>
<event>
 4    1  0.1101825E+000  0.1796511E+03  0.7546771E-02  0.1168141E+00
         21   -1    0    0  503  502  0.00000000000E+00  0.00000000000E+00  0.22919615024E+04  0.22919615024E+04  0.00000000000E+00 0.  1.
         21   -1    0    0  501  503 -0.00000000000E+00 -0.00000000000E+00 -0.14647304856E+02  0.14647304856E+02  0.00000000000E+00 0.  1.
          6    1    1    2  501    0  0.24754871596E+02 -0.45582098271E+02  0.91200888745E+03  0.92953469120E+03  0.17200000000E+03 0.  1.
         -6    1    1    2    0  502 -0.24754871596E+02  0.45582098271E+02  0.13653053101E+04  0.13770741161E+04  0.17200000000E+03 0.  1.
<mgrwt>
<rscale>  2 0.17965114E+03</rscale>
<asrwt>0</asrwt>
<pdfrwt beam="1">  1       21 0.57298915E+00 0.17965114E+03</pdfrwt>
<pdfrwt beam="2">  1       21 0.36618340E-02 0.17965114E+03</pdfrwt>
<totfact> 0.25625318E+02</totfact>
</mgrwt>
</event>
<event>
 4    1  0.1101825E+000  0.1921518E+03  0.7546771E-02  0.1156535E+00
         21   -1    0    0  501  502  0.00000000000E+00  0.00000000000E+00  0.12586389744E+03  0.12586389744E+03  0.00000000000E+00 0.  1.
         21   -1    0    0  502  503 -0.00000000000E+00 -0.00000000000E+00 -0.31947278431E+03  0.31947278431E+03  0.00000000000E+00 0.  1.
          6    1    1    2  501    0 -0.37055096066E+02 -0.77234888259E+02 -0.33133331331E+02  0.19498750153E+03  0.17200000000E+03 0.  1.
         -6    1    1    2    0  503  0.37055096066E+02  0.77234888259E+02 -0.16047555554E+03  0.25034918022E+03  0.17200000000E+03 0.  1.
<mgrwt>
<rscale>  2 0.19215178E+03</rscale>
<asrwt>0</asrwt>
<pdfrwt beam="1">  1       21 0.31465975E-01 0.19215178E+03</pdfrwt>
<pdfrwt beam="2">  1       21 0.79868195E-01 0.19215178E+03</pdfrwt>
<totfact> 0.13406240E+04</totfact>
</mgrwt>
</event>
<event>
 4    1  0.1101825E+000  0.2129988E+03  0.7546771E-02  0.1139213E+00
         21   -1    0    0  503  502  0.00000000000E+00  0.00000000000E+00  0.31457168981E+03  0.31457168981E+03  0.00000000000E+00 0.  1.
         21   -1    0    0  501  503 -0.00000000000E+00 -0.00000000000E+00 -0.14692589353E+03  0.14692589353E+03  0.00000000000E+00 0.  1.
          6    1    1    2  501    0  0.10166140114E+03 -0.73820340809E+02  0.11511985301E+03  0.24211787162E+03  0.17200000000E+03 0.  1.
         -6    1    1    2    0  502 -0.10166140114E+03  0.73820340809E+02  0.52525943276E+02  0.21937971172E+03  0.17200000000E+03 0.  1.
<mgrwt>
<rscale>  2 0.21299879E+03</rscale>
<asrwt>0</asrwt>
<pdfrwt beam="1">  1       21 0.78642921E-01 0.21299879E+03</pdfrwt>
<pdfrwt beam="2">  1       21 0.36731474E-01 0.21299879E+03</pdfrwt>
<totfact> 0.10077799E+04</totfact>
</mgrwt>
</event>
<event>
 4    1  0.1101825E+000  0.1724584E+03  0.7546771E-02  0.1175308E+00
         21   -1    0    0  501  502  0.00000000000E+00  0.00000000000E+00  0.54800088089E+02  0.54800088089E+02  0.00000000000E+00 0.  1.
         21   -1    0    0  502  503 -0.00000000000E+00 -0.00000000000E+00 -0.77731640798E+03  0.77731640798E+03  0.00000000000E+00 0.  1.
          6    1    1    2  501    0  0.11942850650E+02 -0.39067895662E+01 -0.13269694366E+03  0.21760140979E+03  0.17200000000E+03 0.  1.
         -6    1    1    2    0  503 -0.11942850650E+02  0.39067895662E+01 -0.58981937623E+03  0.61451508627E+03  0.17200000000E+03 0.  1.
<mgrwt>
<rscale>  2 0.17245839E+03</rscale>
<asrwt>0</asrwt>
<pdfrwt beam="1">  1       21 0.13700022E-01 0.17245839E+03</pdfrwt>
<pdfrwt beam="2">  1       21 0.19432910E+00 0.17245839E+03</pdfrwt>
<totfact> 0.68816440E+03</totfact>
</mgrwt>
</event>
<event>
 4    1  0.1101825E+000  0.1751870E+03  0.7546771E-02  0.1172544E+00
         21   -1    0    0  503  502  0.00000000000E+00  0.00000000000E+00  0.26278594354E+02  0.26278594354E+02  0.00000000000E+00 0. -1.
         21   -1    0    0  501  503 -0.00000000000E+00 -0.00000000000E+00 -0.12493909768E+04  0.12493909768E+04  0.00000000000E+00 0. -1.
          6    1    1    2  501    0 -0.29303380121E+02  0.15741870924E+02 -0.77446393934E+03  0.79403078525E+03  0.17200000000E+03 0. -1.
         -6    1    1    2    0  502  0.29303380121E+02 -0.15741870924E+02 -0.44864844313E+03  0.48163878592E+03  0.17200000000E+03 0. -1.
<mgrwt>
<rscale>  2 0.17518703E+03</rscale>
<asrwt>0</asrwt>
<pdfrwt beam="1">  1       21 0.65696485E-02 0.17518703E+03</pdfrwt>
<pdfrwt beam="2">  1       21 0.31234775E+00 0.17518703E+03</pdfrwt>
<totfact> 0.49973317E+03</totfact>
</mgrwt>
</event>
<event>
 4    1  0.1101825E+000  0.1819930E+03  0.7546771E-02  0.1165888E+00
         21   -1    0    0  501  502  0.00000000000E+00  0.00000000000E+00  0.11206024996E+03  0.11206024996E+03  0.00000000000E+00 0. -1.
         21   -1    0    0  502  503 -0.00000000000E+00 -0.00000000000E+00 -0.29677039365E+03  0.29677039365E+03  0.00000000000E+00 0. -1.
          6    1    1    2  501    0 -0.72710897901E+01  0.59030264485E+02 -0.79344414441E+02  0.19853709219E+03  0.17200000000E+03 0. -1.
         -6    1    1    2    0  503  0.72710897901E+01 -0.59030264485E+02 -0.10536572925E+03  0.21029355143E+03  0.17200000000E+03 0. -1.
<mgrwt>
<rscale>  2 0.18199297E+03</rscale>
<asrwt>0</asrwt>
<pdfrwt beam="1">  1       21 0.28015063E-01 0.18199297E+03</pdfrwt>
<pdfrwt beam="2">  1       21 0.74192598E-01 0.18199297E+03</pdfrwt>
<totfact> 0.19950937E+04</totfact>
</mgrwt>
</event>
<event>
 4    1  0.1101825E+000  0.1815806E+03  0.7546771E-02  0.1166282E+00
         21   -1    0    0  503  502  0.00000000000E+00  0.00000000000E+00  0.64040461535E+03  0.64040461535E+03  0.00000000000E+00 0.  1.
         21   -1    0    0  501  503 -0.00000000000E+00 -0.00000000000E+00 -0.53441521813E+02  0.53441521813E+02  0.00000000000E+00 0.  1.
          6    1    1    2  501    0 -0.41010095997E+02 -0.41299829493E+02  0.22710893206E+03  0.29077477695E+03  0.17200000000E+03 0.  1.
         -6    1    1    2    0  502  0.41010095997E+02  0.41299829493E+02  0.35985416148E+03  0.40307136021E+03  0.17200000000E+03 0.  1.
<mgrwt>
<rscale>  2 0.18158057E+03</rscale>
<asrwt>0</asrwt>
<pdfrwt beam="1">  1       21 0.16010113E+00 0.18158057E+03</pdfrwt>
<pdfrwt beam="2">  1       21 0.13360382E-01 0.18158057E+03</pdfrwt>
<totfact> 0.12259920E+04</totfact>
</mgrwt>
</event>
<event>
 4    1  0.1101825E+000  0.2261472E+03  0.7546771E-02  0.1129381E+00
         21   -1    0    0  503  502  0.00000000000E+00  0.00000000000E+00  0.29415648375E+03  0.29415648375E+03  0.00000000000E+00 0.  1.
         21   -1    0    0  501  503 -0.00000000000E+00 -0.00000000000E+00 -0.31247754080E+03  0.31247754080E+03  0.00000000000E+00 0.  1.
          6    1    1    2  501    0 -0.89923338670E+02  0.11607052566E+03 -0.21118019564E+03  0.30941824250E+03  0.17200000000E+03 0.  1.
         -6    1    1    2    0  502  0.89923338670E+02 -0.11607052566E+03  0.19285913858E+03  0.29721578205E+03  0.17200000000E+03 0.  1.
<mgrwt>
<rscale>  2 0.22614724E+03</rscale>
<asrwt>0</asrwt>
<pdfrwt beam="1">  1       21 0.73539121E-01 0.22614724E+03</pdfrwt>
<pdfrwt beam="2">  1       21 0.78119385E-01 0.22614724E+03</pdfrwt>
<totfact> 0.23439339E+03</totfact>
</mgrwt>
</event>
<event>
 4    1  0.1101825E+000  0.1759751E+03  0.7546771E-02  0.1171756E+00
         21   -1    0    0  501  502  0.00000000000E+00  0.00000000000E+00  0.32659709729E+03  0.32659709729E+03  0.00000000000E+00 0. -1.
         21   -1    0    0  502  503 -0.00000000000E+00 -0.00000000000E+00 -0.19273867054E+03  0.19273867054E+03  0.00000000000E+00 0. -1.
          6    1    1    2  501    0 -0.37167171801E+02 -0.13555841631E+01  0.25201425454E+03  0.30737342233E+03  0.17200000000E+03 0. -1.
         -6    1    1    2    0  503  0.37167171801E+02  0.13555841631E+01 -0.11815582779E+03  0.21196234550E+03  0.17200000000E+03 0. -1.
<mgrwt>
<rscale>  2 0.17597510E+03</rscale>
<asrwt>0</asrwt>
<pdfrwt beam="1">  1       21 0.81649274E-01 0.17597510E+03</pdfrwt>
<pdfrwt beam="2">  1       21 0.48184668E-01 0.17597510E+03</pdfrwt>
<totfact> 0.54757433E+03</totfact>
</mgrwt>
</event>
<event>
 4    1  0.1101825E+000  0.1802151E+03  0.7546771E-02  0.1167595E+00
         21   -1    0    0  501  502  0.00000000000E+00  0.00000000000E+00  0.56855938287E+03  0.56855938287E+03  0.00000000000E+00 0. -1.
         21   -1    0    0  502  503 -0.00000000000E+00 -0.00000000000E+00 -0.61271785234E+02  0.61271785234E+02  0.00000000000E+00 0. -1.
          6    1    1    2  501    0 -0.22484170064E+01 -0.53743993522E+02  0.33559515739E+03  0.38092201549E+03  0.17200000000E+03 0. -1.
         -6    1    1    2    0  503  0.22484170064E+01  0.53743993522E+02  0.17169244024E+03  0.24890915261E+03  0.17200000000E+03 0. -1.
<mgrwt>
<rscale>  2 0.18021507E+03</rscale>
<asrwt>0</asrwt>
<pdfrwt beam="1">  1       21 0.14213983E+00 0.18021507E+03</pdfrwt>
<pdfrwt beam="2">  1       21 0.15317948E-01 0.18021507E+03</pdfrwt>
<totfact> 0.13107138E+04</totfact>
</mgrwt>
</event>
<event>
 4    1  0.1101825E+000  0.1887955E+03  0.7546771E-02  0.1159552E+00
         21   -1    0    0  503  502  0.00000000000E+00  0.00000000000E+00  0.90726677064E+03  0.90726677064E+03  0.00000000000E+00 0. -1.
         21   -1    0    0  501  503 -0.00000000000E+00 -0.00000000000E+00 -0.56675403974E+02  0.56675403974E+02  0.00000000000E+00 0. -1.
          6    1    1    2  501    0  0.16351217988E+02  0.76107671841E+02  0.15833075121E+03  0.24639879631E+03  0.17200000000E+03 0. -1.
         -6    1    1    2    0  502 -0.16351217988E+02 -0.76107671841E+02  0.69226061545E+03  0.71754337831E+03  0.17200000000E+03 0. -1.
<mgrwt>
<rscale>  2 0.18879550E+03</rscale>
<asrwt>0</asrwt>
<pdfrwt beam="1">  1       21 0.22681665E+00 0.18879550E+03</pdfrwt>
<pdfrwt beam="2">  1       21 0.14168854E-01 0.18879550E+03</pdfrwt>
<totfact> 0.39931790E+03</totfact>
</mgrwt>
</event>
<event>
 4    1  0.1101825E+000  0.1778446E+03  0.7546771E-02  0.1169905E+00
         21   -1    0    0  503  502  0.00000000000E+00  0.00000000000E+00  0.68106495724E+03  0.68106495724E+03  0.00000000000E+00 0.  1.
         21   -1    0    0  501  503 -0.00000000000E+00 -0.00000000000E+00 -0.47308697751E+02  0.47308697751E+02  0.00000000000E+00 0.  1.
          6    1    1    2  501    0 -0.13143975803E+02 -0.43265910781E+02  0.26752996455E+03  0.32124910127E+03  0.17200000000E+03 0. -1.
         -6    1    1    2    0  502  0.13143975803E+02  0.43265910781E+02  0.36622629494E+03  0.40712455372E+03  0.17200000000E+03 0. -1.
<mgrwt>
<rscale>  2 0.17784460E+03</rscale>
<asrwt>0</asrwt>
<pdfrwt beam="1">  1       21 0.17026621E+00 0.17784460E+03</pdfrwt>
<pdfrwt beam="2">  1       21 0.11827177E-01 0.17784460E+03</pdfrwt>
<totfact> 0.12942476E+04</totfact>
</mgrwt>
</event>
<event>
 4    1  0.1101825E+000  0.1918942E+03  0.7546771E-02  0.1156764E+00
         21   -1    0    0  501  502  0.00000000000E+00  0.00000000000E+00  0.19787149095E+03  0.19787149095E+03  0.00000000000E+00 0.  1.
         21   -1    0    0  502  503 -0.00000000000E+00 -0.00000000000E+00 -0.45377662817E+03  0.45377662817E+03  0.00000000000E+00 0. -1.
          6    1    1    2  501    0  0.44440131386E+02  0.72556509450E+02  0.12229473957E+03  0.22755081997E+03  0.17200000000E+03 0.  1.
         -6    1    1    2    0  503 -0.44440131386E+02 -0.72556509450E+02 -0.37819987679E+03  0.42409729915E+03  0.17200000000E+03 0. -1.
<mgrwt>
<rscale>  2 0.19189417E+03</rscale>
<asrwt>0</asrwt>
<pdfrwt beam="1">  1       21 0.49467873E-01 0.19189417E+03</pdfrwt>
<pdfrwt beam="2">  1       21 0.11344416E+00 0.19189417E+03</pdfrwt>
<totfact> 0.23630330E+03</totfact>
</mgrwt>
</event>
<event>
 4    1  0.1101825E+000  0.2006696E+03  0.7546771E-02  0.1149175E+00
         21   -1    0    0  503  502  0.00000000000E+00  0.00000000000E+00  0.30328681999E+03  0.30328681999E+03  0.00000000000E+00 0.  1.
         21   -1    0    0  501  503 -0.00000000000E+00 -0.00000000000E+00 -0.22588953410E+03  0.22588953410E+03  0.00000000000E+00 0.  1.
          6    1    1    2  501    0 -0.81459333961E+02 -0.63629264457E+02 -0.13117880924E+03  0.23974191619E+03  0.17200000000E+03 0.  1.
         -6    1    1    2    0  502  0.81459333961E+02  0.63629264457E+02  0.20857609513E+03  0.28943443790E+03  0.17200000000E+03 0.  1.
<mgrwt>
<rscale>  2 0.20066964E+03</rscale>
<asrwt>0</asrwt>
<pdfrwt beam="1">  1       21 0.75821705E-01 0.20066964E+03</pdfrwt>
<pdfrwt beam="2">  1       21 0.56472384E-01 0.20066964E+03</pdfrwt>
<totfact> 0.45473082E+03</totfact>
</mgrwt>
</event>
<event>
 4    1  0.1101825E+000  0.1786247E+03  0.7546771E-02  0.1169141E+00
         21   -1    0    0  503  502  0.00000000000E+00  0.00000000000E+00  0.73615481461E+02  0.73615481461E+02  0.00000000000E+00 0.  1.
         21   -1    0    0  501  503 -0.00000000000E+00 -0.00000000000E+00 -0.46577964896E+03  0.46577964896E+03  0.00000000000E+00 0. -1.
          6    1    1    2  501    0  0.27479852171E+02  0.39593665283E+02 -0.26716318621E+03  0.32137667723E+03  0.17200000000E+03 0. -1.
         -6    1    1    2    0  502 -0.27479852171E+02 -0.39593665283E+02 -0.12500098129E+03  0.21801845319E+03  0.17200000000E+03 0.  1.
<mgrwt>
<rscale>  2 0.17862475E+03</rscale>
<asrwt>0</asrwt>
<pdfrwt beam="1">  1       21 0.18403870E-01 0.17862475E+03</pdfrwt>
<pdfrwt beam="2">  1       21 0.11644491E+00 0.17862475E+03</pdfrwt>
<totfact> 0.15467959E+04</totfact>
</mgrwt>
</event>
<event>
 4    1  0.1101825E+000  0.2433451E+03  0.7546771E-02  0.1117584E+00
         21   -1    0    0  503  502  0.00000000000E+00  0.00000000000E+00  0.51338079316E+03  0.51338079316E+03  0.00000000000E+00 0.  1.
         21   -1    0    0  501  503 -0.00000000000E+00 -0.00000000000E+00 -0.13941758444E+03  0.13941758444E+03  0.00000000000E+00 0. -1.
          6    1    1    2  501    0  0.15219052700E+03 -0.80441759978E+02  0.32260524172E+03  0.40409278049E+03  0.17200000000E+03 0. -1.
         -6    1    1    2    0  502 -0.15219052700E+03  0.80441759978E+02  0.51357966995E+02  0.24870559710E+03  0.17200000000E+03 0. -1.
<mgrwt>
<rscale>  2 0.24334509E+03</rscale>
<asrwt>0</asrwt>
<pdfrwt beam="1">  1       21 0.12834519E+00 0.24334509E+03</pdfrwt>
<pdfrwt beam="2">  1       21 0.34854397E-01 0.24334509E+03</pdfrwt>
<totfact> 0.34035922E+03</totfact>
</mgrwt>
</event>
<event>
 4    1  0.1101825E+000  0.1939296E+03  0.7546771E-02  0.1154964E+00
         21   -1    0    0  503  502  0.00000000000E+00  0.00000000000E+00  0.21963660740E+03  0.21963660740E+03  0.00000000000E+00 0. -1.
         21   -1    0    0  501  503 -0.00000000000E+00 -0.00000000000E+00 -0.20497460791E+03  0.20497460791E+03  0.00000000000E+00 0.  1.
          6    1    1    2  501    0 -0.27489584542E+02  0.85258485213E+02  0.93470933941E+02  0.21528005493E+03  0.17200000000E+03 0. -1.
         -6    1    1    2    0  502  0.27489584542E+02 -0.85258485213E+02 -0.78808934453E+02  0.20933116039E+03  0.17200000000E+03 0.  1.
<mgrwt>
<rscale>  2 0.19392959E+03</rscale>
<asrwt>0</asrwt>
<pdfrwt beam="1">  1       21 0.54909152E-01 0.19392959E+03</pdfrwt>
<pdfrwt beam="2">  1       21 0.51243652E-01 0.19392959E+03</pdfrwt>
<totfact> 0.11321248E+04</totfact>
</mgrwt>
</event>
<event>
 4    1  0.1101825E+000  0.2032096E+03  0.7546771E-02  0.1147059E+00
         21   -1    0    0  503  502  0.00000000000E+00  0.00000000000E+00  0.28473671460E+03  0.28473671460E+03  0.00000000000E+00 0. -1.
         21   -1    0    0  501  503 -0.00000000000E+00 -0.00000000000E+00 -0.18105747025E+03  0.18105747025E+03  0.00000000000E+00 0.  1.
          6    1    1    2  501    0 -0.79363175758E+02 -0.73563897401E+02 -0.52056235745E+02  0.20977133347E+03  0.17200000000E+03 0.  1.
         -6    1    1    2    0  502  0.79363175758E+02  0.73563897401E+02  0.15573548009E+03  0.25602285138E+03  0.17200000000E+03 0. -1.
<mgrwt>
<rscale>  2 0.20320965E+03</rscale>
<asrwt>0</asrwt>
<pdfrwt beam="1">  1       21 0.71184178E-01 0.20320965E+03</pdfrwt>
<pdfrwt beam="2">  1       21 0.45264368E-01 0.20320965E+03</pdfrwt>
<totfact> 0.82970180E+03</totfact>
</mgrwt>
</event>
<event>
 4    1  0.1101825E+000  0.1773835E+03  0.7546771E-02  0.1170360E+00
         21   -1    0    0  503  502  0.00000000000E+00  0.00000000000E+00  0.74654127969E+02  0.74654127969E+02  0.00000000000E+00 0. -1.
         21   -1    0    0  501  503 -0.00000000000E+00 -0.00000000000E+00 -0.65590199052E+03  0.65590199052E+03  0.00000000000E+00 0. -1.
          6    1    1    2  501    0  0.29899094182E+02  0.31415951806E+02 -0.50900101342E+03  0.53902407138E+03  0.17200000000E+03 0. -1.
         -6    1    1    2    0  502 -0.29899094182E+02 -0.31415951806E+02 -0.72246849128E+02  0.19153204711E+03  0.17200000000E+03 0. -1.
<mgrwt>
<rscale>  2 0.17738353E+03</rscale>
<asrwt>0</asrwt>
<pdfrwt beam="1">  1       21 0.18663532E-01 0.17738353E+03</pdfrwt>
<pdfrwt beam="2">  1       21 0.16397550E+00 0.17738353E+03</pdfrwt>
<totfact> 0.62648409E+03</totfact>
</mgrwt>
</event>
<event>
 4    1  0.1101825E+000  0.2506789E+03  0.7546771E-02  0.1112877E+00
         21   -1    0    0  503  502  0.00000000000E+00  0.00000000000E+00  0.61079183992E+03  0.61079183992E+03  0.00000000000E+00 0. -1.
         21   -1    0    0  501  503 -0.00000000000E+00 -0.00000000000E+00 -0.55635831169E+03  0.55635831169E+03  0.00000000000E+00 0.  1.
          6    1    1    2  501    0  0.13296407847E+03  0.12480565368E+03 -0.49964468888E+03  0.55900332063E+03  0.17200000000E+03 0.  1.
         -6    1    1    2    0  502 -0.13296407847E+03 -0.12480565368E+03  0.55407821711E+03  0.60814683098E+03  0.17200000000E+03 0. -1.
<mgrwt>
<rscale>  2 0.25067887E+03</rscale>
<asrwt>0</asrwt>
<pdfrwt beam="1">  1       21 0.15269796E+00 0.25067887E+03</pdfrwt>
<pdfrwt beam="2">  1       21 0.13908958E+00 0.25067887E+03</pdfrwt>
<totfact> 0.96585452E+01</totfact>
</mgrwt>
</event>
<event>
 4    1  0.1101825E+000  0.1808459E+03  0.7546771E-02  0.1166987E+00
         21   -1    0    0  503  502  0.00000000000E+00  0.00000000000E+00  0.11418355515E+04  0.11418355515E+04  0.00000000000E+00 0.  1.
         21   -1    0    0  501  503 -0.00000000000E+00 -0.00000000000E+00 -0.17749001454E+03  0.17749001454E+03  0.00000000000E+00 0.  1.
          6    1    1    2  501    0 -0.48222719264E+02 -0.28209971394E+02 -0.12192265772E+03  0.21810632179E+03  0.17200000000E+03 0.  1.
         -6    1    1    2    0  502  0.48222719264E+02  0.28209971394E+02  0.10862681946E+04  0.11012192442E+04  0.17200000000E+03 0.  1.
<mgrwt>
<rscale>  2 0.18084588E+03</rscale>
<asrwt>0</asrwt>
<pdfrwt beam="1">  1       21 0.28545887E+00 0.18084588E+03</pdfrwt>
<pdfrwt beam="2">  1       21 0.44372507E-01 0.18084588E+03</pdfrwt>
<totfact> 0.20567528E+02</totfact>
</mgrwt>
</event>
<event>
 4    1  0.1101825E+000  0.2209057E+03  0.7546771E-02  0.1133210E+00
         21   -1    0    0  503  502  0.00000000000E+00  0.00000000000E+00  0.45145548119E+03  0.45145548119E+03  0.00000000000E+00 0.  1.
         21   -1    0    0  501  503 -0.00000000000E+00 -0.00000000000E+00 -0.17414869384E+03  0.17414869384E+03  0.00000000000E+00 0. -1.
          6    1    1    2  501    0 -0.10225665192E+03  0.93589129200E+02 -0.53994124640E+02  0.22740869258E+03  0.17200000000E+03 0.  1.
         -6    1    1    2    0  502  0.10225665192E+03 -0.93589129200E+02  0.33130091199E+03  0.39819548246E+03  0.17200000000E+03 0.  1.
<mgrwt>
<rscale>  2 0.22090574E+03</rscale>
<asrwt>0</asrwt>
<pdfrwt beam="1">  1       21 0.11286387E+00 0.22090574E+03</pdfrwt>
<pdfrwt beam="2">  1       21 0.43537174E-01 0.22090574E+03</pdfrwt>
<totfact> 0.30393777E+03</totfact>
</mgrwt>
</event>
<event>
 4    1  0.1101825E+000  0.1912619E+03  0.7546771E-02  0.1157328E+00
         21   -1    0    0  501  502  0.00000000000E+00  0.00000000000E+00  0.76725389775E+02  0.76725389775E+02  0.00000000000E+00 0.  1.
         21   -1    0    0  502  503 -0.00000000000E+00 -0.00000000000E+00 -0.55285814760E+03  0.55285814760E+03  0.00000000000E+00 0.  1.
          6    1    1    2  501    0  0.38967773129E+02 -0.74017782536E+02 -0.12129217462E+03  0.22647938338E+03  0.17200000000E+03 0.  1.
         -6    1    1    2    0  503 -0.38967773129E+02  0.74017782536E+02 -0.35484058321E+03  0.40310415400E+03  0.17200000000E+03 0.  1.
<mgrwt>
<rscale>  2 0.19126191E+03</rscale>
<asrwt>0</asrwt>
<pdfrwt beam="1">  1       21 0.19181348E-01 0.19126191E+03</pdfrwt>
<pdfrwt beam="2">  1       21 0.13821453E+00 0.19126191E+03</pdfrwt>
<totfact> 0.92397101E+03</totfact>
</mgrwt>
</event>
<event>
 4    1  0.1101825E+000  0.2198729E+03  0.7546771E-02  0.1133978E+00
         21   -1    0    0  503  502  0.00000000000E+00  0.00000000000E+00  0.12067726027E+03  0.12067726027E+03  0.00000000000E+00 0. -1.
         21   -1    0    0  501  503 -0.00000000000E+00 -0.00000000000E+00 -0.64506227775E+03  0.64506227775E+03  0.00000000000E+00 0. -1.
          6    1    1    2  501    0  0.87073679405E+02  0.10572729576E+03 -0.49788756139E+03  0.54427576696E+03  0.17200000000E+03 0. -1.
         -6    1    1    2    0  502 -0.87073679405E+02 -0.10572729576E+03 -0.26497456087E+02  0.22146377106E+03  0.17200000000E+03 0. -1.
<mgrwt>
<rscale>  2 0.21987289E+03</rscale>
<asrwt>0</asrwt>
<pdfrwt beam="1">  1       21 0.30169316E-01 0.21987289E+03</pdfrwt>
<pdfrwt beam="2">  1       21 0.16126557E+00 0.21987289E+03</pdfrwt>
<totfact> 0.25338271E+03</totfact>
</mgrwt>
</event>
<event>
 4    1  0.1101825E+000  0.1747672E+03  0.7546771E-02  0.1172966E+00
         21   -1    0    0  501  502  0.00000000000E+00  0.00000000000E+00  0.11357482348E+03  0.11357482348E+03  0.00000000000E+00 0. -1.
         21   -1    0    0  502  503 -0.00000000000E+00 -0.00000000000E+00 -0.68137617585E+03  0.68137617585E+03  0.00000000000E+00 0. -1.
          6    1    1    2  501    0 -0.35133898343E+01 -0.30777331597E+02  0.25343084449E+02  0.17659518673E+03  0.17200000000E+03 0. -1.
         -6    1    1    2    0  503  0.35133898343E+01  0.30777331597E+02 -0.59314443682E+03  0.61835581260E+03  0.17200000000E+03 0. -1.
<mgrwt>
<rscale>  2 0.17476724E+03</rscale>
<asrwt>0</asrwt>
<pdfrwt beam="1">  1       21 0.28393706E-01 0.17476724E+03</pdfrwt>
<pdfrwt beam="2">  1       21 0.17034404E+00 0.17476724E+03</pdfrwt>
<totfact> 0.25615123E+03</totfact>
</mgrwt>
</event>
<event>
 4    1  0.1101825E+000  0.2741126E+03  0.7546771E-02  0.1098949E+00
         21   -1    0    0  503  502  0.00000000000E+00  0.00000000000E+00  0.16353564246E+03  0.16353564246E+03  0.00000000000E+00 0.  1.
         21   -1    0    0  501  503 -0.00000000000E+00 -0.00000000000E+00 -0.48733403849E+03  0.48733403849E+03  0.00000000000E+00 0.  1.
          6    1    1    2  501    0  0.18498699492E+03 -0.10645910208E+03 -0.84065502003E+02  0.28671368529E+03  0.17200000000E+03 0.  1.
         -6    1    1    2    0  502 -0.18498699492E+03  0.10645910208E+03 -0.23973289402E+03  0.36415599567E+03  0.17200000000E+03 0.  1.
<mgrwt>
<rscale>  2 0.27411262E+03</rscale>
<asrwt>0</asrwt>
<pdfrwt beam="1">  1       21 0.40883911E-01 0.27411262E+03</pdfrwt>
<pdfrwt beam="2">  1       21 0.12183351E+00 0.27411262E+03</pdfrwt>
<totfact> 0.27562642E+03</totfact>
</mgrwt>
</event>
<event>
 4    1  0.1101825E+000  0.2157850E+03  0.7546771E-02  0.1137065E+00
         21   -1    0    0  503  502  0.00000000000E+00  0.00000000000E+00  0.48361646783E+03  0.48361646783E+03  0.00000000000E+00 0.  1.
         21   -1    0    0  501  503 -0.00000000000E+00 -0.00000000000E+00 -0.99697237230E+02  0.99697237230E+02  0.00000000000E+00 0.  1.
          6    1    1    2  501    0 -0.12397718260E+03 -0.40110401352E+02  0.24594675416E+03  0.32718953526E+03  0.17200000000E+03 0.  1.
         -6    1    1    2    0  502  0.12397718260E+03  0.40110401352E+02  0.13797247644E+03  0.25612416980E+03  0.17200000000E+03 0.  1.
<mgrwt>
<rscale>  2 0.21578505E+03</rscale>
<asrwt>0</asrwt>
<pdfrwt beam="1">  1       21 0.12090411E+00 0.21578505E+03</pdfrwt>
<pdfrwt beam="2">  1       21 0.24924311E-01 0.21578505E+03</pdfrwt>
<totfact> 0.77638856E+03</totfact>
</mgrwt>
</event>
<event>
 4    1  0.1101825E+000  0.2357158E+03  0.7546771E-02  0.1122680E+00
         21   -1    0    0  503  502  0.00000000000E+00  0.00000000000E+00  0.47053171848E+03  0.47053171848E+03  0.00000000000E+00 0. -1.
         21   -1    0    0  501  503 -0.00000000000E+00 -0.00000000000E+00 -0.12145855162E+03  0.12145855162E+03  0.00000000000E+00 0. -1.
          6    1    1    2  501    0 -0.52106138644E+02  0.15252173987E+03  0.22387947469E+03  0.32509067966E+03  0.17200000000E+03 0. -1.
         -6    1    1    2    0  502  0.52106138644E+02 -0.15252173987E+03  0.12519369217E+03  0.26689959044E+03  0.17200000000E+03 0. -1.
<mgrwt>
<rscale>  2 0.23571578E+03</rscale>
<asrwt>0</asrwt>
<pdfrwt beam="1">  1       21 0.11763293E+00 0.23571578E+03</pdfrwt>
<pdfrwt beam="2">  1       21 0.30364639E-01 0.23571578E+03</pdfrwt>
<totfact> 0.55929809E+03</totfact>
</mgrwt>
</event>
<event>
 4    1  0.1101825E+000  0.1811506E+03  0.7546771E-02  0.1166694E+00
         21   -1    0    0  503  502  0.00000000000E+00  0.00000000000E+00  0.50326968613E+02  0.50326968613E+02  0.00000000000E+00 0. -1.
         21   -1    0    0  501  503 -0.00000000000E+00 -0.00000000000E+00 -0.12584184613E+04  0.12584184613E+04  0.00000000000E+00 0. -1.
          6    1    1    2  501    0 -0.47000991274E+02  0.31975443744E+02 -0.10582824345E+04  0.10736746404E+04  0.17200000000E+03 0. -1.
         -6    1    1    2    0  502  0.47000991274E+02 -0.31975443744E+02 -0.14980905817E+03  0.23507078954E+03  0.17200000000E+03 0. -1.
<mgrwt>
<rscale>  2 0.18115055E+03</rscale>
<asrwt>0</asrwt>
<pdfrwt beam="1">  1       21 0.12581743E-01 0.18115055E+03</pdfrwt>
<pdfrwt beam="2">  1       21 0.31460461E+00 0.18115055E+03</pdfrwt>
<totfact> 0.15402565E+03</totfact>
</mgrwt>
</event>
<event>
 4    1  0.1101825E+000  0.1906695E+03  0.7546771E-02  0.1157859E+00
         21   -1    0    0  503  502  0.00000000000E+00  0.00000000000E+00  0.40494702161E+03  0.40494702161E+03  0.00000000000E+00 0.  1.
         21   -1    0    0  501  503 -0.00000000000E+00 -0.00000000000E+00 -0.11198887054E+03  0.11198887054E+03  0.00000000000E+00 0.  1.
          6    1    1    2  501    0  0.54981613652E+01  0.82101276904E+02  0.31368893451E+02  0.19323264974E+03  0.17200000000E+03 0.  1.
         -6    1    1    2    0  502 -0.54981613652E+01 -0.82101276904E+02  0.26158925762E+03  0.32370324242E+03  0.17200000000E+03 0.  1.
<mgrwt>
<rscale>  2 0.19066948E+03</rscale>
<asrwt>0</asrwt>
<pdfrwt beam="1">  1       21 0.10123675E+00 0.19066948E+03</pdfrwt>
<pdfrwt beam="2">  1       21 0.27997219E-01 0.19066948E+03</pdfrwt>
<totfact> 0.97296092E+03</totfact>
</mgrwt>
</event>
<event>
 4    1  0.1101825E+000  0.1799201E+03  0.7546771E-02  0.1167880E+00
         21   -1    0    0  501  502  0.00000000000E+00  0.00000000000E+00  0.73268119939E+03  0.73268119939E+03  0.00000000000E+00 0.  1.
         21   -1    0    0  502  503 -0.00000000000E+00 -0.00000000000E+00 -0.59436925888E+02  0.59436925888E+02  0.00000000000E+00 0.  1.
          6    1    1    2  501    0  0.50314125277E+02 -0.15991385022E+02  0.53727182578E+03  0.56659707939E+03  0.17200000000E+03 0.  1.
         -6    1    1    2    0  503 -0.50314125277E+02  0.15991385022E+02  0.13597244771E+03  0.22552104588E+03  0.17200000000E+03 0.  1.
<mgrwt>
<rscale>  2 0.17992008E+03</rscale>
<asrwt>0</asrwt>
<pdfrwt beam="1">  1       21 0.18317027E+00 0.17992008E+03</pdfrwt>
<pdfrwt beam="2">  1       21 0.14859234E-01 0.17992008E+03</pdfrwt>
<totfact> 0.69886626E+03</totfact>
</mgrwt>
</event>
<event>
 4    1  0.1101825E+000  0.1796594E+03  0.7546771E-02  0.1168133E+00
         21   -1    0    0  501  502  0.00000000000E+00  0.00000000000E+00  0.88702051653E+03  0.88702051653E+03  0.00000000000E+00 0.  1.
         21   -1    0    0  502  503 -0.00000000000E+00 -0.00000000000E+00 -0.37555637563E+02  0.37555637563E+02  0.00000000000E+00 0.  1.
          6    1    1    2  501    0 -0.15908175562E+02  0.49400537625E+02  0.50622301549E+03  0.53715847250E+03  0.17200000000E+03 0.  1.
         -6    1    1    2    0  503  0.15908175562E+02 -0.49400537625E+02  0.34324186348E+03  0.38741768159E+03  0.17200000000E+03 0.  1.
<mgrwt>
<rscale>  2 0.17965935E+03</rscale>
<asrwt>0</asrwt>
<pdfrwt beam="1">  1       21 0.22175506E+00 0.17965935E+03</pdfrwt>
<pdfrwt beam="2">  1       21 0.93889123E-02 0.17965935E+03</pdfrwt>
<totfact> 0.90071054E+03</totfact>
</mgrwt>
</event>
<event>
 4    1  0.1101825E+000  0.1720107E+03  0.7546771E-02  0.1175767E+00
         21   -1    0    0  501  502  0.00000000000E+00  0.00000000000E+00  0.10086296258E+03  0.10086296258E+03  0.00000000000E+00 0.  1.
         21   -1    0    0  502  503 -0.00000000000E+00 -0.00000000000E+00 -0.42733505004E+03  0.42733505004E+03  0.00000000000E+00 0.  1.
          6    1    1    2  501    0  0.10619751466E+01  0.15976265445E+01 -0.15353051013E+02  0.17269451751E+03  0.17200000000E+03 0.  1.
         -6    1    1    2    0  503 -0.10619751466E+01 -0.15976265445E+01 -0.31111903644E+03  0.35550349511E+03  0.17200000000E+03 0.  1.
<mgrwt>
<rscale>  2 0.17201070E+03</rscale>
<asrwt>0</asrwt>
<pdfrwt beam="1">  1       21 0.25215741E-01 0.17201070E+03</pdfrwt>
<pdfrwt beam="2">  1       21 0.10683376E+00 0.17201070E+03</pdfrwt>
<totfact> 0.10599394E+04</totfact>
</mgrwt>
</event>
<event>
 4    1  0.1101825E+000  0.1738610E+03  0.7546771E-02  0.1173880E+00
         21   -1    0    0  501  502  0.00000000000E+00  0.00000000000E+00  0.67481641608E+02  0.67481641608E+02  0.00000000000E+00 0.  1.
         21   -1    0    0  502  503 -0.00000000000E+00 -0.00000000000E+00 -0.55792294857E+03  0.55792294857E+03  0.00000000000E+00 0.  1.
          6    1    1    2  501    0 -0.22653301650E+02  0.11422524065E+02 -0.10638244914E+03  0.20382559117E+03  0.17200000000E+03 0.  1.
         -6    1    1    2    0  503  0.22653301650E+02 -0.11422524065E+02 -0.38405885782E+03  0.42157899900E+03  0.17200000000E+03 0.  1.
<mgrwt>
<rscale>  2 0.17386100E+03</rscale>
<asrwt>0</asrwt>
<pdfrwt beam="1">  1       21 0.16870411E-01 0.17386100E+03</pdfrwt>
<pdfrwt beam="2">  1       21 0.13948073E+00 0.17386100E+03</pdfrwt>
<totfact> 0.11591516E+04</totfact>
</mgrwt>
</event>
<event>
 4    1  0.1101825E+000  0.2069889E+03  0.7546771E-02  0.1143973E+00
         21   -1    0    0  503  502  0.00000000000E+00  0.00000000000E+00  0.19799889282E+03  0.19799889282E+03  0.00000000000E+00 0.  1.
         21   -1    0    0  501  503 -0.00000000000E+00 -0.00000000000E+00 -0.23118093925E+03  0.23118093925E+03  0.00000000000E+00 0.  1.
          6    1    1    2  501    0 -0.11033062981E+03  0.32977965295E+02  0.37693327319E+02  0.21039292049E+03  0.17200000000E+03 0.  1.
         -6    1    1    2    0  502  0.11033062981E+03 -0.32977965295E+02 -0.70875373753E+02  0.21878691157E+03  0.17200000000E+03 0.  1.
<mgrwt>
<rscale>  2 0.20698887E+03</rscale>
<asrwt>0</asrwt>
<pdfrwt beam="1">  1       21 0.49499723E-01 0.20698887E+03</pdfrwt>
<pdfrwt beam="2">  1       21 0.57795235E-01 0.20698887E+03</pdfrwt>
<totfact> 0.10818850E+04</totfact>
</mgrwt>
</event>
<event>
 4    1  0.1101825E+000  0.1798008E+03  0.7546771E-02  0.1167996E+00
         21   -1    0    0  503  502  0.00000000000E+00  0.00000000000E+00  0.21156634480E+03  0.21156634480E+03  0.00000000000E+00 0.  1.
         21   -1    0    0  501  503 -0.00000000000E+00 -0.00000000000E+00 -0.16426567347E+03  0.16426567347E+03  0.00000000000E+00 0.  1.
          6    1    1    2  501    0  0.61539492689E+01 -0.52023609155E+02 -0.25986210989E+02  0.18166895762E+03  0.17200000000E+03 0.  1.
         -6    1    1    2    0  502 -0.61539492689E+01  0.52023609155E+02  0.73286882314E+02  0.19416306065E+03  0.17200000000E+03 0.  1.
<mgrwt>
<rscale>  2 0.17980080E+03</rscale>
<asrwt>0</asrwt>
<pdfrwt beam="1">  1       21 0.52891586E-01 0.17980080E+03</pdfrwt>
<pdfrwt beam="2">  1       21 0.41066418E-01 0.17980080E+03</pdfrwt>
<totfact> 0.19494697E+04</totfact>
</mgrwt>
</event>
<event>
 4    1  0.1101825E+000  0.1819634E+03  0.7546771E-02  0.1165916E+00
         21   -1    0    0  503  502  0.00000000000E+00  0.00000000000E+00  0.98429578519E+02  0.98429578519E+02  0.00000000000E+00 0.  1.
         21   -1    0    0  501  503 -0.00000000000E+00 -0.00000000000E+00 -0.48230904129E+03  0.48230904129E+03  0.00000000000E+00 0.  1.
          6    1    1    2  501    0  0.59090189658E+02 -0.59177302094E+01 -0.35165441274E+03  0.39594380415E+03  0.17200000000E+03 0.  1.
         -6    1    1    2    0  502 -0.59090189658E+02  0.59177302094E+01 -0.32225050028E+02  0.18479481566E+03  0.17200000000E+03 0.  1.
<mgrwt>
<rscale>  2 0.18196338E+03</rscale>
<asrwt>0</asrwt>
<pdfrwt beam="1">  1       21 0.24607395E-01 0.18196338E+03</pdfrwt>
<pdfrwt beam="2">  1       21 0.12057726E+00 0.18196338E+03</pdfrwt>
<totfact> 0.82124850E+03</totfact>
</mgrwt>
</event>
<event>
 4    1  0.1101825E+000  0.1884834E+03  0.7546771E-02  0.1159836E+00
         21   -1    0    0  503  502  0.00000000000E+00  0.00000000000E+00  0.50078185057E+03  0.50078185057E+03  0.00000000000E+00 0. -1.
         21   -1    0    0  501  503 -0.00000000000E+00 -0.00000000000E+00 -0.10623758780E+03  0.10623758780E+03  0.00000000000E+00 0.  1.
          6    1    1    2  501    0  0.73720822366E+02 -0.22521982595E+02  0.22327973119E+02  0.18980131120E+03  0.17200000000E+03 0.  1.
         -6    1    1    2    0  502 -0.73720822366E+02  0.22521982595E+02  0.37221628966E+03  0.41721812717E+03  0.17200000000E+03 0. -1.
<mgrwt>
<rscale>  2 0.18848342E+03</rscale>
<asrwt>0</asrwt>
<pdfrwt beam="1">  1       21 0.12519546E+00 0.18848342E+03</pdfrwt>
<pdfrwt beam="2">  1       21 0.26559398E-01 0.18848342E+03</pdfrwt>
<totfact> 0.64307098E+03</totfact>
</mgrwt>
</event>
<event>
 4    1  0.1101825E+000  0.1752809E+03  0.7546771E-02  0.1172450E+00
         21   -1    0    0  501  502  0.00000000000E+00  0.00000000000E+00  0.14546113815E+03  0.14546113815E+03  0.00000000000E+00 0. -1.
         21   -1    0    0  502  503 -0.00000000000E+00 -0.00000000000E+00 -0.13236126388E+04  0.13236126388E+04  0.00000000000E+00 0. -1.
          6    1    1    2  501    0 -0.22527103454E+02 -0.25137976487E+02  0.84309248196E+02  0.19450305289E+03  0.17200000000E+03 0. -1.
         -6    1    1    2    0  503  0.22527103454E+02  0.25137976487E+02 -0.12624607488E+04  0.12745707240E+04  0.17200000000E+03 0. -1.
<mgrwt>
<rscale>  2 0.17528088E+03</rscale>
<asrwt>0</asrwt>
<pdfrwt beam="1">  1       21 0.36365286E-01 0.17528088E+03</pdfrwt>
<pdfrwt beam="2">  1       21 0.33090315E+00 0.17528088E+03</pdfrwt>
<totfact> 0.17004472E+02</totfact>
</mgrwt>
</event>
<event>
 4    1  0.1101825E+000  0.1800056E+03  0.7546771E-02  0.1167798E+00
         21   -1    0    0  503  502  0.00000000000E+00  0.00000000000E+00  0.69437314821E+03  0.69437314821E+03  0.00000000000E+00 0.  1.
         21   -1    0    0  501  503 -0.00000000000E+00 -0.00000000000E+00 -0.82664164540E+02  0.82664164540E+02  0.00000000000E+00 0.  1.
          6    1    1    2  501    0  0.11222529723E+02 -0.51885018243E+02  0.49460724501E+02  0.18667716400E+03  0.17200000000E+03 0.  1.
         -6    1    1    2    0  502 -0.11222529723E+02  0.51885018243E+02  0.56224825917E+03  0.59036014875E+03  0.17200000000E+03 0.  1.
<mgrwt>
<rscale>  2 0.18000556E+03</rscale>
<asrwt>0</asrwt>
<pdfrwt beam="1">  1       21 0.17359327E+00 0.18000556E+03</pdfrwt>
<pdfrwt beam="2">  1       21 0.20666043E-01 0.18000556E+03</pdfrwt>
<totfact> 0.44234918E+03</totfact>
</mgrwt>
</event>
<event>
 4    1  0.1101825E+000  0.1726064E+03  0.7546771E-02  0.1175157E+00
         21   -1    0    0  503  502  0.00000000000E+00  0.00000000000E+00  0.29142480735E+03  0.29142480735E+03  0.00000000000E+00 0.  1.
         21   -1    0    0  501  503 -0.00000000000E+00 -0.00000000000E+00 -0.13715041209E+03  0.13715041209E+03  0.00000000000E+00 0.  1.
          6    1    1    2  501    0  0.14378817476E+02  0.14935644736E+01 -0.30987495234E+02  0.17536592026E+03  0.17200000000E+03 0. -1.
         -6    1    1    2    0  502 -0.14378817476E+02 -0.14935644736E+01  0.18526189049E+03  0.25320929919E+03  0.17200000000E+03 0. -1.
<mgrwt>
<rscale>  2 0.17260643E+03</rscale>
<asrwt>0</asrwt>
<pdfrwt beam="1">  1       21 0.72856201E-01 0.17260643E+03</pdfrwt>
<pdfrwt beam="2">  1       21 0.34287604E-01 0.17260643E+03</pdfrwt>
<totfact> 0.14087120E+04</totfact>
</mgrwt>
</event>
<event>
 4    1  0.1101825E+000  0.1755487E+03  0.7546771E-02  0.1172182E+00
         21   -1    0    0  501  502  0.00000000000E+00  0.00000000000E+00  0.10823584661E+04  0.10823584661E+04  0.00000000000E+00 0.  1.
         21   -1    0    0  502  503 -0.00000000000E+00 -0.00000000000E+00 -0.32769337584E+02  0.32769337584E+02  0.00000000000E+00 0.  1.
          6    1    1    2  501    0  0.19797494602E+02  0.29006839180E+02  0.72669655688E+03  0.74759964105E+03  0.17200000000E+03 0.  1.
         -6    1    1    2    0  503 -0.19797494602E+02 -0.29006839180E+02  0.32289257160E+03  0.36752816261E+03  0.17200000000E+03 0.  1.
<mgrwt>
<rscale>  2 0.17554868E+03</rscale>
<asrwt>0</asrwt>
<pdfrwt beam="1">  1       21 0.27058950E+00 0.17554868E+03</pdfrwt>
<pdfrwt beam="2">  1       21 0.81923380E-02 0.17554868E+03</pdfrwt>
<totfact> 0.59184757E+03</totfact>
</mgrwt>
</event>
<event>
 4    1  0.1101825E+000  0.1913801E+03  0.7546771E-02  0.1157222E+00
         21   -1    0    0  503  502  0.00000000000E+00  0.00000000000E+00  0.83890476591E+02  0.83890476591E+02  0.00000000000E+00 0. -1.
         21   -1    0    0  501  503 -0.00000000000E+00 -0.00000000000E+00 -0.56656694116E+03  0.56656694116E+03  0.00000000000E+00 0. -1.
          6    1    1    2  501    0 -0.47616756524E+02  0.69101185911E+02 -0.39710856277E+03  0.44081916930E+03  0.17200000000E+03 0. -1.
         -6    1    1    2    0  502  0.47616756524E+02 -0.69101185911E+02 -0.85567901802E+02  0.20963824845E+03  0.17200000000E+03 0. -1.
<mgrwt>
<rscale>  2 0.19138007E+03</rscale>
<asrwt>0</asrwt>
<pdfrwt beam="1">  1       21 0.20972620E-01 0.19138007E+03</pdfrwt>
<pdfrwt beam="2">  1       21 0.14164173E+00 0.19138007E+03</pdfrwt>
<totfact> 0.73401581E+03</totfact>
</mgrwt>
</event>
<event>
 4    1  0.1101825E+000  0.3013736E+03  0.7546771E-02  0.1084556E+00
         21   -1    0    0  503  502  0.00000000000E+00  0.00000000000E+00  0.63868843152E+03  0.63868843152E+03  0.00000000000E+00 0.  1.
         21   -1    0    0  501  503 -0.00000000000E+00 -0.00000000000E+00 -0.17481380303E+03  0.17481380303E+03  0.00000000000E+00 0. -1.
          6    1    1    2  501    0  0.11565946107E+03 -0.21878062741E+03  0.56268820642E+02  0.30658156181E+03  0.17200000000E+03 0. -1.
         -6    1    1    2    0  502 -0.11565946107E+03  0.21878062741E+03  0.40760580784E+03  0.50692067274E+03  0.17200000000E+03 0.  1.
<mgrwt>
<rscale>  2 0.30137364E+03</rscale>
<asrwt>0</asrwt>
<pdfrwt beam="1">  1       21 0.15967210E+00 0.30137364E+03</pdfrwt>
<pdfrwt beam="2">  1       21 0.43703452E-01 0.30137364E+03</pdfrwt>
<totfact> 0.11632028E+03</totfact>
</mgrwt>
</event>
<event>
 4    1  0.1101825E+000  0.2098155E+03  0.7546771E-02  0.1141712E+00
         21   -1    0    0  501  502  0.00000000000E+00  0.00000000000E+00  0.97809386396E+02  0.97809386396E+02  0.00000000000E+00 0. -1.
         21   -1    0    0  502  503 -0.00000000000E+00 -0.00000000000E+00 -0.47222585130E+03  0.47222585130E+03  0.00000000000E+00 0. -1.
          6    1    1    2  501    0  0.10063986273E+03  0.65651932486E+02 -0.24892340208E+03  0.32555401750E+03  0.17200000000E+03 0. -1.
         -6    1    1    2    0  503 -0.10063986273E+03 -0.65651932486E+02 -0.12549306283E+03  0.24448122020E+03  0.17200000000E+03 0. -1.
<mgrwt>
<rscale>  2 0.20981553E+03</rscale>
<asrwt>0</asrwt>
<pdfrwt beam="1">  1       21 0.24452347E-01 0.20981553E+03</pdfrwt>
<pdfrwt beam="2">  1       21 0.11805646E+00 0.20981553E+03</pdfrwt>
<totfact> 0.85798622E+03</totfact>
</mgrwt>
</event>
<event>
 4    1  0.1101825E+000  0.1823175E+03  0.7546771E-02  0.1165579E+00
         21   -1    0    0  501  502  0.00000000000E+00  0.00000000000E+00  0.11112860017E+04  0.11112860017E+04  0.00000000000E+00 0. -1.
         21   -1    0    0  502  503 -0.00000000000E+00 -0.00000000000E+00 -0.44602110625E+02  0.44602110625E+02  0.00000000000E+00 0. -1.
          6    1    1    2  501    0  0.34204337680E+02 -0.49857152519E+02  0.20164959671E+03  0.27184965004E+03  0.17200000000E+03 0. -1.
         -6    1    1    2    0  503 -0.34204337680E+02  0.49857152519E+02  0.86503429435E+03  0.88403846227E+03  0.17200000000E+03 0. -1.
<mgrwt>
<rscale>  2 0.18231750E+03</rscale>
<asrwt>0</asrwt>
<pdfrwt beam="1">  1       21 0.27782141E+00 0.18231750E+03</pdfrwt>
<pdfrwt beam="2">  1       21 0.11150531E-01 0.18231750E+03</pdfrwt>
<totfact> 0.31024421E+03</totfact>
</mgrwt>
</event>
<event>
 4    1  0.1101825E+000  0.2180724E+03  0.7546771E-02  0.1135328E+00
         21   -1    0    0  503  502  0.00000000000E+00  0.00000000000E+00  0.39127732843E+03  0.39127732843E+03  0.00000000000E+00 0.  1.
         21   -1    0    0  501  503 -0.00000000000E+00 -0.00000000000E+00 -0.17282694926E+03  0.17282694926E+03  0.00000000000E+00 0. -1.
          6    1    1    2  501    0  0.98164330486E+02 -0.91297946520E+02 -0.44424008557E+02  0.22255121513E+03  0.17200000000E+03 0. -1.
         -6    1    1    2    0  502 -0.98164330486E+02  0.91297946520E+02  0.26287438773E+03  0.34155306256E+03  0.17200000000E+03 0.  1.
<mgrwt>
<rscale>  2 0.21807235E+03</rscale>
<asrwt>0</asrwt>
<pdfrwt beam="1">  1       21 0.97819331E-01 0.21807235E+03</pdfrwt>
<pdfrwt beam="2">  1       21 0.43206738E-01 0.21807235E+03</pdfrwt>
<totfact> 0.43664950E+03</totfact>
</mgrwt>
</event>
<event>
 4    1  0.1101825E+000  0.2833058E+03  0.7546771E-02  0.1093897E+00
         21   -1    0    0  501  502  0.00000000000E+00  0.00000000000E+00  0.43949066371E+03  0.43949066371E+03  0.00000000000E+00 0. -1.
         21   -1    0    0  502  503 -0.00000000000E+00 -0.00000000000E+00 -0.20722304198E+03  0.20722304198E+03  0.00000000000E+00 0.  1.
          6    1    1    2  501    0 -0.74114323641E+02  0.21256826279E+03  0.22753990806E+03  0.36336842058E+03  0.17200000000E+03 0. -1.
         -6    1    1    2    0  503  0.74114323641E+02 -0.21256826279E+03  0.47277136744E+01  0.28334528511E+03  0.17200000000E+03 0.  1.
<mgrwt>
<rscale>  2 0.28330584E+03</rscale>
<asrwt>0</asrwt>
<pdfrwt beam="1">  1       21 0.10987266E+00 0.28330584E+03</pdfrwt>
<pdfrwt beam="2">  1       21 0.51805761E-01 0.28330584E+03</pdfrwt>
<totfact> 0.21633812E+03</totfact>
</mgrwt>
</event>
<event>
 4    1  0.1101825E+000  0.2304891E+03  0.7546771E-02  0.1126296E+00
         21   -1    0    0  503  502  0.00000000000E+00  0.00000000000E+00  0.51591540873E+03  0.51591540873E+03  0.00000000000E+00 0.  1.
         21   -1    0    0  501  503 -0.00000000000E+00 -0.00000000000E+00 -0.10338846391E+03  0.10338846391E+03  0.00000000000E+00 0.  1.
          6    1    1    2  501    0  0.65610694390E+02  0.13869549305E+03  0.22589982151E+03  0.32273198225E+03  0.17200000000E+03 0.  1.
         -6    1    1    2    0  502 -0.65610694390E+02 -0.13869549305E+03  0.18662712331E+03  0.29657189039E+03  0.17200000000E+03 0.  1.
<mgrwt>
<rscale>  2 0.23048905E+03</rscale>
<asrwt>0</asrwt>
<pdfrwt beam="1">  1       21 0.12897885E+00 0.23048905E+03</pdfrwt>
<pdfrwt beam="2">  1       21 0.25847117E-01 0.23048905E+03</pdfrwt>
<totfact> 0.60916070E+03</totfact>
</mgrwt>
</event>
<event>
 4    1  0.1101825E+000  0.2369445E+03  0.7546771E-02  0.1121845E+00
         21   -1    0    0  501  502  0.00000000000E+00  0.00000000000E+00  0.38170769537E+03  0.38170769537E+03  0.00000000000E+00 0. -1.
         21   -1    0    0  502  503 -0.00000000000E+00 -0.00000000000E+00 -0.31370484341E+03  0.31370484341E+03  0.00000000000E+00 0. -1.
          6    1    1    2  501    0 -0.18609689726E+02 -0.16190238558E+03  0.28740801950E+03  0.37248633892E+03  0.17200000000E+03 0. -1.
         -6    1    1    2    0  503  0.18609689726E+02  0.16190238558E+03 -0.21940516754E+03  0.32292619986E+03  0.17200000000E+03 0. -1.
<mgrwt>
<rscale>  2 0.23694451E+03</rscale>
<asrwt>0</asrwt>
<pdfrwt beam="1">  1       21 0.95426924E-01 0.23694451E+03</pdfrwt>
<pdfrwt beam="2">  1       21 0.78426211E-01 0.23694451E+03</pdfrwt>
<totfact> 0.12672047E+03</totfact>
</mgrwt>
</event>
<event>
 4    1  0.1101825E+000  0.2508058E+03  0.7546771E-02  0.1112797E+00
         21   -1    0    0  503  502  0.00000000000E+00  0.00000000000E+00  0.74100268805E+03  0.74100268805E+03  0.00000000000E+00 0.  1.
         21   -1    0    0  501  503 -0.00000000000E+00 -0.00000000000E+00 -0.93892610243E+02  0.93892610243E+02  0.00000000000E+00 0. -1.
          6    1    1    2  501    0 -0.97263414959E+02 -0.15446476811E+03  0.19429137776E+03  0.31725805892E+03  0.17200000000E+03 0.  1.
         -6    1    1    2    0  502  0.97263414959E+02  0.15446476811E+03  0.45281870004E+03  0.51763723937E+03  0.17200000000E+03 0. -1.
<mgrwt>
<rscale>  2 0.25080577E+03</rscale>
<asrwt>0</asrwt>
<pdfrwt beam="1">  1       21 0.18525065E+00 0.25080577E+03</pdfrwt>
<pdfrwt beam="2">  1       21 0.23473155E-01 0.25080577E+03</pdfrwt>
<totfact> 0.27229575E+03</totfact>
</mgrwt>
</event>
<event>
 4    1  0.1101825E+000  0.1764461E+03  0.7546771E-02  0.1171287E+00
         21   -1    0    0  503  502  0.00000000000E+00  0.00000000000E+00  0.62702273239E+02  0.62702273239E+02  0.00000000000E+00 0. -1.
         21   -1    0    0  501  503 -0.00000000000E+00 -0.00000000000E+00 -0.49998540076E+03  0.49998540076E+03  0.00000000000E+00 0. -1.
          6    1    1    2  501    0 -0.24303079681E+02  0.30961269528E+02 -0.24204762171E+03  0.29953345567E+03  0.17200000000E+03 0. -1.
         -6    1    1    2    0  502  0.24303079681E+02 -0.30961269528E+02 -0.19523550581E+03  0.26315421833E+03  0.17200000000E+03 0. -1.
<mgrwt>
<rscale>  2 0.17644614E+03</rscale>
<asrwt>0</asrwt>
<pdfrwt beam="1">  1       21 0.15675569E-01 0.17644614E+03</pdfrwt>
<pdfrwt beam="2">  1       21 0.12499635E+00 0.17644614E+03</pdfrwt>
<totfact> 0.17456852E+04</totfact>
</mgrwt>
</event>
<event>
 4    1  0.1101825E+000  0.2664218E+03  0.7546771E-02  0.1103345E+00
         21   -1    0    0  501  502  0.00000000000E+00  0.00000000000E+00  0.44562230041E+03  0.44562230041E+03  0.00000000000E+00 0. -1.
         21   -1    0    0  502  503 -0.00000000000E+00 -0.00000000000E+00 -0.15979117450E+03  0.15979117450E+03  0.00000000000E+00 0. -1.
          6    1    1    2  501    0  0.11916048198E+03  0.16491614726E+03  0.12586365823E+03  0.29465609879E+03  0.17200000000E+03 0. -1.
         -6    1    1    2    0  503 -0.11916048198E+03 -0.16491614726E+03  0.15996746768E+03  0.31075737611E+03  0.17200000000E+03 0. -1.
<mgrwt>
<rscale>  2 0.26642176E+03</rscale>
<asrwt>0</asrwt>
<pdfrwt beam="1">  1       21 0.11140557E+00 0.26642176E+03</pdfrwt>
<pdfrwt beam="2">  1       21 0.39947795E-01 0.26642176E+03</pdfrwt>
<totfact> 0.36244914E+03</totfact>
</mgrwt>
</event>
<event>
 4    1  0.1101825E+000  0.2036757E+03  0.7546771E-02  0.1146674E+00
         21   -1    0    0  501  502  0.00000000000E+00  0.00000000000E+00  0.16252347851E+03  0.16252347851E+03  0.00000000000E+00 0.  1.
         21   -1    0    0  502  503 -0.00000000000E+00 -0.00000000000E+00 -0.26892386530E+03  0.26892386530E+03  0.00000000000E+00 0.  1.
          6    1    1    2  501    0  0.10456586893E+03 -0.31077159481E+02 -0.45528884285E+01  0.20372662953E+03  0.17200000000E+03 0.  1.
         -6    1    1    2    0  503 -0.10456586893E+03  0.31077159481E+02 -0.10184749836E+03  0.22772071427E+03  0.17200000000E+03 0.  1.
<mgrwt>
<rscale>  2 0.20367575E+03</rscale>
<asrwt>0</asrwt>
<pdfrwt beam="1">  1       21 0.40630870E-01 0.20367575E+03</pdfrwt>
<pdfrwt beam="2">  1       21 0.67230966E-01 0.20367575E+03</pdfrwt>
<totfact> 0.11729068E+04</totfact>
</mgrwt>
</event>
<event>
 4    1  0.1101825E+000  0.1969727E+03  0.7546771E-02  0.1152319E+00
         21   -1    0    0  501  502  0.00000000000E+00  0.00000000000E+00  0.14069534401E+03  0.14069534401E+03  0.00000000000E+00 0. -1.
         21   -1    0    0  502  503 -0.00000000000E+00 -0.00000000000E+00 -0.37343594439E+03  0.37343594439E+03  0.00000000000E+00 0.  1.
          6    1    1    2  501    0  0.74316607684E+02 -0.60755897855E+02  0.15100219384E+02  0.19755063636E+03  0.17200000000E+03 0. -1.
         -6    1    1    2    0  503 -0.74316607684E+02  0.60755897855E+02 -0.24784081977E+03  0.31658065204E+03  0.17200000000E+03 0.  1.
<mgrwt>
<rscale>  2 0.19697268E+03</rscale>
<asrwt>0</asrwt>
<pdfrwt beam="1">  1       21 0.35173836E-01 0.19697268E+03</pdfrwt>
<pdfrwt beam="2">  1       21 0.93358985E-01 0.19697268E+03</pdfrwt>
<totfact> 0.74945434E+03</totfact>
</mgrwt>
</event>
<event>
 4    1  0.1101825E+000  0.2283456E+03  0.7546771E-02  0.1127810E+00
         21   -1    0    0  503  502  0.00000000000E+00  0.00000000000E+00  0.28957770702E+03  0.28957770702E+03  0.00000000000E+00 0. -1.
         21   -1    0    0  501  503 -0.00000000000E+00 -0.00000000000E+00 -0.30327987978E+03  0.30327987978E+03  0.00000000000E+00 0.  1.
          6    1    1    2  501    0 -0.23499368937E+02 -0.14834247268E+03  0.18209454782E+03  0.29206186654E+03  0.17200000000E+03 0. -1.
         -6    1    1    2    0  502  0.23499368937E+02  0.14834247268E+03 -0.19579672057E+03  0.30079572026E+03  0.17200000000E+03 0.  1.
<mgrwt>
<rscale>  2 0.22834559E+03</rscale>
<asrwt>0</asrwt>
<pdfrwt beam="1">  1       21 0.72394427E-01 0.22834559E+03</pdfrwt>
<pdfrwt beam="2">  1       21 0.75819970E-01 0.22834559E+03</pdfrwt>
<totfact> 0.25920924E+03</totfact>
</mgrwt>
</event>
<event>
 4    1  0.1101825E+000  0.2000937E+03  0.7546771E-02  0.1149660E+00
         21   -1    0    0  503  502  0.00000000000E+00  0.00000000000E+00  0.11154743100E+04  0.11154743100E+04  0.00000000000E+00 0.  1.
         21   -1    0    0  501  503 -0.00000000000E+00 -0.00000000000E+00 -0.43963074527E+02  0.43963074527E+02  0.00000000000E+00 0.  1.
          6    1    1    2  501    0 -0.10223915844E+03 -0.79309407669E+00  0.28737485556E+03  0.35017393125E+03  0.17200000000E+03 0.  1.
         -6    1    1    2    0  502  0.10223915844E+03  0.79309407669E+00  0.78413637994E+03  0.80926345331E+03  0.17200000000E+03 0.  1.
<mgrwt>
<rscale>  2 0.20009366E+03</rscale>
<asrwt>0</asrwt>
<pdfrwt beam="1">  1       21 0.27886848E+00 0.20009366E+03</pdfrwt>
<pdfrwt beam="2">  1       21 0.10990772E-01 0.20009366E+03</pdfrwt>
<totfact> 0.30742170E+03</totfact>
</mgrwt>
</event>
<event>
 4    1  0.1101825E+000  0.2400168E+03  0.7546771E-02  0.1119782E+00
         21   -1    0    0  503  502  0.00000000000E+00  0.00000000000E+00  0.85794852348E+03  0.85794852348E+03  0.00000000000E+00 0.  1.
         21   -1    0    0  501  503 -0.00000000000E+00 -0.00000000000E+00 -0.67146313553E+02  0.67146313553E+02  0.00000000000E+00 0. -1.
          6    1    1    2  501    0 -0.98286719947E+02  0.13551301712E+03  0.39510604262E+03  0.46229518929E+03  0.17200000000E+03 0. -1.
         -6    1    1    2    0  502  0.98286719947E+02 -0.13551301712E+03  0.39569616731E+03  0.46279964774E+03  0.17200000000E+03 0.  1.
<mgrwt>
<rscale>  2 0.24001679E+03</rscale>
<asrwt>0</asrwt>
<pdfrwt beam="1">  1       21 0.21448710E+00 0.24001679E+03</pdfrwt>
<pdfrwt beam="2">  1       21 0.16786581E-01 0.24001679E+03</pdfrwt>
<totfact> 0.33260105E+03</totfact>
</mgrwt>
</event>
<event>
 4    1  0.1101825E+000  0.2307217E+03  0.7546771E-02  0.1126133E+00
         21   -1    0    0  501  502  0.00000000000E+00  0.00000000000E+00  0.13699988223E+04  0.13699988223E+04  0.00000000000E+00 0.  1.
         21   -1    0    0  502  503 -0.00000000000E+00 -0.00000000000E+00 -0.42135260700E+02  0.42135260700E+02  0.00000000000E+00 0.  1.
          6    1    1    2  501    0 -0.15122759849E+03  0.27905190485E+02  0.86091088478E+03  0.89129121937E+03  0.17200000000E+03 0.  1.
         -6    1    1    2    0  503  0.15122759849E+03 -0.27905190485E+02  0.46695267681E+03  0.52084286362E+03  0.17200000000E+03 0.  1.
<mgrwt>
<rscale>  2 0.23072166E+03</rscale>
<asrwt>0</asrwt>
<pdfrwt beam="1">  1       21 0.34249956E+00 0.23072166E+03</pdfrwt>
<pdfrwt beam="2">  1       21 0.10533820E-01 0.23072166E+03</pdfrwt>
<totfact> 0.13634444E+03</totfact>
</mgrwt>
</event>
<event>
 4    1  0.1101825E+000  0.1819866E+03  0.7546771E-02  0.1165894E+00
         21   -1    0    0  503  502  0.00000000000E+00  0.00000000000E+00  0.18862843187E+04  0.18862843187E+04  0.00000000000E+00 0. -1.
         21   -1    0    0  501  503 -0.00000000000E+00 -0.00000000000E+00 -0.18434149915E+02  0.18434149915E+02  0.00000000000E+00 0.  1.
          6    1    1    2  501    0  0.39284646490E+02  0.44630173434E+02  0.11415648547E+04  0.11559798671E+04  0.17200000000E+03 0. -1.
         -6    1    1    2    0  502 -0.39284646490E+02 -0.44630173434E+02  0.72628531414E+03  0.74873860150E+03  0.17200000000E+03 0.  1.
<mgrwt>
<rscale>  2 0.18198664E+03</rscale>
<asrwt>0</asrwt>
<pdfrwt beam="1">  1       21 0.47157042E+00 0.18198664E+03</pdfrwt>
<pdfrwt beam="2">  1       21 0.46085439E-02 0.18198664E+03</pdfrwt>
<totfact> 0.93688858E+02</totfact>
</mgrwt>
</event>
<event>
 4    1  0.1101825E+000  0.3598468E+03  0.7546771E-02  0.1058645E+00
         21   -1    0    0  503  502  0.00000000000E+00  0.00000000000E+00  0.36511902112E+03  0.36511902112E+03  0.00000000000E+00 0. -1.
         21   -1    0    0  501  503 -0.00000000000E+00 -0.00000000000E+00 -0.38528623500E+03  0.38528623500E+03  0.00000000000E+00 0.  1.
          6    1    1    2  501    0 -0.39146317951E+02  0.31364510304E+03 -0.11588404650E+03  0.37804602512E+03  0.17200000000E+03 0. -1.
         -6    1    1    2    0  502  0.39146317951E+02 -0.31364510304E+03  0.95716832618E+02  0.37235923101E+03  0.17200000000E+03 0. -1.
<mgrwt>
<rscale>  2 0.35984675E+03</rscale>
<asrwt>0</asrwt>
<pdfrwt beam="1">  1       21 0.91279755E-01 0.35984675E+03</pdfrwt>
<pdfrwt beam="2">  1       21 0.96321559E-01 0.35984675E+03</pdfrwt>
<totfact> 0.80496278E+02</totfact>
</mgrwt>
</event>
<event>
 4    1  0.1101825E+000  0.1756789E+03  0.7546771E-02  0.1172052E+00
         21   -1    0    0  501  502  0.00000000000E+00  0.00000000000E+00  0.75520304047E+02  0.75520304047E+02  0.00000000000E+00 0. -1.
         21   -1    0    0  502  503 -0.00000000000E+00 -0.00000000000E+00 -0.40872667969E+03  0.40872667969E+03  0.00000000000E+00 0. -1.
          6    1    1    2  501    0  0.22499158492E+02  0.27800161206E+02 -0.16939436756E+03  0.24404407974E+03  0.17200000000E+03 0. -1.
         -6    1    1    2    0  503 -0.22499158492E+02 -0.27800161206E+02 -0.16381200808E+03  0.24020290400E+03  0.17200000000E+03 0. -1.
<mgrwt>
<rscale>  2 0.17567886E+03</rscale>
<asrwt>0</asrwt>
<pdfrwt beam="1">  1       21 0.18880076E-01 0.17567886E+03</pdfrwt>
<pdfrwt beam="2">  1       21 0.10218167E+00 0.17567886E+03</pdfrwt>
<totfact> 0.20254079E+04</totfact>
</mgrwt>
</event>
<event>
 4    1  0.1101825E+000  0.2184843E+03  0.7546771E-02  0.1135018E+00
         21   -1    0    0  501  502  0.00000000000E+00  0.00000000000E+00  0.20568138542E+03  0.20568138542E+03  0.00000000000E+00 0.  1.
         21   -1    0    0  502  503 -0.00000000000E+00 -0.00000000000E+00 -0.45151605685E+03  0.45151605685E+03  0.00000000000E+00 0.  1.
          6    1    1    2  501    0 -0.51249617456E+02  0.12459887294E+03  0.10615840292E+03  0.24290946655E+03  0.17200000000E+03 0.  1.
         -6    1    1    2    0  503  0.51249617456E+02 -0.12459887294E+03 -0.35199307435E+03  0.41428797571E+03  0.17200000000E+03 0.  1.
<mgrwt>
<rscale>  2 0.21848433E+03</rscale>
<asrwt>0</asrwt>
<pdfrwt beam="1">  1       21 0.51420347E-01 0.21848433E+03</pdfrwt>
<pdfrwt beam="2">  1       21 0.11287901E+00 0.21848433E+03</pdfrwt>
<totfact> 0.21552407E+03</totfact>
</mgrwt>
</event>
<event>
 4    1  0.1101825E+000  0.1905535E+03  0.7546771E-02  0.1157963E+00
         21   -1    0    0  501  502  0.00000000000E+00  0.00000000000E+00  0.53315863561E+03  0.53315863561E+03  0.00000000000E+00 0. -1.
         21   -1    0    0  502  503 -0.00000000000E+00 -0.00000000000E+00 -0.70884414640E+02  0.70884414640E+02  0.00000000000E+00 0. -1.
          6    1    1    2  501    0 -0.24164725968E+02 -0.78375280554E+02  0.17132884459E+03  0.25625025185E+03  0.17200000000E+03 0. -1.
         -6    1    1    2    0  503  0.24164725968E+02  0.78375280554E+02  0.29094537638E+03  0.34779279840E+03  0.17200000000E+03 0. -1.
<mgrwt>
<rscale>  2 0.19055345E+03</rscale>
<asrwt>0</asrwt>
<pdfrwt beam="1">  1       21 0.13328965E+00 0.19055345E+03</pdfrwt>
<pdfrwt beam="2">  1       21 0.17721105E-01 0.19055345E+03</pdfrwt>
<totfact> 0.11743628E+04</totfact>
</mgrwt>
</event>
<event>
 4    1  0.1101825E+000  0.1816996E+03  0.7546771E-02  0.1166168E+00
         21   -1    0    0  501  502  0.00000000000E+00  0.00000000000E+00  0.33400535811E+03  0.33400535811E+03  0.00000000000E+00 0.  1.
         21   -1    0    0  502  503 -0.00000000000E+00 -0.00000000000E+00 -0.14383345653E+03  0.14383345653E+03  0.00000000000E+00 0. -1.
          6    1    1    2  501    0 -0.55928214026E+02 -0.17400667240E+02  0.22870616999E+03  0.29209803241E+03  0.17200000000E+03 0.  1.
         -6    1    1    2    0  503  0.55928214026E+02  0.17400667240E+02 -0.38534268406E+02  0.18574078224E+03  0.17200000000E+03 0. -1.
<mgrwt>
<rscale>  2 0.18169961E+03</rscale>
<asrwt>0</asrwt>
<pdfrwt beam="1">  1       21 0.83501338E-01 0.18169961E+03</pdfrwt>
<pdfrwt beam="2">  1       21 0.35958365E-01 0.18169961E+03</pdfrwt>
<totfact> 0.93793348E+03</totfact>
</mgrwt>
</event>
<event>
 4    1  0.1101825E+000  0.1781499E+03  0.7546771E-02  0.1169606E+00
         21   -1    0    0  501  502  0.00000000000E+00  0.00000000000E+00  0.12459608559E+04  0.12459608559E+04  0.00000000000E+00 0.  1.
         21   -1    0    0  502  503 -0.00000000000E+00 -0.00000000000E+00 -0.31217349376E+02  0.31217349376E+02  0.00000000000E+00 0.  1.
          6    1    1    2  501    0 -0.59910296325E+01  0.46016322544E+02  0.88132297089E+03  0.89914824884E+03  0.17200000000E+03 0. -1.
         -6    1    1    2    0  503  0.59910296325E+01 -0.46016322544E+02  0.33342053559E+03  0.37802995640E+03  0.17200000000E+03 0. -1.
<mgrwt>
<rscale>  2 0.17814992E+03</rscale>
<asrwt>0</asrwt>
<pdfrwt beam="1">  1       21 0.31149005E+00 0.17814992E+03</pdfrwt>
<pdfrwt beam="2">  1       21 0.78043415E-02 0.17814992E+03</pdfrwt>
<totfact> 0.37402257E+03</totfact>
</mgrwt>
</event>
<event>
 4    1  0.1101825E+000  0.2124632E+03  0.7546771E-02  0.1139630E+00
         21   -1    0    0  503  502  0.00000000000E+00  0.00000000000E+00  0.17751348865E+03  0.17751348865E+03  0.00000000000E+00 0. -1.
         21   -1    0    0  501  503 -0.00000000000E+00 -0.00000000000E+00 -0.44485385395E+03  0.44485385395E+03  0.00000000000E+00 0. -1.
          6    1    1    2  501    0 -0.57794905337E+02 -0.11052756508E+03 -0.33733872927E+03  0.39867030488E+03  0.17200000000E+03 0. -1.
         -6    1    1    2    0  502  0.57794905337E+02  0.11052756508E+03  0.69998363975E+02  0.22369703772E+03  0.17200000000E+03 0. -1.
<mgrwt>
<rscale>  2 0.21246316E+03</rscale>
<asrwt>0</asrwt>
<pdfrwt beam="1">  1       21 0.44378372E-01 0.21246316E+03</pdfrwt>
<pdfrwt beam="2">  1       21 0.11121346E+00 0.21246316E+03</pdfrwt>
<totfact> 0.30495261E+03</totfact>
</mgrwt>
</event>
<event>
 4    1  0.1101825E+000  0.1881578E+03  0.7546771E-02  0.1160133E+00
         21   -1    0    0  503  502  0.00000000000E+00  0.00000000000E+00  0.64070054554E+03  0.64070054554E+03  0.00000000000E+00 0.  1.
         21   -1    0    0  501  503 -0.00000000000E+00 -0.00000000000E+00 -0.55610575833E+02  0.55610575833E+02  0.00000000000E+00 0.  1.
          6    1    1    2  501    0 -0.67063748335E+02 -0.36356815620E+02  0.26479461666E+03  0.32483773395E+03  0.17200000000E+03 0.  1.
         -6    1    1    2    0  502  0.67063748335E+02  0.36356815620E+02  0.32029535304E+03  0.37147338742E+03  0.17200000000E+03 0.  1.
<mgrwt>
<rscale>  2 0.18815782E+03</rscale>
<asrwt>0</asrwt>
<pdfrwt beam="1">  1       21 0.16017511E+00 0.18815782E+03</pdfrwt>
<pdfrwt beam="2">  1       21 0.13902646E-01 0.18815782E+03</pdfrwt>
<totfact> 0.11338921E+04</totfact>
</mgrwt>
</event>
<event>
 4    1  0.1101825E+000  0.2052975E+03  0.7546771E-02  0.1145345E+00
         21   -1    0    0  501  502  0.00000000000E+00  0.00000000000E+00  0.73560862097E+03  0.73560862097E+03  0.00000000000E+00 0. -1.
         21   -1    0    0  502  503 -0.00000000000E+00 -0.00000000000E+00 -0.57422113508E+02  0.57422113508E+02  0.00000000000E+00 0. -1.
          6    1    1    2  501    0 -0.11188394488E+03  0.67120720345E+01  0.35771190100E+03  0.41243772033E+03  0.17200000000E+03 0. -1.
         -6    1    1    2    0  503  0.11188394488E+03 -0.67120720345E+01  0.32047460646E+03  0.38059301415E+03  0.17200000000E+03 0. -1.
<mgrwt>
<rscale>  2 0.20529751E+03</rscale>
<asrwt>0</asrwt>
<pdfrwt beam="1">  1       21 0.18390213E+00 0.20529751E+03</pdfrwt>
<pdfrwt beam="2">  1       21 0.14355531E-01 0.20529751E+03</pdfrwt>
<totfact> 0.71984153E+03</totfact>
</mgrwt>
</event>
<event>
 4    1  0.1101825E+000  0.2044879E+03  0.7546771E-02  0.1146007E+00
         21   -1    0    0  501  502  0.00000000000E+00  0.00000000000E+00  0.27266034871E+03  0.27266034871E+03  0.00000000000E+00 0. -1.
         21   -1    0    0  502  503 -0.00000000000E+00 -0.00000000000E+00 -0.19339572436E+03  0.19339572436E+03  0.00000000000E+00 0.  1.
          6    1    1    2  501    0 -0.19427962951E+02  0.10887546583E+03 -0.66392171342E+02  0.21499589117E+03  0.17200000000E+03 0. -1.
         -6    1    1    2    0  503  0.19427962951E+02 -0.10887546583E+03  0.14565679570E+03  0.25106018190E+03  0.17200000000E+03 0. -1.
<mgrwt>
<rscale>  2 0.20448793E+03</rscale>
<asrwt>0</asrwt>
<pdfrwt beam="1">  1       21 0.68165087E-01 0.20448793E+03</pdfrwt>
<pdfrwt beam="2">  1       21 0.48348931E-01 0.20448793E+03</pdfrwt>
<totfact> 0.79588394E+03</totfact>
</mgrwt>
</event>
<event>
 4    1  0.1101825E+000  0.1957717E+03  0.7546771E-02  0.1153356E+00
         21   -1    0    0  503  502  0.00000000000E+00  0.00000000000E+00  0.63017287480E+03  0.63017287480E+03  0.00000000000E+00 0. -1.
         21   -1    0    0  501  503 -0.00000000000E+00 -0.00000000000E+00 -0.60821789003E+02  0.60821789003E+02  0.00000000000E+00 0. -1.
          6    1    1    2  501    0 -0.20246204104E+02  0.91283317605E+02  0.28238219030E+03  0.34360770401E+03  0.17200000000E+03 0. -1.
         -6    1    1    2    0  502  0.20246204104E+02 -0.91283317605E+02  0.28696889549E+03  0.34738695979E+03  0.17200000000E+03 0. -1.
<mgrwt>
<rscale>  2 0.19577169E+03</rscale>
<asrwt>0</asrwt>
<pdfrwt beam="1">  1       21 0.15754320E+00 0.19577169E+03</pdfrwt>
<pdfrwt beam="2">  1       21 0.15205449E-01 0.19577169E+03</pdfrwt>
<totfact> 0.10017429E+04</totfact>
</mgrwt>
</event>
<event>
 4    1  0.1101825E+000  0.1818670E+03  0.7546771E-02  0.1166008E+00
         21   -1    0    0  501  502  0.00000000000E+00  0.00000000000E+00  0.80203192233E+03  0.80203192233E+03  0.00000000000E+00 0.  1.
         21   -1    0    0  502  503 -0.00000000000E+00 -0.00000000000E+00 -0.56256909341E+02  0.56256909341E+02  0.00000000000E+00 0.  1.
          6    1    1    2  501    0 -0.73280967056E+01 -0.58633660766E+02  0.15116528382E+03  0.23648794939E+03  0.17200000000E+03 0.  1.
         -6    1    1    2    0  503  0.73280967056E+01  0.58633660766E+02  0.59460972917E+03  0.62180088228E+03  0.17200000000E+03 0.  1.
<mgrwt>
<rscale>  2 0.18186700E+03</rscale>
<asrwt>0</asrwt>
<pdfrwt beam="1">  1       21 0.20050794E+00 0.18186700E+03</pdfrwt>
<pdfrwt beam="2">  1       21 0.14064230E-01 0.18186700E+03</pdfrwt>
<totfact> 0.59355115E+03</totfact>
</mgrwt>
</event>
<event>
 4    1  0.1101825E+000  0.1823056E+03  0.7546771E-02  0.1165590E+00
         21   -1    0    0  503  502  0.00000000000E+00  0.00000000000E+00  0.51904508322E+03  0.51904508322E+03  0.00000000000E+00 0.  1.
         21   -1    0    0  501  503 -0.00000000000E+00 -0.00000000000E+00 -0.73710477301E+02  0.73710477301E+02  0.00000000000E+00 0.  1.
          6    1    1    2  501    0  0.58886646996E+02  0.13553016783E+02  0.11527033053E+03  0.21569091441E+03  0.17200000000E+03 0.  1.
         -6    1    1    2    0  502 -0.58886646996E+02 -0.13553016783E+02  0.33006427539E+03  0.37706464612E+03  0.17200000000E+03 0.  1.
<mgrwt>
<rscale>  2 0.18230557E+03</rscale>
<asrwt>0</asrwt>
<pdfrwt beam="1">  1       21 0.12976126E+00 0.18230557E+03</pdfrwt>
<pdfrwt beam="2">  1       21 0.18427621E-01 0.18230557E+03</pdfrwt>
<totfact> 0.11760532E+04</totfact>
</mgrwt>
</event>
<event>
 4    1  0.1101825E+000  0.1860462E+03  0.7546771E-02  0.1162077E+00
         21   -1    0    0  503  502  0.00000000000E+00  0.00000000000E+00  0.20534200925E+03  0.20534200925E+03  0.00000000000E+00 0.  1.
         21   -1    0    0  501  503 -0.00000000000E+00 -0.00000000000E+00 -0.21378807340E+03  0.21378807340E+03  0.00000000000E+00 0.  1.
          6    1    1    2  501    0 -0.26594144442E+02 -0.65741468435E+02 -0.10060900583E+03  0.21150735506E+03  0.17200000000E+03 0.  1.
         -6    1    1    2    0  502  0.26594144442E+02  0.65741468435E+02  0.92162941685E+02  0.20762272759E+03  0.17200000000E+03 0.  1.
<mgrwt>
<rscale>  2 0.18604620E+03</rscale>
<asrwt>0</asrwt>
<pdfrwt beam="1">  1       21 0.51335502E-01 0.18604620E+03</pdfrwt>
<pdfrwt beam="2">  1       21 0.53447018E-01 0.18604620E+03</pdfrwt>
<totfact> 0.12001980E+04</totfact>
</mgrwt>
</event>
<event>
 4    1  0.1101825E+000  0.1960925E+03  0.7546771E-02  0.1153078E+00
         21   -1    0    0  501  502  0.00000000000E+00  0.00000000000E+00  0.63143077166E+03  0.63143077166E+03  0.00000000000E+00 0. -1.
         21   -1    0    0  502  503 -0.00000000000E+00 -0.00000000000E+00 -0.63480244647E+02  0.63480244647E+02  0.00000000000E+00 0. -1.
          6    1    1    2  501    0 -0.70107295590E+02  0.62874870655E+02  0.35406541667E+03  0.40474016546E+03  0.17200000000E+03 0. -1.
         -6    1    1    2    0  503  0.70107295590E+02 -0.62874870655E+02  0.21388511034E+03  0.29017085085E+03  0.17200000000E+03 0. -1.
<mgrwt>
<rscale>  2 0.19609253E+03</rscale>
<asrwt>0</asrwt>
<pdfrwt beam="1">  1       21 0.15785767E+00 0.19609253E+03</pdfrwt>
<pdfrwt beam="2">  1       21 0.15870063E-01 0.19609253E+03</pdfrwt>
<totfact> 0.92125584E+03</totfact>
</mgrwt>
</event>
<event>
 4    1  0.1101825E+000  0.1770078E+03  0.7546771E-02  0.1170731E+00
         21   -1    0    0  503  502  0.00000000000E+00  0.00000000000E+00  0.55759386550E+02  0.55759386550E+02  0.00000000000E+00 0. -1.
         21   -1    0    0  501  503 -0.00000000000E+00 -0.00000000000E+00 -0.75072630274E+03  0.75072630274E+03  0.00000000000E+00 0. -1.
          6    1    1    2  501    0 -0.38149518456E+02 -0.17098954453E+02 -0.54971343594E+03  0.57750897971E+03  0.17200000000E+03 0. -1.
         -6    1    1    2    0  502  0.38149518456E+02  0.17098954453E+02 -0.14525348025E+03  0.22897670957E+03  0.17200000000E+03 0. -1.
<mgrwt>
<rscale>  2 0.17700780E+03</rscale>
<asrwt>0</asrwt>
<pdfrwt beam="1">  1       21 0.13939847E-01 0.17700780E+03</pdfrwt>
<pdfrwt beam="2">  1       21 0.18768158E+00 0.17700780E+03</pdfrwt>
<totfact> 0.73408204E+03</totfact>
</mgrwt>
</event>
<event>
 4    1  0.1101825E+000  0.1839776E+03  0.7546771E-02  0.1164008E+00
         21   -1    0    0  503  502  0.00000000000E+00  0.00000000000E+00  0.38232261987E+03  0.38232261987E+03  0.00000000000E+00 0.  1.
         21   -1    0    0  501  503 -0.00000000000E+00 -0.00000000000E+00 -0.24191973289E+03  0.24191973289E+03  0.00000000000E+00 0.  1.
          6    1    1    2  501    0 -0.62848707088E+02 -0.17713924937E+02 -0.17833098395E+03  0.25622194082E+03  0.17200000000E+03 0.  1.
         -6    1    1    2    0  502  0.62848707088E+02  0.17713924937E+02  0.31873387094E+03  0.36802041193E+03  0.17200000000E+03 0.  1.
<mgrwt>
<rscale>  2 0.18397756E+03</rscale>
<asrwt>0</asrwt>
<pdfrwt beam="1">  1       21 0.95580654E-01 0.18397756E+03</pdfrwt>
<pdfrwt beam="2">  1       21 0.60479934E-01 0.18397756E+03</pdfrwt>
<totfact> 0.23444516E+03</totfact>
</mgrwt>
</event>
<event>
 4    1  0.1101825E+000  0.1858865E+03  0.7546771E-02  0.1162225E+00
         21   -1    0    0  501  502  0.00000000000E+00  0.00000000000E+00  0.50981552029E+03  0.50981552029E+03  0.00000000000E+00 0.  1.
         21   -1    0    0  502  503 -0.00000000000E+00 -0.00000000000E+00 -0.75658839469E+02  0.75658839469E+02  0.00000000000E+00 0. -1.
          6    1    1    2  501    0 -0.66741975643E+02 -0.22699905797E+02  0.31156299316E+03  0.36280197869E+03  0.17200000000E+03 0.  1.
         -6    1    1    2    0  503  0.66741975643E+02  0.22699905797E+02  0.12259368766E+03  0.22267238107E+03  0.17200000000E+03 0. -1.
<mgrwt>
<rscale>  2 0.18588646E+03</rscale>
<asrwt>0</asrwt>
<pdfrwt beam="1">  1       21 0.12745387E+00 0.18588646E+03</pdfrwt>
<pdfrwt beam="2">  1       21 0.18914711E-01 0.18588646E+03</pdfrwt>
<totfact> 0.11692089E+04</totfact>
</mgrwt>
</event>
<event>
 4    1  0.1101825E+000  0.1721472E+03  0.7546771E-02  0.1175627E+00
         21   -1    0    0  501  502  0.00000000000E+00  0.00000000000E+00  0.71332262005E+02  0.71332262005E+02  0.00000000000E+00 0. -1.
         21   -1    0    0  502  503 -0.00000000000E+00 -0.00000000000E+00 -0.45626669831E+03  0.45626669831E+03  0.00000000000E+00 0. -1.
          6    1    1    2  501    0  0.49662936315E+01  0.50990914868E+01 -0.11356165810E+03  0.20623024753E+03  0.17200000000E+03 0.  1.
         -6    1    1    2    0  503 -0.49662936315E+01 -0.50990914868E+01 -0.27137277820E+03  0.32136871278E+03  0.17200000000E+03 0.  1.
<mgrwt>
<rscale>  2 0.17214722E+03</rscale>
<asrwt>0</asrwt>
<pdfrwt beam="1">  1       21 0.17833066E-01 0.17214722E+03</pdfrwt>
<pdfrwt beam="2">  1       21 0.11406667E+00 0.17214722E+03</pdfrwt>
<totfact> 0.17315109E+04</totfact>
</mgrwt>
</event>
<event>
 4    1  0.1101825E+000  0.3009324E+03  0.7546771E-02  0.1084775E+00
         21   -1    0    0  503  502  0.00000000000E+00  0.00000000000E+00  0.54429133855E+03  0.54429133855E+03  0.00000000000E+00 0.  1.
         21   -1    0    0  501  503 -0.00000000000E+00 -0.00000000000E+00 -0.21875169718E+03  0.21875169718E+03  0.00000000000E+00 0. -1.
          6    1    1    2  501    0 -0.56933064379E+02 -0.24028096586E+03 -0.23903858558E+02  0.30188029221E+03  0.17200000000E+03 0. -1.
         -6    1    1    2    0  502  0.56933064379E+02  0.24028096586E+03  0.34944349993E+03  0.46116274352E+03  0.17200000000E+03 0. -1.
<mgrwt>
<rscale>  2 0.30093241E+03</rscale>
<asrwt>0</asrwt>
<pdfrwt beam="1">  1       21 0.13607283E+00 0.30093241E+03</pdfrwt>
<pdfrwt beam="2">  1       21 0.54687925E-01 0.30093241E+03</pdfrwt>
<totfact> 0.11127755E+03</totfact>
</mgrwt>
</event>
<event>
 4    1  0.1101825E+000  0.1868187E+03  0.7546771E-02  0.1161362E+00
         21   -1    0    0  503  502  0.00000000000E+00  0.00000000000E+00  0.81251866548E+03  0.81251866548E+03  0.00000000000E+00 0. -1.
         21   -1    0    0  501  503 -0.00000000000E+00 -0.00000000000E+00 -0.12073941571E+03  0.12073941571E+03  0.00000000000E+00 0. -1.
          6    1    1    2  501    0 -0.55673279463E+02 -0.47092435772E+02 -0.28647902167E+02  0.18900241758E+03  0.17200000000E+03 0. -1.
         -6    1    1    2    0  502  0.55673279463E+02  0.47092435772E+02  0.72042715194E+03  0.74425566360E+03  0.17200000000E+03 0. -1.
<mgrwt>
<rscale>  2 0.18681866E+03</rscale>
<asrwt>0</asrwt>
<pdfrwt beam="1">  1       21 0.20312965E+00 0.18681866E+03</pdfrwt>
<pdfrwt beam="2">  1       21 0.30184856E-01 0.18681866E+03</pdfrwt>
<totfact> 0.13589223E+03</totfact>
</mgrwt>
</event>
<event>
 4    1  0.1101825E+000  0.1885400E+03  0.7546771E-02  0.1159785E+00
         21   -1    0    0  503  502  0.00000000000E+00  0.00000000000E+00  0.41186230756E+03  0.41186230756E+03  0.00000000000E+00 0.  1.
         21   -1    0    0  501  503 -0.00000000000E+00 -0.00000000000E+00 -0.15567420026E+03  0.15567420026E+03  0.00000000000E+00 0. -1.
          6    1    1    2  501    0 -0.69950055066E+02 -0.32715667648E+02 -0.61326481543E+02  0.19826311420E+03  0.17200000000E+03 0. -1.
         -6    1    1    2    0  502  0.69950055066E+02  0.32715667648E+02  0.31751458884E+03  0.36927339362E+03  0.17200000000E+03 0.  1.
<mgrwt>
<rscale>  2 0.18853998E+03</rscale>
<asrwt>0</asrwt>
<pdfrwt beam="1">  1       21 0.10296557E+00 0.18853998E+03</pdfrwt>
<pdfrwt beam="2">  1       21 0.38918551E-01 0.18853998E+03</pdfrwt>
<totfact> 0.48903314E+03</totfact>
</mgrwt>
</event>
<event>
 4    1  0.1101825E+000  0.1724380E+03  0.7546771E-02  0.1175329E+00
         21   -1    0    0  503  502  0.00000000000E+00  0.00000000000E+00  0.35716748434E+02  0.35716748434E+02  0.00000000000E+00 0.  1.
         21   -1    0    0  501  503 -0.00000000000E+00 -0.00000000000E+00 -0.11871644685E+04  0.11871644685E+04  0.00000000000E+00 0.  1.
          6    1    1    2  501    0 -0.89427429207E+01  0.84190760667E+01 -0.90991609388E+03  0.92611130616E+03  0.17200000000E+03 0.  1.
         -6    1    1    2    0  502  0.89427429207E+01 -0.84190760667E+01 -0.24153162618E+03  0.29676991077E+03  0.17200000000E+03 0.  1.
<mgrwt>
<rscale>  2 0.17243797E+03</rscale>
<asrwt>0</asrwt>
<pdfrwt beam="1">  1       21 0.89291874E-02 0.17243797E+03</pdfrwt>
<pdfrwt beam="2">  1       21 0.29679111E+00 0.17243797E+03</pdfrwt>
<totfact> 0.36182426E+03</totfact>
</mgrwt>
</event>
<event>
 4    1  0.1101825E+000  0.1958737E+03  0.7546771E-02  0.1153268E+00
         21   -1    0    0  501  502  0.00000000000E+00  0.00000000000E+00  0.57319485985E+02  0.57319485985E+02  0.00000000000E+00 0. -1.
         21   -1    0    0  502  503 -0.00000000000E+00 -0.00000000000E+00 -0.71801205800E+03  0.71801205800E+03  0.00000000000E+00 0. -1.
          6    1    1    2  501    0 -0.17313508116E+01 -0.93698958408E+02 -0.22941853132E+03  0.30166099333E+03  0.17200000000E+03 0. -1.
         -6    1    1    2    0  503  0.17313508116E+01  0.93698958408E+02 -0.43127404069E+03  0.47367055065E+03  0.17200000000E+03 0. -1.
<mgrwt>
<rscale>  2 0.19587366E+03</rscale>
<asrwt>0</asrwt>
<pdfrwt beam="1">  1       21 0.14329872E-01 0.19587366E+03</pdfrwt>
<pdfrwt beam="2">  1       21 0.17950301E+00 0.19587366E+03</pdfrwt>
<totfact> 0.77960538E+03</totfact>
</mgrwt>
</event>
<event>
 4    1  0.1101825E+000  0.2593951E+03  0.7546771E-02  0.1107507E+00
         21   -1    0    0  501  502  0.00000000000E+00  0.00000000000E+00  0.16814380090E+03  0.16814380090E+03  0.00000000000E+00 0.  1.
         21   -1    0    0  502  503 -0.00000000000E+00 -0.00000000000E+00 -0.58007051222E+03  0.58007051222E+03  0.00000000000E+00 0.  1.
          6    1    1    2  501    0 -0.15252301938E+03  0.12016053593E+03  0.23772030135E+01  0.25940600789E+03  0.17200000000E+03 0.  1.
         -6    1    1    2    0  503  0.15252301938E+03 -0.12016053593E+03 -0.41430391433E+03  0.48880830523E+03  0.17200000000E+03 0.  1.
<mgrwt>
<rscale>  2 0.25939512E+03</rscale>
<asrwt>0</asrwt>
<pdfrwt beam="1">  1       21 0.42035951E-01 0.25939512E+03</pdfrwt>
<pdfrwt beam="2">  1       21 0.14501763E+00 0.25939512E+03</pdfrwt>
<totfact> 0.16804140E+03</totfact>
</mgrwt>
</event>
<event>
 4    1  0.1101825E+000  0.1976375E+03  0.7546771E-02  0.1151748E+00
         21   -1    0    0  503  502  0.00000000000E+00  0.00000000000E+00  0.42204169568E+03  0.42204169568E+03  0.00000000000E+00 0. -1.
         21   -1    0    0  501  503 -0.00000000000E+00 -0.00000000000E+00 -0.10897422885E+03  0.10897422885E+03  0.00000000000E+00 0. -1.
          6    1    1    2  501    0 -0.16646906934E+02 -0.95913864536E+02  0.25960518800E+03  0.32627510257E+03  0.17200000000E+03 0. -1.
         -6    1    1    2    0  502  0.16646906934E+02  0.95913864536E+02  0.53462278826E+02  0.20474082196E+03  0.17200000000E+03 0. -1.
<mgrwt>
<rscale>  2 0.19763752E+03</rscale>
<asrwt>0</asrwt>
<pdfrwt beam="1">  1       21 0.10551042E+00 0.19763752E+03</pdfrwt>
<pdfrwt beam="2">  1       21 0.27243558E-01 0.19763752E+03</pdfrwt>
<totfact> 0.92429318E+03</totfact>
</mgrwt>
</event>
<event>
 4    1  0.1101825E+000  0.2023229E+03  0.7546771E-02  0.1147794E+00
         21   -1    0    0  501  502  0.00000000000E+00  0.00000000000E+00  0.97255705297E+03  0.97255705297E+03  0.00000000000E+00 0.  1.
         21   -1    0    0  502  503 -0.00000000000E+00 -0.00000000000E+00 -0.43068141839E+02  0.43068141839E+02  0.00000000000E+00 0.  1.
          6    1    1    2  501    0  0.43130563328E+02  0.97418121849E+02  0.54128920703E+03  0.57786550478E+03  0.17200000000E+03 0.  1.
         -6    1    1    2    0  503 -0.43130563328E+02 -0.97418121849E+02  0.38819970409E+03  0.43775969003E+03  0.17200000000E+03 0.  1.
<mgrwt>
<rscale>  2 0.20232285E+03</rscale>
<asrwt>0</asrwt>
<pdfrwt beam="1">  1       21 0.24313919E+00 0.20232285E+03</pdfrwt>
<pdfrwt beam="2">  1       21 0.10767039E-01 0.20232285E+03</pdfrwt>
<totfact> 0.51459404E+03</totfact>
</mgrwt>
</event>
<event>
 4    1  0.1101825E+000  0.1754885E+03  0.7546771E-02  0.1172242E+00
         21   -1    0    0  503  502  0.00000000000E+00  0.00000000000E+00  0.81052617790E+03  0.81052617790E+03  0.00000000000E+00 0.  1.
         21   -1    0    0  501  503 -0.00000000000E+00 -0.00000000000E+00 -0.41127282033E+02  0.41127282033E+02  0.00000000000E+00 0.  1.
          6    1    1    2  501    0 -0.31776281759E+02  0.14229252569E+02  0.26718913852E+03  0.31966582466E+03  0.17200000000E+03 0. -1.
         -6    1    1    2    0  502  0.31776281759E+02 -0.14229252569E+02  0.50220975734E+03  0.53198763527E+03  0.17200000000E+03 0. -1.
<mgrwt>
<rscale>  2 0.17548847E+03</rscale>
<asrwt>0</asrwt>
<pdfrwt beam="1">  1       21 0.20263149E+00 0.17548847E+03</pdfrwt>
<pdfrwt beam="2">  1       21 0.10281823E-01 0.17548847E+03</pdfrwt>
<totfact> 0.10129028E+04</totfact>
</mgrwt>
</event>
<event>
 4    1  0.1101825E+000  0.1811863E+03  0.7546771E-02  0.1166660E+00
         21   -1    0    0  501  502  0.00000000000E+00  0.00000000000E+00  0.37925572237E+03  0.37925572237E+03  0.00000000000E+00 0.  1.
         21   -1    0    0  502  503 -0.00000000000E+00 -0.00000000000E+00 -0.97236075638E+02  0.97236075638E+02  0.00000000000E+00 0.  1.
          6    1    1    2  501    0  0.51491614964E+02  0.24353402797E+02  0.21995256720E+03  0.28496948338E+03  0.17200000000E+03 0.  1.
         -6    1    1    2    0  503 -0.51491614964E+02 -0.24353402797E+02  0.62067079534E+02  0.19152231463E+03  0.17200000000E+03 0.  1.
<mgrwt>
<rscale>  2 0.18118630E+03</rscale>
<asrwt>0</asrwt>
<pdfrwt beam="1">  1       21 0.94813927E-01 0.18118630E+03</pdfrwt>
<pdfrwt beam="2">  1       21 0.24309020E-01 0.18118630E+03</pdfrwt>
<totfact> 0.14980969E+04</totfact>
</mgrwt>
</event>
<event>
 4    1  0.1101825E+000  0.2216684E+03  0.7546771E-02  0.1132645E+00
         21   -1    0    0  503  502  0.00000000000E+00  0.00000000000E+00  0.36934471773E+03  0.36934471773E+03  0.00000000000E+00 0. -1.
         21   -1    0    0  501  503 -0.00000000000E+00 -0.00000000000E+00 -0.19616312708E+03  0.19616312708E+03  0.00000000000E+00 0. -1.
          6    1    1    2  501    0 -0.20404307998E+02 -0.13833490243E+03 -0.73807998182E+02  0.23363326307E+03  0.17200000000E+03 0. -1.
         -6    1    1    2    0  502  0.20404307998E+02  0.13833490243E+03  0.24698958883E+03  0.33187458174E+03  0.17200000000E+03 0. -1.
<mgrwt>
<rscale>  2 0.22166840E+03</rscale>
<asrwt>0</asrwt>
<pdfrwt beam="1">  1       21 0.92336178E-01 0.22166840E+03</pdfrwt>
<pdfrwt beam="2">  1       21 0.49040782E-01 0.22166840E+03</pdfrwt>
<totfact> 0.38384386E+03</totfact>
</mgrwt>
</event>
<event>
 4    1  0.1101825E+000  0.1785090E+03  0.7546771E-02  0.1169254E+00
         21   -1    0    0  503  502  0.00000000000E+00  0.00000000000E+00  0.79272955988E+03  0.79272955988E+03  0.00000000000E+00 0.  1.
         21   -1    0    0  501  503 -0.00000000000E+00 -0.00000000000E+00 -0.81072039589E+02  0.81072039589E+02  0.00000000000E+00 0.  1.
          6    1    1    2  501    0 -0.26845646083E+02  0.39506819656E+02  0.45604662797E+02  0.18424240224E+03  0.17200000000E+03 0.  1.
         -6    1    1    2    0  502  0.26845646083E+02 -0.39506819656E+02  0.66605285750E+03  0.68955919724E+03  0.17200000000E+03 0.  1.
<mgrwt>
<rscale>  2 0.17850904E+03</rscale>
<asrwt>0</asrwt>
<pdfrwt beam="1">  1       21 0.19818237E+00 0.17850904E+03</pdfrwt>
<pdfrwt beam="2">  1       21 0.20268012E-01 0.17850904E+03</pdfrwt>
<totfact> 0.31504008E+03</totfact>
</mgrwt>
</event>
<event>
 4    1  0.1101825E+000  0.2077809E+03  0.7546771E-02  0.1143335E+00
         21   -1    0    0  501  502  0.00000000000E+00  0.00000000000E+00  0.33857775382E+03  0.33857775382E+03  0.00000000000E+00 0. -1.
         21   -1    0    0  502  503 -0.00000000000E+00 -0.00000000000E+00 -0.16542345467E+03  0.16542345467E+03  0.00000000000E+00 0. -1.
          6    1    1    2  501    0  0.11726690231E+02  0.11598013060E+03  0.20721545502E+03  0.29344701524E+03  0.17200000000E+03 0. -1.
         -6    1    1    2    0  503 -0.11726690231E+02 -0.11598013060E+03 -0.34061155863E+02  0.21055419325E+03  0.17200000000E+03 0. -1.
<mgrwt>
<rscale>  2 0.20778091E+03</rscale>
<asrwt>0</asrwt>
<pdfrwt beam="1">  1       21 0.84644437E-01 0.20778091E+03</pdfrwt>
<pdfrwt beam="2">  1       21 0.41355864E-01 0.20778091E+03</pdfrwt>
<totfact> 0.67358322E+03</totfact>
</mgrwt>
</event>
<event>
 4    1  0.1101825E+000  0.1723903E+03  0.7546771E-02  0.1175378E+00
         21   -1    0    0  501  502  0.00000000000E+00  0.00000000000E+00  0.29838159546E+03  0.29838159546E+03  0.00000000000E+00 0. -1.
         21   -1    0    0  502  503 -0.00000000000E+00 -0.00000000000E+00 -0.10114470383E+03  0.10114470383E+03  0.00000000000E+00 0. -1.
          6    1    1    2  501    0 -0.72778910865E+01  0.90250777678E+01  0.12331570444E+03  0.21195561490E+03  0.17200000000E+03 0. -1.
         -6    1    1    2    0  503  0.72778910865E+01 -0.90250777678E+01  0.73921187195E+02  0.18757068439E+03  0.17200000000E+03 0. -1.
<mgrwt>
<rscale>  2 0.17239031E+03</rscale>
<asrwt>0</asrwt>
<pdfrwt beam="1">  1       21 0.74595397E-01 0.17239031E+03</pdfrwt>
<pdfrwt beam="2">  1       21 0.25286177E-01 0.17239031E+03</pdfrwt>
<totfact> 0.24136192E+04</totfact>
</mgrwt>
</event>
<event>
 4    1  0.1101825E+000  0.2053369E+03  0.7546771E-02  0.1145313E+00
         21   -1    0    0  501  502  0.00000000000E+00  0.00000000000E+00  0.50122822389E+03  0.50122822389E+03  0.00000000000E+00 0.  1.
         21   -1    0    0  502  503 -0.00000000000E+00 -0.00000000000E+00 -0.19863477096E+03  0.19863477096E+03  0.00000000000E+00 0. -1.
          6    1    1    2  501    0  0.61186772930E+02 -0.93996946007E+02  0.41699358638E+03  0.46480845315E+03  0.17200000000E+03 0.  1.
         -6    1    1    2    0  503 -0.61186772930E+02  0.93996946007E+02 -0.11440013345E+03  0.23505454170E+03  0.17200000000E+03 0. -1.
<mgrwt>
<rscale>  2 0.20533691E+03</rscale>
<asrwt>0</asrwt>
<pdfrwt beam="1">  1       21 0.12530705E+00 0.20533691E+03</pdfrwt>
<pdfrwt beam="2">  1       21 0.49658694E-01 0.20533691E+03</pdfrwt>
<totfact> 0.18109853E+03</totfact>
</mgrwt>
</event>
<event>
 4    1  0.1101825E+000  0.2487974E+03  0.7546771E-02  0.1114067E+00
         21   -1    0    0  501  502  0.00000000000E+00  0.00000000000E+00  0.44387506784E+03  0.44387506784E+03  0.00000000000E+00 0. -1.
         21   -1    0    0  502  503 -0.00000000000E+00 -0.00000000000E+00 -0.14008829244E+03  0.14008829244E+03  0.00000000000E+00 0.  1.
          6    1    1    2  501    0  0.11249436429E+03  0.14021835565E+03  0.17153999023E+03  0.30220214676E+03  0.17200000000E+03 0.  1.
         -6    1    1    2    0  503 -0.11249436429E+03 -0.14021835565E+03  0.13224678516E+03  0.28176121352E+03  0.17200000000E+03 0. -1.
<mgrwt>
<rscale>  2 0.24879745E+03</rscale>
<asrwt>0</asrwt>
<pdfrwt beam="1">  1       21 0.11096876E+00 0.24879745E+03</pdfrwt>
<pdfrwt beam="2">  1       21 0.35022074E-01 0.24879745E+03</pdfrwt>
<totfact> 0.48244399E+03</totfact>
</mgrwt>
</event>
<event>
 4    1  0.1101825E+000  0.1985035E+03  0.7546771E-02  0.1151008E+00
         21   -1    0    0  503  502  0.00000000000E+00  0.00000000000E+00  0.28845901982E+03  0.28845901982E+03  0.00000000000E+00 0.  1.
         21   -1    0    0  501  503 -0.00000000000E+00 -0.00000000000E+00 -0.27015207128E+03  0.27015207128E+03  0.00000000000E+00 0.  1.
          6    1    1    2  501    0 -0.98408777502E+02 -0.11634583015E+02 -0.18722771350E+03  0.27286968999E+03  0.17200000000E+03 0.  1.
         -6    1    1    2    0  502  0.98408777502E+02  0.11634583015E+02  0.20553466204E+03  0.28574140111E+03  0.17200000000E+03 0.  1.
<mgrwt>
<rscale>  2 0.19850353E+03</rscale>
<asrwt>0</asrwt>
<pdfrwt beam="1">  1       21 0.72114755E-01 0.19850353E+03</pdfrwt>
<pdfrwt beam="2">  1       21 0.67538018E-01 0.19850353E+03</pdfrwt>
<totfact> 0.34610031E+03</totfact>
</mgrwt>
</event>
<event>
 4    1  0.1101825E+000  0.1917370E+03  0.7546771E-02  0.1156904E+00
         21   -1    0    0  503  502  0.00000000000E+00  0.00000000000E+00  0.11299579153E+04  0.11299579153E+04  0.00000000000E+00 0.  1.
         21   -1    0    0  501  503 -0.00000000000E+00 -0.00000000000E+00 -0.39706119060E+02  0.39706119060E+02  0.00000000000E+00 0.  1.
          6    1    1    2  501    0 -0.77870555597E+02 -0.33395550400E+02  0.29658468103E+03  0.35316505948E+03  0.17200000000E+03 0.  1.
         -6    1    1    2    0  502  0.77870555597E+02  0.33395550400E+02  0.79366711523E+03  0.81649897490E+03  0.17200000000E+03 0.  1.
<mgrwt>
<rscale>  2 0.19173702E+03</rscale>
<asrwt>0</asrwt>
<pdfrwt beam="1">  1       21 0.28248937E+00 0.19173702E+03</pdfrwt>
<pdfrwt beam="2">  1       21 0.99265335E-02 0.19173702E+03</pdfrwt>
<totfact> 0.35432624E+03</totfact>
</mgrwt>
</event>
<event>
 4    1  0.1101825E+000  0.3082206E+03  0.7546771E-02  0.1081202E+00
         21   -1    0    0  503  502  0.00000000000E+00  0.00000000000E+00  0.12310970567E+03  0.12310970567E+03  0.00000000000E+00 0. -1.
         21   -1    0    0  501  503 -0.00000000000E+00 -0.00000000000E+00 -0.99621905996E+03  0.99621905996E+03  0.00000000000E+00 0. -1.
          6    1    1    2  501    0  0.25076481508E+03  0.50328218805E+02 -0.70226412778E+03  0.76692556827E+03  0.17200000000E+03 0. -1.
         -6    1    1    2    0  502 -0.25076481508E+03 -0.50328218805E+02 -0.17084522651E+03  0.35240319736E+03  0.17200000000E+03 0. -1.
<mgrwt>
<rscale>  2 0.30822057E+03</rscale>
<asrwt>0</asrwt>
<pdfrwt beam="1">  1       21 0.30777427E-01 0.30822057E+03</pdfrwt>
<pdfrwt beam="2">  1       21 0.24905476E+00 0.30822057E+03</pdfrwt>
<totfact> 0.60751176E+02</totfact>
</mgrwt>
</event>
<event>
 4    1  0.1101825E+000  0.1920705E+03  0.7546771E-02  0.1156607E+00
         21   -1    0    0  501  502  0.00000000000E+00  0.00000000000E+00  0.93886634875E+02  0.93886634875E+02  0.00000000000E+00 0. -1.
         21   -1    0    0  502  503 -0.00000000000E+00 -0.00000000000E+00 -0.40511680331E+03  0.40511680331E+03  0.00000000000E+00 0. -1.
          6    1    1    2  501    0 -0.50819646266E+02  0.68734432638E+02 -0.11234442251E+03  0.22251365789E+03  0.17200000000E+03 0. -1.
         -6    1    1    2    0  503  0.50819646266E+02 -0.68734432638E+02 -0.19888574592E+03  0.27648978029E+03  0.17200000000E+03 0. -1.
<mgrwt>
<rscale>  2 0.19207045E+03</rscale>
<asrwt>0</asrwt>
<pdfrwt beam="1">  1       21 0.23471659E-01 0.19207045E+03</pdfrwt>
<pdfrwt beam="2">  1       21 0.10127920E+00 0.19207045E+03</pdfrwt>
<totfact> 0.13609001E+04</totfact>
</mgrwt>
</event>
<event>
 4    1  0.1101825E+000  0.1781855E+03  0.7546771E-02  0.1169571E+00
         21   -1    0    0  501  502  0.00000000000E+00  0.00000000000E+00  0.21060031204E+03  0.21060031204E+03  0.00000000000E+00 0. -1.
         21   -1    0    0  502  503 -0.00000000000E+00 -0.00000000000E+00 -0.24518505584E+03  0.24518505584E+03  0.00000000000E+00 0. -1.
          6    1    1    2  501    0  0.43421320187E+02 -0.16752782412E+02  0.12413302506E+03  0.21716140236E+03  0.17200000000E+03 0. -1.
         -6    1    1    2    0  503 -0.43421320187E+02  0.16752782412E+02 -0.15871776887E+03  0.23862396552E+03  0.17200000000E+03 0. -1.
<mgrwt>
<rscale>  2 0.17818548E+03</rscale>
<asrwt>0</asrwt>
<pdfrwt beam="1">  1       21 0.52650078E-01 0.17818548E+03</pdfrwt>
<pdfrwt beam="2">  1       21 0.61296264E-01 0.17818548E+03</pdfrwt>
<totfact> 0.85521064E+03</totfact>
</mgrwt>
</event>
<event>
 4    1  0.1101825E+000  0.2143800E+03  0.7546771E-02  0.1138144E+00
         21   -1    0    0  503  502  0.00000000000E+00  0.00000000000E+00  0.21069886039E+03  0.21069886039E+03  0.00000000000E+00 0. -1.
         21   -1    0    0  501  503 -0.00000000000E+00 -0.00000000000E+00 -0.39115706868E+03  0.39115706868E+03  0.00000000000E+00 0.  1.
          6    1    1    2  501    0 -0.84342757052E+02  0.96234450728E+02 -0.29037642091E+03  0.36093937995E+03  0.17200000000E+03 0.  1.
         -6    1    1    2    0  502  0.84342757052E+02 -0.96234450728E+02  0.10991821262E+03  0.24091654912E+03  0.17200000000E+03 0. -1.
<mgrwt>
<rscale>  2 0.21437997E+03</rscale>
<asrwt>0</asrwt>
<pdfrwt beam="1">  1       21 0.52674716E-01 0.21437997E+03</pdfrwt>
<pdfrwt beam="2">  1       21 0.97789266E-01 0.21437997E+03</pdfrwt>
<totfact> 0.29036929E+03</totfact>
</mgrwt>
</event>
<event>
 4    1  0.1101825E+000  0.1850930E+03  0.7546771E-02  0.1162963E+00
         21   -1    0    0  501  502  0.00000000000E+00  0.00000000000E+00  0.38015389124E+03  0.38015389124E+03  0.00000000000E+00 0.  1.
         21   -1    0    0  502  503 -0.00000000000E+00 -0.00000000000E+00 -0.97082322970E+02  0.97082322970E+02  0.00000000000E+00 0.  1.
          6    1    1    2  501    0  0.52454646300E+02 -0.43862713663E+02  0.20543768426E+03  0.27652137292E+03  0.17200000000E+03 0. -1.
         -6    1    1    2    0  503 -0.52454646300E+02  0.43862713663E+02  0.77633884019E+02  0.20071484130E+03  0.17200000000E+03 0. -1.
<mgrwt>
<rscale>  2 0.18509302E+03</rscale>
<asrwt>0</asrwt>
<pdfrwt beam="1">  1       21 0.95038469E-01 0.18509302E+03</pdfrwt>
<pdfrwt beam="2">  1       21 0.24270582E-01 0.18509302E+03</pdfrwt>
<totfact> 0.14904832E+04</totfact>
</mgrwt>
</event>
<event>
 4    1  0.1101825E+000  0.2721252E+03  0.7546771E-02  0.1100069E+00
         21   -1    0    0  501  502  0.00000000000E+00  0.00000000000E+00  0.12101880964E+04  0.12101880964E+04  0.00000000000E+00 0.  1.
         21   -1    0    0  502  503 -0.00000000000E+00 -0.00000000000E+00 -0.61975986557E+02  0.61975986557E+02  0.00000000000E+00 0.  1.
          6    1    1    2  501    0 -0.20515238066E+03  0.48791607499E+02  0.50250050603E+03  0.57145330414E+03  0.17200000000E+03 0.  1.
         -6    1    1    2    0  503  0.20515238066E+03 -0.48791607499E+02  0.64571160386E+03  0.70071077886E+03  0.17200000000E+03 0.  1.
<mgrwt>
<rscale>  2 0.27212519E+03</rscale>
<asrwt>0</asrwt>
<pdfrwt beam="1">  1       21 0.30254695E+00 0.27212519E+03</pdfrwt>
<pdfrwt beam="2">  1       21 0.15494001E-01 0.27212519E+03</pdfrwt>
<totfact> 0.11158888E+03</totfact>
</mgrwt>
</event>
<event>
 4    1  0.1101825E+000  0.2004822E+03  0.7546771E-02  0.1149333E+00
         21   -1    0    0  503  502  0.00000000000E+00  0.00000000000E+00  0.63045136452E+02  0.63045136452E+02  0.00000000000E+00 0. -1.
         21   -1    0    0  501  503 -0.00000000000E+00 -0.00000000000E+00 -0.67444104689E+03  0.67444104689E+03  0.00000000000E+00 0. -1.
          6    1    1    2  501    0  0.34059791518E+02  0.97206234981E+02 -0.21943303732E+03  0.29722715116E+03  0.17200000000E+03 0. -1.
         -6    1    1    2    0  502 -0.34059791518E+02 -0.97206234981E+02 -0.39196287311E+03  0.44025903218E+03  0.17200000000E+03 0. -1.
<mgrwt>
<rscale>  2 0.20048222E+03</rscale>
<asrwt>0</asrwt>
<pdfrwt beam="1">  1       21 0.15761284E-01 0.20048222E+03</pdfrwt>
<pdfrwt beam="2">  1       21 0.16861026E+00 0.20048222E+03</pdfrwt>
<totfact> 0.77723166E+03</totfact>
</mgrwt>
</event>
<event>
 4    1  0.1101825E+000  0.1955009E+03  0.7546771E-02  0.1153591E+00
         21   -1    0    0  503  502  0.00000000000E+00  0.00000000000E+00  0.41509602061E+02  0.41509602061E+02  0.00000000000E+00 0.  1.
         21   -1    0    0  501  503 -0.00000000000E+00 -0.00000000000E+00 -0.93047772876E+03  0.93047772876E+03  0.00000000000E+00 0.  1.
          6    1    1    2  501    0 -0.29965629045E+02  0.87969679344E+02 -0.39483165159E+03  0.44058215637E+03  0.17200000000E+03 0. -1.
         -6    1    1    2    0  502  0.29965629045E+02 -0.87969679344E+02 -0.49413647511E+03  0.53140517446E+03  0.17200000000E+03 0. -1.
<mgrwt>
<rscale>  2 0.19550090E+03</rscale>
<asrwt>0</asrwt>
<pdfrwt beam="1">  1       21 0.10377400E-01 0.19550090E+03</pdfrwt>
<pdfrwt beam="2">  1       21 0.23261944E+00 0.19550090E+03</pdfrwt>
<totfact> 0.63916763E+03</totfact>
</mgrwt>
</event>
<event>
 4    1  0.1101825E+000  0.2845661E+03  0.7546771E-02  0.1093221E+00
         21   -1    0    0  501  502  0.00000000000E+00  0.00000000000E+00  0.36908890048E+03  0.36908890048E+03  0.00000000000E+00 0.  1.
         21   -1    0    0  502  503 -0.00000000000E+00 -0.00000000000E+00 -0.41173294637E+03  0.41173294637E+03  0.00000000000E+00 0. -1.
          6    1    1    2  501    0  0.22467185692E+02 -0.22558607526E+03  0.24551234567E+03  0.37583794867E+03  0.17200000000E+03 0.  1.
         -6    1    1    2    0  503 -0.22467185692E+02  0.22558607526E+03 -0.28815639157E+03  0.40498389818E+03  0.17200000000E+03 0. -1.
<mgrwt>
<rscale>  2 0.28456608E+03</rscale>
<asrwt>0</asrwt>
<pdfrwt beam="1">  1       21 0.92272225E-01 0.28456608E+03</pdfrwt>
<pdfrwt beam="2">  1       21 0.10293324E+00 0.28456608E+03</pdfrwt>
<totfact> 0.70092947E+02</totfact>
</mgrwt>
</event>
<event>
 4    1  0.1101825E+000  0.1883248E+03  0.7546771E-02  0.1159981E+00
         21   -1    0    0  503  502  0.00000000000E+00  0.00000000000E+00  0.34737064407E+03  0.34737064407E+03  0.00000000000E+00 0.  1.
         21   -1    0    0  501  503 -0.00000000000E+00 -0.00000000000E+00 -0.10978333395E+03  0.10978333395E+03  0.00000000000E+00 0.  1.
          6    1    1    2  501    0  0.43727011476E+02  0.63009244471E+02  0.58320071615E+02  0.19714828727E+03  0.17200000000E+03 0.  1.
         -6    1    1    2    0  502 -0.43727011476E+02 -0.63009244471E+02  0.17926723850E+03  0.26000569075E+03  0.17200000000E+03 0.  1.
<mgrwt>
<rscale>  2 0.18832476E+03</rscale>
<asrwt>0</asrwt>
<pdfrwt beam="1">  1       21 0.86842659E-01 0.18832476E+03</pdfrwt>
<pdfrwt beam="2">  1       21 0.27445834E-01 0.18832476E+03</pdfrwt>
<totfact> 0.14486291E+04</totfact>
</mgrwt>
</event>
<event>
 4    1  0.1101825E+000  0.1823530E+03  0.7546771E-02  0.1165545E+00
         21   -1    0    0  501  502  0.00000000000E+00  0.00000000000E+00  0.37398061224E+03  0.37398061224E+03  0.00000000000E+00 0. -1.
         21   -1    0    0  502  503 -0.00000000000E+00 -0.00000000000E+00 -0.90450328666E+02  0.90450328666E+02  0.00000000000E+00 0. -1.
          6    1    1    2  501    0 -0.32309195695E+02  0.51232130332E+02  0.11151426968E+03  0.21374762606E+03  0.17200000000E+03 0.  1.
         -6    1    1    2    0  503  0.32309195695E+02 -0.51232130332E+02  0.17201601389E+03  0.25068331484E+03  0.17200000000E+03 0.  1.
<mgrwt>
<rscale>  2 0.18235300E+03</rscale>
<asrwt>0</asrwt>
<pdfrwt beam="1">  1       21 0.93495149E-01 0.18235300E+03</pdfrwt>
<pdfrwt beam="2">  1       21 0.22612583E-01 0.18235300E+03</pdfrwt>
<totfact> 0.17737934E+04</totfact>
</mgrwt>
</event>
<event>
 4    1  0.1101825E+000  0.3255806E+03  0.7546771E-02  0.1073109E+00
         21   -1    0    0  501  502  0.00000000000E+00  0.00000000000E+00  0.67933474081E+02  0.67933474081E+02  0.00000000000E+00 0.  1.
         21   -1    0    0  502  503 -0.00000000000E+00 -0.00000000000E+00 -0.16353903705E+04  0.16353903705E+04  0.00000000000E+00 0.  1.
          6    1    1    2  501    0 -0.14061460687E+03 -0.23800475053E+03 -0.60134410071E+03  0.68382560380E+03  0.17200000000E+03 0.  1.
         -6    1    1    2    0  503  0.14061460687E+03  0.23800475053E+03 -0.96611279572E+03  0.10194982408E+04  0.17200000000E+03 0.  1.
<mgrwt>
<rscale>  2 0.32558060E+03</rscale>
<asrwt>0</asrwt>
<pdfrwt beam="1">  1       21 0.16983369E-01 0.32558060E+03</pdfrwt>
<pdfrwt beam="2">  1       21 0.40884759E+00 0.32558060E+03</pdfrwt>
<totfact> 0.20168548E+02</totfact>
</mgrwt>
</event>
<event>
 4    1  0.1101825E+000  0.2661593E+03  0.7546771E-02  0.1103498E+00
         21   -1    0    0  503  502  0.00000000000E+00  0.00000000000E+00  0.10344023142E+04  0.10344023142E+04  0.00000000000E+00 0.  1.
         21   -1    0    0  501  503 -0.00000000000E+00 -0.00000000000E+00 -0.12527839985E+03  0.12527839985E+03  0.00000000000E+00 0. -1.
          6    1    1    2  501    0 -0.63410569988E+01  0.20301866953E+03  0.64152606863E+02  0.27378156649E+03  0.17200000000E+03 0. -1.
         -6    1    1    2    0  502  0.63410569988E+01 -0.20301866953E+03  0.84497130745E+03  0.88589914753E+03  0.17200000000E+03 0.  1.
<mgrwt>
<rscale>  2 0.26615933E+03</rscale>
<asrwt>0</asrwt>
<pdfrwt beam="1">  1       21 0.25860055E+00 0.26615933E+03</pdfrwt>
<pdfrwt beam="2">  1       21 0.31319603E-01 0.26615933E+03</pdfrwt>
<totfact> 0.53369325E+02</totfact>
</mgrwt>
</event>
<event>
 4    1  0.1101825E+000  0.1811678E+03  0.7546771E-02  0.1166678E+00
         21   -1    0    0  503  502  0.00000000000E+00  0.00000000000E+00  0.41024494814E+03  0.41024494814E+03  0.00000000000E+00 0. -1.
         21   -1    0    0  501  503 -0.00000000000E+00 -0.00000000000E+00 -0.81078195545E+02  0.81078195545E+02  0.00000000000E+00 0.  1.
          6    1    1    2  501    0 -0.56727088051E+02 -0.44507419891E+01  0.19284279232E+03  0.26459424440E+03  0.17200000000E+03 0.  1.
         -6    1    1    2    0  502  0.56727088051E+02  0.44507419891E+01  0.13632396028E+03  0.22672889928E+03  0.17200000000E+03 0.  1.
<mgrwt>
<rscale>  2 0.18116780E+03</rscale>
<asrwt>0</asrwt>
<pdfrwt beam="1">  1       21 0.10256123E+00 0.18116780E+03</pdfrwt>
<pdfrwt beam="2">  1       21 0.20269550E-01 0.18116780E+03</pdfrwt>
<totfact> 0.17528536E+04</totfact>
</mgrwt>
</event>
<event>
 4    1  0.1101825E+000  0.2821868E+03  0.7546771E-02  0.1094501E+00
         21   -1    0    0  503  502  0.00000000000E+00  0.00000000000E+00  0.14722205223E+03  0.14722205223E+03  0.00000000000E+00 0. -1.
         21   -1    0    0  501  503 -0.00000000000E+00 -0.00000000000E+00 -0.54168029181E+03  0.54168029181E+03  0.00000000000E+00 0. -1.
          6    1    1    2  501    0 -0.97622746781E+02  0.20128388656E+03 -0.21047225368E+03  0.35203405126E+03  0.17200000000E+03 0. -1.
         -6    1    1    2    0  502  0.97622746781E+02 -0.20128388656E+03 -0.18398598589E+03  0.33686829278E+03  0.17200000000E+03 0. -1.
<mgrwt>
<rscale>  2 0.28218682E+03</rscale>
<asrwt>0</asrwt>
<pdfrwt beam="1">  1       21 0.36805513E-01 0.28218682E+03</pdfrwt>
<pdfrwt beam="2">  1       21 0.13542007E+00 0.28218682E+03</pdfrwt>
<totfact> 0.25923479E+03</totfact>
</mgrwt>
</event>
<event>
 4    1  0.1101825E+000  0.1941577E+03  0.7546771E-02  0.1154764E+00
         21   -1    0    0  501  502  0.00000000000E+00  0.00000000000E+00  0.40232747906E+03  0.40232747906E+03  0.00000000000E+00 0.  1.
         21   -1    0    0  502  503 -0.00000000000E+00 -0.00000000000E+00 -0.13426329480E+03  0.13426329480E+03  0.00000000000E+00 0.  1.
          6    1    1    2  501    0 -0.85614836104E+02  0.27988054632E+02  0.28150509461E+03  0.34196834598E+03  0.17200000000E+03 0.  1.
         -6    1    1    2    0  503  0.85614836104E+02 -0.27988054632E+02 -0.13440910349E+02  0.19462242788E+03  0.17200000000E+03 0.  1.
<mgrwt>
<rscale>  2 0.19415775E+03</rscale>
<asrwt>0</asrwt>
<pdfrwt beam="1">  1       21 0.10058187E+00 0.19415775E+03</pdfrwt>
<pdfrwt beam="2">  1       21 0.33565825E-01 0.19415775E+03</pdfrwt>
<totfact> 0.69147483E+03</totfact>
</mgrwt>
</event>
<event>
 4    1  0.1101825E+000  0.1728512E+03  0.7546771E-02  0.1174907E+00
         21   -1    0    0  503  502  0.00000000000E+00  0.00000000000E+00  0.43789681658E+03  0.43789681658E+03  0.00000000000E+00 0. -1.
         21   -1    0    0  501  503 -0.00000000000E+00 -0.00000000000E+00 -0.19891249635E+03  0.19891249635E+03  0.00000000000E+00 0. -1.
          6    1    1    2  501    0  0.12568573343E+02 -0.11643234169E+02 -0.13858984060E+03  0.22155062143E+03  0.17200000000E+03 0. -1.
         -6    1    1    2    0  502 -0.12568573343E+02  0.11643234169E+02  0.37757416083E+03  0.41525869150E+03  0.17200000000E+03 0. -1.
<mgrwt>
<rscale>  2 0.17285119E+03</rscale>
<asrwt>0</asrwt>
<pdfrwt beam="1">  1       21 0.10947420E+00 0.17285119E+03</pdfrwt>
<pdfrwt beam="2">  1       21 0.49728125E-01 0.17285119E+03</pdfrwt>
<totfact> 0.25932137E+03</totfact>
</mgrwt>
</event>
<event>
 4    1  0.1101825E+000  0.2066836E+03  0.7546771E-02  0.1144219E+00
         21   -1    0    0  503  502  0.00000000000E+00  0.00000000000E+00  0.13576002534E+04  0.13576002534E+04  0.00000000000E+00 0. -1.
         21   -1    0    0  501  503 -0.00000000000E+00 -0.00000000000E+00 -0.59774325491E+02  0.59774325491E+02  0.00000000000E+00 0. -1.
          6    1    1    2  501    0 -0.90343852391E+02 -0.70513147662E+02  0.16121027683E+03  0.26211995158E+03  0.17200000000E+03 0. -1.
         -6    1    1    2    0  502  0.90343852391E+02  0.70513147662E+02  0.11366156511E+04  0.11552546273E+04  0.17200000000E+03 0. -1.
<mgrwt>
<rscale>  2 0.20668361E+03</rscale>
<asrwt>0</asrwt>
<pdfrwt beam="1">  1       21 0.33939996E+00 0.20668361E+03</pdfrwt>
<pdfrwt beam="2">  1       21 0.14943586E-01 0.20668361E+03</pdfrwt>
<totfact> 0.78152250E+02</totfact>
</mgrwt>
</event>
<event>
 4    1  0.1101825E+000  0.2560764E+03  0.7546771E-02  0.1109524E+00
         21   -1    0    0  501  502  0.00000000000E+00  0.00000000000E+00  0.89755269494E+03  0.89755269494E+03  0.00000000000E+00 0. -1.
         21   -1    0    0  502  503 -0.00000000000E+00 -0.00000000000E+00 -0.86462490330E+02  0.86462490330E+02  0.00000000000E+00 0. -1.
          6    1    1    2  501    0 -0.16239513590E+03  0.98076172516E+02  0.59925517512E+03  0.65167620847E+03  0.17200000000E+03 0. -1.
         -6    1    1    2    0  503  0.16239513590E+03 -0.98076172516E+02  0.21183502950E+03  0.33233897680E+03  0.17200000000E+03 0. -1.
<mgrwt>
<rscale>  2 0.25607639E+03</rscale>
<asrwt>0</asrwt>
<pdfrwt beam="1">  1       21 0.22438814E+00 0.25607639E+03</pdfrwt>
<pdfrwt beam="2">  1       21 0.21615625E-01 0.25607639E+03</pdfrwt>
<totfact> 0.17748918E+03</totfact>
</mgrwt>
</event>
<event>
 4    1  0.1101825E+000  0.1737659E+03  0.7546771E-02  0.1173977E+00
         21   -1    0    0  501  502  0.00000000000E+00  0.00000000000E+00  0.35920463072E+02  0.35920463072E+02  0.00000000000E+00 0.  1.
         21   -1    0    0  502  503 -0.00000000000E+00 -0.00000000000E+00 -0.93595772946E+03  0.93595772946E+03  0.00000000000E+00 0.  1.
          6    1    1    2  501    0  0.91294549526E+01 -0.22961487430E+02 -0.29490781197E+03  0.34229401750E+03  0.17200000000E+03 0. -1.
         -6    1    1    2    0  503 -0.91294549526E+01  0.22961487430E+02 -0.60512945442E+03  0.62958417504E+03  0.17200000000E+03 0. -1.
<mgrwt>
<rscale>  2 0.17376587E+03</rscale>
<asrwt>0</asrwt>
<pdfrwt beam="1">  1       21 0.89801162E-02 0.17376587E+03</pdfrwt>
<pdfrwt beam="2">  1       21 0.23398942E+00 0.17376587E+03</pdfrwt>
<totfact> 0.82659630E+03</totfact>
</mgrwt>
</event>
<event>
 4    1  0.1101825E+000  0.1862030E+03  0.7546771E-02  0.1161931E+00
         21   -1    0    0  503  502  0.00000000000E+00  0.00000000000E+00  0.58433680793E+03  0.58433680793E+03  0.00000000000E+00 0.  1.
         21   -1    0    0  501  503 -0.00000000000E+00 -0.00000000000E+00 -0.99504856574E+02  0.99504856574E+02  0.00000000000E+00 0.  1.
          6    1    1    2  501    0 -0.70855637777E+02  0.81872049969E+01  0.25168751227E+02  0.18789629525E+03  0.17200000000E+03 0.  1.
         -6    1    1    2    0  502  0.70855637777E+02 -0.81872049969E+01  0.45966320012E+03  0.49594536925E+03  0.17200000000E+03 0.  1.
<mgrwt>
<rscale>  2 0.18620299E+03</rscale>
<asrwt>0</asrwt>
<pdfrwt beam="1">  1       21 0.14608419E+00 0.18620299E+03</pdfrwt>
<pdfrwt beam="2">  1       21 0.24876216E-01 0.18620299E+03</pdfrwt>
<totfact> 0.49256670E+03</totfact>
</mgrwt>
</event>
<event>
 4    1  0.1101825E+000  0.1870194E+03  0.7546771E-02  0.1161177E+00
         21   -1    0    0  503  502  0.00000000000E+00  0.00000000000E+00  0.62849328587E+03  0.62849328587E+03  0.00000000000E+00 0. -1.
         21   -1    0    0  501  503 -0.00000000000E+00 -0.00000000000E+00 -0.96607088053E+02  0.96607088053E+02  0.00000000000E+00 0. -1.
          6    1    1    2  501    0  0.56682751000E+02 -0.46683049831E+02  0.29882667797E+02  0.18939169791E+03  0.17200000000E+03 0. -1.
         -6    1    1    2    0  502 -0.56682751000E+02  0.46683049831E+02  0.50200353002E+03  0.53570867601E+03  0.17200000000E+03 0. -1.
<mgrwt>
<rscale>  2 0.18701936E+03</rscale>
<asrwt>0</asrwt>
<pdfrwt beam="1">  1       21 0.15712331E+00 0.18701936E+03</pdfrwt>
<pdfrwt beam="2">  1       21 0.24151774E-01 0.18701936E+03</pdfrwt>
<totfact> 0.42964313E+03</totfact>
</mgrwt>
</event>
<event>
 4    1  0.1101825E+000  0.2550002E+03  0.7546771E-02  0.1110185E+00
         21   -1    0    0  503  502  0.00000000000E+00  0.00000000000E+00  0.48326825649E+03  0.48326825649E+03  0.00000000000E+00 0. -1.
         21   -1    0    0  501  503 -0.00000000000E+00 -0.00000000000E+00 -0.15383028058E+03  0.15383028058E+03  0.00000000000E+00 0.  1.
          6    1    1    2  501    0 -0.18397420990E+03  0.39932651095E+02  0.51952476251E+02  0.26023871027E+03  0.17200000000E+03 0.  1.
         -6    1    1    2    0  502  0.18397420990E+03 -0.39932651095E+02  0.27748549966E+03  0.37685982680E+03  0.17200000000E+03 0. -1.
<mgrwt>
<rscale>  2 0.25500025E+03</rscale>
<asrwt>0</asrwt>
<pdfrwt beam="1">  1       21 0.12081706E+00 0.25500025E+03</pdfrwt>
<pdfrwt beam="2">  1       21 0.38457571E-01 0.25500025E+03</pdfrwt>
<totfact> 0.32276900E+03</totfact>
</mgrwt>
</event>
<event>
 4    1  0.1101825E+000  0.2255592E+03  0.7546771E-02  0.1129805E+00
         21   -1    0    0  501  502  0.00000000000E+00  0.00000000000E+00  0.18240221979E+04  0.18240221979E+04  0.00000000000E+00 0. -1.
         21   -1    0    0  502  503 -0.00000000000E+00 -0.00000000000E+00 -0.51598613586E+02  0.51598613586E+02  0.00000000000E+00 0.  1.
          6    1    1    2  501    0  0.30062593536E+02 -0.14279065956E+03  0.15218708482E+04  0.15384953073E+04  0.17200000000E+03 0.  1.
         -6    1    1    2    0  503 -0.30062593536E+02  0.14279065956E+03  0.25055273605E+03  0.33712550412E+03  0.17200000000E+03 0. -1.
<mgrwt>
<rscale>  2 0.22555915E+03</rscale>
<asrwt>0</asrwt>
<pdfrwt beam="1">  1       21 0.45600534E+00 0.22555915E+03</pdfrwt>
<pdfrwt beam="2">  1       21 0.12899659E-01 0.22555915E+03</pdfrwt>
<totfact> 0.18518896E+02</totfact>
</mgrwt>
</event>
<event>
 4    1  0.1101825E+000  0.2030701E+03  0.7546771E-02  0.1147174E+00
         21   -1    0    0  501  502  0.00000000000E+00  0.00000000000E+00  0.13452009633E+03  0.13452009633E+03  0.00000000000E+00 0.  1.
         21   -1    0    0  502  503 -0.00000000000E+00 -0.00000000000E+00 -0.30865161678E+03  0.30865161678E+03  0.00000000000E+00 0.  1.
          6    1    1    2  501    0 -0.96782867188E+02  0.47817812160E+02 -0.68791907288E+02  0.21440567401E+03  0.17200000000E+03 0. -1.
         -6    1    1    2    0  503  0.96782867188E+02 -0.47817812160E+02 -0.10533961317E+03  0.22876603910E+03  0.17200000000E+03 0. -1.
<mgrwt>
<rscale>  2 0.20307010E+03</rscale>
<asrwt>0</asrwt>
<pdfrwt beam="1">  1       21 0.33630024E-01 0.20307010E+03</pdfrwt>
<pdfrwt beam="2">  1       21 0.77162904E-01 0.20307010E+03</pdfrwt>
<totfact> 0.12618468E+04</totfact>
</mgrwt>
</event>
<event>
 4    1  0.1101825E+000  0.2538465E+03  0.7546771E-02  0.1110898E+00
         21   -1    0    0  503  502  0.00000000000E+00  0.00000000000E+00  0.24230629305E+03  0.24230629305E+03  0.00000000000E+00 0. -1.
         21   -1    0    0  501  503 -0.00000000000E+00 -0.00000000000E+00 -0.36381848700E+03  0.36381848700E+03  0.00000000000E+00 0. -1.
          6    1    1    2  501    0  0.64147789590E+02  0.17532566615E+03 -0.21795213442E+03  0.33457609152E+03  0.17200000000E+03 0. -1.
         -6    1    1    2    0  502 -0.64147789590E+02 -0.17532566615E+03  0.96439940464E+02  0.27154868852E+03  0.17200000000E+03 0. -1.
<mgrwt>
<rscale>  2 0.25384647E+03</rscale>
<asrwt>0</asrwt>
<pdfrwt beam="1">  1       21 0.60576574E-01 0.25384647E+03</pdfrwt>
<pdfrwt beam="2">  1       21 0.90954621E-01 0.25384647E+03</pdfrwt>
<totfact> 0.24810758E+03</totfact>
</mgrwt>
</event>
<event>
 4    1  0.1101825E+000  0.1943975E+03  0.7546771E-02  0.1154554E+00
         21   -1    0    0  501  502  0.00000000000E+00  0.00000000000E+00  0.13476280042E+03  0.13476280042E+03  0.00000000000E+00 0. -1.
         21   -1    0    0  502  503 -0.00000000000E+00 -0.00000000000E+00 -0.28061068059E+03  0.28061068059E+03  0.00000000000E+00 0. -1.
          6    1    1    2  501    0  0.54658349670E+02  0.72241575798E+02 -0.67530727475E+02  0.20579305046E+03  0.17200000000E+03 0. -1.
         -6    1    1    2    0  503 -0.54658349670E+02 -0.72241575798E+02 -0.78317152694E+02  0.20958043055E+03  0.17200000000E+03 0. -1.
<mgrwt>
<rscale>  2 0.19439748E+03</rscale>
<asrwt>0</asrwt>
<pdfrwt beam="1">  1       21 0.33690700E-01 0.19439748E+03</pdfrwt>
<pdfrwt beam="2">  1       21 0.70152670E-01 0.19439748E+03</pdfrwt>
<totfact> 0.15632807E+04</totfact>
</mgrwt>
</event>
<event>
 4    1  0.1101825E+000  0.2011579E+03  0.7546771E-02  0.1148766E+00
         21   -1    0    0  501  502  0.00000000000E+00  0.00000000000E+00  0.20012829129E+04  0.20012829129E+04  0.00000000000E+00 0. -1.
         21   -1    0    0  502  503 -0.00000000000E+00 -0.00000000000E+00 -0.24698733798E+02  0.24698733798E+02  0.00000000000E+00 0. -1.
          6    1    1    2  501    0  0.10279851823E+03 -0.17691314035E+02  0.14196922004E+04  0.14338725403E+04  0.17200000000E+03 0. -1.
         -6    1    1    2    0  503 -0.10279851823E+03  0.17691314035E+02  0.55689197872E+03  0.59210910642E+03  0.17200000000E+03 0. -1.
<mgrwt>
<rscale>  2 0.20115794E+03</rscale>
<asrwt>0</asrwt>
<pdfrwt beam="1">  1       21 0.50032018E+00 0.20115794E+03</pdfrwt>
<pdfrwt beam="2">  1       21 0.61746902E-02 0.20115794E+03</pdfrwt>
<totfact> 0.34856130E+02</totfact>
</mgrwt>
</event>
<event>
 4    1  0.1101825E+000  0.1760250E+03  0.7546771E-02  0.1171706E+00
         21   -1    0    0  501  502  0.00000000000E+00  0.00000000000E+00  0.21367730775E+03  0.21367730775E+03  0.00000000000E+00 0. -1.
         21   -1    0    0  502  503 -0.00000000000E+00 -0.00000000000E+00 -0.15320477037E+03  0.15320477037E+03  0.00000000000E+00 0. -1.
          6    1    1    2  501    0 -0.31325977229E+02  0.20481014415E+02 -0.12196159857E+02  0.17644697537E+03  0.17200000000E+03 0. -1.
         -6    1    1    2    0  503  0.31325977229E+02 -0.20481014415E+02  0.72668697240E+02  0.19043510275E+03  0.17200000000E+03 0. -1.
<mgrwt>
<rscale>  2 0.17602497E+03</rscale>
<asrwt>0</asrwt>
<pdfrwt beam="1">  1       21 0.53419327E-01 0.17602497E+03</pdfrwt>
<pdfrwt beam="2">  1       21 0.38301193E-01 0.17602497E+03</pdfrwt>
<totfact> 0.22020505E+04</totfact>
</mgrwt>
</event>
<event>
 4    1  0.1101825E+000  0.1787419E+03  0.7546771E-02  0.1169026E+00
         21   -1    0    0  501  502  0.00000000000E+00  0.00000000000E+00  0.12984102942E+04  0.12984102942E+04  0.00000000000E+00 0.  1.
         21   -1    0    0  502  503 -0.00000000000E+00 -0.00000000000E+00 -0.52436188191E+02  0.52436188191E+02  0.00000000000E+00 0. -1.
          6    1    1    2  501    0  0.22432153291E+02 -0.43144615739E+02  0.11150477321E+04  0.11292830045E+04  0.17200000000E+03 0.  1.
         -6    1    1    2    0  503 -0.22432153291E+02  0.43144615739E+02  0.13092637399E+03  0.22156347798E+03  0.17200000000E+03 0. -1.
<mgrwt>
<rscale>  2 0.17874188E+03</rscale>
<asrwt>0</asrwt>
<pdfrwt beam="1">  1       21 0.32460247E+00 0.17874188E+03</pdfrwt>
<pdfrwt beam="2">  1       21 0.13109051E-01 0.17874188E+03</pdfrwt>
<totfact> 0.12574265E+03</totfact>
</mgrwt>
</event>
<event>
 4    1  0.1101825E+000  0.2041598E+03  0.7546771E-02  0.1146276E+00
         21   -1    0    0  501  502  0.00000000000E+00  0.00000000000E+00  0.34165636300E+03  0.34165636300E+03  0.00000000000E+00 0.  1.
         21   -1    0    0  502  503 -0.00000000000E+00 -0.00000000000E+00 -0.13032609290E+03  0.13032609290E+03  0.00000000000E+00 0. -1.
          6    1    1    2  501    0 -0.68175577563E+01 -0.10977580335E+03  0.46007337739E+02  0.20927943335E+03  0.17200000000E+03 0. -1.
         -6    1    1    2    0  503  0.68175577563E+01  0.10977580335E+03  0.16532293236E+03  0.26270302255E+03  0.17200000000E+03 0. -1.
<mgrwt>
<rscale>  2 0.20415976E+03</rscale>
<asrwt>0</asrwt>
<pdfrwt beam="1">  1       21 0.85414089E-01 0.20415976E+03</pdfrwt>
<pdfrwt beam="2">  1       21 0.32581524E-01 0.20415976E+03</pdfrwt>
<totfact> 0.10658095E+04</totfact>
</mgrwt>
</event>
<event>
 4    1  0.1101825E+000  0.1862778E+03  0.7546771E-02  0.1161862E+00
         21   -1    0    0  503  502  0.00000000000E+00  0.00000000000E+00  0.58458101317E+02  0.58458101317E+02  0.00000000000E+00 0.  1.
         21   -1    0    0  501  503 -0.00000000000E+00 -0.00000000000E+00 -0.73808283162E+03  0.73808283162E+03  0.00000000000E+00 0.  1.
          6    1    1    2  501    0 -0.51164245291E+02 -0.49976274361E+02 -0.16358731961E+03  0.24791171641E+03  0.17200000000E+03 0. -1.
         -6    1    1    2    0  502  0.51164245291E+02  0.49976274361E+02 -0.51603741069E+03  0.54862921653E+03  0.17200000000E+03 0. -1.
<mgrwt>
<rscale>  2 0.18627777E+03</rscale>
<asrwt>0</asrwt>
<pdfrwt beam="1">  1       21 0.14614525E-01 0.18627777E+03</pdfrwt>
<pdfrwt beam="2">  1       21 0.18452071E+00 0.18627777E+03</pdfrwt>
<totfact> 0.70146231E+03</totfact>
</mgrwt>
</event>
<event>
 4    1  0.1101825E+000  0.2144786E+03  0.7546771E-02  0.1138068E+00
         21   -1    0    0  503  502  0.00000000000E+00  0.00000000000E+00  0.42217783542E+03  0.42217783542E+03  0.00000000000E+00 0. -1.
         21   -1    0    0  501  503 -0.00000000000E+00 -0.00000000000E+00 -0.13503156635E+03  0.13503156635E+03  0.00000000000E+00 0. -1.
          6    1    1    2  501    0  0.10170535034E+03  0.77930069124E+02  0.21155786975E+02  0.21551946846E+03  0.17200000000E+03 0.  1.
         -6    1    1    2    0  502 -0.10170535034E+03 -0.77930069124E+02  0.26599048210E+03  0.34168993331E+03  0.17200000000E+03 0.  1.
<mgrwt>
<rscale>  2 0.21447861E+03</rscale>
<asrwt>0</asrwt>
<pdfrwt beam="1">  1       21 0.10554446E+00 0.21447861E+03</pdfrwt>
<pdfrwt beam="2">  1       21 0.33757893E-01 0.21447861E+03</pdfrwt>
<totfact> 0.60000847E+03</totfact>
</mgrwt>
</event>
<event>
 4    1  0.1101825E+000  0.1736938E+03  0.7546771E-02  0.1174050E+00
         21   -1    0    0  501  502  0.00000000000E+00  0.00000000000E+00  0.40523877668E+02  0.40523877668E+02  0.00000000000E+00 0. -1.
         21   -1    0    0  502  503 -0.00000000000E+00 -0.00000000000E+00 -0.93029728042E+03  0.93029728042E+03  0.00000000000E+00 0. -1.
          6    1    1    2  501    0  0.18453297545E+02  0.15653197607E+02 -0.22795057313E+03  0.28658508436E+03  0.17200000000E+03 0. -1.
         -6    1    1    2    0  503 -0.18453297545E+02 -0.15653197607E+02 -0.66182282962E+03  0.68423607373E+03  0.17200000000E+03 0. -1.
<mgrwt>
<rscale>  2 0.17369383E+03</rscale>
<asrwt>0</asrwt>
<pdfrwt beam="1">  1       21 0.10130969E-01 0.17369383E+03</pdfrwt>
<pdfrwt beam="2">  1       21 0.23257432E+00 0.17369383E+03</pdfrwt>
<totfact> 0.68198004E+03</totfact>
</mgrwt>
</event>
<event>
 4    1  0.1101825E+000  0.1859739E+03  0.7546771E-02  0.1162144E+00
         21   -1    0    0  501  502  0.00000000000E+00  0.00000000000E+00  0.99355914244E+03  0.99355914244E+03  0.00000000000E+00 0. -1.
         21   -1    0    0  502  503 -0.00000000000E+00 -0.00000000000E+00 -0.72184417610E+02  0.72184417610E+02  0.00000000000E+00 0. -1.
          6    1    1    2  501    0  0.45219445801E+02 -0.54382697296E+02  0.84411674438E+03  0.86436066210E+03  0.17200000000E+03 0. -1.
         -6    1    1    2    0  503 -0.45219445801E+02  0.54382697296E+02  0.77257980450E+02  0.20138289795E+03  0.17200000000E+03 0. -1.
<mgrwt>
<rscale>  2 0.18597386E+03</rscale>
<asrwt>0</asrwt>
<pdfrwt beam="1">  1       21 0.24838974E+00 0.18597386E+03</pdfrwt>
<pdfrwt beam="2">  1       21 0.18046108E-01 0.18597386E+03</pdfrwt>
<totfact> 0.19139958E+03</totfact>
</mgrwt>
</event>
<event>
 4    1  0.1101825E+000  0.1984677E+03  0.7546771E-02  0.1151038E+00
         21   -1    0    0  501  502  0.00000000000E+00  0.00000000000E+00  0.38458705651E+03  0.38458705651E+03  0.00000000000E+00 0. -1.
         21   -1    0    0  502  503 -0.00000000000E+00 -0.00000000000E+00 -0.11535462368E+03  0.11535462368E+03  0.00000000000E+00 0. -1.
          6    1    1    2  501    0  0.82785817560E+02 -0.54331783953E+02  0.21832046897E+03  0.29504789697E+03  0.17200000000E+03 0. -1.
         -6    1    1    2    0  503 -0.82785817560E+02  0.54331783953E+02  0.50911963861E+02  0.20489378322E+03  0.17200000000E+03 0. -1.
<mgrwt>
<rscale>  2 0.19846772E+03</rscale>
<asrwt>0</asrwt>
<pdfrwt beam="1">  1       21 0.96146761E-01 0.19846772E+03</pdfrwt>
<pdfrwt beam="2">  1       21 0.28838657E-01 0.19846772E+03</pdfrwt>
<totfact> 0.10321315E+04</totfact>
</mgrwt>
</event>
<event>
 4    1  0.1101825E+000  0.3214601E+03  0.7546771E-02  0.1074979E+00
         21   -1    0    0  503  502  0.00000000000E+00  0.00000000000E+00  0.33449976132E+03  0.33449976132E+03  0.00000000000E+00 0. -1.
         21   -1    0    0  501  503 -0.00000000000E+00 -0.00000000000E+00 -0.47162607119E+03  0.47162607119E+03  0.00000000000E+00 0. -1.
          6    1    1    2  501    0 -0.57579375450E+02  0.26540006307E+03 -0.30529909876E+03  0.44333296478E+03  0.17200000000E+03 0. -1.
         -6    1    1    2    0  502  0.57579375450E+02 -0.26540006307E+03  0.16817278889E+03  0.36279286773E+03  0.17200000000E+03 0. -1.
<mgrwt>
<rscale>  2 0.32146007E+03</rscale>
<asrwt>0</asrwt>
<pdfrwt beam="1">  1       21 0.83624941E-01 0.32146007E+03</pdfrwt>
<pdfrwt beam="2">  1       21 0.11790652E+00 0.32146007E+03</pdfrwt>
<totfact> 0.61627810E+02</totfact>
</mgrwt>
</event>
<event>
 4    1  0.1101825E+000  0.2369829E+03  0.7546771E-02  0.1121819E+00
         21   -1    0    0  503  502  0.00000000000E+00  0.00000000000E+00  0.47701179592E+03  0.47701179592E+03  0.00000000000E+00 0.  1.
         21   -1    0    0  501  503 -0.00000000000E+00 -0.00000000000E+00 -0.14696447451E+03  0.14696447451E+03  0.00000000000E+00 0.  1.
          6    1    1    2  501    0 -0.14674611103E+02 -0.16236242994E+03  0.30416098887E+03  0.38558372634E+03  0.17200000000E+03 0.  1.
         -6    1    1    2    0  502  0.14674611103E+02  0.16236242994E+03  0.25886332546E+02  0.23839254409E+03  0.17200000000E+03 0.  1.
<mgrwt>
<rscale>  2 0.23698292E+03</rscale>
<asrwt>0</asrwt>
<pdfrwt beam="1">  1       21 0.11925295E+00 0.23698292E+03</pdfrwt>
<pdfrwt beam="2">  1       21 0.36741120E-01 0.23698292E+03</pdfrwt>
<totfact> 0.37010395E+03</totfact>
</mgrwt>
</event>
<event>
 4    1  0.1101825E+000  0.1890945E+03  0.7546771E-02  0.1159281E+00
         21   -1    0    0  501  502  0.00000000000E+00  0.00000000000E+00  0.18277447369E+03  0.18277447369E+03  0.00000000000E+00 0.  1.
         21   -1    0    0  502  503 -0.00000000000E+00 -0.00000000000E+00 -0.20727294011E+03  0.20727294011E+03  0.00000000000E+00 0.  1.
          6    1    1    2  501    0 -0.16694772458E+02  0.76772580151E+02 -0.58464858635E+02  0.19792646156E+03  0.17200000000E+03 0.  1.
         -6    1    1    2    0  503  0.16694772458E+02 -0.76772580151E+02  0.33966392207E+02  0.19212095224E+03  0.17200000000E+03 0.  1.
<mgrwt>
<rscale>  2 0.18909454E+03</rscale>
<asrwt>0</asrwt>
<pdfrwt beam="1">  1       21 0.45693619E-01 0.18909454E+03</pdfrwt>
<pdfrwt beam="2">  1       21 0.51818235E-01 0.18909454E+03</pdfrwt>
<totfact> 0.16274285E+04</totfact>
</mgrwt>
</event>
<event>
 4    1  0.1101825E+000  0.1851872E+03  0.7546771E-02  0.1162875E+00
         21   -1    0    0  503  502  0.00000000000E+00  0.00000000000E+00  0.23568759288E+03  0.23568759288E+03  0.00000000000E+00 0.  1.
         21   -1    0    0  501  503 -0.00000000000E+00 -0.00000000000E+00 -0.15260962643E+03  0.15260962643E+03  0.00000000000E+00 0.  1.
          6    1    1    2  501    0 -0.67754970983E+02  0.10933827646E+02 -0.34433856088E+00  0.18518748135E+03  0.17200000000E+03 0.  1.
         -6    1    1    2    0  502  0.67754970983E+02 -0.10933827646E+02  0.83422305019E+02  0.20310973796E+03  0.17200000000E+03 0.  1.
<mgrwt>
<rscale>  2 0.18518716E+03</rscale>
<asrwt>0</asrwt>
<pdfrwt beam="1">  1       21 0.58921898E-01 0.18518716E+03</pdfrwt>
<pdfrwt beam="2">  1       21 0.38152407E-01 0.18518716E+03</pdfrwt>
<totfact> 0.17928860E+04</totfact>
</mgrwt>
</event>
<event>
 4    1  0.1101825E+000  0.1888312E+03  0.7546771E-02  0.1159520E+00
         21   -1    0    0  503  502  0.00000000000E+00  0.00000000000E+00  0.17742148216E+03  0.17742148216E+03  0.00000000000E+00 0.  1.
         21   -1    0    0  501  503 -0.00000000000E+00 -0.00000000000E+00 -0.21007374262E+03  0.21007374262E+03  0.00000000000E+00 0. -1.
          6    1    1    2  501    0  0.77876934557E+02 -0.28967674953E+01 -0.56648972866E+02  0.19714541416E+03  0.17200000000E+03 0. -1.
         -6    1    1    2    0  502 -0.77876934557E+02  0.28967674953E+01  0.23996712408E+02  0.19034981062E+03  0.17200000000E+03 0. -1.
<mgrwt>
<rscale>  2 0.18883116E+03</rscale>
<asrwt>0</asrwt>
<pdfrwt beam="1">  1       21 0.44355371E-01 0.18883116E+03</pdfrwt>
<pdfrwt beam="2">  1       21 0.52518435E-01 0.18883116E+03</pdfrwt>
<totfact> 0.16820731E+04</totfact>
</mgrwt>
</event>
<event>
 4    1  0.1101825E+000  0.1899928E+03  0.7546771E-02  0.1158468E+00
         21   -1    0    0  501  502  0.00000000000E+00  0.00000000000E+00  0.11600744961E+03  0.11600744961E+03  0.00000000000E+00 0. -1.
         21   -1    0    0  502  503 -0.00000000000E+00 -0.00000000000E+00 -0.52466431928E+03  0.52466431928E+03  0.00000000000E+00 0. -1.
          6    1    1    2  501    0  0.12166135530E+01 -0.80695712535E+02  0.16864096034E-01  0.18999283790E+03  0.17200000000E+03 0. -1.
         -6    1    1    2    0  503 -0.12166135530E+01  0.80695712535E+02 -0.40867373376E+03  0.45067893099E+03  0.17200000000E+03 0. -1.
<mgrwt>
<rscale>  2 0.18999284E+03</rscale>
<asrwt>0</asrwt>
<pdfrwt beam="1">  1       21 0.29001863E-01 0.18999284E+03</pdfrwt>
<pdfrwt beam="2">  1       21 0.13116608E+00 0.18999284E+03</pdfrwt>
<totfact> 0.48205472E+03</totfact>
</mgrwt>
</event>
<event>
 4    1  0.1101825E+000  0.1772467E+03  0.7546771E-02  0.1170495E+00
         21   -1    0    0  503  502  0.00000000000E+00  0.00000000000E+00  0.44617878653E+03  0.44617878653E+03  0.00000000000E+00 0. -1.
         21   -1    0    0  501  503 -0.00000000000E+00 -0.00000000000E+00 -0.10520774043E+03  0.10520774043E+03  0.00000000000E+00 0. -1.
          6    1    1    2  501    0  0.34749909830E+02 -0.24996811331E+02  0.32903490898E+03  0.37373836857E+03  0.17200000000E+03 0. -1.
         -6    1    1    2    0  502 -0.34749909830E+02  0.24996811331E+02  0.11936137115E+02  0.17764815839E+03  0.17200000000E+03 0. -1.
<mgrwt>
<rscale>  2 0.17724671E+03</rscale>
<asrwt>0</asrwt>
<pdfrwt beam="1">  1       21 0.11154469E+00 0.17724671E+03</pdfrwt>
<pdfrwt beam="2">  1       21 0.26301936E-01 0.17724671E+03</pdfrwt>
<totfact> 0.87781148E+03</totfact>
</mgrwt>
</event>
<event>
 4    1  0.1101825E+000  0.2581919E+03  0.7546771E-02  0.1108234E+00
         21   -1    0    0  501  502  0.00000000000E+00  0.00000000000E+00  0.64618841761E+03  0.64618841761E+03  0.00000000000E+00 0. -1.
         21   -1    0    0  502  503 -0.00000000000E+00 -0.00000000000E+00 -0.30606938142E+03  0.30606938142E+03  0.00000000000E+00 0.  1.
          6    1    1    2  501    0  0.12029498502E+02  0.19218309688E+03  0.55772928178E+03  0.61459336420E+03  0.17200000000E+03 0. -1.
         -6    1    1    2    0  503 -0.12029498502E+02 -0.19218309688E+03 -0.21761024559E+03  0.33766443483E+03  0.17200000000E+03 0.  1.
<mgrwt>
<rscale>  2 0.25819189E+03</rscale>
<asrwt>0</asrwt>
<pdfrwt beam="1">  1       21 0.16154710E+00 0.25819189E+03</pdfrwt>
<pdfrwt beam="2">  1       21 0.76517347E-01 0.25819189E+03</pdfrwt>
<totfact> 0.34806789E+02</totfact>
</mgrwt>
</event>
<event>
 4    1  0.1101825E+000  0.1948128E+03  0.7546771E-02  0.1154191E+00
         21   -1    0    0  503  502  0.00000000000E+00  0.00000000000E+00  0.14200870570E+03  0.14200870570E+03  0.00000000000E+00 0. -1.
         21   -1    0    0  501  503 -0.00000000000E+00 -0.00000000000E+00 -0.27441215927E+03  0.27441215927E+03  0.00000000000E+00 0. -1.
          6    1    1    2  501    0 -0.69982063369E+02 -0.58911352882E+02 -0.99835681762E+02  0.21890454551E+03  0.17200000000E+03 0. -1.
         -6    1    1    2    0  502  0.69982063369E+02  0.58911352882E+02 -0.32567771815E+02  0.19751631946E+03  0.17200000000E+03 0. -1.
<mgrwt>
<rscale>  2 0.19481282E+03</rscale>
<asrwt>0</asrwt>
<pdfrwt beam="1">  1       21 0.35502177E-01 0.19481282E+03</pdfrwt>
<pdfrwt beam="2">  1       21 0.68603039E-01 0.19481282E+03</pdfrwt>
<totfact> 0.14797474E+04</totfact>
</mgrwt>
</event>
<event>
 4    1  0.1101825E+000  0.1928760E+03  0.7546771E-02  0.1155893E+00
         21   -1    0    0  501  502  0.00000000000E+00  0.00000000000E+00  0.25616359412E+03  0.25616359412E+03  0.00000000000E+00 0.  1.
         21   -1    0    0  502  503 -0.00000000000E+00 -0.00000000000E+00 -0.18586674335E+03  0.18586674335E+03  0.00000000000E+00 0.  1.
          6    1    1    2  501    0 -0.38502937105E+02 -0.78324168801E+02  0.13849871676E+03  0.23745114472E+03  0.17200000000E+03 0.  1.
         -6    1    1    2    0  503  0.38502937105E+02  0.78324168801E+02 -0.68201865989E+02  0.20457919276E+03  0.17200000000E+03 0.  1.
<mgrwt>
<rscale>  2 0.19287600E+03</rscale>
<asrwt>0</asrwt>
<pdfrwt beam="1">  1       21 0.64040898E-01 0.19287600E+03</pdfrwt>
<pdfrwt beam="2">  1       21 0.46466686E-01 0.19287600E+03</pdfrwt>
<totfact> 0.99847324E+03</totfact>
</mgrwt>
</event>
<event>
 4    1  0.1101825E+000  0.2330347E+03  0.7546771E-02  0.1124522E+00
         21   -1    0    0  503  502  0.00000000000E+00  0.00000000000E+00  0.12179840332E+03  0.12179840332E+03  0.00000000000E+00 0. -1.
         21   -1    0    0  501  503 -0.00000000000E+00 -0.00000000000E+00 -0.59436234320E+03  0.59436234320E+03  0.00000000000E+00 0. -1.
          6    1    1    2  501    0 -0.12102763916E+03  0.10036664655E+03 -0.41526840664E+03  0.47618589094E+03  0.17200000000E+03 0. -1.
         -6    1    1    2    0  502  0.12102763916E+03 -0.10036664655E+03 -0.57295533242E+02  0.23997485558E+03  0.17200000000E+03 0. -1.
<mgrwt>
<rscale>  2 0.23303466E+03</rscale>
<asrwt>0</asrwt>
<pdfrwt beam="1">  1       21 0.30449601E-01 0.23303466E+03</pdfrwt>
<pdfrwt beam="2">  1       21 0.14859059E+00 0.23303466E+03</pdfrwt>
<totfact> 0.30656698E+03</totfact>
</mgrwt>
</event>
<event>
 4    1  0.1101825E+000  0.2138610E+03  0.7546771E-02  0.1138544E+00
         21   -1    0    0  501  502  0.00000000000E+00  0.00000000000E+00  0.82470397459E+02  0.82470397459E+02  0.00000000000E+00 0.  1.
         21   -1    0    0  502  503 -0.00000000000E+00 -0.00000000000E+00 -0.69195306867E+03  0.69195306867E+03  0.00000000000E+00 0.  1.
          6    1    1    2  501    0  0.11922618004E+03 -0.44018768180E+02 -0.13221354770E+03  0.25142982352E+03  0.17200000000E+03 0.  1.
         -6    1    1    2    0  503 -0.11922618004E+03  0.44018768180E+02 -0.47726912351E+03  0.52299364261E+03  0.17200000000E+03 0.  1.
<mgrwt>
<rscale>  2 0.21386102E+03</rscale>
<asrwt>0</asrwt>
<pdfrwt beam="1">  1       21 0.20617600E-01 0.21386102E+03</pdfrwt>
<pdfrwt beam="2">  1       21 0.17298826E+00 0.21386102E+03</pdfrwt>
<totfact> 0.43536017E+03</totfact>
</mgrwt>
</event>
<event>
 4    1  0.1101825E+000  0.1963875E+03  0.7546771E-02  0.1152823E+00
         21   -1    0    0  503  502  0.00000000000E+00  0.00000000000E+00  0.22801345064E+03  0.22801345064E+03  0.00000000000E+00 0. -1.
         21   -1    0    0  501  503 -0.00000000000E+00 -0.00000000000E+00 -0.17452968270E+03  0.17452968270E+03  0.00000000000E+00 0. -1.
          6    1    1    2  501    0  0.64561671964E+02  0.69396370917E+02  0.62084489964E+02  0.20596735100E+03  0.17200000000E+03 0. -1.
         -6    1    1    2    0  502 -0.64561671964E+02 -0.69396370917E+02 -0.86007220291E+01  0.19657578234E+03  0.17200000000E+03 0. -1.
<mgrwt>
<rscale>  2 0.19638754E+03</rscale>
<asrwt>0</asrwt>
<pdfrwt beam="1">  1       21 0.57003363E-01 0.19638754E+03</pdfrwt>
<pdfrwt beam="2">  1       21 0.43632421E-01 0.19638754E+03</pdfrwt>
<totfact> 0.14560047E+04</totfact>
</mgrwt>
</event>
<event>
 4    1  0.1101825E+000  0.1903040E+03  0.7546771E-02  0.1158187E+00
         21   -1    0    0  501  502  0.00000000000E+00  0.00000000000E+00  0.80519966667E+03  0.80519966667E+03  0.00000000000E+00 0. -1.
         21   -1    0    0  502  503 -0.00000000000E+00 -0.00000000000E+00 -0.47191752556E+02  0.47191752556E+02  0.00000000000E+00 0. -1.
          6    1    1    2  501    0 -0.28283891168E+02  0.76365015488E+02  0.47132973093E+03  0.50829844516E+03  0.17200000000E+03 0. -1.
         -6    1    1    2    0  503  0.28283891168E+02 -0.76365015488E+02  0.28667818318E+03  0.34409297407E+03  0.17200000000E+03 0. -1.
<mgrwt>
<rscale>  2 0.19030395E+03</rscale>
<asrwt>0</asrwt>
<pdfrwt beam="1">  1       21 0.20129987E+00 0.19030395E+03</pdfrwt>
<pdfrwt beam="2">  1       21 0.11797941E-01 0.19030395E+03</pdfrwt>
<totfact> 0.79842858E+03</totfact>
</mgrwt>
</event>
<event>
 4    1  0.1101825E+000  0.1898601E+03  0.7546771E-02  0.1158588E+00
         21   -1    0    0  501  502  0.00000000000E+00  0.00000000000E+00  0.19903692036E+03  0.19903692036E+03  0.00000000000E+00 0.  1.
         21   -1    0    0  502  503 -0.00000000000E+00 -0.00000000000E+00 -0.64297086455E+03  0.64297086455E+03  0.00000000000E+00 0.  1.
          6    1    1    2  501    0 -0.80011653174E+02 -0.78090697908E+01  0.13485186357E+03  0.23287737400E+03  0.17200000000E+03 0.  1.
         -6    1    1    2    0  503  0.80011653174E+02  0.78090697908E+01 -0.57878580777E+03  0.60913041090E+03  0.17200000000E+03 0.  1.
<mgrwt>
<rscale>  2 0.18986007E+03</rscale>
<asrwt>0</asrwt>
<pdfrwt beam="1">  1       21 0.49759230E-01 0.18986007E+03</pdfrwt>
<pdfrwt beam="2">  1       21 0.16074272E+00 0.18986007E+03</pdfrwt>
<totfact> 0.95963943E+02</totfact>
</mgrwt>
</event>
<event>
 4    1  0.1101825E+000  0.2646751E+03  0.7546771E-02  0.1104366E+00
         21   -1    0    0  503  502  0.00000000000E+00  0.00000000000E+00  0.21154167840E+03  0.21154167840E+03  0.00000000000E+00 0.  1.
         21   -1    0    0  501  503 -0.00000000000E+00 -0.00000000000E+00 -0.33885160831E+03  0.33885160831E+03  0.00000000000E+00 0. -1.
          6    1    1    2  501    0  0.13110106211E+03  0.15258245256E+03 -0.10513255809E+03  0.28479070927E+03  0.17200000000E+03 0.  1.
         -6    1    1    2    0  502 -0.13110106211E+03 -0.15258245256E+03 -0.22177371815E+02  0.26560257743E+03  0.17200000000E+03 0.  1.
<mgrwt>
<rscale>  2 0.26467507E+03</rscale>
<asrwt>0</asrwt>
<pdfrwt beam="1">  1       21 0.52885420E-01 0.26467507E+03</pdfrwt>
<pdfrwt beam="2">  1       21 0.84712902E-01 0.26467507E+03</pdfrwt>
<totfact> 0.38870386E+03</totfact>
</mgrwt>
</event>
<event>
 4    1  0.1101825E+000  0.2280563E+03  0.7546771E-02  0.1128015E+00
         21   -1    0    0  503  502  0.00000000000E+00  0.00000000000E+00  0.12353504016E+04  0.12353504016E+04  0.00000000000E+00 0.  1.
         21   -1    0    0  501  503 -0.00000000000E+00 -0.00000000000E+00 -0.97231717260E+02  0.97231717260E+02  0.00000000000E+00 0. -1.
          6    1    1    2  501    0  0.12826677507E+03 -0.77287195689E+02  0.67345334377E+02  0.23779207360E+03  0.17200000000E+03 0. -1.
         -6    1    1    2    0  502 -0.12826677507E+03  0.77287195689E+02  0.10707733500E+04  0.10947900453E+04  0.17200000000E+03 0.  1.
<mgrwt>
<rscale>  2 0.22805630E+03</rscale>
<asrwt>0</asrwt>
<pdfrwt beam="1">  1       21 0.30883755E+00 0.22805630E+03</pdfrwt>
<pdfrwt beam="2">  1       21 0.24307933E-01 0.22805630E+03</pdfrwt>
<totfact> 0.46231316E+02</totfact>
</mgrwt>
</event>
<event>
 4    1  0.1101825E+000  0.2688464E+03  0.7546771E-02  0.1101942E+00
         21   -1    0    0  501  502  0.00000000000E+00  0.00000000000E+00  0.14964255256E+03  0.14964255256E+03  0.00000000000E+00 0. -1.
         21   -1    0    0  502  503 -0.00000000000E+00 -0.00000000000E+00 -0.50456119417E+03  0.50456119417E+03  0.00000000000E+00 0. -1.
          6    1    1    2  501    0  0.20101365776E+03  0.47832137934E+02 -0.24506633540E+03  0.36378003350E+03  0.17200000000E+03 0. -1.
         -6    1    1    2    0  503 -0.20101365776E+03 -0.47832137934E+02 -0.10985230620E+03  0.29042371323E+03  0.17200000000E+03 0. -1.
<mgrwt>
<rscale>  2 0.26884643E+03</rscale>
<asrwt>0</asrwt>
<pdfrwt beam="1">  1       21 0.37410639E-01 0.26884643E+03</pdfrwt>
<pdfrwt beam="2">  1       21 0.12614030E+00 0.26884643E+03</pdfrwt>
<totfact> 0.30335458E+03</totfact>
</mgrwt>
</event>
<event>
 4    1  0.1101825E+000  0.2628915E+03  0.7546771E-02  0.1105418E+00
         21   -1    0    0  501  502  0.00000000000E+00  0.00000000000E+00  0.73491828654E+03  0.73491828654E+03  0.00000000000E+00 0.  1.
         21   -1    0    0  502  503 -0.00000000000E+00 -0.00000000000E+00 -0.15960483945E+03  0.15960483945E+03  0.00000000000E+00 0.  1.
          6    1    1    2  501    0 -0.19096032499E+03  0.55336184984E+02  0.57432064892E+03  0.63162975457E+03  0.17200000000E+03 0.  1.
         -6    1    1    2    0  503  0.19096032499E+03 -0.55336184984E+02  0.99279817298E+00  0.26289337142E+03  0.17200000000E+03 0.  1.
<mgrwt>
<rscale>  2 0.26289150E+03</rscale>
<asrwt>0</asrwt>
<pdfrwt beam="1">  1       21 0.18372956E+00 0.26289150E+03</pdfrwt>
<pdfrwt beam="2">  1       21 0.39901212E-01 0.26289150E+03</pdfrwt>
<totfact> 0.97220207E+02</totfact>
</mgrwt>
</event>
<event>
 4    1  0.1101825E+000  0.1794081E+03  0.7546771E-02  0.1168377E+00
         21   -1    0    0  501  502  0.00000000000E+00  0.00000000000E+00  0.24179878800E+03  0.24179878800E+03  0.00000000000E+00 0. -1.
         21   -1    0    0  502  503 -0.00000000000E+00 -0.00000000000E+00 -0.51853622504E+03  0.51853622504E+03  0.00000000000E+00 0. -1.
          6    1    1    2  501    0 -0.21598968148E+02  0.46224845676E+02  0.18938888609E+03  0.26087430298E+03  0.17200000000E+03 0. -1.
         -6    1    1    2    0  503  0.21598968148E+02 -0.46224845676E+02 -0.46612632313E+03  0.49946071006E+03  0.17200000000E+03 0. -1.
<mgrwt>
<rscale>  2 0.17940806E+03</rscale>
<asrwt>0</asrwt>
<pdfrwt beam="1">  1       21 0.60449697E-01 0.17940806E+03</pdfrwt>
<pdfrwt beam="2">  1       21 0.12963406E+00 0.17940806E+03</pdfrwt>
<totfact> 0.11255072E+03</totfact>
</mgrwt>
</event>
<event>
 4    1  0.1101825E+000  0.2249548E+03  0.7546771E-02  0.1130242E+00
         21   -1    0    0  503  502  0.00000000000E+00  0.00000000000E+00  0.40362827477E+03  0.40362827477E+03  0.00000000000E+00 0.  1.
         21   -1    0    0  501  503 -0.00000000000E+00 -0.00000000000E+00 -0.36154719548E+03  0.36154719548E+03  0.00000000000E+00 0. -1.
          6    1    1    2  501    0  0.35727189885E+02 -0.14051420548E+03 -0.28817650963E+03  0.36558224073E+03  0.17200000000E+03 0. -1.
         -6    1    1    2    0  502 -0.35727189885E+02  0.14051420548E+03  0.33025758892E+03  0.39959322952E+03  0.17200000000E+03 0.  1.
<mgrwt>
<rscale>  2 0.22495483E+03</rscale>
<asrwt>0</asrwt>
<pdfrwt beam="1">  1       21 0.10090707E+00 0.22495483E+03</pdfrwt>
<pdfrwt beam="2">  1       21 0.90386799E-01 0.22495483E+03</pdfrwt>
<totfact> 0.80970647E+02</totfact>
</mgrwt>
</event>
<event>
 4    1  0.1101825E+000  0.2120308E+03  0.7546771E-02  0.1139968E+00
         21   -1    0    0  501  502  0.00000000000E+00  0.00000000000E+00  0.11650553175E+03  0.11650553175E+03  0.00000000000E+00 0.  1.
         21   -1    0    0  502  503 -0.00000000000E+00 -0.00000000000E+00 -0.51922564589E+03  0.51922564589E+03  0.00000000000E+00 0.  1.
          6    1    1    2  501    0  0.25404898935E+02 -0.12135762023E+03 -0.40274761827E+02  0.21582200379E+03  0.17200000000E+03 0.  1.
         -6    1    1    2    0  503 -0.25404898935E+02  0.12135762023E+03 -0.36244535231E+03  0.41990917386E+03  0.17200000000E+03 0.  1.
<mgrwt>
<rscale>  2 0.21203085E+03</rscale>
<asrwt>0</asrwt>
<pdfrwt beam="1">  1       21 0.29126383E-01 0.21203085E+03</pdfrwt>
<pdfrwt beam="2">  1       21 0.12980641E+00 0.21203085E+03</pdfrwt>
<totfact> 0.48213694E+03</totfact>
</mgrwt>
</event>
<event>
 4    1  0.1101825E+000  0.2220285E+03  0.7546771E-02  0.1132380E+00
         21   -1    0    0  503  502  0.00000000000E+00  0.00000000000E+00  0.42414966419E+03  0.42414966419E+03  0.00000000000E+00 0. -1.
         21   -1    0    0  501  503 -0.00000000000E+00 -0.00000000000E+00 -0.12479445522E+03  0.12479445522E+03  0.00000000000E+00 0. -1.
          6    1    1    2  501    0  0.35419695758E+02  0.13586066980E+03  0.77751892545E+02  0.23524887511E+03  0.17200000000E+03 0. -1.
         -6    1    1    2    0  502 -0.35419695758E+02 -0.13586066980E+03  0.22160331642E+03  0.31369524430E+03  0.17200000000E+03 0. -1.
<mgrwt>
<rscale>  2 0.22202855E+03</rscale>
<asrwt>0</asrwt>
<pdfrwt beam="1">  1       21 0.10603741E+00 0.22202855E+03</pdfrwt>
<pdfrwt beam="2">  1       21 0.31198615E-01 0.22202855E+03</pdfrwt>
<totfact> 0.68947343E+03</totfact>
</mgrwt>
</event>
<event>
 4    1  0.1101825E+000  0.2728108E+03  0.7546771E-02  0.1099682E+00
         21   -1    0    0  503  502  0.00000000000E+00  0.00000000000E+00  0.39347079422E+03  0.39347079422E+03  0.00000000000E+00 0. -1.
         21   -1    0    0  501  503 -0.00000000000E+00 -0.00000000000E+00 -0.55064432519E+03  0.55064432519E+03  0.00000000000E+00 0.  1.
          6    1    1    2  501    0  0.17255467296E+03 -0.12274610520E+03 -0.46106701561E+03  0.53573175600E+03  0.17200000000E+03 0.  1.
         -6    1    1    2    0  502 -0.17255467296E+03  0.12274610520E+03  0.30389348464E+03  0.40838336341E+03  0.17200000000E+03 0. -1.
<mgrwt>
<rscale>  2 0.27281078E+03</rscale>
<asrwt>0</asrwt>
<pdfrwt beam="1">  1       21 0.98367699E-01 0.27281078E+03</pdfrwt>
<pdfrwt beam="2">  1       21 0.13766108E+00 0.27281078E+03</pdfrwt>
<totfact> 0.29398741E+02</totfact>
</mgrwt>
</event>
<event>
 4    1  0.1101825E+000  0.1911461E+03  0.7546771E-02  0.1157432E+00
         21   -1    0    0  503  502  0.00000000000E+00  0.00000000000E+00  0.19653021618E+03  0.19653021618E+03  0.00000000000E+00 0.  1.
         21   -1    0    0  501  503 -0.00000000000E+00 -0.00000000000E+00 -0.28752947167E+03  0.28752947167E+03  0.00000000000E+00 0. -1.
          6    1    1    2  501    0 -0.62077819728E+02 -0.55670348556E+02 -0.18938517484E+03  0.26907914795E+03  0.17200000000E+03 0. -1.
         -6    1    1    2    0  502  0.62077819728E+02  0.55670348556E+02  0.98385919348E+02  0.21498053990E+03  0.17200000000E+03 0.  1.
<mgrwt>
<rscale>  2 0.19114613E+03</rscale>
<asrwt>0</asrwt>
<pdfrwt beam="1">  1       21 0.49132554E-01 0.19114613E+03</pdfrwt>
<pdfrwt beam="2">  1       21 0.71882367E-01 0.19114613E+03</pdfrwt>
<totfact> 0.69132970E+03</totfact>
</mgrwt>
</event>
<event>
 4    1  0.1101825E+000  0.2238748E+03  0.7546771E-02  0.1131027E+00
         21   -1    0    0  501  502  0.00000000000E+00  0.00000000000E+00  0.61638296399E+03  0.61638296399E+03  0.00000000000E+00 0. -1.
         21   -1    0    0  502  503 -0.00000000000E+00 -0.00000000000E+00 -0.81880512952E+02  0.81880512952E+02  0.00000000000E+00 0. -1.
          6    1    1    2  501    0  0.12045640063E+03  0.77628389743E+02  0.23818359285E+03  0.32688122499E+03  0.17200000000E+03 0. -1.
         -6    1    1    2    0  503 -0.12045640063E+03 -0.77628389743E+02  0.29631885819E+03  0.37138225195E+03  0.17200000000E+03 0. -1.
<mgrwt>
<rscale>  2 0.22387477E+03</rscale>
<asrwt>0</asrwt>
<pdfrwt beam="1">  1       21 0.15409573E+00 0.22387477E+03</pdfrwt>
<pdfrwt beam="2">  1       21 0.20470130E-01 0.22387477E+03</pdfrwt>
<totfact> 0.60027698E+03</totfact>
</mgrwt>
</event>
<event>
 4    1  0.1101825E+000  0.2022863E+03  0.7546771E-02  0.1147824E+00
         21   -1    0    0  501  502  0.00000000000E+00  0.00000000000E+00  0.76416922916E+02  0.76416922916E+02  0.00000000000E+00 0. -1.
         21   -1    0    0  502  503 -0.00000000000E+00 -0.00000000000E+00 -0.76518609835E+03  0.76518609835E+03  0.00000000000E+00 0. -1.
          6    1    1    2  501    0  0.63488344897E+02 -0.85469043700E+02 -0.11382663995E+03  0.23211254023E+03  0.17200000000E+03 0. -1.
         -6    1    1    2    0  503 -0.63488344897E+02  0.85469043700E+02 -0.57494253548E+03  0.60949048104E+03  0.17200000000E+03 0. -1.
<mgrwt>
<rscale>  2 0.20228625E+03</rscale>
<asrwt>0</asrwt>
<pdfrwt beam="1">  1       21 0.19104231E-01 0.20228625E+03</pdfrwt>
<pdfrwt beam="2">  1       21 0.19129652E+00 0.20228625E+03</pdfrwt>
<totfact> 0.38105860E+03</totfact>
</mgrwt>
</event>
<event>
 4    1  0.1101825E+000  0.1780722E+03  0.7546771E-02  0.1169682E+00
         21   -1    0    0  501  502  0.00000000000E+00  0.00000000000E+00  0.59978697375E+03  0.59978697375E+03  0.00000000000E+00 0.  1.
         21   -1    0    0  502  503 -0.00000000000E+00 -0.00000000000E+00 -0.57058783179E+02  0.57058783179E+02  0.00000000000E+00 0.  1.
          6    1    1    2  501    0  0.34222717610E+01  0.45978221610E+02  0.36036716103E+03  0.40196293306E+03  0.17200000000E+03 0.  1.
         -6    1    1    2    0  503 -0.34222717610E+01 -0.45978221610E+02  0.18236102953E+03  0.25488282386E+03  0.17200000000E+03 0.  1.
<mgrwt>
<rscale>  2 0.17807220E+03</rscale>
<asrwt>0</asrwt>
<pdfrwt beam="1">  1       21 0.14994672E+00 0.17807220E+03</pdfrwt>
<pdfrwt beam="2">  1       21 0.14264698E-01 0.17807220E+03</pdfrwt>
<totfact> 0.12997722E+04</totfact>
</mgrwt>
</event>
<event>
 4    1  0.1101825E+000  0.1904333E+03  0.7546771E-02  0.1158071E+00
         21   -1    0    0  501  502  0.00000000000E+00  0.00000000000E+00  0.20179649879E+03  0.20179649879E+03  0.00000000000E+00 0. -1.
         21   -1    0    0  502  503 -0.00000000000E+00 -0.00000000000E+00 -0.22757537932E+03  0.22757537932E+03  0.00000000000E+00 0. -1.
          6    1    1    2  501    0  0.37827072294E+02  0.72456700061E+02  0.85568658776E+02  0.20877465399E+03  0.17200000000E+03 0. -1.
         -6    1    1    2    0  503 -0.37827072294E+02 -0.72456700061E+02 -0.11134753931E+03  0.22059722413E+03  0.17200000000E+03 0. -1.
<mgrwt>
<rscale>  2 0.19043335E+03</rscale>
<asrwt>0</asrwt>
<pdfrwt beam="1">  1       21 0.50449125E-01 0.19043335E+03</pdfrwt>
<pdfrwt beam="2">  1       21 0.56893844E-01 0.19043335E+03</pdfrwt>
<totfact> 0.10873888E+04</totfact>
</mgrwt>
</event>
<event>
 4    1  0.1101825E+000  0.2089106E+03  0.7546771E-02  0.1142432E+00
         21   -1    0    0  503  502  0.00000000000E+00  0.00000000000E+00  0.98450593435E+02  0.98450593435E+02  0.00000000000E+00 0.  1.
         21   -1    0    0  501  503 -0.00000000000E+00 -0.00000000000E+00 -0.50857510836E+03  0.50857510836E+03  0.00000000000E+00 0.  1.
          6    1    1    2  501    0 -0.56480308493E+02  0.10425751177E+03 -0.31379397251E+03  0.37697521296E+03  0.17200000000E+03 0.  1.
         -6    1    1    2    0  502  0.56480308493E+02 -0.10425751177E+03 -0.96330542419E+02  0.23005048883E+03  0.17200000000E+03 0.  1.
<mgrwt>
<rscale>  2 0.20891064E+03</rscale>
<asrwt>0</asrwt>
<pdfrwt beam="1">  1       21 0.24612648E-01 0.20891064E+03</pdfrwt>
<pdfrwt beam="2">  1       21 0.12714378E+00 0.20891064E+03</pdfrwt>
<totfact> 0.70453183E+03</totfact>
</mgrwt>
</event>
<event>
 4    1  0.1101825E+000  0.2299485E+03  0.7546771E-02  0.1126676E+00
         21   -1    0    0  503  502  0.00000000000E+00  0.00000000000E+00  0.18615282368E+03  0.18615282368E+03  0.00000000000E+00 0. -1.
         21   -1    0    0  501  503 -0.00000000000E+00 -0.00000000000E+00 -0.29880757228E+03  0.29880757228E+03  0.00000000000E+00 0.  1.
          6    1    1    2  501    0  0.79227186464E+02 -0.13044300225E+03 -0.24361041247E+01  0.22996142832E+03  0.17200000000E+03 0. -1.
         -6    1    1    2    0  502 -0.79227186464E+02  0.13044300225E+03 -0.11021864447E+03  0.25499896764E+03  0.17200000000E+03 0. -1.
<mgrwt>
<rscale>  2 0.22994852E+03</rscale>
<asrwt>0</asrwt>
<pdfrwt beam="1">  1       21 0.46538206E-01 0.22994852E+03</pdfrwt>
<pdfrwt beam="2">  1       21 0.74701893E-01 0.22994852E+03</pdfrwt>
<totfact> 0.69106817E+03</totfact>
</mgrwt>
</event>
<event>
 4    1  0.1101825E+000  0.2220241E+03  0.7546771E-02  0.1132383E+00
         21   -1    0    0  501  502  0.00000000000E+00  0.00000000000E+00  0.54081488027E+03  0.54081488027E+03  0.00000000000E+00 0. -1.
         21   -1    0    0  502  503 -0.00000000000E+00 -0.00000000000E+00 -0.92973148130E+02  0.92973148130E+02  0.00000000000E+00 0.  1.
          6    1    1    2  501    0 -0.13309932557E+03  0.44668389791E+02  0.17953199248E+03  0.28552833806E+03  0.17200000000E+03 0.  1.
         -6    1    1    2    0  503  0.13309932557E+03 -0.44668389791E+02  0.26830973966E+03  0.34825969033E+03  0.17200000000E+03 0. -1.
<mgrwt>
<rscale>  2 0.22202409E+03</rscale>
<asrwt>0</asrwt>
<pdfrwt beam="1">  1       21 0.13520371E+00 0.22202409E+03</pdfrwt>
<pdfrwt beam="2">  1       21 0.23243289E-01 0.22202409E+03</pdfrwt>
<totfact> 0.66588257E+03</totfact>
</mgrwt>
</event>
<event>
 4    1  0.1101825E+000  0.1943698E+03  0.7546771E-02  0.1154578E+00
         21   -1    0    0  503  502  0.00000000000E+00  0.00000000000E+00  0.10517429304E+04  0.10517429304E+04  0.00000000000E+00 0. -1.
         21   -1    0    0  501  503 -0.00000000000E+00 -0.00000000000E+00 -0.40535331917E+02  0.40535331917E+02  0.00000000000E+00 0. -1.
          6    1    1    2  501    0  0.90430635850E+02 -0.42334666072E+01  0.68986862445E+03  0.71672752224E+03  0.17200000000E+03 0. -1.
         -6    1    1    2    0  502 -0.90430635850E+02  0.42334666072E+01  0.32133897405E+03  0.37555074009E+03  0.17200000000E+03 0. -1.
<mgrwt>
<rscale>  2 0.19436981E+03</rscale>
<asrwt>0</asrwt>
<pdfrwt beam="1">  1       21 0.26293564E+00 0.19436981E+03</pdfrwt>
<pdfrwt beam="2">  1       21 0.10133836E-01 0.19436981E+03</pdfrwt>
<totfact> 0.44198218E+03</totfact>
</mgrwt>
</event>
<event>
 4    1  0.1101825E+000  0.1799271E+03  0.7546771E-02  0.1167874E+00
         21   -1    0    0  503  502  0.00000000000E+00  0.00000000000E+00  0.85059974371E+02  0.85059974371E+02  0.00000000000E+00 0.  1.
         21   -1    0    0  501  503 -0.00000000000E+00 -0.00000000000E+00 -0.51305403637E+03  0.51305403637E+03  0.00000000000E+00 0.  1.
          6    1    1    2  501    0  0.24697132781E+02  0.46688410310E+02 -0.36594901604E+03  0.40778969870E+03  0.17200000000E+03 0.  1.
         -6    1    1    2    0  502 -0.24697132781E+02 -0.46688410310E+02 -0.62045045953E+02  0.19032431204E+03  0.17200000000E+03 0.  1.
<mgrwt>
<rscale>  2 0.17992709E+03</rscale>
<asrwt>0</asrwt>
<pdfrwt beam="1">  1       21 0.21264994E-01 0.17992709E+03</pdfrwt>
<pdfrwt beam="2">  1       21 0.12826351E+00 0.17992709E+03</pdfrwt>
<totfact> 0.92894419E+03</totfact>
</mgrwt>
</event>
<event>
 4    1  0.1101825E+000  0.1855411E+03  0.7546771E-02  0.1162546E+00
         21   -1    0    0  501  502  0.00000000000E+00  0.00000000000E+00  0.41452809115E+02  0.41452809115E+02  0.00000000000E+00 0. -1.
         21   -1    0    0  502  503 -0.00000000000E+00 -0.00000000000E+00 -0.15421639457E+04  0.15421639457E+04  0.00000000000E+00 0. -1.
          6    1    1    2  501    0  0.14035826208E+02 -0.68150548997E+02 -0.21245738665E+03  0.28207028005E+03  0.17200000000E+03 0.  1.
         -6    1    1    2    0  503 -0.14035826208E+02  0.68150548997E+02 -0.12882537499E+04  0.13015464747E+04  0.17200000000E+03 0.  1.
<mgrwt>
<rscale>  2 0.18554111E+03</rscale>
<asrwt>0</asrwt>
<pdfrwt beam="1">  1       21 0.10363203E-01 0.18554111E+03</pdfrwt>
<pdfrwt beam="2">  1       21 0.38554096E+00 0.18554111E+03</pdfrwt>
<totfact> 0.82435050E+02</totfact>
</mgrwt>
</event>
<event>
 4    1  0.1101825E+000  0.1789215E+03  0.7546771E-02  0.1168851E+00
         21   -1    0    0  503  502  0.00000000000E+00  0.00000000000E+00  0.25422923598E+03  0.25422923598E+03  0.00000000000E+00 0. -1.
         21   -1    0    0  501  503 -0.00000000000E+00 -0.00000000000E+00 -0.12667045885E+03  0.12667045885E+03  0.00000000000E+00 0.  1.
          6    1    1    2  501    0  0.16519484655E+02 -0.46432957510E+02  0.78424332042E+02  0.19535426479E+03  0.17200000000E+03 0.  1.
         -6    1    1    2    0  502 -0.16519484655E+02  0.46432957510E+02  0.49134445085E+02  0.18554543004E+03  0.17200000000E+03 0.  1.
<mgrwt>
<rscale>  2 0.17892153E+03</rscale>
<asrwt>0</asrwt>
<pdfrwt beam="1">  1       21 0.63557308E-01 0.17892153E+03</pdfrwt>
<pdfrwt beam="2">  1       21 0.31667615E-01 0.17892153E+03</pdfrwt>
<totfact> 0.22115538E+04</totfact>
</mgrwt>
</event>
<event>
 4    1  0.1101825E+000  0.2062240E+03  0.7546771E-02  0.1144592E+00
         21   -1    0    0  501  502  0.00000000000E+00  0.00000000000E+00  0.77429124209E+03  0.77429124209E+03  0.00000000000E+00 0.  1.
         21   -1    0    0  502  503 -0.00000000000E+00 -0.00000000000E+00 -0.78415291135E+02  0.78415291135E+02  0.00000000000E+00 0.  1.
          6    1    1    2  501    0 -0.47202893737E+02  0.10351918711E+03  0.11458745551E+03  0.23592079229E+03  0.17200000000E+03 0.  1.
         -6    1    1    2    0  503  0.47202893737E+02 -0.10351918711E+03  0.58128849545E+03  0.61678574094E+03  0.17200000000E+03 0.  1.
<mgrwt>
<rscale>  2 0.20622399E+03</rscale>
<asrwt>0</asrwt>
<pdfrwt beam="1">  1       21 0.19357279E+00 0.20622399E+03</pdfrwt>
<pdfrwt beam="2">  1       21 0.19603825E-01 0.20622399E+03</pdfrwt>
<totfact> 0.34958716E+03</totfact>
</mgrwt>
</event>
<event>
 4    1  0.1101825E+000  0.2054457E+03  0.7546771E-02  0.1145224E+00
         21   -1    0    0  501  502  0.00000000000E+00  0.00000000000E+00  0.26571877582E+03  0.26571877582E+03  0.00000000000E+00 0.  1.
         21   -1    0    0  502  503 -0.00000000000E+00 -0.00000000000E+00 -0.60652731088E+03  0.60652731088E+03  0.00000000000E+00 0.  1.
          6    1    1    2  501    0 -0.75739667064E+02 -0.82990624740E+02  0.20428314993E+03  0.28972322362E+03  0.17200000000E+03 0.  1.
         -6    1    1    2    0  503  0.75739667064E+02  0.82990624740E+02 -0.54509168499E+03  0.58252286307E+03  0.17200000000E+03 0.  1.
<mgrwt>
<rscale>  2 0.20544571E+03</rscale>
<asrwt>0</asrwt>
<pdfrwt beam="1">  1       21 0.66429694E-01 0.20544571E+03</pdfrwt>
<pdfrwt beam="2">  1       21 0.15163183E+00 0.20544571E+03</pdfrwt>
<totfact> 0.59536624E+02</totfact>
</mgrwt>
</event>
<event>
 4    1  0.1101825E+000  0.1923440E+03  0.7546771E-02  0.1156364E+00
         21   -1    0    0  501  502  0.00000000000E+00  0.00000000000E+00  0.13857516324E+04  0.13857516324E+04  0.00000000000E+00 0. -1.
         21   -1    0    0  502  503 -0.00000000000E+00 -0.00000000000E+00 -0.26703926869E+02  0.26703926869E+02  0.00000000000E+00 0. -1.
          6    1    1    2  501    0  0.55691922862E+02 -0.65655255505E+02  0.69041913443E+03  0.71671108826E+03  0.17200000000E+03 0.  1.
         -6    1    1    2    0  503 -0.55691922862E+02  0.65655255505E+02  0.66862857112E+03  0.69574447103E+03  0.17200000000E+03 0.  1.
<mgrwt>
<rscale>  2 0.19234397E+03</rscale>
<asrwt>0</asrwt>
<pdfrwt beam="1">  1       21 0.34643767E+00 0.19234397E+03</pdfrwt>
<pdfrwt beam="2">  1       21 0.66759864E-02 0.19234397E+03</pdfrwt>
<totfact> 0.30137050E+03</totfact>
</mgrwt>
</event>
<event>
 4    1  0.1101825E+000  0.2647616E+03  0.7546771E-02  0.1104316E+00
         21   -1    0    0  501  502  0.00000000000E+00  0.00000000000E+00  0.78061197435E+02  0.78061197435E+02  0.00000000000E+00 0. -1.
         21   -1    0    0  502  503 -0.00000000000E+00 -0.00000000000E+00 -0.90096783834E+03  0.90096783834E+03  0.00000000000E+00 0.  1.
          6    1    1    2  501    0  0.19659563252E+03  0.43184340305E+02 -0.43956211016E+03  0.51314089553E+03  0.17200000000E+03 0.  1.
         -6    1    1    2    0  503 -0.19659563252E+03 -0.43184340305E+02 -0.38334453075E+03  0.46588814025E+03  0.17200000000E+03 0. -1.
<mgrwt>
<rscale>  2 0.26476165E+03</rscale>
<asrwt>0</asrwt>
<pdfrwt beam="1">  1       21 0.19515300E-01 0.26476165E+03</pdfrwt>
<pdfrwt beam="2">  1       21 0.22524196E+00 0.26476165E+03</pdfrwt>
<totfact> 0.21112101E+03</totfact>
</mgrwt>
</event>
<event>
 4    1  0.1101825E+000  0.1860345E+03  0.7546771E-02  0.1162087E+00
         21   -1    0    0  501  502  0.00000000000E+00  0.00000000000E+00  0.36544917475E+03  0.36544917475E+03  0.00000000000E+00 0. -1.
         21   -1    0    0  502  503 -0.00000000000E+00 -0.00000000000E+00 -0.10170426199E+03  0.10170426199E+03  0.00000000000E+00 0. -1.
          6    1    1    2  501    0  0.70441966785E+02 -0.79230285007E+01  0.70584859473E+02  0.19897504228E+03  0.17200000000E+03 0. -1.
         -6    1    1    2    0  503 -0.70441966785E+02  0.79230285007E+01  0.19316005328E+03  0.26817839445E+03  0.17200000000E+03 0. -1.
<mgrwt>
<rscale>  2 0.18603453E+03</rscale>
<asrwt>0</asrwt>
<pdfrwt beam="1">  1       21 0.91362290E-01 0.18603453E+03</pdfrwt>
<pdfrwt beam="2">  1       21 0.25426066E-01 0.18603453E+03</pdfrwt>
<totfact> 0.14943723E+04</totfact>
</mgrwt>
</event>
<event>
 4    1  0.1101825E+000  0.3079076E+03  0.7546771E-02  0.1081353E+00
         21   -1    0    0  501  502  0.00000000000E+00  0.00000000000E+00  0.31255436222E+03  0.31255436222E+03  0.00000000000E+00 0. -1.
         21   -1    0    0  502  503 -0.00000000000E+00 -0.00000000000E+00 -0.82649680790E+03  0.82649680790E+03  0.00000000000E+00 0.  1.
          6    1    1    2  501    0 -0.25059139175E+03  0.49265298072E+02 -0.71009070898E+03  0.77397411468E+03  0.17200000000E+03 0.  1.
         -6    1    1    2    0  503  0.25059139175E+03 -0.49265298072E+02  0.19614826330E+03  0.36507705544E+03  0.17200000000E+03 0. -1.
<mgrwt>
<rscale>  2 0.30790764E+03</rscale>
<asrwt>0</asrwt>
<pdfrwt beam="1">  1       21 0.78138592E-01 0.30790764E+03</pdfrwt>
<pdfrwt beam="2">  1       21 0.20662420E+00 0.30790764E+03</pdfrwt>
<totfact> 0.15602507E+02</totfact>
</mgrwt>
</event>
<event>
 4    1  0.1101825E+000  0.1731031E+03  0.7546771E-02  0.1174650E+00
         21   -1    0    0  501  502  0.00000000000E+00  0.00000000000E+00  0.11159131853E+04  0.11159131853E+04  0.00000000000E+00 0. -1.
         21   -1    0    0  502  503 -0.00000000000E+00 -0.00000000000E+00 -0.27255609321E+02  0.27255609321E+02  0.00000000000E+00 0. -1.
          6    1    1    2  501    0 -0.19221779342E+01 -0.19416193164E+02  0.61387044234E+03  0.63781000565E+03  0.17200000000E+03 0.  1.
         -6    1    1    2    0  503  0.19221779342E+01  0.19416193164E+02  0.47478713366E+03  0.50535878900E+03  0.17200000000E+03 0.  1.
<mgrwt>
<rscale>  2 0.17310310E+03</rscale>
<asrwt>0</asrwt>
<pdfrwt beam="1">  1       21 0.27897814E+00 0.17310310E+03</pdfrwt>
<pdfrwt beam="2">  1       21 0.68139061E-02 0.17310310E+03</pdfrwt>
<totfact> 0.73054782E+03</totfact>
</mgrwt>
</event>
<event>
 4    1  0.1101825E+000  0.2009969E+03  0.7546771E-02  0.1148901E+00
         21   -1    0    0  503  502  0.00000000000E+00  0.00000000000E+00  0.13634644299E+04  0.13634644299E+04  0.00000000000E+00 0.  1.
         21   -1    0    0  501  503 -0.00000000000E+00 -0.00000000000E+00 -0.32974458575E+02  0.32974458575E+02  0.00000000000E+00 0.  1.
          6    1    1    2  501    0  0.10360841714E+03  0.90033360967E+01  0.44288783390E+03  0.48636344187E+03  0.17200000000E+03 0.  1.
         -6    1    1    2    0  502 -0.10360841714E+03 -0.90033360967E+01  0.88760213744E+03  0.91007544663E+03  0.17200000000E+03 0.  1.
<mgrwt>
<rscale>  2 0.20099693E+03</rscale>
<asrwt>0</asrwt>
<pdfrwt beam="1">  1       21 0.34086592E+00 0.20099693E+03</pdfrwt>
<pdfrwt beam="2">  1       21 0.82436192E-02 0.20099693E+03</pdfrwt>
<totfact> 0.22291307E+03</totfact>
</mgrwt>
</event>
<event>
 4    1  0.1101825E+000  0.1740464E+03  0.7546771E-02  0.1173693E+00
         21   -1    0    0  501  502  0.00000000000E+00  0.00000000000E+00  0.58622372264E+03  0.58622372264E+03  0.00000000000E+00 0. -1.
         21   -1    0    0  502  503 -0.00000000000E+00 -0.00000000000E+00 -0.86786014151E+02  0.86786014151E+02  0.00000000000E+00 0. -1.
          6    1    1    2  501    0 -0.71760190506E+01 -0.25625353605E+02  0.46376049031E+03  0.49534427056E+03  0.17200000000E+03 0. -1.
         -6    1    1    2    0  503  0.71760190506E+01  0.25625353605E+02  0.35677218179E+02  0.17766546624E+03  0.17200000000E+03 0. -1.
<mgrwt>
<rscale>  2 0.17404641E+03</rscale>
<asrwt>0</asrwt>
<pdfrwt beam="1">  1       21 0.14655592E+00 0.17404641E+03</pdfrwt>
<pdfrwt beam="2">  1       21 0.21696505E-01 0.17404641E+03</pdfrwt>
<totfact> 0.63932936E+03</totfact>
</mgrwt>
</event>
<event>
 4    1  0.1101825E+000  0.2129254E+03  0.7546771E-02  0.1139270E+00
         21   -1    0    0  503  502  0.00000000000E+00  0.00000000000E+00  0.11497585619E+03  0.11497585619E+03  0.00000000000E+00 0.  1.
         21   -1    0    0  501  503 -0.00000000000E+00 -0.00000000000E+00 -0.41966480607E+03  0.41966480607E+03  0.00000000000E+00 0.  1.
          6    1    1    2  501    0 -0.70841714596E+02  0.10360829502E+03 -0.21803898802E+03  0.30475929456E+03  0.17200000000E+03 0.  1.
         -6    1    1    2    0  502  0.70841714596E+02 -0.10360829502E+03 -0.86649961858E+02  0.22988136770E+03  0.17200000000E+03 0.  1.
<mgrwt>
<rscale>  2 0.21292540E+03</rscale>
<asrwt>0</asrwt>
<pdfrwt beam="1">  1       21 0.28743964E-01 0.21292540E+03</pdfrwt>
<pdfrwt beam="2">  1       21 0.10491620E+00 0.21292540E+03</pdfrwt>
<totfact> 0.83544994E+03</totfact>
</mgrwt>
</event>
<event>
 4    1  0.1101825E+000  0.2389052E+03  0.7546771E-02  0.1120524E+00
         21   -1    0    0  501  502  0.00000000000E+00  0.00000000000E+00  0.59904388335E+02  0.59904388335E+02  0.00000000000E+00 0. -1.
         21   -1    0    0  502  503 -0.00000000000E+00 -0.00000000000E+00 -0.13876198555E+04  0.13876198555E+04  0.00000000000E+00 0. -1.
          6    1    1    2  501    0 -0.13449179421E+03 -0.96972344621E+02 -0.25869874736E+03  0.35213735987E+03  0.17200000000E+03 0. -1.
         -6    1    1    2    0  503  0.13449179421E+03  0.96972344621E+02 -0.10690167198E+04  0.10953868839E+04  0.17200000000E+03 0. -1.
<mgrwt>
<rscale>  2 0.23890517E+03</rscale>
<asrwt>0</asrwt>
<pdfrwt beam="1">  1       21 0.14976098E-01 0.23890517E+03</pdfrwt>
<pdfrwt beam="2">  1       21 0.34690494E+00 0.23890517E+03</pdfrwt>
<totfact> 0.67390628E+02</totfact>
</mgrwt>
</event>
<event>
 4    1  0.1101825E+000  0.1798332E+03  0.7546771E-02  0.1167965E+00
         21   -1    0    0  503  502  0.00000000000E+00  0.00000000000E+00  0.87531596995E+02  0.87531596995E+02  0.00000000000E+00 0. -1.
         21   -1    0    0  501  503 -0.00000000000E+00 -0.00000000000E+00 -0.72640801355E+03  0.72640801355E+03  0.00000000000E+00 0. -1.
          6    1    1    2  501    0 -0.50918438363E+02 -0.12777949776E+02 -0.60471773803E+03  0.63089104135E+03  0.17200000000E+03 0. -1.
         -6    1    1    2    0  502  0.50918438363E+02  0.12777949776E+02 -0.34158678522E+02  0.18304856919E+03  0.17200000000E+03 0. -1.
<mgrwt>
<rscale>  2 0.17983315E+03</rscale>
<asrwt>0</asrwt>
<pdfrwt beam="1">  1       21 0.21882900E-01 0.17983315E+03</pdfrwt>
<pdfrwt beam="2">  1       21 0.18160200E+00 0.17983315E+03</pdfrwt>
<totfact> 0.35030615E+03</totfact>
</mgrwt>
</event>
<event>
 4    1  0.1101825E+000  0.2361085E+03  0.7546771E-02  0.1122413E+00
         21   -1    0    0  503  502  0.00000000000E+00  0.00000000000E+00  0.27344655701E+03  0.27344655701E+03  0.00000000000E+00 0.  1.
         21   -1    0    0  501  503 -0.00000000000E+00 -0.00000000000E+00 -0.32733562625E+03  0.32733562625E+03  0.00000000000E+00 0.  1.
          6    1    1    2  501    0  0.11094348590E+03 -0.11770624340E+03 -0.21143145603E+03  0.31693923297E+03  0.17200000000E+03 0.  1.
         -6    1    1    2    0  502 -0.11094348590E+03  0.11770624340E+03  0.15754238678E+03  0.28384295029E+03  0.17200000000E+03 0.  1.
<mgrwt>
<rscale>  2 0.23610849E+03</rscale>
<asrwt>0</asrwt>
<pdfrwt beam="1">  1       21 0.68361640E-01 0.23610849E+03</pdfrwt>
<pdfrwt beam="2">  1       21 0.81833906E-01 0.23610849E+03</pdfrwt>
<totfact> 0.24618389E+03</totfact>
</mgrwt>
</event>
<event>
 4    1  0.1101825E+000  0.1828227E+03  0.7546771E-02  0.1165099E+00
         21   -1    0    0  501  502  0.00000000000E+00  0.00000000000E+00  0.84219736011E+02  0.84219736011E+02  0.00000000000E+00 0.  1.
         21   -1    0    0  502  503 -0.00000000000E+00 -0.00000000000E+00 -0.64175969730E+03  0.64175969730E+03  0.00000000000E+00 0.  1.
          6    1    1    2  501    0 -0.62184924391E+01 -0.61656006267E+02 -0.50300063237E+03  0.53519507557E+03  0.17200000000E+03 0.  1.
         -6    1    1    2    0  503  0.62184924391E+01  0.61656006267E+02 -0.54539328918E+02  0.19078435773E+03  0.17200000000E+03 0.  1.
<mgrwt>
<rscale>  2 0.18282268E+03</rscale>
<asrwt>0</asrwt>
<pdfrwt beam="1">  1       21 0.21054934E-01 0.18282268E+03</pdfrwt>
<pdfrwt beam="2">  1       21 0.16043992E+00 0.18282268E+03</pdfrwt>
<totfact> 0.52824873E+03</totfact>
</mgrwt>
</event>
<event>
 4    1  0.1101825E+000  0.1779194E+03  0.7546771E-02  0.1169832E+00
         21   -1    0    0  501  502  0.00000000000E+00  0.00000000000E+00  0.14762386160E+03  0.14762386160E+03  0.00000000000E+00 0. -1.
         21   -1    0    0  502  503 -0.00000000000E+00 -0.00000000000E+00 -0.21955490584E+03  0.21955490584E+03  0.00000000000E+00 0.  1.
          6    1    1    2  501    0 -0.32489203124E+02  0.31871124692E+02 -0.79225817349E+01  0.17809571643E+03  0.17200000000E+03 0. -1.
         -6    1    1    2    0  503  0.32489203124E+02 -0.31871124692E+02 -0.64008462505E+02  0.18908305101E+03  0.17200000000E+03 0.  1.
<mgrwt>
<rscale>  2 0.17791941E+03</rscale>
<asrwt>0</asrwt>
<pdfrwt beam="1">  1       21 0.36905966E-01 0.17791941E+03</pdfrwt>
<pdfrwt beam="2">  1       21 0.54888726E-01 0.17791941E+03</pdfrwt>
<totfact> 0.22372732E+04</totfact>
</mgrwt>
</event>
<event>
 4    1  0.1101825E+000  0.3218875E+03  0.7546771E-02  0.1074784E+00
         21   -1    0    0  501  502  0.00000000000E+00  0.00000000000E+00  0.12711739680E+03  0.12711739680E+03  0.00000000000E+00 0.  1.
         21   -1    0    0  502  503 -0.00000000000E+00 -0.00000000000E+00 -0.82521028557E+03  0.82521028557E+03  0.00000000000E+00 0. -1.
          6    1    1    2  501    0  0.27191109822E+03 -0.95874986177E+01 -0.29630355890E+03  0.43750127369E+03  0.17200000000E+03 0.  1.
         -6    1    1    2    0  503 -0.27191109822E+03  0.95874986177E+01 -0.40178932987E+03  0.51482640867E+03  0.17200000000E+03 0.  1.
<mgrwt>
<rscale>  2 0.32188750E+03</rscale>
<asrwt>0</asrwt>
<pdfrwt beam="1">  1       21 0.31779350E-01 0.32188750E+03</pdfrwt>
<pdfrwt beam="2">  1       21 0.20630257E+00 0.32188750E+03</pdfrwt>
<totfact> 0.10417679E+03</totfact>
</mgrwt>
</event>
<event>
 4    1  0.1101825E+000  0.2096113E+03  0.7546771E-02  0.1141874E+00
         21   -1    0    0  503  502  0.00000000000E+00  0.00000000000E+00  0.45320320422E+03  0.45320320422E+03  0.00000000000E+00 0. -1.
         21   -1    0    0  501  503 -0.00000000000E+00 -0.00000000000E+00 -0.21373851145E+03  0.21373851145E+03  0.00000000000E+00 0. -1.
          6    1    1    2  501    0 -0.11718486018E+03 -0.24911883215E+02 -0.12677014091E+03  0.24496440967E+03  0.17200000000E+03 0. -1.
         -6    1    1    2    0  502  0.11718486018E+03  0.24911883215E+02  0.36623483367E+03  0.42197730600E+03  0.17200000000E+03 0. -1.
<mgrwt>
<rscale>  2 0.20961129E+03</rscale>
<asrwt>0</asrwt>
<pdfrwt beam="1">  1       21 0.11330080E+00 0.20961129E+03</pdfrwt>
<pdfrwt beam="2">  1       21 0.53434629E-01 0.20961129E+03</pdfrwt>
<totfact> 0.19846865E+03</totfact>
</mgrwt>
</event>
<event>
 4    1  0.1101825E+000  0.1841125E+03  0.7546771E-02  0.1163881E+00
         21   -1    0    0  501  502  0.00000000000E+00  0.00000000000E+00  0.42102410451E+02  0.42102410451E+02  0.00000000000E+00 0. -1.
         21   -1    0    0  502  503 -0.00000000000E+00 -0.00000000000E+00 -0.92044053179E+03  0.92044053179E+03  0.00000000000E+00 0. -1.
          6    1    1    2  501    0 -0.33096032462E+02 -0.56728022951E+02 -0.26881636836E+03  0.32582150919E+03  0.17200000000E+03 0. -1.
         -6    1    1    2    0  503  0.33096032462E+02  0.56728022951E+02 -0.60952175298E+03  0.63672143305E+03  0.17200000000E+03 0. -1.
<mgrwt>
<rscale>  2 0.18411251E+03</rscale>
<asrwt>0</asrwt>
<pdfrwt beam="1">  1       21 0.10525603E-01 0.18411251E+03</pdfrwt>
<pdfrwt beam="2">  1       21 0.23011013E+00 0.18411251E+03</pdfrwt>
<totfact> 0.65257286E+03</totfact>
</mgrwt>
</event>
<event>
 4    1  0.1101825E+000  0.1770578E+03  0.7546771E-02  0.1170681E+00
         21   -1    0    0  503  502  0.00000000000E+00  0.00000000000E+00  0.12552154436E+03  0.12552154436E+03  0.00000000000E+00 0.  1.
         21   -1    0    0  501  503 -0.00000000000E+00 -0.00000000000E+00 -0.54956127852E+03  0.54956127852E+03  0.00000000000E+00 0.  1.
          6    1    1    2  501    0 -0.41832337367E+02  0.39406963082E+01 -0.46133020261E+03  0.49414069795E+03  0.17200000000E+03 0.  1.
         -6    1    1    2    0  502  0.41832337367E+02 -0.39406963082E+01  0.37290468438E+02  0.18094212493E+03  0.17200000000E+03 0.  1.
<mgrwt>
<rscale>  2 0.17705783E+03</rscale>
<asrwt>0</asrwt>
<pdfrwt beam="1">  1       21 0.31380387E-01 0.17705783E+03</pdfrwt>
<pdfrwt beam="2">  1       21 0.13739032E+00 0.17705783E+03</pdfrwt>
<totfact> 0.37169577E+03</totfact>
</mgrwt>
</event>
<event>
 4    1  0.1101825E+000  0.2107768E+03  0.7546771E-02  0.1140952E+00
         21   -1    0    0  503  502  0.00000000000E+00  0.00000000000E+00  0.10639451599E+04  0.10639451599E+04  0.00000000000E+00 0. -1.
         21   -1    0    0  501  503 -0.00000000000E+00 -0.00000000000E+00 -0.11208317784E+03  0.11208317784E+03  0.00000000000E+00 0.  1.
          6    1    1    2  501    0 -0.59291740469E+02  0.10643009850E+03  0.10155215191E+02  0.21102133719E+03  0.17200000000E+03 0.  1.
         -6    1    1    2    0  502  0.59291740469E+02 -0.10643009850E+03  0.94170676688E+03  0.96500700057E+03  0.17200000000E+03 0. -1.
<mgrwt>
<rscale>  2 0.21077684E+03</rscale>
<asrwt>0</asrwt>
<pdfrwt beam="1">  1       21 0.26598626E+00 0.21077684E+03</pdfrwt>
<pdfrwt beam="2">  1       21 0.28020798E-01 0.21077684E+03</pdfrwt>
<totfact> 0.63755258E+02</totfact>
</mgrwt>
</event>
<event>
 4    1  0.1101825E+000  0.1729749E+03  0.7546771E-02  0.1174781E+00
         21   -1    0    0  501  502  0.00000000000E+00  0.00000000000E+00  0.97927158841E+02  0.97927158841E+02  0.00000000000E+00 0. -1.
         21   -1    0    0  502  503 -0.00000000000E+00 -0.00000000000E+00 -0.43933958531E+03  0.43933958531E+03  0.00000000000E+00 0. -1.
          6    1    1    2  501    0 -0.17957714973E+02  0.37208249908E+01 -0.22456857402E+02  0.17442658774E+03  0.17200000000E+03 0.  1.
         -6    1    1    2    0  503  0.17957714973E+02 -0.37208249908E+01 -0.31895556906E+03  0.36284015641E+03  0.17200000000E+03 0.  1.
<mgrwt>
<rscale>  2 0.17297492E+03</rscale>
<asrwt>0</asrwt>
<pdfrwt beam="1">  1       21 0.24481790E-01 0.17297492E+03</pdfrwt>
<pdfrwt beam="2">  1       21 0.10983490E+00 0.17297492E+03</pdfrwt>
<totfact> 0.10481673E+04</totfact>
</mgrwt>
</event>
<event>
 4    1  0.1101825E+000  0.3283584E+03  0.7546771E-02  0.1071866E+00
         21   -1    0    0  503  502  0.00000000000E+00  0.00000000000E+00  0.30694183978E+03  0.30694183978E+03  0.00000000000E+00 0.  1.
         21   -1    0    0  501  503 -0.00000000000E+00 -0.00000000000E+00 -0.39734028933E+03  0.39734028933E+03  0.00000000000E+00 0.  1.
          6    1    1    2  501    0  0.27913872945E+03 -0.17798586941E+02 -0.16510760255E+03  0.36753195833E+03  0.17200000000E+03 0.  1.
         -6    1    1    2    0  502 -0.27913872945E+03  0.17798586941E+02  0.74709152987E+02  0.33675017078E+03  0.17200000000E+03 0.  1.
<mgrwt>
<rscale>  2 0.32835837E+03</rscale>
<asrwt>0</asrwt>
<pdfrwt beam="1">  1       21 0.76735460E-01 0.32835837E+03</pdfrwt>
<pdfrwt beam="2">  1       21 0.99335072E-01 0.32835837E+03</pdfrwt>
<totfact> 0.11375638E+03</totfact>
</mgrwt>
</event>
<event>
 4    1  0.1101825E+000  0.2273702E+03  0.7546771E-02  0.1128505E+00
         21   -1    0    0  503  502  0.00000000000E+00  0.00000000000E+00  0.25952825992E+03  0.25952825992E+03  0.00000000000E+00 0. -1.
         21   -1    0    0  501  503 -0.00000000000E+00 -0.00000000000E+00 -0.19927983552E+03  0.19927983552E+03  0.00000000000E+00 0.  1.
          6    1    1    2  501    0 -0.96466861208E+02  0.11316959478E+03  0.34805487767E+02  0.23001876983E+03  0.17200000000E+03 0.  1.
         -6    1    1    2    0  502  0.96466861208E+02 -0.11316959478E+03  0.25442936634E+02  0.22878932562E+03  0.17200000000E+03 0. -1.
<mgrwt>
<rscale>  2 0.22737021E+03</rscale>
<asrwt>0</asrwt>
<pdfrwt beam="1">  1       21 0.64882065E-01 0.22737021E+03</pdfrwt>
<pdfrwt beam="2">  1       21 0.49819959E-01 0.22737021E+03</pdfrwt>
<totfact> 0.82045102E+03</totfact>
</mgrwt>
</event>
<event>
 4    1  0.1101825E+000  0.2045792E+03  0.7546771E-02  0.1145932E+00
         21   -1    0    0  501  502  0.00000000000E+00  0.00000000000E+00  0.54398924147E+02  0.54398924147E+02  0.00000000000E+00 0.  1.
         21   -1    0    0  502  503 -0.00000000000E+00 -0.00000000000E+00 -0.91624383456E+03  0.91624383456E+03  0.00000000000E+00 0.  1.
          6    1    1    2  501    0 -0.10272650713E+03  0.41423704303E+02 -0.62523582212E+03  0.65785446096E+03  0.17200000000E+03 0.  1.
         -6    1    1    2    0  503  0.10272650713E+03 -0.41423704303E+02 -0.23660908829E+03  0.31278829775E+03  0.17200000000E+03 0.  1.
<mgrwt>
<rscale>  2 0.20457922E+03</rscale>
<asrwt>0</asrwt>
<pdfrwt beam="1">  1       21 0.13599731E-01 0.20457922E+03</pdfrwt>
<pdfrwt beam="2">  1       21 0.22906095E+00 0.20457922E+03</pdfrwt>
<totfact> 0.41029607E+03</totfact>
</mgrwt>
</event>
<event>
 4    1  0.1101825E+000  0.1763992E+03  0.7546771E-02  0.1171334E+00
         21   -1    0    0  503  502  0.00000000000E+00  0.00000000000E+00  0.30673132812E+03  0.30673132812E+03  0.00000000000E+00 0. -1.
         21   -1    0    0  501  503 -0.00000000000E+00 -0.00000000000E+00 -0.11475932796E+03  0.11475932796E+03  0.00000000000E+00 0. -1.
          6    1    1    2  501    0 -0.11081807974E+02  0.37548413125E+02  0.24205575305E+02  0.17805223860E+03  0.17200000000E+03 0.  1.
         -6    1    1    2    0  502  0.11081807974E+02 -0.37548413125E+02  0.16776642485E+03  0.24343841748E+03  0.17200000000E+03 0.  1.
<mgrwt>
<rscale>  2 0.17639923E+03</rscale>
<asrwt>0</asrwt>
<pdfrwt beam="1">  1       21 0.76682830E-01 0.17639923E+03</pdfrwt>
<pdfrwt beam="2">  1       21 0.28689833E-01 0.17639923E+03</pdfrwt>
<totfact> 0.17763524E+04</totfact>
</mgrwt>
</event>
<event>
 4    1  0.1101825E+000  0.1903485E+03  0.7546771E-02  0.1158147E+00
         21   -1    0    0  501  502  0.00000000000E+00  0.00000000000E+00  0.22139433074E+03  0.22139433074E+03  0.00000000000E+00 0.  1.
         21   -1    0    0  502  503 -0.00000000000E+00 -0.00000000000E+00 -0.18367645640E+03  0.18367645640E+03  0.00000000000E+00 0.  1.
          6    1    1    2  501    0 -0.14646558397E+02 -0.80212432041E+02 -0.48007617714E+02  0.19630916251E+03  0.17200000000E+03 0.  1.
         -6    1    1    2    0  503  0.14646558397E+02  0.80212432041E+02  0.85725492053E+02  0.20876162462E+03  0.17200000000E+03 0.  1.
<mgrwt>
<rscale>  2 0.19034851E+03</rscale>
<asrwt>0</asrwt>
<pdfrwt beam="1">  1       21 0.55348583E-01 0.19034851E+03</pdfrwt>
<pdfrwt beam="2">  1       21 0.45919114E-01 0.19034851E+03</pdfrwt>
<totfact> 0.14011387E+04</totfact>
</mgrwt>
</event>
<event>
 4    1  0.1101825E+000  0.2474374E+03  0.7546771E-02  0.1114935E+00
         21   -1    0    0  503  502  0.00000000000E+00  0.00000000000E+00  0.41332849599E+03  0.41332849599E+03  0.00000000000E+00 0.  1.
         21   -1    0    0  501  503 -0.00000000000E+00 -0.00000000000E+00 -0.15841724257E+03  0.15841724257E+03  0.00000000000E+00 0.  1.
          6    1    1    2  501    0  0.17781833718E+03  0.46803470449E+01  0.20031350648E+03  0.31835635311E+03  0.17200000000E+03 0.  1.
         -6    1    1    2    0  502 -0.17781833718E+03 -0.46803470449E+01  0.54597746939E+02  0.25338938545E+03  0.17200000000E+03 0.  1.
<mgrwt>
<rscale>  2 0.24743740E+03</rscale>
<asrwt>0</asrwt>
<pdfrwt beam="1">  1       21 0.10333212E+00 0.24743740E+03</pdfrwt>
<pdfrwt beam="2">  1       21 0.39604311E-01 0.24743740E+03</pdfrwt>
<totfact> 0.44825095E+03</totfact>
</mgrwt>
</event>
<event>
 4    1  0.1101825E+000  0.1766781E+03  0.7546771E-02  0.1171057E+00
         21   -1    0    0  501  502  0.00000000000E+00  0.00000000000E+00  0.20559829234E+03  0.20559829234E+03  0.00000000000E+00 0. -1.
         21   -1    0    0  502  503 -0.00000000000E+00 -0.00000000000E+00 -0.15190997764E+03  0.15190997764E+03  0.00000000000E+00 0.  1.
          6    1    1    2  501    0  0.41590349200E+01 -0.40172769279E+02  0.22639185149E+02  0.17812265905E+03  0.17200000000E+03 0.  1.
         -6    1    1    2    0  503 -0.41590349200E+01  0.40172769279E+02  0.31049129554E+02  0.17938561093E+03  0.17200000000E+03 0. -1.
<mgrwt>
<rscale>  2 0.17667809E+03</rscale>
<asrwt>0</asrwt>
<pdfrwt beam="1">  1       21 0.51399573E-01 0.17667809E+03</pdfrwt>
<pdfrwt beam="2">  1       21 0.37977495E-01 0.17667809E+03</pdfrwt>
<totfact> 0.24271921E+04</totfact>
</mgrwt>
</event>
<event>
 4    1  0.1101825E+000  0.2275494E+03  0.7546771E-02  0.1128377E+00
         21   -1    0    0  501  502  0.00000000000E+00  0.00000000000E+00  0.30627310879E+03  0.30627310879E+03  0.00000000000E+00 0. -1.
         21   -1    0    0  502  503 -0.00000000000E+00 -0.00000000000E+00 -0.17474793856E+03  0.17474793856E+03  0.00000000000E+00 0. -1.
          6    1    1    2  501    0  0.73385060081E+02 -0.12965094388E+03  0.10915164659E+03  0.25237435734E+03  0.17200000000E+03 0. -1.
         -6    1    1    2    0  503 -0.73385060081E+02  0.12965094388E+03  0.22373523643E+02  0.22864669001E+03  0.17200000000E+03 0. -1.
<mgrwt>
<rscale>  2 0.22754941E+03</rscale>
<asrwt>0</asrwt>
<pdfrwt beam="1">  1       21 0.76568276E-01 0.22754941E+03</pdfrwt>
<pdfrwt beam="2">  1       21 0.43686985E-01 0.22754941E+03</pdfrwt>
<totfact> 0.74604179E+03</totfact>
</mgrwt>
</event>
<event>
 4    1  0.1101825E+000  0.1971766E+03  0.7546771E-02  0.1152143E+00
         21   -1    0    0  501  502  0.00000000000E+00  0.00000000000E+00  0.10228785777E+03  0.10228785777E+03  0.00000000000E+00 0.  1.
         21   -1    0    0  502  503 -0.00000000000E+00 -0.00000000000E+00 -0.61674789250E+03  0.61674789250E+03  0.00000000000E+00 0.  1.
          6    1    1    2  501    0  0.67282398223E+02 -0.69048330344E+02 -0.34526468880E+02  0.20017659725E+03  0.17200000000E+03 0.  1.
         -6    1    1    2    0  503 -0.67282398223E+02  0.69048330344E+02 -0.47993356585E+03  0.51885915301E+03  0.17200000000E+03 0.  1.
<mgrwt>
<rscale>  2 0.19717655E+03</rscale>
<asrwt>0</asrwt>
<pdfrwt beam="1">  1       21 0.25571964E-01 0.19717655E+03</pdfrwt>
<pdfrwt beam="2">  1       21 0.15418697E+00 0.19717655E+03</pdfrwt>
<totfact> 0.40156944E+03</totfact>
</mgrwt>
</event>
<event>
 4    1  0.1101825E+000  0.2501455E+03  0.7546771E-02  0.1113213E+00
         21   -1    0    0  501  502  0.00000000000E+00  0.00000000000E+00  0.17289469618E+03  0.17289469618E+03  0.00000000000E+00 0.  1.
         21   -1    0    0  502  503 -0.00000000000E+00 -0.00000000000E+00 -0.36191527501E+03  0.36191527501E+03  0.00000000000E+00 0.  1.
          6    1    1    2  501    0 -0.17971392422E+03 -0.26299662714E+02 -0.93781569476E+02  0.26714743044E+03  0.17200000000E+03 0.  1.
         -6    1    1    2    0  503  0.17971392422E+03  0.26299662714E+02 -0.95239009356E+02  0.26766254075E+03  0.17200000000E+03 0.  1.
<mgrwt>
<rscale>  2 0.25014549E+03</rscale>
<asrwt>0</asrwt>
<pdfrwt beam="1">  1       21 0.43223675E-01 0.25014549E+03</pdfrwt>
<pdfrwt beam="2">  1       21 0.90478818E-01 0.25014549E+03</pdfrwt>
<totfact> 0.51280889E+03</totfact>
</mgrwt>
</event>
<event>
 4    1  0.1101825E+000  0.2176914E+03  0.7546771E-02  0.1135616E+00
         21   -1    0    0  501  502  0.00000000000E+00  0.00000000000E+00  0.27291280328E+03  0.27291280328E+03  0.00000000000E+00 0.  1.
         21   -1    0    0  502  503 -0.00000000000E+00 -0.00000000000E+00 -0.18967152202E+03  0.18967152202E+03  0.00000000000E+00 0. -1.
          6    1    1    2  501    0 -0.34966189449E+02 -0.12877467764E+03  0.10885618746E+03  0.24339108767E+03  0.17200000000E+03 0.  1.
         -6    1    1    2    0  503  0.34966189449E+02  0.12877467764E+03 -0.25614906201E+02  0.21919323764E+03  0.17200000000E+03 0.  1.
<mgrwt>
<rscale>  2 0.21769141E+03</rscale>
<asrwt>0</asrwt>
<pdfrwt beam="1">  1       21 0.68228200E-01 0.21769141E+03</pdfrwt>
<pdfrwt beam="2">  1       21 0.47417881E-01 0.21769141E+03</pdfrwt>
<totfact> 0.81957912E+03</totfact>
</mgrwt>
</event>
<event>
 4    1  0.1101825E+000  0.1771304E+03  0.7546771E-02  0.1170609E+00
         21   -1    0    0  503  502  0.00000000000E+00  0.00000000000E+00  0.82680529170E+02  0.82680529170E+02  0.00000000000E+00 0. -1.
         21   -1    0    0  501  503 -0.00000000000E+00 -0.00000000000E+00 -0.39510926189E+03  0.39510926189E+03  0.00000000000E+00 0. -1.
          6    1    1    2  501    0  0.34913363201E+02 -0.23921755124E+02 -0.20373552729E+03  0.26996918043E+03  0.17200000000E+03 0. -1.
         -6    1    1    2    0  502 -0.34913363201E+02  0.23921755124E+02 -0.10869320543E+03  0.20782061063E+03  0.17200000000E+03 0. -1.
<mgrwt>
<rscale>  2 0.17713044E+03</rscale>
<asrwt>0</asrwt>
<pdfrwt beam="1">  1       21 0.20670133E-01 0.17713044E+03</pdfrwt>
<pdfrwt beam="2">  1       21 0.98777314E-01 0.17713044E+03</pdfrwt>
<totfact> 0.18524254E+04</totfact>
</mgrwt>
</event>
<event>
 4    1  0.1101825E+000  0.1872576E+03  0.7546771E-02  0.1160958E+00
         21   -1    0    0  501  502  0.00000000000E+00  0.00000000000E+00  0.28500934876E+03  0.28500934876E+03  0.00000000000E+00 0.  1.
         21   -1    0    0  502  503 -0.00000000000E+00 -0.00000000000E+00 -0.16111602084E+03  0.16111602084E+03  0.00000000000E+00 0.  1.
          6    1    1    2  501    0 -0.69401546594E+02 -0.25784168755E+02  0.17039587605E+03  0.25318007940E+03  0.17200000000E+03 0.  1.
         -6    1    1    2    0  503  0.69401546594E+02  0.25784168755E+02 -0.46502548127E+02  0.19294529020E+03  0.17200000000E+03 0.  1.
<mgrwt>
<rscale>  2 0.18725757E+03</rscale>
<asrwt>0</asrwt>
<pdfrwt beam="1">  1       21 0.71252336E-01 0.18725757E+03</pdfrwt>
<pdfrwt beam="2">  1       21 0.40279006E-01 0.18725757E+03</pdfrwt>
<totfact> 0.10621663E+04</totfact>
</mgrwt>
</event>
<event>
 4    1  0.1101825E+000  0.1775671E+03  0.7546771E-02  0.1170179E+00
         21   -1    0    0  501  502  0.00000000000E+00  0.00000000000E+00  0.22406532733E+03  0.22406532733E+03  0.00000000000E+00 0. -1.
         21   -1    0    0  502  503 -0.00000000000E+00 -0.00000000000E+00 -0.15658025931E+03  0.15658025931E+03  0.00000000000E+00 0. -1.
          6    1    1    2  501    0 -0.63206146667E+01 -0.43659237743E+02  0.94318659690E+02  0.20106240020E+03  0.17200000000E+03 0. -1.
         -6    1    1    2    0  503  0.63206146667E+01  0.43659237743E+02 -0.26833591664E+02  0.17958318644E+03  0.17200000000E+03 0. -1.
<mgrwt>
<rscale>  2 0.17756711E+03</rscale>
<asrwt>0</asrwt>
<pdfrwt beam="1">  1       21 0.56016332E-01 0.17756711E+03</pdfrwt>
<pdfrwt beam="2">  1       21 0.39145065E-01 0.17756711E+03</pdfrwt>
<totfact> 0.19052224E+04</totfact>
</mgrwt>
</event>
<event>
 4    1  0.1101825E+000  0.2210088E+03  0.7546771E-02  0.1133133E+00
         21   -1    0    0  503  502  0.00000000000E+00  0.00000000000E+00  0.37842893502E+03  0.37842893502E+03  0.00000000000E+00 0. -1.
         21   -1    0    0  501  503 -0.00000000000E+00 -0.00000000000E+00 -0.20252118822E+03  0.20252118822E+03  0.00000000000E+00 0. -1.
          6    1    1    2  501    0 -0.11667699076E+03  0.75149097796E+02 -0.86976232924E+02  0.23750741497E+03  0.17200000000E+03 0. -1.
         -6    1    1    2    0  502  0.11667699076E+03 -0.75149097796E+02  0.26288397971E+03  0.34344270827E+03  0.17200000000E+03 0. -1.
<mgrwt>
<rscale>  2 0.22100884E+03</rscale>
<asrwt>0</asrwt>
<pdfrwt beam="1">  1       21 0.94607233E-01 0.22100884E+03</pdfrwt>
<pdfrwt beam="2">  1       21 0.50630298E-01 0.22100884E+03</pdfrwt>
<totfact> 0.33937566E+03</totfact>
</mgrwt>
</event>
<event>
 4    1  0.1101825E+000  0.2691393E+03  0.7546771E-02  0.1101773E+00
         21   -1    0    0  501  502  0.00000000000E+00  0.00000000000E+00  0.14893389142E+03  0.14893389142E+03  0.00000000000E+00 0.  1.
         21   -1    0    0  502  503 -0.00000000000E+00 -0.00000000000E+00 -0.57330701793E+03  0.57330701793E+03  0.00000000000E+00 0.  1.
          6    1    1    2  501    0 -0.73058554572E+01 -0.20687822166E+03 -0.71556671091E+02  0.27848937376E+03  0.17200000000E+03 0.  1.
         -6    1    1    2    0  503  0.73058554572E+01  0.20687822166E+03 -0.35281645543E+03  0.44375153559E+03  0.17200000000E+03 0.  1.
<mgrwt>
<rscale>  2 0.26913932E+03</rscale>
<asrwt>0</asrwt>
<pdfrwt beam="1">  1       21 0.37233473E-01 0.26913932E+03</pdfrwt>
<pdfrwt beam="2">  1       21 0.14332675E+00 0.26913932E+03</pdfrwt>
<totfact> 0.22025616E+03</totfact>
</mgrwt>
</event>
<event>
 4    1  0.1101825E+000  0.1991891E+03  0.7546771E-02  0.1150425E+00
         21   -1    0    0  503  502  0.00000000000E+00  0.00000000000E+00  0.80280682497E+03  0.80280682497E+03  0.00000000000E+00 0.  1.
         21   -1    0    0  501  503 -0.00000000000E+00 -0.00000000000E+00 -0.12185415280E+03  0.12185415280E+03  0.00000000000E+00 0. -1.
          6    1    1    2  501    0 -0.89100237714E+02  0.46405194146E+02 -0.15973283268E+02  0.19982852695E+03  0.17200000000E+03 0. -1.
         -6    1    1    2    0  502  0.89100237714E+02 -0.46405194146E+02  0.69692595544E+03  0.72483245082E+03  0.17200000000E+03 0.  1.
<mgrwt>
<rscale>  2 0.19918909E+03</rscale>
<asrwt>0</asrwt>
<pdfrwt beam="1">  1       21 0.20070169E+00 0.19918909E+03</pdfrwt>
<pdfrwt beam="2">  1       21 0.30463541E-01 0.19918909E+03</pdfrwt>
<totfact> 0.13646400E+03</totfact>
</mgrwt>
</event>
<event>
 4    1  0.1101825E+000  0.2148869E+03  0.7546771E-02  0.1137754E+00
         21   -1    0    0  501  502  0.00000000000E+00  0.00000000000E+00  0.15566875983E+03  0.15566875983E+03  0.00000000000E+00 0.  1.
         21   -1    0    0  502  503 -0.00000000000E+00 -0.00000000000E+00 -0.43973867291E+03  0.43973867291E+03  0.00000000000E+00 0.  1.
          6    1    1    2  501    0 -0.12287723666E+03  0.38646411653E+02  0.27795910027E+02  0.21667711701E+03  0.17200000000E+03 0.  1.
         -6    1    1    2    0  503  0.12287723666E+03 -0.38646411653E+02 -0.31186582311E+03  0.37873031572E+03  0.17200000000E+03 0.  1.
<mgrwt>
<rscale>  2 0.21488685E+03</rscale>
<asrwt>0</asrwt>
<pdfrwt beam="1">  1       21 0.38917190E-01 0.21488685E+03</pdfrwt>
<pdfrwt beam="2">  1       21 0.10993467E+00 0.21488685E+03</pdfrwt>
<totfact> 0.40901012E+03</totfact>
</mgrwt>
</event>
<event>
 4    1  0.1101825E+000  0.1975219E+03  0.7546771E-02  0.1151847E+00
         21   -1    0    0  501  502  0.00000000000E+00  0.00000000000E+00  0.72072570976E+03  0.72072570976E+03  0.00000000000E+00 0. -1.
         21   -1    0    0  502  503 -0.00000000000E+00 -0.00000000000E+00 -0.74369607703E+02  0.74369607703E+02  0.00000000000E+00 0.  1.
          6    1    1    2  501    0  0.70494907159E+02 -0.66793618534E+02  0.53055581082E+03  0.56613106946E+03  0.17200000000E+03 0. -1.
         -6    1    1    2    0  503 -0.70494907159E+02  0.66793618534E+02  0.11580029123E+03  0.22896424800E+03  0.17200000000E+03 0.  1.
<mgrwt>
<rscale>  2 0.19752195E+03</rscale>
<asrwt>0</asrwt>
<pdfrwt beam="1">  1       21 0.18018141E+00 0.19752195E+03</pdfrwt>
<pdfrwt beam="2">  1       21 0.18592404E-01 0.19752195E+03</pdfrwt>
<totfact> 0.47768877E+03</totfact>
</mgrwt>
</event>
<event>
 4    1  0.1101825E+000  0.1924947E+03  0.7546771E-02  0.1156230E+00
         21   -1    0    0  503  502  0.00000000000E+00  0.00000000000E+00  0.30858341729E+03  0.30858341729E+03  0.00000000000E+00 0.  1.
         21   -1    0    0  501  503 -0.00000000000E+00 -0.00000000000E+00 -0.13443392849E+03  0.13443392849E+03  0.00000000000E+00 0. -1.
          6    1    1    2  501    0 -0.19526204499E+01 -0.86408270092E+02  0.14690184353E+02  0.19305440524E+03  0.17200000000E+03 0. -1.
         -6    1    1    2    0  502  0.19526204499E+01  0.86408270092E+02  0.15945930444E+03  0.24996294053E+03  0.17200000000E+03 0.  1.
<mgrwt>
<rscale>  2 0.19249468E+03</rscale>
<asrwt>0</asrwt>
<pdfrwt beam="1">  1       21 0.77145853E-01 0.19249468E+03</pdfrwt>
<pdfrwt beam="2">  1       21 0.33608483E-01 0.19249468E+03</pdfrwt>
<totfact> 0.12730579E+04</totfact>
</mgrwt>
</event>
<event>
 4    1  0.1101825E+000  0.1826934E+03  0.7546771E-02  0.1165222E+00
         21   -1    0    0  501  502  0.00000000000E+00  0.00000000000E+00  0.82391548489E+03  0.82391548489E+03  0.00000000000E+00 0.  1.
         21   -1    0    0  502  503 -0.00000000000E+00 -0.00000000000E+00 -0.74143316478E+02  0.74143316478E+02  0.00000000000E+00 0.  1.
          6    1    1    2  501    0  0.38332557741E+02 -0.48202617712E+02  0.67731488140E+03  0.70152143653E+03  0.17200000000E+03 0.  1.
         -6    1    1    2    0  503 -0.38332557741E+02  0.48202617712E+02  0.72457287007E+02  0.19653736484E+03  0.17200000000E+03 0.  1.
<mgrwt>
<rscale>  2 0.18269340E+03</rscale>
<asrwt>0</asrwt>
<pdfrwt beam="1">  1       21 0.20597884E+00 0.18269340E+03</pdfrwt>
<pdfrwt beam="2">  1       21 0.18535832E-01 0.18269340E+03</pdfrwt>
<totfact> 0.33038351E+03</totfact>
</mgrwt>
</event>
<event>
 4    1  0.1101825E+000  0.1813648E+03  0.7546771E-02  0.1166489E+00
         21   -1    0    0  501  502  0.00000000000E+00  0.00000000000E+00  0.83739013735E+03  0.83739013735E+03  0.00000000000E+00 0. -1.
         21   -1    0    0  502  503 -0.00000000000E+00 -0.00000000000E+00 -0.11695118224E+03  0.11695118224E+03  0.00000000000E+00 0. -1.
          6    1    1    2  501    0 -0.21416624755E+02 -0.53390334068E+02  0.74908519945E+03  0.77072812043E+03  0.17200000000E+03 0. -1.
         -6    1    1    2    0  503  0.21416624755E+02  0.53390334068E+02 -0.28646244351E+02  0.18361319915E+03  0.17200000000E+03 0. -1.
<mgrwt>
<rscale>  2 0.18136482E+03</rscale>
<asrwt>0</asrwt>
<pdfrwt beam="1">  1       21 0.20934752E+00 0.18136482E+03</pdfrwt>
<pdfrwt beam="2">  1       21 0.29237798E-01 0.18136482E+03</pdfrwt>
<totfact> 0.13293888E+03</totfact>
</mgrwt>
</event>
<event>
 4    1  0.1101825E+000  0.2089264E+03  0.7546771E-02  0.1142419E+00
         21   -1    0    0  503  502  0.00000000000E+00  0.00000000000E+00  0.68202462001E+03  0.68202462001E+03  0.00000000000E+00 0. -1.
         21   -1    0    0  501  503 -0.00000000000E+00 -0.00000000000E+00 -0.95160949133E+02  0.95160949133E+02  0.00000000000E+00 0. -1.
          6    1    1    2  501    0 -0.64439221769E+00  0.11859940904E+03  0.71068105067E+02  0.22068282811E+03  0.17200000000E+03 0. -1.
         -6    1    1    2    0  502  0.64439221769E+00 -0.11859940904E+03  0.51579556581E+03  0.55650274104E+03  0.17200000000E+03 0. -1.
<mgrwt>
<rscale>  2 0.20892639E+03</rscale>
<asrwt>0</asrwt>
<pdfrwt beam="1">  1       21 0.17050614E+00 0.20892639E+03</pdfrwt>
<pdfrwt beam="2">  1       21 0.23790239E-01 0.20892639E+03</pdfrwt>
<totfact> 0.34719449E+03</totfact>
</mgrwt>
</event>
<event>
 4    1  0.1101825E+000  0.1782645E+03  0.7546771E-02  0.1169493E+00
         21   -1    0    0  501  502  0.00000000000E+00  0.00000000000E+00  0.41752082656E+03  0.41752082656E+03  0.00000000000E+00 0. -1.
         21   -1    0    0  502  503 -0.00000000000E+00 -0.00000000000E+00 -0.83270926806E+02  0.83270926806E+02  0.00000000000E+00 0. -1.
          6    1    1    2  501    0 -0.53358966485E+00  0.46839562649E+02  0.24054469080E+03  0.29939936142E+03  0.17200000000E+03 0. -1.
         -6    1    1    2    0  503  0.53358966485E+00 -0.46839562649E+02  0.93705208945E+02  0.20139239194E+03  0.17200000000E+03 0. -1.
<mgrwt>
<rscale>  2 0.17826449E+03</rscale>
<asrwt>0</asrwt>
<pdfrwt beam="1">  1       21 0.10438020E+00 0.17826449E+03</pdfrwt>
<pdfrwt beam="2">  1       21 0.20817733E-01 0.17826449E+03</pdfrwt>
<totfact> 0.16020437E+04</totfact>
</mgrwt>
</event>
<event>
 4    1  0.1101825E+000  0.2260905E+03  0.7546771E-02  0.1129422E+00
         21   -1    0    0  501  502  0.00000000000E+00  0.00000000000E+00  0.69467332434E+02  0.69467332434E+02  0.00000000000E+00 0. -1.
         21   -1    0    0  502  503 -0.00000000000E+00 -0.00000000000E+00 -0.83977589001E+03  0.83977589001E+03  0.00000000000E+00 0. -1.
          6    1    1    2  501    0  0.12874102863E+03 -0.70417863601E+02 -0.22521742188E+03  0.31912351071E+03  0.17200000000E+03 0. -1.
         -6    1    1    2    0  503 -0.12874102863E+03  0.70417863601E+02 -0.54509113570E+03  0.59011971174E+03  0.17200000000E+03 0. -1.
<mgrwt>
<rscale>  2 0.22609053E+03</rscale>
<asrwt>0</asrwt>
<pdfrwt beam="1">  1       21 0.17366833E-01 0.22609053E+03</pdfrwt>
<pdfrwt beam="2">  1       21 0.20994397E+00 0.22609053E+03</pdfrwt>
<totfact> 0.33757469E+03</totfact>
</mgrwt>
</event>
<event>
 4    1  0.1101825E+000  0.1758696E+03  0.7546771E-02  0.1171861E+00
         21   -1    0    0  501  502  0.00000000000E+00  0.00000000000E+00  0.87575062643E+02  0.87575062643E+02  0.00000000000E+00 0. -1.
         21   -1    0    0  502  503 -0.00000000000E+00 -0.00000000000E+00 -0.43152084702E+03  0.43152084702E+03  0.00000000000E+00 0. -1.
          6    1    1    2  501    0 -0.28098757973E+02 -0.23592050168E+02 -0.28255868037E+03  0.33282057161E+03  0.17200000000E+03 0. -1.
         -6    1    1    2    0  503  0.28098757973E+02  0.23592050168E+02 -0.61387104009E+02  0.18627533806E+03  0.17200000000E+03 0. -1.
<mgrwt>
<rscale>  2 0.17586963E+03</rscale>
<asrwt>0</asrwt>
<pdfrwt beam="1">  1       21 0.21893766E-01 0.17586963E+03</pdfrwt>
<pdfrwt beam="2">  1       21 0.10788021E+00 0.17586963E+03</pdfrwt>
<totfact> 0.13489075E+04</totfact>
</mgrwt>
</event>
<event>
 4    1  0.1101825E+000  0.2000587E+03  0.7546771E-02  0.1149689E+00
         21   -1    0    0  503  502  0.00000000000E+00  0.00000000000E+00  0.63381298452E+02  0.63381298452E+02  0.00000000000E+00 0. -1.
         21   -1    0    0  501  503 -0.00000000000E+00 -0.00000000000E+00 -0.68345751679E+03  0.68345751679E+03  0.00000000000E+00 0. -1.
          6    1    1    2  501    0 -0.20594065386E+02 -0.10007679990E+03 -0.20705060350E+03  0.28791219810E+03  0.17200000000E+03 0. -1.
         -6    1    1    2    0  502  0.20594065386E+02  0.10007679990E+03 -0.41302561484E+03  0.45892661714E+03  0.17200000000E+03 0. -1.
<mgrwt>
<rscale>  2 0.20005869E+03</rscale>
<asrwt>0</asrwt>
<pdfrwt beam="1">  1       21 0.15845325E-01 0.20005869E+03</pdfrwt>
<pdfrwt beam="2">  1       21 0.17086438E+00 0.20005869E+03</pdfrwt>
<totfact> 0.74231083E+03</totfact>
</mgrwt>
</event>
<event>
 4    1  0.1101825E+000  0.3449051E+03  0.7546771E-02  0.1064726E+00
         21   -1    0    0  501  502  0.00000000000E+00  0.00000000000E+00  0.49931403320E+03  0.49931403320E+03  0.00000000000E+00 0.  1.
         21   -1    0    0  502  503 -0.00000000000E+00 -0.00000000000E+00 -0.52825781926E+03  0.52825781926E+03  0.00000000000E+00 0.  1.
          6    1    1    2  501    0 -0.28856960283E+03  0.78122218017E+02  0.36621436263E+03  0.50306307360E+03  0.17200000000E+03 0.  1.
         -6    1    1    2    0  503  0.28856960283E+03 -0.78122218017E+02 -0.39515814869E+03  0.52450877886E+03  0.17200000000E+03 0.  1.
<mgrwt>
<rscale>  2 0.34490505E+03</rscale>
<asrwt>0</asrwt>
<pdfrwt beam="1">  1       21 0.12482851E+00 0.34490505E+03</pdfrwt>
<pdfrwt beam="2">  1       21 0.13206445E+00 0.34490505E+03</pdfrwt>
<totfact> 0.17220939E+02</totfact>
</mgrwt>
</event>
<event>
 4    1  0.1101825E+000  0.2011828E+03  0.7546771E-02  0.1148745E+00
         21   -1    0    0  501  502  0.00000000000E+00  0.00000000000E+00  0.20778982082E+03  0.20778982082E+03  0.00000000000E+00 0. -1.
         21   -1    0    0  502  503 -0.00000000000E+00 -0.00000000000E+00 -0.19481055047E+03  0.19481055047E+03  0.00000000000E+00 0. -1.
          6    1    1    2  501    0 -0.31526963593E+00  0.10435715988E+03  0.42228085269E+01  0.20122710634E+03  0.17200000000E+03 0. -1.
         -6    1    1    2    0  503  0.31526963593E+00 -0.10435715988E+03  0.87564618203E+01  0.20137326495E+03  0.17200000000E+03 0. -1.
<mgrwt>
<rscale>  2 0.20118279E+03</rscale>
<asrwt>0</asrwt>
<pdfrwt beam="1">  1       21 0.51947455E-01 0.20118279E+03</pdfrwt>
<pdfrwt beam="2">  1       21 0.48702638E-01 0.20118279E+03</pdfrwt>
<totfact> 0.14080335E+04</totfact>
</mgrwt>
</event>
<event>
 4    1  0.1101825E+000  0.1876081E+03  0.7546771E-02  0.1160637E+00
         21   -1    0    0  501  502  0.00000000000E+00  0.00000000000E+00  0.59874995558E+02  0.59874995558E+02  0.00000000000E+00 0. -1.
         21   -1    0    0  502  503 -0.00000000000E+00 -0.00000000000E+00 -0.10667023863E+04  0.10667023863E+04  0.00000000000E+00 0. -1.
          6    1    1    2  501    0 -0.15092037105E+02 -0.73382825372E+02 -0.12600179934E+03  0.22599394258E+03  0.17200000000E+03 0. -1.
         -6    1    1    2    0  503  0.15092037105E+02  0.73382825372E+02 -0.88082559137E+03  0.90058343926E+03  0.17200000000E+03 0. -1.
<mgrwt>
<rscale>  2 0.18760813E+03</rscale>
<asrwt>0</asrwt>
<pdfrwt beam="1">  1       21 0.14968749E-01 0.18760813E+03</pdfrwt>
<pdfrwt beam="2">  1       21 0.26667559E+00 0.18760813E+03</pdfrwt>
<totfact> 0.21053138E+03</totfact>
</mgrwt>
</event>
<event>
 4    1  0.1101825E+000  0.2278251E+03  0.7546771E-02  0.1128180E+00
         21   -1    0    0  503  502  0.00000000000E+00  0.00000000000E+00  0.11004717289E+03  0.11004717289E+03  0.00000000000E+00 0. -1.
         21   -1    0    0  501  503 -0.00000000000E+00 -0.00000000000E+00 -0.57888928164E+03  0.57888928164E+03  0.00000000000E+00 0.  1.
          6    1    1    2  501    0 -0.52461011963E+02  0.13988613273E+03 -0.38267916096E+03  0.44536235600E+03  0.17200000000E+03 0.  1.
         -6    1    1    2    0  502  0.52461011963E+02 -0.13988613273E+03 -0.86162947791E+02  0.24357409853E+03  0.17200000000E+03 0.  1.
<mgrwt>
<rscale>  2 0.22782513E+03</rscale>
<asrwt>0</asrwt>
<pdfrwt beam="1">  1       21 0.27511793E-01 0.22782513E+03</pdfrwt>
<pdfrwt beam="2">  1       21 0.14472232E+00 0.22782513E+03</pdfrwt>
<totfact> 0.40210859E+03</totfact>
</mgrwt>
</event>
<event>
 4    1  0.1101825E+000  0.2111944E+03  0.7546771E-02  0.1140624E+00
         21   -1    0    0  501  502  0.00000000000E+00  0.00000000000E+00  0.11494537031E+03  0.11494537031E+03  0.00000000000E+00 0. -1.
         21   -1    0    0  502  503 -0.00000000000E+00 -0.00000000000E+00 -0.39272230486E+03  0.39272230486E+03  0.00000000000E+00 0.  1.
          6    1    1    2  501    0 -0.11645026554E+03 -0.38189116122E+02 -0.11116362425E+03  0.23866383114E+03  0.17200000000E+03 0. -1.
         -6    1    1    2    0  503  0.11645026554E+03  0.38189116122E+02 -0.16661331030E+03  0.26900384403E+03  0.17200000000E+03 0.  1.
<mgrwt>
<rscale>  2 0.21119440E+03</rscale>
<asrwt>0</asrwt>
<pdfrwt beam="1">  1       21 0.28736343E-01 0.21119440E+03</pdfrwt>
<pdfrwt beam="2">  1       21 0.98180575E-01 0.21119440E+03</pdfrwt>
<totfact> 0.98063206E+03</totfact>
</mgrwt>
</event>
<event>
 4    1  0.1101825E+000  0.3286013E+03  0.7546771E-02  0.1071757E+00
         21   -1    0    0  501  502  0.00000000000E+00  0.00000000000E+00  0.21797494809E+03  0.21797494809E+03  0.00000000000E+00 0.  1.
         21   -1    0    0  502  503 -0.00000000000E+00 -0.00000000000E+00 -0.68674543911E+03  0.68674543911E+03  0.00000000000E+00 0.  1.
          6    1    1    2  501    0  0.30038758025E+02 -0.27837476183E+03  0.44104776943E+01  0.32863092874E+03  0.17200000000E+03 0.  1.
         -6    1    1    2    0  503 -0.30038758025E+02  0.27837476183E+03 -0.47318096871E+03  0.57608945847E+03  0.17200000000E+03 0.  1.
<mgrwt>
<rscale>  2 0.32860133E+03</rscale>
<asrwt>0</asrwt>
<pdfrwt beam="1">  1       21 0.54493738E-01 0.32860133E+03</pdfrwt>
<pdfrwt beam="2">  1       21 0.17168636E+00 0.32860133E+03</pdfrwt>
<totfact> 0.58695334E+02</totfact>
</mgrwt>
</event>
<event>
 4    1  0.1101825E+000  0.2062792E+03  0.7546771E-02  0.1144547E+00
         21   -1    0    0  503  502  0.00000000000E+00  0.00000000000E+00  0.69221961316E+02  0.69221961316E+02  0.00000000000E+00 0.  1.
         21   -1    0    0  501  503 -0.00000000000E+00 -0.00000000000E+00 -0.63217930324E+03  0.63217930324E+03  0.00000000000E+00 0.  1.
          6    1    1    2  501    0  0.10079732570E+03  0.52981089795E+02 -0.33978482142E+03  0.39749820328E+03  0.17200000000E+03 0.  1.
         -6    1    1    2    0  502 -0.10079732570E+03 -0.52981089795E+02 -0.22317252051E+03  0.30390306128E+03  0.17200000000E+03 0.  1.
<mgrwt>
<rscale>  2 0.20627917E+03</rscale>
<asrwt>0</asrwt>
<pdfrwt beam="1">  1       21 0.17305490E-01 0.20627917E+03</pdfrwt>
<pdfrwt beam="2">  1       21 0.15804483E+00 0.20627917E+03</pdfrwt>
<totfact> 0.77702452E+03</totfact>
</mgrwt>
</event>
<event>
 4    1  0.1101825E+000  0.2087139E+03  0.7546771E-02  0.1142588E+00
         21   -1    0    0  503  502  0.00000000000E+00  0.00000000000E+00  0.37973138354E+03  0.37973138354E+03  0.00000000000E+00 0.  1.
         21   -1    0    0  501  503 -0.00000000000E+00 -0.00000000000E+00 -0.19014851776E+03  0.19014851776E+03  0.00000000000E+00 0.  1.
          6    1    1    2  501    0  0.11373596263E+03  0.32274366135E+02 -0.84675469241E+02  0.22523640691E+03  0.17200000000E+03 0.  1.
         -6    1    1    2    0  502 -0.11373596263E+03 -0.32274366135E+02  0.27425833502E+03  0.34464349440E+03  0.17200000000E+03 0.  1.
<mgrwt>
<rscale>  2 0.20871393E+03</rscale>
<asrwt>0</asrwt>
<pdfrwt beam="1">  1       21 0.94932845E-01 0.20871393E+03</pdfrwt>
<pdfrwt beam="2">  1       21 0.47537130E-01 0.20871393E+03</pdfrwt>
<totfact> 0.38760217E+03</totfact>
</mgrwt>
</event>
<event>
 4    1  0.1101825E+000  0.1938649E+03  0.7546771E-02  0.1155021E+00
         21   -1    0    0  503  502  0.00000000000E+00  0.00000000000E+00  0.31232864941E+03  0.31232864941E+03  0.00000000000E+00 0. -1.
         21   -1    0    0  501  503 -0.00000000000E+00 -0.00000000000E+00 -0.12312606376E+03  0.12312606376E+03  0.00000000000E+00 0. -1.
          6    1    1    2  501    0  0.88327744484E+02  0.14063834124E+02  0.61811101772E+02  0.20348020586E+03  0.17200000000E+03 0. -1.
         -6    1    1    2    0  502 -0.88327744484E+02 -0.14063834124E+02  0.12739148388E+03  0.23197450731E+03  0.17200000000E+03 0. -1.
<mgrwt>
<rscale>  2 0.19386485E+03</rscale>
<asrwt>0</asrwt>
<pdfrwt beam="1">  1       21 0.78082161E-01 0.19386485E+03</pdfrwt>
<pdfrwt beam="2">  1       21 0.30781517E-01 0.19386485E+03</pdfrwt>
<totfact> 0.14711751E+04</totfact>
</mgrwt>
</event>
<event>
 4    1  0.1101825E+000  0.2015489E+03  0.7546771E-02  0.1148439E+00
         21   -1    0    0  501  502  0.00000000000E+00  0.00000000000E+00  0.12058843973E+03  0.12058843973E+03  0.00000000000E+00 0.  1.
         21   -1    0    0  502  503 -0.00000000000E+00 -0.00000000000E+00 -0.36281596592E+03  0.36281596592E+03  0.00000000000E+00 0. -1.
          6    1    1    2  501    0  0.61775747024E+02 -0.84980703090E+02 -0.56471213937E+02  0.20931068014E+03  0.17200000000E+03 0.  1.
         -6    1    1    2    0  503 -0.61775747024E+02  0.84980703090E+02 -0.18575631226E+03  0.27409372551E+03  0.17200000000E+03 0. -1.
<mgrwt>
<rscale>  2 0.20154891E+03</rscale>
<asrwt>0</asrwt>
<pdfrwt beam="1">  1       21 0.30147110E-01 0.20154891E+03</pdfrwt>
<pdfrwt beam="2">  1       21 0.90703991E-01 0.20154891E+03</pdfrwt>
<totfact> 0.10823924E+04</totfact>
</mgrwt>
</event>
<event>
 4    1  0.1101825E+000  0.2070585E+03  0.7546771E-02  0.1143917E+00
         21   -1    0    0  503  502  0.00000000000E+00  0.00000000000E+00  0.90052233036E+03  0.90052233036E+03  0.00000000000E+00 0.  1.
         21   -1    0    0  501  503 -0.00000000000E+00 -0.00000000000E+00 -0.22157169449E+03  0.22157169449E+03  0.00000000000E+00 0. -1.
          6    1    1    2  501    0 -0.88202301081E+02 -0.74226432304E+02 -0.15765453399E+03  0.26024634725E+03  0.17200000000E+03 0. -1.
         -6    1    1    2    0  502  0.88202301081E+02  0.74226432304E+02  0.83660516985E+03  0.86184767760E+03  0.17200000000E+03 0.  1.
<mgrwt>
<rscale>  2 0.20705847E+03</rscale>
<asrwt>0</asrwt>
<pdfrwt beam="1">  1       21 0.22513057E+00 0.20705847E+03</pdfrwt>
<pdfrwt beam="2">  1       21 0.55392926E-01 0.20705847E+03</pdfrwt>
<totfact> 0.28222109E+02</totfact>
</mgrwt>
</event>
<event>
 4    1  0.1101825E+000  0.2066033E+03  0.7546771E-02  0.1144284E+00
         21   -1    0    0  503  502  0.00000000000E+00  0.00000000000E+00  0.99726310702E+02  0.99726310702E+02  0.00000000000E+00 0.  1.
         21   -1    0    0  501  503 -0.00000000000E+00 -0.00000000000E+00 -0.58261458624E+03  0.58261458624E+03  0.00000000000E+00 0. -1.
          6    1    1    2  501    0  0.30673223861E+02  0.11027265637E+03 -0.41718678645E+03  0.46554239355E+03  0.17200000000E+03 0. -1.
         -6    1    1    2    0  502 -0.30673223861E+02 -0.11027265637E+03 -0.65701489093E+02  0.21679850339E+03  0.17200000000E+03 0.  1.
<mgrwt>
<rscale>  2 0.20660326E+03</rscale>
<asrwt>0</asrwt>
<pdfrwt beam="1">  1       21 0.24931578E-01 0.20660326E+03</pdfrwt>
<pdfrwt beam="2">  1       21 0.14565364E+00 0.20660326E+03</pdfrwt>
<totfact> 0.48592213E+03</totfact>
</mgrwt>
</event>
<event>
 4    1  0.1101825E+000  0.1769522E+03  0.7546771E-02  0.1170786E+00
         21   -1    0    0  503  502  0.00000000000E+00  0.00000000000E+00  0.33180593948E+03  0.33180593948E+03  0.00000000000E+00 0.  1.
         21   -1    0    0  501  503 -0.00000000000E+00 -0.00000000000E+00 -0.62842758774E+03  0.62842758774E+03  0.00000000000E+00 0.  1.
          6    1    1    2  501    0  0.65693971360E+01  0.41048025794E+02 -0.59091328021E+03  0.61683920282E+03  0.17200000000E+03 0.  1.
         -6    1    1    2    0  502 -0.65693971360E+01 -0.41048025794E+02  0.29429163194E+03  0.34339432440E+03  0.17200000000E+03 0.  1.
<mgrwt>
<rscale>  2 0.17695225E+03</rscale>
<asrwt>0</asrwt>
<pdfrwt beam="1">  1       21 0.82951486E-01 0.17695225E+03</pdfrwt>
<pdfrwt beam="2">  1       21 0.15710690E+00 0.17695225E+03</pdfrwt>
<totfact> 0.34156988E+02</totfact>
</mgrwt>
</event>
<event>
 4    1  0.1101825E+000  0.1888796E+03  0.7546771E-02  0.1159476E+00
         21   -1    0    0  501  502  0.00000000000E+00  0.00000000000E+00  0.51061261020E+03  0.51061261020E+03  0.00000000000E+00 0. -1.
         21   -1    0    0  502  503 -0.00000000000E+00 -0.00000000000E+00 -0.72030496723E+02  0.72030496723E+02  0.00000000000E+00 0. -1.
          6    1    1    2  501    0  0.57764292283E+02 -0.52486135555E+02  0.16881481397E+03  0.25332577702E+03  0.17200000000E+03 0. -1.
         -6    1    1    2    0  503 -0.57764292283E+02  0.52486135555E+02  0.26976729950E+03  0.32931732989E+03  0.17200000000E+03 0. -1.
<mgrwt>
<rscale>  2 0.18887961E+03</rscale>
<asrwt>0</asrwt>
<pdfrwt beam="1">  1       21 0.12765314E+00 0.18887961E+03</pdfrwt>
<pdfrwt beam="2">  1       21 0.18007626E-01 0.18887961E+03</pdfrwt>
<totfact> 0.12729216E+04</totfact>
</mgrwt>
</event>
<event>
 4    1  0.1101825E+000  0.1807726E+03  0.7546771E-02  0.1167057E+00
         21   -1    0    0  503  502  0.00000000000E+00  0.00000000000E+00  0.92337671274E+02  0.92337671274E+02  0.00000000000E+00 0. -1.
         21   -1    0    0  501  503 -0.00000000000E+00 -0.00000000000E+00 -0.57385670949E+03  0.57385670949E+03  0.00000000000E+00 0. -1.
          6    1    1    2  501    0 -0.10499978002E+01 -0.55620291578E+02 -0.44698075311E+03  0.48215196046E+03  0.17200000000E+03 0. -1.
         -6    1    1    2    0  502  0.10499978002E+01  0.55620291578E+02 -0.34538285104E+02  0.18404242030E+03  0.17200000000E+03 0. -1.
<mgrwt>
<rscale>  2 0.18077256E+03</rscale>
<asrwt>0</asrwt>
<pdfrwt beam="1">  1       21 0.23084418E-01 0.18077256E+03</pdfrwt>
<pdfrwt beam="2">  1       21 0.14346418E+00 0.18077256E+03</pdfrwt>
<totfact> 0.59780346E+03</totfact>
</mgrwt>
</event>
<event>
 4    1  0.1101825E+000  0.2019030E+03  0.7546771E-02  0.1148143E+00
         21   -1    0    0  503  502  0.00000000000E+00  0.00000000000E+00  0.26700653691E+03  0.26700653691E+03  0.00000000000E+00 0.  1.
         21   -1    0    0  501  503 -0.00000000000E+00 -0.00000000000E+00 -0.22723114233E+03  0.22723114233E+03  0.00000000000E+00 0. -1.
          6    1    1    2  501    0 -0.10444726406E+03  0.16479856878E+02 -0.12166497651E+03  0.23572692498E+03  0.17200000000E+03 0. -1.
         -6    1    1    2    0  502  0.10444726406E+03 -0.16479856878E+02  0.16144037109E+03  0.25851075426E+03  0.17200000000E+03 0.  1.
<mgrwt>
<rscale>  2 0.20190299E+03</rscale>
<asrwt>0</asrwt>
<pdfrwt beam="1">  1       21 0.66751634E-01 0.20190299E+03</pdfrwt>
<pdfrwt beam="2">  1       21 0.56807786E-01 0.20190299E+03</pdfrwt>
<totfact> 0.59480619E+03</totfact>
</mgrwt>
</event>
<event>
 4    1  0.1101825E+000  0.1981721E+03  0.7546771E-02  0.1151290E+00
         21   -1    0    0  503  502  0.00000000000E+00  0.00000000000E+00  0.36613815879E+03  0.36613815879E+03  0.00000000000E+00 0. -1.
         21   -1    0    0  501  503 -0.00000000000E+00 -0.00000000000E+00 -0.14834772318E+03  0.14834772318E+03  0.00000000000E+00 0. -1.
          6    1    1    2  501    0  0.68561412042E+02 -0.70622288274E+02 -0.26485319578E+02  0.19993410658E+03  0.17200000000E+03 0. -1.
         -6    1    1    2    0  502 -0.68561412042E+02  0.70622288274E+02  0.24427575519E+03  0.31455177539E+03  0.17200000000E+03 0. -1.
<mgrwt>
<rscale>  2 0.19817208E+03</rscale>
<asrwt>0</asrwt>
<pdfrwt beam="1">  1       21 0.91534538E-01 0.19817208E+03</pdfrwt>
<pdfrwt beam="2">  1       21 0.37086932E-01 0.19817208E+03</pdfrwt>
<totfact> 0.70543725E+03</totfact>
</mgrwt>
</event>
<event>
 4    1  0.1101825E+000  0.1736342E+03  0.7546771E-02  0.1174110E+00
         21   -1    0    0  501  502  0.00000000000E+00  0.00000000000E+00  0.16859430377E+03  0.16859430377E+03  0.00000000000E+00 0.  1.
         21   -1    0    0  502  503 -0.00000000000E+00 -0.00000000000E+00 -0.28907047666E+03  0.28907047666E+03  0.00000000000E+00 0. -1.
          6    1    1    2  501    0 -0.15016758005E+02  0.18421221575E+02  0.81079558273E+02  0.19163178023E+03  0.17200000000E+03 0.  1.
         -6    1    1    2    0  503  0.15016758005E+02 -0.18421221575E+02 -0.20155573117E+03  0.26603300019E+03  0.17200000000E+03 0. -1.
<mgrwt>
<rscale>  2 0.17363423E+03</rscale>
<asrwt>0</asrwt>
<pdfrwt beam="1">  1       21 0.42148576E-01 0.17363423E+03</pdfrwt>
<pdfrwt beam="2">  1       21 0.72267619E-01 0.17363423E+03</pdfrwt>
<totfact> 0.94822596E+03</totfact>
</mgrwt>
</event>
<event>
 4    1  0.1101825E+000  0.1731452E+03  0.7546771E-02  0.1174607E+00
         21   -1    0    0  501  502  0.00000000000E+00  0.00000000000E+00  0.37499607039E+03  0.37499607039E+03  0.00000000000E+00 0. -1.
         21   -1    0    0  502  503 -0.00000000000E+00 -0.00000000000E+00 -0.93093444700E+02  0.93093444700E+02  0.00000000000E+00 0. -1.
          6    1    1    2  501    0  0.18302928661E+02 -0.77626540789E+01  0.22890781798E+03  0.28701575763E+03  0.17200000000E+03 0. -1.
         -6    1    1    2    0  503 -0.18302928661E+02  0.77626540789E+01  0.52994807708E+02  0.18107375746E+03  0.17200000000E+03 0. -1.
<mgrwt>
<rscale>  2 0.17314519E+03</rscale>
<asrwt>0</asrwt>
<pdfrwt beam="1">  1       21 0.93749014E-01 0.17314519E+03</pdfrwt>
<pdfrwt beam="2">  1       21 0.23273362E-01 0.17314519E+03</pdfrwt>
<totfact> 0.16794282E+04</totfact>
</mgrwt>
</event>
<event>
 4    1  0.1101825E+000  0.1750421E+03  0.7546771E-02  0.1172689E+00
         21   -1    0    0  501  502  0.00000000000E+00  0.00000000000E+00  0.22317051915E+03  0.22317051915E+03  0.00000000000E+00 0. -1.
         21   -1    0    0  502  503 -0.00000000000E+00 -0.00000000000E+00 -0.15326459160E+03  0.15326459160E+03  0.00000000000E+00 0. -1.
          6    1    1    2  501    0  0.31431540579E+02 -0.82342992649E+01  0.95712380241E+02  0.19950089012E+03  0.17200000000E+03 0. -1.
         -6    1    1    2    0  503 -0.31431540579E+02  0.82342992649E+01 -0.25806452694E+02  0.17693422063E+03  0.17200000000E+03 0. -1.
<mgrwt>
<rscale>  2 0.17504212E+03</rscale>
<asrwt>0</asrwt>
<pdfrwt beam="1">  1       21 0.55792629E-01 0.17504212E+03</pdfrwt>
<pdfrwt beam="2">  1       21 0.38316148E-01 0.17504212E+03</pdfrwt>
<totfact> 0.20088873E+04</totfact>
</mgrwt>
</event>
<event>
 4    1  0.1101825E+000  0.2898470E+03  0.7546771E-02  0.1090429E+00
         21   -1    0    0  503  502  0.00000000000E+00  0.00000000000E+00  0.53080002476E+03  0.53080002476E+03  0.00000000000E+00 0.  1.
         21   -1    0    0  501  503 -0.00000000000E+00 -0.00000000000E+00 -0.17248622421E+03  0.17248622421E+03  0.00000000000E+00 0.  1.
          6    1    1    2  501    0 -0.76244813438E+02 -0.22048589551E+03  0.78214987075E+02  0.30021473298E+03  0.17200000000E+03 0.  1.
         -6    1    1    2    0  502  0.76244813438E+02  0.22048589551E+03  0.28009881347E+03  0.40307151599E+03  0.17200000000E+03 0.  1.
<mgrwt>
<rscale>  2 0.28984703E+03</rscale>
<asrwt>0</asrwt>
<pdfrwt beam="1">  1       21 0.13270000E+00 0.28984703E+03</pdfrwt>
<pdfrwt beam="2">  1       21 0.43121557E-01 0.28984703E+03</pdfrwt>
<totfact> 0.19684535E+03</totfact>
</mgrwt>
</event>
<event>
 4    1  0.1101825E+000  0.1732761E+03  0.7546771E-02  0.1174474E+00
         21   -1    0    0  501  502  0.00000000000E+00  0.00000000000E+00  0.79121882462E+02  0.79121882462E+02  0.00000000000E+00 0. -1.
         21   -1    0    0  502  503 -0.00000000000E+00 -0.00000000000E+00 -0.47065452565E+03  0.47065452565E+03  0.00000000000E+00 0. -1.
          6    1    1    2  501    0  0.20812527717E+02 -0.27303616254E+01 -0.31675882688E+03  0.36105507972E+03  0.17200000000E+03 0. -1.
         -6    1    1    2    0  503 -0.20812527717E+02  0.27303616254E+01 -0.74773816307E+02  0.18872132839E+03  0.17200000000E+03 0. -1.
<mgrwt>
<rscale>  2 0.17327613E+03</rscale>
<asrwt>0</asrwt>
<pdfrwt beam="1">  1       21 0.19780471E-01 0.17327613E+03</pdfrwt>
<pdfrwt beam="2">  1       21 0.11766363E+00 0.17327613E+03</pdfrwt>
<totfact> 0.13241354E+04</totfact>
</mgrwt>
</event>
<event>
 4    1  0.1101825E+000  0.2303402E+03  0.7546771E-02  0.1126401E+00
         21   -1    0    0  501  502  0.00000000000E+00  0.00000000000E+00  0.87728477910E+02  0.87728477910E+02  0.00000000000E+00 0.  1.
         21   -1    0    0  502  503 -0.00000000000E+00 -0.00000000000E+00 -0.60593756209E+03  0.60593756209E+03  0.00000000000E+00 0.  1.
          6    1    1    2  501    0  0.15209350410E+03 -0.18444160002E+02 -0.27424947560E+03  0.35814717072E+03  0.17200000000E+03 0.  1.
         -6    1    1    2    0  503 -0.15209350410E+03  0.18444160002E+02 -0.24395960859E+03  0.33551886929E+03  0.17200000000E+03 0.  1.
<mgrwt>
<rscale>  2 0.23034023E+03</rscale>
<asrwt>0</asrwt>
<pdfrwt beam="1">  1       21 0.21932120E-01 0.23034023E+03</pdfrwt>
<pdfrwt beam="2">  1       21 0.15148439E+00 0.23034023E+03</pdfrwt>
<totfact> 0.54899220E+03</totfact>
</mgrwt>
</event>
<event>
 4    1  0.1101825E+000  0.1801476E+03  0.7546771E-02  0.1167660E+00
         21   -1    0    0  503  502  0.00000000000E+00  0.00000000000E+00  0.34601506610E+03  0.34601506610E+03  0.00000000000E+00 0.  1.
         21   -1    0    0  501  503 -0.00000000000E+00 -0.00000000000E+00 -0.13727556491E+03  0.13727556491E+03  0.00000000000E+00 0.  1.
          6    1    1    2  501    0  0.52165982952E+02 -0.12159479908E+02 -0.31633314140E+02  0.18290382525E+03  0.17200000000E+03 0.  1.
         -6    1    1    2    0  502 -0.52165982952E+02  0.12159479908E+02  0.24037281533E+03  0.30038680577E+03  0.17200000000E+03 0.  1.
<mgrwt>
<rscale>  2 0.18014756E+03</rscale>
<asrwt>0</asrwt>
<pdfrwt beam="1">  1       21 0.86503765E-01 0.18014756E+03</pdfrwt>
<pdfrwt beam="2">  1       21 0.34318892E-01 0.18014756E+03</pdfrwt>
<totfact> 0.95018877E+03</totfact>
</mgrwt>
</event>
<event>
 4    1  0.1101825E+000  0.1766977E+03  0.7546771E-02  0.1171038E+00
         21   -1    0    0  503  502  0.00000000000E+00  0.00000000000E+00  0.15310767588E+03  0.15310767588E+03  0.00000000000E+00 0. -1.
         21   -1    0    0  501  503 -0.00000000000E+00 -0.00000000000E+00 -0.20946088655E+03  0.20946088655E+03  0.00000000000E+00 0. -1.
          6    1    1    2  501    0 -0.38592182383E+02  0.12195768088E+02 -0.57654878371E+02  0.18586602245E+03  0.17200000000E+03 0. -1.
         -6    1    1    2    0  502  0.38592182383E+02 -0.12195768088E+02  0.13016676990E+01  0.17670253999E+03  0.17200000000E+03 0. -1.
<mgrwt>
<rscale>  2 0.17669775E+03</rscale>
<asrwt>0</asrwt>
<pdfrwt beam="1">  1       21 0.38276919E-01 0.17669775E+03</pdfrwt>
<pdfrwt beam="2">  1       21 0.52365221E-01 0.17669775E+03</pdfrwt>
<totfact> 0.22980571E+04</totfact>
</mgrwt>
</event>
<event>
 4    1  0.1101825E+000  0.2145918E+03  0.7546771E-02  0.1137981E+00
         21   -1    0    0  501  502  0.00000000000E+00  0.00000000000E+00  0.53324972017E+02  0.53324972017E+02  0.00000000000E+00 0. -1.
         21   -1    0    0  502  503 -0.00000000000E+00 -0.00000000000E+00 -0.87015812650E+03  0.87015812650E+03  0.00000000000E+00 0.  1.
          6    1    1    2  501    0  0.54507324559E+02 -0.11616620694E+03 -0.36822726214E+03  0.42619356242E+03  0.17200000000E+03 0. -1.
         -6    1    1    2    0  503 -0.54507324559E+02  0.11616620694E+03 -0.44860589234E+03  0.49728953609E+03  0.17200000000E+03 0. -1.
<mgrwt>
<rscale>  2 0.21459179E+03</rscale>
<asrwt>0</asrwt>
<pdfrwt beam="1">  1       21 0.13331243E-01 0.21459179E+03</pdfrwt>
<pdfrwt beam="2">  1       21 0.21753953E+00 0.21459179E+03</pdfrwt>
<totfact> 0.49577858E+03</totfact>
</mgrwt>
</event>
<event>
 4    1  0.1101825E+000  0.2372181E+03  0.7546771E-02  0.1121660E+00
         21   -1    0    0  503  502  0.00000000000E+00  0.00000000000E+00  0.41578521339E+03  0.41578521339E+03  0.00000000000E+00 0. -1.
         21   -1    0    0  501  503 -0.00000000000E+00 -0.00000000000E+00 -0.17571042872E+03  0.17571042872E+03  0.00000000000E+00 0.  1.
          6    1    1    2  501    0 -0.13153953163E+03 -0.96880263531E+02 -0.21722589642E+02  0.23821063105E+03  0.17200000000E+03 0.  1.
         -6    1    1    2    0  502  0.13153953163E+03  0.96880263531E+02  0.26179737432E+03  0.35328501107E+03  0.17200000000E+03 0. -1.
<mgrwt>
<rscale>  2 0.23721811E+03</rscale>
<asrwt>0</asrwt>
<pdfrwt beam="1">  1       21 0.10394630E+00 0.23721811E+03</pdfrwt>
<pdfrwt beam="2">  1       21 0.43927608E-01 0.23721811E+03</pdfrwt>
<totfact> 0.36001148E+03</totfact>
</mgrwt>
</event>
<event>
 4    1  0.1101825E+000  0.1725352E+03  0.7546771E-02  0.1175229E+00
         21   -1    0    0  501  502  0.00000000000E+00  0.00000000000E+00  0.76022393096E+02  0.76022393096E+02  0.00000000000E+00 0.  1.
         21   -1    0    0  502  503 -0.00000000000E+00 -0.00000000000E+00 -0.54594369472E+03  0.54594369472E+03  0.00000000000E+00 0.  1.
          6    1    1    2  501    0  0.84608334218E+01  0.10621917861E+02 -0.69595699578E+02  0.18604293118E+03  0.17200000000E+03 0.  1.
         -6    1    1    2    0  503 -0.84608334218E+01 -0.10621917861E+02 -0.40032560205E+03  0.43592315664E+03  0.17200000000E+03 0.  1.
<mgrwt>
<rscale>  2 0.17253525E+03</rscale>
<asrwt>0</asrwt>
<pdfrwt beam="1">  1       21 0.19005598E-01 0.17253525E+03</pdfrwt>
<pdfrwt beam="2">  1       21 0.13648592E+00 0.17253525E+03</pdfrwt>
<totfact> 0.98478597E+03</totfact>
</mgrwt>
</event>
<event>
 4    1  0.1101825E+000  0.1801488E+03  0.7546771E-02  0.1167659E+00
         21   -1    0    0  503  502  0.00000000000E+00  0.00000000000E+00  0.34488837207E+03  0.34488837207E+03  0.00000000000E+00 0. -1.
         21   -1    0    0  501  503 -0.00000000000E+00 -0.00000000000E+00 -0.10441900910E+03  0.10441900910E+03  0.00000000000E+00 0. -1.
          6    1    1    2  501    0  0.23564663045E+02  0.48107070585E+02  0.19086122009E+03  0.26245302231E+03  0.17200000000E+03 0. -1.
         -6    1    1    2    0  502 -0.23564663045E+02 -0.48107070585E+02  0.49608142883E+02  0.18685435886E+03  0.17200000000E+03 0. -1.
<mgrwt>
<rscale>  2 0.18014878E+03</rscale>
<asrwt>0</asrwt>
<pdfrwt beam="1">  1       21 0.86222090E-01 0.18014878E+03</pdfrwt>
<pdfrwt beam="2">  1       21 0.26104753E-01 0.18014878E+03</pdfrwt>
<totfact> 0.16300015E+04</totfact>
</mgrwt>
</event>
<event>
 4    1  0.1101825E+000  0.1990737E+03  0.7546771E-02  0.1150523E+00
         21   -1    0    0  503  502  0.00000000000E+00  0.00000000000E+00  0.84587499111E+03  0.84587499111E+03  0.00000000000E+00 0.  1.
         21   -1    0    0  501  503 -0.00000000000E+00 -0.00000000000E+00 -0.31347099396E+03  0.31347099396E+03  0.00000000000E+00 0.  1.
          6    1    1    2  501    0  0.78205854368E+02  0.62691304441E+02 -0.26839988811E+03  0.33416890228E+03  0.17200000000E+03 0.  1.
         -6    1    1    2    0  502 -0.78205854368E+02 -0.62691304441E+02  0.80080388526E+03  0.82517708279E+03  0.17200000000E+03 0.  1.
<mgrwt>
<rscale>  2 0.19907374E+03</rscale>
<asrwt>0</asrwt>
<pdfrwt beam="1">  1       21 0.21146874E+00 0.19907374E+03</pdfrwt>
<pdfrwt beam="2">  1       21 0.78367750E-01 0.19907374E+03</pdfrwt>
<totfact> 0.16225402E+02</totfact>
</mgrwt>
</event>
<event>
 4    1  0.1101825E+000  0.1958596E+03  0.7546771E-02  0.1153280E+00
         21   -1    0    0  501  502  0.00000000000E+00  0.00000000000E+00  0.90639638190E+02  0.90639638190E+02  0.00000000000E+00 0. -1.
         21   -1    0    0  502  503 -0.00000000000E+00 -0.00000000000E+00 -0.45173279470E+03  0.45173279470E+03  0.00000000000E+00 0.  1.
          6    1    1    2  501    0  0.38210447451E+02 -0.85539204230E+02 -0.24867147384E+03  0.31654145962E+03  0.17200000000E+03 0.  1.
         -6    1    1    2    0  503 -0.38210447451E+02  0.85539204230E+02 -0.11242168267E+03  0.22583097327E+03  0.17200000000E+03 0. -1.
<mgrwt>
<rscale>  2 0.19585963E+03</rscale>
<asrwt>0</asrwt>
<pdfrwt beam="1">  1       21 0.22659910E-01 0.19585963E+03</pdfrwt>
<pdfrwt beam="2">  1       21 0.11293320E+00 0.19585963E+03</pdfrwt>
<totfact> 0.11160712E+04</totfact>
</mgrwt>
</event>
<event>
 4    1  0.1101825E+000  0.2075615E+03  0.7546771E-02  0.1143512E+00
         21   -1    0    0  501  502  0.00000000000E+00  0.00000000000E+00  0.15454717389E+03  0.15454717389E+03  0.00000000000E+00 0.  1.
         21   -1    0    0  502  503 -0.00000000000E+00 -0.00000000000E+00 -0.46276515007E+03  0.46276515007E+03  0.00000000000E+00 0.  1.
          6    1    1    2  501    0 -0.41666742306E+02 -0.10845111307E+03  0.40520284028E+02  0.21147967930E+03  0.17200000000E+03 0.  1.
         -6    1    1    2    0  503  0.41666742306E+02  0.10845111307E+03 -0.34873826020E+03  0.40583264465E+03  0.17200000000E+03 0.  1.
<mgrwt>
<rscale>  2 0.20756146E+03</rscale>
<asrwt>0</asrwt>
<pdfrwt beam="1">  1       21 0.38636794E-01 0.20756146E+03</pdfrwt>
<pdfrwt beam="2">  1       21 0.11569129E+00 0.20756146E+03</pdfrwt>
<totfact> 0.36859558E+03</totfact>
</mgrwt>
</event>
<event>
 4    1  0.1101825E+000  0.1883188E+03  0.7546771E-02  0.1159986E+00
         21   -1    0    0  503  502  0.00000000000E+00  0.00000000000E+00  0.50527226791E+03  0.50527226791E+03  0.00000000000E+00 0. -1.
         21   -1    0    0  501  503 -0.00000000000E+00 -0.00000000000E+00 -0.70585426546E+02  0.70585426546E+02  0.00000000000E+00 0.  1.
          6    1    1    2  501    0 -0.60203992436E+02 -0.47491614595E+02  0.19573425392E+03  0.27161714291E+03  0.17200000000E+03 0. -1.
         -6    1    1    2    0  502  0.60203992436E+02  0.47491614595E+02  0.23895258744E+03  0.30424055155E+03  0.17200000000E+03 0. -1.
<mgrwt>
<rscale>  2 0.18831881E+03</rscale>
<asrwt>0</asrwt>
<pdfrwt beam="1">  1       21 0.12631806E+00 0.18831881E+03</pdfrwt>
<pdfrwt beam="2">  1       21 0.17646358E-01 0.18831881E+03</pdfrwt>
<totfact> 0.13573007E+04</totfact>
</mgrwt>
</event>
<event>
 4    1  0.1101825E+000  0.2185523E+03  0.7546771E-02  0.1134967E+00
         21   -1    0    0  503  502  0.00000000000E+00  0.00000000000E+00  0.50199229292E+03  0.50199229292E+03  0.00000000000E+00 0. -1.
         21   -1    0    0  501  503 -0.00000000000E+00 -0.00000000000E+00 -0.23274729047E+03  0.23274729047E+03  0.00000000000E+00 0. -1.
          6    1    1    2  501    0  0.89968156436E+02  0.10043316375E+03 -0.14784235559E+03  0.26386066713E+03  0.17200000000E+03 0. -1.
         -6    1    1    2    0  502 -0.89968156436E+02 -0.10043316375E+03  0.41708735803E+03  0.47087891627E+03  0.17200000000E+03 0. -1.
<mgrwt>
<rscale>  2 0.21855226E+03</rscale>
<asrwt>0</asrwt>
<pdfrwt beam="1">  1       21 0.12549807E+00 0.21855226E+03</pdfrwt>
<pdfrwt beam="2">  1       21 0.58186823E-01 0.21855226E+03</pdfrwt>
<totfact> 0.12752039E+03</totfact>
</mgrwt>
</event>
<event>
 4    1  0.1101825E+000  0.1962436E+03  0.7546771E-02  0.1152948E+00
         21   -1    0    0  503  502  0.00000000000E+00  0.00000000000E+00  0.12504486511E+03  0.12504486511E+03  0.00000000000E+00 0.  1.
         21   -1    0    0  501  503 -0.00000000000E+00 -0.00000000000E+00 -0.45096583863E+03  0.45096583863E+03  0.00000000000E+00 0. -1.
          6    1    1    2  501    0 -0.16208729478E+01  0.94471760633E+02 -0.32513124158E+03  0.37976553956E+03  0.17200000000E+03 0. -1.
         -6    1    1    2    0  502  0.16208729478E+01 -0.94471760633E+02 -0.78973194113E+00  0.19624516418E+03  0.17200000000E+03 0.  1.
<mgrwt>
<rscale>  2 0.19624358E+03</rscale>
<asrwt>0</asrwt>
<pdfrwt beam="1">  1       21 0.31261216E-01 0.19624358E+03</pdfrwt>
<pdfrwt beam="2">  1       21 0.11274146E+00 0.19624358E+03</pdfrwt>
<totfact> 0.60326986E+03</totfact>
</mgrwt>
</event>
<event>
 4    1  0.1101825E+000  0.2029937E+03  0.7546771E-02  0.1147237E+00
         21   -1    0    0  501  502  0.00000000000E+00  0.00000000000E+00  0.18273824352E+03  0.18273824352E+03  0.00000000000E+00 0. -1.
         21   -1    0    0  502  503 -0.00000000000E+00 -0.00000000000E+00 -0.22550153225E+03  0.22550153225E+03  0.00000000000E+00 0. -1.
          6    1    1    2  501    0 -0.84833317945E+02  0.66526460025E+02 -0.20238607766E+02  0.20400015432E+03  0.17200000000E+03 0. -1.
         -6    1    1    2    0  503  0.84833317945E+02 -0.66526460025E+02 -0.22524680969E+02  0.20423962145E+03  0.17200000000E+03 0. -1.
<mgrwt>
<rscale>  2 0.20299375E+03</rscale>
<asrwt>0</asrwt>
<pdfrwt beam="1">  1       21 0.45684561E-01 0.20299375E+03</pdfrwt>
<pdfrwt beam="2">  1       21 0.56375383E-01 0.20299375E+03</pdfrwt>
<totfact> 0.13506899E+04</totfact>
</mgrwt>
</event>
<event>
 4    1  0.1101825E+000  0.2125844E+03  0.7546771E-02  0.1139536E+00
         21   -1    0    0  503  502  0.00000000000E+00  0.00000000000E+00  0.29837896475E+02  0.29837896475E+02  0.00000000000E+00 0. -1.
         21   -1    0    0  501  503 -0.00000000000E+00 -0.00000000000E+00 -0.17774321377E+04  0.17774321377E+04  0.00000000000E+00 0. -1.
          6    1    1    2  501    0  0.65652520003E+02 -0.10629154743E+03 -0.52630500752E+03  0.56761704289E+03  0.17200000000E+03 0. -1.
         -6    1    1    2    0  502 -0.65652520003E+02  0.10629154743E+03 -0.12212892337E+04  0.12396529913E+04  0.17200000000E+03 0. -1.
<mgrwt>
<rscale>  2 0.21258445E+03</rscale>
<asrwt>0</asrwt>
<pdfrwt beam="1">  1       21 0.74594746E-02 0.21258445E+03</pdfrwt>
<pdfrwt beam="2">  1       21 0.44435801E+00 0.21258445E+03</pdfrwt>
<totfact> 0.59541707E+02</totfact>
</mgrwt>
</event>
<event>
 4    1  0.1101825E+000  0.1772299E+03  0.7546771E-02  0.1170511E+00
         21   -1    0    0  501  502  0.00000000000E+00  0.00000000000E+00  0.33872852531E+03  0.33872852531E+03  0.00000000000E+00 0.  1.
         21   -1    0    0  502  503 -0.00000000000E+00 -0.00000000000E+00 -0.96133517951E+02  0.96133517951E+02  0.00000000000E+00 0.  1.
          6    1    1    2  501    0  0.28832058181E+02  0.31545961658E+02  0.16220679022E+03  0.24025294602E+03  0.17200000000E+03 0. -1.
         -6    1    1    2    0  503 -0.28832058181E+02 -0.31545961658E+02  0.80388217141E+02  0.19460909725E+03  0.17200000000E+03 0. -1.
<mgrwt>
<rscale>  2 0.17722989E+03</rscale>
<asrwt>0</asrwt>
<pdfrwt beam="1">  1       21 0.84682129E-01 0.17722989E+03</pdfrwt>
<pdfrwt beam="2">  1       21 0.24033380E-01 0.17722989E+03</pdfrwt>
<totfact> 0.19921379E+04</totfact>
</mgrwt>
</event>
<event>
 4    1  0.1101825E+000  0.2066566E+03  0.7546771E-02  0.1144241E+00
         21   -1    0    0  503  502  0.00000000000E+00  0.00000000000E+00  0.48543645887E+03  0.48543645887E+03  0.00000000000E+00 0. -1.
         21   -1    0    0  501  503 -0.00000000000E+00 -0.00000000000E+00 -0.95671101604E+02  0.95671101604E+02  0.00000000000E+00 0. -1.
          6    1    1    2  501    0 -0.38957244359E+02 -0.10772789010E+03  0.11248190827E+03  0.23528524153E+03  0.17200000000E+03 0. -1.
         -6    1    1    2    0  502  0.38957244359E+02  0.10772789010E+03  0.27728344900E+03  0.34582231895E+03  0.17200000000E+03 0. -1.
<mgrwt>
<rscale>  2 0.20665664E+03</rscale>
<asrwt>0</asrwt>
<pdfrwt beam="1">  1       21 0.12135911E+00 0.20665664E+03</pdfrwt>
<pdfrwt beam="2">  1       21 0.23917777E-01 0.20665664E+03</pdfrwt>
<totfact> 0.83753202E+03</totfact>
</mgrwt>
</event>
<event>
 4    1  0.1101825E+000  0.2195101E+03  0.7546771E-02  0.1134249E+00
         21   -1    0    0  501  502  0.00000000000E+00  0.00000000000E+00  0.26966096807E+03  0.26966096807E+03  0.00000000000E+00 0.  1.
         21   -1    0    0  502  503 -0.00000000000E+00 -0.00000000000E+00 -0.20178193617E+03  0.20178193617E+03  0.00000000000E+00 0. -1.
          6    1    1    2  501    0  0.13239684011E+03  0.32737517253E+02  0.11368842573E+03  0.24720381561E+03  0.17200000000E+03 0. -1.
         -6    1    1    2    0  503 -0.13239684011E+03 -0.32737517253E+02 -0.45809393825E+02  0.22423908863E+03  0.17200000000E+03 0. -1.
<mgrwt>
<rscale>  2 0.21951006E+03</rscale>
<asrwt>0</asrwt>
<pdfrwt beam="1">  1       21 0.67415242E-01 0.21951006E+03</pdfrwt>
<pdfrwt beam="2">  1       21 0.50445484E-01 0.21951006E+03</pdfrwt>
<totfact> 0.73871147E+03</totfact>
</mgrwt>
</event>
<event>
 4    1  0.1101825E+000  0.1960812E+03  0.7546771E-02  0.1153088E+00
         21   -1    0    0  501  502  0.00000000000E+00  0.00000000000E+00  0.24084974231E+03  0.24084974231E+03  0.00000000000E+00 0.  1.
         21   -1    0    0  502  503 -0.00000000000E+00 -0.00000000000E+00 -0.20962124248E+03  0.20962124248E+03  0.00000000000E+00 0.  1.
          6    1    1    2  501    0 -0.94041362218E+02  0.44804128231E+01  0.12560292626E+03  0.23286035943E+03  0.17200000000E+03 0. -1.
         -6    1    1    2    0  503  0.94041362218E+02 -0.44804128231E+01 -0.94374426429E+02  0.21761062536E+03  0.17200000000E+03 0. -1.
<mgrwt>
<rscale>  2 0.19608124E+03</rscale>
<asrwt>0</asrwt>
<pdfrwt beam="1">  1       21 0.60212435E-01 0.19608124E+03</pdfrwt>
<pdfrwt beam="2">  1       21 0.52405311E-01 0.19608124E+03</pdfrwt>
<totfact> 0.88600917E+03</totfact>
</mgrwt>
</event>
<event>
 4    1  0.1101825E+000  0.1749213E+03  0.7546771E-02  0.1172811E+00
         21   -1    0    0  501  502  0.00000000000E+00  0.00000000000E+00  0.54685172803E+03  0.54685172803E+03  0.00000000000E+00 0. -1.
         21   -1    0    0  502  503 -0.00000000000E+00 -0.00000000000E+00 -0.88813338107E+02  0.88813338107E+02  0.00000000000E+00 0. -1.
          6    1    1    2  501    0 -0.91013541010E+01  0.30506325985E+02  0.42235024074E+03  0.45714023716E+03  0.17200000000E+03 0. -1.
         -6    1    1    2    0  503  0.91013541010E+01 -0.30506325985E+02  0.35688149183E+02  0.17852482898E+03  0.17200000000E+03 0. -1.
<mgrwt>
<rscale>  2 0.17492133E+03</rscale>
<asrwt>0</asrwt>
<pdfrwt beam="1">  1       21 0.13671292E+00 0.17492133E+03</pdfrwt>
<pdfrwt beam="2">  1       21 0.22203336E-01 0.17492133E+03</pdfrwt>
<totfact> 0.73199989E+03</totfact>
</mgrwt>
</event>
<event>
 4    1  0.1101825E+000  0.2072562E+03  0.7546771E-02  0.1143757E+00
         21   -1    0    0  503  502  0.00000000000E+00  0.00000000000E+00  0.41012547256E+03  0.41012547256E+03  0.00000000000E+00 0.  1.
         21   -1    0    0  501  503 -0.00000000000E+00 -0.00000000000E+00 -0.11810296765E+03  0.11810296765E+03  0.00000000000E+00 0. -1.
          6    1    1    2  501    0 -0.11500935326E+03  0.11998532627E+02  0.23486368582E+03  0.31323484327E+03  0.17200000000E+03 0.  1.
         -6    1    1    2    0  502  0.11500935326E+03 -0.11998532627E+02  0.57158819084E+02  0.21499359693E+03  0.17200000000E+03 0.  1.
<mgrwt>
<rscale>  2 0.20725616E+03</rscale>
<asrwt>0</asrwt>
<pdfrwt beam="1">  1       21 0.10253136E+00 0.20725616E+03</pdfrwt>
<pdfrwt beam="2">  1       21 0.29525743E-01 0.20725616E+03</pdfrwt>
<totfact> 0.84127074E+03</totfact>
</mgrwt>
</event>
<event>
 4    1  0.1101825E+000  0.2265567E+03  0.7546771E-02  0.1129087E+00
         21   -1    0    0  501  502  0.00000000000E+00  0.00000000000E+00  0.49372144852E+03  0.49372144852E+03  0.00000000000E+00 0. -1.
         21   -1    0    0  502  503 -0.00000000000E+00 -0.00000000000E+00 -0.61666037383E+03  0.61666037383E+03  0.00000000000E+00 0.  1.
          6    1    1    2  501    0 -0.35713954054E+02  0.14306801927E+03  0.44476368078E+03  0.49914194012E+03  0.17200000000E+03 0. -1.
         -6    1    1    2    0  503  0.35713954054E+02 -0.14306801927E+03 -0.56770260609E+03  0.61123988222E+03  0.17200000000E+03 0.  1.
<mgrwt>
<rscale>  2 0.22655671E+03</rscale>
<asrwt>0</asrwt>
<pdfrwt beam="1">  1       21 0.12343036E+00 0.22655671E+03</pdfrwt>
<pdfrwt beam="2">  1       21 0.15416509E+00 0.22655671E+03</pdfrwt>
<totfact> 0.13114413E+02</totfact>
</mgrwt>
</event>
<event>
 4    1  0.1101825E+000  0.2169797E+03  0.7546771E-02  0.1136155E+00
         21   -1    0    0  503  502  0.00000000000E+00  0.00000000000E+00  0.54464153720E+03  0.54464153720E+03  0.00000000000E+00 0. -1.
         21   -1    0    0  501  503 -0.00000000000E+00 -0.00000000000E+00 -0.43618081918E+03  0.43618081918E+03  0.00000000000E+00 0. -1.
          6    1    1    2  501    0  0.69677853392E+02  0.11243307488E+03 -0.38490525638E+03  0.44185094316E+03  0.17200000000E+03 0. -1.
         -6    1    1    2    0  502 -0.69677853392E+02 -0.11243307488E+03  0.49336597439E+03  0.53897141322E+03  0.17200000000E+03 0. -1.
<mgrwt>
<rscale>  2 0.21697972E+03</rscale>
<asrwt>0</asrwt>
<pdfrwt beam="1">  1       21 0.13616038E+00 0.21697972E+03</pdfrwt>
<pdfrwt beam="2">  1       21 0.10904521E+00 0.21697972E+03</pdfrwt>
<totfact> 0.24912237E+02</totfact>
</mgrwt>
</event>
<event>
 4    1  0.1101825E+000  0.1755186E+03  0.7546771E-02  0.1172212E+00
         21   -1    0    0  503  502  0.00000000000E+00  0.00000000000E+00  0.67021153741E+03  0.67021153741E+03  0.00000000000E+00 0.  1.
         21   -1    0    0  501  503 -0.00000000000E+00 -0.00000000000E+00 -0.61208867681E+02  0.61208867681E+02  0.00000000000E+00 0.  1.
          6    1    1    2  501    0  0.23718470036E+02 -0.25694681329E+02  0.12199973880E+03  0.21375387420E+03  0.17200000000E+03 0.  1.
         -6    1    1    2    0  502 -0.23718470036E+02  0.25694681329E+02  0.48700293092E+03  0.51766653088E+03  0.17200000000E+03 0.  1.
<mgrwt>
<rscale>  2 0.17551861E+03</rscale>
<asrwt>0</asrwt>
<pdfrwt beam="1">  1       21 0.16755286E+00 0.17551861E+03</pdfrwt>
<pdfrwt beam="2">  1       21 0.15302219E-01 0.17551861E+03</pdfrwt>
<totfact> 0.85191600E+03</totfact>
</mgrwt>
</event>
<event>
 4    1  0.1101825E+000  0.2108461E+03  0.7546771E-02  0.1140898E+00
         21   -1    0    0  501  502  0.00000000000E+00  0.00000000000E+00  0.10825991507E+03  0.10825991507E+03  0.00000000000E+00 0. -1.
         21   -1    0    0  502  503 -0.00000000000E+00 -0.00000000000E+00 -0.41559471505E+03  0.41559471505E+03  0.00000000000E+00 0.  1.
          6    1    1    2  501    0 -0.11150467236E+03  0.49384040695E+02 -0.12507408813E+03  0.24515220365E+03  0.17200000000E+03 0.  1.
         -6    1    1    2    0  503  0.11150467236E+03 -0.49384040695E+02 -0.18226071185E+03  0.27870242647E+03  0.17200000000E+03 0.  1.
<mgrwt>
<rscale>  2 0.21084609E+03</rscale>
<asrwt>0</asrwt>
<pdfrwt beam="1">  1       21 0.27064979E-01 0.21084609E+03</pdfrwt>
<pdfrwt beam="2">  1       21 0.10389868E+00 0.21084609E+03</pdfrwt>
<totfact> 0.96241278E+03</totfact>
</mgrwt>
</event>
<event>
 4    1  0.1101825E+000  0.2808156E+03  0.7546771E-02  0.1095244E+00
         21   -1    0    0  503  502  0.00000000000E+00  0.00000000000E+00  0.31955296337E+03  0.31955296337E+03  0.00000000000E+00 0.  1.
         21   -1    0    0  501  503 -0.00000000000E+00 -0.00000000000E+00 -0.29476231372E+03  0.29476231372E+03  0.00000000000E+00 0. -1.
          6    1    1    2  501    0  0.21075925610E+03 -0.69670194981E+02 -0.11153927268E+03  0.30215626661E+03  0.17200000000E+03 0. -1.
         -6    1    1    2    0  502 -0.21075925610E+03  0.69670194981E+02  0.13632992233E+03  0.31215901048E+03  0.17200000000E+03 0.  1.
<mgrwt>
<rscale>  2 0.28081560E+03</rscale>
<asrwt>0</asrwt>
<pdfrwt beam="1">  1       21 0.79888241E-01 0.28081560E+03</pdfrwt>
<pdfrwt beam="2">  1       21 0.73690578E-01 0.28081560E+03</pdfrwt>
<totfact> 0.21350788E+03</totfact>
</mgrwt>
</event>
<event>
 4    1  0.1101825E+000  0.2400275E+03  0.7546771E-02  0.1119774E+00
         21   -1    0    0  501  502  0.00000000000E+00  0.00000000000E+00  0.70402880483E+03  0.70402880483E+03  0.00000000000E+00 0.  1.
         21   -1    0    0  502  503 -0.00000000000E+00 -0.00000000000E+00 -0.81855148044E+02  0.81855148044E+02  0.00000000000E+00 0. -1.
          6    1    1    2  501    0  0.94006714150E+02  0.13853502161E+03  0.30471201272E+03  0.38789512141E+03  0.17200000000E+03 0.  1.
         -6    1    1    2    0  503 -0.94006714150E+02 -0.13853502161E+03  0.31746164407E+03  0.39798883147E+03  0.17200000000E+03 0. -1.
<mgrwt>
<rscale>  2 0.24002753E+03</rscale>
<asrwt>0</asrwt>
<pdfrwt beam="1">  1       21 0.17600718E+00 0.24002753E+03</pdfrwt>
<pdfrwt beam="2">  1       21 0.20463789E-01 0.24002753E+03</pdfrwt>
<totfact> 0.41201062E+03</totfact>
</mgrwt>
</event>
<event>
 4    1  0.1101825E+000  0.1966626E+03  0.7546771E-02  0.1152586E+00
         21   -1    0    0  503  502  0.00000000000E+00  0.00000000000E+00  0.52187958245E+03  0.52187958245E+03  0.00000000000E+00 0. -1.
         21   -1    0    0  501  503 -0.00000000000E+00 -0.00000000000E+00 -0.11456358280E+03  0.11456358280E+03  0.00000000000E+00 0. -1.
          6    1    1    2  501    0  0.59186148126E+02  0.74760834450E+02  0.14559511785E+02  0.19720081613E+03  0.17200000000E+03 0. -1.
         -6    1    1    2    0  502 -0.59186148126E+02 -0.74760834450E+02  0.39275648786E+03  0.43924234912E+03  0.17200000000E+03 0. -1.
<mgrwt>
<rscale>  2 0.19666261E+03</rscale>
<asrwt>0</asrwt>
<pdfrwt beam="1">  1       21 0.13046989E+00 0.19666261E+03</pdfrwt>
<pdfrwt beam="2">  1       21 0.28640897E-01 0.19666261E+03</pdfrwt>
<totfact> 0.49785258E+03</totfact>
</mgrwt>
</event>
<event>
 4    1  0.1101825E+000  0.3663855E+03  0.7546771E-02  0.1056084E+00
         21   -1    0    0  501  502  0.00000000000E+00  0.00000000000E+00  0.30062437088E+03  0.30062437088E+03  0.00000000000E+00 0.  1.
         21   -1    0    0  502  503 -0.00000000000E+00 -0.00000000000E+00 -0.51589145258E+03  0.51589145258E+03  0.00000000000E+00 0.  1.
          6    1    1    2  501    0 -0.22434499568E+03  0.23307429280E+03  0.42062149704E+02  0.36879198404E+03  0.17200000000E+03 0.  1.
         -6    1    1    2    0  503  0.22434499568E+03 -0.23307429280E+03 -0.25732923141E+03  0.44772383942E+03  0.17200000000E+03 0.  1.
<mgrwt>
<rscale>  2 0.36638546E+03</rscale>
<asrwt>0</asrwt>
<pdfrwt beam="1">  1       21 0.75156093E-01 0.36638546E+03</pdfrwt>
<pdfrwt beam="2">  1       21 0.12897286E+00 0.36638546E+03</pdfrwt>
<totfact> 0.61001086E+02</totfact>
</mgrwt>
</event>
<event>
 4    1  0.1101825E+000  0.1875641E+03  0.7546771E-02  0.1160677E+00
         21   -1    0    0  501  502  0.00000000000E+00  0.00000000000E+00  0.17204073034E+03  0.17204073034E+03  0.00000000000E+00 0. -1.
         21   -1    0    0  502  503 -0.00000000000E+00 -0.00000000000E+00 -0.32421340698E+03  0.32421340698E+03  0.00000000000E+00 0. -1.
          6    1    1    2  501    0 -0.72459578521E+02  0.18598609790E+02  0.74696343387E+02  0.20189066972E+03  0.17200000000E+03 0. -1.
         -6    1    1    2    0  503  0.72459578521E+02 -0.18598609790E+02 -0.22686902003E+03  0.29436346759E+03  0.17200000000E+03 0. -1.
<mgrwt>
<rscale>  2 0.18756412E+03</rscale>
<asrwt>0</asrwt>
<pdfrwt beam="1">  1       21 0.43010183E-01 0.18756412E+03</pdfrwt>
<pdfrwt beam="2">  1       21 0.81053351E-01 0.18756412E+03</pdfrwt>
<totfact> 0.69672618E+03</totfact>
</mgrwt>
</event>
<event>
 4    1  0.1101825E+000  0.2677437E+03  0.7546771E-02  0.1102578E+00
         21   -1    0    0  503  502  0.00000000000E+00  0.00000000000E+00  0.48980128901E+03  0.48980128901E+03  0.00000000000E+00 0. -1.
         21   -1    0    0  501  503 -0.00000000000E+00 -0.00000000000E+00 -0.21105880731E+03  0.21105880731E+03  0.00000000000E+00 0.  1.
          6    1    1    2  501    0 -0.19721530921E+03 -0.56646188351E+02 -0.54651294300E+02  0.27326440092E+03  0.17200000000E+03 0.  1.
         -6    1    1    2    0  502  0.19721530921E+03  0.56646188351E+02  0.33339377601E+03  0.42759569540E+03  0.17200000000E+03 0.  1.
<mgrwt>
<rscale>  2 0.26774366E+03</rscale>
<asrwt>0</asrwt>
<pdfrwt beam="1">  1       21 0.12245032E+00 0.26774366E+03</pdfrwt>
<pdfrwt beam="2">  1       21 0.52764703E-01 0.26774366E+03</pdfrwt>
<totfact> 0.16074078E+03</totfact>
</mgrwt>
</event>
<event>
 4    1  0.1101825E+000  0.2225213E+03  0.7546771E-02  0.1132017E+00
         21   -1    0    0  503  502  0.00000000000E+00  0.00000000000E+00  0.28678456955E+03  0.28678456955E+03  0.00000000000E+00 0. -1.
         21   -1    0    0  501  503 -0.00000000000E+00 -0.00000000000E+00 -0.33299812133E+03  0.33299812133E+03  0.00000000000E+00 0.  1.
          6    1    1    2  501    0  0.10413496734E+03  0.95329183601E+02 -0.23814180584E+03  0.32592524351E+03  0.17200000000E+03 0.  1.
         -6    1    1    2    0  502 -0.10413496734E+03 -0.95329183601E+02  0.19192825406E+03  0.29385744737E+03  0.17200000000E+03 0. -1.
<mgrwt>
<rscale>  2 0.22252134E+03</rscale>
<asrwt>0</asrwt>
<pdfrwt beam="1">  1       21 0.71696142E-01 0.22252134E+03</pdfrwt>
<pdfrwt beam="2">  1       21 0.83249530E-01 0.22252134E+03</pdfrwt>
<totfact> 0.21526089E+03</totfact>
</mgrwt>
</event>
<event>
 4    1  0.1101825E+000  0.1809095E+03  0.7546771E-02  0.1166926E+00
         21   -1    0    0  501  502  0.00000000000E+00  0.00000000000E+00  0.73568268911E+03  0.73568268911E+03  0.00000000000E+00 0. -1.
         21   -1    0    0  502  503 -0.00000000000E+00 -0.00000000000E+00 -0.45483273789E+02  0.45483273789E+02  0.00000000000E+00 0. -1.
          6    1    1    2  501    0  0.49817944768E+01 -0.55851769611E+02  0.28729013967E+03  0.33950532072E+03  0.17200000000E+03 0. -1.
         -6    1    1    2    0  503 -0.49817944768E+01  0.55851769611E+02  0.40290927565E+03  0.44166064218E+03  0.17200000000E+03 0. -1.
<mgrwt>
<rscale>  2 0.18090948E+03</rscale>
<asrwt>0</asrwt>
<pdfrwt beam="1">  1       21 0.18392063E+00 0.18090948E+03</pdfrwt>
<pdfrwt beam="2">  1       21 0.11370821E-01 0.18090948E+03</pdfrwt>
<totfact> 0.11165516E+04</totfact>
</mgrwt>
</event>
<event>
 4    1  0.1101825E+000  0.3102344E+03  0.7546771E-02  0.1080234E+00
         21   -1    0    0  503  502  0.00000000000E+00  0.00000000000E+00  0.20131780889E+03  0.20131780889E+03  0.00000000000E+00 0.  1.
         21   -1    0    0  501  503 -0.00000000000E+00 -0.00000000000E+00 -0.48296147442E+03  0.48296147442E+03  0.00000000000E+00 0. -1.
          6    1    1    2  501    0 -0.31997830097E+02 -0.25619822145E+03 -0.17522999216E+03  0.35630175407E+03  0.17200000000E+03 0. -1.
         -6    1    1    2    0  502  0.31997830097E+02  0.25619822145E+03 -0.10641367338E+03  0.32797752924E+03  0.17200000000E+03 0. -1.
<mgrwt>
<rscale>  2 0.31023441E+03</rscale>
<asrwt>0</asrwt>
<pdfrwt beam="1">  1       21 0.50329453E-01 0.31023441E+03</pdfrwt>
<pdfrwt beam="2">  1       21 0.12074037E+00 0.31023441E+03</pdfrwt>
<totfact> 0.17914637E+03</totfact>
</mgrwt>
</event>
<event>
 4    1  0.1101825E+000  0.2041525E+03  0.7546771E-02  0.1146282E+00
         21   -1    0    0  503  502  0.00000000000E+00  0.00000000000E+00  0.35037824912E+03  0.35037824912E+03  0.00000000000E+00 0.  1.
         21   -1    0    0  501  503 -0.00000000000E+00 -0.00000000000E+00 -0.15274531020E+03  0.15274531020E+03  0.00000000000E+00 0.  1.
          6    1    1    2  501    0  0.63131471785E+02 -0.90048211196E+02 -0.19508065815E+02  0.20508248999E+03  0.17200000000E+03 0.  1.
         -6    1    1    2    0  502 -0.63131471785E+02  0.90048211196E+02  0.21714100473E+03  0.29804106933E+03  0.17200000000E+03 0.  1.
<mgrwt>
<rscale>  2 0.20415255E+03</rscale>
<asrwt>0</asrwt>
<pdfrwt beam="1">  1       21 0.87594561E-01 0.20415255E+03</pdfrwt>
<pdfrwt beam="2">  1       21 0.38186328E-01 0.20415255E+03</pdfrwt>
<totfact> 0.73340262E+03</totfact>
</mgrwt>
</event>
<event>
 4    1  0.1101825E+000  0.1973887E+03  0.7546771E-02  0.1151961E+00
         21   -1    0    0  503  502  0.00000000000E+00  0.00000000000E+00  0.57710399592E+03  0.57710399592E+03  0.00000000000E+00 0.  1.
         21   -1    0    0  501  503 -0.00000000000E+00 -0.00000000000E+00 -0.11591129984E+03  0.11591129984E+03  0.00000000000E+00 0. -1.
          6    1    1    2  501    0 -0.79329979732E+02 -0.55543112675E+02  0.66917766993E+01  0.19750205803E+03  0.17200000000E+03 0. -1.
         -6    1    1    2    0  502  0.79329979732E+02  0.55543112675E+02  0.45450091938E+03  0.49551323774E+03  0.17200000000E+03 0.  1.
<mgrwt>
<rscale>  2 0.19738866E+03</rscale>
<asrwt>0</asrwt>
<pdfrwt beam="1">  1       21 0.14427599E+00 0.19738866E+03</pdfrwt>
<pdfrwt beam="2">  1       21 0.28977827E-01 0.19738866E+03</pdfrwt>
<totfact> 0.37572680E+03</totfact>
</mgrwt>
</event>
<event>
 4    1  0.1101825E+000  0.2069003E+03  0.7546771E-02  0.1144044E+00
         21   -1    0    0  501  502  0.00000000000E+00  0.00000000000E+00  0.75576296372E+02  0.75576296372E+02  0.00000000000E+00 0.  1.
         21   -1    0    0  502  503 -0.00000000000E+00 -0.00000000000E+00 -0.78826151097E+03  0.78826151097E+03  0.00000000000E+00 0.  1.
          6    1    1    2  501    0  0.79170657218E+02  0.83401198083E+02 -0.12720799400E+03  0.24287780167E+03  0.17200000000E+03 0.  1.
         -6    1    1    2    0  503 -0.79170657218E+02 -0.83401198083E+02 -0.58547722060E+03  0.62096000567E+03  0.17200000000E+03 0.  1.
<mgrwt>
<rscale>  2 0.20690035E+03</rscale>
<asrwt>0</asrwt>
<pdfrwt beam="1">  1       21 0.18894074E-01 0.20690035E+03</pdfrwt>
<pdfrwt beam="2">  1       21 0.19706538E+00 0.20690035E+03</pdfrwt>
<totfact> 0.35510421E+03</totfact>
</mgrwt>
</event>
<event>
 4    1  0.1101825E+000  0.1905166E+03  0.7546771E-02  0.1157996E+00
         21   -1    0    0  501  502  0.00000000000E+00  0.00000000000E+00  0.78219632134E+03  0.78219632134E+03  0.00000000000E+00 0. -1.
         21   -1    0    0  502  503 -0.00000000000E+00 -0.00000000000E+00 -0.11528112814E+03  0.11528112814E+03  0.00000000000E+00 0. -1.
          6    1    1    2  501    0  0.77357097313E+02  0.26990083768E+02  0.68031724662E+03  0.70649001491E+03  0.17200000000E+03 0. -1.
         -6    1    1    2    0  503 -0.77357097313E+02 -0.26990083768E+02 -0.13402053422E+02  0.19098743457E+03  0.17200000000E+03 0. -1.
<mgrwt>
<rscale>  2 0.19051663E+03</rscale>
<asrwt>0</asrwt>
<pdfrwt beam="1">  1       21 0.19554907E+00 0.19051663E+03</pdfrwt>
<pdfrwt beam="2">  1       21 0.28820284E-01 0.19051663E+03</pdfrwt>
<totfact> 0.16565375E+03</totfact>
</mgrwt>
</event>
<event>
 4    1  0.1101825E+000  0.1957311E+03  0.7546771E-02  0.1153391E+00
         21   -1    0    0  501  502  0.00000000000E+00  0.00000000000E+00  0.91768354068E+02  0.91768354068E+02  0.00000000000E+00 0. -1.
         21   -1    0    0  502  503 -0.00000000000E+00 -0.00000000000E+00 -0.46419681849E+03  0.46419681849E+03  0.00000000000E+00 0.  1.
          6    1    1    2  501    0  0.77172454937E+02 -0.52641021302E+02 -0.98019422732E+02  0.21890288294E+03  0.17200000000E+03 0.  1.
         -6    1    1    2    0  503 -0.77172454937E+02  0.52641021302E+02 -0.27440904169E+03  0.33706228962E+03  0.17200000000E+03 0.  1.
<mgrwt>
<rscale>  2 0.19573110E+03</rscale>
<asrwt>0</asrwt>
<pdfrwt beam="1">  1       21 0.22942089E-01 0.19573110E+03</pdfrwt>
<pdfrwt beam="2">  1       21 0.11604920E+00 0.19573110E+03</pdfrwt>
<totfact> 0.10203506E+04</totfact>
</mgrwt>
</event>
<event>
 4    1  0.1101825E+000  0.1800918E+03  0.7546771E-02  0.1167714E+00
         21   -1    0    0  501  502  0.00000000000E+00  0.00000000000E+00  0.30098476537E+03  0.30098476537E+03  0.00000000000E+00 0. -1.
         21   -1    0    0  502  503 -0.00000000000E+00 -0.00000000000E+00 -0.12436878272E+03  0.12436878272E+03  0.00000000000E+00 0. -1.
          6    1    1    2  501    0  0.33929619726E+02  0.41204667079E+02  0.16603643091E+03  0.24495130143E+03  0.17200000000E+03 0. -1.
         -6    1    1    2    0  503 -0.33929619726E+02 -0.41204667079E+02  0.10579551744E+02  0.18040224666E+03  0.17200000000E+03 0. -1.
<mgrwt>
<rscale>  2 0.18009176E+03</rscale>
<asrwt>0</asrwt>
<pdfrwt beam="1">  1       21 0.75246190E-01 0.18009176E+03</pdfrwt>
<pdfrwt beam="2">  1       21 0.31092196E-01 0.18009176E+03</pdfrwt>
<totfact> 0.15810039E+04</totfact>
</mgrwt>
</event>
<event>
 4    1  0.1101825E+000  0.1756686E+03  0.7546771E-02  0.1172062E+00
         21   -1    0    0  503  502  0.00000000000E+00  0.00000000000E+00  0.10943128838E+03  0.10943128838E+03  0.00000000000E+00 0.  1.
         21   -1    0    0  501  503 -0.00000000000E+00 -0.00000000000E+00 -0.32122142182E+03  0.32122142182E+03  0.00000000000E+00 0.  1.
          6    1    1    2  501    0  0.12869592660E+02 -0.33313979203E+02 -0.30652172149E+02  0.17832275032E+03  0.17200000000E+03 0.  1.
         -6    1    1    2    0  502 -0.12869592660E+02  0.33313979203E+02 -0.18113796129E+03  0.25232995987E+03  0.17200000000E+03 0.  1.
<mgrwt>
<rscale>  2 0.17566857E+03</rscale>
<asrwt>0</asrwt>
<pdfrwt beam="1">  1       21 0.27357822E-01 0.17566857E+03</pdfrwt>
<pdfrwt beam="2">  1       21 0.80305354E-01 0.17566857E+03</pdfrwt>
<totfact> 0.17560994E+04</totfact>
</mgrwt>
</event>
<event>
 4    1  0.1101825E+000  0.2062308E+03  0.7546771E-02  0.1144586E+00
         21   -1    0    0  501  502  0.00000000000E+00  0.00000000000E+00  0.93778237526E+02  0.93778237526E+02  0.00000000000E+00 0. -1.
         21   -1    0    0  502  503 -0.00000000000E+00 -0.00000000000E+00 -0.48456404036E+03  0.48456404036E+03  0.00000000000E+00 0. -1.
          6    1    1    2  501    0 -0.38262766610E+02 -0.10715930283E+03 -0.12221075832E+03  0.23972197426E+03  0.17200000000E+03 0. -1.
         -6    1    1    2    0  503  0.38262766610E+02  0.10715930283E+03 -0.26857504451E+03  0.33862030363E+03  0.17200000000E+03 0. -1.
<mgrwt>
<rscale>  2 0.20623083E+03</rscale>
<asrwt>0</asrwt>
<pdfrwt beam="1">  1       21 0.23444560E-01 0.20623083E+03</pdfrwt>
<pdfrwt beam="2">  1       21 0.12114101E+00 0.20623083E+03</pdfrwt>
<totfact> 0.87414986E+03</totfact>
</mgrwt>
</event>
<event>
 4    1  0.1101825E+000  0.2012192E+03  0.7546771E-02  0.1148714E+00
         21   -1    0    0  501  502  0.00000000000E+00  0.00000000000E+00  0.94113495330E+03  0.94113495330E+03  0.00000000000E+00 0.  1.
         21   -1    0    0  502  503 -0.00000000000E+00 -0.00000000000E+00 -0.46423424777E+02  0.46423424777E+02  0.00000000000E+00 0. -1.
          6    1    1    2  501    0 -0.84533473853E+02  0.61312719443E+02  0.31369055496E+03  0.37268072400E+03  0.17200000000E+03 0. -1.
         -6    1    1    2    0  503  0.84533473853E+02 -0.61312719443E+02  0.58102097356E+03  0.61487765408E+03  0.17200000000E+03 0.  1.
<mgrwt>
<rscale>  2 0.20121918E+03</rscale>
<asrwt>0</asrwt>
<pdfrwt beam="1">  1       21 0.23528368E+00 0.20121918E+03</pdfrwt>
<pdfrwt beam="2">  1       21 0.11605859E-01 0.20121918E+03</pdfrwt>
<totfact> 0.50205873E+03</totfact>
</mgrwt>
</event>
<event>
 4    1  0.1101825E+000  0.1782862E+03  0.7546771E-02  0.1169472E+00
         21   -1    0    0  501  502  0.00000000000E+00  0.00000000000E+00  0.12307447589E+03  0.12307447589E+03  0.00000000000E+00 0.  1.
         21   -1    0    0  502  503 -0.00000000000E+00 -0.00000000000E+00 -0.58888736391E+03  0.58888736391E+03  0.00000000000E+00 0.  1.
          6    1    1    2  501    0  0.34754784366E+02  0.31529064634E+02  0.33826052485E+02  0.18146674290E+03  0.17200000000E+03 0.  1.
         -6    1    1    2    0  503 -0.34754784366E+02 -0.31529064634E+02 -0.49963894051E+03  0.53049509689E+03  0.17200000000E+03 0.  1.
<mgrwt>
<rscale>  2 0.17828622E+03</rscale>
<asrwt>0</asrwt>
<pdfrwt beam="1">  1       21 0.30768620E-01 0.17828622E+03</pdfrwt>
<pdfrwt beam="2">  1       21 0.14722184E+00 0.17828622E+03</pdfrwt>
<totfact> 0.32265116E+03</totfact>
</mgrwt>
</event>
<event>
 4    1  0.1101825E+000  0.2336386E+03  0.7546771E-02  0.1124105E+00
         21   -1    0    0  503  502  0.00000000000E+00  0.00000000000E+00  0.76129830378E+03  0.76129830378E+03  0.00000000000E+00 0.  1.
         21   -1    0    0  501  503 -0.00000000000E+00 -0.00000000000E+00 -0.80285945178E+02  0.80285945178E+02  0.00000000000E+00 0. -1.
          6    1    1    2  501    0  0.10476957661E+03 -0.11843281835E+03  0.20291883351E+03  0.30945605445E+03  0.17200000000E+03 0. -1.
         -6    1    1    2    0  502 -0.10476957661E+03  0.11843281835E+03  0.47809352509E+03  0.53212819450E+03  0.17200000000E+03 0.  1.
<mgrwt>
<rscale>  2 0.23363860E+03</rscale>
<asrwt>0</asrwt>
<pdfrwt beam="1">  1       21 0.19032455E+00 0.23363860E+03</pdfrwt>
<pdfrwt beam="2">  1       21 0.20071489E-01 0.23363860E+03</pdfrwt>
<totfact> 0.34315326E+03</totfact>
</mgrwt>
</event>
<event>
 4    1  0.1101825E+000  0.2181872E+03  0.7546771E-02  0.1135242E+00
         21   -1    0    0  503  502  0.00000000000E+00  0.00000000000E+00  0.27939781732E+03  0.27939781732E+03  0.00000000000E+00 0. -1.
         21   -1    0    0  501  503 -0.00000000000E+00 -0.00000000000E+00 -0.20996062901E+03  0.20996062901E+03  0.00000000000E+00 0.  1.
          6    1    1    2  501    0 -0.12334694997E+03 -0.52982901312E+02 -0.71507942960E+02  0.22960627998E+03  0.17200000000E+03 0.  1.
         -6    1    1    2    0  502  0.12334694997E+03  0.52982901312E+02  0.14094513127E+03  0.25975216635E+03  0.17200000000E+03 0. -1.
<mgrwt>
<rscale>  2 0.21818721E+03</rscale>
<asrwt>0</asrwt>
<pdfrwt beam="1">  1       21 0.69849454E-01 0.21818721E+03</pdfrwt>
<pdfrwt beam="2">  1       21 0.52490157E-01 0.21818721E+03</pdfrwt>
<totfact> 0.62900587E+03</totfact>
</mgrwt>
</event>
<event>
 4    1  0.1101825E+000  0.2620829E+03  0.7546771E-02  0.1105898E+00
         21   -1    0    0  501  502  0.00000000000E+00  0.00000000000E+00  0.42141454908E+03  0.42141454908E+03  0.00000000000E+00 0. -1.
         21   -1    0    0  502  503 -0.00000000000E+00 -0.00000000000E+00 -0.16354181131E+03  0.16354181131E+03  0.00000000000E+00 0. -1.
          6    1    1    2  501    0 -0.23172891352E+02  0.19638350441E+03  0.11198757496E+03  0.28500645720E+03  0.17200000000E+03 0. -1.
         -6    1    1    2    0  503  0.23172891352E+02 -0.19638350441E+03  0.14588516281E+03  0.29994990320E+03  0.17200000000E+03 0. -1.
<mgrwt>
<rscale>  2 0.26208293E+03</rscale>
<asrwt>0</asrwt>
<pdfrwt beam="1">  1       21 0.10535364E+00 0.26208293E+03</pdfrwt>
<pdfrwt beam="2">  1       21 0.40885454E-01 0.26208293E+03</pdfrwt>
<totfact> 0.39719060E+03</totfact>
</mgrwt>
</event>
<event>
 4    1  0.1101825E+000  0.1820205E+03  0.7546771E-02  0.1165862E+00
         21   -1    0    0  503  502  0.00000000000E+00  0.00000000000E+00  0.36531301682E+03  0.36531301682E+03  0.00000000000E+00 0. -1.
         21   -1    0    0  501  503 -0.00000000000E+00 -0.00000000000E+00 -0.34728724406E+03  0.34728724406E+03  0.00000000000E+00 0. -1.
          6    1    1    2  501    0 -0.43045963902E+02 -0.41164460075E+02 -0.29725023834E+03  0.34855296868E+03  0.17200000000E+03 0. -1.
         -6    1    1    2    0  502  0.43045963902E+02  0.41164460075E+02  0.31527601110E+03  0.36404729220E+03  0.17200000000E+03 0. -1.
<mgrwt>
<rscale>  2 0.18202051E+03</rscale>
<asrwt>0</asrwt>
<pdfrwt beam="1">  1       21 0.91328254E-01 0.18202051E+03</pdfrwt>
<pdfrwt beam="2">  1       21 0.86821811E-01 0.18202051E+03</pdfrwt>
<totfact> 0.11715737E+03</totfact>
</mgrwt>
</event>
<event>
 4    1  0.1101825E+000  0.2423502E+03  0.7546771E-02  0.1118237E+00
         21   -1    0    0  501  502  0.00000000000E+00  0.00000000000E+00  0.22338539467E+03  0.22338539467E+03  0.00000000000E+00 0. -1.
         21   -1    0    0  502  503 -0.00000000000E+00 -0.00000000000E+00 -0.74652903659E+03  0.74652903659E+03  0.00000000000E+00 0. -1.
          6    1    1    2  501    0 -0.16922258622E+03  0.22657202184E+02  0.12875192801E+03  0.27442793492E+03  0.17200000000E+03 0. -1.
         -6    1    1    2    0  503  0.16922258622E+03 -0.22657202184E+02 -0.65189556993E+03  0.69548649634E+03  0.17200000000E+03 0. -1.
<mgrwt>
<rscale>  2 0.24235023E+03</rscale>
<asrwt>0</asrwt>
<pdfrwt beam="1">  1       21 0.55846349E-01 0.24235023E+03</pdfrwt>
<pdfrwt beam="2">  1       21 0.18663226E+00 0.24235023E+03</pdfrwt>
<totfact> 0.46981503E+02</totfact>
</mgrwt>
</event>
<event>
 4    1  0.1101825E+000  0.1799337E+03  0.7546771E-02  0.1167867E+00
         21   -1    0    0  501  502  0.00000000000E+00  0.00000000000E+00  0.25567122913E+03  0.25567122913E+03  0.00000000000E+00 0.  1.
         21   -1    0    0  502  503 -0.00000000000E+00 -0.00000000000E+00 -0.13010973220E+03  0.13010973220E+03  0.00000000000E+00 0.  1.
          6    1    1    2  501    0  0.52115776646E+02 -0.87215948232E+01  0.31244253577E+02  0.18262618589E+03  0.17200000000E+03 0.  1.
         -6    1    1    2    0  503 -0.52115776646E+02  0.87215948232E+01  0.94317243344E+02  0.20315477544E+03  0.17200000000E+03 0.  1.
<mgrwt>
<rscale>  2 0.17993366E+03</rscale>
<asrwt>0</asrwt>
<pdfrwt beam="1">  1       21 0.63917807E-01 0.17993366E+03</pdfrwt>
<pdfrwt beam="2">  1       21 0.32527433E-01 0.17993366E+03</pdfrwt>
<totfact> 0.20715760E+04</totfact>
</mgrwt>
</event>
<event>
 4    1  0.1101825E+000  0.1961571E+03  0.7546771E-02  0.1153022E+00
         21   -1    0    0  501  502  0.00000000000E+00  0.00000000000E+00  0.39940717789E+03  0.39940717789E+03  0.00000000000E+00 0.  1.
         21   -1    0    0  502  503 -0.00000000000E+00 -0.00000000000E+00 -0.11971822116E+03  0.11971822116E+03  0.00000000000E+00 0.  1.
          6    1    1    2  501    0  0.33050554719E+02 -0.88324688056E+02  0.25455362946E+03  0.32136449704E+03  0.17200000000E+03 0.  1.
         -6    1    1    2    0  503 -0.33050554719E+02  0.88324688056E+02  0.25135327262E+02  0.19776090201E+03  0.17200000000E+03 0.  1.
<mgrwt>
<rscale>  2 0.19615705E+03</rscale>
<asrwt>0</asrwt>
<pdfrwt beam="1">  1       21 0.99851791E-01 0.19615705E+03</pdfrwt>
<pdfrwt beam="2">  1       21 0.29929556E-01 0.19615705E+03</pdfrwt>
<totfact> 0.87973820E+03</totfact>
</mgrwt>
</event>
<event>
 4    1  0.1101825E+000  0.1887596E+03  0.7546771E-02  0.1159585E+00
         21   -1    0    0  503  502  0.00000000000E+00  0.00000000000E+00  0.59008417813E+03  0.59008417813E+03  0.00000000000E+00 0. -1.
         21   -1    0    0  501  503 -0.00000000000E+00 -0.00000000000E+00 -0.10793848189E+03  0.10793848189E+03  0.00000000000E+00 0. -1.
          6    1    1    2  501    0 -0.77727210072E+02  0.21641637907E+01  0.94090113291E+01  0.18899400066E+03  0.17200000000E+03 0. -1.
         -6    1    1    2    0  502  0.77727210072E+02 -0.21641637907E+01  0.47273668491E+03  0.50902865936E+03  0.17200000000E+03 0. -1.
<mgrwt>
<rscale>  2 0.18875964E+03</rscale>
<asrwt>0</asrwt>
<pdfrwt beam="1">  1       21 0.14752104E+00 0.18875964E+03</pdfrwt>
<pdfrwt beam="2">  1       21 0.26984622E-01 0.18875964E+03</pdfrwt>
<totfact> 0.40995688E+03</totfact>
</mgrwt>
</event>
<event>
 4    1  0.1101825E+000  0.1830258E+03  0.7546771E-02  0.1164906E+00
         21   -1    0    0  501  502  0.00000000000E+00  0.00000000000E+00  0.42275882444E+03  0.42275882444E+03  0.00000000000E+00 0. -1.
         21   -1    0    0  502  503 -0.00000000000E+00 -0.00000000000E+00 -0.20584793707E+03  0.20584793707E+03  0.00000000000E+00 0. -1.
          6    1    1    2  501    0 -0.62020100801E+02  0.82436722210E+01  0.35495159718E+03  0.39936084857E+03  0.17200000000E+03 0. -1.
         -6    1    1    2    0  503  0.62020100801E+02 -0.82436722210E+01 -0.13804070980E+03  0.22924591294E+03  0.17200000000E+03 0. -1.
<mgrwt>
<rscale>  2 0.18302582E+03</rscale>
<asrwt>0</asrwt>
<pdfrwt beam="1">  1       21 0.10568970E+00 0.18302582E+03</pdfrwt>
<pdfrwt beam="2">  1       21 0.51461985E-01 0.18302582E+03</pdfrwt>
<totfact> 0.26026679E+03</totfact>
</mgrwt>
</event>
<event>
 4    1  0.1101825E+000  0.1803295E+03  0.7546771E-02  0.1167485E+00
         21   -1    0    0  501  502  0.00000000000E+00  0.00000000000E+00  0.82215965882E+03  0.82215965882E+03  0.00000000000E+00 0.  1.
         21   -1    0    0  502  503 -0.00000000000E+00 -0.00000000000E+00 -0.41232729179E+02  0.41232729179E+02  0.00000000000E+00 0.  1.
          6    1    1    2  501    0 -0.51255347562E+02 -0.17538811617E+02  0.30332657897E+03  0.35288203989E+03  0.17200000000E+03 0.  1.
         -6    1    1    2    0  503  0.51255347562E+02  0.17538811617E+02  0.47760035067E+03  0.51051034811E+03  0.17200000000E+03 0.  1.
<mgrwt>
<rscale>  2 0.18032948E+03</rscale>
<asrwt>0</asrwt>
<pdfrwt beam="1">  1       21 0.20553986E+00 0.18032948E+03</pdfrwt>
<pdfrwt beam="2">  1       21 0.10308185E-01 0.18032948E+03</pdfrwt>
<totfact> 0.96231150E+03</totfact>
</mgrwt>
</event>
<event>
 4    1  0.1101825E+000  0.2219358E+03  0.7546771E-02  0.1132448E+00
         21   -1    0    0  501  502  0.00000000000E+00  0.00000000000E+00  0.43647284483E+03  0.43647284483E+03  0.00000000000E+00 0. -1.
         21   -1    0    0  502  503 -0.00000000000E+00 -0.00000000000E+00 -0.18459851270E+03  0.18459851270E+03  0.00000000000E+00 0.  1.
          6    1    1    2  501    0 -0.54117775900E+02  0.12939379399E+03  0.31953796151E+03  0.38905012072E+03  0.17200000000E+03 0. -1.
         -6    1    1    2    0  503  0.54117775900E+02 -0.12939379399E+03 -0.67663629370E+02  0.23202123681E+03  0.17200000000E+03 0.  1.
<mgrwt>
<rscale>  2 0.22193577E+03</rscale>
<asrwt>0</asrwt>
<pdfrwt beam="1">  1       21 0.10911821E+00 0.22193577E+03</pdfrwt>
<pdfrwt beam="2">  1       21 0.46149629E-01 0.22193577E+03</pdfrwt>
<totfact> 0.29240754E+03</totfact>
</mgrwt>
</event>
<event>
 4    1  0.1101825E+000  0.2166472E+03  0.7546771E-02  0.1136408E+00
         21   -1    0    0  501  502  0.00000000000E+00  0.00000000000E+00  0.28671602434E+03  0.28671602434E+03  0.00000000000E+00 0.  1.
         21   -1    0    0  502  503 -0.00000000000E+00 -0.00000000000E+00 -0.30376561074E+03  0.30376561074E+03  0.00000000000E+00 0. -1.
          6    1    1    2  501    0 -0.12209603072E+03 -0.49442477111E+02  0.19195457588E+03  0.28945216956E+03  0.17200000000E+03 0.  1.
         -6    1    1    2    0  503  0.12209603072E+03  0.49442477111E+02 -0.20900416228E+03  0.30102946552E+03  0.17200000000E+03 0. -1.
<mgrwt>
<rscale>  2 0.21664718E+03</rscale>
<asrwt>0</asrwt>
<pdfrwt beam="1">  1       21 0.71679006E-01 0.21664718E+03</pdfrwt>
<pdfrwt beam="2">  1       21 0.75941403E-01 0.21664718E+03</pdfrwt>
<totfact> 0.26646862E+03</totfact>
</mgrwt>
</event>
<event>
 4    1  0.1101825E+000  0.2326736E+03  0.7546771E-02  0.1124772E+00
         21   -1    0    0  501  502  0.00000000000E+00  0.00000000000E+00  0.12414520571E+03  0.12414520571E+03  0.00000000000E+00 0. -1.
         21   -1    0    0  502  503 -0.00000000000E+00 -0.00000000000E+00 -0.47411614129E+03  0.47411614129E+03  0.00000000000E+00 0.  1.
          6    1    1    2  501    0 -0.15421961308E+03  0.27736376629E+02 -0.25971369135E+03  0.34869499153E+03  0.17200000000E+03 0.  1.
         -6    1    1    2    0  503  0.15421961308E+03 -0.27736376629E+02 -0.90257244233E+02  0.24956635547E+03  0.17200000000E+03 0. -1.
<mgrwt>
<rscale>  2 0.23267358E+03</rscale>
<asrwt>0</asrwt>
<pdfrwt beam="1">  1       21 0.31036302E-01 0.23267358E+03</pdfrwt>
<pdfrwt beam="2">  1       21 0.11852903E+00 0.23267358E+03</pdfrwt>
<totfact> 0.52690437E+03</totfact>
</mgrwt>
</event>
<event>
 4    1  0.1101825E+000  0.1766635E+03  0.7546771E-02  0.1171072E+00
         21   -1    0    0  501  502  0.00000000000E+00  0.00000000000E+00  0.13572366540E+03  0.13572366540E+03  0.00000000000E+00 0.  1.
         21   -1    0    0  502  503 -0.00000000000E+00 -0.00000000000E+00 -0.31540017840E+03  0.31540017840E+03  0.00000000000E+00 0.  1.
          6    1    1    2  501    0 -0.40263073554E+02  0.22069103279E+01  0.27566353883E+02  0.17880125674E+03  0.17200000000E+03 0.  1.
         -6    1    1    2    0  503  0.40263073554E+02 -0.22069103279E+01 -0.20724286688E+03  0.27232258705E+03  0.17200000000E+03 0.  1.
<mgrwt>
<rscale>  2 0.17666348E+03</rscale>
<asrwt>0</asrwt>
<pdfrwt beam="1">  1       21 0.33930916E-01 0.17666348E+03</pdfrwt>
<pdfrwt beam="2">  1       21 0.78850044E-01 0.17666348E+03</pdfrwt>
<totfact> 0.12021321E+04</totfact>
</mgrwt>
</event>
<event>
 4    1  0.1101825E+000  0.1892288E+03  0.7546771E-02  0.1159159E+00
         21   -1    0    0  501  502  0.00000000000E+00  0.00000000000E+00  0.45663405907E+03  0.45663405907E+03  0.00000000000E+00 0.  1.
         21   -1    0    0  502  503 -0.00000000000E+00 -0.00000000000E+00 -0.15991711415E+03  0.15991711415E+03  0.00000000000E+00 0.  1.
          6    1    1    2  501    0 -0.43520301098E+02 -0.65798971796E+02  0.36843454220E+03  0.41418779942E+03  0.17200000000E+03 0.  1.
         -6    1    1    2    0  503  0.43520301098E+02  0.65798971796E+02 -0.71717597280E+02  0.20236337380E+03  0.17200000000E+03 0.  1.
<mgrwt>
<rscale>  2 0.18922875E+03</rscale>
<asrwt>0</asrwt>
<pdfrwt beam="1">  1       21 0.11415851E+00 0.18922875E+03</pdfrwt>
<pdfrwt beam="2">  1       21 0.39979280E-01 0.18922875E+03</pdfrwt>
<totfact> 0.36094257E+03</totfact>
</mgrwt>
</event>
<event>
 4    1  0.1101825E+000  0.1888193E+03  0.7546771E-02  0.1159531E+00
         21   -1    0    0  501  502  0.00000000000E+00  0.00000000000E+00  0.53413460395E+03  0.53413460395E+03  0.00000000000E+00 0. -1.
         21   -1    0    0  502  503 -0.00000000000E+00 -0.00000000000E+00 -0.32551697076E+03  0.32551697076E+03  0.00000000000E+00 0. -1.
          6    1    1    2  501    0 -0.16141935639E+01 -0.77885383865E+02  0.48754035531E+03  0.52282725321E+03  0.17200000000E+03 0. -1.
         -6    1    1    2    0  503  0.16141935639E+01  0.77885383865E+02 -0.27892272212E+03  0.33682432150E+03  0.17200000000E+03 0. -1.
<mgrwt>
<rscale>  2 0.18881933E+03</rscale>
<asrwt>0</asrwt>
<pdfrwt beam="1">  1       21 0.13353365E+00 0.18881933E+03</pdfrwt>
<pdfrwt beam="2">  1       21 0.81379243E-01 0.18881933E+03</pdfrwt>
<totfact> 0.53674212E+02</totfact>
</mgrwt>
</event>
<event>
 4    1  0.1101825E+000  0.2761638E+03  0.7546771E-02  0.1097803E+00
         21   -1    0    0  503  502  0.00000000000E+00  0.00000000000E+00  0.39312139250E+03  0.39312139250E+03  0.00000000000E+00 0.  1.
         21   -1    0    0  501  503 -0.00000000000E+00 -0.00000000000E+00 -0.22655962011E+03  0.22655962011E+03  0.00000000000E+00 0. -1.
          6    1    1    2  501    0 -0.16654686709E+03 -0.13763941946E+03 -0.34173981561E+02  0.27827024588E+03  0.17200000000E+03 0. -1.
         -6    1    1    2    0  502  0.16654686709E+03  0.13763941946E+03  0.20073575395E+03  0.34141076673E+03  0.17200000000E+03 0.  1.
<mgrwt>
<rscale>  2 0.27616384E+03</rscale>
<asrwt>0</asrwt>
<pdfrwt beam="1">  1       21 0.98280347E-01 0.27616384E+03</pdfrwt>
<pdfrwt beam="2">  1       21 0.56639906E-01 0.27616384E+03</pdfrwt>
<totfact> 0.23538799E+03</totfact>
</mgrwt>
</event>
<event>
 4    1  0.1101825E+000  0.1768776E+03  0.7546771E-02  0.1170860E+00
         21   -1    0    0  501  502  0.00000000000E+00  0.00000000000E+00  0.72832681172E+02  0.72832681172E+02  0.00000000000E+00 0.  1.
         21   -1    0    0  502  503 -0.00000000000E+00 -0.00000000000E+00 -0.56664660854E+03  0.56664660854E+03  0.00000000000E+00 0. -1.
          6    1    1    2  501    0 -0.70858560416E+01  0.40638483927E+02 -0.89637423608E+02  0.19829413366E+03  0.17200000000E+03 0.  1.
         -6    1    1    2    0  503  0.70858560416E+01 -0.40638483927E+02 -0.40417650376E+03  0.44118515605E+03  0.17200000000E+03 0. -1.
<mgrwt>
<rscale>  2 0.17687763E+03</rscale>
<asrwt>0</asrwt>
<pdfrwt beam="1">  1       21 0.18208171E-01 0.17687763E+03</pdfrwt>
<pdfrwt beam="2">  1       21 0.14166165E+00 0.17687763E+03</pdfrwt>
<totfact> 0.96549818E+03</totfact>
</mgrwt>
</event>
<event>
 4    1  0.1101825E+000  0.1778341E+03  0.7546771E-02  0.1169916E+00
         21   -1    0    0  501  502  0.00000000000E+00  0.00000000000E+00  0.15125416584E+03  0.15125416584E+03  0.00000000000E+00 0. -1.
         21   -1    0    0  502  503 -0.00000000000E+00 -0.00000000000E+00 -0.29666209816E+03  0.29666209816E+03  0.00000000000E+00 0. -1.
          6    1    1    2  501    0 -0.20641981533E+02  0.40185466187E+02 -0.19438735949E+03  0.26346044983E+03  0.17200000000E+03 0. -1.
         -6    1    1    2    0  503  0.20641981533E+02 -0.40185466187E+02  0.48979427176E+02  0.18445581417E+03  0.17200000000E+03 0. -1.
<mgrwt>
<rscale>  2 0.17783409E+03</rscale>
<asrwt>0</asrwt>
<pdfrwt beam="1">  1       21 0.37813542E-01 0.17783409E+03</pdfrwt>
<pdfrwt beam="2">  1       21 0.74165524E-01 0.17783409E+03</pdfrwt>
<totfact> 0.11106988E+04</totfact>
</mgrwt>
</event>
<event>
 4    1  0.1101825E+000  0.1720357E+03  0.7546771E-02  0.1175741E+00
         21   -1    0    0  501  502  0.00000000000E+00  0.00000000000E+00  0.10549933169E+03  0.10549933169E+03  0.00000000000E+00 0.  1.
         21   -1    0    0  502  503 -0.00000000000E+00 -0.00000000000E+00 -0.56985853537E+03  0.56985853537E+03  0.00000000000E+00 0.  1.
          6    1    1    2  501    0 -0.29226438120E+01 -0.19302285043E+01 -0.47278880270E+03  0.50311581131E+03  0.17200000000E+03 0.  1.
         -6    1    1    2    0  503  0.29226438120E+01  0.19302285043E+01  0.84295990152E+01  0.17224205575E+03  0.17200000000E+03 0.  1.
<mgrwt>
<rscale>  2 0.17203566E+03</rscale>
<asrwt>0</asrwt>
<pdfrwt beam="1">  1       21 0.26374834E-01 0.17203566E+03</pdfrwt>
<pdfrwt beam="2">  1       21 0.14246463E+00 0.17203566E+03</pdfrwt>
<totfact> 0.47605907E+03</totfact>
</mgrwt>
</event>
<event>
 4    1  0.1101825E+000  0.2024436E+03  0.7546771E-02  0.1147694E+00
         21   -1    0    0  501  502  0.00000000000E+00  0.00000000000E+00  0.70287896382E+02  0.70287896382E+02  0.00000000000E+00 0.  1.
         21   -1    0    0  502  503 -0.00000000000E+00 -0.00000000000E+00 -0.80840121291E+03  0.80840121291E+03  0.00000000000E+00 0.  1.
          6    1    1    2  501    0  0.65480721136E+02 -0.84330842088E+02 -0.13710712271E+03  0.24450312649E+03  0.17200000000E+03 0.  1.
         -6    1    1    2    0  503 -0.65480721136E+02  0.84330842088E+02 -0.60100619383E+03  0.63418598280E+03  0.17200000000E+03 0.  1.
<mgrwt>
<rscale>  2 0.20244361E+03</rscale>
<asrwt>0</asrwt>
<pdfrwt beam="1">  1       21 0.17571974E-01 0.20244361E+03</pdfrwt>
<pdfrwt beam="2">  1       21 0.20210030E+00 0.20244361E+03</pdfrwt>
<totfact> 0.37853374E+03</totfact>
</mgrwt>
</event>
<event>
 4    1  0.1101825E+000  0.1953282E+03  0.7546771E-02  0.1153742E+00
         21   -1    0    0  501  502  0.00000000000E+00  0.00000000000E+00  0.15190255027E+03  0.15190255027E+03  0.00000000000E+00 0. -1.
         21   -1    0    0  502  503 -0.00000000000E+00 -0.00000000000E+00 -0.31114354485E+03  0.31114354485E+03  0.00000000000E+00 0. -1.
          6    1    1    2  501    0 -0.91972752877E+02 -0.10494515083E+02 -0.18126863987E+03  0.26647972140E+03  0.17200000000E+03 0. -1.
         -6    1    1    2    0  503  0.91972752877E+02  0.10494515083E+02  0.22027645286E+02  0.19656637371E+03  0.17200000000E+03 0. -1.
<mgrwt>
<rscale>  2 0.19532824E+03</rscale>
<asrwt>0</asrwt>
<pdfrwt beam="1">  1       21 0.37975638E-01 0.19532824E+03</pdfrwt>
<pdfrwt beam="2">  1       21 0.77785885E-01 0.19532824E+03</pdfrwt>
<totfact> 0.97799610E+03</totfact>
</mgrwt>
</event>
<event>
 4    1  0.1101825E+000  0.1758855E+03  0.7546771E-02  0.1171846E+00
         21   -1    0    0  501  502  0.00000000000E+00  0.00000000000E+00  0.20726694569E+03  0.20726694569E+03  0.00000000000E+00 0.  1.
         21   -1    0    0  502  503 -0.00000000000E+00 -0.00000000000E+00 -0.29826268713E+03  0.29826268713E+03  0.00000000000E+00 0.  1.
          6    1    1    2  501    0  0.29979314934E+02  0.21282555924E+02  0.13315950229E+03  0.22060634524E+03  0.17200000000E+03 0.  1.
         -6    1    1    2    0  503 -0.29979314934E+02 -0.21282555924E+02 -0.22415524373E+03  0.28492328758E+03  0.17200000000E+03 0.  1.
<mgrwt>
<rscale>  2 0.17588549E+03</rscale>
<asrwt>0</asrwt>
<pdfrwt beam="1">  1       21 0.51816737E-01 0.17588549E+03</pdfrwt>
<pdfrwt beam="2">  1       21 0.74565671E-01 0.17588549E+03</pdfrwt>
<totfact> 0.57711124E+03</totfact>
</mgrwt>
</event>
<event>
 4    1  0.1101825E+000  0.3154630E+03  0.7546771E-02  0.1077756E+00
         21   -1    0    0  503  502  0.00000000000E+00  0.00000000000E+00  0.76236973889E+03  0.76236973889E+03  0.00000000000E+00 0. -1.
         21   -1    0    0  501  503 -0.00000000000E+00 -0.00000000000E+00 -0.21727408080E+03  0.21727408080E+03  0.00000000000E+00 0.  1.
          6    1    1    2  501    0 -0.17773567141E+03 -0.19581357137E+03 -0.36936315533E+02  0.31761803322E+03  0.17200000000E+03 0.  1.
         -6    1    1    2    0  502  0.17773567141E+03  0.19581357137E+03  0.58203197363E+03  0.66202578647E+03  0.17200000000E+03 0. -1.
<mgrwt>
<rscale>  2 0.31546303E+03</rscale>
<asrwt>0</asrwt>
<pdfrwt beam="1">  1       21 0.19059243E+00 0.31546303E+03</pdfrwt>
<pdfrwt beam="2">  1       21 0.54318522E-01 0.31546303E+03</pdfrwt>
<totfact> 0.44106769E+02</totfact>
</mgrwt>
</event>
<event>
 4    1  0.1101825E+000  0.1975558E+03  0.7546771E-02  0.1151818E+00
         21   -1    0    0  503  502  0.00000000000E+00  0.00000000000E+00  0.28046686926E+03  0.28046686926E+03  0.00000000000E+00 0.  1.
         21   -1    0    0  501  503 -0.00000000000E+00 -0.00000000000E+00 -0.28815509821E+03  0.28815509821E+03  0.00000000000E+00 0.  1.
          6    1    1    2  501    0 -0.77050715642E+02 -0.59224098139E+02 -0.20828797653E+03  0.28707523012E+03  0.17200000000E+03 0.  1.
         -6    1    1    2    0  502  0.77050715642E+02  0.59224098139E+02  0.20059974758E+03  0.28154673735E+03  0.17200000000E+03 0.  1.
<mgrwt>
<rscale>  2 0.19755583E+03</rscale>
<asrwt>0</asrwt>
<pdfrwt beam="1">  1       21 0.70116717E-01 0.19755583E+03</pdfrwt>
<pdfrwt beam="2">  1       21 0.72038774E-01 0.19755583E+03</pdfrwt>
<totfact> 0.31971648E+03</totfact>
</mgrwt>
</event>
<event>
 4    1  0.1101825E+000  0.2048556E+03  0.7546771E-02  0.1145706E+00
         21   -1    0    0  501  502  0.00000000000E+00  0.00000000000E+00  0.30997536098E+03  0.30997536098E+03  0.00000000000E+00 0. -1.
         21   -1    0    0  502  503 -0.00000000000E+00 -0.00000000000E+00 -0.16183885914E+03  0.16183885914E+03  0.00000000000E+00 0. -1.
          6    1    1    2  501    0 -0.86997809004E+02  0.69377307739E+02  0.16944643162E+03  0.26585319782E+03  0.17200000000E+03 0. -1.
         -6    1    1    2    0  503  0.86997809004E+02 -0.69377307739E+02 -0.21309929783E+02  0.20596102230E+03  0.17200000000E+03 0. -1.
<mgrwt>
<rscale>  2 0.20485563E+03</rscale>
<asrwt>0</asrwt>
<pdfrwt beam="1">  1       21 0.77493839E-01 0.20485563E+03</pdfrwt>
<pdfrwt beam="2">  1       21 0.40459715E-01 0.20485563E+03</pdfrwt>
<totfact> 0.86221909E+03</totfact>
</mgrwt>
</event>
<event>
 4    1  0.1101825E+000  0.2185610E+03  0.7546771E-02  0.1134960E+00
         21   -1    0    0  501  502  0.00000000000E+00  0.00000000000E+00  0.25935133351E+03  0.25935133351E+03  0.00000000000E+00 0.  1.
         21   -1    0    0  502  503 -0.00000000000E+00 -0.00000000000E+00 -0.46936750125E+03  0.46936750125E+03  0.00000000000E+00 0.  1.
          6    1    1    2  501    0  0.81647548345E+02  0.10732476116E+03  0.17900218547E+03  0.28250789177E+03  0.17200000000E+03 0.  1.
         -6    1    1    2    0  503 -0.81647548345E+02 -0.10732476116E+03 -0.38901835321E+03  0.44621094299E+03  0.17200000000E+03 0.  1.
<mgrwt>
<rscale>  2 0.21856104E+03</rscale>
<asrwt>0</asrwt>
<pdfrwt beam="1">  1       21 0.64837834E-01 0.21856104E+03</pdfrwt>
<pdfrwt beam="2">  1       21 0.11734187E+00 0.21856104E+03</pdfrwt>
<totfact> 0.11931929E+03</totfact>
</mgrwt>
</event>
<event>
 4    1  0.1101825E+000  0.1725288E+03  0.7546771E-02  0.1175236E+00
         21   -1    0    0  501  502  0.00000000000E+00  0.00000000000E+00  0.10365296090E+04  0.10365296090E+04  0.00000000000E+00 0.  1.
         21   -1    0    0  502  503 -0.00000000000E+00 -0.00000000000E+00 -0.87417112986E+02  0.87417112986E+02  0.00000000000E+00 0.  1.
          6    1    1    2  501    0 -0.53711775126E+01  0.12382476260E+02  0.93506343967E+03  0.95084689171E+03  0.17200000000E+03 0.  1.
         -6    1    1    2    0  503  0.53711775126E+01 -0.12382476260E+02  0.14049056371E+02  0.17309983030E+03  0.17200000000E+03 0.  1.
<mgrwt>
<rscale>  2 0.17252877E+03</rscale>
<asrwt>0</asrwt>
<pdfrwt beam="1">  1       21 0.25913236E+00 0.17252877E+03</pdfrwt>
<pdfrwt beam="2">  1       21 0.21854281E-01 0.17252877E+03</pdfrwt>
<totfact> 0.11796397E+03</totfact>
</mgrwt>
</event>
<event>
 4    1  0.1101825E+000  0.1969576E+03  0.7546771E-02  0.1152332E+00
         21   -1    0    0  503  502  0.00000000000E+00  0.00000000000E+00  0.16719347129E+03  0.16719347129E+03  0.00000000000E+00 0. -1.
         21   -1    0    0  501  503 -0.00000000000E+00 -0.00000000000E+00 -0.24541158893E+03  0.24541158893E+03  0.00000000000E+00 0. -1.
          6    1    1    2  501    0  0.95815698863E+02 -0.52583573523E+01 -0.87300105396E+02  0.21543817413E+03  0.17200000000E+03 0. -1.
         -6    1    1    2    0  502 -0.95815698863E+02  0.52583573523E+01  0.90819877585E+01  0.19716688609E+03  0.17200000000E+03 0. -1.
<mgrwt>
<rscale>  2 0.19695761E+03</rscale>
<asrwt>0</asrwt>
<pdfrwt beam="1">  1       21 0.41798368E-01 0.19695761E+03</pdfrwt>
<pdfrwt beam="2">  1       21 0.61352897E-01 0.19695761E+03</pdfrwt>
<totfact> 0.13570583E+04</totfact>
</mgrwt>
</event>
<event>
 4    1  0.1101825E+000  0.1721821E+03  0.7546771E-02  0.1175591E+00
         21   -1    0    0  501  502  0.00000000000E+00  0.00000000000E+00  0.43347747072E+03  0.43347747072E+03  0.00000000000E+00 0. -1.
         21   -1    0    0  502  503 -0.00000000000E+00 -0.00000000000E+00 -0.19524104347E+03  0.19524104347E+03  0.00000000000E+00 0. -1.
          6    1    1    2  501    0 -0.60518478445E+01  0.51053041183E+01  0.37250450549E+03  0.41037336122E+03  0.17200000000E+03 0. -1.
         -6    1    1    2    0  503  0.60518478445E+01 -0.51053041183E+01 -0.13426807823E+03  0.21834515297E+03  0.17200000000E+03 0. -1.
<mgrwt>
<rscale>  2 0.17218214E+03</rscale>
<asrwt>0</asrwt>
<pdfrwt beam="1">  1       21 0.10836937E+00 0.17218214E+03</pdfrwt>
<pdfrwt beam="2">  1       21 0.48810262E-01 0.17218214E+03</pdfrwt>
<totfact> 0.27638162E+03</totfact>
</mgrwt>
</event>
<event>
 4    1  0.1101825E+000  0.2072179E+03  0.7546771E-02  0.1143788E+00
         21   -1    0    0  501  502  0.00000000000E+00  0.00000000000E+00  0.21026884694E+03  0.21026884694E+03  0.00000000000E+00 0. -1.
         21   -1    0    0  502  503 -0.00000000000E+00 -0.00000000000E+00 -0.22956066327E+03  0.22956066327E+03  0.00000000000E+00 0.  1.
          6    1    1    2  501    0 -0.11304680457E+03  0.23993021133E+02 -0.82724532428E+02  0.22312013211E+03  0.17200000000E+03 0.  1.
         -6    1    1    2    0  503  0.11304680457E+03 -0.23993021133E+02  0.63432716091E+02  0.21670937810E+03  0.17200000000E+03 0. -1.
<mgrwt>
<rscale>  2 0.20721787E+03</rscale>
<asrwt>0</asrwt>
<pdfrwt beam="1">  1       21 0.52567212E-01 0.20721787E+03</pdfrwt>
<pdfrwt beam="2">  1       21 0.57390166E-01 0.20721787E+03</pdfrwt>
<totfact> 0.96812758E+03</totfact>
</mgrwt>
</event>
<event>
 4    1  0.1101825E+000  0.1781031E+03  0.7546771E-02  0.1169652E+00
         21   -1    0    0  503  502  0.00000000000E+00  0.00000000000E+00  0.14880267741E+03  0.14880267741E+03  0.00000000000E+00 0. -1.
         21   -1    0    0  501  503 -0.00000000000E+00 -0.00000000000E+00 -0.21331881796E+03  0.21331881796E+03  0.00000000000E+00 0. -1.
          6    1    1    2  501    0 -0.40911280723E+02 -0.21517149752E+02 -0.27525027345E+02  0.18021750124E+03  0.17200000000E+03 0. -1.
         -6    1    1    2    0  502  0.40911280723E+02  0.21517149752E+02 -0.36991113203E+02  0.18190399413E+03  0.17200000000E+03 0. -1.
<mgrwt>
<rscale>  2 0.17810312E+03</rscale>
<asrwt>0</asrwt>
<pdfrwt beam="1">  1       21 0.37200670E-01 0.17810312E+03</pdfrwt>
<pdfrwt beam="2">  1       21 0.53329704E-01 0.17810312E+03</pdfrwt>
<totfact> 0.23395511E+04</totfact>
</mgrwt>
</event>
<event>
 4    1  0.1101825E+000  0.2085537E+03  0.7546771E-02  0.1142716E+00
         21   -1    0    0  503  502  0.00000000000E+00  0.00000000000E+00  0.34848699892E+03  0.34848699892E+03  0.00000000000E+00 0.  1.
         21   -1    0    0  501  503 -0.00000000000E+00 -0.00000000000E+00 -0.14610306623E+03  0.14610306623E+03  0.00000000000E+00 0. -1.
          6    1    1    2  501    0  0.10988074052E+03 -0.42858587765E+02  0.67846592330E+01  0.20866400572E+03  0.17200000000E+03 0. -1.
         -6    1    1    2    0  502 -0.10988074052E+03  0.42858587765E+02  0.19559927346E+03  0.28592605943E+03  0.17200000000E+03 0. -1.
<mgrwt>
<rscale>  2 0.20855368E+03</rscale>
<asrwt>0</asrwt>
<pdfrwt beam="1">  1       21 0.87121748E-01 0.20855368E+03</pdfrwt>
<pdfrwt beam="2">  1       21 0.36525767E-01 0.20855368E+03</pdfrwt>
<totfact> 0.80929609E+03</totfact>
</mgrwt>
</event>
<event>
 4    1  0.1101825E+000  0.2002344E+03  0.7546771E-02  0.1149541E+00
         21   -1    0    0  503  502  0.00000000000E+00  0.00000000000E+00  0.44791138706E+02  0.44791138706E+02  0.00000000000E+00 0. -1.
         21   -1    0    0  501  503 -0.00000000000E+00 -0.00000000000E+00 -0.11693420899E+04  0.11693420899E+04  0.00000000000E+00 0. -1.
          6    1    1    2  501    0 -0.94550191471E+02  0.39624159221E+02 -0.85625038115E+03  0.87935119715E+03  0.17200000000E+03 0. -1.
         -6    1    1    2    0  502  0.94550191471E+02 -0.39624159221E+02 -0.26830057003E+03  0.33478203144E+03  0.17200000000E+03 0. -1.
<mgrwt>
<rscale>  2 0.20023439E+03</rscale>
<asrwt>0</asrwt>
<pdfrwt beam="1">  1       21 0.11197784E-01 0.20023439E+03</pdfrwt>
<pdfrwt beam="2">  1       21 0.29233553E+00 0.20023439E+03</pdfrwt>
<totfact> 0.24858938E+03</totfact>
</mgrwt>
</event>
<event>
 4    1  0.1101825E+000  0.3040941E+03  0.7546771E-02  0.1083212E+00
         21   -1    0    0  503  502  0.00000000000E+00  0.00000000000E+00  0.12273461081E+04  0.12273461081E+04  0.00000000000E+00 0.  1.
         21   -1    0    0  501  503 -0.00000000000E+00 -0.00000000000E+00 -0.92536827764E+02  0.92536827764E+02  0.00000000000E+00 0. -1.
          6    1    1    2  501    0 -0.19231055125E+03 -0.16095294758E+03  0.85186477926E+03  0.90451467738E+03  0.17200000000E+03 0.  1.
         -6    1    1    2    0  502  0.19231055125E+03  0.16095294758E+03  0.28294450104E+03  0.41536825845E+03  0.17200000000E+03 0. -1.
<mgrwt>
<rscale>  2 0.30409406E+03</rscale>
<asrwt>0</asrwt>
<pdfrwt beam="1">  1       21 0.30683648E+00 0.30409406E+03</pdfrwt>
<pdfrwt beam="2">  1       21 0.23134211E-01 0.30409406E+03</pdfrwt>
<totfact> 0.48206955E+02</totfact>
</mgrwt>
</event>
<event>
 4    1  0.1101825E+000  0.1834778E+03  0.7546771E-02  0.1164479E+00
         21   -1    0    0  503  502  0.00000000000E+00  0.00000000000E+00  0.90952323694E+03  0.90952323694E+03  0.00000000000E+00 0.  1.
         21   -1    0    0  501  503 -0.00000000000E+00 -0.00000000000E+00 -0.45369323366E+02  0.45369323366E+02  0.00000000000E+00 0. -1.
          6    1    1    2  501    0 -0.61157237269E+02 -0.18436480481E+02  0.22717172783E+03  0.29201216654E+03  0.17200000000E+03 0. -1.
         -6    1    1    2    0  502  0.61157237269E+02  0.18436480481E+02  0.63698218574E+03  0.66288039376E+03  0.17200000000E+03 0.  1.
<mgrwt>
<rscale>  2 0.18347782E+03</rscale>
<asrwt>0</asrwt>
<pdfrwt beam="1">  1       21 0.22738075E+00 0.18347782E+03</pdfrwt>
<pdfrwt beam="2">  1       21 0.11342334E-01 0.18347782E+03</pdfrwt>
<totfact> 0.59393496E+03</totfact>
</mgrwt>
</event>
<event>
 4    1  0.1101825E+000  0.1723097E+03  0.7546771E-02  0.1175460E+00
         21   -1    0    0  503  502  0.00000000000E+00  0.00000000000E+00  0.14751010296E+03  0.14751010296E+03  0.00000000000E+00 0.  1.
         21   -1    0    0  501  503 -0.00000000000E+00 -0.00000000000E+00 -0.21249888303E+03  0.21249888303E+03  0.00000000000E+00 0.  1.
          6    1    1    2  501    0  0.72294214945E+01  0.73731912717E+01  0.88681053758E+01  0.17253774015E+03  0.17200000000E+03 0. -1.
         -6    1    1    2    0  502 -0.72294214945E+01 -0.73731912717E+01 -0.73856885448E+02  0.18747124583E+03  0.17200000000E+03 0. -1.
<mgrwt>
<rscale>  2 0.17230969E+03</rscale>
<asrwt>0</asrwt>
<pdfrwt beam="1">  1       21 0.36877526E-01 0.17230969E+03</pdfrwt>
<pdfrwt beam="2">  1       21 0.53124721E-01 0.17230969E+03</pdfrwt>
<totfact> 0.24083239E+04</totfact>
</mgrwt>
</event>
<event>
 4    1  0.1101825E+000  0.1866820E+03  0.7546771E-02  0.1161488E+00
         21   -1    0    0  501  502  0.00000000000E+00  0.00000000000E+00  0.40785167062E+02  0.40785167062E+02  0.00000000000E+00 0. -1.
         21   -1    0    0  502  503 -0.00000000000E+00 -0.00000000000E+00 -0.10113792378E+04  0.10113792378E+04  0.00000000000E+00 0.  1.
          6    1    1    2  501    0 -0.52446563026E+02  0.50155175831E+02 -0.27809000068E+03  0.33493914688E+03  0.17200000000E+03 0.  1.
         -6    1    1    2    0  503  0.52446563026E+02 -0.50155175831E+02 -0.69250407003E+03  0.71722525796E+03  0.17200000000E+03 0. -1.
<mgrwt>
<rscale>  2 0.18668204E+03</rscale>
<asrwt>0</asrwt>
<pdfrwt beam="1">  1       21 0.10196292E-01 0.18668204E+03</pdfrwt>
<pdfrwt beam="2">  1       21 0.25284480E+00 0.18668204E+03</pdfrwt>
<totfact> 0.50483849E+03</totfact>
</mgrwt>
</event>
<event>
 4    1  0.1101825E+000  0.1949896E+03  0.7546771E-02  0.1154037E+00
         21   -1    0    0  501  502  0.00000000000E+00  0.00000000000E+00  0.72792623646E+03  0.72792623646E+03  0.00000000000E+00 0. -1.
         21   -1    0    0  502  503 -0.00000000000E+00 -0.00000000000E+00 -0.52721471267E+02  0.52721471267E+02  0.00000000000E+00 0. -1.
          6    1    1    2  501    0 -0.66887387385E+02 -0.62952440593E+02  0.37521750332E+03  0.42285825895E+03  0.17200000000E+03 0.  1.
         -6    1    1    2    0  503  0.66887387385E+02  0.62952440593E+02  0.29998726188E+03  0.35778944878E+03  0.17200000000E+03 0.  1.
<mgrwt>
<rscale>  2 0.19498957E+03</rscale>
<asrwt>0</asrwt>
<pdfrwt beam="1">  1       21 0.18198153E+00 0.19498957E+03</pdfrwt>
<pdfrwt beam="2">  1       21 0.13180370E-01 0.19498957E+03</pdfrwt>
<totfact> 0.87307979E+03</totfact>
</mgrwt>
</event>
<event>
 4    1  0.1101825E+000  0.2312625E+03  0.7546771E-02  0.1125754E+00
         21   -1    0    0  503  502  0.00000000000E+00  0.00000000000E+00  0.73296579735E+02  0.73296579735E+02  0.00000000000E+00 0. -1.
         21   -1    0    0  501  503 -0.00000000000E+00 -0.00000000000E+00 -0.10636672589E+04  0.10636672589E+04  0.00000000000E+00 0. -1.
          6    1    1    2  501    0 -0.14389154736E+03 -0.56511596360E+02 -0.81374076914E+03  0.84596476126E+03  0.17200000000E+03 0. -1.
         -6    1    1    2    0  502  0.14389154736E+03  0.56511596360E+02 -0.17662991004E+03  0.29099907740E+03  0.17200000000E+03 0. -1.
<mgrwt>
<rscale>  2 0.23126249E+03</rscale>
<asrwt>0</asrwt>
<pdfrwt beam="1">  1       21 0.18324145E-01 0.23126249E+03</pdfrwt>
<pdfrwt beam="2">  1       21 0.26591681E+00 0.23126249E+03</pdfrwt>
<totfact> 0.13954303E+03</totfact>
</mgrwt>
</event>
<event>
 4    1  0.1101825E+000  0.2424566E+03  0.7546771E-02  0.1118167E+00
         21   -1    0    0  501  502  0.00000000000E+00  0.00000000000E+00  0.10207071243E+03  0.10207071243E+03  0.00000000000E+00 0.  1.
         21   -1    0    0  502  503 -0.00000000000E+00 -0.00000000000E+00 -0.58752500088E+03  0.58752500088E+03  0.00000000000E+00 0.  1.
          6    1    1    2  501    0 -0.16792923080E+03 -0.31638229164E+02 -0.19428127811E+03  0.31069344880E+03  0.17200000000E+03 0.  1.
         -6    1    1    2    0  503  0.16792923080E+03  0.31638229164E+02 -0.29117301034E+03  0.37890226451E+03  0.17200000000E+03 0.  1.
<mgrwt>
<rscale>  2 0.24245660E+03</rscale>
<asrwt>0</asrwt>
<pdfrwt beam="1">  1       21 0.25517679E-01 0.24245660E+03</pdfrwt>
<pdfrwt beam="2">  1       21 0.14688125E+00 0.24245660E+03</pdfrwt>
<totfact> 0.44249853E+03</totfact>
</mgrwt>
</event>
<event>
 4    1  0.1101825E+000  0.2231450E+03  0.7546771E-02  0.1131560E+00
         21   -1    0    0  501  502  0.00000000000E+00  0.00000000000E+00  0.54395849985E+02  0.54395849985E+02  0.00000000000E+00 0. -1.
         21   -1    0    0  502  503 -0.00000000000E+00 -0.00000000000E+00 -0.98364788738E+03  0.98364788738E+03  0.00000000000E+00 0. -1.
          6    1    1    2  501    0  0.70669194527E+01  0.14198500301E+03 -0.32790769355E+03  0.39663224518E+03  0.17200000000E+03 0. -1.
         -6    1    1    2    0  503 -0.70669194527E+01 -0.14198500301E+03 -0.60134434384E+03  0.64141149218E+03  0.17200000000E+03 0. -1.
<mgrwt>
<rscale>  2 0.22314498E+03</rscale>
<asrwt>0</asrwt>
<pdfrwt beam="1">  1       21 0.13598962E-01 0.22314498E+03</pdfrwt>
<pdfrwt beam="2">  1       21 0.24591198E+00 0.22314498E+03</pdfrwt>
<totfact> 0.31928191E+03</totfact>
</mgrwt>
</event>
<event>
 4    1  0.1101825E+000  0.1882074E+03  0.7546771E-02  0.1160088E+00
         21   -1    0    0  503  502  0.00000000000E+00  0.00000000000E+00  0.62758225393E+03  0.62758225393E+03  0.00000000000E+00 0. -1.
         21   -1    0    0  501  503 -0.00000000000E+00 -0.00000000000E+00 -0.76127043132E+02  0.76127043132E+02  0.00000000000E+00 0.  1.
          6    1    1    2  501    0  0.43858227248E+01  0.76280913390E+02  0.45464877284E+03  0.49206454844E+03  0.17200000000E+03 0. -1.
         -6    1    1    2    0  502 -0.43858227248E+01 -0.76280913390E+02  0.96806437960E+02  0.21164474862E+03  0.17200000000E+03 0.  1.
<mgrwt>
<rscale>  2 0.18820737E+03</rscale>
<asrwt>0</asrwt>
<pdfrwt beam="1">  1       21 0.15689555E+00 0.18820737E+03</pdfrwt>
<pdfrwt beam="2">  1       21 0.19031763E-01 0.18820737E+03</pdfrwt>
<totfact> 0.67421059E+03</totfact>
</mgrwt>
</event>
<event>
 4    1  0.1101825E+000  0.1804767E+03  0.7546771E-02  0.1167343E+00
         21   -1    0    0  503  502  0.00000000000E+00  0.00000000000E+00  0.47822827383E+03  0.47822827383E+03  0.00000000000E+00 0.  1.
         21   -1    0    0  501  503 -0.00000000000E+00 -0.00000000000E+00 -0.71276341572E+02  0.71276341572E+02  0.00000000000E+00 0.  1.
          6    1    1    2  501    0 -0.32867378089E+02 -0.43675733090E+02  0.14556115839E+03  0.23186178002E+03  0.17200000000E+03 0.  1.
         -6    1    1    2    0  502  0.32867378089E+02  0.43675733090E+02  0.26139077387E+03  0.31764283538E+03  0.17200000000E+03 0.  1.
<mgrwt>
<rscale>  2 0.18047669E+03</rscale>
<asrwt>0</asrwt>
<pdfrwt beam="1">  1       21 0.11955706E+00 0.18047669E+03</pdfrwt>
<pdfrwt beam="2">  1       21 0.17819087E-01 0.18047669E+03</pdfrwt>
<totfact> 0.15370461E+04</totfact>
</mgrwt>
</event>
<event>
 4    1  0.1101825E+000  0.1868867E+03  0.7546771E-02  0.1161300E+00
         21   -1    0    0  501  502  0.00000000000E+00  0.00000000000E+00  0.24947223936E+03  0.24947223936E+03  0.00000000000E+00 0. -1.
         21   -1    0    0  502  503 -0.00000000000E+00 -0.00000000000E+00 -0.24495669528E+03  0.24495669528E+03  0.00000000000E+00 0. -1.
          6    1    1    2  501    0  0.48113889779E+02 -0.55024347701E+02  0.16407697420E+03  0.24869233742E+03  0.17200000000E+03 0. -1.
         -6    1    1    2    0  503 -0.48113889779E+02  0.55024347701E+02 -0.15956143012E+03  0.24573659722E+03  0.17200000000E+03 0. -1.
<mgrwt>
<rscale>  2 0.18688666E+03</rscale>
<asrwt>0</asrwt>
<pdfrwt beam="1">  1       21 0.62368060E-01 0.18688666E+03</pdfrwt>
<pdfrwt beam="2">  1       21 0.61239174E-01 0.18688666E+03</pdfrwt>
<totfact> 0.59373923E+03</totfact>
</mgrwt>
</event>
<event>
 4    1  0.1101825E+000  0.1758582E+03  0.7546771E-02  0.1171873E+00
         21   -1    0    0  501  502  0.00000000000E+00  0.00000000000E+00  0.15455898088E+03  0.15455898088E+03  0.00000000000E+00 0. -1.
         21   -1    0    0  502  503 -0.00000000000E+00 -0.00000000000E+00 -0.21184506682E+03  0.21184506682E+03  0.00000000000E+00 0. -1.
          6    1    1    2  501    0  0.33751515388E+02 -0.14245385210E+02  0.14507583603E+02  0.17645556317E+03  0.17200000000E+03 0. -1.
         -6    1    1    2    0  503 -0.33751515388E+02  0.14245385210E+02 -0.71793669542E+02  0.18994848453E+03  0.17200000000E+03 0. -1.
<mgrwt>
<rscale>  2 0.17585817E+03</rscale>
<asrwt>0</asrwt>
<pdfrwt beam="1">  1       21 0.38639746E-01 0.17585817E+03</pdfrwt>
<pdfrwt beam="2">  1       21 0.52961266E-01 0.17585817E+03</pdfrwt>
<totfact> 0.22032559E+04</totfact>
</mgrwt>
</event>
<event>
 4    1  0.1101825E+000  0.1731206E+03  0.7546771E-02  0.1174632E+00
         21   -1    0    0  503  502  0.00000000000E+00  0.00000000000E+00  0.48908339486E+03  0.48908339486E+03  0.00000000000E+00 0.  1.
         21   -1    0    0  501  503 -0.00000000000E+00 -0.00000000000E+00 -0.85212195368E+02  0.85212195368E+02  0.00000000000E+00 0.  1.
          6    1    1    2  501    0 -0.12109731142E+02  0.15495592819E+02  0.49757935356E+02  0.18012942879E+03  0.17200000000E+03 0.  1.
         -6    1    1    2    0  502  0.12109731142E+02 -0.15495592819E+02  0.35411326413E+03  0.39416616143E+03  0.17200000000E+03 0.  1.
<mgrwt>
<rscale>  2 0.17312065E+03</rscale>
<asrwt>0</asrwt>
<pdfrwt beam="1">  1       21 0.12227084E+00 0.17312065E+03</pdfrwt>
<pdfrwt beam="2">  1       21 0.21303050E-01 0.17312065E+03</pdfrwt>
<totfact> 0.10487508E+04</totfact>
</mgrwt>
</event>
<event>
 4    1  0.1101825E+000  0.2500175E+03  0.7546771E-02  0.1113294E+00
         21   -1    0    0  503  502  0.00000000000E+00  0.00000000000E+00  0.11050761767E+04  0.11050761767E+04  0.00000000000E+00 0.  1.
         21   -1    0    0  501  503 -0.00000000000E+00 -0.00000000000E+00 -0.60170357486E+02  0.60170357486E+02  0.00000000000E+00 0. -1.
          6    1    1    2  501    0  0.16428852440E+03 -0.77032628987E+02  0.37983809818E+03  0.45473698553E+03  0.17200000000E+03 0.  1.
         -6    1    1    2    0  502 -0.16428852440E+03  0.77032628987E+02  0.66506772104E+03  0.71050954866E+03  0.17200000000E+03 0.  1.
<mgrwt>
<rscale>  2 0.25001749E+03</rscale>
<asrwt>0</asrwt>
<pdfrwt beam="1">  1       21 0.27626898E+00 0.25001749E+03</pdfrwt>
<pdfrwt beam="2">  1       21 0.15042593E-01 0.25001749E+03</pdfrwt>
<totfact> 0.17148735E+03</totfact>
</mgrwt>
</event>
<event>
 4    1  0.1101825E+000  0.1960792E+03  0.7546771E-02  0.1153090E+00
         21   -1    0    0  501  502  0.00000000000E+00  0.00000000000E+00  0.66887655507E+02  0.66887655507E+02  0.00000000000E+00 0. -1.
         21   -1    0    0  502  503 -0.00000000000E+00 -0.00000000000E+00 -0.75803938862E+03  0.75803938862E+03  0.00000000000E+00 0. -1.
          6    1    1    2  501    0  0.86382513547E+02  0.37431660836E+02 -0.14278503968E+03  0.24255851961E+03  0.17200000000E+03 0. -1.
         -6    1    1    2    0  503 -0.86382513547E+02 -0.37431660836E+02 -0.54836669343E+03  0.58236852451E+03  0.17200000000E+03 0. -1.
<mgrwt>
<rscale>  2 0.19607924E+03</rscale>
<asrwt>0</asrwt>
<pdfrwt beam="1">  1       21 0.16721914E-01 0.19607924E+03</pdfrwt>
<pdfrwt beam="2">  1       21 0.18950984E+00 0.19607924E+03</pdfrwt>
<totfact> 0.50374510E+03</totfact>
</mgrwt>
</event>
<event>
 4    1  0.1101825E+000  0.1915237E+03  0.7546771E-02  0.1157094E+00
         21   -1    0    0  501  502  0.00000000000E+00  0.00000000000E+00  0.51701839597E+03  0.51701839597E+03  0.00000000000E+00 0. -1.
         21   -1    0    0  502  503 -0.00000000000E+00 -0.00000000000E+00 -0.83501058487E+02  0.83501058487E+02  0.00000000000E+00 0.  1.
          6    1    1    2  501    0 -0.32141546601E+02  0.77873198548E+02  0.33317916720E+03  0.38430413935E+03  0.17200000000E+03 0. -1.
         -6    1    1    2    0  503  0.32141546601E+02 -0.77873198548E+02  0.10033817029E+03  0.21621531511E+03  0.17200000000E+03 0.  1.
<mgrwt>
<rscale>  2 0.19152366E+03</rscale>
<asrwt>0</asrwt>
<pdfrwt beam="1">  1       21 0.12925459E+00 0.19152366E+03</pdfrwt>
<pdfrwt beam="2">  1       21 0.20875266E-01 0.19152366E+03</pdfrwt>
<totfact> 0.93517044E+03</totfact>
</mgrwt>
</event>
<event>
 4    1  0.1101825E+000  0.2126618E+03  0.7546771E-02  0.1139475E+00
         21   -1    0    0  501  502  0.00000000000E+00  0.00000000000E+00  0.26900200061E+03  0.26900200061E+03  0.00000000000E+00 0. -1.
         21   -1    0    0  502  503 -0.00000000000E+00 -0.00000000000E+00 -0.16848174081E+03  0.16848174081E+03  0.00000000000E+00 0. -1.
          6    1    1    2  501    0 -0.10853183690E+03 -0.62144175754E+02  0.40147456229E+02  0.21641829045E+03  0.17200000000E+03 0. -1.
         -6    1    1    2    0  503  0.10853183690E+03  0.62144175754E+02  0.60372803577E+02  0.22106545097E+03  0.17200000000E+03 0. -1.
<mgrwt>
<rscale>  2 0.21266184E+03</rscale>
<asrwt>0</asrwt>
<pdfrwt beam="1">  1       21 0.67250500E-01 0.21266184E+03</pdfrwt>
<pdfrwt beam="2">  1       21 0.42120435E-01 0.21266184E+03</pdfrwt>
<totfact> 0.10830398E+04</totfact>
</mgrwt>
</event>
<event>
 4    1  0.1101825E+000  0.1888225E+03  0.7546771E-02  0.1159528E+00
         21   -1    0    0  503  502  0.00000000000E+00  0.00000000000E+00  0.17993423078E+03  0.17993423078E+03  0.00000000000E+00 0. -1.
         21   -1    0    0  501  503 -0.00000000000E+00 -0.00000000000E+00 -0.20813960686E+03  0.20813960686E+03  0.00000000000E+00 0.  1.
          6    1    1    2  501    0  0.26522204160E+02 -0.73256354222E+02 -0.56612275543E+02  0.19712653421E+03  0.17200000000E+03 0. -1.
         -6    1    1    2    0  502 -0.26522204160E+02  0.73256354222E+02  0.28406899462E+02  0.19094730342E+03  0.17200000000E+03 0. -1.
<mgrwt>
<rscale>  2 0.18882246E+03</rscale>
<asrwt>0</asrwt>
<pdfrwt beam="1">  1       21 0.44983558E-01 0.18882246E+03</pdfrwt>
<pdfrwt beam="2">  1       21 0.52034901E-01 0.18882246E+03</pdfrwt>
<totfact> 0.16662946E+04</totfact>
</mgrwt>
</event>
<event>
 4    1  0.1101825E+000  0.1966744E+03  0.7546771E-02  0.1152576E+00
         21   -1    0    0  501  502  0.00000000000E+00  0.00000000000E+00  0.12567909516E+03  0.12567909516E+03  0.00000000000E+00 0. -1.
         21   -1    0    0  502  503 -0.00000000000E+00 -0.00000000000E+00 -0.31759251448E+03  0.31759251448E+03  0.00000000000E+00 0.  1.
          6    1    1    2  501    0 -0.32833049718E+01  0.95320773204E+02 -0.56988091730E+02  0.20476443171E+03  0.17200000000E+03 0. -1.
         -6    1    1    2    0  503  0.32833049718E+01 -0.95320773204E+02 -0.13492532759E+03  0.23850717792E+03  0.17200000000E+03 0.  1.
<mgrwt>
<rscale>  2 0.19667443E+03</rscale>
<asrwt>0</asrwt>
<pdfrwt beam="1">  1       21 0.31419774E-01 0.19667443E+03</pdfrwt>
<pdfrwt beam="2">  1       21 0.79398128E-01 0.19667443E+03</pdfrwt>
<totfact> 0.13584364E+04</totfact>
</mgrwt>
</event>
<event>
 4    1  0.1101825E+000  0.1745249E+03  0.7546771E-02  0.1173210E+00
         21   -1    0    0  503  502  0.00000000000E+00  0.00000000000E+00  0.72039587551E+02  0.72039587551E+02  0.00000000000E+00 0. -1.
         21   -1    0    0  501  503 -0.00000000000E+00 -0.00000000000E+00 -0.42649778312E+03  0.42649778312E+03  0.00000000000E+00 0. -1.
          6    1    1    2  501    0  0.94470739398E+01 -0.28029940375E+02 -0.20041376711E+03  0.26575289803E+03  0.17200000000E+03 0. -1.
         -6    1    1    2    0  502 -0.94470739398E+01  0.28029940375E+02 -0.15404442845E+03  0.23278447264E+03  0.17200000000E+03 0. -1.
<mgrwt>
<rscale>  2 0.17452485E+03</rscale>
<asrwt>0</asrwt>
<pdfrwt beam="1">  1       21 0.18009897E-01 0.17452485E+03</pdfrwt>
<pdfrwt beam="2">  1       21 0.10662445E+00 0.17452485E+03</pdfrwt>
<totfact> 0.19976923E+04</totfact>
</mgrwt>
</event>
<event>
 4    1  0.1101825E+000  0.1739555E+03  0.7546771E-02  0.1173785E+00
         21   -1    0    0  503  502  0.00000000000E+00  0.00000000000E+00  0.12763774939E+03  0.12763774939E+03  0.00000000000E+00 0.  1.
         21   -1    0    0  501  503 -0.00000000000E+00 -0.00000000000E+00 -0.35642527813E+03  0.35642527813E+03  0.00000000000E+00 0.  1.
          6    1    1    2  501    0  0.25725778705E+02  0.38321881432E+01 -0.25444541768E+03  0.30822552123E+03  0.17200000000E+03 0.  1.
         -6    1    1    2    0  502 -0.25725778705E+02 -0.38321881432E+01  0.25657888936E+02  0.17583750630E+03  0.17200000000E+03 0.  1.
<mgrwt>
<rscale>  2 0.17395546E+03</rscale>
<asrwt>0</asrwt>
<pdfrwt beam="1">  1       21 0.31909438E-01 0.17395546E+03</pdfrwt>
<pdfrwt beam="2">  1       21 0.89106319E-01 0.17395546E+03</pdfrwt>
<totfact> 0.10289811E+04</totfact>
</mgrwt>
</event>
<event>
 4    1  0.1101825E+000  0.1823424E+03  0.7546771E-02  0.1165555E+00
         21   -1    0    0  503  502  0.00000000000E+00  0.00000000000E+00  0.38836889773E+03  0.38836889773E+03  0.00000000000E+00 0. -1.
         21   -1    0    0  501  503 -0.00000000000E+00 -0.00000000000E+00 -0.91965855779E+02  0.91965855779E+02  0.00000000000E+00 0. -1.
          6    1    1    2  501    0  0.57491810790E+02 -0.18959012998E+02  0.21133278902E+03  0.27912416627E+03  0.17200000000E+03 0. -1.
         -6    1    1    2    0  502 -0.57491810790E+02  0.18959012998E+02  0.85070252925E+02  0.20121058723E+03  0.17200000000E+03 0. -1.
<mgrwt>
<rscale>  2 0.18234240E+03</rscale>
<asrwt>0</asrwt>
<pdfrwt beam="1">  1       21 0.97092220E-01 0.18234240E+03</pdfrwt>
<pdfrwt beam="2">  1       21 0.22991465E-01 0.18234240E+03</pdfrwt>
<totfact> 0.15737323E+04</totfact>
</mgrwt>
</event>
<event>
 4    1  0.1101825E+000  0.2012506E+03  0.7546771E-02  0.1148688E+00
         21   -1    0    0  501  502  0.00000000000E+00  0.00000000000E+00  0.31330628908E+03  0.31330628908E+03  0.00000000000E+00 0. -1.
         21   -1    0    0  502  503 -0.00000000000E+00 -0.00000000000E+00 -0.14858954485E+03  0.14858954485E+03  0.00000000000E+00 0. -1.
          6    1    1    2  501    0  0.57188836800E+02 -0.87448489826E+02  0.16562928903E+03  0.26064317143E+03  0.17200000000E+03 0. -1.
         -6    1    1    2    0  503 -0.57188836800E+02  0.87448489826E+02 -0.91254479472E+00  0.20125266250E+03  0.17200000000E+03 0. -1.
<mgrwt>
<rscale>  2 0.20125059E+03</rscale>
<asrwt>0</asrwt>
<pdfrwt beam="1">  1       21 0.78326571E-01 0.20125059E+03</pdfrwt>
<pdfrwt beam="2">  1       21 0.37147387E-01 0.20125059E+03</pdfrwt>
<totfact> 0.10021945E+04</totfact>
</mgrwt>
</event>
<event>
 4    1  0.1101825E+000  0.1889447E+03  0.7546771E-02  0.1159417E+00
         21   -1    0    0  503  502  0.00000000000E+00  0.00000000000E+00  0.37006472514E+03  0.37006472514E+03  0.00000000000E+00 0.  1.
         21   -1    0    0  501  503 -0.00000000000E+00 -0.00000000000E+00 -0.14633433715E+03  0.14633433715E+03  0.00000000000E+00 0. -1.
          6    1    1    2  501    0  0.71278051132E+02  0.32179963674E+02 -0.38857186658E+02  0.19289891547E+03  0.17200000000E+03 0. -1.
         -6    1    1    2    0  502 -0.71278051132E+02 -0.32179963674E+02  0.26258757464E+03  0.32350014682E+03  0.17200000000E+03 0.  1.
<mgrwt>
<rscale>  2 0.18894473E+03</rscale>
<asrwt>0</asrwt>
<pdfrwt beam="1">  1       21 0.92516180E-01 0.18894473E+03</pdfrwt>
<pdfrwt beam="2">  1       21 0.36583585E-01 0.18894473E+03</pdfrwt>
<totfact> 0.71207954E+03</totfact>
</mgrwt>
</event>
<event>
 4    1  0.1101825E+000  0.2829795E+03  0.7546771E-02  0.1094073E+00
         21   -1    0    0  503  502  0.00000000000E+00  0.00000000000E+00  0.12325758503E+04  0.12325758503E+04  0.00000000000E+00 0. -1.
         21   -1    0    0  501  503 -0.00000000000E+00 -0.00000000000E+00 -0.67786655530E+02  0.67786655530E+02  0.00000000000E+00 0.  1.
          6    1    1    2  501    0 -0.72855023613E+02 -0.21256893887E+03  0.44980191244E+03  0.53141242804E+03  0.17200000000E+03 0. -1.
         -6    1    1    2    0  502  0.72855023613E+02  0.21256893887E+03  0.71498728230E+03  0.76895007776E+03  0.17200000000E+03 0.  1.
<mgrwt>
<rscale>  2 0.28297952E+03</rscale>
<asrwt>0</asrwt>
<pdfrwt beam="1">  1       21 0.30814389E+00 0.28297952E+03</pdfrwt>
<pdfrwt beam="2">  1       21 0.16946668E-01 0.28297952E+03</pdfrwt>
<totfact> 0.86762030E+02</totfact>
</mgrwt>
</event>
<event>
 4    1  0.1101825E+000  0.1884457E+03  0.7546771E-02  0.1159871E+00
         21   -1    0    0  501  502  0.00000000000E+00  0.00000000000E+00  0.24801901344E+03  0.24801901344E+03  0.00000000000E+00 0.  1.
         21   -1    0    0  502  503 -0.00000000000E+00 -0.00000000000E+00 -0.14325267702E+03  0.14325267702E+03  0.00000000000E+00 0.  1.
          6    1    1    2  501    0  0.27939176166E+02  0.71743877491E+02  0.48028187660E+02  0.19446976200E+03  0.17200000000E+03 0.  1.
         -6    1    1    2    0  503 -0.27939176166E+02 -0.71743877491E+02  0.56738148764E+02  0.19680192846E+03  0.17200000000E+03 0.  1.
<mgrwt>
<rscale>  2 0.18844570E+03</rscale>
<asrwt>0</asrwt>
<pdfrwt beam="1">  1       21 0.62004753E-01 0.18844570E+03</pdfrwt>
<pdfrwt beam="2">  1       21 0.35813170E-01 0.18844570E+03</pdfrwt>
<totfact> 0.18196730E+04</totfact>
</mgrwt>
</event>
<event>
 4    1  0.1101825E+000  0.2032170E+03  0.7546771E-02  0.1147053E+00
         21   -1    0    0  501  502  0.00000000000E+00  0.00000000000E+00  0.83849453488E+03  0.83849453488E+03  0.00000000000E+00 0.  1.
         21   -1    0    0  502  503 -0.00000000000E+00 -0.00000000000E+00 -0.50877051520E+02  0.50877051520E+02  0.00000000000E+00 0.  1.
          6    1    1    2  501    0  0.63048682176E+02  0.87965989327E+02  0.47329400183E+03  0.51507704644E+03  0.17200000000E+03 0.  1.
         -6    1    1    2    0  503 -0.63048682176E+02 -0.87965989327E+02  0.31432348153E+03  0.37429453996E+03  0.17200000000E+03 0.  1.
<mgrwt>
<rscale>  2 0.20321701E+03</rscale>
<asrwt>0</asrwt>
<pdfrwt beam="1">  1       21 0.20962359E+00 0.20321701E+03</pdfrwt>
<pdfrwt beam="2">  1       21 0.12719266E-01 0.20321701E+03</pdfrwt>
<totfact> 0.61089394E+03</totfact>
</mgrwt>
</event>
<event>
 4    1  0.1101825E+000  0.1807416E+03  0.7546771E-02  0.1167087E+00
         21   -1    0    0  503  502  0.00000000000E+00  0.00000000000E+00  0.13452150039E+04  0.13452150039E+04  0.00000000000E+00 0.  1.
         21   -1    0    0  501  503 -0.00000000000E+00 -0.00000000000E+00 -0.11026566416E+03  0.11026566416E+03  0.00000000000E+00 0.  1.
          6    1    1    2  501    0  0.46664124147E+02 -0.30099309425E+02 -0.25151847637E+02  0.18248321663E+03  0.17200000000E+03 0.  1.
         -6    1    1    2    0  502 -0.46664124147E+02  0.30099309425E+02  0.12601011874E+04  0.12729974514E+04  0.17200000000E+03 0.  1.
<mgrwt>
<rscale>  2 0.18074155E+03</rscale>
<asrwt>0</asrwt>
<pdfrwt beam="1">  1       21 0.33630370E+00 0.18074155E+03</pdfrwt>
<pdfrwt beam="2">  1       21 0.27566420E-01 0.18074155E+03</pdfrwt>
<totfact> 0.26951765E+02</totfact>
</mgrwt>
</event>
<event>
 4    1  0.1101825E+000  0.1734839E+03  0.7546771E-02  0.1174263E+00
         21   -1    0    0  501  502  0.00000000000E+00  0.00000000000E+00  0.55491909192E+03  0.55491909192E+03  0.00000000000E+00 0. -1.
         21   -1    0    0  502  503 -0.00000000000E+00 -0.00000000000E+00 -0.54319974499E+02  0.54319974499E+02  0.00000000000E+00 0. -1.
          6    1    1    2  501    0 -0.20088005747E+02 -0.10446682446E+02  0.23833136515E+03  0.29478551654E+03  0.17200000000E+03 0. -1.
         -6    1    1    2    0  503  0.20088005747E+02  0.10446682446E+02  0.26226775228E+03  0.31445354988E+03  0.17200000000E+03 0. -1.
<mgrwt>
<rscale>  2 0.17348389E+03</rscale>
<asrwt>0</asrwt>
<pdfrwt beam="1">  1       21 0.13872976E+00 0.17348389E+03</pdfrwt>
<pdfrwt beam="2">  1       21 0.13579995E-01 0.17348389E+03</pdfrwt>
<totfact> 0.17440861E+04</totfact>
</mgrwt>
</event>
<event>
 4    1  0.1101825E+000  0.1813515E+03  0.7546771E-02  0.1166501E+00
         21   -1    0    0  501  502  0.00000000000E+00  0.00000000000E+00  0.39053973908E+03  0.39053973908E+03  0.00000000000E+00 0.  1.
         21   -1    0    0  502  503 -0.00000000000E+00 -0.00000000000E+00 -0.10266648470E+03  0.10266648470E+03  0.00000000000E+00 0.  1.
          6    1    1    2  501    0 -0.17050627586E+02  0.54896780325E+02  0.24848750883E+03  0.30762708339E+03  0.17200000000E+03 0. -1.
         -6    1    1    2    0  503  0.17050627586E+02 -0.54896780325E+02  0.39385745545E+02  0.18557914038E+03  0.17200000000E+03 0. -1.
<mgrwt>
<rscale>  2 0.18135154E+03</rscale>
<asrwt>0</asrwt>
<pdfrwt beam="1">  1       21 0.97634931E-01 0.18135154E+03</pdfrwt>
<pdfrwt beam="2">  1       21 0.25666622E-01 0.18135154E+03</pdfrwt>
<totfact> 0.12608657E+04</totfact>
</mgrwt>
</event>
<event>
 4    1  0.1101825E+000  0.2593326E+03  0.7546771E-02  0.1107545E+00
         21   -1    0    0  503  502  0.00000000000E+00  0.00000000000E+00  0.10469813369E+03  0.10469813369E+03  0.00000000000E+00 0.  1.
         21   -1    0    0  501  503 -0.00000000000E+00 -0.00000000000E+00 -0.87812676568E+03  0.87812676568E+03  0.00000000000E+00 0. -1.
          6    1    1    2  501    0 -0.20684670305E+02 -0.19298065889E+03 -0.64134648179E+03  0.69179382766E+03  0.17200000000E+03 0. -1.
         -6    1    1    2    0  502  0.20684670305E+02  0.19298065889E+03 -0.13208215020E+03  0.29103107170E+03  0.17200000000E+03 0.  1.
<mgrwt>
<rscale>  2 0.25933259E+03</rscale>
<asrwt>0</asrwt>
<pdfrwt beam="1">  1       21 0.26174534E-01 0.25933259E+03</pdfrwt>
<pdfrwt beam="2">  1       21 0.21953169E+00 0.25933259E+03</pdfrwt>
<totfact> 0.13156865E+03</totfact>
</mgrwt>
</event>
<event>
 4    1  0.1101825E+000  0.2274185E+03  0.7546771E-02  0.1128470E+00
         21   -1    0    0  501  502  0.00000000000E+00  0.00000000000E+00  0.99024185530E+03  0.99024185530E+03  0.00000000000E+00 0.  1.
         21   -1    0    0  502  503 -0.00000000000E+00 -0.00000000000E+00 -0.66280646889E+02  0.66280646889E+02  0.00000000000E+00 0.  1.
          6    1    1    2  501    0  0.14873348271E+03  0.36784101849E+01  0.70521306448E+03  0.74097546916E+03  0.17200000000E+03 0.  1.
         -6    1    1    2    0  503 -0.14873348271E+03 -0.36784101849E+01  0.21874814393E+03  0.31554703303E+03  0.17200000000E+03 0.  1.
<mgrwt>
<rscale>  2 0.22741851E+03</rscale>
<asrwt>0</asrwt>
<pdfrwt beam="1">  1       21 0.24756042E+00 0.22741851E+03</pdfrwt>
<pdfrwt beam="2">  1       21 0.16570165E-01 0.22741851E+03</pdfrwt>
<totfact> 0.21661348E+03</totfact>
</mgrwt>
</event>
<event>
 4    1  0.1101825E+000  0.1903291E+03  0.7546771E-02  0.1158165E+00
         21   -1    0    0  503  502  0.00000000000E+00  0.00000000000E+00  0.12257328292E+03  0.12257328292E+03  0.00000000000E+00 0. -1.
         21   -1    0    0  501  503 -0.00000000000E+00 -0.00000000000E+00 -0.30154093297E+03  0.30154093297E+03  0.00000000000E+00 0. -1.
          6    1    1    2  501    0 -0.26388401380E+02 -0.77102531526E+02 -0.11940208256E+03  0.22468200955E+03  0.17200000000E+03 0. -1.
         -6    1    1    2    0  502  0.26388401380E+02  0.77102531526E+02 -0.59565567483E+02  0.19943220634E+03  0.17200000000E+03 0. -1.
<mgrwt>
<rscale>  2 0.19032905E+03</rscale>
<asrwt>0</asrwt>
<pdfrwt beam="1">  1       21 0.30643321E-01 0.19032905E+03</pdfrwt>
<pdfrwt beam="2">  1       21 0.75385232E-01 0.19032905E+03</pdfrwt>
<totfact> 0.16094275E+04</totfact>
</mgrwt>
</event>
<event>
 4    1  0.1101825E+000  0.1805539E+03  0.7546771E-02  0.1167268E+00
         21   -1    0    0  501  502  0.00000000000E+00  0.00000000000E+00  0.17173602508E+03  0.17173602508E+03  0.00000000000E+00 0. -1.
         21   -1    0    0  502  503 -0.00000000000E+00 -0.00000000000E+00 -0.32739782292E+03  0.32739782292E+03  0.00000000000E+00 0. -1.
          6    1    1    2  501    0  0.34046688846E+02 -0.43087617980E+02  0.83945852662E+02  0.19911460525E+03  0.17200000000E+03 0. -1.
         -6    1    1    2    0  503 -0.34046688846E+02  0.43087617980E+02 -0.23960765050E+03  0.30001924276E+03  0.17200000000E+03 0. -1.
<mgrwt>
<rscale>  2 0.18055393E+03</rscale>
<asrwt>0</asrwt>
<pdfrwt beam="1">  1       21 0.42934006E-01 0.18055393E+03</pdfrwt>
<pdfrwt beam="2">  1       21 0.81849455E-01 0.18055393E+03</pdfrwt>
<totfact> 0.68755953E+03</totfact>
</mgrwt>
</event>
<event>
 4    1  0.1101825E+000  0.2095359E+03  0.7546771E-02  0.1141934E+00
         21   -1    0    0  501  502  0.00000000000E+00  0.00000000000E+00  0.37912198166E+03  0.37912198166E+03  0.00000000000E+00 0.  1.
         21   -1    0    0  502  503 -0.00000000000E+00 -0.00000000000E+00 -0.12976136844E+03  0.12976136844E+03  0.00000000000E+00 0. -1.
          6    1    1    2  501    0 -0.68175884446E+02  0.98353047533E+02  0.20811728514E+03  0.29532706878E+03  0.17200000000E+03 0.  1.
         -6    1    1    2    0  503  0.68175884446E+02 -0.98353047533E+02  0.41243328081E+02  0.21355628132E+03  0.17200000000E+03 0. -1.
<mgrwt>
<rscale>  2 0.20953585E+03</rscale>
<asrwt>0</asrwt>
<pdfrwt beam="1">  1       21 0.94780493E-01 0.20953585E+03</pdfrwt>
<pdfrwt beam="2">  1       21 0.32440343E-01 0.20953585E+03</pdfrwt>
<totfact> 0.84138110E+03</totfact>
</mgrwt>
</event>
<event>
 4    1  0.1101825E+000  0.1995257E+03  0.7546771E-02  0.1150140E+00
         21   -1    0    0  501  502  0.00000000000E+00  0.00000000000E+00  0.95978628888E+03  0.95978628888E+03  0.00000000000E+00 0. -1.
         21   -1    0    0  502  503 -0.00000000000E+00 -0.00000000000E+00 -0.66568749257E+02  0.66568749257E+02  0.00000000000E+00 0. -1.
          6    1    1    2  501    0  0.66177731647E+02  0.76465724296E+02  0.76166268423E+03  0.78736303171E+03  0.17200000000E+03 0. -1.
         -6    1    1    2    0  503 -0.66177731647E+02 -0.76465724296E+02  0.13155485540E+03  0.23899200643E+03  0.17200000000E+03 0. -1.
<mgrwt>
<rscale>  2 0.19952569E+03</rscale>
<asrwt>0</asrwt>
<pdfrwt beam="1">  1       21 0.23994653E+00 0.19952569E+03</pdfrwt>
<pdfrwt beam="2">  1       21 0.16642190E-01 0.19952569E+03</pdfrwt>
<totfact> 0.24549642E+03</totfact>
</mgrwt>
</event>
<event>
 4    1  0.1101825E+000  0.2867623E+03  0.7546771E-02  0.1092052E+00
         21   -1    0    0  503  502  0.00000000000E+00  0.00000000000E+00  0.19651913884E+03  0.19651913884E+03  0.00000000000E+00 0. -1.
         21   -1    0    0  501  503 -0.00000000000E+00 -0.00000000000E+00 -0.53776871211E+03  0.53776871211E+03  0.00000000000E+00 0.  1.
          6    1    1    2  501    0 -0.11407907997E+03  0.19908437836E+03 -0.34356673105E+03  0.44751617276E+03  0.17200000000E+03 0.  1.
         -6    1    1    2    0  502  0.11407907997E+03 -0.19908437836E+03  0.23171577786E+01  0.28677167819E+03  0.17200000000E+03 0. -1.
<mgrwt>
<rscale>  2 0.28676232E+03</rscale>
<asrwt>0</asrwt>
<pdfrwt beam="1">  1       21 0.49129785E-01 0.28676232E+03</pdfrwt>
<pdfrwt beam="2">  1       21 0.13444218E+00 0.28676232E+03</pdfrwt>
<totfact> 0.14538778E+03</totfact>
</mgrwt>
</event>
<event>
 4    1  0.1101825E+000  0.2911369E+03  0.7546771E-02  0.1089757E+00
         21   -1    0    0  501  502  0.00000000000E+00  0.00000000000E+00  0.95985768344E+02  0.95985768344E+02  0.00000000000E+00 0. -1.
         21   -1    0    0  502  503 -0.00000000000E+00 -0.00000000000E+00 -0.10074584340E+04  0.10074584340E+04  0.00000000000E+00 0.  1.
          6    1    1    2  501    0  0.23158614352E+03 -0.39300967095E+02 -0.26186076432E+03  0.39157600510E+03  0.17200000000E+03 0. -1.
         -6    1    1    2    0  503 -0.23158614352E+03  0.39300967095E+02 -0.64961190136E+03  0.71186819727E+03  0.17200000000E+03 0.  1.
<mgrwt>
<rscale>  2 0.29113692E+03</rscale>
<asrwt>0</asrwt>
<pdfrwt beam="1">  1       21 0.23996442E-01 0.29113692E+03</pdfrwt>
<pdfrwt beam="2">  1       21 0.25186461E+00 0.29113692E+03</pdfrwt>
<totfact> 0.96161737E+02</totfact>
</mgrwt>
</event>
<event>
 4    1  0.1101825E+000  0.2009752E+03  0.7546771E-02  0.1148919E+00
         21   -1    0    0  503  502  0.00000000000E+00  0.00000000000E+00  0.51036416193E+03  0.51036416193E+03  0.00000000000E+00 0.  1.
         21   -1    0    0  501  503 -0.00000000000E+00 -0.00000000000E+00 -0.18373259129E+03  0.18373259129E+03  0.00000000000E+00 0.  1.
          6    1    1    2  501    0 -0.10175207701E+03 -0.21296858521E+02 -0.98529064577E+02  0.22382809905E+03  0.17200000000E+03 0.  1.
         -6    1    1    2    0  502  0.10175207701E+03  0.21296858521E+02  0.42516063522E+03  0.47026865417E+03  0.17200000000E+03 0.  1.
<mgrwt>
<rscale>  2 0.20097523E+03</rscale>
<asrwt>0</asrwt>
<pdfrwt beam="1">  1       21 0.12759104E+00 0.20097523E+03</pdfrwt>
<pdfrwt beam="2">  1       21 0.45933149E-01 0.20097523E+03</pdfrwt>
<totfact> 0.20425501E+03</totfact>
</mgrwt>
</event>
<event>
 4    1  0.1101825E+000  0.1935487E+03  0.7546771E-02  0.1155299E+00
         21   -1    0    0  501  502  0.00000000000E+00  0.00000000000E+00  0.87120816735E+02  0.87120816735E+02  0.00000000000E+00 0.  1.
         21   -1    0    0  502  503 -0.00000000000E+00 -0.00000000000E+00 -0.84954234561E+03  0.84954234561E+03  0.00000000000E+00 0. -1.
          6    1    1    2  501    0  0.88710671446E+02  0.27432637842E+01 -0.52091097316E+02  0.20043600261E+03  0.17200000000E+03 0.  1.
         -6    1    1    2    0  503 -0.88710671446E+02 -0.27432637842E+01 -0.71033043156E+03  0.73622715973E+03  0.17200000000E+03 0. -1.
<mgrwt>
<rscale>  2 0.19354872E+03</rscale>
<asrwt>0</asrwt>
<pdfrwt beam="1">  1       21 0.21780205E-01 0.19354872E+03</pdfrwt>
<pdfrwt beam="2">  1       21 0.21238558E+00 0.19354872E+03</pdfrwt>
<totfact> 0.22036292E+03</totfact>
</mgrwt>
</event>
<event>
 4    1  0.1101825E+000  0.1779099E+03  0.7546771E-02  0.1169841E+00
         21   -1    0    0  503  502  0.00000000000E+00  0.00000000000E+00  0.50367871765E+02  0.50367871765E+02  0.00000000000E+00 0. -1.
         21   -1    0    0  501  503 -0.00000000000E+00 -0.00000000000E+00 -0.67293636527E+03  0.67293636527E+03  0.00000000000E+00 0. -1.
          6    1    1    2  501    0  0.10197041262E+02  0.44316526819E+02 -0.21826186172E+03  0.28158511054E+03  0.17200000000E+03 0.  1.
         -6    1    1    2    0  502 -0.10197041262E+02 -0.44316526819E+02 -0.40430663178E+03  0.44171912649E+03  0.17200000000E+03 0.  1.
<mgrwt>
<rscale>  2 0.17790990E+03</rscale>
<asrwt>0</asrwt>
<pdfrwt beam="1">  1       21 0.12591968E-01 0.17790990E+03</pdfrwt>
<pdfrwt beam="2">  1       21 0.16823409E+00 0.17790990E+03</pdfrwt>
<totfact> 0.11956912E+04</totfact>
</mgrwt>
</event>
<event>
 4    1  0.1101825E+000  0.2010549E+03  0.7546771E-02  0.1148852E+00
         21   -1    0    0  501  502  0.00000000000E+00  0.00000000000E+00  0.17814846409E+03  0.17814846409E+03  0.00000000000E+00 0.  1.
         21   -1    0    0  502  503 -0.00000000000E+00 -0.00000000000E+00 -0.39318604075E+03  0.39318604075E+03  0.00000000000E+00 0.  1.
          6    1    1    2  501    0  0.10031857900E+03 -0.27843291743E+02  0.78253384754E+02  0.21574674601E+03  0.17200000000E+03 0.  1.
         -6    1    1    2    0  503 -0.10031857900E+03  0.27843291743E+02 -0.29329096141E+03  0.35558775884E+03  0.17200000000E+03 0.  1.
<mgrwt>
<rscale>  2 0.20105488E+03</rscale>
<asrwt>0</asrwt>
<pdfrwt beam="1">  1       21 0.44537116E-01 0.20105488E+03</pdfrwt>
<pdfrwt beam="2">  1       21 0.98296510E-01 0.20105488E+03</pdfrwt>
<totfact> 0.41101443E+03</totfact>
</mgrwt>
</event>
<event>
 4    1  0.1101825E+000  0.1875170E+03  0.7546771E-02  0.1160720E+00
         21   -1    0    0  501  502  0.00000000000E+00  0.00000000000E+00  0.10278285841E+03  0.10278285841E+03  0.00000000000E+00 0.  1.
         21   -1    0    0  502  503 -0.00000000000E+00 -0.00000000000E+00 -0.35364433282E+03  0.35364433282E+03  0.00000000000E+00 0.  1.
          6    1    1    2  501    0 -0.67566194238E+02 -0.31834651556E+02 -0.84208730622E+02  0.20555715983E+03  0.17200000000E+03 0.  1.
         -6    1    1    2    0  503  0.67566194238E+02  0.31834651556E+02 -0.16665274379E+03  0.25087003140E+03  0.17200000000E+03 0.  1.
<mgrwt>
<rscale>  2 0.18751703E+03</rscale>
<asrwt>0</asrwt>
<pdfrwt beam="1">  1       21 0.25695715E-01 0.18751703E+03</pdfrwt>
<pdfrwt beam="2">  1       21 0.88411082E-01 0.18751703E+03</pdfrwt>
<totfact> 0.15785276E+04</totfact>
</mgrwt>
</event>
<event>
 4    1  0.1101825E+000  0.2003975E+03  0.7546771E-02  0.1149404E+00
         21   -1    0    0  501  502  0.00000000000E+00  0.00000000000E+00  0.14027677728E+04  0.14027677728E+04  0.00000000000E+00 0. -1.
         21   -1    0    0  502  503 -0.00000000000E+00 -0.00000000000E+00 -0.66686121191E+02  0.66686121191E+02  0.00000000000E+00 0.  1.
          6    1    1    2  501    0 -0.63287368994E+02  0.81054620597E+02  0.11299474908E+03  0.23005859235E+03  0.17200000000E+03 0.  1.
         -6    1    1    2    0  503  0.63287368994E+02 -0.81054620597E+02  0.12230869025E+04  0.12393953016E+04  0.17200000000E+03 0. -1.
<mgrwt>
<rscale>  2 0.20039746E+03</rscale>
<asrwt>0</asrwt>
<pdfrwt beam="1">  1       21 0.35069185E+00 0.20039746E+03</pdfrwt>
<pdfrwt beam="2">  1       21 0.16671535E-01 0.20039746E+03</pdfrwt>
<totfact> 0.55367950E+02</totfact>
</mgrwt>
</event>
<event>
 4    1  0.1101825E+000  0.1846948E+03  0.7546771E-02  0.1163335E+00
         21   -1    0    0  503  502  0.00000000000E+00  0.00000000000E+00  0.92466072628E+02  0.92466072628E+02  0.00000000000E+00 0. -1.
         21   -1    0    0  501  503 -0.00000000000E+00 -0.00000000000E+00 -0.37375945541E+03  0.37375945541E+03  0.00000000000E+00 0. -1.
          6    1    1    2  501    0 -0.64748559549E+02  0.18325114602E+02 -0.16718425943E+03  0.24912398999E+03  0.17200000000E+03 0. -1.
         -6    1    1    2    0  502  0.64748559549E+02 -0.18325114602E+02 -0.11410912335E+03  0.21710153804E+03  0.17200000000E+03 0. -1.
<mgrwt>
<rscale>  2 0.18469485E+03</rscale>
<asrwt>0</asrwt>
<pdfrwt beam="1">  1       21 0.23116518E-01 0.18469485E+03</pdfrwt>
<pdfrwt beam="2">  1       21 0.93439863E-01 0.18469485E+03</pdfrwt>
<totfact> 0.17012392E+04</totfact>
</mgrwt>
</event>
<event>
 4    1  0.1101825E+000  0.2587074E+03  0.7546771E-02  0.1107922E+00
         21   -1    0    0  503  502  0.00000000000E+00  0.00000000000E+00  0.13480706874E+03  0.13480706874E+03  0.00000000000E+00 0. -1.
         21   -1    0    0  501  503 -0.00000000000E+00 -0.00000000000E+00 -0.49833079022E+03  0.49833079022E+03  0.00000000000E+00 0. -1.
          6    1    1    2  501    0 -0.88641483309E+02 -0.17172133040E+03 -0.20103444147E+03  0.32763451365E+03  0.17200000000E+03 0. -1.
         -6    1    1    2    0  502  0.88641483309E+02  0.17172133040E+03 -0.16248928000E+03  0.30550334531E+03  0.17200000000E+03 0. -1.
<mgrwt>
<rscale>  2 0.25870742E+03</rscale>
<asrwt>0</asrwt>
<pdfrwt beam="1">  1       21 0.33701767E-01 0.25870742E+03</pdfrwt>
<pdfrwt beam="2">  1       21 0.12458270E+00 0.25870742E+03</pdfrwt>
<totfact> 0.38840255E+03</totfact>
</mgrwt>
</event>
<event>
 4    1  0.1101825E+000  0.2473032E+03  0.7546771E-02  0.1115021E+00
         21   -1    0    0  501  502  0.00000000000E+00  0.00000000000E+00  0.28471232189E+03  0.28471232189E+03  0.00000000000E+00 0.  1.
         21   -1    0    0  502  503 -0.00000000000E+00 -0.00000000000E+00 -0.23891604357E+03  0.23891604357E+03  0.00000000000E+00 0.  1.
          6    1    1    2  501    0 -0.45473524031E+00 -0.17769263214E+03  0.10606284105E+03  0.26908772650E+03  0.17200000000E+03 0.  1.
         -6    1    1    2    0  503  0.45473524031E+00  0.17769263214E+03 -0.60266562729E+02  0.25454063897E+03  0.17200000000E+03 0.  1.
<mgrwt>
<rscale>  2 0.24730321E+03</rscale>
<asrwt>0</asrwt>
<pdfrwt beam="1">  1       21 0.71178080E-01 0.24730321E+03</pdfrwt>
<pdfrwt beam="2">  1       21 0.59729011E-01 0.24730321E+03</pdfrwt>
<totfact> 0.44926521E+03</totfact>
</mgrwt>
</event>
<event>
 4    1  0.1101825E+000  0.2031114E+03  0.7546771E-02  0.1147140E+00
         21   -1    0    0  501  502  0.00000000000E+00  0.00000000000E+00  0.27009687405E+03  0.27009687405E+03  0.00000000000E+00 0. -1.
         21   -1    0    0  502  503 -0.00000000000E+00 -0.00000000000E+00 -0.20591225797E+03  0.20591225797E+03  0.00000000000E+00 0. -1.
          6    1    1    2  501    0 -0.94969635541E+02  0.51487792602E+02  0.15303854643E+03  0.25431284111E+03  0.17200000000E+03 0. -1.
         -6    1    1    2    0  503  0.94969635541E+02 -0.51487792602E+02 -0.88853930353E+02  0.22169629090E+03  0.17200000000E+03 0. -1.
<mgrwt>
<rscale>  2 0.20311136E+03</rscale>
<asrwt>0</asrwt>
<pdfrwt beam="1">  1       21 0.67524218E-01 0.20311136E+03</pdfrwt>
<pdfrwt beam="2">  1       21 0.51478065E-01 0.20311136E+03</pdfrwt>
<totfact> 0.71356539E+03</totfact>
</mgrwt>
</event>
<event>
 4    1  0.1101825E+000  0.2954122E+03  0.7546771E-02  0.1087557E+00
         21   -1    0    0  501  502  0.00000000000E+00  0.00000000000E+00  0.11203797616E+03  0.11203797616E+03  0.00000000000E+00 0. -1.
         21   -1    0    0  502  503 -0.00000000000E+00 -0.00000000000E+00 -0.87656654480E+03  0.87656654480E+03  0.00000000000E+00 0.  1.
          6    1    1    2  501    0 -0.23198055750E+03 -0.62204400015E+02 -0.21728339829E+03  0.36671575043E+03  0.17200000000E+03 0. -1.
         -6    1    1    2    0  503  0.23198055750E+03  0.62204400015E+02 -0.54724517036E+03  0.62188877053E+03  0.17200000000E+03 0.  1.
<mgrwt>
<rscale>  2 0.29541220E+03</rscale>
<asrwt>0</asrwt>
<pdfrwt beam="1">  1       21 0.28009494E-01 0.29541220E+03</pdfrwt>
<pdfrwt beam="2">  1       21 0.21914163E+00 0.29541220E+03</pdfrwt>
<totfact> 0.11272037E+03</totfact>
</mgrwt>
</event>
<event>
 4    1  0.1101825E+000  0.2296314E+03  0.7546771E-02  0.1126899E+00
         21   -1    0    0  503  502  0.00000000000E+00  0.00000000000E+00  0.67985837445E+02  0.67985837445E+02  0.00000000000E+00 0. -1.
         21   -1    0    0  501  503 -0.00000000000E+00 -0.00000000000E+00 -0.78018832094E+03  0.78018832094E+03  0.00000000000E+00 0.  1.
          6    1    1    2  501    0  0.98934476810E+01  0.15181801648E+03 -0.32361929045E+03  0.39681234304E+03  0.17200000000E+03 0.  1.
         -6    1    1    2    0  502 -0.98934476810E+01 -0.15181801648E+03 -0.38858319304E+03  0.45136181534E+03  0.17200000000E+03 0. -1.
<mgrwt>
<rscale>  2 0.22963142E+03</rscale>
<asrwt>0</asrwt>
<pdfrwt beam="1">  1       21 0.16996459E-01 0.22963142E+03</pdfrwt>
<pdfrwt beam="2">  1       21 0.19504708E+00 0.22963142E+03</pdfrwt>
<totfact> 0.43669836E+03</totfact>
</mgrwt>
</event>
<event>
 4    1  0.1101825E+000  0.1944236E+03  0.7546771E-02  0.1154531E+00
         21   -1    0    0  503  502  0.00000000000E+00  0.00000000000E+00  0.11607015160E+04  0.11607015160E+04  0.00000000000E+00 0. -1.
         21   -1    0    0  501  503 -0.00000000000E+00 -0.00000000000E+00 -0.38240572879E+02  0.38240572879E+02  0.00000000000E+00 0. -1.
          6    1    1    2  501    0  0.65739163348E+02 -0.62409048254E+02  0.33032425096E+03  0.38329445297E+03  0.17200000000E+03 0. -1.
         -6    1    1    2    0  502 -0.65739163348E+02  0.62409048254E+02  0.79213669212E+03  0.81564763587E+03  0.17200000000E+03 0. -1.
<mgrwt>
<rscale>  2 0.19442358E+03</rscale>
<asrwt>0</asrwt>
<pdfrwt beam="1">  1       21 0.29017526E+00 0.19442358E+03</pdfrwt>
<pdfrwt beam="2">  1       21 0.95601471E-02 0.19442358E+03</pdfrwt>
<totfact> 0.34084759E+03</totfact>
</mgrwt>
</event>
<event>
 4    1  0.1101825E+000  0.1745535E+03  0.7546771E-02  0.1173181E+00
         21   -1    0    0  503  502  0.00000000000E+00  0.00000000000E+00  0.48185684147E+03  0.48185684147E+03  0.00000000000E+00 0. -1.
         21   -1    0    0  501  503 -0.00000000000E+00 -0.00000000000E+00 -0.14371700718E+03  0.14371700718E+03  0.00000000000E+00 0. -1.
          6    1    1    2  501    0 -0.28382557664E+02 -0.89085364420E+01 -0.65002966858E+02  0.18626410632E+03  0.17200000000E+03 0. -1.
         -6    1    1    2    0  502  0.28382557664E+02  0.89085364420E+01  0.40314280115E+03  0.43930974234E+03  0.17200000000E+03 0. -1.
<mgrwt>
<rscale>  2 0.17455352E+03</rscale>
<asrwt>0</asrwt>
<pdfrwt beam="1">  1       21 0.12046421E+00 0.17455352E+03</pdfrwt>
<pdfrwt beam="2">  1       21 0.35929253E-01 0.17455352E+03</pdfrwt>
<totfact> 0.39689562E+03</totfact>
</mgrwt>
</event>
<event>
 4    1  0.1101825E+000  0.2498045E+03  0.7546771E-02  0.1113428E+00
         21   -1    0    0  503  502  0.00000000000E+00  0.00000000000E+00  0.46955517456E+02  0.46955517456E+02  0.00000000000E+00 0.  1.
         21   -1    0    0  501  503 -0.00000000000E+00 -0.00000000000E+00 -0.14506223618E+04  0.14506223618E+04  0.00000000000E+00 0.  1.
          6    1    1    2  501    0 -0.15663932709E+03  0.91007857863E+02 -0.91867810800E+03  0.95203559550E+03  0.17200000000E+03 0.  1.
         -6    1    1    2    0  502  0.15663932709E+03 -0.91007857863E+02 -0.48498873637E+03  0.54554228378E+03  0.17200000000E+03 0.  1.
<mgrwt>
<rscale>  2 0.24980454E+03</rscale>
<asrwt>0</asrwt>
<pdfrwt beam="1">  1       21 0.11738879E-01 0.24980454E+03</pdfrwt>
<pdfrwt beam="2">  1       21 0.36265561E+00 0.24980454E+03</pdfrwt>
<totfact> 0.83259684E+02</totfact>
</mgrwt>
</event>
<event>
 4    1  0.1101825E+000  0.2035737E+03  0.7546771E-02  0.1146758E+00
         21   -1    0    0  501  502  0.00000000000E+00  0.00000000000E+00  0.41297260011E+03  0.41297260011E+03  0.00000000000E+00 0.  1.
         21   -1    0    0  502  503 -0.00000000000E+00 -0.00000000000E+00 -0.10334416598E+03  0.10334416598E+03  0.00000000000E+00 0. -1.
          6    1    1    2  501    0 -0.73409868189E+02  0.80431659233E+02  0.11088025554E+03  0.23181175903E+03  0.17200000000E+03 0. -1.
         -6    1    1    2    0  503  0.73409868189E+02 -0.80431659233E+02  0.19874817859E+03  0.28450500707E+03  0.17200000000E+03 0.  1.
<mgrwt>
<rscale>  2 0.20357372E+03</rscale>
<asrwt>0</asrwt>
<pdfrwt beam="1">  1       21 0.10324315E+00 0.20357372E+03</pdfrwt>
<pdfrwt beam="2">  1       21 0.25836043E-01 0.20357372E+03</pdfrwt>
<totfact> 0.10738474E+04</totfact>
</mgrwt>
</event>
<event>
 4    1  0.1101825E+000  0.2966244E+03  0.7546771E-02  0.1086940E+00
         21   -1    0    0  503  502  0.00000000000E+00  0.00000000000E+00  0.64415776828E+02  0.64415776828E+02  0.00000000000E+00 0.  1.
         21   -1    0    0  501  503 -0.00000000000E+00 -0.00000000000E+00 -0.13974307269E+04  0.13974307269E+04  0.00000000000E+00 0. -1.
          6    1    1    2  501    0 -0.17562236914E+03 -0.16600855774E+03 -0.77628539702E+03  0.83102651907E+03  0.17200000000E+03 0.  1.
         -6    1    1    2    0  502  0.17562236914E+03  0.16600855774E+03 -0.55672955302E+03  0.63081998461E+03  0.17200000000E+03 0. -1.
<mgrwt>
<rscale>  2 0.29662444E+03</rscale>
<asrwt>0</asrwt>
<pdfrwt beam="1">  1       21 0.16103945E-01 0.29662444E+03</pdfrwt>
<pdfrwt beam="2">  1       21 0.34935766E+00 0.29662444E+03</pdfrwt>
<totfact> 0.53573793E+02</totfact>
</mgrwt>
</event>
<event>
 4    1  0.1101825E+000  0.1949061E+03  0.7546771E-02  0.1154109E+00
         21   -1    0    0  501  502  0.00000000000E+00  0.00000000000E+00  0.24396160635E+03  0.24396160635E+03  0.00000000000E+00 0.  1.
         21   -1    0    0  502  503 -0.00000000000E+00 -0.00000000000E+00 -0.31614968944E+03  0.31614968944E+03  0.00000000000E+00 0.  1.
          6    1    1    2  501    0 -0.78534794806E+02  0.47293298636E+02  0.16340816939E+03  0.25434346839E+03  0.17200000000E+03 0.  1.
         -6    1    1    2    0  503  0.78534794806E+02 -0.47293298636E+02 -0.23559625247E+03  0.30576782740E+03  0.17200000000E+03 0.  1.
<mgrwt>
<rscale>  2 0.19490605E+03</rscale>
<asrwt>0</asrwt>
<pdfrwt beam="1">  1       21 0.60990402E-01 0.19490605E+03</pdfrwt>
<pdfrwt beam="2">  1       21 0.79037422E-01 0.19490605E+03</pdfrwt>
<totfact> 0.35293955E+03</totfact>
</mgrwt>
</event>
<event>
 4    1  0.1101825E+000  0.1720590E+03  0.7546771E-02  0.1175718E+00
         21   -1    0    0  503  502  0.00000000000E+00  0.00000000000E+00  0.54676572671E+03  0.54676572671E+03  0.00000000000E+00 0. -1.
         21   -1    0    0  501  503 -0.00000000000E+00 -0.00000000000E+00 -0.10067965036E+03  0.10067965036E+03  0.00000000000E+00 0. -1.
          6    1    1    2  501    0  0.97256640615E+00 -0.43986696446E+01  0.29565476902E+01  0.17208438440E+03  0.17200000000E+03 0. -1.
         -6    1    1    2    0  502 -0.97256640615E+00  0.43986696446E+01  0.44312952866E+03  0.47536099267E+03  0.17200000000E+03 0. -1.
<mgrwt>
<rscale>  2 0.17205898E+03</rscale>
<asrwt>0</asrwt>
<pdfrwt beam="1">  1       21 0.13669142E+00 0.17205898E+03</pdfrwt>
<pdfrwt beam="2">  1       21 0.25169914E-01 0.17205898E+03</pdfrwt>
<totfact> 0.57892819E+03</totfact>
</mgrwt>
</event>
<event>
 4    1  0.1101825E+000  0.1989624E+03  0.7546771E-02  0.1150617E+00
         21   -1    0    0  503  502  0.00000000000E+00  0.00000000000E+00  0.55210630754E+03  0.55210630754E+03  0.00000000000E+00 0.  1.
         21   -1    0    0  501  503 -0.00000000000E+00 -0.00000000000E+00 -0.10016440859E+03  0.10016440859E+03  0.00000000000E+00 0.  1.
          6    1    1    2  501    0  0.35590637153E+02 -0.93463017086E+02  0.52113958458E+02  0.20567424166E+03  0.17200000000E+03 0.  1.
         -6    1    1    2    0  502 -0.35590637153E+02  0.93463017086E+02  0.39982794049E+03  0.44659647448E+03  0.17200000000E+03 0.  1.
<mgrwt>
<rscale>  2 0.19896238E+03</rscale>
<asrwt>0</asrwt>
<pdfrwt beam="1">  1       21 0.13802657E+00 0.19896238E+03</pdfrwt>
<pdfrwt beam="2">  1       21 0.25041104E-01 0.19896238E+03</pdfrwt>
<totfact> 0.55758241E+03</totfact>
</mgrwt>
</event>
<event>
 4    1  0.1101825E+000  0.2879550E+03  0.7546771E-02  0.1091422E+00
         21   -1    0    0  503  502  0.00000000000E+00  0.00000000000E+00  0.23451025815E+03  0.23451025815E+03  0.00000000000E+00 0.  1.
         21   -1    0    0  501  503 -0.00000000000E+00 -0.00000000000E+00 -0.53969174333E+03  0.53969174333E+03  0.00000000000E+00 0.  1.
          6    1    1    2  501    0 -0.23063161575E+03  0.11964848361E+02 -0.37991117909E+03  0.47670809074E+03  0.17200000000E+03 0.  1.
         -6    1    1    2    0  502  0.23063161575E+03 -0.11964848361E+02  0.74729693903E+02  0.29749391075E+03  0.17200000000E+03 0.  1.
<mgrwt>
<rscale>  2 0.28795503E+03</rscale>
<asrwt>0</asrwt>
<pdfrwt beam="1">  1       21 0.58627565E-01 0.28795503E+03</pdfrwt>
<pdfrwt beam="2">  1       21 0.13492294E+00 0.28795503E+03</pdfrwt>
<totfact> 0.98801967E+02</totfact>
</mgrwt>
</event>
<event>
 4    1  0.1101825E+000  0.2105322E+03  0.7546771E-02  0.1141145E+00
         21   -1    0    0  503  502  0.00000000000E+00  0.00000000000E+00  0.36731710077E+03  0.36731710077E+03  0.00000000000E+00 0. -1.
         21   -1    0    0  501  503 -0.00000000000E+00 -0.00000000000E+00 -0.15799146923E+03  0.15799146923E+03  0.00000000000E+00 0. -1.
          6    1    1    2  501    0 -0.12073996728E+03 -0.12714592919E+02 -0.22996538851E+02  0.21178442192E+03  0.17200000000E+03 0. -1.
         -6    1    1    2    0  502  0.12073996728E+03  0.12714592919E+02  0.23232217040E+03  0.31352414808E+03  0.17200000000E+03 0. -1.
<mgrwt>
<rscale>  2 0.21053218E+03</rscale>
<asrwt>0</asrwt>
<pdfrwt beam="1">  1       21 0.91829274E-01 0.21053218E+03</pdfrwt>
<pdfrwt beam="2">  1       21 0.39497868E-01 0.21053218E+03</pdfrwt>
<totfact> 0.61131815E+03</totfact>
</mgrwt>
</event>
<event>
 4    1  0.1101825E+000  0.1814671E+03  0.7546771E-02  0.1166391E+00
         21   -1    0    0  501  502  0.00000000000E+00  0.00000000000E+00  0.81401048254E+02  0.81401048254E+02  0.00000000000E+00 0.  1.
         21   -1    0    0  502  503 -0.00000000000E+00 -0.00000000000E+00 -0.75557249050E+03  0.75557249050E+03  0.00000000000E+00 0.  1.
          6    1    1    2  501    0  0.97952205048E+00  0.57839049598E+02 -0.51842865998E+02  0.18872731089E+03  0.17200000000E+03 0.  1.
         -6    1    1    2    0  503 -0.97952205048E+00 -0.57839049598E+02 -0.62232857625E+03  0.64824622786E+03  0.17200000000E+03 0.  1.
<mgrwt>
<rscale>  2 0.18146712E+03</rscale>
<asrwt>0</asrwt>
<pdfrwt beam="1">  1       21 0.20350263E-01 0.18146712E+03</pdfrwt>
<pdfrwt beam="2">  1       21 0.18889312E+00 0.18146712E+03</pdfrwt>
<totfact> 0.35829881E+03</totfact>
</mgrwt>
</event>
<event>
 4    1  0.1101825E+000  0.1975997E+03  0.7546771E-02  0.1151780E+00
         21   -1    0    0  503  502  0.00000000000E+00  0.00000000000E+00  0.13036749416E+03  0.13036749416E+03  0.00000000000E+00 0. -1.
         21   -1    0    0  501  503 -0.00000000000E+00 -0.00000000000E+00 -0.30004773541E+03  0.30004773541E+03  0.00000000000E+00 0. -1.
          6    1    1    2  501    0 -0.66677086029E+02  0.70822232493E+02 -0.75681193821E+02  0.21159694118E+03  0.17200000000E+03 0. -1.
         -6    1    1    2    0  502  0.66677086029E+02 -0.70822232493E+02 -0.93999047427E+02  0.21881828839E+03  0.17200000000E+03 0. -1.
<mgrwt>
<rscale>  2 0.19759965E+03</rscale>
<asrwt>0</asrwt>
<pdfrwt beam="1">  1       21 0.32591874E-01 0.19759965E+03</pdfrwt>
<pdfrwt beam="2">  1       21 0.75011933E-01 0.19759965E+03</pdfrwt>
<totfact> 0.14353434E+04</totfact>
</mgrwt>
</event>
<event>
 4    1  0.1101825E+000  0.2069151E+03  0.7546771E-02  0.1144032E+00
         21   -1    0    0  501  502  0.00000000000E+00  0.00000000000E+00  0.77017449037E+02  0.77017449037E+02  0.00000000000E+00 0. -1.
         21   -1    0    0  502  503 -0.00000000000E+00 -0.00000000000E+00 -0.72738215450E+03  0.72738215450E+03  0.00000000000E+00 0. -1.
          6    1    1    2  501    0  0.93285429909E+02  0.67287958263E+02 -0.12989567653E+03  0.24430867267E+03  0.17200000000E+03 0. -1.
         -6    1    1    2    0  503 -0.93285429909E+02 -0.67287958263E+02 -0.52046902893E+03  0.56009093087E+03  0.17200000000E+03 0. -1.
<mgrwt>
<rscale>  2 0.20691506E+03</rscale>
<asrwt>0</asrwt>
<pdfrwt beam="1">  1       21 0.19254362E-01 0.20691506E+03</pdfrwt>
<pdfrwt beam="2">  1       21 0.18184554E+00 0.20691506E+03</pdfrwt>
<totfact> 0.43248047E+03</totfact>
</mgrwt>
</event>
<event>
 4    1  0.1101825E+000  0.1802241E+03  0.7546771E-02  0.1167586E+00
         21   -1    0    0  501  502  0.00000000000E+00  0.00000000000E+00  0.28471644446E+03  0.28471644446E+03  0.00000000000E+00 0.  1.
         21   -1    0    0  502  503 -0.00000000000E+00 -0.00000000000E+00 -0.12606543975E+03  0.12606543975E+03  0.00000000000E+00 0. -1.
          6    1    1    2  501    0 -0.44933932966E+02  0.29625254338E+02  0.14265318215E+03  0.22984917751E+03  0.17200000000E+03 0.  1.
         -6    1    1    2    0  503  0.44933932966E+02 -0.29625254338E+02  0.15997822568E+02  0.18093270670E+03  0.17200000000E+03 0.  1.
<mgrwt>
<rscale>  2 0.18022407E+03</rscale>
<asrwt>0</asrwt>
<pdfrwt beam="1">  1       21 0.71179110E-01 0.18022407E+03</pdfrwt>
<pdfrwt beam="2">  1       21 0.31516360E-01 0.18022407E+03</pdfrwt>
<totfact> 0.17415196E+04</totfact>
</mgrwt>
</event>
<event>
 4    1  0.1101825E+000  0.1794231E+03  0.7546771E-02  0.1168363E+00
         21   -1    0    0  503  502  0.00000000000E+00  0.00000000000E+00  0.24499898997E+03  0.24499898997E+03  0.00000000000E+00 0. -1.
         21   -1    0    0  501  503 -0.00000000000E+00 -0.00000000000E+00 -0.69046908523E+03  0.69046908523E+03  0.00000000000E+00 0. -1.
          6    1    1    2  501    0  0.49448705039E+02  0.12785481137E+02 -0.64361665804E+03  0.66815794949E+03  0.17200000000E+03 0. -1.
         -6    1    1    2    0  502 -0.49448705039E+02 -0.12785481137E+02  0.19814656279E+03  0.26731012570E+03  0.17200000000E+03 0. -1.
<mgrwt>
<rscale>  2 0.17942308E+03</rscale>
<asrwt>0</asrwt>
<pdfrwt beam="1">  1       21 0.61249748E-01 0.17942308E+03</pdfrwt>
<pdfrwt beam="2">  1       21 0.17261727E+00 0.17942308E+03</pdfrwt>
<totfact> 0.51527766E+02</totfact>
</mgrwt>
</event>
<event>
 4    1  0.1101825E+000  0.2322111E+03  0.7546771E-02  0.1125093E+00
         21   -1    0    0  503  502  0.00000000000E+00  0.00000000000E+00  0.27137143876E+03  0.27137143876E+03  0.00000000000E+00 0. -1.
         21   -1    0    0  501  503 -0.00000000000E+00 -0.00000000000E+00 -0.97833661350E+03  0.97833661350E+03  0.00000000000E+00 0.  1.
          6    1    1    2  501    0  0.72424302027E+02  0.13817640196E+03 -0.91128453520E+03  0.94040496685E+03  0.17200000000E+03 0.  1.
         -6    1    1    2    0  502 -0.72424302027E+02 -0.13817640196E+03  0.20431936046E+03  0.30930308540E+03  0.17200000000E+03 0. -1.
<mgrwt>
<rscale>  2 0.23221111E+03</rscale>
<asrwt>0</asrwt>
<pdfrwt beam="1">  1       21 0.67842860E-01 0.23221111E+03</pdfrwt>
<pdfrwt beam="2">  1       21 0.24458415E+00 0.23221111E+03</pdfrwt>
<totfact> 0.13458328E+02</totfact>
</mgrwt>
</event>
<event>
 4    1  0.1101825E+000  0.2156045E+03  0.7546771E-02  0.1137203E+00
         21   -1    0    0  501  502  0.00000000000E+00  0.00000000000E+00  0.10372133582E+03  0.10372133582E+03  0.00000000000E+00 0. -1.
         21   -1    0    0  502  503 -0.00000000000E+00 -0.00000000000E+00 -0.46137275398E+03  0.46137275398E+03  0.00000000000E+00 0. -1.
          6    1    1    2  501    0  0.12705151244E+03 -0.27553656496E+02 -0.13103782444E+03  0.25230180783E+03  0.17200000000E+03 0. -1.
         -6    1    1    2    0  503 -0.12705151244E+03  0.27553656496E+02 -0.22661359372E+03  0.31279228197E+03  0.17200000000E+03 0. -1.
<mgrwt>
<rscale>  2 0.21560448E+03</rscale>
<asrwt>0</asrwt>
<pdfrwt beam="1">  1       21 0.25930335E-01 0.21560448E+03</pdfrwt>
<pdfrwt beam="2">  1       21 0.11534318E+00 0.21560448E+03</pdfrwt>
<totfact> 0.80848996E+03</totfact>
</mgrwt>
</event>
<event>
 4    1  0.1101825E+000  0.1747468E+03  0.7546771E-02  0.1172986E+00
         21   -1    0    0  501  502  0.00000000000E+00  0.00000000000E+00  0.65297524853E+03  0.65297524853E+03  0.00000000000E+00 0.  1.
         21   -1    0    0  502  503 -0.00000000000E+00 -0.00000000000E+00 -0.59595926795E+02  0.59595926795E+02  0.00000000000E+00 0.  1.
          6    1    1    2  501    0  0.11813918187E+01  0.30838975319E+02  0.46200671898E+03  0.49395004450E+03  0.17200000000E+03 0. -1.
         -6    1    1    2    0  503 -0.11813918187E+01 -0.30838975319E+02  0.13137260275E+03  0.21862113082E+03  0.17200000000E+03 0. -1.
<mgrwt>
<rscale>  2 0.17474678E+03</rscale>
<asrwt>0</asrwt>
<pdfrwt beam="1">  1       21 0.16324379E+00 0.17474678E+03</pdfrwt>
<pdfrwt beam="2">  1       21 0.14898984E-01 0.17474678E+03</pdfrwt>
<totfact> 0.96046558E+03</totfact>
</mgrwt>
</event>
<event>
 4    1  0.1101825E+000  0.2029579E+03  0.7546771E-02  0.1147267E+00
         21   -1    0    0  503  502  0.00000000000E+00  0.00000000000E+00  0.10372933292E+04  0.10372933292E+04  0.00000000000E+00 0. -1.
         21   -1    0    0  501  503 -0.00000000000E+00 -0.00000000000E+00 -0.49637692081E+02  0.49637692081E+02  0.00000000000E+00 0. -1.
          6    1    1    2  501    0  0.52062043750E+02  0.94326274901E+02  0.25079238987E+03  0.32262784342E+03  0.17200000000E+03 0. -1.
         -6    1    1    2    0  502 -0.52062043750E+02 -0.94326274901E+02  0.73686324726E+03  0.76430317787E+03  0.17200000000E+03 0. -1.
<mgrwt>
<rscale>  2 0.20295788E+03</rscale>
<asrwt>0</asrwt>
<pdfrwt beam="1">  1       21 0.25932326E+00 0.20295788E+03</pdfrwt>
<pdfrwt beam="2">  1       21 0.12409426E-01 0.20295788E+03</pdfrwt>
<totfact> 0.32040400E+03</totfact>
</mgrwt>
</event>
<event>
 4    1  0.1101825E+000  0.1892858E+03  0.7546771E-02  0.1159107E+00
         21   -1    0    0  503  502  0.00000000000E+00  0.00000000000E+00  0.32908590938E+03  0.32908590938E+03  0.00000000000E+00 0.  1.
         21   -1    0    0  501  503 -0.00000000000E+00 -0.00000000000E+00 -0.11529468455E+03  0.11529468455E+03  0.00000000000E+00 0. -1.
          6    1    1    2  501    0 -0.19563101574E+02  0.76566363106E+02  0.54464613426E+02  0.19696577626E+03  0.17200000000E+03 0.  1.
         -6    1    1    2    0  502  0.19563101574E+02 -0.76566363106E+02  0.15932661140E+03  0.24741481767E+03  0.17200000000E+03 0.  1.
<mgrwt>
<rscale>  2 0.18928582E+03</rscale>
<asrwt>0</asrwt>
<pdfrwt beam="1">  1       21 0.82271475E-01 0.18928582E+03</pdfrwt>
<pdfrwt beam="2">  1       21 0.28823672E-01 0.18928582E+03</pdfrwt>
<totfact> 0.14899912E+04</totfact>
</mgrwt>
</event>
<event>
 4    1  0.1101825E+000  0.2190852E+03  0.7546771E-02  0.1134567E+00
         21   -1    0    0  503  502  0.00000000000E+00  0.00000000000E+00  0.38697435578E+03  0.38697435578E+03  0.00000000000E+00 0.  1.
         21   -1    0    0  501  503 -0.00000000000E+00 -0.00000000000E+00 -0.12575701942E+03  0.12575701942E+03  0.00000000000E+00 0.  1.
          6    1    1    2  501    0  0.67651341906E+02 -0.11763341309E+03  0.10060834534E+03  0.24108165233E+03  0.17200000000E+03 0.  1.
         -6    1    1    2    0  502 -0.67651341906E+02  0.11763341309E+03  0.16060899103E+03  0.27164972287E+03  0.17200000000E+03 0.  1.
<mgrwt>
<rscale>  2 0.21908520E+03</rscale>
<asrwt>0</asrwt>
<pdfrwt beam="1">  1       21 0.96743586E-01 0.21908520E+03</pdfrwt>
<pdfrwt beam="2">  1       21 0.31439256E-01 0.21908520E+03</pdfrwt>
<totfact> 0.84728476E+03</totfact>
</mgrwt>
</event>
<event>
 4    1  0.1101825E+000  0.1870170E+03  0.7546771E-02  0.1161180E+00
         21   -1    0    0  503  502  0.00000000000E+00  0.00000000000E+00  0.70397200595E+02  0.70397200595E+02  0.00000000000E+00 0.  1.
         21   -1    0    0  501  503 -0.00000000000E+00 -0.00000000000E+00 -0.50930528493E+03  0.50930528493E+03  0.00000000000E+00 0.  1.
          6    1    1    2  501    0 -0.36140196101E+02 -0.63915989593E+02 -0.17408814259E+03  0.25550352031E+03  0.17200000000E+03 0.  1.
         -6    1    1    2    0  502  0.36140196101E+02  0.63915989593E+02 -0.26481994174E+03  0.32419896521E+03  0.17200000000E+03 0.  1.
<mgrwt>
<rscale>  2 0.18701702E+03</rscale>
<asrwt>0</asrwt>
<pdfrwt beam="1">  1       21 0.17599301E-01 0.18701702E+03</pdfrwt>
<pdfrwt beam="2">  1       21 0.12732632E+00 0.18701702E+03</pdfrwt>
<totfact> 0.13382732E+04</totfact>
</mgrwt>
</event>
<event>
 4    1  0.1101825E+000  0.1833953E+03  0.7546771E-02  0.1164557E+00
         21   -1    0    0  503  502  0.00000000000E+00  0.00000000000E+00  0.61021248245E+03  0.61021248245E+03  0.00000000000E+00 0.  1.
         21   -1    0    0  501  503 -0.00000000000E+00 -0.00000000000E+00 -0.20025793528E+03  0.20025793528E+03  0.00000000000E+00 0.  1.
          6    1    1    2  501    0  0.63534988963E+02  0.36235155942E+01 -0.14001188005E+03  0.23073177337E+03  0.17200000000E+03 0.  1.
         -6    1    1    2    0  502 -0.63534988963E+02 -0.36235155942E+01  0.54996642722E+03  0.57973864436E+03  0.17200000000E+03 0.  1.
<mgrwt>
<rscale>  2 0.18339527E+03</rscale>
<asrwt>0</asrwt>
<pdfrwt beam="1">  1       21 0.15255312E+00 0.18339527E+03</pdfrwt>
<pdfrwt beam="2">  1       21 0.50064485E-01 0.18339527E+03</pdfrwt>
<totfact> 0.10971603E+03</totfact>
</mgrwt>
</event>
<event>
 4    1  0.1101825E+000  0.1988942E+03  0.7546771E-02  0.1150675E+00
         21   -1    0    0  501  502  0.00000000000E+00  0.00000000000E+00  0.12062764433E+04  0.12062764433E+04  0.00000000000E+00 0. -1.
         21   -1    0    0  502  503 -0.00000000000E+00 -0.00000000000E+00 -0.52725981127E+02  0.52725981127E+02  0.00000000000E+00 0. -1.
          6    1    1    2  501    0  0.29569192589E+02 -0.95396819600E+02  0.96381635784E+03  0.98412441387E+03  0.17200000000E+03 0. -1.
         -6    1    1    2    0  503 -0.29569192589E+02  0.95396819600E+02  0.18973410434E+03  0.27487801056E+03  0.17200000000E+03 0. -1.
<mgrwt>
<rscale>  2 0.19889417E+03</rscale>
<asrwt>0</asrwt>
<pdfrwt beam="1">  1       21 0.30156902E+00 0.19889417E+03</pdfrwt>
<pdfrwt beam="2">  1       21 0.13181499E-01 0.19889417E+03</pdfrwt>
<totfact> 0.16443686E+03</totfact>
</mgrwt>
</event>
<event>
 4    1  0.1101825E+000  0.2145101E+03  0.7546771E-02  0.1138043E+00
         21   -1    0    0  501  502  0.00000000000E+00  0.00000000000E+00  0.63125236326E+03  0.63125236326E+03  0.00000000000E+00 0.  1.
         21   -1    0    0  502  503 -0.00000000000E+00 -0.00000000000E+00 -0.73680286268E+02  0.73680286268E+02  0.00000000000E+00 0.  1.
          6    1    1    2  501    0 -0.74632603281E+02  0.10421398253E+03  0.24237762476E+03  0.32366880080E+03  0.17200000000E+03 0.  1.
         -6    1    1    2    0  503  0.74632603281E+02 -0.10421398253E+03  0.31519445223E+03  0.38126384873E+03  0.17200000000E+03 0.  1.
<mgrwt>
<rscale>  2 0.21451009E+03</rscale>
<asrwt>0</asrwt>
<pdfrwt beam="1">  1       21 0.15781307E+00 0.21451009E+03</pdfrwt>
<pdfrwt beam="2">  1       21 0.18420073E-01 0.21451009E+03</pdfrwt>
<totfact> 0.69060036E+03</totfact>
</mgrwt>
</event>
<event>
 4    1  0.1101825E+000  0.1967272E+03  0.7546771E-02  0.1152530E+00
         21   -1    0    0  501  502  0.00000000000E+00  0.00000000000E+00  0.18226437869E+04  0.18226437869E+04  0.00000000000E+00 0. -1.
         21   -1    0    0  502  503 -0.00000000000E+00 -0.00000000000E+00 -0.45405632292E+02  0.45405632292E+02  0.00000000000E+00 0.  1.
          6    1    1    2  501    0  0.40122319212E+01 -0.95401791814E+02  0.15701076107E+04  0.15823841219E+04  0.17200000000E+03 0. -1.
         -6    1    1    2    0  503 -0.40122319212E+01  0.95401791814E+02  0.20713054389E+03  0.28566529733E+03  0.17200000000E+03 0.  1.
<mgrwt>
<rscale>  2 0.19672722E+03</rscale>
<asrwt>0</asrwt>
<pdfrwt beam="1">  1       21 0.45566070E+00 0.19672722E+03</pdfrwt>
<pdfrwt beam="2">  1       21 0.11351414E-01 0.19672722E+03</pdfrwt>
<totfact> 0.24547150E+02</totfact>
</mgrwt>
</event>
<event>
 4    1  0.1101825E+000  0.2309728E+03  0.7546771E-02  0.1125957E+00
         21   -1    0    0  503  502  0.00000000000E+00  0.00000000000E+00  0.43742152640E+03  0.43742152640E+03  0.00000000000E+00 0.  1.
         21   -1    0    0  501  503 -0.00000000000E+00 -0.00000000000E+00 -0.15140444638E+03  0.15140444638E+03  0.00000000000E+00 0. -1.
          6    1    1    2  501    0  0.15378493632E+03 -0.10707450682E+02  0.13176924012E+02  0.23134841142E+03  0.17200000000E+03 0. -1.
         -6    1    1    2    0  502 -0.15378493632E+03  0.10707450682E+02  0.27284015601E+03  0.35747756135E+03  0.17200000000E+03 0.  1.
<mgrwt>
<rscale>  2 0.23097285E+03</rscale>
<asrwt>0</asrwt>
<pdfrwt beam="1">  1       21 0.10935538E+00 0.23097285E+03</pdfrwt>
<pdfrwt beam="2">  1       21 0.37851113E-01 0.23097285E+03</pdfrwt>
<totfact> 0.43296782E+03</totfact>
</mgrwt>
</event>
<event>
 4    1  0.1101825E+000  0.2070515E+03  0.7546771E-02  0.1143922E+00
         21   -1    0    0  503  502  0.00000000000E+00  0.00000000000E+00  0.20320833999E+03  0.20320833999E+03  0.00000000000E+00 0. -1.
         21   -1    0    0  501  503 -0.00000000000E+00 -0.00000000000E+00 -0.21904423675E+03  0.21904423675E+03  0.00000000000E+00 0. -1.
          6    1    1    2  501    0 -0.46357835328E+02 -0.10553330742E+03 -0.48459280240E+02  0.21264672514E+03  0.17200000000E+03 0. -1.
         -6    1    1    2    0  502  0.46357835328E+02  0.10553330742E+03  0.32623383484E+02  0.20960585159E+03  0.17200000000E+03 0. -1.
<mgrwt>
<rscale>  2 0.20705151E+03</rscale>
<asrwt>0</asrwt>
<pdfrwt beam="1">  1       21 0.50802085E-01 0.20705151E+03</pdfrwt>
<pdfrwt beam="2">  1       21 0.54761059E-01 0.20705151E+03</pdfrwt>
<totfact> 0.11492548E+04</totfact>
</mgrwt>
</event>
<event>
 4    1  0.1101825E+000  0.1920157E+03  0.7546771E-02  0.1156656E+00
         21   -1    0    0  503  502  0.00000000000E+00  0.00000000000E+00  0.26520336018E+02  0.26520336018E+02  0.00000000000E+00 0.  1.
         21   -1    0    0  501  503 -0.00000000000E+00 -0.00000000000E+00 -0.14935852907E+04  0.14935852907E+04  0.00000000000E+00 0. -1.
          6    1    1    2  501    0  0.59315838003E+02 -0.61381139169E+02 -0.93344680421E+03  0.95299157875E+03  0.17200000000E+03 0. -1.
         -6    1    1    2    0  502 -0.59315838003E+02  0.61381139169E+02 -0.53361815045E+03  0.56711404794E+03  0.17200000000E+03 0.  1.
<mgrwt>
<rscale>  2 0.19201566E+03</rscale>
<asrwt>0</asrwt>
<pdfrwt beam="1">  1       21 0.66300843E-02 0.19201566E+03</pdfrwt>
<pdfrwt beam="2">  1       21 0.37339630E+00 0.19201566E+03</pdfrwt>
<totfact> 0.21080717E+03</totfact>
</mgrwt>
</event>
<event>
 4    1  0.1101825E+000  0.1753018E+03  0.7546771E-02  0.1172429E+00
         21   -1    0    0  503  502  0.00000000000E+00  0.00000000000E+00  0.26389219287E+03  0.26389219287E+03  0.00000000000E+00 0. -1.
         21   -1    0    0  501  503 -0.00000000000E+00 -0.00000000000E+00 -0.34850296747E+03  0.34850296747E+03  0.00000000000E+00 0. -1.
          6    1    1    2  501    0  0.34429343091E+01  0.33687872361E+02 -0.29216172660E+03  0.34071865377E+03  0.17200000000E+03 0. -1.
         -6    1    1    2    0  502 -0.34429343091E+01 -0.33687872361E+02  0.20755095200E+03  0.27167650656E+03  0.17200000000E+03 0. -1.
<mgrwt>
<rscale>  2 0.17530182E+03</rscale>
<asrwt>0</asrwt>
<pdfrwt beam="1">  1       21 0.65973049E-01 0.17530182E+03</pdfrwt>
<pdfrwt beam="2">  1       21 0.87125741E-01 0.17530182E+03</pdfrwt>
<totfact> 0.24272046E+03</totfact>
</mgrwt>
</event>
<event>
 4    1  0.1101825E+000  0.2733361E+03  0.7546771E-02  0.1099385E+00
         21   -1    0    0  503  502  0.00000000000E+00  0.00000000000E+00  0.35210927293E+03  0.35210927293E+03  0.00000000000E+00 0. -1.
         21   -1    0    0  501  503 -0.00000000000E+00 -0.00000000000E+00 -0.22777723632E+03  0.22777723632E+03  0.00000000000E+00 0. -1.
          6    1    1    2  501    0 -0.21054106050E+03  0.28303058222E+02  0.13802384194E+03  0.30620774354E+03  0.17200000000E+03 0. -1.
         -6    1    1    2    0  502  0.21054106050E+03 -0.28303058222E+02 -0.13691805326E+02  0.27367876570E+03  0.17200000000E+03 0. -1.
<mgrwt>
<rscale>  2 0.27333606E+03</rscale>
<asrwt>0</asrwt>
<pdfrwt beam="1">  1       21 0.88027318E-01 0.27333606E+03</pdfrwt>
<pdfrwt beam="2">  1       21 0.56944309E-01 0.27333606E+03</pdfrwt>
<totfact> 0.30215033E+03</totfact>
</mgrwt>
</event>
<event>
 4    1  0.1101825E+000  0.3079761E+03  0.7546771E-02  0.1081320E+00
         21   -1    0    0  503  502  0.00000000000E+00  0.00000000000E+00  0.10784936167E+03  0.10784936167E+03  0.00000000000E+00 0. -1.
         21   -1    0    0  501  503 -0.00000000000E+00 -0.00000000000E+00 -0.88175709344E+03  0.88175709344E+03  0.00000000000E+00 0.  1.
          6    1    1    2  501    0 -0.22283619282E+03 -0.12493732022E+03 -0.36170412671E+03  0.47505702615E+03  0.17200000000E+03 0. -1.
         -6    1    1    2    0  502  0.22283619282E+03  0.12493732022E+03 -0.41220360505E+03  0.51454942895E+03  0.17200000000E+03 0.  1.
<mgrwt>
<rscale>  2 0.30797614E+03</rscale>
<asrwt>0</asrwt>
<pdfrwt beam="1">  1       21 0.26962341E-01 0.30797614E+03</pdfrwt>
<pdfrwt beam="2">  1       21 0.22043927E+00 0.30797614E+03</pdfrwt>
<totfact> 0.11808186E+03</totfact>
</mgrwt>
</event>
<event>
 4    1  0.1101825E+000  0.2157505E+03  0.7546771E-02  0.1137091E+00
         21   -1    0    0  503  502  0.00000000000E+00  0.00000000000E+00  0.12386062570E+03  0.12386062570E+03  0.00000000000E+00 0.  1.
         21   -1    0    0  501  503 -0.00000000000E+00 -0.00000000000E+00 -0.52576934035E+03  0.52576934035E+03  0.00000000000E+00 0.  1.
          6    1    1    2  501    0 -0.58704364175E+02  0.11626733197E+03 -0.37442359139E+03  0.43213576645E+03  0.17200000000E+03 0.  1.
         -6    1    1    2    0  502  0.58704364175E+02 -0.11626733197E+03 -0.27485123256E+02  0.21749419959E+03  0.17200000000E+03 0.  1.
<mgrwt>
<rscale>  2 0.21575054E+03</rscale>
<asrwt>0</asrwt>
<pdfrwt beam="1">  1       21 0.30965157E-01 0.21575054E+03</pdfrwt>
<pdfrwt beam="2">  1       21 0.13144233E+00 0.21575054E+03</pdfrwt>
<totfact> 0.41320951E+03</totfact>
</mgrwt>
</event>
<event>
 4    1  0.1101825E+000  0.2155520E+03  0.7546771E-02  0.1137243E+00
         21   -1    0    0  501  502  0.00000000000E+00  0.00000000000E+00  0.15012127456E+03  0.15012127456E+03  0.00000000000E+00 0. -1.
         21   -1    0    0  502  503 -0.00000000000E+00 -0.00000000000E+00 -0.31607294899E+03  0.31607294899E+03  0.00000000000E+00 0.  1.
          6    1    1    2  501    0 -0.54951013834E+01  0.12980165791E+03 -0.11658783265E+03  0.24506201104E+03  0.17200000000E+03 0.  1.
         -6    1    1    2    0  503  0.54951013834E+01 -0.12980165791E+03 -0.49363841780E+02  0.22113221251E+03  0.17200000000E+03 0. -1.
<mgrwt>
<rscale>  2 0.21555200E+03</rscale>
<asrwt>0</asrwt>
<pdfrwt beam="1">  1       21 0.37530319E-01 0.21555200E+03</pdfrwt>
<pdfrwt beam="2">  1       21 0.79018237E-01 0.21555200E+03</pdfrwt>
<totfact> 0.95331439E+03</totfact>
</mgrwt>
</event>
<event>
 4    1  0.1101825E+000  0.1920322E+03  0.7546771E-02  0.1156641E+00
         21   -1    0    0  501  502  0.00000000000E+00  0.00000000000E+00  0.11951006153E+04  0.11951006153E+04  0.00000000000E+00 0.  1.
         21   -1    0    0  502  503 -0.00000000000E+00 -0.00000000000E+00 -0.38459123538E+02  0.38459123538E+02  0.00000000000E+00 0.  1.
          6    1    1    2  501    0 -0.54928346322E+02 -0.65385375650E+02  0.85255282374E+03  0.87391228842E+03  0.17200000000E+03 0.  1.
         -6    1    1    2    0  503  0.54928346322E+02  0.65385375650E+02  0.30408866805E+03  0.35964745045E+03  0.17200000000E+03 0.  1.
<mgrwt>
<rscale>  2 0.19203221E+03</rscale>
<asrwt>0</asrwt>
<pdfrwt beam="1">  1       21 0.29877503E+00 0.19203221E+03</pdfrwt>
<pdfrwt beam="2">  1       21 0.96147849E-02 0.19203221E+03</pdfrwt>
<totfact> 0.30195464E+03</totfact>
</mgrwt>
</event>
<event>
 4    1  0.1101825E+000  0.1821034E+03  0.7546771E-02  0.1165783E+00
         21   -1    0    0  501  502  0.00000000000E+00  0.00000000000E+00  0.10300143071E+03  0.10300143071E+03  0.00000000000E+00 0.  1.
         21   -1    0    0  502  503 -0.00000000000E+00 -0.00000000000E+00 -0.42052895867E+03  0.42052895867E+03  0.00000000000E+00 0.  1.
          6    1    1    2  501    0  0.37906638778E+02 -0.46267927125E+02 -0.32028014775E+02  0.18489842637E+03  0.17200000000E+03 0.  1.
         -6    1    1    2    0  503 -0.37906638778E+02  0.46267927125E+02 -0.28549951318E+03  0.33863196301E+03  0.17200000000E+03 0.  1.
<mgrwt>
<rscale>  2 0.18210336E+03</rscale>
<asrwt>0</asrwt>
<pdfrwt beam="1">  1       21 0.25750358E-01 0.18210336E+03</pdfrwt>
<pdfrwt beam="2">  1       21 0.10513224E+00 0.18210336E+03</pdfrwt>
<totfact> 0.10504471E+04</totfact>
</mgrwt>
</event>
<event>
 4    1  0.1101825E+000  0.1744029E+03  0.7546771E-02  0.1173333E+00
         21   -1    0    0  503  502  0.00000000000E+00  0.00000000000E+00  0.53510007407E+02  0.53510007407E+02  0.00000000000E+00 0. -1.
         21   -1    0    0  501  503 -0.00000000000E+00 -0.00000000000E+00 -0.57633604936E+03  0.57633604936E+03  0.00000000000E+00 0. -1.
          6    1    1    2  501    0 -0.20958957402E+02 -0.19826345852E+02 -0.22451386442E+03  0.28429357573E+03  0.17200000000E+03 0. -1.
         -6    1    1    2    0  502  0.20958957402E+02  0.19826345852E+02 -0.29831217753E+03  0.34555248103E+03  0.17200000000E+03 0. -1.
<mgrwt>
<rscale>  2 0.17440287E+03</rscale>
<asrwt>0</asrwt>
<pdfrwt beam="1">  1       21 0.13377502E-01 0.17440287E+03</pdfrwt>
<pdfrwt beam="2">  1       21 0.14408401E+00 0.17440287E+03</pdfrwt>
<totfact> 0.16239866E+04</totfact>
</mgrwt>
</event>
<event>
 4    1  0.1101825E+000  0.2150658E+03  0.7546771E-02  0.1137616E+00
         21   -1    0    0  503  502  0.00000000000E+00  0.00000000000E+00  0.41153811222E+03  0.41153811222E+03  0.00000000000E+00 0.  1.
         21   -1    0    0  501  503 -0.00000000000E+00 -0.00000000000E+00 -0.12460697600E+03  0.12460697600E+03  0.00000000000E+00 0.  1.
          6    1    1    2  501    0 -0.30348193334E+02  0.12549210396E+03  0.59530996244E+02  0.22315290836E+03  0.17200000000E+03 0.  1.
         -6    1    1    2    0  502  0.30348193334E+02 -0.12549210396E+03  0.22740013997E+03  0.31299217986E+03  0.17200000000E+03 0.  1.
<mgrwt>
<rscale>  2 0.21506576E+03</rscale>
<asrwt>0</asrwt>
<pdfrwt beam="1">  1       21 0.10288453E+00 0.21506576E+03</pdfrwt>
<pdfrwt beam="2">  1       21 0.31151745E-01 0.21506576E+03</pdfrwt>
<totfact> 0.74722326E+03</totfact>
</mgrwt>
</event>
<event>
 4    1  0.1101825E+000  0.1838543E+03  0.7546771E-02  0.1164124E+00
         21   -1    0    0  501  502  0.00000000000E+00  0.00000000000E+00  0.22872593058E+03  0.22872593058E+03  0.00000000000E+00 0.  1.
         21   -1    0    0  502  503 -0.00000000000E+00 -0.00000000000E+00 -0.24760644410E+03  0.24760644410E+03  0.00000000000E+00 0.  1.
          6    1    1    2  501    0 -0.52888869942E+02 -0.37698547474E+02  0.14177987672E+03  0.23217223453E+03  0.17200000000E+03 0.  1.
         -6    1    1    2    0  503  0.52888869942E+02  0.37698547474E+02 -0.16066039024E+03  0.24416014015E+03  0.17200000000E+03 0.  1.
<mgrwt>
<rscale>  2 0.18385433E+03</rscale>
<asrwt>0</asrwt>
<pdfrwt beam="1">  1       21 0.57181483E-01 0.18385433E+03</pdfrwt>
<pdfrwt beam="2">  1       21 0.61901611E-01 0.18385433E+03</pdfrwt>
<totfact> 0.70039585E+03</totfact>
</mgrwt>
</event>
<event>
 4    1  0.1101825E+000  0.1774573E+03  0.7546771E-02  0.1170287E+00
         21   -1    0    0  501  502  0.00000000000E+00  0.00000000000E+00  0.81281707122E+02  0.81281707122E+02  0.00000000000E+00 0. -1.
         21   -1    0    0  502  503 -0.00000000000E+00 -0.00000000000E+00 -0.39647079807E+03  0.39647079807E+03  0.00000000000E+00 0. -1.
          6    1    1    2  501    0  0.37315557989E+02  0.22685354398E+02 -0.12152506287E+03  0.21508002482E+03  0.17200000000E+03 0. -1.
         -6    1    1    2    0  503 -0.37315557989E+02 -0.22685354398E+02 -0.19366402808E+03  0.26267248037E+03  0.17200000000E+03 0. -1.
<mgrwt>
<rscale>  2 0.17745725E+03</rscale>
<asrwt>0</asrwt>
<pdfrwt beam="1">  1       21 0.20320427E-01 0.17745725E+03</pdfrwt>
<pdfrwt beam="2">  1       21 0.99117699E-01 0.17745725E+03</pdfrwt>
<totfact> 0.18965903E+04</totfact>
</mgrwt>
</event>
<event>
 4    1  0.1101825E+000  0.1786987E+03  0.7546771E-02  0.1169068E+00
         21   -1    0    0  503  502  0.00000000000E+00  0.00000000000E+00  0.94927724423E+03  0.94927724423E+03  0.00000000000E+00 0.  1.
         21   -1    0    0  501  503 -0.00000000000E+00 -0.00000000000E+00 -0.10677831437E+03  0.10677831437E+03  0.00000000000E+00 0.  1.
          6    1    1    2  501    0  0.41696352628E+02  0.24711069590E+02 -0.15758310882E+02  0.17939216021E+03  0.17200000000E+03 0.  1.
         -6    1    1    2    0  502 -0.41696352628E+02 -0.24711069590E+02  0.85825724074E+03  0.87666339839E+03  0.17200000000E+03 0.  1.
<mgrwt>
<rscale>  2 0.17869869E+03</rscale>
<asrwt>0</asrwt>
<pdfrwt beam="1">  1       21 0.23731929E+00 0.17869869E+03</pdfrwt>
<pdfrwt beam="2">  1       21 0.26694581E-01 0.17869869E+03</pdfrwt>
<totfact> 0.10743309E+03</totfact>
</mgrwt>
</event>
<event>
 4    1  0.1101825E+000  0.2357618E+03  0.7546771E-02  0.1122649E+00
         21   -1    0    0  501  502  0.00000000000E+00  0.00000000000E+00  0.12528899396E+04  0.12528899396E+04  0.00000000000E+00 0.  1.
         21   -1    0    0  502  503 -0.00000000000E+00 -0.00000000000E+00 -0.45502311448E+02  0.45502311448E+02  0.00000000000E+00 0.  1.
          6    1    1    2  501    0 -0.10388987376E+03 -0.12331478138E+03  0.70635918300E+03  0.74466565423E+03  0.17200000000E+03 0.  1.
         -6    1    1    2    0  503  0.10388987376E+03  0.12331478138E+03  0.50102844513E+03  0.55372659680E+03  0.17200000000E+03 0.  1.
<mgrwt>
<rscale>  2 0.23576183E+03</rscale>
<asrwt>0</asrwt>
<pdfrwt beam="1">  1       21 0.31322237E+00 0.23576183E+03</pdfrwt>
<pdfrwt beam="2">  1       21 0.11375582E-01 0.23576183E+03</pdfrwt>
<totfact> 0.17558688E+03</totfact>
</mgrwt>
</event>
<event>
 4    1  0.1101825E+000  0.1770779E+03  0.7546771E-02  0.1170661E+00
         21   -1    0    0  501  502  0.00000000000E+00  0.00000000000E+00  0.10244983075E+04  0.10244983075E+04  0.00000000000E+00 0.  1.
         21   -1    0    0  502  503 -0.00000000000E+00 -0.00000000000E+00 -0.18530649822E+03  0.18530649822E+03  0.00000000000E+00 0.  1.
          6    1    1    2  501    0 -0.46431769709E+00 -0.42099419504E+02  0.97228993084E+03  0.98828350503E+03  0.17200000000E+03 0.  1.
         -6    1    1    2    0  503  0.46431769709E+00  0.42099419504E+02 -0.13309812153E+03  0.22152130071E+03  0.17200000000E+03 0.  1.
<mgrwt>
<rscale>  2 0.17707788E+03</rscale>
<asrwt>0</asrwt>
<pdfrwt beam="1">  1       21 0.25612456E+00 0.17707788E+03</pdfrwt>
<pdfrwt beam="2">  1       21 0.46326627E-01 0.17707788E+03</pdfrwt>
<totfact> 0.27960808E+02</totfact>
</mgrwt>
</event>
<event>
 4    1  0.1101825E+000  0.1775981E+03  0.7546771E-02  0.1170148E+00
         21   -1    0    0  503  502  0.00000000000E+00  0.00000000000E+00  0.29108842541E+02  0.29108842541E+02  0.00000000000E+00 0.  1.
         21   -1    0    0  501  503 -0.00000000000E+00 -0.00000000000E+00 -0.12848072143E+04  0.12848072143E+04  0.00000000000E+00 0.  1.
          6    1    1    2  501    0  0.36618415162E+02 -0.24822926567E+02 -0.88785734013E+03  0.90544560434E+03  0.17200000000E+03 0.  1.
         -6    1    1    2    0  502 -0.36618415162E+02  0.24822926567E+02 -0.36784103168E+03  0.40847045254E+03  0.17200000000E+03 0.  1.
<mgrwt>
<rscale>  2 0.17759810E+03</rscale>
<asrwt>0</asrwt>
<pdfrwt beam="1">  1       21 0.72772111E-02 0.17759810E+03</pdfrwt>
<pdfrwt beam="2">  1       21 0.32120178E+00 0.17759810E+03</pdfrwt>
<totfact> 0.37149380E+03</totfact>
</mgrwt>
</event>
<event>
 4    1  0.1101825E+000  0.2577246E+03  0.7546771E-02  0.1108518E+00
         21   -1    0    0  501  502  0.00000000000E+00  0.00000000000E+00  0.63557711357E+03  0.63557711357E+03  0.00000000000E+00 0.  1.
         21   -1    0    0  502  503 -0.00000000000E+00 -0.00000000000E+00 -0.10676119584E+03  0.10676119584E+03  0.00000000000E+00 0.  1.
          6    1    1    2  501    0 -0.14496353337E+03 -0.12579170927E+03  0.31834697325E+03  0.40959342707E+03  0.17200000000E+03 0.  1.
         -6    1    1    2    0  503  0.14496353337E+03  0.12579170927E+03  0.21046894449E+03  0.33274488234E+03  0.17200000000E+03 0.  1.
<mgrwt>
<rscale>  2 0.25772462E+03</rscale>
<asrwt>0</asrwt>
<pdfrwt beam="1">  1       21 0.15889427E+00 0.25772462E+03</pdfrwt>
<pdfrwt beam="2">  1       21 0.26690301E-01 0.25772462E+03</pdfrwt>
<totfact> 0.32528830E+03</totfact>
</mgrwt>
</event>
<event>
 4    1  0.1101825E+000  0.1797249E+03  0.7546771E-02  0.1168070E+00
         21   -1    0    0  503  502  0.00000000000E+00  0.00000000000E+00  0.30472811536E+03  0.30472811536E+03  0.00000000000E+00 0.  1.
         21   -1    0    0  501  503 -0.00000000000E+00 -0.00000000000E+00 -0.16126555741E+03  0.16126555741E+03  0.00000000000E+00 0.  1.
          6    1    1    2  501    0 -0.34997516802E+02  0.38628956357E+02 -0.64666885155E+02  0.19100478656E+03  0.17200000000E+03 0.  1.
         -6    1    1    2    0  502  0.34997516802E+02 -0.38628956357E+02  0.20812944310E+03  0.27498888621E+03  0.17200000000E+03 0.  1.
<mgrwt>
<rscale>  2 0.17972485E+03</rscale>
<asrwt>0</asrwt>
<pdfrwt beam="1">  1       21 0.76182028E-01 0.17972485E+03</pdfrwt>
<pdfrwt beam="2">  1       21 0.40316390E-01 0.17972485E+03</pdfrwt>
<totfact> 0.91856412E+03</totfact>
</mgrwt>
</event>
<event>
 4    1  0.1101825E+000  0.2343448E+03  0.7546771E-02  0.1123619E+00
         21   -1    0    0  501  502  0.00000000000E+00  0.00000000000E+00  0.39176041891E+02  0.39176041891E+02  0.00000000000E+00 0. -1.
         21   -1    0    0  502  503 -0.00000000000E+00 -0.00000000000E+00 -0.14337591102E+04  0.14337591102E+04  0.00000000000E+00 0.  1.
          6    1    1    2  501    0  0.13527183687E+03  0.83875092606E+02 -0.80722292378E+03  0.84055121777E+03  0.17200000000E+03 0.  1.
         -6    1    1    2    0  503 -0.13527183687E+03 -0.83875092606E+02 -0.58736014450E+03  0.63238393429E+03  0.17200000000E+03 0.  1.
<mgrwt>
<rscale>  2 0.23434483E+03</rscale>
<asrwt>0</asrwt>
<pdfrwt beam="1">  1       21 0.97940118E-02 0.23434483E+03</pdfrwt>
<pdfrwt beam="2">  1       21 0.35843973E+00 0.23434483E+03</pdfrwt>
<totfact> 0.12413482E+03</totfact>
</mgrwt>
</event>
<event>
 4    1  0.1101825E+000  0.1843407E+03  0.7546771E-02  0.1163667E+00
         21   -1    0    0  503  502  0.00000000000E+00  0.00000000000E+00  0.28199133861E+03  0.28199133861E+03  0.00000000000E+00 0. -1.
         21   -1    0    0  501  503 -0.00000000000E+00 -0.00000000000E+00 -0.32913390270E+03  0.32913390270E+03  0.00000000000E+00 0. -1.
          6    1    1    2  501    0  0.25008319576E+02 -0.61417147506E+02 -0.26684809959E+03  0.32432913886E+03  0.17200000000E+03 0. -1.
         -6    1    1    2    0  502 -0.25008319576E+02  0.61417147506E+02  0.21970553550E+03  0.28679610246E+03  0.17200000000E+03 0. -1.
<mgrwt>
<rscale>  2 0.18434067E+03</rscale>
<asrwt>0</asrwt>
<pdfrwt beam="1">  1       21 0.70497835E-01 0.18434067E+03</pdfrwt>
<pdfrwt beam="2">  1       21 0.82283475E-01 0.18434067E+03</pdfrwt>
<totfact> 0.23714354E+03</totfact>
</mgrwt>
</event>
<event>
 4    1  0.1101825E+000  0.1860677E+03  0.7546771E-02  0.1162057E+00
         21   -1    0    0  501  502  0.00000000000E+00  0.00000000000E+00  0.35346383713E+03  0.35346383713E+03  0.00000000000E+00 0. -1.
         21   -1    0    0  502  503 -0.00000000000E+00 -0.00000000000E+00 -0.16347296945E+03  0.16347296945E+03  0.00000000000E+00 0. -1.
          6    1    1    2  501    0  0.16338378474E+01  0.70954475409E+02  0.25863437801E+03  0.31861096732E+03  0.17200000000E+03 0. -1.
         -6    1    1    2    0  503 -0.16338378474E+01 -0.70954475409E+02 -0.68643510327E+02  0.19832583926E+03  0.17200000000E+03 0. -1.
<mgrwt>
<rscale>  2 0.18606775E+03</rscale>
<asrwt>0</asrwt>
<pdfrwt beam="1">  1       21 0.88365958E-01 0.18606775E+03</pdfrwt>
<pdfrwt beam="2">  1       21 0.40868243E-01 0.18606775E+03</pdfrwt>
<totfact> 0.63527416E+03</totfact>
</mgrwt>
</event>
<event>
 4    1  0.1101825E+000  0.2582474E+03  0.7546771E-02  0.1108201E+00
         21   -1    0    0  503  502  0.00000000000E+00  0.00000000000E+00  0.46125064805E+03  0.46125064805E+03  0.00000000000E+00 0.  1.
         21   -1    0    0  501  503 -0.00000000000E+00 -0.00000000000E+00 -0.35927428846E+03  0.35927428846E+03  0.00000000000E+00 0. -1.
          6    1    1    2  501    0 -0.94771353390E+02  0.16770848505E+03 -0.26615101261E+03  0.37084782175E+03  0.17200000000E+03 0. -1.
         -6    1    1    2    0  502  0.94771353390E+02 -0.16770848505E+03  0.36812737220E+03  0.44967711477E+03  0.17200000000E+03 0.  1.
<mgrwt>
<rscale>  2 0.25824745E+03</rscale>
<asrwt>0</asrwt>
<pdfrwt beam="1">  1       21 0.11531266E+00 0.25824745E+03</pdfrwt>
<pdfrwt beam="2">  1       21 0.89818572E-01 0.25824745E+03</pdfrwt>
<totfact> 0.57742913E+02</totfact>
</mgrwt>
</event>
<event>
 4    1  0.1101825E+000  0.1891168E+03  0.7546771E-02  0.1159260E+00
         21   -1    0    0  503  502  0.00000000000E+00  0.00000000000E+00  0.13457716203E+03  0.13457716203E+03  0.00000000000E+00 0. -1.
         21   -1    0    0  501  503 -0.00000000000E+00 -0.00000000000E+00 -0.44131714937E+03  0.44131714937E+03  0.00000000000E+00 0. -1.
          6    1    1    2  501    0 -0.61155133525E+02 -0.49408743311E+02 -0.33498307705E+03  0.38468017388E+03  0.17200000000E+03 0. -1.
         -6    1    1    2    0  502  0.61155133525E+02  0.49408743311E+02  0.28243089705E+02  0.19121413752E+03  0.17200000000E+03 0. -1.
<mgrwt>
<rscale>  2 0.18911683E+03</rscale>
<asrwt>0</asrwt>
<pdfrwt beam="1">  1       21 0.33644291E-01 0.18911683E+03</pdfrwt>
<pdfrwt beam="2">  1       21 0.11032929E+00 0.18911683E+03</pdfrwt>
<totfact> 0.55331547E+03</totfact>
</mgrwt>
</event>
<event>
 4    1  0.1101825E+000  0.1816022E+03  0.7546771E-02  0.1166261E+00
         21   -1    0    0  501  502  0.00000000000E+00  0.00000000000E+00  0.50490481461E+03  0.50490481461E+03  0.00000000000E+00 0.  1.
         21   -1    0    0  502  503 -0.00000000000E+00 -0.00000000000E+00 -0.14458152450E+03  0.14458152450E+03  0.00000000000E+00 0.  1.
          6    1    1    2  501    0  0.55366940293E+02  0.18162511616E+02  0.42060916557E+03  0.45813911104E+03  0.17200000000E+03 0.  1.
         -6    1    1    2    0  503 -0.55366940293E+02 -0.18162511616E+02 -0.60285875465E+02  0.19134722806E+03  0.17200000000E+03 0.  1.
<mgrwt>
<rscale>  2 0.18160224E+03</rscale>
<asrwt>0</asrwt>
<pdfrwt beam="1">  1       21 0.12622620E+00 0.18160224E+03</pdfrwt>
<pdfrwt beam="2">  1       21 0.36145382E-01 0.18160224E+03</pdfrwt>
<totfact> 0.34693861E+03</totfact>
</mgrwt>
</event>
<event>
 4    1  0.1101825E+000  0.2516708E+03  0.7546771E-02  0.1112253E+00
         21   -1    0    0  501  502  0.00000000000E+00  0.00000000000E+00  0.11082964420E+03  0.11082964420E+03  0.00000000000E+00 0.  1.
         21   -1    0    0  502  503 -0.00000000000E+00 -0.00000000000E+00 -0.59360119968E+03  0.59360119968E+03  0.00000000000E+00 0.  1.
          6    1    1    2  501    0 -0.18128306582E+03  0.29843460987E+02 -0.30936151941E+03  0.39880161961E+03  0.17200000000E+03 0.  1.
         -6    1    1    2    0  503  0.18128306582E+03 -0.29843460987E+02 -0.17341003607E+03  0.30562922427E+03  0.17200000000E+03 0.  1.
<mgrwt>
<rscale>  2 0.25167078E+03</rscale>
<asrwt>0</asrwt>
<pdfrwt beam="1">  1       21 0.27707411E-01 0.25167078E+03</pdfrwt>
<pdfrwt beam="2">  1       21 0.14840030E+00 0.25167078E+03</pdfrwt>
<totfact> 0.36493269E+03</totfact>
</mgrwt>
</event>
<event>
 4    1  0.1101825E+000  0.2217812E+03  0.7546771E-02  0.1132562E+00
         21   -1    0    0  503  502  0.00000000000E+00  0.00000000000E+00  0.34016639513E+03  0.34016639513E+03  0.00000000000E+00 0. -1.
         21   -1    0    0  501  503 -0.00000000000E+00 -0.00000000000E+00 -0.15238090887E+03  0.15238090887E+03  0.00000000000E+00 0.  1.
          6    1    1    2  501    0  0.12918297859E+03 -0.53987693947E+02  0.14955514880E+03  0.26749515059E+03  0.17200000000E+03 0. -1.
         -6    1    1    2    0  502 -0.12918297859E+03  0.53987693947E+02  0.38230337457E+02  0.22505215342E+03  0.17200000000E+03 0.  1.
<mgrwt>
<rscale>  2 0.22178123E+03</rscale>
<asrwt>0</asrwt>
<pdfrwt beam="1">  1       21 0.85041598E-01 0.22178123E+03</pdfrwt>
<pdfrwt beam="2">  1       21 0.38095228E-01 0.22178123E+03</pdfrwt>
<totfact> 0.77930303E+03</totfact>
</mgrwt>
</event>
<event>
 4    1  0.1101825E+000  0.1928351E+03  0.7546771E-02  0.1155929E+00
         21   -1    0    0  503  502  0.00000000000E+00  0.00000000000E+00  0.17093834769E+03  0.17093834769E+03  0.00000000000E+00 0.  1.
         21   -1    0    0  501  503 -0.00000000000E+00 -0.00000000000E+00 -0.31318629517E+03  0.31318629517E+03  0.00000000000E+00 0.  1.
          6    1    1    2  501    0  0.80543494694E+02  0.33378371036E+02 -0.20489661622E+03  0.28136807482E+03  0.17200000000E+03 0.  1.
         -6    1    1    2    0  502 -0.80543494694E+02 -0.33378371036E+02  0.62648668742E+02  0.20275656805E+03  0.17200000000E+03 0.  1.
<mgrwt>
<rscale>  2 0.19283509E+03</rscale>
<asrwt>0</asrwt>
<pdfrwt beam="1">  1       21 0.42734587E-01 0.19283509E+03</pdfrwt>
<pdfrwt beam="2">  1       21 0.78296573E-01 0.19283509E+03</pdfrwt>
<totfact> 0.76037316E+03</totfact>
</mgrwt>
</event>
<event>
 4    1  0.1101825E+000  0.1999420E+03  0.7546771E-02  0.1149788E+00
         21   -1    0    0  501  502  0.00000000000E+00  0.00000000000E+00  0.68065388119E+02  0.68065388119E+02  0.00000000000E+00 0.  1.
         21   -1    0    0  502  503 -0.00000000000E+00 -0.00000000000E+00 -0.64236650022E+03  0.64236650022E+03  0.00000000000E+00 0.  1.
          6    1    1    2  501    0 -0.29261063619E+02  0.97655581615E+02 -0.18317585376E+03  0.27116455496E+03  0.17200000000E+03 0.  1.
         -6    1    1    2    0  503  0.29261063619E+02 -0.97655581615E+02 -0.39112525834E+03  0.43926733338E+03  0.17200000000E+03 0.  1.
<mgrwt>
<rscale>  2 0.19994205E+03</rscale>
<asrwt>0</asrwt>
<pdfrwt beam="1">  1       21 0.17016347E-01 0.19994205E+03</pdfrwt>
<pdfrwt beam="2">  1       21 0.16059162E+00 0.19994205E+03</pdfrwt>
<totfact> 0.77152202E+03</totfact>
</mgrwt>
</event>
<event>
 4    1  0.1101825E+000  0.1949425E+03  0.7546771E-02  0.1154078E+00
         21   -1    0    0  503  502  0.00000000000E+00  0.00000000000E+00  0.45947268568E+03  0.45947268568E+03  0.00000000000E+00 0.  1.
         21   -1    0    0  501  503 -0.00000000000E+00 -0.00000000000E+00 -0.10582720752E+03  0.10582720752E+03  0.00000000000E+00 0.  1.
          6    1    1    2  501    0 -0.52474898038E+02  0.75265978689E+02  0.44715635363E+02  0.20000517623E+03  0.17200000000E+03 0.  1.
         -6    1    1    2    0  502  0.52474898038E+02 -0.75265978689E+02  0.30892984281E+03  0.36529471697E+03  0.17200000000E+03 0.  1.
<mgrwt>
<rscale>  2 0.19494251E+03</rscale>
<asrwt>0</asrwt>
<pdfrwt beam="1">  1       21 0.11486817E+00 0.19494251E+03</pdfrwt>
<pdfrwt beam="2">  1       21 0.26456803E-01 0.19494251E+03</pdfrwt>
<totfact> 0.79762302E+03</totfact>
</mgrwt>
</event>
<event>
 4    1  0.1101825E+000  0.1986266E+03  0.7546771E-02  0.1150903E+00
         21   -1    0    0  503  502  0.00000000000E+00  0.00000000000E+00  0.42844008694E+03  0.42844008694E+03  0.00000000000E+00 0.  1.
         21   -1    0    0  501  503 -0.00000000000E+00 -0.00000000000E+00 -0.93689425280E+02  0.93689425280E+02  0.00000000000E+00 0.  1.
          6    1    1    2  501    0  0.91051848346E+02  0.39725142039E+02  0.20154828526E+03  0.28297391627E+03  0.17200000000E+03 0. -1.
         -6    1    1    2    0  502 -0.91051848346E+02 -0.39725142039E+02  0.13320237640E+03  0.23915559596E+03  0.17200000000E+03 0. -1.
<mgrwt>
<rscale>  2 0.19862660E+03</rscale>
<asrwt>0</asrwt>
<pdfrwt beam="1">  1       21 0.10711002E+00 0.19862660E+03</pdfrwt>
<pdfrwt beam="2">  1       21 0.23422357E-01 0.19862660E+03</pdfrwt>
<totfact> 0.11893148E+04</totfact>
</mgrwt>
</event>
<event>
 4    1  0.1101825E+000  0.2037858E+03  0.7546771E-02  0.1146584E+00
         21   -1    0    0  503  502  0.00000000000E+00  0.00000000000E+00  0.84243990417E+02  0.84243990417E+02  0.00000000000E+00 0. -1.
         21   -1    0    0  501  503 -0.00000000000E+00 -0.00000000000E+00 -0.54536982057E+03  0.54536982057E+03  0.00000000000E+00 0.  1.
          6    1    1    2  501    0 -0.78080414404E+02 -0.76472934799E+02 -0.13297014215E+03  0.24333047399E+03  0.17200000000E+03 0. -1.
         -6    1    1    2    0  502  0.78080414404E+02  0.76472934799E+02 -0.32815568800E+03  0.38628333699E+03  0.17200000000E+03 0.  1.
<mgrwt>
<rscale>  2 0.20378582E+03</rscale>
<asrwt>0</asrwt>
<pdfrwt beam="1">  1       21 0.21060998E-01 0.20378582E+03</pdfrwt>
<pdfrwt beam="2">  1       21 0.13634245E+00 0.20378582E+03</pdfrwt>
<totfact> 0.79584642E+03</totfact>
</mgrwt>
</event>
<event>
 4    1  0.1101825E+000  0.1859287E+03  0.7546771E-02  0.1162186E+00
         21   -1    0    0  503  502  0.00000000000E+00  0.00000000000E+00  0.32290923088E+03  0.32290923088E+03  0.00000000000E+00 0. -1.
         21   -1    0    0  501  503 -0.00000000000E+00 -0.00000000000E+00 -0.11502042360E+03  0.11502042360E+03  0.00000000000E+00 0. -1.
          6    1    1    2  501    0 -0.14505614362E+02 -0.69101785955E+02  0.46326733971E+02  0.19161324576E+03  0.17200000000E+03 0. -1.
         -6    1    1    2    0  502  0.14505614362E+02  0.69101785955E+02  0.16156207331E+03  0.24631640872E+03  0.17200000000E+03 0. -1.
<mgrwt>
<rscale>  2 0.18592867E+03</rscale>
<asrwt>0</asrwt>
<pdfrwt beam="1">  1       21 0.80727306E-01 0.18592867E+03</pdfrwt>
<pdfrwt beam="2">  1       21 0.28755107E-01 0.18592867E+03</pdfrwt>
<totfact> 0.15658951E+04</totfact>
</mgrwt>
</event>
<event>
 4    1  0.1101825E+000  0.1851303E+03  0.7546771E-02  0.1162928E+00
         21   -1    0    0  501  502  0.00000000000E+00  0.00000000000E+00  0.62653771821E+03  0.62653771821E+03  0.00000000000E+00 0.  1.
         21   -1    0    0  502  503 -0.00000000000E+00 -0.00000000000E+00 -0.79310685248E+02  0.79310685248E+02  0.00000000000E+00 0.  1.
          6    1    1    2  501    0  0.44174866662E+02  0.52324099307E+02  0.47020045974E+03  0.50533325891E+03  0.17200000000E+03 0.  1.
         -6    1    1    2    0  503 -0.44174866662E+02 -0.52324099307E+02  0.77026573218E+02  0.20051514455E+03  0.17200000000E+03 0.  1.
<mgrwt>
<rscale>  2 0.18513031E+03</rscale>
<asrwt>0</asrwt>
<pdfrwt beam="1">  1       21 0.15663441E+00 0.18513031E+03</pdfrwt>
<pdfrwt beam="2">  1       21 0.19827673E-01 0.18513031E+03</pdfrwt>
<totfact> 0.62909999E+03</totfact>
</mgrwt>
</event>
<event>
 4    1  0.1101825E+000  0.1994004E+03  0.7546771E-02  0.1150246E+00
         21   -1    0    0  503  502  0.00000000000E+00  0.00000000000E+00  0.84807612640E+03  0.84807612640E+03  0.00000000000E+00 0. -1.
         21   -1    0    0  501  503 -0.00000000000E+00 -0.00000000000E+00 -0.79505035823E+02  0.79505035823E+02  0.00000000000E+00 0. -1.
          6    1    1    2  501    0  0.44471099219E+02  0.90547509441E+02  0.87201898856E+02  0.21763432931E+03  0.17200000000E+03 0. -1.
         -6    1    1    2    0  502 -0.44471099219E+02 -0.90547509441E+02  0.68136919172E+03  0.70994683291E+03  0.17200000000E+03 0. -1.
<mgrwt>
<rscale>  2 0.19940043E+03</rscale>
<asrwt>0</asrwt>
<pdfrwt beam="1">  1       21 0.21201900E+00 0.19940043E+03</pdfrwt>
<pdfrwt beam="2">  1       21 0.19876262E-01 0.19940043E+03</pdfrwt>
<totfact> 0.26140197E+03</totfact>
</mgrwt>
</event>
<event>
 4    1  0.1101825E+000  0.3466115E+03  0.7546771E-02  0.1064014E+00
         21   -1    0    0  501  502  0.00000000000E+00  0.00000000000E+00  0.11784762243E+04  0.11784762243E+04  0.00000000000E+00 0. -1.
         21   -1    0    0  502  503 -0.00000000000E+00 -0.00000000000E+00 -0.11485589832E+03  0.11485589832E+03  0.00000000000E+00 0.  1.
          6    1    1    2  501    0  0.16325594076E+03  0.25279054725E+03  0.74862272473E+03  0.82497002791E+03  0.17200000000E+03 0. -1.
         -6    1    1    2    0  503 -0.16325594076E+03 -0.25279054725E+03  0.31499760129E+03  0.46836209475E+03  0.17200000000E+03 0. -1.
<mgrwt>
<rscale>  2 0.34661154E+03</rscale>
<asrwt>0</asrwt>
<pdfrwt beam="1">  1       21 0.29461902E+00 0.34661154E+03</pdfrwt>
<pdfrwt beam="2">  1       21 0.28713978E-01 0.34661154E+03</pdfrwt>
<totfact> 0.36138159E+02</totfact>
</mgrwt>
</event>
<event>
 4    1  0.1101825E+000  0.2053634E+03  0.7546771E-02  0.1145291E+00
         21   -1    0    0  503  502  0.00000000000E+00  0.00000000000E+00  0.15433929683E+03  0.15433929683E+03  0.00000000000E+00 0.  1.
         21   -1    0    0  501  503 -0.00000000000E+00 -0.00000000000E+00 -0.30309327406E+03  0.30309327406E+03  0.00000000000E+00 0. -1.
          6    1    1    2  501    0  0.83711588802E+02 -0.74716014333E+02 -0.14613819601E+03  0.25205254458E+03  0.17200000000E+03 0. -1.
         -6    1    1    2    0  502 -0.83711588802E+02  0.74716014333E+02 -0.26157812238E+01  0.20538002631E+03  0.17200000000E+03 0.  1.
<mgrwt>
<rscale>  2 0.20536337E+03</rscale>
<asrwt>0</asrwt>
<pdfrwt beam="1">  1       21 0.38584824E-01 0.20536337E+03</pdfrwt>
<pdfrwt beam="2">  1       21 0.75773318E-01 0.20536337E+03</pdfrwt>
<totfact> 0.99765514E+03</totfact>
</mgrwt>
</event>
<event>
 4    1  0.1101825E+000  0.1844855E+03  0.7546771E-02  0.1163531E+00
         21   -1    0    0  501  502  0.00000000000E+00  0.00000000000E+00  0.21369256302E+02  0.21369256302E+02  0.00000000000E+00 0.  1.
         21   -1    0    0  502  503 -0.00000000000E+00 -0.00000000000E+00 -0.16047153235E+04  0.16047153235E+04  0.00000000000E+00 0.  1.
          6    1    1    2  501    0 -0.59171613791E+02  0.30815993784E+02 -0.86201346564E+03  0.88153395868E+03  0.17200000000E+03 0.  1.
         -6    1    1    2    0  503  0.59171613791E+02 -0.30815993784E+02 -0.72133260155E+03  0.74455062112E+03  0.17200000000E+03 0.  1.
<mgrwt>
<rscale>  2 0.18448552E+03</rscale>
<asrwt>0</asrwt>
<pdfrwt beam="1">  1       21 0.53423147E-02 0.18448552E+03</pdfrwt>
<pdfrwt beam="2">  1       21 0.40117878E+00 0.18448552E+03</pdfrwt>
<totfact> 0.20847653E+03</totfact>
</mgrwt>
</event>
<event>
 4    1  0.1101825E+000  0.2046704E+03  0.7546771E-02  0.1145857E+00
         21   -1    0    0  503  502  0.00000000000E+00  0.00000000000E+00  0.65615787362E+02  0.65615787362E+02  0.00000000000E+00 0.  1.
         21   -1    0    0  501  503 -0.00000000000E+00 -0.00000000000E+00 -0.83798129657E+03  0.83798129657E+03  0.00000000000E+00 0.  1.
          6    1    1    2  501    0 -0.42857070071E+02  0.10231926049E+03 -0.60666500793E+03  0.64025962810E+03  0.17200000000E+03 0.  1.
         -6    1    1    2    0  502  0.42857070071E+02 -0.10231926049E+03 -0.16570050128E+03  0.26333745584E+03  0.17200000000E+03 0.  1.
<mgrwt>
<rscale>  2 0.20467037E+03</rscale>
<asrwt>0</asrwt>
<pdfrwt beam="1">  1       21 0.16403947E-01 0.20467037E+03</pdfrwt>
<pdfrwt beam="2">  1       21 0.20949532E+00 0.20467037E+03</pdfrwt>
<totfact> 0.38488602E+03</totfact>
</mgrwt>
</event>
<event>
 4    1  0.1101825E+000  0.1972932E+03  0.7546771E-02  0.1152043E+00
         21   -1    0    0  501  502  0.00000000000E+00  0.00000000000E+00  0.39822178409E+02  0.39822178409E+02  0.00000000000E+00 0.  1.
         21   -1    0    0  502  503 -0.00000000000E+00 -0.00000000000E+00 -0.10590708535E+04  0.10590708535E+04  0.00000000000E+00 0. -1.
          6    1    1    2  501    0 -0.25805256908E+02 -0.93138150303E+02 -0.35710173219E+03  0.40797827572E+03  0.17200000000E+03 0.  1.
         -6    1    1    2    0  503  0.25805256908E+02  0.93138150303E+02 -0.66214694289E+03  0.69091475618E+03  0.17200000000E+03 0. -1.
<mgrwt>
<rscale>  2 0.19729325E+03</rscale>
<asrwt>0</asrwt>
<pdfrwt beam="1">  1       21 0.99555445E-02 0.19729325E+03</pdfrwt>
<pdfrwt beam="2">  1       21 0.26476772E+00 0.19729325E+03</pdfrwt>
<totfact> 0.44362371E+03</totfact>
</mgrwt>
</event>
<event>
 4    1  0.1101825E+000  0.2071045E+03  0.7546771E-02  0.1143880E+00
         21   -1    0    0  503  502  0.00000000000E+00  0.00000000000E+00  0.18569603454E+03  0.18569603454E+03  0.00000000000E+00 0.  1.
         21   -1    0    0  501  503 -0.00000000000E+00 -0.00000000000E+00 -0.58777077969E+03  0.58777077969E+03  0.00000000000E+00 0. -1.
          6    1    1    2  501    0 -0.37120944923E+02  0.10922603523E+03 -0.50234753494E+03  0.54336482880E+03  0.17200000000E+03 0. -1.
         -6    1    1    2    0  502  0.37120944923E+02 -0.10922603523E+03  0.10027278978E+03  0.23010198542E+03  0.17200000000E+03 0.  1.
<mgrwt>
<rscale>  2 0.20710454E+03</rscale>
<asrwt>0</asrwt>
<pdfrwt beam="1">  1       21 0.46424009E-01 0.20710454E+03</pdfrwt>
<pdfrwt beam="2">  1       21 0.14694269E+00 0.20710454E+03</pdfrwt>
<totfact> 0.13823997E+03</totfact>
</mgrwt>
</event>
<event>
 4    1  0.1101825E+000  0.2625578E+03  0.7546771E-02  0.1105616E+00
         21   -1    0    0  501  502  0.00000000000E+00  0.00000000000E+00  0.52777450268E+03  0.52777450268E+03  0.00000000000E+00 0.  1.
         21   -1    0    0  502  503 -0.00000000000E+00 -0.00000000000E+00 -0.13209278308E+03  0.13209278308E+03  0.00000000000E+00 0. -1.
          6    1    1    2  501    0  0.15685957285E+03 -0.12143991135E+03  0.23270886416E+03  0.35084183491E+03  0.17200000000E+03 0. -1.
         -6    1    1    2    0  503 -0.15685957285E+03  0.12143991135E+03  0.16297285545E+03  0.30902545085E+03  0.17200000000E+03 0.  1.
<mgrwt>
<rscale>  2 0.26255776E+03</rscale>
<asrwt>0</asrwt>
<pdfrwt beam="1">  1       21 0.13194362E+00 0.26255776E+03</pdfrwt>
<pdfrwt beam="2">  1       21 0.33023197E-01 0.26255776E+03</pdfrwt>
<totfact> 0.34864899E+03</totfact>
</mgrwt>
</event>
<event>
 4    1  0.1101825E+000  0.1828528E+03  0.7546771E-02  0.1165070E+00
         21   -1    0    0  503  502  0.00000000000E+00  0.00000000000E+00  0.14356646283E+03  0.14356646283E+03  0.00000000000E+00 0. -1.
         21   -1    0    0  501  503 -0.00000000000E+00 -0.00000000000E+00 -0.31673287482E+03  0.31673287482E+03  0.00000000000E+00 0. -1.
          6    1    1    2  501    0 -0.61184803219E+02  0.10372178204E+02 -0.20499567270E+03  0.27469690215E+03  0.17200000000E+03 0. -1.
         -6    1    1    2    0  502  0.61184803219E+02 -0.10372178204E+02  0.31829260702E+02  0.18560243550E+03  0.17200000000E+03 0. -1.
<mgrwt>
<rscale>  2 0.18285284E+03</rscale>
<asrwt>0</asrwt>
<pdfrwt beam="1">  1       21 0.35891616E-01 0.18285284E+03</pdfrwt>
<pdfrwt beam="2">  1       21 0.79183218E-01 0.18285284E+03</pdfrwt>
<totfact> 0.10607805E+04</totfact>
</mgrwt>
</event>
<event>
 4    1  0.1101825E+000  0.1834757E+03  0.7546771E-02  0.1164481E+00
         21   -1    0    0  503  502  0.00000000000E+00  0.00000000000E+00  0.46829998226E+03  0.46829998226E+03  0.00000000000E+00 0.  1.
         21   -1    0    0  501  503 -0.00000000000E+00 -0.00000000000E+00 -0.74500795890E+02  0.74500795890E+02  0.00000000000E+00 0. -1.
          6    1    1    2  501    0  0.53194578801E+02  0.35350418961E+02  0.14603589298E+03  0.23449903491E+03  0.17200000000E+03 0. -1.
         -6    1    1    2    0  502 -0.53194578801E+02 -0.35350418961E+02  0.24776329339E+03  0.30830174324E+03  0.17200000000E+03 0.  1.
<mgrwt>
<rscale>  2 0.18347565E+03</rscale>
<asrwt>0</asrwt>
<pdfrwt beam="1">  1       21 0.11707499E+00 0.18347565E+03</pdfrwt>
<pdfrwt beam="2">  1       21 0.18625200E-01 0.18347565E+03</pdfrwt>
<totfact> 0.14882178E+04</totfact>
</mgrwt>
</event>
<event>
 4    1  0.1101825E+000  0.2569252E+03  0.7546771E-02  0.1109005E+00
         21   -1    0    0  501  502  0.00000000000E+00  0.00000000000E+00  0.50833213234E+03  0.50833213234E+03  0.00000000000E+00 0.  1.
         21   -1    0    0  502  503 -0.00000000000E+00 -0.00000000000E+00 -0.13554499499E+03  0.13554499499E+03  0.00000000000E+00 0. -1.
          6    1    1    2  501    0 -0.11390002719E+03  0.15314481276E+03  0.25234223898E+03  0.36012102888E+03  0.17200000000E+03 0. -1.
         -6    1    1    2    0  503  0.11390002719E+03 -0.15314481276E+03  0.12044489837E+03  0.28375609846E+03  0.17200000000E+03 0.  1.
<mgrwt>
<rscale>  2 0.25692518E+03</rscale>
<asrwt>0</asrwt>
<pdfrwt beam="1">  1       21 0.12708303E+00 0.25692518E+03</pdfrwt>
<pdfrwt beam="2">  1       21 0.33886250E-01 0.25692518E+03</pdfrwt>
<totfact> 0.36578449E+03</totfact>
</mgrwt>
</event>
<event>
 4    1  0.1101825E+000  0.2151265E+03  0.7546771E-02  0.1137569E+00
         21   -1    0    0  501  502  0.00000000000E+00  0.00000000000E+00  0.15896245329E+03  0.15896245329E+03  0.00000000000E+00 0.  1.
         21   -1    0    0  502  503 -0.00000000000E+00 -0.00000000000E+00 -0.36346019430E+03  0.36346019430E+03  0.00000000000E+00 0. -1.
          6    1    1    2  501    0 -0.12849625743E+03  0.13569410577E+02  0.14273841155E+02  0.21559953529E+03  0.17200000000E+03 0.  1.
         -6    1    1    2    0  503  0.12849625743E+03 -0.13569410577E+02 -0.21877158217E+03  0.30682311230E+03  0.17200000000E+03 0. -1.
<mgrwt>
<rscale>  2 0.21512651E+03</rscale>
<asrwt>0</asrwt>
<pdfrwt beam="1">  1       21 0.39740614E-01 0.21512651E+03</pdfrwt>
<pdfrwt beam="2">  1       21 0.90865048E-01 0.21512651E+03</pdfrwt>
<totfact> 0.61677712E+03</totfact>
</mgrwt>
</event>
<event>
 4    1  0.1101825E+000  0.2163880E+03  0.7546771E-02  0.1136605E+00
         21   -1    0    0  503  502  0.00000000000E+00  0.00000000000E+00  0.10595240045E+03  0.10595240045E+03  0.00000000000E+00 0.  1.
         21   -1    0    0  501  503 -0.00000000000E+00 -0.00000000000E+00 -0.47231801349E+03  0.47231801349E+03  0.00000000000E+00 0.  1.
          6    1    1    2  501    0  0.12947912241E+03 -0.21793019726E+02 -0.10984649539E+03  0.24267268367E+03  0.17200000000E+03 0.  1.
         -6    1    1    2    0  502 -0.12947912241E+03  0.21793019726E+02 -0.25651911765E+03  0.33559773028E+03  0.17200000000E+03 0.  1.
<mgrwt>
<rscale>  2 0.21638803E+03</rscale>
<asrwt>0</asrwt>
<pdfrwt beam="1">  1       21 0.26488101E-01 0.21638803E+03</pdfrwt>
<pdfrwt beam="2">  1       21 0.11807950E+00 0.21638803E+03</pdfrwt>
<totfact> 0.73227152E+03</totfact>
</mgrwt>
</event>
<event>
 4    1  0.1101825E+000  0.1763495E+03  0.7546771E-02  0.1171383E+00
         21   -1    0    0  501  502  0.00000000000E+00  0.00000000000E+00  0.12835990733E+04  0.12835990733E+04  0.00000000000E+00 0. -1.
         21   -1    0    0  502  503 -0.00000000000E+00 -0.00000000000E+00 -0.36328315045E+02  0.36328315045E+02  0.00000000000E+00 0. -1.
          6    1    1    2  501    0 -0.37223910152E+02 -0.11381373051E+02  0.10045206017E+04  0.10198827356E+04  0.17200000000E+03 0. -1.
         -6    1    1    2    0  503  0.37223910152E+02  0.11381373051E+02  0.24275015663E+03  0.30004465281E+03  0.17200000000E+03 0. -1.
<mgrwt>
<rscale>  2 0.17634953E+03</rscale>
<asrwt>0</asrwt>
<pdfrwt beam="1">  1       21 0.32089962E+00 0.17634953E+03</pdfrwt>
<pdfrwt beam="2">  1       21 0.90820830E-02 0.17634953E+03</pdfrwt>
<totfact> 0.25414795E+03</totfact>
</mgrwt>
</event>
<event>
 4    1  0.1101825E+000  0.2444781E+03  0.7546771E-02  0.1116845E+00
         21   -1    0    0  503  502  0.00000000000E+00  0.00000000000E+00  0.10203867681E+04  0.10203867681E+04  0.00000000000E+00 0. -1.
         21   -1    0    0  501  503 -0.00000000000E+00 -0.00000000000E+00 -0.21854778606E+03  0.21854778606E+03  0.00000000000E+00 0.  1.
          6    1    1    2  501    0  0.39618173613E+02 -0.16916253676E+03 -0.12907050870E+03  0.27645751887E+03  0.17200000000E+03 0.  1.
         -6    1    1    2    0  502 -0.39618173613E+02  0.16916253676E+03  0.93090949078E+03  0.96247703533E+03  0.17200000000E+03 0. -1.
<mgrwt>
<rscale>  2 0.24447815E+03</rscale>
<asrwt>0</asrwt>
<pdfrwt beam="1">  1       21 0.25509668E+00 0.24447815E+03</pdfrwt>
<pdfrwt beam="2">  1       21 0.54636949E-01 0.24447815E+03</pdfrwt>
<totfact> 0.18350414E+02</totfact>
</mgrwt>
</event>
<event>
 4    1  0.1101825E+000  0.1740751E+03  0.7546771E-02  0.1173664E+00
         21   -1    0    0  501  502  0.00000000000E+00  0.00000000000E+00  0.10335339606E+03  0.10335339606E+03  0.00000000000E+00 0.  1.
         21   -1    0    0  502  503 -0.00000000000E+00 -0.00000000000E+00 -0.36639479814E+03  0.36639479814E+03  0.00000000000E+00 0.  1.
          6    1    1    2  501    0  0.25123668863E+02 -0.93242840716E+01 -0.26534691299E+02  0.17608586216E+03  0.17200000000E+03 0.  1.
         -6    1    1    2    0  503 -0.25123668863E+02  0.93242840716E+01 -0.23650671078E+03  0.29366233203E+03  0.17200000000E+03 0.  1.
<mgrwt>
<rscale>  2 0.17407510E+03</rscale>
<asrwt>0</asrwt>
<pdfrwt beam="1">  1       21 0.25838349E-01 0.17407510E+03</pdfrwt>
<pdfrwt beam="2">  1       21 0.91598699E-01 0.17407510E+03</pdfrwt>
<totfact> 0.14520666E+04</totfact>
</mgrwt>
</event>
<event>
 4    1  0.1101825E+000  0.2714190E+03  0.7546771E-02  0.1100470E+00
         21   -1    0    0  503  502  0.00000000000E+00  0.00000000000E+00  0.83432388200E+03  0.83432388200E+03  0.00000000000E+00 0.  1.
         21   -1    0    0  501  503 -0.00000000000E+00 -0.00000000000E+00 -0.10037759750E+03  0.10037759750E+03  0.00000000000E+00 0.  1.
          6    1    1    2  501    0 -0.62618416674E+02 -0.20040753811E+03  0.20484075195E+03  0.34004114618E+03  0.17200000000E+03 0.  1.
         -6    1    1    2    0  502  0.62618416674E+02  0.20040753811E+03  0.52910553255E+03  0.59466033331E+03  0.17200000000E+03 0.  1.
<mgrwt>
<rscale>  2 0.27141895E+03</rscale>
<asrwt>0</asrwt>
<pdfrwt beam="1">  1       21 0.20858095E+00 0.27141895E+03</pdfrwt>
<pdfrwt beam="2">  1       21 0.25094402E-01 0.27141895E+03</pdfrwt>
<totfact> 0.16570372E+03</totfact>
</mgrwt>
</event>
<event>
 4    1  0.1101825E+000  0.1795386E+03  0.7546771E-02  0.1168250E+00
         21   -1    0    0  501  502  0.00000000000E+00  0.00000000000E+00  0.27482009649E+03  0.27482009649E+03  0.00000000000E+00 0.  1.
         21   -1    0    0  502  503 -0.00000000000E+00 -0.00000000000E+00 -0.14089141880E+03  0.14089141880E+03  0.00000000000E+00 0.  1.
          6    1    1    2  501    0 -0.42416932965E+02  0.29170236913E+02  0.15203382000E+03  0.23526236705E+03  0.17200000000E+03 0. -1.
         -6    1    1    2    0  503  0.42416932965E+02 -0.29170236913E+02 -0.18105142317E+02  0.18044914824E+03  0.17200000000E+03 0. -1.
<mgrwt>
<rscale>  2 0.17953857E+03</rscale>
<asrwt>0</asrwt>
<pdfrwt beam="1">  1       21 0.68705023E-01 0.17953857E+03</pdfrwt>
<pdfrwt beam="2">  1       21 0.35222855E-01 0.17953857E+03</pdfrwt>
<totfact> 0.15129085E+04</totfact>
</mgrwt>
</event>
<event>
 4    1  0.1101825E+000  0.1830827E+03  0.7546771E-02  0.1164853E+00
         21   -1    0    0  503  502  0.00000000000E+00  0.00000000000E+00  0.35638711564E+03  0.35638711564E+03  0.00000000000E+00 0.  1.
         21   -1    0    0  501  503 -0.00000000000E+00 -0.00000000000E+00 -0.10872617303E+03  0.10872617303E+03  0.00000000000E+00 0.  1.
          6    1    1    2  501    0  0.59845555209E+02  0.18809052512E+02  0.38397799506E+02  0.18706592940E+03  0.17200000000E+03 0.  1.
         -6    1    1    2    0  502 -0.59845555209E+02 -0.18809052512E+02  0.20926314310E+03  0.27804735927E+03  0.17200000000E+03 0.  1.
<mgrwt>
<rscale>  2 0.18308269E+03</rscale>
<asrwt>0</asrwt>
<pdfrwt beam="1">  1       21 0.89096776E-01 0.18308269E+03</pdfrwt>
<pdfrwt beam="2">  1       21 0.27181544E-01 0.18308269E+03</pdfrwt>
<totfact> 0.13961459E+04</totfact>
</mgrwt>
</event>
<event>
 4    1  0.1101825E+000  0.2111098E+03  0.7546771E-02  0.1140690E+00
         21   -1    0    0  503  502  0.00000000000E+00  0.00000000000E+00  0.17222331029E+03  0.17222331029E+03  0.00000000000E+00 0.  1.
         21   -1    0    0  501  503 -0.00000000000E+00 -0.00000000000E+00 -0.26313901922E+03  0.26313901922E+03  0.00000000000E+00 0.  1.
          6    1    1    2  501    0 -0.11006488717E+03 -0.53563851083E+02 -0.17429919486E+02  0.21182815588E+03  0.17200000000E+03 0.  1.
         -6    1    1    2    0  502  0.11006488717E+03  0.53563851083E+02 -0.73485789445E+02  0.22353417363E+03  0.17200000000E+03 0.  1.
<mgrwt>
<rscale>  2 0.21110984E+03</rscale>
<asrwt>0</asrwt>
<pdfrwt beam="1">  1       21 0.43055828E-01 0.21110984E+03</pdfrwt>
<pdfrwt beam="2">  1       21 0.65784754E-01 0.21110984E+03</pdfrwt>
<totfact> 0.10878196E+04</totfact>
</mgrwt>
</event>
<event>
 4    1  0.1101825E+000  0.1995964E+03  0.7546771E-02  0.1150080E+00
         21   -1    0    0  501  502  0.00000000000E+00  0.00000000000E+00  0.88036649878E+03  0.88036649878E+03  0.00000000000E+00 0. -1.
         21   -1    0    0  502  503 -0.00000000000E+00 -0.00000000000E+00 -0.47430867986E+02  0.47430867986E+02  0.00000000000E+00 0. -1.
          6    1    1    2  501    0 -0.10004251674E+03  0.15691005972E+02  0.51588613025E+03  0.55315206969E+03  0.17200000000E+03 0. -1.
         -6    1    1    2    0  503  0.10004251674E+03 -0.15691005972E+02  0.31704950055E+03  0.37464529708E+03  0.17200000000E+03 0. -1.
<mgrwt>
<rscale>  2 0.19959637E+03</rscale>
<asrwt>0</asrwt>
<pdfrwt beam="1">  1       21 0.22009157E+00 0.19959637E+03</pdfrwt>
<pdfrwt beam="2">  1       21 0.11857720E-01 0.19959637E+03</pdfrwt>
<totfact> 0.59834985E+03</totfact>
</mgrwt>
</event>
<event>
 4    1  0.1101825E+000  0.1830314E+03  0.7546771E-02  0.1164901E+00
         21   -1    0    0  501  502  0.00000000000E+00  0.00000000000E+00  0.85879353817E+02  0.85879353817E+02  0.00000000000E+00 0. -1.
         21   -1    0    0  502  503 -0.00000000000E+00 -0.00000000000E+00 -0.12961054970E+04  0.12961054970E+04  0.00000000000E+00 0. -1.
          6    1    1    2  501    0  0.59235308554E+02  0.20190461385E+02 -0.27387643041E+02  0.18506906684E+03  0.17200000000E+03 0. -1.
         -6    1    1    2    0  503 -0.59235308554E+02 -0.20190461385E+02 -0.11828385001E+04  0.11969157840E+04  0.17200000000E+03 0. -1.
<mgrwt>
<rscale>  2 0.18303135E+03</rscale>
<asrwt>0</asrwt>
<pdfrwt beam="1">  1       21 0.21469839E-01 0.18303135E+03</pdfrwt>
<pdfrwt beam="2">  1       21 0.32402637E+00 0.18303135E+03</pdfrwt>
<totfact> 0.50879958E+02</totfact>
</mgrwt>
</event>
<event>
 4    1  0.1101825E+000  0.1765115E+03  0.7546771E-02  0.1171223E+00
         21   -1    0    0  501  502  0.00000000000E+00  0.00000000000E+00  0.33536195947E+03  0.33536195947E+03  0.00000000000E+00 0. -1.
         21   -1    0    0  502  503 -0.00000000000E+00 -0.00000000000E+00 -0.14718332640E+03  0.14718332640E+03  0.00000000000E+00 0. -1.
          6    1    1    2  501    0  0.34520289726E+02 -0.19510284297E+02  0.24060967693E+03  0.29841132389E+03  0.17200000000E+03 0. -1.
         -6    1    1    2    0  503 -0.34520289726E+02  0.19510284297E+02 -0.52431043858E+02  0.18413396198E+03  0.17200000000E+03 0. -1.
<mgrwt>
<rscale>  2 0.17651148E+03</rscale>
<asrwt>0</asrwt>
<pdfrwt beam="1">  1       21 0.83840489E-01 0.17651148E+03</pdfrwt>
<pdfrwt beam="2">  1       21 0.36795832E-01 0.17651148E+03</pdfrwt>
<totfact> 0.89108077E+03</totfact>
</mgrwt>
</event>
<event>
 4    1  0.1101825E+000  0.2006473E+03  0.7546771E-02  0.1149194E+00
         21   -1    0    0  501  502  0.00000000000E+00  0.00000000000E+00  0.21807382966E+02  0.21807382966E+02  0.00000000000E+00 0.  1.
         21   -1    0    0  502  503 -0.00000000000E+00 -0.00000000000E+00 -0.18485243280E+04  0.18485243280E+04  0.00000000000E+00 0.  1.
          6    1    1    2  501    0  0.10315966333E+03  0.57826315681E+01 -0.87973141304E+03  0.90232295441E+03  0.17200000000E+03 0.  1.
         -6    1    1    2    0  503 -0.10315966333E+03 -0.57826315681E+01 -0.94698553201E+03  0.96800875657E+03  0.17200000000E+03 0.  1.
<mgrwt>
<rscale>  2 0.20064734E+03</rscale>
<asrwt>0</asrwt>
<pdfrwt beam="1">  1       21 0.54518454E-02 0.20064734E+03</pdfrwt>
<pdfrwt beam="2">  1       21 0.46213111E+00 0.20064734E+03</pdfrwt>
<totfact> 0.79163299E+02</totfact>
</mgrwt>
</event>
<event>
 4    1  0.1101825E+000  0.1966915E+03  0.7546771E-02  0.1152561E+00
         21   -1    0    0  501  502  0.00000000000E+00  0.00000000000E+00  0.60760389573E+03  0.60760389573E+03  0.00000000000E+00 0. -1.
         21   -1    0    0  502  503 -0.00000000000E+00 -0.00000000000E+00 -0.74924649914E+02  0.74924649914E+02  0.00000000000E+00 0. -1.
          6    1    1    2  501    0  0.92653242399E+02  0.22779894624E+02  0.39859087089E+03  0.44447972877E+03  0.17200000000E+03 0. -1.
         -6    1    1    2    0  503 -0.92653242399E+02 -0.22779894624E+02  0.13408837492E+03  0.23804881688E+03  0.17200000000E+03 0. -1.
<mgrwt>
<rscale>  2 0.19669150E+03</rscale>
<asrwt>0</asrwt>
<pdfrwt beam="1">  1       21 0.15190096E+00 0.19669150E+03</pdfrwt>
<pdfrwt beam="2">  1       21 0.18731164E-01 0.19669150E+03</pdfrwt>
<totfact> 0.75165449E+03</totfact>
</mgrwt>
</event>
<event>
 4    1  0.1101825E+000  0.2032635E+03  0.7546771E-02  0.1147014E+00
         21   -1    0    0  503  502  0.00000000000E+00  0.00000000000E+00  0.35214030921E+03  0.35214030921E+03  0.00000000000E+00 0. -1.
         21   -1    0    0  501  503 -0.00000000000E+00 -0.00000000000E+00 -0.12932133274E+03  0.12932133274E+03  0.00000000000E+00 0. -1.
          6    1    1    2  501    0  0.10541170783E+03  0.24908385702E+02  0.38100120131E+02  0.20680346946E+03  0.17200000000E+03 0. -1.
         -6    1    1    2    0  502 -0.10541170783E+03 -0.24908385702E+02  0.18471885634E+03  0.27465817249E+03  0.17200000000E+03 0. -1.
<mgrwt>
<rscale>  2 0.20326351E+03</rscale>
<asrwt>0</asrwt>
<pdfrwt beam="1">  1       21 0.88035076E-01 0.20326351E+03</pdfrwt>
<pdfrwt beam="2">  1       21 0.32330334E-01 0.20326351E+03</pdfrwt>
<totfact> 0.10101081E+04</totfact>
</mgrwt>
</event>
<event>
 4    1  0.1101825E+000  0.1983155E+03  0.7546771E-02  0.1151168E+00
         21   -1    0    0  501  502  0.00000000000E+00  0.00000000000E+00  0.73324263005E+02  0.73324263005E+02  0.00000000000E+00 0.  1.
         21   -1    0    0  502  503 -0.00000000000E+00 -0.00000000000E+00 -0.74141053944E+03  0.74141053944E+03  0.00000000000E+00 0.  1.
          6    1    1    2  501    0 -0.43666671818E+02 -0.88533834954E+02 -0.54827080649E+03  0.58303507219E+03  0.17200000000E+03 0.  1.
         -6    1    1    2    0  503  0.43666671818E+02  0.88533834954E+02 -0.11981546994E+03  0.23169973025E+03  0.17200000000E+03 0.  1.
<mgrwt>
<rscale>  2 0.19831545E+03</rscale>
<asrwt>0</asrwt>
<pdfrwt beam="1">  1       21 0.18331066E-01 0.19831545E+03</pdfrwt>
<pdfrwt beam="2">  1       21 0.18535263E+00 0.19831545E+03</pdfrwt>
<totfact> 0.45219562E+03</totfact>
</mgrwt>
</event>
<event>
 4    1  0.1101825E+000  0.1832099E+03  0.7546771E-02  0.1164732E+00
         21   -1    0    0  503  502  0.00000000000E+00  0.00000000000E+00  0.11713354325E+03  0.11713354325E+03  0.00000000000E+00 0.  1.
         21   -1    0    0  501  503 -0.00000000000E+00 -0.00000000000E+00 -0.28692010560E+03  0.28692010560E+03  0.00000000000E+00 0.  1.
          6    1    1    2  501    0 -0.56412315520E+02 -0.28275607614E+02 -0.92044445686E+02  0.20503180073E+03  0.17200000000E+03 0.  1.
         -6    1    1    2    0  502  0.56412315520E+02  0.28275607614E+02 -0.77742116663E+02  0.19902184813E+03  0.17200000000E+03 0.  1.
<mgrwt>
<rscale>  2 0.18320988E+03</rscale>
<asrwt>0</asrwt>
<pdfrwt beam="1">  1       21 0.29283386E-01 0.18320988E+03</pdfrwt>
<pdfrwt beam="2">  1       21 0.71730026E-01 0.18320988E+03</pdfrwt>
<totfact> 0.19720826E+04</totfact>
</mgrwt>
</event>
<event>
 4    1  0.1101825E+000  0.2674800E+03  0.7546771E-02  0.1102731E+00
         21   -1    0    0  503  502  0.00000000000E+00  0.00000000000E+00  0.15396646833E+03  0.15396646833E+03  0.00000000000E+00 0. -1.
         21   -1    0    0  501  503 -0.00000000000E+00 -0.00000000000E+00 -0.58129067836E+03  0.58129067836E+03  0.00000000000E+00 0.  1.
          6    1    1    2  501    0  0.18720242170E+03 -0.83167473697E+02 -0.49006523654E+02  0.27193237162E+03  0.17200000000E+03 0. -1.
         -6    1    1    2    0  502 -0.18720242170E+03  0.83167473697E+02 -0.37831768638E+03  0.46332477508E+03  0.17200000000E+03 0.  1.
<mgrwt>
<rscale>  2 0.26748005E+03</rscale>
<asrwt>0</asrwt>
<pdfrwt beam="1">  1       21 0.38491617E-01 0.26748005E+03</pdfrwt>
<pdfrwt beam="2">  1       21 0.14532267E+00 0.26748005E+03</pdfrwt>
<totfact> 0.19880328E+03</totfact>
</mgrwt>
</event>
<event>
 4    1  0.1101825E+000  0.2130383E+03  0.7546771E-02  0.1139182E+00
         21   -1    0    0  503  502  0.00000000000E+00  0.00000000000E+00  0.15385983205E+03  0.15385983205E+03  0.00000000000E+00 0.  1.
         21   -1    0    0  501  503 -0.00000000000E+00 -0.00000000000E+00 -0.43155267479E+03  0.43155267479E+03  0.00000000000E+00 0. -1.
          6    1    1    2  501    0 -0.27311610631E+02  0.12270045021E+03 -0.30351076682E+03  0.37081546642E+03  0.17200000000E+03 0. -1.
         -6    1    1    2    0  502  0.27311610631E+02 -0.12270045021E+03  0.25817924084E+02  0.21459704043E+03  0.17200000000E+03 0.  1.
<mgrwt>
<rscale>  2 0.21303832E+03</rscale>
<asrwt>0</asrwt>
<pdfrwt beam="1">  1       21 0.38464958E-01 0.21303832E+03</pdfrwt>
<pdfrwt beam="2">  1       21 0.10788817E+00 0.21303832E+03</pdfrwt>
<totfact> 0.43889530E+03</totfact>
</mgrwt>
</event>
<event>
 4    1  0.1101825E+000  0.1858645E+03  0.7546771E-02  0.1162245E+00
         21   -1    0    0  503  502  0.00000000000E+00  0.00000000000E+00  0.21230695397E+03  0.21230695397E+03  0.00000000000E+00 0. -1.
         21   -1    0    0  501  503 -0.00000000000E+00 -0.00000000000E+00 -0.17534774541E+03  0.17534774541E+03  0.00000000000E+00 0. -1.
          6    1    1    2  501    0  0.68888805302E+02  0.14694609006E+02  0.70504105437E+02  0.19878739375E+03  0.17200000000E+03 0. -1.
         -6    1    1    2    0  502 -0.68888805302E+02 -0.14694609006E+02 -0.33544896870E+02  0.18886730563E+03  0.17200000000E+03 0. -1.
<mgrwt>
<rscale>  2 0.18586446E+03</rscale>
<asrwt>0</asrwt>
<pdfrwt beam="1">  1       21 0.53076738E-01 0.18586446E+03</pdfrwt>
<pdfrwt beam="2">  1       21 0.43836936E-01 0.18586446E+03</pdfrwt>
<totfact> 0.16882354E+04</totfact>
</mgrwt>
</event>
<event>
 4    1  0.1101825E+000  0.1826680E+03  0.7546771E-02  0.1165246E+00
         21   -1    0    0  501  502  0.00000000000E+00  0.00000000000E+00  0.97678618381E+02  0.97678618381E+02  0.00000000000E+00 0.  1.
         21   -1    0    0  502  503 -0.00000000000E+00 -0.00000000000E+00 -0.74966946051E+03  0.74966946051E+03  0.00000000000E+00 0. -1.
          6    1    1    2  501    0  0.28095570129E+02 -0.54719671748E+02 -0.13415706535E+02  0.18315999759E+03  0.17200000000E+03 0.  1.
         -6    1    1    2    0  503 -0.28095570129E+02  0.54719671748E+02 -0.63857513560E+03  0.66418808130E+03  0.17200000000E+03 0. -1.
<mgrwt>
<rscale>  2 0.18266801E+03</rscale>
<asrwt>0</asrwt>
<pdfrwt beam="1">  1       21 0.24419655E-01 0.18266801E+03</pdfrwt>
<pdfrwt beam="2">  1       21 0.18741736E+00 0.18266801E+03</pdfrwt>
<totfact> 0.25956825E+03</totfact>
</mgrwt>
</event>
<event>
 4    1  0.1101825E+000  0.2105922E+03  0.7546771E-02  0.1141098E+00
         21   -1    0    0  501  502  0.00000000000E+00  0.00000000000E+00  0.14221652174E+03  0.14221652174E+03  0.00000000000E+00 0. -1.
         21   -1    0    0  502  503 -0.00000000000E+00 -0.00000000000E+00 -0.37875544949E+03  0.37875544949E+03  0.00000000000E+00 0. -1.
          6    1    1    2  501    0 -0.12418088693E+01  0.12150520268E+03 -0.87825357834E+01  0.21077521036E+03  0.17200000000E+03 0. -1.
         -6    1    1    2    0  503  0.12418088693E+01 -0.12150520268E+03 -0.22775639197E+03  0.31019676086E+03  0.17200000000E+03 0. -1.
<mgrwt>
<rscale>  2 0.21059216E+03</rscale>
<asrwt>0</asrwt>
<pdfrwt beam="1">  1       21 0.35554131E-01 0.21059216E+03</pdfrwt>
<pdfrwt beam="2">  1       21 0.94688862E-01 0.21059216E+03</pdfrwt>
<totfact> 0.70270267E+03</totfact>
</mgrwt>
</event>
<event>
 4    1  0.1101825E+000  0.1768600E+03  0.7546771E-02  0.1170877E+00
         21   -1    0    0  501  502  0.00000000000E+00  0.00000000000E+00  0.26011886205E+03  0.26011886205E+03  0.00000000000E+00 0. -1.
         21   -1    0    0  502  503 -0.00000000000E+00 -0.00000000000E+00 -0.14408266429E+03  0.14408266429E+03  0.00000000000E+00 0. -1.
          6    1    1    2  501    0  0.31898813643E+02  0.26036888010E+02  0.14021259877E+03  0.22569675829E+03  0.17200000000E+03 0. -1.
         -6    1    1    2    0  503 -0.31898813643E+02 -0.26036888010E+02 -0.24176401014E+02  0.17850476805E+03  0.17200000000E+03 0. -1.
<mgrwt>
<rscale>  2 0.17685998E+03</rscale>
<asrwt>0</asrwt>
<pdfrwt beam="1">  1       21 0.65029715E-01 0.17685998E+03</pdfrwt>
<pdfrwt beam="2">  1       21 0.36020667E-01 0.17685998E+03</pdfrwt>
<totfact> 0.16344459E+04</totfact>
</mgrwt>
</event>
<event>
 4    1  0.1101825E+000  0.2196260E+03  0.7546771E-02  0.1134162E+00
         21   -1    0    0  501  502  0.00000000000E+00  0.00000000000E+00  0.97165387811E+03  0.97165387811E+03  0.00000000000E+00 0. -1.
         21   -1    0    0  502  503 -0.00000000000E+00 -0.00000000000E+00 -0.56127805619E+02  0.56127805619E+02  0.00000000000E+00 0. -1.
          6    1    1    2  501    0  0.60067311659E+02  0.12265195373E+03  0.28308502181E+03  0.35829138038E+03  0.17200000000E+03 0. -1.
         -6    1    1    2    0  503 -0.60067311659E+02 -0.12265195373E+03  0.63244105069E+03  0.66949030335E+03  0.17200000000E+03 0. -1.
<mgrwt>
<rscale>  2 0.21962601E+03</rscale>
<asrwt>0</asrwt>
<pdfrwt beam="1">  1       21 0.24291341E+00 0.21962601E+03</pdfrwt>
<pdfrwt beam="2">  1       21 0.14031955E-01 0.21962601E+03</pdfrwt>
<totfact> 0.31536344E+03</totfact>
</mgrwt>
</event>
<event>
 4    1  0.1101825E+000  0.1999057E+03  0.7546771E-02  0.1149819E+00
         21   -1    0    0  501  502  0.00000000000E+00  0.00000000000E+00  0.21528020960E+03  0.21528020960E+03  0.00000000000E+00 0.  1.
         21   -1    0    0  502  503 -0.00000000000E+00 -0.00000000000E+00 -0.23440898265E+03  0.23440898265E+03  0.00000000000E+00 0. -1.
          6    1    1    2  501    0  0.10151628468E+03 -0.85279431947E+01  0.93004464732E+02  0.22048154646E+03  0.17200000000E+03 0. -1.
         -6    1    1    2    0  503 -0.10151628468E+03  0.85279431947E+01 -0.11213323778E+03  0.22920764579E+03  0.17200000000E+03 0. -1.
<mgrwt>
<rscale>  2 0.19990568E+03</rscale>
<asrwt>0</asrwt>
<pdfrwt beam="1">  1       21 0.53820052E-01 0.19990568E+03</pdfrwt>
<pdfrwt beam="2">  1       21 0.58602246E-01 0.19990568E+03</pdfrwt>
<totfact> 0.88542025E+03</totfact>
</mgrwt>
</event>
<event>
 4    1  0.1101825E+000  0.1903742E+03  0.7546771E-02  0.1158124E+00
         21   -1    0    0  501  502  0.00000000000E+00  0.00000000000E+00  0.22880353157E+03  0.22880353157E+03  0.00000000000E+00 0. -1.
         21   -1    0    0  502  503 -0.00000000000E+00 -0.00000000000E+00 -0.22546758171E+03  0.22546758171E+03  0.00000000000E+00 0. -1.
          6    1    1    2  501    0 -0.31649254273E+02  0.75210901018E+02  0.12554796364E+03  0.22804527205E+03  0.17200000000E+03 0. -1.
         -6    1    1    2    0  503  0.31649254273E+02 -0.75210901018E+02 -0.12221201379E+03  0.22622584123E+03  0.17200000000E+03 0. -1.
<mgrwt>
<rscale>  2 0.19037425E+03</rscale>
<asrwt>0</asrwt>
<pdfrwt beam="1">  1       21 0.57200883E-01 0.19037425E+03</pdfrwt>
<pdfrwt beam="2">  1       21 0.56366895E-01 0.19037425E+03</pdfrwt>
<totfact> 0.85120217E+03</totfact>
</mgrwt>
</event>
