<event>
11    0  0.3476221E-009  0.9118800E+02  0.7816531E-02  0.1126479E+00
         25   -1    0    0    0    0  0.00000000000E+00  0.00000000000E+00  0.99999998245E-14  0.12500000000E+03  0.12500000000E+03 0.  0.
    3000001    1    3    3    0    0  0.33067659073E+02 -0.12230799175E+02 -0.44641239980E+01  0.35552650086E+02  0.10000000000E+01 0. -1.
    1000022    2    1    0    0    0  0.59431498928E+02 -0.16531698516E+02 -0.92189365035E+00  0.62500000330E+02  0.10000001637E+02 0.  0.
    3000022    2    3    3    0    0  0.26363839855E+02 -0.43008993404E+01  0.35422303477E+01  0.26947350244E+02  0.25000468263E+00 0.  0.
    1000022    2    1    0    0    0 -0.59431498928E+02  0.16531698516E+02  0.92189365035E+00  0.62499999670E+02  0.99999975094E+01 0.  0.
    3000022    2    5    5    0    0 -0.17446534310E+02  0.84855429993E+01  0.32653084989E+01  0.19675129959E+02  0.24999980676E+00 0.  0.
        -13    1    4    4    0    0  0.13015885248E+02 -0.21786717455E+01  0.17094049870E+01  0.13307628255E+02  0.10500000000E+00 0.  1.
         13    1    4    4    0    0  0.13347954607E+02 -0.21222275948E+01  0.18328253607E+01  0.13639721990E+02  0.10500000000E+00 0. -1.
    3000001    1    5    5    0    0 -0.41984964618E+02  0.80461555166E+01 -0.23434148485E+01  0.42824869710E+02  0.10000000000E+01 0. -1.
        -13    1    6    6    0    0 -0.76471754026E+01  0.36616977087E+01  0.13857155623E+01  0.85917724811E+01  0.10500000000E+00 0.  1.
         13    1    6    6    0    0 -0.97993589074E+01  0.48238452906E+01  0.18795929366E+01  0.11083357478E+02  0.10500000000E+00 0. -1.
</event>
<event>
11    0  0.3476221E-009  0.9118800E+02  0.7816531E-02  0.1126479E+00
         25   -1    0    0    0    0  0.00000000000E+00  0.00000000000E+00  0.99999998245E-14  0.12500000000E+03  0.12500000000E+03 0.  0.
    3000001    1    3    3    0    0 -0.28326196248E+01 -0.59746903148E+01  0.20257803603E+01  0.69874490599E+01  0.10000000000E+01 0.  1.
    1000022    2    1    0    0    0 -0.31206002980E+02 -0.52600020560E+02 -0.81039030074E+01  0.62499999745E+02  0.99999969635E+01 0.  0.
    3000022    2    3    3    0    0 -0.28373383355E+02 -0.46625330245E+02 -0.10129683368E+02  0.55512550685E+02  0.24998988071E+00 0.  0.
    1000022    2    1    0    0    0  0.31206002980E+02  0.52600020560E+02  0.81039030074E+01  0.62500000255E+02  0.10000000156E+02 0.  0.
    3000022    2    5    5    0    0  0.17468702026E+02  0.32227981859E+02  0.94981091403E+01  0.37869181977E+02  0.25000239372E+00 0.  0.
        -13    1    4    4    0    0 -0.70227950152E+01 -0.11588312319E+02 -0.25105668778E+01  0.13781240992E+02  0.10500000000E+00 0. -1.
         13    1    4    4    0    0 -0.21350588340E+02 -0.35037017926E+02 -0.76191164899E+01  0.41731309693E+02  0.10500000000E+00 0.  1.
    3000001    1    5    5    0    0  0.13737300954E+02  0.20372038701E+02 -0.13942061328E+01  0.24630818278E+02  0.10000000000E+01 0. -1.
        -13    1    6    6    0    0  0.41316943462E+01  0.76310813262E+01  0.22649409018E+01  0.89691294263E+01  0.10500000000E+00 0. -1.
         13    1    6    6    0    0  0.13337007680E+02  0.24596900533E+02  0.72331682385E+01  0.28900052551E+02  0.10500000000E+00 0.  1.
</event>
<event>
11    0  0.3476221E-009  0.9118800E+02  0.7816531E-02  0.1126479E+00
         25   -1    0    0    0    0  0.00000000000E+00  0.00000000000E+00  0.99999998245E-14  0.12500000000E+03  0.12500000000E+03 0.  0.
    3000001    1    3    3    0    0 -0.12643453448E+01  0.18040049650E+02  0.51551908754E+02  0.54641021739E+02  0.10000000000E+01 0.  1.
    1000022    2    1    0    0    0 -0.30761775608E+00  0.23625974134E+02  0.56990951048E+02  0.62500001590E+02  0.10000020748E+02 0.  0.
    3000022    2    3    3    0    0  0.95672758875E+00  0.55859244849E+01  0.54390422939E+01  0.78589798512E+01  0.25000639393E+00 0.  0.
    1000022    2    1    0    0    0  0.30761775608E+00 -0.23625974134E+02 -0.56990951048E+02  0.62499998410E+02  0.10000000869E+02 0.  0.
    3000022    2    5    5    0    0  0.15806851936E+01 -0.16388826905E+02 -0.27167603777E+02  0.31768434128E+02  0.24999800443E+00 0.  0.
        -13    1    4    4    0    0  0.41523317003E+00  0.22757908693E+01  0.23023635889E+01  0.32655084998E+01  0.10500000000E+00 0.  1.
         13    1    4    4    0    0  0.54149441872E+00  0.33101336156E+01  0.31366787050E+01  0.45934713515E+01  0.10500000000E+00 0. -1.
    3000001    1    5    5    0    0 -0.12730674375E+01 -0.72371472298E+01 -0.29823347271E+02  0.30731564281E+02  0.10000000000E+01 0.  1.
        -13    1    6    6    0    0  0.11595991390E+01 -0.11640357865E+02 -0.19343023784E+02  0.22605446147E+02  0.10500000000E+00 0. -1.
         13    1    6    6    0    0  0.42108605460E+00 -0.47484690398E+01 -0.78245799928E+01  0.91629879817E+01  0.10500000000E+00 0.  1.
</event>
<event>
11    0  0.3476221E-009  0.9118800E+02  0.7816531E-02  0.1126479E+00
         25   -1    0    0    0    0  0.00000000000E+00  0.00000000000E+00  0.99999998245E-14  0.12500000000E+03  0.12500000000E+03 0.  0.
    3000001    1    3    3    0    0  0.25950794585E+02 -0.18030454932E+02 -0.89897206325E+00  0.31628297384E+02  0.10000000000E+01 0.  1.
    1000022    2    1    0    0    0  0.55379198654E+02 -0.27176073334E+02  0.92483914409E+00  0.62500001006E+02  0.10000009646E+02 0.  0.
    3000022    2    3    3    0    0  0.29428404069E+02 -0.91456184020E+01  0.18238112073E+01  0.30871703622E+02  0.24999041848E+00 0.  0.
    1000022    2    1    0    0    0 -0.55379198654E+02  0.27176073334E+02 -0.92483914409E+00  0.62499998994E+02  0.99999970707E+01 0.  0.
    3000022    2    5    5    0    0 -0.48308786805E+02  0.25104100487E+02  0.20750596084E+01  0.54482319298E+02  0.24999966002E+00 0.  0.
        -13    1    4    4    0    0  0.15625291706E+02 -0.47917198029E+01  0.93928363063E+00  0.16370815444E+02  0.10500000000E+00 0. -1.
         13    1    4    4    0    0  0.13803112363E+02 -0.43538985991E+01  0.88452757670E+00  0.14500888178E+02  0.10500000000E+00 0.  1.
    3000001    1    5    5    0    0 -0.70704118485E+01  0.20719728473E+01 -0.29998987525E+01  0.80176796963E+01  0.10000000000E+01 0.  1.
        -13    1    6    6    0    0 -0.25076855488E+02  0.13099036925E+02  0.10470860006E+01  0.28311497022E+02  0.10500000000E+00 0. -1.
         13    1    6    6    0    0 -0.23231931317E+02  0.12005063562E+02  0.10279736078E+01  0.26170822276E+02  0.10500000000E+00 0.  1.
</event>
<event>
11    0  0.3476221E-009  0.9118800E+02  0.7816531E-02  0.1126479E+00
         25   -1    0    0    0    0  0.00000000000E+00  0.00000000000E+00  0.99999998245E-14  0.12500000000E+03  0.12500000000E+03 0.  0.
    3000001    1    3    3    0    0  0.30675128105E+02 -0.38015896932E+02  0.99859501305E+00  0.48868897018E+02  0.10000000000E+01 0.  1.
    1000022    2    1    0    0    0  0.42601549689E+02 -0.44610698697E+02  0.11150749238E+01  0.62500001494E+02  0.10000016029E+02 0.  0.
    3000022    2    3    3    0    0  0.11926421585E+02 -0.65948017646E+01  0.11647991072E+00  0.13631104476E+02  0.24999908036E+00 0.  0.
    1000022    2    1    0    0    0 -0.42601549689E+02  0.44610698697E+02 -0.11150749238E+01  0.62499998506E+02  0.99999973482E+01 0.  0.
    3000022    2    5    5    0    0 -0.19642735486E+02  0.20445695863E+02  0.44207623729E+01  0.28696152479E+02  0.24998094753E+00 0.  0.
        -13    1    4    4    0    0  0.87698058133E+01 -0.48219374597E+01  0.10989936387E+00  0.10009179674E+02  0.10500000000E+00 0. -1.
         13    1    4    4    0    0  0.31566157714E+01 -0.17728643049E+01  0.65805468431E-02  0.36219248025E+01  0.10500000000E+00 0.  1.
    3000001    1    5    5    0    0 -0.22958814203E+02  0.24165002834E+02 -0.55358372966E+01  0.33803846026E+02  0.10000000000E+01 0.  1.
        -13    1    6    6    0    0 -0.71933065185E+01  0.74026873663E+01  0.16080384881E+01  0.10447021187E+02  0.10500000000E+00 0.  1.
         13    1    6    6    0    0 -0.12449428968E+02  0.13043008496E+02  0.28127238847E+01  0.18249131292E+02  0.10500000000E+00 0. -1.
</event>
<event>
11    0  0.3476221E-009  0.9118800E+02  0.7816531E-02  0.1126479E+00
         25   -1    0    0    0    0  0.00000000000E+00  0.00000000000E+00  0.99999998245E-14  0.12500000000E+03  0.12500000000E+03 0.  0.
    3000001    1    3    3    0    0 -0.75494067307E+01  0.56226061194E+01  0.44616192137E+02  0.45609339420E+02  0.10000000000E+01 0. -1.
    1000022    2    1    0    0    0 -0.12099062124E+02  0.19681537355E+01  0.60464774979E+02  0.62500001418E+02  0.10000011531E+02 0.  0.
    3000022    2    3    3    0    0 -0.45496553933E+01 -0.36544523838E+01  0.15848582842E+02  0.16890661998E+02  0.24999640605E+00 0.  0.
    1000022    2    1    0    0    0  0.12099062124E+02 -0.19681537355E+01 -0.60464774979E+02  0.62499998582E+02  0.99999938018E+01 0.  0.
    3000022    2    5    5    0    0 -0.16535367336E+01 -0.10631921426E+01 -0.66131277625E+01  0.69036602242E+01  0.25000885327E+00 0.  0.
        -13    1    4    4    0    0 -0.26719311490E+01 -0.20833479899E+01  0.93208526766E+01  0.99181084150E+01  0.10500000000E+00 0.  1.
         13    1    4    4    0    0 -0.18777242444E+01 -0.15711043939E+01  0.65277301655E+01  0.69725535830E+01  0.10500000000E+00 0. -1.
    3000001    1    5    5    0    0  0.13752598858E+02 -0.90496159289E+00 -0.53851647217E+02  0.55596338357E+02  0.10000000000E+01 0. -1.
        -13    1    6    6    0    0 -0.86727922927E+00 -0.63585079081E+00 -0.35642866814E+01  0.37244656042E+01  0.10500000000E+00 0. -1.
         13    1    6    6    0    0 -0.78625750430E+00 -0.42734135184E+00 -0.30488410811E+01  0.31791946200E+01  0.10500000000E+00 0.  1.
</event>
<event>
11    0  0.3476221E-009  0.9118800E+02  0.7816531E-02  0.1126479E+00
         25   -1    0    0    0    0  0.00000000000E+00  0.00000000000E+00  0.99999998245E-14  0.12500000000E+03  0.12500000000E+03 0.  0.
    3000001    1    3    3    0    0 -0.88028969224E+01  0.36337345670E+02  0.52023461826E+01  0.37761860261E+02  0.10000000000E+01 0.  1.
    1000022    2    1    0    0    0 -0.15690749393E+02  0.59662237406E+02  0.68352966548E+00  0.62499994538E+02  0.99999957772E+01 0.  0.
    3000022    2    3    3    0    0 -0.68878524706E+01  0.23324891736E+02 -0.45188165171E+01  0.24738134276E+02  0.24999720011E+00 0.  0.
    1000022    2    1    0    0    0  0.15690749393E+02 -0.59662237406E+02 -0.68352966548E+00  0.62500005462E+02  0.10000064056E+02 0.  0.
    3000022    2    5    5    0    0  0.70718088605E+01 -0.42618930419E+02  0.16463525332E+01  0.43233744797E+02  0.25000373221E+00 0.  0.
        -13    1    4    4    0    0 -0.32359599824E+01  0.11161221393E+02 -0.21230178291E+01  0.11813658607E+02  0.10500000000E+00 0. -1.
         13    1    4    4    0    0 -0.36518924882E+01  0.12163670343E+02 -0.23957986880E+01  0.12924475669E+02  0.10500000000E+00 0.  1.
    3000001    1    5    5    0    0  0.86189405325E+01 -0.17043306987E+02 -0.23298821987E+01  0.19266260665E+02  0.10000000000E+01 0.  1.
        -13    1    6    6    0    0  0.51581190648E+01 -0.31194423321E+02  0.12353333226E+01  0.31642302572E+02  0.10500000000E+00 0.  1.
         13    1    6    6    0    0  0.19136897956E+01 -0.11424507098E+02  0.41101921055E+00  0.11591442225E+02  0.10500000000E+00 0. -1.
</event>
<event>
11    0  0.3476221E-009  0.9118800E+02  0.7816531E-02  0.1126479E+00
         25   -1    0    0    0    0  0.00000000000E+00  0.00000000000E+00  0.99999998245E-14  0.12500000000E+03  0.12500000000E+03 0.  0.
    3000001    1    3    3    0    0 -0.35885537827E+02 -0.32323510147E+02 -0.50341953173E+01  0.48568758023E+02  0.10000000000E+01 0.  1.
    1000022    2    1    0    0    0 -0.42043191437E+02 -0.44805936809E+02 -0.55720429268E+01  0.62499998358E+02  0.10000010646E+02 0.  0.
    3000022    2    3    3    0    0 -0.61576536092E+01 -0.12482426662E+02 -0.53784760942E+00  0.13931240336E+02  0.25000779083E+00 0.  0.
    1000022    2    1    0    0    0  0.42043191437E+02  0.44805936809E+02  0.55720429268E+01  0.62500001642E+02  0.10000031168E+02 0.  0.
    3000022    2    5    5    0    0  0.24985225268E+02  0.21694164882E+02 -0.62931206211E+00  0.33096175103E+02  0.25000236277E+00 0.  0.
        -13    1    4    4    0    0 -0.43664092318E+01 -0.89304258114E+01 -0.36150533404E+00  0.99478513187E+01  0.10500000000E+00 0.  1.
         13    1    4    4    0    0 -0.17912443774E+01 -0.35520008507E+01 -0.17634227538E+00  0.39833890170E+01  0.10500000000E+00 0. -1.
    3000001    1    5    5    0    0  0.17057966169E+02  0.23111771927E+02  0.62013549889E+01  0.29403826539E+02  0.10000000000E+01 0.  1.
        -13    1    6    6    0    0  0.61291654059E+01  0.53437258805E+01 -0.13772242570E+00  0.81333921167E+01  0.10500000000E+00 0.  1.
         13    1    6    6    0    0  0.18856059862E+02  0.16350439001E+02 -0.49158963641E+00  0.24962782986E+02  0.10500000000E+00 0. -1.
</event>
<event>
11    0  0.3476221E-009  0.9118800E+02  0.7816531E-02  0.1126479E+00
         25   -1    0    0    0    0  0.00000000000E+00  0.00000000000E+00  0.99999998245E-14  0.12500000000E+03  0.12500000000E+03 0.  0.
    3000001    1    3    3    0    0  0.10807335561E+02  0.85037625202E+01 -0.54157443973E+01  0.14813600720E+02  0.10000000000E+01 0.  1.
    1000022    2    1    0    0    0  0.43715724000E+02  0.42981795056E+02 -0.69102001108E+01  0.62499999811E+02  0.99999939857E+01 0.  0.
    3000022    2    3    3    0    0  0.32908388440E+02  0.34478032536E+02 -0.14944557135E+01  0.47686399091E+02  0.25000629248E+00 0.  0.
    1000022    2    1    0    0    0 -0.43715724000E+02 -0.42981795056E+02  0.69102001108E+01  0.62500000189E+02  0.99999963462E+01 0.  0.
    3000022    2    5    5    0    0 -0.22737750574E+02 -0.29002077656E+02  0.51184363754E+01  0.37207347403E+02  0.25000060787E+00 0.  0.
        -13    1    4    4    0    0  0.24291743579E+02  0.25406555036E+02 -0.11147676142E+01  0.35168673229E+02  0.10500000000E+00 0.  1.
         13    1    4    4    0    0  0.86166448610E+01  0.90714774996E+01 -0.37968809937E+00  0.12517725861E+02  0.10500000000E+00 0. -1.
    3000001    1    5    5    0    0 -0.20977973427E+02 -0.13979717400E+02  0.17917637355E+01  0.25292652786E+02  0.10000000000E+01 0. -1.
        -13    1    6    6    0    0 -0.10287814135E+02 -0.13086516533E+02  0.23756023925E+01  0.16815187967E+02  0.10500000000E+00 0.  1.
         13    1    6    6    0    0 -0.12449936438E+02 -0.15915561123E+02  0.27428339829E+01  0.20392159436E+02  0.10500000000E+00 0. -1.
</event>
<event>
11    0  0.3476221E-009  0.9118800E+02  0.7816531E-02  0.1126479E+00
         25   -1    0    0    0    0  0.00000000000E+00  0.00000000000E+00  0.99999998245E-14  0.12500000000E+03  0.12500000000E+03 0.  0.
    3000001    1    3    3    0    0 -0.21160654511E+02 -0.70981120408E+01 -0.49825776402E+01  0.22890665648E+02  0.10000000000E+01 0.  1.
    1000022    2    1    0    0    0 -0.51542292389E+02 -0.30726990262E+02 -0.14335067525E+02  0.62500000077E+02  0.10000000672E+02 0.  0.
    3000022    2    3    3    0    0 -0.30381637878E+02 -0.23628878221E+02 -0.93524898849E+01  0.39609334429E+02  0.25000145140E+00 0.  0.
    1000022    2    1    0    0    0  0.51542292389E+02  0.30726990262E+02  0.14335067525E+02  0.62499999923E+02  0.99999997074E+01 0.  0.
    3000022    2    5    5    0    0  0.59923509621E+01  0.91330891958E+00 -0.43902013509E+00  0.60825697673E+01  0.25002611673E+00 0.  0.
        -13    1    4    4    0    0 -0.83175072165E+01 -0.64480012390E+01 -0.25229213640E+01  0.10822837127E+02  0.10500000000E+00 0. -1.
         13    1    4    4    0    0 -0.22064130662E+02 -0.17180876982E+02 -0.68295685208E+01  0.28786497302E+02  0.10500000000E+00 0.  1.
    3000001    1    5    5    0    0  0.45549941427E+02  0.29813681343E+02  0.14774087660E+02  0.56417430156E+02  0.10000000000E+01 0.  1.
        -13    1    6    6    0    0  0.21314260920E+01  0.26696669543E+00 -0.15404354069E+00  0.21561546361E+01  0.10500000000E+00 0. -1.
         13    1    6    6    0    0  0.38609248701E+01  0.64634222414E+00 -0.28497659440E+00  0.39264151312E+01  0.10500000000E+00 0.  1.
</event>
<event>
11    0  0.3476221E-009  0.9118800E+02  0.7816531E-02  0.1126479E+00
         25   -1    0    0    0    0  0.00000000000E+00  0.00000000000E+00  0.99999998245E-14  0.12500000000E+03  0.12500000000E+03 0.  0.
    3000001    1    3    3    0    0 -0.24186434268E+02 -0.23193263875E+02  0.17173556801E+02  0.37667521089E+02  0.10000000000E+01 0. -1.
    1000022    2    1    0    0    0 -0.38935705392E+02 -0.42646322477E+02  0.21715244121E+02  0.62499998209E+02  0.99999986827E+01 0.  0.
    3000022    2    3    3    0    0 -0.14749271124E+02 -0.19453058601E+02  0.45416873203E+01  0.24832477120E+02  0.25001707464E+00 0.  0.
    1000022    2    1    0    0    0  0.38935705392E+02  0.42646322477E+02 -0.21715244121E+02  0.62500001791E+02  0.10000021076E+02 0.  0.
    3000022    2    5    5    0    0  0.31122391303E+02  0.27495533232E+02 -0.15555377742E+02  0.44346813488E+02  0.25000331806E+00 0.  0.
        -13    1    4    4    0    0 -0.11050699056E+02 -0.14532646422E+02  0.34070402368E+01  0.18572417986E+02  0.10500000000E+00 0. -1.
         13    1    4    4    0    0 -0.36985720686E+01 -0.49204121789E+01  0.11346470835E+01  0.62600591340E+01  0.10500000000E+00 0.  1.
    3000001    1    5    5    0    0  0.78133140888E+01  0.15150789245E+02 -0.61598663794E+01  0.18153188304E+02  0.10000000000E+01 0. -1.
        -13    1    6    6    0    0  0.11895825868E+02  0.10428227011E+02 -0.59246802677E+01  0.16892940921E+02  0.10500000000E+00 0. -1.
         13    1    6    6    0    0  0.19226565435E+02  0.17067306221E+02 -0.96306974744E+01  0.27453872567E+02  0.10500000000E+00 0.  1.
</event>
<event>
11    0  0.3476221E-009  0.9118800E+02  0.7816531E-02  0.1126479E+00
         25   -1    0    0    0    0  0.00000000000E+00  0.00000000000E+00  0.99999998245E-14  0.12500000000E+03  0.12500000000E+03 0.  0.
    3000001    1    3    3    0    0 -0.23509210058E+01 -0.77009979755E+00  0.31518076307E+00  0.26868610286E+01  0.10000000000E+01 0. -1.
    1000022    2    1    0    0    0 -0.40596015774E+02 -0.38955761100E+02 -0.25311307184E+02  0.62499998370E+02  0.99999852649E+01 0.  0.
    3000022    2    3    3    0    0 -0.38245094768E+02 -0.38185661303E+02 -0.25626487947E+02  0.59813137341E+02  0.25002239050E+00 0.  0.
    1000022    2    1    0    0    0  0.40596015774E+02  0.38955761100E+02  0.25311307184E+02  0.62500001630E+02  0.10000005639E+02 0.  0.
    3000022    2    5    5    0    0  0.40081367506E+02  0.37407638895E+02  0.22886953528E+02  0.59411468669E+02  0.24999747671E+00 0.  0.
        -13    1    4    4    0    0 -0.17085293193E+02 -0.17011795242E+02 -0.11496208902E+02  0.26711088802E+02  0.10500000000E+00 0. -1.
         13    1    4    4    0    0 -0.21159801575E+02 -0.21173866061E+02 -0.14130279045E+02  0.33102048540E+02  0.10500000000E+00 0.  1.
    3000001    1    5    5    0    0  0.51464826749E+00  0.15481222050E+01  0.24243536562E+01  0.30885329610E+01  0.10000000000E+01 0. -1.
        -13    1    6    6    0    0  0.12389077391E+02  0.11500374732E+02  0.70401713988E+01  0.18311823937E+02  0.10500000000E+00 0.  1.
         13    1    6    6    0    0  0.27692290115E+02  0.25907264163E+02  0.15846782129E+02  0.41099644732E+02  0.10500000000E+00 0. -1.
</event>
<event>
11    0  0.3476221E-009  0.9118800E+02  0.7816531E-02  0.1126479E+00
         25   -1    0    0    0    0  0.00000000000E+00  0.00000000000E+00  0.99999998245E-14  0.12500000000E+03  0.12500000000E+03 0.  0.
    3000001    1    3    3    0    0 -0.33340000436E+02 -0.35334304248E+02  0.49588599473E+01  0.48843208102E+02  0.10000000000E+01 0.  1.
    1000022    2    1    0    0    0 -0.41171360918E+02 -0.45927142543E+02  0.13662247804E+01  0.62499999795E+02  0.10000001111E+02 0.  0.
    3000022    2    3    3    0    0 -0.78313604827E+01 -0.10592838295E+02 -0.35926351669E+01  0.13656791693E+02  0.25000350096E+00 0.  0.
    1000022    2    1    0    0    0  0.41171360918E+02  0.45927142543E+02 -0.13662247804E+01  0.62500000205E+02  0.10000003674E+02 0.  0.
    3000022    2    5    5    0    0  0.18002424861E+00  0.10747064594E+01 -0.13197955447E+01  0.17296714232E+01  0.25000049729E+00 0.  0.
        -13    1    4    4    0    0 -0.55014826642E+01 -0.74169178763E+01 -0.24734201375E+01  0.95606388105E+01  0.10500000000E+00 0. -1.
         13    1    4    4    0    0 -0.23298778185E+01 -0.31759204182E+01 -0.11192150294E+01  0.40961528822E+01  0.10500000000E+00 0.  1.
    3000001    1    5    5    0    0  0.40991336670E+02  0.44852436083E+02 -0.46429235672E-01  0.60770328782E+02  0.10000000000E+01 0.  1.
        -13    1    6    6    0    0  0.10899164988E+00  0.61383645429E+00 -0.64938666857E+00  0.90631253863E+00  0.10500000000E+00 0. -1.
         13    1    6    6    0    0  0.71032598729E-01  0.46087000506E+00 -0.67040887612E+00  0.82335888459E+00  0.10500000000E+00 0.  1.
</event>
<event>
11    0  0.3476221E-009  0.9118800E+02  0.7816531E-02  0.1126479E+00
         25   -1    0    0    0    0  0.00000000000E+00  0.00000000000E+00  0.99999998245E-14  0.12500000000E+03  0.12500000000E+03 0.  0.
    3000001    1    3    3    0    0 -0.95992390740E+00 -0.31357246881E+02 -0.29189786195E+02  0.42863061066E+02  0.10000000000E+01 0. -1.
    1000022    2    1    0    0    0  0.52090243288E+01 -0.45417928488E+02 -0.41428588125E+02  0.62500002480E+02  0.10000011664E+02 0.  0.
    3000022    2    3    3    0    0  0.61689482362E+01 -0.14060681608E+02 -0.12238801931E+02  0.19636941414E+02  0.25001155914E+00 0.  0.
    1000022    2    1    0    0    0 -0.52090243288E+01  0.45417928488E+02  0.41428588125E+02  0.62499997520E+02  0.99999806696E+01 0.  0.
    3000022    2    5    5    0    0 -0.58656799526E+00  0.73234541166E+01  0.12233631254E+02  0.14272395601E+02  0.25000064114E+00 0.  0.
        -13    1    4    4    0    0  0.43065315179E+01 -0.98735177739E+01 -0.85354844187E+01  0.13744020016E+02  0.10500000000E+00 0. -1.
         13    1    4    4    0    0  0.18624167183E+01 -0.41871638337E+01 -0.37033175119E+01  0.58929213975E+01  0.10500000000E+00 0.  1.
    3000001    1    5    5    0    0 -0.46224563335E+01  0.38094474372E+02  0.29194956872E+02  0.48227601920E+02  0.10000000000E+01 0. -1.
        -13    1    6    6    0    0 -0.31519746755E+00  0.32853714865E+01  0.54146344235E+01  0.63421058166E+01  0.10500000000E+00 0.  1.
         13    1    6    6    0    0 -0.27137052771E+00  0.40380826301E+01  0.68189968301E+01  0.79302897841E+01  0.10500000000E+00 0. -1.
</event>
<event>
11    0  0.3476221E-009  0.9118800E+02  0.7816531E-02  0.1126479E+00
         25   -1    0    0    0    0  0.00000000000E+00  0.00000000000E+00  0.99999998245E-14  0.12500000000E+03  0.12500000000E+03 0.  0.
    3000001    1    3    3    0    0 -0.27466582488E+02 -0.45863695905E+02  0.81015657708E+01  0.54078897211E+02  0.10000000000E+01 0.  1.
    1000022    2    1    0    0    0 -0.34558026560E+02 -0.50344233422E+02  0.88006329564E+01  0.62500001032E+02  0.99999975005E+01 0.  0.
    3000022    2    3    3    0    0 -0.70914440715E+01 -0.44805375172E+01  0.69906718565E+00  0.84211038208E+01  0.24999833918E+00 0.  0.
    1000022    2    1    0    0    0  0.34558026560E+02  0.50344233422E+02 -0.88006329564E+01  0.62499998968E+02  0.99999846013E+01 0.  0.
    3000022    2    5    5    0    0  0.16811182949E+02  0.30517614768E+02 -0.85265973018E+01  0.35870685027E+02  0.24999907666E+00 0.  0.
        -13    1    4    4    0    0 -0.25954640712E+01 -0.16874723486E+01  0.30190707836E+00  0.31122611645E+01  0.10500000000E+00 0.  1.
         13    1    4    4    0    0 -0.44959800003E+01 -0.27930651686E+01  0.39716010730E+00  0.53088426564E+01  0.10500000000E+00 0. -1.
    3000001    1    5    5    0    0  0.17746843611E+02  0.19826618654E+02 -0.27403565460E+00  0.26629313941E+02  0.10000000000E+01 0.  1.
        -13    1    6    6    0    0  0.44169034095E+01  0.80873362307E+01 -0.22593627518E+01  0.94884028204E+01  0.10500000000E+00 0. -1.
         13    1    6    6    0    0  0.12394279539E+02  0.22430278537E+02 -0.62672345500E+01  0.26382282207E+02  0.10500000000E+00 0.  1.
</event>
<event>
11    0  0.3476221E-009  0.9118800E+02  0.7816531E-02  0.1126479E+00
         25   -1    0    0    0    0  0.00000000000E+00  0.00000000000E+00  0.99999998245E-14  0.12500000000E+03  0.12500000000E+03 0.  0.
    3000001    1    3    3    0    0 -0.43676588198E+01 -0.16482860575E+01  0.16140864576E+02  0.16832135923E+02  0.10000000000E+01 0.  1.
    1000022    2    1    0    0    0 -0.45978538082E+00 -0.29822765921E+01  0.61620975062E+02  0.62500001601E+02  0.10000012814E+02 0.  0.
    3000022    2    3    3    0    0  0.39078734390E+01 -0.13339905347E+01  0.45480110486E+02  0.45667865678E+02  0.25000029883E+00 0.  0.
    1000022    2    1    0    0    0  0.45978538082E+00  0.29822765921E+01 -0.61620975062E+02  0.62499998399E+02  0.99999927993E+01 0.  0.
    3000022    2    5    5    0    0 -0.39866517295E+01  0.34936303735E+01 -0.22818563441E+02  0.23427508931E+02  0.24998392862E+00 0.  0.
        -13    1    4    4    0    0  0.19252995013E+01 -0.71259315918E+00  0.22129061644E+02  0.22224332643E+02  0.10500000000E+00 0. -1.
         13    1    4    4    0    0  0.19825739377E+01 -0.62139737548E+00  0.23351048843E+02  0.23443533035E+02  0.10500000000E+00 0.  1.
    3000001    1    5    5    0    0  0.44464371104E+01 -0.51135378138E+00 -0.38802411621E+02  0.39072489468E+02  0.10000000000E+01 0. -1.
        -13    1    6    6    0    0 -0.13113825486E+01  0.12051637691E+01 -0.75235145377E+01  0.77321691587E+01  0.10500000000E+00 0. -1.
         13    1    6    6    0    0 -0.26752691809E+01  0.22884666045E+01 -0.15295048904E+02  0.15695339772E+02  0.10500000000E+00 0.  1.
</event>
<event>
11    0  0.3476221E-009  0.9118800E+02  0.7816531E-02  0.1126479E+00
         25   -1    0    0    0    0  0.00000000000E+00  0.00000000000E+00  0.99999998245E-14  0.12500000000E+03  0.12500000000E+03 0.  0.
    3000001    1    3    3    0    0 -0.31719392403E+01 -0.70821815016E+01 -0.94957070194E+01  0.12303940229E+02  0.10000000000E+01 0. -1.
    1000022    2    1    0    0    0 -0.32365683915E+02 -0.25095351449E+02 -0.46140391436E+02  0.62500000047E+02  0.10000006218E+02 0.  0.
    3000022    2    3    3    0    0 -0.29193744674E+02 -0.18013169948E+02 -0.36644684417E+02  0.50196059818E+02  0.25001108489E+00 0.  0.
    1000022    2    1    0    0    0  0.32365683915E+02  0.25095351449E+02  0.46140391436E+02  0.62499999953E+02  0.10000005633E+02 0.  0.
    3000022    2    5    5    0    0  0.30737305755E+01  0.49609106675E+01  0.29153555020E+01  0.65284181682E+01  0.24998354803E+00 0.  0.
        -13    1    4    4    0    0 -0.20182985856E+02 -0.12497798378E+02 -0.25315697103E+02  0.34705092237E+02  0.10500000000E+00 0.  1.
         13    1    4    4    0    0 -0.90107588188E+01 -0.55153715701E+01 -0.11328987313E+02  0.15490967581E+02  0.10500000000E+00 0. -1.
    3000001    1    5    5    0    0  0.29291953339E+02  0.20134440782E+02  0.43225035934E+02  0.55971581785E+02  0.10000000000E+01 0.  1.
        -13    1    6    6    0    0  0.21968048618E+01  0.34825428279E+01  0.20885416819E+01  0.46181259734E+01  0.10500000000E+00 0. -1.
         13    1    6    6    0    0  0.87692571368E+00  0.14783678396E+01  0.82681382008E+00  0.19102921948E+01  0.10500000000E+00 0.  1.
</event>
<event>
11    0  0.3476221E-009  0.9118800E+02  0.7816531E-02  0.1126479E+00
         25   -1    0    0    0    0  0.00000000000E+00  0.00000000000E+00  0.99999998245E-14  0.12500000000E+03  0.12500000000E+03 0.  0.
    3000001    1    3    3    0    0  0.37044033088E+02  0.26546784097E+02  0.65446421242E+01  0.46052410077E+02  0.10000000000E+01 0.  1.
    1000022    2    1    0    0    0  0.48273822228E+02  0.35597746619E+02  0.14446068129E+02  0.62499997099E+02  0.99999638082E+01 0.  0.
    3000022    2    3    3    0    0  0.11229789140E+02  0.90509625222E+01  0.79014260049E+01  0.16447587023E+02  0.24999851177E+00 0.  0.
    1000022    2    1    0    0    0 -0.48273822228E+02 -0.35597746619E+02 -0.14446068129E+02  0.62500002901E+02  0.10000000069E+02 0.  0.
    3000022    2    5    5    0    0 -0.60937343248E+01 -0.27337098547E+01 -0.46175702615E+01  0.81234997190E+01  0.25004994285E+00 0.  0.
        -13    1    4    4    0    0  0.51062630716E+01  0.41595422039E+01  0.36736454980E+01  0.75420428364E+01  0.10500000000E+00 0. -1.
         13    1    4    4    0    0  0.61235260680E+01  0.48914203183E+01  0.42277805070E+01  0.89055441861E+01  0.10500000000E+00 0.  1.
    3000001    1    5    5    0    0 -0.42180087903E+02 -0.32864036764E+02 -0.98284978675E+01  0.54376503182E+02  0.10000000000E+01 0.  1.
        -13    1    6    6    0    0 -0.43104073268E+01 -0.19807857464E+01 -0.32788141887E+01  0.57675619615E+01  0.10500000000E+00 0. -1.
         13    1    6    6    0    0 -0.17833269979E+01 -0.75292410828E+00 -0.13387560729E+01  0.23559377575E+01  0.10500000000E+00 0.  1.
</event>
<event>
11    0  0.3476221E-009  0.9118800E+02  0.7816531E-02  0.1126479E+00
         25   -1    0    0    0    0  0.00000000000E+00  0.00000000000E+00  0.99999998245E-14  0.12500000000E+03  0.12500000000E+03 0.  0.
    3000001    1    3    3    0    0  0.34536294672E+01 -0.39032590535E+02 -0.19064567644E+02  0.43588168347E+02  0.10000000000E+01 0. -1.
    1000022    2    1    0    0    0  0.83150515212E+01 -0.57093681008E+02 -0.21849979248E+02  0.62500000293E+02  0.99999975331E+01 0.  0.
    3000022    2    3    3    0    0  0.48614220539E+01 -0.18061090473E+02 -0.27854116034E+01  0.18911831946E+02  0.24991258259E+00 0.  0.
    1000022    2    1    0    0    0 -0.83150515212E+01  0.57093681008E+02  0.21849979248E+02  0.62499999707E+02  0.99999938745E+01 0.  0.
    3000022    2    5    5    0    0 -0.68259019046E+01  0.23172703306E+02  0.53839711089E+01  0.24751096162E+02  0.25000204144E+00 0.  0.
        -13    1    4    4    0    0  0.30011684817E+01 -0.11180424023E+02 -0.17849097351E+01  0.11713488864E+02  0.10500000000E+00 0.  1.
         13    1    4    4    0    0  0.18602535722E+01 -0.68806664497E+01 -0.10005018683E+01  0.71983430825E+01  0.10500000000E+00 0. -1.
    3000001    1    5    5    0    0 -0.14891496165E+01  0.33920977702E+02  0.16466008139E+02  0.37748903545E+02  0.10000000000E+01 0.  1.
        -13    1    6    6    0    0 -0.45864633293E+01  0.15729584033E+02  0.36267520261E+01  0.16781531962E+02  0.10500000000E+00 0. -1.
         13    1    6    6    0    0 -0.22394385753E+01  0.74431192723E+01  0.17572190828E+01  0.79695642001E+01  0.10500000000E+00 0.  1.
</event>
<event>
11    0  0.3476221E-009  0.9118800E+02  0.7816531E-02  0.1126479E+00
         25   -1    0    0    0    0  0.00000000000E+00  0.00000000000E+00  0.99999998245E-14  0.12500000000E+03  0.12500000000E+03 0.  0.
    3000001    1    3    3    0    0 -0.70767035220E+01 -0.93142458410E+00 -0.20757586031E+02  0.21973271544E+02  0.10000000000E+01 0.  1.
    1000022    2    1    0    0    0 -0.22101080517E+02 -0.15400769725E+02 -0.55503228868E+02  0.62500004037E+02  0.10000031089E+02 0.  0.
    3000022    2    3    3    0    0 -0.15024376995E+02 -0.14469345141E+02 -0.34745642837E+02  0.40526732494E+02  0.24999516781E+00 0.  0.
    1000022    2    1    0    0    0  0.22101080517E+02  0.15400769725E+02  0.55503228868E+02  0.62499995963E+02  0.99999806223E+01 0.  0.
    3000022    2    5    5    0    0  0.20393692468E+02  0.10556610051E+02  0.39831605624E+02  0.45977864381E+02  0.24999641918E+00 0.  0.
        -13    1    4    4    0    0 -0.11100283350E+02 -0.10708842849E+02 -0.25634840291E+02  0.29917414115E+02  0.10500000000E+00 0.  1.
         13    1    4    4    0    0 -0.39240936442E+01 -0.37605022919E+01 -0.91108025464E+01  0.10609318378E+02  0.10500000000E+00 0. -1.
    3000001    1    5    5    0    0  0.17073880482E+01  0.48441596741E+01  0.15671623244E+02  0.16522131582E+02  0.10000000000E+01 0.  1.
        -13    1    6    6    0    0  0.11278861083E+02  0.57993365134E+01  0.22111427579E+02  0.25490611329E+02  0.10500000000E+00 0.  1.
         13    1    6    6    0    0  0.91148313854E+01  0.47572735373E+01  0.17720178044E+02  0.20487253052E+02  0.10500000000E+00 0. -1.
</event>
<event>
11    0  0.3476221E-009  0.9118800E+02  0.7816531E-02  0.1126479E+00
         25   -1    0    0    0    0  0.00000000000E+00  0.00000000000E+00  0.99999998245E-14  0.12500000000E+03  0.12500000000E+03 0.  0.
    3000001    1    3    3    0    0 -0.15020346673E+01 -0.86543152663E+01 -0.26134132429E+00  0.88442964761E+01  0.10000000000E+01 0.  1.
    1000022    2    1    0    0    0 -0.32224280382E+02 -0.52266138142E+02 -0.60080267495E+01  0.62499998586E+02  0.99999997730E+01 0.  0.
    3000022    2    3    3    0    0 -0.30722245715E+02 -0.43611822876E+02 -0.57466854252E+01  0.53655702110E+02  0.24999854486E+00 0.  0.
    1000022    2    1    0    0    0  0.32224280382E+02  0.52266138142E+02  0.60080267495E+01  0.62500001414E+02  0.10000017442E+02 0.  0.
    3000022    2    5    5    0    0  0.21584299362E+02  0.26600833538E+02  0.54869132659E+01  0.34693732052E+02  0.25000533404E+00 0.  0.
        -13    1    4    4    0    0 -0.13985234860E+02 -0.19763076037E+02 -0.26507414283E+01  0.24355767770E+02  0.10500000000E+00 0.  1.
         13    1    4    4    0    0 -0.16737010854E+02 -0.23848746839E+02 -0.30959439968E+01  0.29299934340E+02  0.10500000000E+00 0. -1.
    3000001    1    5    5    0    0  0.10639981020E+02  0.25665304604E+02  0.52111348352E+00  0.27806269361E+02  0.10000000000E+01 0. -1.
        -13    1    6    6    0    0  0.11810515326E+02  0.14491565502E+02  0.29403178736E+01  0.18924857653E+02  0.10500000000E+00 0. -1.
         13    1    6    6    0    0  0.97737840359E+01  0.12109268036E+02  0.25465953923E+01  0.15768874400E+02  0.10500000000E+00 0.  1.
</event>
<event>
11    0  0.3476221E-009  0.9118800E+02  0.7816531E-02  0.1126479E+00
         25   -1    0    0    0    0  0.00000000000E+00  0.00000000000E+00  0.99999998245E-14  0.12500000000E+03  0.12500000000E+03 0.  0.
    3000001    1    3    3    0    0  0.64392746165E+01 -0.58777547189E+01 -0.21425700144E+01  0.90334303777E+01  0.10000000000E+01 0. -1.
    1000022    2    1    0    0    0  0.47827004104E+02 -0.38085630816E+02  0.82651144091E+01  0.62499997791E+02  0.10000000570E+02 0.  0.
    3000022    2    3    3    0    0  0.41387729488E+02 -0.32207876097E+02  0.10407684423E+02  0.53466567413E+02  0.25000206861E+00 0.  0.
    1000022    2    1    0    0    0 -0.47827004104E+02  0.38085630816E+02 -0.82651144091E+01  0.62500002209E+02  0.10000028187E+02 0.  0.
    3000022    2    5    5    0    0 -0.19090664985E+02  0.16798852056E+02  0.13122644094E+01  0.25464474388E+02  0.24999605394E+00 0.  0.
        -13    1    4    4    0    0  0.15162372058E+02 -0.11806903933E+02  0.38736827096E+01  0.19604003409E+02  0.10500000000E+00 0. -1.
         13    1    4    4    0    0  0.26225357429E+02 -0.20400972164E+02  0.65340017138E+01  0.33862564004E+02  0.10500000000E+00 0.  1.
    3000001    1    5    5    0    0 -0.28736339119E+02  0.21286778760E+02 -0.95773788185E+01  0.37035527821E+02  0.10000000000E+01 0. -1.
        -13    1    6    6    0    0 -0.93669816761E+01  0.81548488237E+01  0.65710931292E+00  0.12437231312E+02  0.10500000000E+00 0. -1.
         13    1    6    6    0    0 -0.97236833091E+01  0.86440032322E+01  0.65515509648E+00  0.13027243076E+02  0.10500000000E+00 0.  1.
</event>
<event>
11    0  0.3476221E-009  0.9118800E+02  0.7816531E-02  0.1126479E+00
         25   -1    0    0    0    0  0.00000000000E+00  0.00000000000E+00  0.99999998245E-14  0.12500000000E+03  0.12500000000E+03 0.  0.
    3000001    1    3    3    0    0 -0.10472992565E+02  0.33576846627E+02  0.47476521593E+01  0.35505329230E+02  0.10000000000E+01 0. -1.
    1000022    2    1    0    0    0 -0.25109062762E+02  0.55051425312E+02  0.12046804831E+02  0.62499999516E+02  0.99999985629E+01 0.  0.
    3000022    2    3    3    0    0 -0.14636070196E+02  0.21474578684E+02  0.72991526713E+01  0.26994670286E+02  0.25002732927E+00 0.  0.
    1000022    2    1    0    0    0  0.25109062762E+02 -0.55051425312E+02 -0.12046804831E+02  0.62500000484E+02  0.10000004612E+02 0.  0.
    3000022    2    5    5    0    0  0.39345067505E+01 -0.69722841333E+01  0.16967662939E+01  0.81874661481E+01  0.24999333001E+00 0.  0.
        -13    1    4    4    0    0 -0.10159648995E+02  0.14989450193E+02  0.50883865846E+01  0.18809699302E+02  0.10500000000E+00 0.  1.
         13    1    4    4    0    0 -0.44764212010E+01  0.64851284913E+01  0.22107660867E+01  0.81849709839E+01  0.10500000000E+00 0. -1.
    3000001    1    5    5    0    0  0.21174556011E+02 -0.48079141178E+02 -0.13743571124E+02  0.54312534336E+02  0.10000000000E+01 0. -1.
        -13    1    6    6    0    0  0.25422597854E+01 -0.46025950995E+01  0.11424460812E+01  0.53817445605E+01  0.10500000000E+00 0.  1.
         13    1    6    6    0    0  0.13922469651E+01 -0.23696890338E+01  0.55432021269E+00  0.28057215876E+01  0.10500000000E+00 0. -1.
</event>
<event>
11    0  0.3476221E-009  0.9118800E+02  0.7816531E-02  0.1126479E+00
         25   -1    0    0    0    0  0.00000000000E+00  0.00000000000E+00  0.99999998245E-14  0.12500000000E+03  0.12500000000E+03 0.  0.
    3000001    1    3    3    0    0  0.24965242906E+02  0.13948797747E+02 -0.12729816585E+01  0.28643547166E+02  0.10000000000E+01 0.  1.
    1000022    2    1    0    0    0  0.51313554183E+02  0.33524853241E+02  0.70180663288E+01  0.62500000428E+02  0.10000008540E+02 0.  0.
    3000022    2    3    3    0    0  0.26348311277E+02  0.19576055494E+02  0.82910479873E+01  0.33856453262E+02  0.24998984279E+00 0.  0.
    1000022    2    1    0    0    0 -0.51313554183E+02 -0.33524853241E+02 -0.70180663288E+01  0.62499999572E+02  0.10000003187E+02 0.  0.
    3000022    2    5    5    0    0 -0.32333027081E+01 -0.37882548114E+01  0.17448216781E+01  0.52831832126E+01  0.25000250065E+00 0.  0.
        -13    1    4    4    0    0  0.84261530267E+01  0.62406267765E+01  0.26981419125E+01  0.10827579239E+02  0.10500000000E+00 0.  1.
         13    1    4    4    0    0  0.17922158250E+02  0.13335428717E+02  0.55929060748E+01  0.23028874023E+02  0.10500000000E+00 0. -1.
    3000001    1    5    5    0    0 -0.48080251475E+02 -0.29736598430E+02 -0.87628880069E+01  0.57216816359E+02  0.10000000000E+01 0. -1.
        -13    1    6    6    0    0 -0.18860967293E+01 -0.22973345381E+01  0.10109431039E+01  0.31413592299E+01  0.10500000000E+00 0.  1.
         13    1    6    6    0    0 -0.13472059789E+01 -0.14909202734E+01  0.73387857427E+00  0.21418239827E+01  0.10500000000E+00 0. -1.
</event>
<event>
11    0  0.3476221E-009  0.9118800E+02  0.7816531E-02  0.1126479E+00
         25   -1    0    0    0    0  0.00000000000E+00  0.00000000000E+00  0.99999998245E-14  0.12500000000E+03  0.12500000000E+03 0.  0.
    3000001    1    3    3    0    0  0.18977406529E+02  0.25943327459E+02 -0.42790810481E+02  0.53528045544E+02  0.10000000000E+01 0.  1.
    1000022    2    1    0    0    0  0.18915776763E+02  0.32498918994E+02 -0.48910771117E+02  0.62500001258E+02  0.10000013984E+02 0.  0.
    3000022    2    3    3    0    0 -0.61629765421E-01  0.65555915356E+01 -0.61199606357E+01  0.89719557137E+01  0.24998507379E+00 0.  0.
    1000022    2    1    0    0    0 -0.18915776763E+02 -0.32498918994E+02  0.48910771117E+02  0.62499998742E+02  0.99999982589E+01 0.  0.
    3000022    2    5    5    0    0 -0.17185794517E+02 -0.24018110644E+02  0.42169858943E+02  0.51483790421E+02  0.25000147926E+00 0.  0.
        -13    1    4    4    0    0 -0.41079008697E-01  0.48509896449E+01 -0.44835585682E+01  0.66065959808E+01  0.10500000000E+00 0. -1.
         13    1    4    4    0    0 -0.20550756724E-01  0.17046018907E+01 -0.16364020675E+01  0.23653597329E+01  0.10500000000E+00 0.  1.
    3000001    1    5    5    0    0 -0.17299822465E+01 -0.84808083498E+01  0.67409121735E+01  0.11016208321E+02  0.10000000000E+01 0. -1.
        -13    1    6    6    0    0 -0.12333470416E+02 -0.17236388776E+02  0.30191783135E+02  0.36888512906E+02  0.10500000000E+00 0. -1.
         13    1    6    6    0    0 -0.48523241003E+01 -0.67817218688E+01  0.11978075808E+02  0.14595277515E+02  0.10500000000E+00 0.  1.
</event>
<event>
11    0  0.3476221E-009  0.9118800E+02  0.7816531E-02  0.1126479E+00
         25   -1    0    0    0    0  0.00000000000E+00  0.00000000000E+00  0.99999998245E-14  0.12500000000E+03  0.12500000000E+03 0.  0.
    3000001    1    3    3    0    0  0.14527238745E+02 -0.57005811251E+01 -0.10098800812E+02  0.18615130098E+02  0.10000000000E+01 0. -1.
    1000022    2    1    0    0    0  0.55915947531E+02 -0.15117346256E+02 -0.21239630953E+02  0.62499993971E+02  0.99999988633E+01 0.  0.
    3000022    2    3    3    0    0  0.41388708786E+02 -0.94167651308E+01 -0.11140830141E+02  0.43884863874E+02  0.25000093051E+00 0.  0.
    1000022    2    1    0    0    0 -0.55915947531E+02  0.15117346256E+02  0.21239630953E+02  0.62500006029E+02  0.10000074221E+02 0.  0.
    3000022    2    5    5    0    0 -0.27571418254E+02  0.65294374620E+01  0.52153084759E+01  0.28811084582E+02  0.24998835847E+00 0.  0.
        -13    1    4    4    0    0  0.24084617746E+02 -0.54397057086E+01 -0.65339444676E+01  0.25541391220E+02  0.10500000000E+00 0. -1.
         13    1    4    4    0    0  0.17304091040E+02 -0.39770594222E+01 -0.46068856738E+01  0.18343472653E+02  0.10500000000E+00 0.  1.
    3000001    1    5    5    0    0 -0.28344529278E+02  0.85879087939E+01  0.16024322477E+02  0.33688921447E+02  0.10000000000E+01 0.  1.
        -13    1    6    6    0    0 -0.78488741859E+01  0.18765229418E+01  0.14473724803E+01  0.81995168415E+01  0.10500000000E+00 0.  1.
         13    1    6    6    0    0 -0.19722544068E+02  0.46529145202E+01  0.37679359956E+01  0.20611567740E+02  0.10500000000E+00 0. -1.
</event>
<event>
11    0  0.3476221E-009  0.9118800E+02  0.7816531E-02  0.1126479E+00
         25   -1    0    0    0    0  0.00000000000E+00  0.00000000000E+00  0.99999998245E-14  0.12500000000E+03  0.12500000000E+03 0.  0.
    3000001    1    3    3    0    0  0.90406104171E+01 -0.70053398145E+01  0.15889361216E+01  0.11590174314E+02  0.10000000000E+01 0.  1.
    1000022    2    1    0    0    0  0.56769956638E+02 -0.23830672178E+02 -0.39396756515E+01  0.62499999932E+02  0.10000001706E+02 0.  0.
    3000022    2    3    3    0    0  0.47729346221E+02 -0.16825332363E+02 -0.55286117731E+01  0.50909825618E+02  0.24999298470E+00 0.  0.
    1000022    2    1    0    0    0 -0.56769956638E+02  0.23830672178E+02  0.39396756515E+01  0.62500000068E+02  0.10000002555E+02 0.  0.
    3000022    2    5    5    0    0 -0.59823736578E+00 -0.31336381298E+00 -0.90832465726E+00  0.11591521202E+01  0.24999025936E+00 0.  0.
        -13    1    4    4    0    0  0.11895611515E+02 -0.42114343479E+01 -0.13982780464E+01  0.12696769632E+02  0.10500000000E+00 0. -1.
         13    1    4    4    0    0  0.35833734706E+02 -0.12613898015E+02 -0.41303337268E+01  0.38213055986E+02  0.10500000000E+00 0.  1.
    3000001    1    5    5    0    0 -0.56171719273E+02  0.24144035991E+02  0.48480003088E+01  0.61340847948E+02  0.10000000000E+01 0. -1.
        -13    1    6    6    0    0 -0.17454841162E+00 -0.48089335363E-01 -0.26941563127E+00  0.34115907514E+00  0.10500000000E+00 0.  1.
         13    1    6    6    0    0 -0.42368895416E+00 -0.26527447762E+00 -0.63890902599E+00  0.81799304510E+00  0.10500000000E+00 0. -1.
</event>
<event>
11    0  0.3476221E-009  0.9118800E+02  0.7816531E-02  0.1126479E+00
         25   -1    0    0    0    0  0.00000000000E+00  0.00000000000E+00  0.99999998245E-14  0.12500000000E+03  0.12500000000E+03 0.  0.
    3000001    1    3    3    0    0 -0.29590630960E+02  0.28743681660E+02 -0.23760731196E+02  0.47616982506E+02  0.10000000000E+01 0.  1.
    1000022    2    1    0    0    0 -0.33932408451E+02  0.39858403802E+02 -0.32651939781E+02  0.62499998019E+02  0.99999942012E+01 0.  0.
    3000022    2    3    3    0    0 -0.43417774912E+01  0.11114722142E+02 -0.88912085848E+01  0.14883015514E+02  0.24996120501E+00 0.  0.
    1000022    2    1    0    0    0  0.33932408451E+02 -0.39858403802E+02  0.32651939781E+02  0.62500001981E+02  0.10000018961E+02 0.  0.
    3000022    2    5    5    0    0  0.50289550903E+01 -0.10764162756E+02  0.43203853029E+01  0.12644596483E+02  0.25000381808E+00 0.  0.
        -13    1    4    4    0    0 -0.33142588812E+01  0.84383437759E+01 -0.67415425946E+01  0.11298202475E+02  0.10500000000E+00 0. -1.
         13    1    4    4    0    0 -0.10275186100E+01  0.26763783660E+01 -0.21496659903E+01  0.35848130385E+01  0.10500000000E+00 0.  1.
    3000001    1    5    5    0    0  0.28903453361E+02 -0.29094241045E+02  0.28331554478E+02  0.49855405498E+02  0.10000000000E+01 0. -1.
        -13    1    6    6    0    0  0.24384024368E+01 -0.50607304695E+01  0.20503541475E+01  0.59809511333E+01  0.10500000000E+00 0.  1.
         13    1    6    6    0    0  0.25905526535E+01 -0.57034322869E+01  0.22700311554E+01  0.66636453498E+01  0.10500000000E+00 0. -1.
</event>
<event>
11    0  0.3476221E-009  0.9118800E+02  0.7816531E-02  0.1126479E+00
         25   -1    0    0    0    0  0.00000000000E+00  0.00000000000E+00  0.99999998245E-14  0.12500000000E+03  0.12500000000E+03 0.  0.
    3000001    1    3    3    0    0  0.13043909391E+02 -0.16478809593E+02 -0.49169484334E+01  0.21607200645E+02  0.10000000000E+01 0.  1.
    1000022    2    1    0    0    0  0.27672721370E+02 -0.50132379851E+02 -0.22961161927E+02  0.62500000682E+02  0.10000005530E+02 0.  0.
    3000022    2    3    3    0    0  0.14628811979E+02 -0.33653570258E+02 -0.18044213493E+02  0.40892800037E+02  0.25004643972E+00 0.  0.
    1000022    2    1    0    0    0 -0.27672721370E+02  0.50132379851E+02  0.22961161927E+02  0.62499999318E+02  0.99999970069E+01 0.  0.
    3000022    2    5    5    0    0 -0.16466453384E+02  0.23512012307E+02  0.72582376145E+01  0.29609176247E+02  0.24998990489E+00 0.  0.
        -13    1    4    4    0    0  0.99295490548E+01 -0.22882927914E+02 -0.12211899565E+02  0.27773473862E+02  0.10500000000E+00 0. -1.
         13    1    4    4    0    0  0.46992629242E+01 -0.10770642344E+02 -0.58323139288E+01  0.13119326175E+02  0.10500000000E+00 0.  1.
    3000001    1    5    5    0    0 -0.11206267986E+02  0.26620367544E+02  0.15702924312E+02  0.32890823072E+02  0.10000000000E+01 0.  1.
        -13    1    6    6    0    0 -0.87045359823E+01  0.12456496356E+02  0.37749481973E+01  0.15658687909E+02  0.10500000000E+00 0.  1.
         13    1    6    6    0    0 -0.77619174015E+01  0.11055515951E+02  0.34832894172E+01  0.13950488338E+02  0.10500000000E+00 0. -1.
</event>
<event>
11    0  0.3476221E-009  0.9118800E+02  0.7816531E-02  0.1126479E+00
         25   -1    0    0    0    0  0.00000000000E+00  0.00000000000E+00  0.99999998245E-14  0.12500000000E+03  0.12500000000E+03 0.  0.
    3000001    1    3    3    0    0 -0.22370359887E+02 -0.11425462615E+01 -0.76702965157E+01  0.23697507508E+02  0.10000000000E+01 0.  1.
    1000022    2    1    0    0    0 -0.57764362988E+02 -0.14781774718E+02 -0.15843840650E+02  0.62499998946E+02  0.10000004327E+02 0.  0.
    3000022    2    3    3    0    0 -0.35394003101E+02 -0.13639228456E+02 -0.81735441340E+01  0.38802491439E+02  0.25001949748E+00 0.  0.
    1000022    2    1    0    0    0  0.57764362988E+02  0.14781774718E+02  0.15843840650E+02  0.62500001054E+02  0.10000017497E+02 0.  0.
    3000022    2    5    5    0    0  0.49631200789E+02  0.13053612897E+02  0.16963839594E+02  0.54050784032E+02  0.24999863550E+00 0.  0.
        -13    1    4    4    0    0 -0.26228537182E+02 -0.10073941919E+02 -0.60579181947E+01  0.28742474951E+02  0.10500000000E+00 0.  1.
         13    1    4    4    0    0 -0.91654659195E+01 -0.35652865371E+01 -0.21156259393E+01  0.10060016487E+02  0.10500000000E+00 0. -1.
    3000001    1    5    5    0    0  0.81331621994E+01  0.17281618209E+01 -0.11199989444E+01  0.84492170215E+01  0.10000000000E+01 0.  1.
        -13    1    6    6    0    0  0.18224860676E+02  0.48479075236E+01  0.62621077765E+01  0.19871405909E+02  0.10500000000E+00 0.  1.
         13    1    6    6    0    0  0.31406340113E+02  0.82057053732E+01  0.10701731818E+02  0.34179378123E+02  0.10500000000E+00 0. -1.
</event>
<event>
11    0  0.3476221E-009  0.9118800E+02  0.7816531E-02  0.1126479E+00
         25   -1    0    0    0    0  0.00000000000E+00  0.00000000000E+00  0.99999998245E-14  0.12500000000E+03  0.12500000000E+03 0.  0.
    3000001    1    3    3    0    0  0.92520365709E+00  0.16580451713E+01  0.43823016193E+00  0.21902422861E+01  0.10000000000E+01 0.  1.
    1000022    2    1    0    0    0  0.21846996348E+02  0.26367586896E+02  0.51319674914E+02  0.62499999237E+02  0.99999991593E+01 0.  0.
    3000022    2    3    3    0    0  0.20921792691E+02  0.24709541725E+02  0.50881444752E+02  0.60309756951E+02  0.25000351453E+00 0.  0.
    1000022    2    1    0    0    0 -0.21846996348E+02 -0.26367586896E+02 -0.51319674914E+02  0.62500000763E+02  0.10000008695E+02 0.  0.
    3000022    2    5    5    0    0 -0.18876092161E+02 -0.23199694918E+02 -0.49168887811E+02  0.57551496299E+02  0.24999607170E+00 0.  0.
        -13    1    4    4    0    0  0.93138831586E+01  0.10937745398E+02  0.22478401459E+02  0.26677185965E+02  0.10500000000E+00 0. -1.
         13    1    4    4    0    0  0.11607909533E+02  0.13771796327E+02  0.28403043294E+02  0.33632570986E+02  0.10500000000E+00 0.  1.
    3000001    1    5    5    0    0 -0.29709041867E+01 -0.31678919777E+01 -0.21507871028E+01  0.49485044641E+01  0.10000000000E+01 0. -1.
        -13    1    6    6    0    0 -0.70382381100E+01 -0.85816601465E+01 -0.18325097478E+02  0.21424329841E+02  0.10500000000E+00 0.  1.
         13    1    6    6    0    0 -0.11837854051E+02 -0.14618034772E+02 -0.30843790334E+02  0.36127166458E+02  0.10500000000E+00 0. -1.
</event>
<event>
11    0  0.3476221E-009  0.9118800E+02  0.7816531E-02  0.1126479E+00
         25   -1    0    0    0    0  0.00000000000E+00  0.00000000000E+00  0.99999998245E-14  0.12500000000E+03  0.12500000000E+03 0.  0.
    3000001    1    3    3    0    0 -0.24006339809E+02 -0.47979493565E+02 -0.29525226405E+02  0.61246021488E+02  0.10000000000E+01 0. -1.
    1000022    2    1    0    0    0 -0.24692262081E+02 -0.48668443775E+02 -0.28773682696E+02  0.62499999657E+02  0.99999957549E+01 0.  0.
    3000022    2    3    3    0    0 -0.68592227194E+00 -0.68895021015E+00  0.75154370897E+00  0.12539781698E+01  0.25000309712E+00 0.  0.
    1000022    2    1    0    0    0  0.24692262081E+02  0.48668443775E+02  0.28773682696E+02  0.62500000343E+02  0.10000000038E+02 0.  0.
    3000022    2    5    5    0    0  0.14715736412E+02  0.18480204504E+02  0.10980241404E+02  0.26051853507E+02  0.25002641645E+00 0.  0.
        -13    1    4    4    0    0 -0.36729032649E+00 -0.27403523791E+00  0.36110893785E+00  0.59280870485E+00  0.10500000000E+00 0.  1.
         13    1    4    4    0    0 -0.31863194545E+00 -0.41491497225E+00  0.39043477112E+00  0.66116946493E+00  0.10500000000E+00 0. -1.
    3000001    1    5    5    0    0  0.99765256683E+01  0.30188239271E+02  0.17793441292E+02  0.36448146835E+02  0.10000000000E+01 0. -1.
        -13    1    6    6    0    0  0.96322378303E+01  0.12006711278E+02  0.71463229869E+01  0.16971213232E+02  0.10500000000E+00 0.  1.
         13    1    6    6    0    0  0.50834985821E+01  0.64734932259E+01  0.38339184170E+01  0.90806402752E+01  0.10500000000E+00 0. -1.
</event>
<event>
11    0  0.3476221E-009  0.9118800E+02  0.7816531E-02  0.1126479E+00
         25   -1    0    0    0    0  0.00000000000E+00  0.00000000000E+00  0.99999998245E-14  0.12500000000E+03  0.12500000000E+03 0.  0.
    3000001    1    3    3    0    0 -0.49896738957E+02  0.10001008471E+02  0.10871716893E+02  0.52047084041E+02  0.10000000000E+01 0. -1.
    1000022    2    1    0    0    0 -0.60159763063E+02  0.10353755525E+02  0.89360382193E+01  0.62499999729E+02  0.99999920891E+01 0.  0.
    3000022    2    3    3    0    0 -0.10263024105E+02  0.35274705399E+00 -0.19356786734E+01  0.10452915687E+02  0.25000033152E+00 0.  0.
    1000022    2    1    0    0    0  0.60159763063E+02 -0.10353755525E+02 -0.89360382193E+01  0.62500000271E+02  0.99999954818E+01 0.  0.
    3000022    2    5    5    0    0  0.54040622836E+02 -0.11962689947E+02 -0.68960851419E+01  0.55777355283E+02  0.25000944416E+00 0.  0.
        -13    1    4    4    0    0 -0.43777274185E+01  0.16993186498E+00 -0.76245208397E+00  0.44481155976E+01  0.10500000000E+00 0.  1.
         13    1    4    4    0    0 -0.58852966869E+01  0.18281518900E+00 -0.11732265895E+01  0.60048000896E+01  0.10500000000E+00 0. -1.
    3000001    1    5    5    0    0  0.61191402265E+01  0.16089344227E+01 -0.20399530774E+01  0.67226449888E+01  0.10000000000E+01 0.  1.
        -13    1    6    6    0    0  0.15712285303E+02 -0.34829112226E+01 -0.19619260272E+01  0.16213166216E+02  0.10500000000E+00 0. -1.
         13    1    6    6    0    0  0.38328337533E+02 -0.84797787248E+01 -0.49341591147E+01  0.39564189066E+02  0.10500000000E+00 0.  1.
</event>
<event>
11    0  0.3476221E-009  0.9118800E+02  0.7816531E-02  0.1126479E+00
         25   -1    0    0    0    0  0.00000000000E+00  0.00000000000E+00  0.99999998245E-14  0.12500000000E+03  0.12500000000E+03 0.  0.
    3000001    1    3    3    0    0  0.65695272389E+01  0.17330304388E+02  0.93238779876E+01  0.20770961438E+02  0.10000000000E+01 0. -1.
    1000022    2    1    0    0    0  0.31220774291E+02  0.44305308388E+02  0.29471219788E+02  0.62500000621E+02  0.10000009158E+02 0.  0.
    3000022    2    3    3    0    0  0.24651247052E+02  0.26975004000E+02  0.20147341801E+02  0.41729039183E+02  0.25001502568E+00 0.  0.
    1000022    2    1    0    0    0 -0.31220774291E+02 -0.44305308388E+02 -0.29471219788E+02  0.62499999379E+02  0.10000001392E+02 0.  0.
    3000022    2    5    5    0    0 -0.14787751566E+02 -0.14832386358E+02 -0.76359005476E+01  0.22294545331E+02  0.24998574604E+00 0.  0.
        -13    1    4    4    0    0  0.63542733265E+01  0.69245084260E+01  0.51552955171E+01  0.10719780936E+02  0.10500000000E+00 0.  1.
         13    1    4    4    0    0  0.18296973726E+02  0.20050495574E+02  0.14992046284E+02  0.31009258247E+02  0.10500000000E+00 0. -1.
    3000001    1    5    5    0    0 -0.16433022725E+02 -0.29472922030E+02 -0.21835319241E+02  0.40205454048E+02  0.10000000000E+01 0.  1.
        -13    1    6    6    0    0 -0.57055704572E+01 -0.58045172223E+01 -0.29910263777E+01  0.86719789101E+01  0.10500000000E+00 0. -1.
         13    1    6    6    0    0 -0.90821811093E+01 -0.90278691355E+01 -0.46448741699E+01  0.13622566421E+02  0.10500000000E+00 0.  1.
</event>
<event>
11    0  0.3476221E-009  0.9118800E+02  0.7816531E-02  0.1126479E+00
         25   -1    0    0    0    0  0.00000000000E+00  0.00000000000E+00  0.99999998245E-14  0.12500000000E+03  0.12500000000E+03 0.  0.
    3000001    1    3    3    0    0 -0.18939544224E+00 -0.12634806777E+01 -0.11655476859E+01  0.19976875292E+01  0.10000000000E+01 0. -1.
    1000022    2    1    0    0    0  0.37264899782E+02 -0.43737016004E+02 -0.22464424877E+02  0.62500002370E+02  0.10000029326E+02 0.  0.
    3000022    2    3    3    0    0  0.37454295224E+02 -0.42473535327E+02 -0.21298877191E+02  0.60502314841E+02  0.24999530447E+00 0.  0.
    1000022    2    1    0    0    0 -0.37264899782E+02  0.43737016004E+02  0.22464424877E+02  0.62499997630E+02  0.99999997002E+01 0.  0.
    3000022    2    5    5    0    0 -0.20172392268E+02  0.30861418811E+02  0.15175578723E+02  0.39871208567E+02  0.25000440678E+00 0.  0.
        -13    1    4    4    0    0  0.28235882610E+02 -0.31994319782E+02 -0.16067889642E+02  0.45597035733E+02  0.10500000000E+00 0. -1.
         13    1    4    4    0    0  0.92184126143E+01 -0.10479215544E+02 -0.52309875486E+01  0.14905279108E+02  0.10500000000E+00 0.  1.
    3000001    1    5    5    0    0 -0.17092507513E+02  0.12875597193E+02  0.72888461542E+01  0.22628789063E+02  0.10000000000E+01 0. -1.
        -13    1    6    6    0    0 -0.11613537286E+02  0.17877021098E+02  0.88014236580E+01  0.23063785792E+02  0.10500000000E+00 0.  1.
         13    1    6    6    0    0 -0.85588549818E+01  0.12984397713E+02  0.63741550646E+01  0.16807422776E+02  0.10500000000E+00 0. -1.
</event>
<event>
11    0  0.3476221E-009  0.9118800E+02  0.7816531E-02  0.1126479E+00
         25   -1    0    0    0    0  0.00000000000E+00  0.00000000000E+00  0.99999998245E-14  0.12500000000E+03  0.12500000000E+03 0.  0.
    3000001    1    3    3    0    0  0.43478364271E+01  0.24974122081E+02 -0.14821292437E+02  0.29381646734E+02  0.10000000000E+01 0. -1.
    1000022    2    1    0    0    0 -0.81905854057E+00  0.54503439773E+02 -0.28895573696E+02  0.62499999639E+02  0.99999985833E+01 0.  0.
    3000022    2    3    3    0    0 -0.51668949677E+01  0.29529317693E+02 -0.14074281259E+02  0.33118352905E+02  0.24999839491E+00 0.  0.
    1000022    2    1    0    0    0  0.81905854057E+00 -0.54503439773E+02  0.28895573696E+02  0.62500000361E+02  0.10000003095E+02 0.  0.
    3000022    2    5    5    0    0  0.26993831886E+01 -0.46878303170E+01  0.15509492902E+01  0.56329708081E+01  0.24998748903E+00 0.  0.
        -13    1    4    4    0    0 -0.36945327002E+01  0.20951649398E+02 -0.10024108871E+02  0.23518396374E+02  0.10500000000E+00 0. -1.
         13    1    4    4    0    0 -0.14723622675E+01  0.85776682947E+01 -0.40501723878E+01  0.95999565307E+01  0.10500000000E+00 0.  1.
    3000001    1    5    5    0    0 -0.18803246480E+01 -0.49815609456E+02  0.27344624406E+02  0.56867029553E+02  0.10000000000E+01 0.  1.
        -13    1    6    6    0    0  0.11816583301E+01 -0.21607940588E+01  0.66537784441E+00  0.25532528370E+01  0.10500000000E+00 0. -1.
         13    1    6    6    0    0  0.15177248584E+01 -0.25270362582E+01  0.88557144580E+00  0.30797179711E+01  0.10500000000E+00 0.  1.
</event>
<event>
11    0  0.3476221E-009  0.9118800E+02  0.7816531E-02  0.1126479E+00
         25   -1    0    0    0    0  0.00000000000E+00  0.00000000000E+00  0.99999998245E-14  0.12500000000E+03  0.12500000000E+03 0.  0.
    3000001    1    3    3    0    0  0.13415774547E+02  0.18631843216E+02  0.16034581569E+02  0.28022069774E+02  0.10000000000E+01 0.  1.
    1000022    2    1    0    0    0  0.28728936432E+02  0.47618514608E+02  0.26709090461E+02  0.62500000022E+02  0.99999883737E+01 0.  0.
    3000022    2    3    3    0    0  0.15313161885E+02  0.28986671393E+02  0.10674508891E+02  0.34477930248E+02  0.24997754139E+00 0.  0.
    1000022    2    1    0    0    0 -0.28728936432E+02 -0.47618514608E+02 -0.26709090461E+02  0.62499999978E+02  0.99999881010E+01 0.  0.
    3000022    2    5    5    0    0 -0.21484808106E+02 -0.26607041902E+02 -0.14786657025E+02  0.37259084790E+02  0.25003059973E+00 0.  0.
        -13    1    4    4    0    0  0.74213482639E+01  0.13916165830E+02  0.51646761563E+01  0.16595812311E+02  0.10500000000E+00 0. -1.
         13    1    4    4    0    0  0.78918136207E+01  0.15070505563E+02  0.55098327352E+01  0.17882117937E+02  0.10500000000E+00 0.  1.
    3000001    1    5    5    0    0 -0.72441283254E+01 -0.21011472707E+02 -0.11922433435E+02  0.25240915188E+02  0.10000000000E+01 0. -1.
        -13    1    6    6    0    0 -0.15419717894E+02 -0.19080873197E+02 -0.10650223359E+02  0.26744825752E+02  0.10500000000E+00 0. -1.
         13    1    6    6    0    0 -0.60650902125E+01 -0.75261687050E+01 -0.41364336663E+01  0.10514259039E+02  0.10500000000E+00 0.  1.
</event>
<event>
11    0  0.3476221E-009  0.9118800E+02  0.7816531E-02  0.1126479E+00
         25   -1    0    0    0    0  0.00000000000E+00  0.00000000000E+00  0.99999998245E-14  0.12500000000E+03  0.12500000000E+03 0.  0.
    3000001    1    3    3    0    0  0.56109187744E+01 -0.95571867861E+00 -0.32478631256E+02  0.32988744989E+02  0.10000000000E+01 0.  1.
    1000022    2    1    0    0    0  0.18907560677E+02  0.15269146829E+01 -0.58706241036E+02  0.62499999886E+02  0.99999964970E+01 0.  0.
    3000022    2    3    3    0    0  0.13296641903E+02  0.24826333616E+01 -0.26227609780E+02  0.29511254897E+02  0.24999303323E+00 0.  0.
    1000022    2    1    0    0    0 -0.18907560677E+02 -0.15269146829E+01  0.58706241036E+02  0.62500000114E+02  0.99999979240E+01 0.  0.
    3000022    2    5    5    0    0 -0.14875124369E+02 -0.92720106931E+00  0.54710064715E+02  0.56704344484E+02  0.24995078564E+00 0.  0.
        -13    1    4    4    0    0  0.73720843771E+01  0.13558139708E+01 -0.14671635447E+02  0.16475854190E+02  0.10500000000E+00 0. -1.
         13    1    4    4    0    0  0.59245575256E+01  0.11268193908E+01 -0.11555974333E+02  0.13035400708E+02  0.10500000000E+00 0.  1.
    3000001    1    5    5    0    0 -0.40324363080E+01 -0.59971361364E+00  0.39961763207E+01  0.57956556301E+01  0.10000000000E+01 0.  1.
        -13    1    6    6    0    0 -0.69385785201E+01 -0.37725301765E+00  0.25654162542E+02  0.26578812472E+02  0.10500000000E+00 0.  1.
         13    1    6    6    0    0 -0.79365458491E+01 -0.54994805166E+00  0.29055902174E+02  0.30125532012E+02  0.10500000000E+00 0. -1.
</event>
<event>
11    0  0.3476221E-009  0.9118800E+02  0.7816531E-02  0.1126479E+00
         25   -1    0    0    0    0  0.00000000000E+00  0.00000000000E+00  0.99999998245E-14  0.12500000000E+03  0.12500000000E+03 0.  0.
    3000001    1    3    3    0    0  0.43886250474E+02  0.30245862551E+00 -0.10890486232E+02  0.45229383726E+02  0.10000000000E+01 0.  1.
    1000022    2    1    0    0    0  0.60548144020E+02  0.48395891375E+01 -0.10805095580E+02  0.62499995878E+02  0.10000001352E+02 0.  0.
    3000022    2    3    3    0    0  0.16661893546E+02  0.45371305119E+01  0.85390652166E-01  0.17270612152E+02  0.25000545651E+00 0.  0.
    1000022    2    1    0    0    0 -0.60548144020E+02 -0.48395891375E+01  0.10805095580E+02  0.62500004122E+02  0.10000052875E+02 0.  0.
    3000022    2    5    5    0    0 -0.48483065479E+02 -0.77285665625E+01  0.80331764829E+01  0.49748696494E+02  0.24999806839E+00 0.  0.
        -13    1    4    4    0    0  0.12774789210E+02  0.34801254234E+01  0.53103094637E-01  0.13240859386E+02  0.10500000000E+00 0.  1.
         13    1    4    4    0    0  0.38871043356E+01  0.10570050885E+01  0.32287557529E-01  0.40297527666E+01  0.10500000000E+00 0. -1.
    3000001    1    5    5    0    0 -0.12065078540E+02  0.28889774251E+01  0.27719190972E+01  0.12751307628E+02  0.10000000000E+01 0. -1.
        -13    1    6    6    0    0 -0.31457157020E+02 -0.50073035728E+01  0.52689399024E+01  0.32286197818E+02  0.10500000000E+00 0.  1.
         13    1    6    6    0    0 -0.17025908459E+02 -0.27212629897E+01  0.27642365805E+01  0.17462498676E+02  0.10500000000E+00 0. -1.
</event>
<event>
11    0  0.3476221E-009  0.9118800E+02  0.7816531E-02  0.1126479E+00
         25   -1    0    0    0    0  0.00000000000E+00  0.00000000000E+00  0.99999998245E-14  0.12500000000E+03  0.12500000000E+03 0.  0.
    3000001    1    3    3    0    0 -0.78704213509E+01  0.21697300489E+02  0.51485380997E+01  0.23669047833E+02  0.10000000000E+01 0.  1.
    1000022    2    1    0    0    0 -0.19602187153E+02  0.52735838269E+02  0.25316705982E+02  0.62499997487E+02  0.99999852528E+01 0.  0.
    3000022    2    3    3    0    0 -0.11731765802E+02  0.31038537780E+02  0.20168167882E+02  0.38830949654E+02  0.24999800907E+00 0.  0.
    1000022    2    1    0    0    0  0.19602187153E+02 -0.52735838269E+02 -0.25316705982E+02  0.62500002513E+02  0.10000016664E+02 0.  0.
    3000022    2    5    5    0    0  0.11500403802E+02 -0.40086350794E+02 -0.21721096795E+02  0.47021732833E+02  0.25001027825E+00 0.  0.
        -13    1    4    4    0    0 -0.51081195235E+01  0.13533855425E+02  0.87157993773E+01  0.16888881298E+02  0.10500000000E+00 0. -1.
         13    1    4    4    0    0 -0.66236462782E+01  0.17504682355E+02  0.11452368505E+02  0.21942068356E+02  0.10500000000E+00 0.  1.
    3000001    1    5    5    0    0  0.81017833508E+01 -0.12649487475E+02 -0.35956091870E+01  0.15478269680E+02  0.10000000000E+01 0.  1.
        -13    1    6    6    0    0  0.26816767772E+01 -0.93277757415E+01 -0.50436666506E+01  0.10938390599E+02  0.10500000000E+00 0.  1.
         13    1    6    6    0    0  0.88187270246E+01 -0.30758575052E+02 -0.16677430144E+02  0.36083342234E+02  0.10500000000E+00 0. -1.
</event>
<event>
11    0  0.3476221E-009  0.9118800E+02  0.7816531E-02  0.1126479E+00
         25   -1    0    0    0    0  0.00000000000E+00  0.00000000000E+00  0.99999998245E-14  0.12500000000E+03  0.12500000000E+03 0.  0.
    3000001    1    3    3    0    0  0.19271772999E+02  0.25446034069E+02 -0.28804286647E+02  0.43006846125E+02  0.10000000000E+01 0. -1.
    1000022    2    1    0    0    0  0.32331673894E+02  0.37504903022E+02 -0.36800743012E+02  0.62500002356E+02  0.10000036039E+02 0.  0.
    3000022    2    3    3    0    0  0.13059900895E+02  0.12058868953E+02 -0.79964563647E+01  0.19493156231E+02  0.24998727588E+00 0.  0.
    1000022    2    1    0    0    0 -0.32331673894E+02 -0.37504903022E+02  0.36800743012E+02  0.62499997644E+02  0.10000006593E+02 0.  0.
    3000022    2    5    5    0    0 -0.97422276417E+01 -0.16497582056E+02  0.99474643869E+01  0.21589251024E+02  0.24999784577E+00 0.  0.
        -13    1    4    4    0    0  0.86999913465E+01  0.79653385435E+01 -0.52828428168E+01  0.12925011442E+02  0.10500000000E+00 0.  1.
         13    1    4    4    0    0  0.43599095485E+01  0.40935304097E+01 -0.27136135480E+01  0.65681447894E+01  0.10500000000E+00 0. -1.
    3000001    1    5    5    0    0 -0.22589446252E+02 -0.21007320966E+02  0.26853278625E+02  0.40910746620E+02  0.10000000000E+01 0.  1.
        -13    1    6    6    0    0 -0.65143720140E+01 -0.10936937494E+02  0.66366145350E+01  0.14356508001E+02  0.10500000000E+00 0.  1.
         13    1    6    6    0    0 -0.32278556277E+01 -0.55606445620E+01  0.33108498519E+01  0.72327430232E+01  0.10500000000E+00 0. -1.
</event>
<event>
11    0  0.3476221E-009  0.9118800E+02  0.7816531E-02  0.1126479E+00
         25   -1    0    0    0    0  0.00000000000E+00  0.00000000000E+00  0.99999998245E-14  0.12500000000E+03  0.12500000000E+03 0.  0.
    3000001    1    3    3    0    0  0.40036163252E+01 -0.18780206222E+01  0.13385097958E+01  0.47273156876E+01  0.10000000000E+01 0. -1.
    1000022    2    1    0    0    0  0.61634567549E+02 -0.89181447224E+00 -0.25756865164E+01  0.62499995905E+02  0.10000003856E+02 0.  0.
    3000022    2    3    3    0    0  0.57630951224E+02  0.98620614996E+00 -0.39141963122E+01  0.57772680218E+02  0.25001046447E+00 0.  0.
    1000022    2    1    0    0    0 -0.61634567549E+02  0.89181447224E+00  0.25756865164E+01  0.62500004095E+02  0.10000055041E+02 0.  0.
    3000022    2    5    5    0    0 -0.59707664649E+02  0.22212616717E+01  0.15913992079E+01  0.59770680708E+02  0.24999933841E+00 0.  0.
        -13    1    4    4    0    0  0.29237150367E+02  0.44929489855E+00 -0.20304492343E+01  0.29311202237E+02  0.10500000000E+00 0. -1.
         13    1    4    4    0    0  0.28393800857E+02  0.53691125142E+00 -0.18837470779E+01  0.28461477981E+02  0.10500000000E+00 0.  1.
    3000001    1    5    5    0    0 -0.19269029002E+01 -0.13294471995E+01  0.98428730852E+00  0.27293233866E+01  0.10000000000E+01 0. -1.
        -13    1    6    6    0    0 -0.23071841070E+02  0.79705084929E+00  0.60827044742E+00  0.23093855424E+02  0.10500000000E+00 0. -1.
         13    1    6    6    0    0 -0.36635823578E+02  0.14242108224E+01  0.98312876048E+00  0.36676825284E+02  0.10500000000E+00 0.  1.
</event>
<event>
11    0  0.3476221E-009  0.9118800E+02  0.7816531E-02  0.1126479E+00
         25   -1    0    0    0    0  0.00000000000E+00  0.00000000000E+00  0.99999998245E-14  0.12500000000E+03  0.12500000000E+03 0.  0.
    3000001    1    3    3    0    0 -0.18641804989E+01 -0.13118539723E+01 -0.65037386539E+01  0.69638169315E+01  0.10000000000E+01 0. -1.
    1000022    2    1    0    0    0 -0.37258672834E+02 -0.21774739718E+02 -0.44089707473E+02  0.62499997331E+02  0.99999685108E+01 0.  0.
    3000022    2    3    3    0    0 -0.35394492335E+02 -0.20462885746E+02 -0.37585968819E+02  0.55536180400E+02  0.25000125644E+00 0.  0.
    1000022    2    1    0    0    0  0.37258672834E+02  0.21774739718E+02  0.44089707473E+02  0.62500002669E+02  0.10000001872E+02 0.  0.
    3000022    2    5    5    0    0  0.24798360278E+02  0.13779684373E+02  0.35171323482E+02  0.45187640844E+02  0.25003129007E+00 0.  0.
        -13    1    4    4    0    0 -0.15883295336E+02 -0.91639639629E+01 -0.16945882022E+02  0.24968605263E+02  0.10500000000E+00 0.  1.
         13    1    4    4    0    0 -0.19511196998E+02 -0.11298921783E+02 -0.20640086797E+02  0.30567575137E+02  0.10500000000E+00 0. -1.
    3000001    1    5    5    0    0  0.12460312555E+02  0.79950553452E+01  0.89183839908E+01  0.17312361825E+02  0.10000000000E+01 0. -1.
        -13    1    6    6    0    0  0.15201006400E+02  0.83855511608E+01  0.21472954650E+02  0.27613164800E+02  0.10500000000E+00 0. -1.
         13    1    6    6    0    0  0.95973538786E+01  0.53941332124E+01  0.13698368832E+02  0.17574476044E+02  0.10500000000E+00 0.  1.
</event>
<event>
11    0  0.3476221E-009  0.9118800E+02  0.7816531E-02  0.1126479E+00
         25   -1    0    0    0    0  0.00000000000E+00  0.00000000000E+00  0.99999998245E-14  0.12500000000E+03  0.12500000000E+03 0.  0.
    3000001    1    3    3    0    0  0.44307323477E+01  0.57282042076E+01  0.30492353464E+02  0.31356455992E+02  0.10000000000E+01 0.  1.
    1000022    2    1    0    0    0  0.13452177190E+02  0.19284204787E+02  0.57038661256E+02  0.62500003663E+02  0.99999977288E+01 0.  0.
    3000022    2    3    3    0    0  0.90214448425E+01  0.13556000580E+02  0.26546307792E+02  0.31143547671E+02  0.24997082292E+00 0.  0.
    1000022    2    1    0    0    0 -0.13452177190E+02 -0.19284204787E+02 -0.57038661256E+02  0.62499996337E+02  0.99999519374E+01 0.  0.
    3000022    2    5    5    0    0 -0.12091273037E+02 -0.92505941652E+01 -0.37437656204E+02  0.40415504011E+02  0.24997266297E+00 0.  0.
        -13    1    4    4    0    0  0.39804691571E+01  0.60660734596E+01  0.11918067194E+02  0.13953233768E+02  0.10500000000E+00 0.  1.
         13    1    4    4    0    0  0.50409756853E+01  0.74899271202E+01  0.14628240598E+02  0.17190313904E+02  0.10500000000E+00 0. -1.
    3000001    1    5    5    0    0 -0.13609041527E+01 -0.10033610622E+02 -0.19601005052E+02  0.22084492326E+02  0.10000000000E+01 0. -1.
        -13    1    6    6    0    0 -0.36282351392E+01 -0.27661874219E+01 -0.11341181172E+02  0.12224945745E+02  0.10500000000E+00 0. -1.
         13    1    6    6    0    0 -0.84630378983E+01 -0.64844067432E+01 -0.26096475031E+02  0.28190558266E+02  0.10500000000E+00 0.  1.
</event>
<event>
11    0  0.3476221E-009  0.9118800E+02  0.7816531E-02  0.1126479E+00
         25   -1    0    0    0    0  0.00000000000E+00  0.00000000000E+00  0.99999998245E-14  0.12500000000E+03  0.12500000000E+03 0.  0.
    3000001    1    3    3    0    0 -0.16752111983E+02 -0.15575892960E+02  0.40836139398E+01  0.23257635310E+02  0.10000000000E+01 0. -1.
    1000022    2    1    0    0    0 -0.44982599975E+02 -0.42183758210E+02 -0.18292162013E+01  0.62499997739E+02  0.99999964079E+01 0.  0.
    3000022    2    3    3    0    0 -0.28230487992E+02 -0.26607865250E+02 -0.59128301411E+01  0.39242362429E+02  0.25000654655E+00 0.  0.
    1000022    2    1    0    0    0  0.44982599975E+02  0.42183758210E+02  0.18292162013E+01  0.62500002261E+02  0.10000024673E+02 0.  0.
    3000022    2    5    5    0    0  0.18748451983E+01  0.39242431405E+01  0.21390128088E+01  0.48531030452E+01  0.25000925656E+00 0.  0.
        -13    1    4    4    0    0 -0.17353491203E+02 -0.16341713540E+02 -0.35718267957E+01  0.24103199581E+02  0.10500000000E+00 0. -1.
         13    1    4    4    0    0 -0.10876996789E+02 -0.10266151710E+02 -0.23410033454E+01  0.15139162848E+02  0.10500000000E+00 0.  1.
    3000001    1    5    5    0    0  0.43107754777E+02  0.38259515070E+02 -0.30979660751E+00  0.57646899216E+02  0.10000000000E+01 0. -1.
        -13    1    6    6    0    0  0.75528736582E+00  0.15665504434E+01  0.78613429101E+00  0.19114317723E+01  0.10500000000E+00 0.  1.
         13    1    6    6    0    0  0.11195578325E+01  0.23576926970E+01  0.13528785178E+01  0.29416712729E+01  0.10500000000E+00 0. -1.
</event>
<event>
11    0  0.3476221E-009  0.9118800E+02  0.7816531E-02  0.1126479E+00
         25   -1    0    0    0    0  0.00000000000E+00  0.00000000000E+00  0.99999998245E-14  0.12500000000E+03  0.12500000000E+03 0.  0.
    3000001    1    3    3    0    0  0.23790112420E+02 -0.16274158922E+02  0.13455197629E+02  0.31825462146E+02  0.10000000000E+01 0. -1.
    1000022    2    1    0    0    0  0.42083264294E+02 -0.29105684853E+02  0.34468939137E+02  0.62500000431E+02  0.10000013208E+02 0.  0.
    3000022    2    3    3    0    0  0.18293151874E+02 -0.12831525932E+02  0.21013741509E+02  0.30674538285E+02  0.25000714970E+00 0.  0.
    1000022    2    1    0    0    0 -0.42083264294E+02  0.29105684853E+02 -0.34468939137E+02  0.62499999569E+02  0.10000007825E+02 0.  0.
    3000022    2    5    5    0    0 -0.12544432075E+02  0.10504590600E+02 -0.59475658454E+01  0.17411064666E+02  0.24986707816E+00 0.  0.
        -13    1    4    4    0    0  0.12342599983E+02 -0.86317576945E+01  0.14098540854E+02  0.20630726949E+02  0.10500000000E+00 0.  1.
         13    1    4    4    0    0  0.59505518907E+01 -0.41997682372E+01  0.69152006547E+01  0.10043811336E+02  0.10500000000E+00 0. -1.
    3000001    1    5    5    0    0 -0.29538832219E+02  0.18601094254E+02 -0.28521373292E+02  0.45088934904E+02  0.10000000000E+01 0.  1.
        -13    1    6    6    0    0 -0.83190684440E+01  0.70220230248E+01 -0.39224950958E+01  0.11572065499E+02  0.10500000000E+00 0.  1.
         13    1    6    6    0    0 -0.42253636310E+01  0.34825675751E+01 -0.20250707496E+01  0.58389991668E+01  0.10500000000E+00 0. -1.
</event>
<event>
11    0  0.3476221E-009  0.9118800E+02  0.7816531E-02  0.1126479E+00
         25   -1    0    0    0    0  0.00000000000E+00  0.00000000000E+00  0.99999998245E-14  0.12500000000E+03  0.12500000000E+03 0.  0.
    3000001    1    3    3    0    0  0.18300982167E+02 -0.58130561907E+02  0.10884294037E+02  0.61915717169E+02  0.10000000000E+01 0. -1.
    1000022    2    1    0    0    0  0.17903168310E+02 -0.58091759972E+02  0.10539152818E+02  0.62499998196E+02  0.10000001012E+02 0.  0.
    3000022    2    3    3    0    0 -0.39781385756E+00  0.38801934903E-01 -0.34514121970E+00  0.58428102694E+00  0.25000080296E+00 0.  0.
    1000022    2    1    0    0    0 -0.17903168310E+02  0.58091759972E+02 -0.10539152818E+02  0.62500001804E+02  0.10000023560E+02 0.  0.
    3000022    2    5    5    0    0 -0.18075958623E+02  0.47774363118E+02 -0.10419500819E+02  0.52132125892E+02  0.25000236603E+00 0.  0.
        -13    1    4    4    0    0 -0.29322936574E+00 -0.88765298471E-02 -0.26576067065E+00  0.40953142465E+00  0.10500000000E+00 0.  1.
         13    1    4    4    0    0 -0.10458449182E+00  0.47678464750E-01 -0.79380549052E-01  0.17474960228E+00  0.10500000000E+00 0. -1.
    3000001    1    5    5    0    0  0.17279031313E+00  0.10317396854E+02 -0.11965199883E+00  0.10367875912E+02  0.10000000000E+01 0.  1.
        -13    1    6    6    0    0 -0.10540800404E+02  0.27889836265E+02 -0.61467650123E+01  0.30442489799E+02  0.10500000000E+00 0.  1.
         13    1    6    6    0    0 -0.75351582186E+01  0.19884526854E+02 -0.42727358066E+01  0.21689636093E+02  0.10500000000E+00 0. -1.
</event>
<event>
11    0  0.3476221E-009  0.9118800E+02  0.7816531E-02  0.1126479E+00
         25   -1    0    0    0    0  0.00000000000E+00  0.00000000000E+00  0.99999998245E-14  0.12500000000E+03  0.12500000000E+03 0.  0.
    3000001    1    3    3    0    0 -0.14474825024E+02  0.13882347603E+01 -0.12276922130E+02  0.19057034717E+02  0.10000000000E+01 0.  1.
    1000022    2    1    0    0    0 -0.54651205395E+02 -0.11711990972E+01 -0.28602867042E+02  0.62499999841E+02  0.10000000936E+02 0.  0.
    3000022    2    3    3    0    0 -0.40176380371E+02 -0.25594338576E+01 -0.16325944912E+02  0.43442965124E+02  0.25000028993E+00 0.  0.
    1000022    2    1    0    0    0  0.54651205395E+02  0.11711990972E+01  0.28602867042E+02  0.62500000159E+02  0.10000002921E+02 0.  0.
    3000022    2    5    5    0    0  0.41599870321E+02 -0.23051378891E+01  0.24567494023E+02  0.48368245085E+02  0.24999733868E+00 0.  0.
        -13    1    4    4    0    0 -0.12745052715E+02 -0.76201131183E+00 -0.51837141596E+01  0.13780382703E+02  0.10500000000E+00 0. -1.
         13    1    4    4    0    0 -0.27431327655E+02 -0.17974225457E+01 -0.11142230752E+02  0.29662582421E+02  0.10500000000E+00 0.  1.
    3000001    1    5    5    0    0  0.13051335074E+02  0.34763369863E+01  0.40353730185E+01  0.14131755073E+02  0.10000000000E+01 0.  1.
        -13    1    6    6    0    0  0.27726756553E+02 -0.15683623302E+01  0.16425290166E+02  0.32265058057E+02  0.10500000000E+00 0. -1.
         13    1    6    6    0    0  0.13873113768E+02 -0.73677555887E+00  0.81422038571E+01  0.16103187029E+02  0.10500000000E+00 0.  1.
</event>
<event>
11    0  0.3476221E-009  0.9118800E+02  0.7816531E-02  0.1126479E+00
         25   -1    0    0    0    0  0.00000000000E+00  0.00000000000E+00  0.99999998245E-14  0.12500000000E+03  0.12500000000E+03 0.  0.
    3000001    1    3    3    0    0  0.50153507806E+02  0.63228715777E+01 -0.19558873911E+02  0.54211646340E+02  0.10000000000E+01 0.  1.
    1000022    2    1    0    0    0  0.57928702071E+02  0.37884428893E+01 -0.20884519841E+02  0.62500000343E+02  0.10000002535E+02 0.  0.
    3000022    2    3    3    0    0  0.77751942649E+01 -0.25344286885E+01 -0.13256459296E+01  0.82883540024E+01  0.25000061119E+00 0.  0.
    1000022    2    1    0    0    0 -0.57928702071E+02 -0.37884428893E+01  0.20884519841E+02  0.62499999657E+02  0.99999982489E+01 0.  0.
    3000022    2    5    5    0    0 -0.10518299897E+02 -0.84545824152E+00  0.80795943550E+01  0.13292545855E+02  0.24999602332E+00 0.  0.
        -13    1    4    4    0    0  0.42175068279E+01 -0.13137031216E+01 -0.75001608001E+00  0.44818220464E+01  0.10500000000E+00 0.  1.
         13    1    4    4    0    0  0.35576874369E+01 -0.12207255668E+01 -0.57562984963E+00  0.38065319560E+01  0.10500000000E+00 0. -1.
    3000001    1    5    5    0    0 -0.47410402175E+02 -0.29429846477E+01  0.12804925486E+02  0.49207453802E+02  0.10000000000E+01 0.  1.
        -13    1    6    6    0    0 -0.62338412421E+01 -0.44850472568E+00  0.48306464781E+01  0.78998799685E+01  0.10500000000E+00 0. -1.
         13    1    6    6    0    0 -0.42844586545E+01 -0.39695351584E+00  0.32489478769E+01  0.53926658864E+01  0.10500000000E+00 0.  1.
</event>
<event>
11    0  0.3476221E-009  0.9118800E+02  0.7816531E-02  0.1126479E+00
         25   -1    0    0    0    0  0.00000000000E+00  0.00000000000E+00  0.99999998245E-14  0.12500000000E+03  0.12500000000E+03 0.  0.
    3000001    1    3    3    0    0 -0.97741671700E+01  0.10237595601E+02 -0.81630716047E+01  0.16370047208E+02  0.10000000000E+01 0.  1.
    1000022    2    1    0    0    0 -0.44873209608E+02  0.24809822825E+02 -0.34309150603E+02  0.62499999903E+02  0.99999961833E+01 0.  0.
    3000022    2    3    3    0    0 -0.35099042438E+02  0.14572227224E+02 -0.26146078998E+02  0.46129952695E+02  0.25000474189E+00 0.  0.
    1000022    2    1    0    0    0  0.44873209608E+02 -0.24809822825E+02  0.34309150603E+02  0.62500000097E+02  0.99999973993E+01 0.  0.
    3000022    2    5    5    0    0 -0.45121520038E+00 -0.47133390266E+00  0.88757829957E-01  0.70436264026E+00  0.24999594350E+00 0.  0.
        -13    1    4    4    0    0 -0.98845503097E+01  0.40605668624E+01 -0.73477289065E+01  0.12968912181E+02  0.10500000000E+00 0.  1.
         13    1    4    4    0    0 -0.25214492128E+02  0.10511660361E+02 -0.18798350091E+02  0.33161040514E+02  0.10500000000E+00 0. -1.
    3000001    1    5    5    0    0  0.45324424808E+02 -0.24338488922E+02  0.34220392773E+02  0.61795637457E+02  0.10000000000E+01 0. -1.
        -13    1    6    6    0    0 -0.13063101309E+00 -0.10349917526E+00 -0.24506368568E-02  0.19699631084E+00  0.10500000000E+00 0. -1.
         13    1    6    6    0    0 -0.32058418729E+00 -0.36783472739E+00  0.91208466814E-01  0.50736632943E+00  0.10500000000E+00 0.  1.
</event>
<event>
11    0  0.3476221E-009  0.9118800E+02  0.7816531E-02  0.1126479E+00
         25   -1    0    0    0    0  0.00000000000E+00  0.00000000000E+00  0.99999998245E-14  0.12500000000E+03  0.12500000000E+03 0.  0.
    3000001    1    3    3    0    0 -0.23614559294E+02  0.17048772151E+02 -0.67022597240E+01  0.29903650746E+02  0.10000000000E+01 0. -1.
    1000022    2    1    0    0    0 -0.50707559498E+02  0.28168821483E+02 -0.21012162058E+02  0.62499999703E+02  0.99999957247E+01 0.  0.
    3000022    2    3    3    0    0 -0.27093000204E+02  0.11120049332E+02 -0.14309902334E+02  0.32596348957E+02  0.25000663780E+00 0.  0.
    1000022    2    1    0    0    0  0.50707559498E+02 -0.28168821483E+02  0.21012162058E+02  0.62500000297E+02  0.99999994407E+01 0.  0.
    3000022    2    5    5    0    0  0.37887352579E+02 -0.24696390343E+02  0.18887500797E+02  0.49011869628E+02  0.24999328874E+00 0.  0.
        -13    1    4    4    0    0 -0.12977713390E+02  0.53417979392E+01 -0.69309978928E+01  0.15652654946E+02  0.10500000000E+00 0. -1.
         13    1    4    4    0    0 -0.14115286814E+02  0.57782513923E+01 -0.73789044409E+01  0.16943694011E+02  0.10500000000E+00 0.  1.
    3000001    1    5    5    0    0  0.12820206920E+02 -0.34724311393E+01  0.21246612604E+01  0.13488130669E+02  0.10000000000E+01 0. -1.
        -13    1    6    6    0    0  0.18707859171E+02 -0.12176093344E+02  0.92504506605E+01  0.24162431714E+02  0.10500000000E+00 0.  1.
         13    1    6    6    0    0  0.19179493407E+02 -0.12520297000E+02  0.96370501368E+01  0.24849437914E+02  0.10500000000E+00 0. -1.
</event>
<event>
11    0  0.3476221E-009  0.9118800E+02  0.7816531E-02  0.1126479E+00
         25   -1    0    0    0    0  0.00000000000E+00  0.00000000000E+00  0.99999998245E-14  0.12500000000E+03  0.12500000000E+03 0.  0.
    3000001    1    3    3    0    0 -0.17324405985E+02  0.12474252497E+02  0.41614795496E+01  0.21772917355E+02  0.10000000000E+01 0. -1.
    1000022    2    1    0    0    0 -0.42742620667E+02  0.44294799186E+02  0.41580088235E+01  0.62500001013E+02  0.10000011642E+02 0.  0.
    3000022    2    3    3    0    0 -0.25418214683E+02  0.31820546689E+02 -0.34707261075E-02  0.40727083659E+02  0.25000414306E+00 0.  0.
    1000022    2    1    0    0    0  0.42742620667E+02 -0.44294799186E+02 -0.41580088235E+01  0.62499998987E+02  0.99999989775E+01 0.  0.
    3000022    2    5    5    0    0  0.28802634458E+02 -0.29476799634E+02 -0.74066705060E+01  0.41873556517E+02  0.24999802318E+00 0.  0.
        -13    1    4    4    0    0 -0.13245092663E+02  0.16525514997E+02  0.56202956080E-01  0.21178746643E+02  0.10500000000E+00 0. -1.
         13    1    4    4    0    0 -0.12173122019E+02  0.15295031691E+02 -0.59673682187E-01  0.19548337016E+02  0.10500000000E+00 0.  1.
    3000001    1    5    5    0    0  0.13939986210E+02 -0.14817999552E+02  0.32486616825E+01  0.20626442470E+02  0.10000000000E+01 0.  1.
        -13    1    6    6    0    0  0.97697698897E+01 -0.99228916157E+01 -0.25158681540E+01  0.14151070606E+02  0.10500000000E+00 0.  1.
         13    1    6    6    0    0  0.19032864568E+02 -0.19553908019E+02 -0.48908023520E+01  0.27722485911E+02  0.10500000000E+00 0. -1.
</event>
<event>
11    0  0.3476221E-009  0.9118800E+02  0.7816531E-02  0.1126479E+00
         25   -1    0    0    0    0  0.00000000000E+00  0.00000000000E+00  0.99999998245E-14  0.12500000000E+03  0.12500000000E+03 0.  0.
    3000001    1    3    3    0    0 -0.15397675953E+02 -0.34543571361E+02  0.52214898877E+01  0.38191762250E+02  0.10000000000E+01 0.  1.
    1000022    2    1    0    0    0 -0.22596443395E+02 -0.55166286692E+02  0.15884940514E+02  0.62499997940E+02  0.99999982952E+01 0.  0.
    3000022    2    3    3    0    0 -0.71987674425E+01 -0.20622715331E+02  0.10663450626E+02  0.24308235690E+02  0.25000559812E+00 0.  0.
    1000022    2    1    0    0    0  0.22596443395E+02  0.55166286692E+02 -0.15884940514E+02  0.62500002060E+02  0.10000024039E+02 0.  0.
    3000022    2    5    5    0    0  0.20888118089E+02  0.39930257883E+02 -0.11158458101E+02  0.46425345447E+02  0.25008146388E+00 0.  0.
        -13    1    4    4    0    0 -0.21486756974E+01 -0.62908595768E+01  0.32618552313E+01  0.74055685816E+01  0.10500000000E+00 0. -1.
         13    1    4    4    0    0 -0.50500917451E+01 -0.14331855754E+02  0.74015953947E+01  0.16902667109E+02  0.10500000000E+00 0.  1.
    3000001    1    5    5    0    0  0.17083253065E+01  0.15236028809E+02 -0.47264824129E+01  0.16074656613E+02  0.10000000000E+01 0. -1.
        -13    1    6    6    0    0  0.96187166182E+01  0.18261196542E+02 -0.50768220193E+01  0.21255026590E+02  0.10500000000E+00 0. -1.
         13    1    6    6    0    0  0.11269401471E+02  0.21669061342E+02 -0.60816360815E+01  0.25170318857E+02  0.10500000000E+00 0.  1.
</event>
<event>
11    0  0.3476221E-009  0.9118800E+02  0.7816531E-02  0.1126479E+00
         25   -1    0    0    0    0  0.00000000000E+00  0.00000000000E+00  0.99999998245E-14  0.12500000000E+03  0.12500000000E+03 0.  0.
    3000001    1    3    3    0    0  0.99669244837E+01 -0.24513292749E+02  0.96314861146E+01  0.28178123249E+02  0.10000000000E+01 0. -1.
    1000022    2    1    0    0    0  0.26957252815E+02 -0.54269048896E+02  0.11594263530E+02  0.62500000744E+02  0.99999999387E+01 0.  0.
    3000022    2    3    3    0    0  0.16990328331E+02 -0.29755756147E+02  0.19627774153E+01  0.34321877494E+02  0.24999780890E+00 0.  0.
    1000022    2    1    0    0    0 -0.26957252815E+02  0.54269048896E+02 -0.11594263530E+02  0.62499999256E+02  0.99999906442E+01 0.  0.
    3000022    2    5    5    0    0 -0.58001133492E+01  0.21894309735E+02 -0.57895252883E+01  0.23379118998E+02  0.24997690845E+00 0.  0.
        -13    1    4    4    0    0  0.10285373096E+02 -0.17999180977E+02  0.11252420251E+01  0.20761421199E+02  0.10500000000E+00 0.  1.
         13    1    4    4    0    0  0.67049552347E+01 -0.11756575170E+02  0.83753539023E+00  0.13560456296E+02  0.10500000000E+00 0. -1.
    3000001    1    5    5    0    0 -0.21157139465E+02  0.32374739161E+02 -0.58047382416E+01  0.39120880258E+02  0.10000000000E+01 0. -1.
        -13    1    6    6    0    0 -0.32750258434E+01  0.12259992127E+02 -0.31810416651E+01  0.13082937450E+02  0.10500000000E+00 0. -1.
         13    1    6    6    0    0 -0.25250875058E+01  0.96343176075E+01 -0.26084836232E+01  0.10296181549E+02  0.10500000000E+00 0.  1.
</event>
<event>
11    0  0.3476221E-009  0.9118800E+02  0.7816531E-02  0.1126479E+00
         25   -1    0    0    0    0  0.00000000000E+00  0.00000000000E+00  0.99999998245E-14  0.12500000000E+03  0.12500000000E+03 0.  0.
    3000001    1    3    3    0    0  0.57627454722E+01  0.16572913497E+02 -0.20234512895E+01  0.17690818304E+02  0.10000000000E+01 0. -1.
    1000022    2    1    0    0    0  0.49704053762E+01  0.60908111046E+02 -0.84703792024E+01  0.62500001793E+02  0.99999989724E+01 0.  0.
    3000022    2    3    3    0    0 -0.79234009601E+00  0.44335197549E+02 -0.64469279130E+01  0.44809183488E+02  0.25000166662E+00 0.  0.
    1000022    2    1    0    0    0 -0.49704053762E+01 -0.60908111046E+02  0.84703792024E+01  0.62499998207E+02  0.99999765653E+01 0.  0.
    3000022    2    5    5    0    0 -0.58388999646E+01 -0.31024280138E+02  0.62927758619E+00  0.31576212748E+02  0.25002069632E+00 0.  0.
        -13    1    4    4    0    0 -0.55579298098E+00  0.27950768340E+02 -0.40450621424E+01  0.28247617765E+02  0.10500000000E+00 0.  1.
         13    1    4    4    0    0 -0.23654711503E+00  0.16384429209E+02 -0.24018657705E+01  0.16561565724E+02  0.10500000000E+00 0. -1.
    3000001    1    5    5    0    0  0.86849458845E+00 -0.29883830908E+02  0.78411016162E+01  0.30923785460E+02  0.10000000000E+01 0. -1.
        -13    1    6    6    0    0 -0.18106403882E+01 -0.97322396567E+01  0.24210731781E+00  0.99027545816E+01  0.10500000000E+00 0. -1.
         13    1    6    6    0    0 -0.40282595764E+01 -0.21292040481E+02  0.38717026839E+00  0.21673458166E+02  0.10500000000E+00 0.  1.
</event>
<event>
11    0  0.3476221E-009  0.9118800E+02  0.7816531E-02  0.1126479E+00
         25   -1    0    0    0    0  0.00000000000E+00  0.00000000000E+00  0.99999998245E-14  0.12500000000E+03  0.12500000000E+03 0.  0.
    3000001    1    3    3    0    0 -0.37764219227E+02 -0.19684849169E+01 -0.25731560532E+02  0.45750676433E+02  0.10000000000E+01 0. -1.
    1000022    2    1    0    0    0 -0.48819998694E+02  0.20039597279E+01 -0.37667507008E+02  0.62500001602E+02  0.10000049448E+02 0.  0.
    3000022    2    3    3    0    0 -0.11055779467E+02  0.39724446449E+01 -0.11935946476E+02  0.16749325168E+02  0.24999849076E+00 0.  0.
    1000022    2    1    0    0    0  0.48819998694E+02 -0.20039597279E+01  0.37667507008E+02  0.62499998398E+02  0.10000029426E+02 0.  0.
    3000022    2    5    5    0    0  0.45252589533E+02 -0.43142044919E+01  0.35123000964E+02  0.57446469928E+02  0.24998128055E+00 0.  0.
        -13    1    4    4    0    0 -0.51785073552E+01  0.18898556478E+01 -0.55132440645E+01  0.77971390851E+01  0.10500000000E+00 0.  1.
         13    1    4    4    0    0 -0.58772721117E+01  0.20825889970E+01 -0.64227024114E+01  0.89521860833E+01  0.10500000000E+00 0. -1.
    3000001    1    5    5    0    0  0.35674091608E+01  0.23102447639E+01  0.25445060441E+01  0.50535284701E+01  0.10000000000E+01 0.  1.
        -13    1    6    6    0    0  0.27503979265E+02 -0.25616467011E+01  0.21362732684E+02  0.34920026947E+02  0.10500000000E+00 0. -1.
         13    1    6    6    0    0  0.17748610268E+02 -0.17525577907E+01  0.13760268280E+02  0.22526442981E+02  0.10500000000E+00 0.  1.
</event>
<event>
11    0  0.3476221E-009  0.9118800E+02  0.7816531E-02  0.1126479E+00
         25   -1    0    0    0    0  0.00000000000E+00  0.00000000000E+00  0.99999998245E-14  0.12500000000E+03  0.12500000000E+03 0.  0.
    3000001    1    3    3    0    0 -0.63263833394E+01 -0.34702194953E+01 -0.42917284172E+00  0.72972418646E+01  0.10000000000E+01 0.  1.
    1000022    2    1    0    0    0 -0.42755347690E+02 -0.41053900163E+02  0.17111625502E+02  0.62500000889E+02  0.99999954561E+01 0.  0.
    3000022    2    3    3    0    0 -0.36428964351E+02 -0.37583680668E+02  0.17540798344E+02  0.55202759025E+02  0.25000236828E+00 0.  0.
    1000022    2    1    0    0    0  0.42755347690E+02  0.41053900163E+02 -0.17111625502E+02  0.62499999111E+02  0.99999843394E+01 0.  0.
    3000022    2    5    5    0    0  0.98913590881E+01  0.60153427416E+01 -0.65494883724E+01  0.13303444417E+02  0.25000499068E+00 0.  0.
        -13    1    4    4    0    0 -0.14446061450E+02 -0.14883167638E+02  0.70152243200E+01  0.21895702036E+02  0.10500000000E+00 0.  1.
         13    1    4    4    0    0 -0.21982902901E+02 -0.22700513030E+02  0.10525574024E+02  0.33307056989E+02  0.10500000000E+00 0. -1.
    3000001    1    5    5    0    0  0.32863988602E+02  0.35038557421E+02 -0.10562137130E+02  0.49196554694E+02  0.10000000000E+01 0.  1.
        -13    1    6    6    0    0  0.52440404168E+01  0.31658591320E+01 -0.35394115650E+01  0.70753857254E+01  0.10500000000E+00 0.  1.
         13    1    6    6    0    0  0.46473186714E+01  0.28494836096E+01 -0.30100768074E+01  0.62280586912E+01  0.10500000000E+00 0. -1.
</event>
<event>
11    0  0.3476221E-009  0.9118800E+02  0.7816531E-02  0.1126479E+00
         25   -1    0    0    0    0  0.00000000000E+00  0.00000000000E+00  0.99999998245E-14  0.12500000000E+03  0.12500000000E+03 0.  0.
    3000001    1    3    3    0    0 -0.40334660308E+02  0.91984523414E+01 -0.18281946078E+02  0.45240754857E+02  0.10000000000E+01 0.  1.
    1000022    2    1    0    0    0 -0.57038186425E+02  0.75168243041E+01 -0.22279871399E+02  0.62500000659E+02  0.10000002723E+02 0.  0.
    3000022    2    3    3    0    0 -0.16703526117E+02 -0.16816280373E+01 -0.39979253208E+01  0.17259245801E+02  0.25000231580E+00 0.  0.
    1000022    2    1    0    0    0  0.57038186425E+02 -0.75168243041E+01  0.22279871399E+02  0.62499999341E+02  0.99999944907E+01 0.  0.
    3000022    2    5    5    0    0  0.46738043339E+02 -0.95721193073E+01  0.16577388996E+02  0.50506855855E+02  0.24999833507E+00 0.  0.
        -13    1    4    4    0    0 -0.62196559288E+01 -0.59344585492E+00 -0.15395800018E+01  0.64356529923E+01  0.10500000000E+00 0.  1.
         13    1    4    4    0    0 -0.10483870188E+02 -0.10881821824E+01 -0.24583453190E+01  0.10823592809E+02  0.10500000000E+00 0. -1.
    3000001    1    5    5    0    0  0.10300143086E+02  0.20552950032E+01  0.57024824024E+01  0.11993143487E+02  0.10000000000E+01 0. -1.
        -13    1    6    6    0    0  0.31168335141E+02 -0.63339180424E+01  0.11027459753E+02  0.33663029080E+02  0.10500000000E+00 0.  1.
         13    1    6    6    0    0  0.15569708198E+02 -0.32382012649E+01  0.55499292433E+01  0.16843826775E+02  0.10500000000E+00 0. -1.
</event>
<event>
11    0  0.3476221E-009  0.9118800E+02  0.7816531E-02  0.1126479E+00
         25   -1    0    0    0    0  0.00000000000E+00  0.00000000000E+00  0.99999998245E-14  0.12500000000E+03  0.12500000000E+03 0.  0.
    3000001    1    3    3    0    0  0.12536859387E+02  0.16388792723E+02  0.27545188299E+02  0.34431130807E+02  0.10000000000E+01 0.  1.
    1000022    2    1    0    0    0  0.28502941442E+02  0.22906871628E+02  0.49690115327E+02  0.62500000058E+02  0.10000000372E+02 0.  0.
    3000022    2    3    3    0    0  0.15966082055E+02  0.65180789047E+01  0.22144927028E+02  0.28068869251E+02  0.24999836000E+00 0.  0.
    1000022    2    1    0    0    0 -0.28502941442E+02 -0.22906871628E+02 -0.49690115327E+02  0.62499999942E+02  0.99999996496E+01 0.  0.
    3000022    2    5    5    0    0 -0.14789838067E+02 -0.13300038764E+02 -0.18907773128E+02  0.27444429300E+02  0.24994749389E+00 0.  0.
        -13    1    4    4    0    0  0.45319323380E+01  0.18255395093E+01  0.63299678160E+01  0.79969070751E+01  0.10500000000E+00 0. -1.
         13    1    4    4    0    0  0.11434149717E+02  0.46925393955E+01  0.15814959212E+02  0.20071962176E+02  0.10500000000E+00 0.  1.
    3000001    1    5    5    0    0 -0.13713103375E+02 -0.96068328637E+01 -0.30782342198E+02  0.35055570642E+02  0.10000000000E+01 0. -1.
        -13    1    6    6    0    0 -0.59368366128E+01 -0.52591495938E+01 -0.75685771354E+01  0.10963533567E+02  0.10500000000E+00 0. -1.
         13    1    6    6    0    0 -0.88530014542E+01 -0.80408891706E+01 -0.11339195993E+02  0.16480895733E+02  0.10500000000E+00 0.  1.
</event>
<event>
11    0  0.3476221E-009  0.9118800E+02  0.7816531E-02  0.1126479E+00
         25   -1    0    0    0    0  0.00000000000E+00  0.00000000000E+00  0.99999998245E-14  0.12500000000E+03  0.12500000000E+03 0.  0.
    3000001    1    3    3    0    0 -0.11698324924E+01 -0.98316250798E+01 -0.12127539008E+00  0.99520885994E+01  0.10000000000E+01 0. -1.
    1000022    2    1    0    0    0 -0.28429323772E+02 -0.54729547557E+02 -0.16433564527E+01  0.62499995687E+02  0.99999507236E+01 0.  0.
    3000022    2    3    3    0    0 -0.27259491279E+02 -0.44897922477E+02 -0.15220810626E+01  0.52547907087E+02  0.25000180767E+00 0.  0.
    1000022    2    1    0    0    0  0.28429323772E+02  0.54729547557E+02  0.16433564527E+01  0.62500004313E+02  0.10000004640E+02 0.  0.
    3000022    2    5    5    0    0  0.28670448564E+02  0.50742157599E+02  0.75415433827E+00  0.58287154892E+02  0.24999594757E+00 0.  0.
        -13    1    4    4    0    0 -0.18646119812E+02 -0.30805340401E+02 -0.10355866237E+01  0.36024023178E+02  0.10500000000E+00 0.  1.
         13    1    4    4    0    0 -0.86133714672E+01 -0.14092582076E+02 -0.48649443890E+00  0.16523883909E+02  0.10500000000E+00 0. -1.
    3000001    1    5    5    0    0 -0.24112479265E+00  0.39873899583E+01  0.88920211443E+00  0.42128494212E+01  0.10000000000E+01 0.  1.
        -13    1    6    6    0    0  0.14555412762E+02  0.25771725159E+02  0.31540966601E+00  0.29599871057E+02  0.10500000000E+00 0. -1.
         13    1    6    6    0    0  0.14115035802E+02  0.24970432440E+02  0.43874467225E+00  0.28687283835E+02  0.10500000000E+00 0.  1.
</event>
<event>
11    0  0.3476221E-009  0.9118800E+02  0.7816531E-02  0.1126479E+00
         25   -1    0    0    0    0  0.00000000000E+00  0.00000000000E+00  0.99999998245E-14  0.12500000000E+03  0.12500000000E+03 0.  0.
    3000001    1    3    3    0    0  0.96224268196E+01  0.36252604023E+02 -0.19626073857E+02  0.42344127945E+02  0.10000000000E+01 0. -1.
    1000022    2    1    0    0    0  0.10204013400E+02  0.50644559453E+02 -0.33723237705E+02  0.62499998844E+02  0.99999901249E+01 0.  0.
    3000022    2    3    3    0    0  0.58158658007E+00  0.14391955430E+02 -0.14097163848E+02  0.20155870899E+02  0.24995817465E+00 0.  0.
    1000022    2    1    0    0    0 -0.10204013400E+02 -0.50644559453E+02  0.33723237705E+02  0.62500001156E+02  0.10000004577E+02 0.  0.
    3000022    2    5    5    0    0 -0.77640813208E+01 -0.21646200796E+02  0.19210609397E+02  0.29965796790E+02  0.24999234567E+00 0.  0.
        -13    1    4    4    0    0  0.22388780756E+00  0.49422932984E+01 -0.47729830934E+01  0.68752295531E+01  0.10500000000E+00 0.  1.
         13    1    4    4    0    0  0.35769877252E+00  0.94496621314E+01 -0.93241807549E+01  0.13280641346E+02  0.10500000000E+00 0. -1.
    3000001    1    5    5    0    0 -0.24399320788E+01 -0.28998358657E+02  0.14512628308E+02  0.32534204366E+02  0.10000000000E+01 0.  1.
        -13    1    6    6    0    0 -0.35883523986E+01 -0.98285230418E+01  0.87806899047E+01  0.13659710038E+02  0.10500000000E+00 0.  1.
         13    1    6    6    0    0 -0.41757289222E+01 -0.11817677755E+02  0.10429919493E+02  0.16306086752E+02  0.10500000000E+00 0.  1.
</event>
<event>
11    0  0.3476221E-009  0.9118800E+02  0.7816531E-02  0.1126479E+00
         25   -1    0    0    0    0  0.00000000000E+00  0.00000000000E+00  0.99999998245E-14  0.12500000000E+03  0.12500000000E+03 0.  0.
    3000001    1    3    3    0    0  0.39042595765E+02  0.18119080461E+02 -0.54687447019E+00  0.43057222768E+02  0.10000000000E+01 0.  1.
    1000022    2    1    0    0    0  0.57762663708E+02  0.21124268586E+02 -0.48465593550E+01  0.62500007453E+02  0.10000087603E+02 0.  0.
    3000022    2    3    3    0    0  0.18720067944E+02  0.30051881251E+01 -0.42996848848E+01  0.19442784685E+02  0.24997344519E+00 0.  0.
    1000022    2    1    0    0    0 -0.57762663708E+02 -0.21124268586E+02  0.48465593550E+01  0.62499992547E+02  0.99999944404E+01 0.  0.
    3000022    2    5    5    0    0 -0.21563932352E+02 -0.39957315331E+01 -0.13052729436E+01  0.21971237644E+02  0.24999433838E+00 0.  0.
        -13    1    4    4    0    0  0.97197406139E+01  0.15319733603E+01 -0.22945514225E+01  0.10104270939E+02  0.10500000000E+00 0. -1.
         13    1    4    4    0    0  0.90003273297E+01  0.14732147649E+01 -0.20051334623E+01  0.93385137461E+01  0.10500000000E+00 0.  1.
    3000001    1    5    5    0    0 -0.36198731356E+02 -0.17128537053E+02  0.61518322985E+01  0.40528754903E+02  0.10000000000E+01 0. -1.
        -13    1    6    6    0    0 -0.12340519592E+02 -0.23477557622E+01 -0.72189843135E+00  0.12583025998E+02  0.10500000000E+00 0. -1.
         13    1    6    6    0    0 -0.92234127602E+01 -0.16479757709E+01 -0.58337451220E+00  0.93882116459E+01  0.10500000000E+00 0.  1.
</event>
<event>
11    0  0.3476221E-009  0.9118800E+02  0.7816531E-02  0.1126479E+00
         25   -1    0    0    0    0  0.00000000000E+00  0.00000000000E+00  0.99999998245E-14  0.12500000000E+03  0.12500000000E+03 0.  0.
    3000001    1    3    3    0    0  0.35446459586E+01 -0.10855924776E+02  0.41951558596E+02  0.43489641138E+02  0.10000000000E+01 0. -1.
    1000022    2    1    0    0    0 -0.11869546675E+01 -0.17167843432E+02  0.59246151245E+02  0.62500001341E+02  0.10000001035E+02 0.  0.
    3000022    2    3    3    0    0 -0.47316006260E+01 -0.63119186555E+01  0.17294592649E+02  0.19010360202E+02  0.24999701759E+00 0.  0.
    1000022    2    1    0    0    0  0.11869546675E+01  0.17167843432E+02 -0.59246151245E+02  0.62499998659E+02  0.99999842780E+01 0.  0.
    3000022    2    5    5    0    0 -0.40829751667E+01  0.51230165069E+01 -0.16081033222E+02  0.17366004486E+02  0.24999593389E+00 0.  0.
        -13    1    4    4    0    0 -0.23530422037E+01 -0.32490577233E+01  0.87569529515E+01  0.96326753136E+01  0.10500000000E+00 0. -1.
         13    1    4    4    0    0 -0.23785584223E+01 -0.30628609322E+01  0.85376396979E+01  0.93776848886E+01  0.10500000000E+00 0.  1.
    3000001    1    5    5    0    0  0.52699298342E+01  0.12044826925E+02 -0.43165118023E+02  0.45133994173E+02  0.10000000000E+01 0. -1.
        -13    1    6    6    0    0 -0.26104925723E+01  0.33121878266E+01 -0.10208916308E+02  0.11046187435E+02  0.10500000000E+00 0.  1.
         13    1    6    6    0    0 -0.14724825944E+01  0.18108286803E+01 -0.58721169141E+01  0.63198170506E+01  0.10500000000E+00 0. -1.
</event>
<event>
11    0  0.3476221E-009  0.9118800E+02  0.7816531E-02  0.1126479E+00
         25   -1    0    0    0    0  0.00000000000E+00  0.00000000000E+00  0.99999998245E-14  0.12500000000E+03  0.12500000000E+03 0.  0.
    3000001    1    3    3    0    0 -0.46814674751E+02 -0.21146808507E+02  0.14716463672E+02  0.53445070727E+02  0.10000000000E+01 0. -1.
    1000022    2    1    0    0    0 -0.54196151813E+02 -0.26230714390E+02  0.13452780971E+02  0.62499997420E+02  0.99999556384E+01 0.  0.
    3000022    2    3    3    0    0 -0.73814770628E+01 -0.50839058837E+01 -0.12636827002E+01  0.90549266925E+01  0.25000155362E+00 0.  0.
    1000022    2    1    0    0    0  0.54196151813E+02  0.26230714390E+02 -0.13452780971E+02  0.62500002580E+02  0.99999878935E+01 0.  0.
    3000022    2    5    5    0    0  0.12381534535E+02  0.10823900581E+02 -0.30424987562E+01  0.16726581191E+02  0.24999686399E+00 0.  0.
        -13    1    4    4    0    0 -0.21909630470E+01 -0.15615806397E+01 -0.39482131590E+00  0.27213529795E+01  0.10500000000E+00 0.  1.
         13    1    4    4    0    0 -0.51905140158E+01 -0.35223252440E+01 -0.86886138434E+00  0.63335737130E+01  0.10500000000E+00 0. -1.
    3000001    1    5    5    0    0  0.41814617278E+02  0.15406813810E+02 -0.10410282215E+02  0.45773421390E+02  0.10000000000E+01 0. -1.
        -13    1    6    6    0    0  0.59583002057E+01  0.52688175377E+01 -0.14202383100E+01  0.80802154330E+01  0.10500000000E+00 0.  1.
         13    1    6    6    0    0  0.64232343294E+01  0.55550830428E+01 -0.16222604461E+01  0.86463657578E+01  0.10500000000E+00 0. -1.
</event>
<event>
11    0  0.3476221E-009  0.9118800E+02  0.7816531E-02  0.1126479E+00
         25   -1    0    0    0    0  0.00000000000E+00  0.00000000000E+00  0.99999998245E-14  0.12500000000E+03  0.12500000000E+03 0.  0.
    3000001    1    3    3    0    0 -0.47074733758E+01  0.47152245068E+01 -0.54281446436E+01  0.86520750115E+01  0.10000000000E+01 0. -1.
    1000022    2    1    0    0    0 -0.44398458212E+02  0.38831067975E+02 -0.18087982518E+02  0.62500000221E+02  0.99999992158E+01 0.  0.
    3000022    2    3    3    0    0 -0.39690984837E+02  0.34115843468E+02 -0.12659837875E+02  0.53847925210E+02  0.25000299544E+00 0.  0.
    1000022    2    1    0    0    0  0.44398458212E+02 -0.38831067975E+02  0.18087982518E+02  0.62499999779E+02  0.99999964526E+01 0.  0.
    3000022    2    5    5    0    0  0.35525161514E+02 -0.25303625754E+02  0.13276561816E+02  0.45592106459E+02  0.25000166242E+00 0.  0.
        -13    1    4    4    0    0 -0.12860351470E+02  0.11117360404E+02 -0.40922317363E+01  0.17485471909E+02  0.10500000000E+00 0.  1.
         13    1    4    4    0    0 -0.26830633366E+02  0.22998483064E+02 -0.85676061384E+01  0.36362453301E+02  0.10500000000E+00 0. -1.
    3000001    1    5    5    0    0  0.88732966989E+01 -0.13527442221E+02  0.48114207022E+01  0.16907893320E+02  0.10000000000E+01 0.  1.
        -13    1    6    6    0    0  0.15265988181E+02 -0.10920406227E+02  0.57692655225E+01  0.19636728775E+02  0.10500000000E+00 0.  1.
         13    1    6    6    0    0  0.20259173332E+02 -0.14383219528E+02  0.75072962935E+01  0.25955377684E+02  0.10500000000E+00 0. -1.
</event>
<event>
11    0  0.3476221E-009  0.9118800E+02  0.7816531E-02  0.1126479E+00
         25   -1    0    0    0    0  0.00000000000E+00  0.00000000000E+00  0.99999998245E-14  0.12500000000E+03  0.12500000000E+03 0.  0.
    3000001    1    3    3    0    0 -0.23995761073E+02  0.33211977932E+01 -0.10078350521E+02  0.26256428803E+02  0.10000000000E+01 0. -1.
    1000022    2    1    0    0    0 -0.59906308210E+02  0.74311407239E+01 -0.12738223136E+02  0.62499999804E+02  0.10000001554E+02 0.  0.
    3000022    2    3    3    0    0 -0.35910547137E+02  0.41099429307E+01 -0.26598726149E+01  0.36243571002E+02  0.24998008784E+00 0.  0.
    1000022    2    1    0    0    0  0.59906308210E+02 -0.74311407239E+01  0.12738223136E+02  0.62500000196E+02  0.10000003999E+02 0.  0.
    3000022    2    5    5    0    0  0.38570188806E+02 -0.52524575942E+00  0.58284168055E+01  0.39012411984E+02  0.24999739563E+00 0.  0.
        -13    1    4    4    0    0 -0.18710412809E+02  0.20742475444E+01 -0.13962755196E+01  0.18877040570E+02  0.10500000000E+00 0.  1.
         13    1    4    4    0    0 -0.17200134329E+02  0.20356953863E+01 -0.12635970953E+01  0.17366530432E+02  0.10500000000E+00 0. -1.
    3000001    1    5    5    0    0  0.21336119404E+02 -0.69058949645E+01  0.69098063304E+01  0.23487588211E+02  0.10000000000E+01 0.  1.
        -13    1    6    6    0    0  0.19501198905E+02 -0.31946879566E+00  0.29053644589E+01  0.19719304924E+02  0.10500000000E+00 0. -1.
         13    1    6    6    0    0  0.19068989901E+02 -0.20577696375E+00  0.29230523465E+01  0.19293107060E+02  0.10500000000E+00 0.  1.
</event>
<event>
11    0  0.3476221E-009  0.9118800E+02  0.7816531E-02  0.1126479E+00
         25   -1    0    0    0    0  0.00000000000E+00  0.00000000000E+00  0.99999998245E-14  0.12500000000E+03  0.12500000000E+03 0.  0.
    3000001    1    3    3    0    0 -0.24635420807E+02  0.29944476629E+02 -0.17927079740E+02  0.42731204370E+02  0.10000000000E+01 0. -1.
    1000022    2    1    0    0    0 -0.29971273708E+02  0.46625083022E+02 -0.27093802049E+02  0.62499999337E+02  0.10000009657E+02 0.  0.
    3000022    2    3    3    0    0 -0.53358529008E+01  0.16680606393E+02 -0.91667223097E+01  0.19768794967E+02  0.25000143092E+00 0.  0.
    1000022    2    1    0    0    0  0.29971273708E+02 -0.46625083022E+02  0.27093802049E+02  0.62500000663E+02  0.10000017942E+02 0.  0.
    3000022    2    5    5    0    0  0.14916553700E+02 -0.31979573386E+02  0.17447261472E+02  0.39365798880E+02  0.25000066454E+00 0.  0.
        -13    1    4    4    0    0 -0.16980459368E+01  0.52613770523E+01 -0.29479021281E+01  0.62663067629E+01  0.10500000000E+00 0. -1.
         13    1    4    4    0    0 -0.36378069640E+01  0.11419229341E+02 -0.62188201816E+01  0.13502488204E+02  0.10500000000E+00 0.  1.
    3000001    1    5    5    0    0  0.15054720008E+02 -0.14645509636E+02  0.96465405769E+01  0.23134201783E+02  0.10000000000E+01 0.  1.
        -13    1    6    6    0    0  0.84583706857E+01 -0.18275462327E+02  0.99864204240E+01  0.22478349046E+02  0.10500000000E+00 0.  1.
         13    1    6    6    0    0  0.64581830141E+01 -0.13704111059E+02  0.74608410484E+01  0.16887449834E+02  0.10500000000E+00 0. -1.
</event>
<event>
11    0  0.3476221E-009  0.9118800E+02  0.7816531E-02  0.1126479E+00
         25   -1    0    0    0    0  0.00000000000E+00  0.00000000000E+00  0.99999998245E-14  0.12500000000E+03  0.12500000000E+03 0.  0.
    3000001    1    3    3    0    0 -0.29243921043E+02  0.29178807660E+02  0.10429345454E+02  0.42619021352E+02  0.10000000000E+01 0.  1.
    1000022    2    1    0    0    0 -0.38662139350E+02  0.46642173195E+02  0.11661762333E+02  0.62500000294E+02  0.99999998316E+01 0.  0.
    3000022    2    3    3    0    0 -0.94182183073E+01  0.17463365535E+02  0.12324168787E+01  0.19880978942E+02  0.25000090136E+00 0.  0.
    1000022    2    1    0    0    0  0.38662139350E+02 -0.46642173195E+02 -0.11661762333E+02  0.62499999706E+02  0.99999961540E+01 0.  0.
    3000022    2    5    5    0    0  0.29218904525E+01 -0.40828862870E+01 -0.39285909662E+01  0.63799477392E+01  0.25000385334E+00 0.  0.
        -13    1    4    4    0    0 -0.35569481514E+01  0.65730869114E+01  0.52384871506E+00  0.74928495362E+01  0.10500000000E+00 0. -1.
         13    1    4    4    0    0 -0.58612701560E+01  0.10890278624E+02  0.70856816361E+00  0.12388129406E+02  0.10500000000E+00 0.  1.
    3000001    1    5    5    0    0  0.35740248897E+02 -0.42559286908E+02 -0.77331713665E+01  0.56120051967E+02  0.10000000000E+01 0.  1.
        -13    1    6    6    0    0  0.13317770770E+01 -0.19661705210E+01 -0.18218368768E+01  0.29949242571E+01  0.10500000000E+00 0. -1.
         13    1    6    6    0    0  0.15901133755E+01 -0.21167157660E+01 -0.21067540894E+01  0.33850234821E+01  0.10500000000E+00 0.  1.
</event>
<event>
11    0  0.3476221E-009  0.9118800E+02  0.7816531E-02  0.1126479E+00
         25   -1    0    0    0    0  0.00000000000E+00  0.00000000000E+00  0.99999998245E-14  0.12500000000E+03  0.12500000000E+03 0.  0.
    3000001    1    3    3    0    0 -0.45883227879E+02  0.17562200513E+02 -0.25297670556E+02  0.55269101883E+02  0.10000000000E+01 0.  1.
    1000022    2    1    0    0    0 -0.50457997241E+02  0.17491748507E+02 -0.30891409163E+02  0.62500000198E+02  0.10000005664E+02 0.  0.
    3000022    2    3    3    0    0 -0.45747693620E+01 -0.70452005442E-01 -0.55937386066E+01  0.72308983146E+01  0.25000127176E+00 0.  0.
    1000022    2    1    0    0    0  0.50457997241E+02 -0.17491748507E+02  0.30891409163E+02  0.62499999802E+02  0.10000003191E+02 0.  0.
    3000022    2    5    5    0    0  0.25280594530E+02 -0.79086897345E+01  0.97007183245E+01  0.28210322042E+02  0.25000117694E+00 0.  0.
        -13    1    4    4    0    0 -0.24523309975E+01 -0.20807559884E-02 -0.29073695470E+01  0.38049644327E+01  0.10500000000E+00 0. -1.
         13    1    4    4    0    0 -0.21224383645E+01 -0.68371249454E-01 -0.26863690596E+01  0.34259338819E+01  0.10500000000E+00 0.  1.
    3000001    1    5    5    0    0  0.25177402711E+02 -0.95830587728E+01  0.21190690838E+02  0.34289677760E+02  0.10000000000E+01 0.  1.
        -13    1    6    6    0    0  0.12172260926E+02 -0.37589595491E+01  0.47175258859E+01  0.13585278371E+02  0.10500000000E+00 0. -1.
         13    1    6    6    0    0  0.13108333604E+02 -0.41497301855E+01  0.49831924386E+01  0.14625043671E+02  0.10500000000E+00 0.  1.
</event>
<event>
11    0  0.3476221E-009  0.9118800E+02  0.7816531E-02  0.1126479E+00
         25   -1    0    0    0    0  0.00000000000E+00  0.00000000000E+00  0.99999998245E-14  0.12500000000E+03  0.12500000000E+03 0.  0.
    3000001    1    3    3    0    0  0.35011183043E+02 -0.20655760567E+02 -0.11431274563E+02  0.42238814150E+02  0.10000000000E+01 0. -1.
    1000022    2    1    0    0    0  0.50649570032E+02 -0.26974764744E+02 -0.22654649705E+02  0.62499999111E+02  0.99999929057E+01 0.  0.
    3000022    2    3    3    0    0  0.15638386990E+02 -0.63190041770E+01 -0.11223375143E+02  0.20261184961E+02  0.25001000694E+00 0.  0.
    1000022    2    1    0    0    0 -0.50649570032E+02  0.26974764744E+02  0.22654649705E+02  0.62500000889E+02  0.10000004019E+02 0.  0.
    3000022    2    5    5    0    0 -0.15770685031E+02  0.37141458336E+01  0.46111607496E+01  0.16847394120E+02  0.24999916369E+00 0.  0.
        -13    1    4    4    0    0  0.95907251647E+01 -0.38199324681E+01 -0.69102390514E+01  0.12423217055E+02  0.10500000000E+00 0.  1.
         13    1    4    4    0    0  0.60476618249E+01 -0.24990717088E+01 -0.43131360913E+01  0.78379679060E+01  0.10500000000E+00 0. -1.
    3000001    1    5    5    0    0 -0.34878885002E+02  0.23260618910E+02  0.18043488956E+02  0.45652606769E+02  0.10000000000E+01 0. -1.
        -13    1    6    6    0    0 -0.48263235850E+01  0.10995377258E+01  0.14406868802E+01  0.51564509350E+01  0.10500000000E+00 0. -1.
         13    1    6    6    0    0 -0.10944361446E+02  0.26146081078E+01  0.31704738694E+01  0.11690943185E+02  0.10500000000E+00 0.  1.
</event>
<event>
11    0  0.3476221E-009  0.9118800E+02  0.7816531E-02  0.1126479E+00
         25   -1    0    0    0    0  0.00000000000E+00  0.00000000000E+00  0.99999998245E-14  0.12500000000E+03  0.12500000000E+03 0.  0.
    3000001    1    3    3    0    0 -0.17138627962E+02  0.43800821679E+00 -0.24883661460E+02  0.30234434462E+02  0.10000000000E+01 0.  1.
    1000022    2    1    0    0    0 -0.40507844265E+02  0.78058809291E+01 -0.45874096551E+02  0.62499999476E+02  0.99999988041E+01 0.  0.
    3000022    2    3    3    0    0 -0.23369216303E+02  0.73678727123E+01 -0.20990435091E+02  0.32265565014E+02  0.25000284049E+00 0.  0.
    1000022    2    1    0    0    0  0.40507844265E+02 -0.78058809291E+01  0.45874096551E+02  0.62500000524E+02  0.10000005351E+02 0.  0.
    3000022    2    5    5    0    0  0.20105117990E+02 -0.17965158578E+01  0.15718797838E+02  0.25584885077E+02  0.25000057011E+00 0.  0.
        -13    1    4    4    0    0 -0.14074178568E+02  0.43806635581E+01 -0.12669110885E+02  0.19436823588E+02  0.10500000000E+00 0.  1.
         13    1    4    4    0    0 -0.92950377352E+01  0.29872091542E+01 -0.83213242059E+01  0.12828741426E+02  0.10500000000E+00 0. -1.
    3000001    1    5    5    0    0  0.20402726275E+02 -0.60093650713E+01  0.30155298713E+02  0.36915115447E+02  0.10000000000E+01 0. -1.
        -13    1    6    6    0    0  0.12128405212E+02 -0.11420553886E+01  0.94562202604E+01  0.15421855599E+02  0.10500000000E+00 0.  1.
         13    1    6    6    0    0  0.79767127783E+01 -0.65446046918E+00  0.62625775780E+01  0.10163029478E+02  0.10500000000E+00 0. -1.
</event>
<event>
11    0  0.3476221E-009  0.9118800E+02  0.7816531E-02  0.1126479E+00
         25   -1    0    0    0    0  0.00000000000E+00  0.00000000000E+00  0.99999998245E-14  0.12500000000E+03  0.12500000000E+03 0.  0.
    3000001    1    3    3    0    0  0.31828686990E+02  0.23794418127E+02 -0.38761416640E+02  0.55521951240E+02  0.10000000000E+01 0. -1.
    1000022    2    1    0    0    0  0.32763587150E+02  0.28494284948E+02 -0.43827762892E+02  0.62499999024E+02  0.10000008011E+02 0.  0.
    3000022    2    3    3    0    0  0.93490016010E+00  0.46998668210E+01 -0.50663462521E+01  0.69780477844E+01  0.25000018167E+00 0.  0.
    1000022    2    1    0    0    0 -0.32763587150E+02 -0.28494284948E+02  0.43827762892E+02  0.62500000976E+02  0.10000020208E+02 0.  0.
    3000022    2    5    5    0    0 -0.18393080824E+02 -0.15066903474E+02  0.17042069322E+02  0.29254258311E+02  0.25000004452E+00 0.  0.
        -13    1    4    4    0    0  0.55402929371E+00  0.28003097883E+01 -0.29245238844E+01  0.40880983745E+01  0.10500000000E+00 0. -1.
         13    1    4    4    0    0  0.38087086640E+00  0.18995570326E+01 -0.21418223677E+01  0.28899494099E+01  0.10500000000E+00 0.  1.
    3000001    1    5    5    0    0 -0.14370506326E+02 -0.13427381474E+02  0.26785693570E+02  0.33245742665E+02  0.10000000000E+01 0.  1.
        -13    1    6    6    0    0 -0.10248853607E+02 -0.84809354756E+01  0.95380789113E+01  0.16369216265E+02  0.10500000000E+00 0.  1.
         13    1    6    6    0    0 -0.81442272167E+01 -0.65859679988E+01  0.75039904107E+01  0.12885042046E+02  0.10500000000E+00 0. -1.
</event>
<event>
11    0  0.3476221E-009  0.9118800E+02  0.7816531E-02  0.1126479E+00
         25   -1    0    0    0    0  0.00000000000E+00  0.00000000000E+00  0.99999998245E-14  0.12500000000E+03  0.12500000000E+03 0.  0.
    3000001    1    3    3    0    0  0.31067915623E+02  0.15649460615E+02  0.27218954608E+02  0.44181359063E+02  0.10000000000E+01 0. -1.
    1000022    2    1    0    0    0  0.39532638952E+02  0.26710534896E+02  0.39114806283E+02  0.62500002327E+02  0.10000000169E+02 0.  0.
    3000022    2    3    3    0    0  0.84647233290E+01  0.11061074280E+02  0.11895851675E+02  0.18318643264E+02  0.24999736446E+00 0.  0.
    1000022    2    1    0    0    0 -0.39532638952E+02 -0.26710534896E+02 -0.39114806283E+02  0.62499997673E+02  0.99999710815E+01 0.  0.
    3000022    2    5    5    0    0 -0.15420949317E+02 -0.58369622134E+01 -0.98743010355E+01  0.19220825307E+02  0.24999761709E+00 0.  0.
        -13    1    4    4    0    0  0.31060037010E+01  0.40756104951E+01  0.43002649546E+01  0.66903784331E+01  0.10500000000E+00 0.  1.
         13    1    4    4    0    0  0.53587196280E+01  0.69854637853E+01  0.75955867205E+01  0.11628264831E+02  0.10500000000E+00 0. -1.
    3000001    1    5    5    0    0 -0.24111689635E+02 -0.20873572682E+02 -0.29240505247E+02  0.43279172366E+02  0.10000000000E+01 0. -1.
        -13    1    6    6    0    0 -0.77744195452E+01 -0.30101671992E+01 -0.50212829621E+01  0.97327803539E+01  0.10500000000E+00 0.  1.
         13    1    6    6    0    0 -0.76465297721E+01 -0.28267950142E+01 -0.48530180734E+01  0.94880449529E+01  0.10500000000E+00 0. -1.
</event>
<event>
11    0  0.3476221E-009  0.9118800E+02  0.7816531E-02  0.1126479E+00
         25   -1    0    0    0    0  0.00000000000E+00  0.00000000000E+00  0.99999998245E-14  0.12500000000E+03  0.12500000000E+03 0.  0.
    3000001    1    3    3    0    0 -0.18976003641E+02  0.28343889503E+02 -0.12952095049E+02  0.36499610306E+02  0.10000000000E+01 0. -1.
    1000022    2    1    0    0    0 -0.38426489354E+02  0.42657213137E+02 -0.22583558825E+02  0.62499999169E+02  0.99999925136E+01 0.  0.
    3000022    2    3    3    0    0 -0.19450485713E+02  0.14313323634E+02 -0.96314637764E+01  0.26000388863E+02  0.24999729840E+00 0.  0.
    1000022    2    1    0    0    0  0.38426489354E+02 -0.42657213137E+02  0.22583558825E+02  0.62500000831E+02  0.10000002899E+02 0.  0.
    3000022    2    5    5    0    0 -0.16092339623E+00 -0.18144852051E+01  0.18272783069E+01  0.25922381568E+01  0.24999950360E+00 0.  0.
        -13    1    4    4    0    0 -0.80666660942E+01  0.59667670810E+01 -0.40658649874E+01  0.10826619711E+02  0.10500000000E+00 0. -1.
         13    1    4    4    0    0 -0.11383819619E+02  0.83465565533E+01 -0.55655987890E+01  0.15173769152E+02  0.10500000000E+00 0.  1.
    3000001    1    5    5    0    0  0.38587412750E+02 -0.40842727932E+02  0.20756280518E+02  0.59907762674E+02  0.10000000000E+01 0. -1.
        -13    1    6    6    0    0 -0.57178390569E-01 -0.70547584592E+00  0.80074875317E+00  0.10738664271E+01  0.10500000000E+00 0. -1.
         13    1    6    6    0    0 -0.10374500566E+00 -0.11090093592E+01  0.10265295537E+01  0.15183717297E+01  0.10500000000E+00 0.  1.
</event>
<event>
11    0  0.3476221E-009  0.9118800E+02  0.7816531E-02  0.1126479E+00
         25   -1    0    0    0    0  0.00000000000E+00  0.00000000000E+00  0.99999998245E-14  0.12500000000E+03  0.12500000000E+03 0.  0.
    3000001    1    3    3    0    0  0.58168545838E+02  0.41313751577E+01  0.92148816739E+01  0.59047117033E+02  0.10000000000E+01 0. -1.
    1000022    2    1    0    0    0  0.61099029882E+02  0.42698277218E+01  0.74112745086E+01  0.62500000717E+02  0.10000010922E+02 0.  0.
    3000022    2    3    3    0    0  0.29304840438E+01  0.13845256403E+00 -0.18036071653E+01  0.34528836837E+01  0.25000216654E+00 0.  0.
    1000022    2    1    0    0    0 -0.61099029882E+02 -0.42698277218E+01 -0.74112745086E+01  0.62499999283E+02  0.10000001965E+02 0.  0.
    3000022    2    5    5    0    0 -0.52088020485E+02 -0.64345530536E+01 -0.42458624559E+01  0.52656008244E+02  0.25001038316E+00 0.  0.
        -13    1    4    4    0    0  0.11942645182E+01  0.12028452957E+00 -0.74218519909E+00  0.14151324946E+01  0.10500000000E+00 0.  1.
         13    1    4    4    0    0  0.17362195256E+01  0.18168034461E-01 -0.10614219662E+01  0.20377511891E+01  0.10500000000E+00 0. -1.
    3000001    1    5    5    0    0 -0.90110093969E+01  0.21647253319E+01 -0.31654120527E+01  0.98439910391E+01  0.10000000000E+01 0.  1.
        -13    1    6    6    0    0 -0.38945188673E+02 -0.48024435820E+01 -0.32009008753E+01  0.39370648668E+02  0.10500000000E+00 0.  1.
         13    1    6    6    0    0 -0.13142831812E+02 -0.16321094717E+01 -0.10449615806E+01  0.13285359577E+02  0.10500000000E+00 0. -1.
</event>
<event>
11    0  0.3476221E-009  0.9118800E+02  0.7816531E-02  0.1126479E+00
         25   -1    0    0    0    0  0.00000000000E+00  0.00000000000E+00  0.99999998245E-14  0.12500000000E+03  0.12500000000E+03 0.  0.
    3000001    1    3    3    0    0  0.32272177823E+02  0.14907385641E+02 -0.14882553892E+02  0.38551446386E+02  0.10000000000E+01 0.  1.
    1000022    2    1    0    0    0  0.55088674845E+02  0.17257101802E+02 -0.21764194443E+02  0.62499999189E+02  0.10000004001E+02 0.  0.
    3000022    2    3    3    0    0  0.22816497022E+02  0.23497161611E+01 -0.68816405511E+01  0.23948552803E+02  0.25000455515E+00 0.  0.
    1000022    2    1    0    0    0 -0.55088674845E+02 -0.17257101802E+02  0.21764194443E+02  0.62500000811E+02  0.10000014143E+02 0.  0.
    3000022    2    5    5    0    0  0.24888389499E+00 -0.64413222301E+00  0.63906142908E+00  0.97352349946E+00  0.24999795992E+00 0.  0.
        -13    1    4    4    0    0  0.94467526295E+01  0.99757381788E+00 -0.29121241139E+01  0.99361854160E+01  0.10500000000E+00 0.  1.
         13    1    4    4    0    0  0.13369744392E+02  0.13521423432E+01 -0.39695164372E+01  0.14012367387E+02  0.10500000000E+00 0. -1.
    3000001    1    5    5    0    0 -0.55337558740E+02 -0.16612969579E+02  0.21125133014E+02  0.61526477312E+02  0.10000000000E+01 0. -1.
        -13    1    6    6    0    0  0.21761479139E+00 -0.42267273366E+00  0.40741036090E+00  0.63483591532E+00  0.10500000000E+00 0.  1.
         13    1    6    6    0    0  0.31269103598E-01 -0.22145948935E+00  0.23165106817E+00  0.33868758413E+00  0.10500000000E+00 0. -1.
</event>
<event>
11    0  0.3476221E-009  0.9118800E+02  0.7816531E-02  0.1126479E+00
         25   -1    0    0    0    0  0.00000000000E+00  0.00000000000E+00  0.99999998245E-14  0.12500000000E+03  0.12500000000E+03 0.  0.
    3000001    1    3    3    0    0  0.11006453137E+02  0.17394574542E+02  0.17554350560E+02  0.27071543320E+02  0.10000000000E+01 0. -1.
    1000022    2    1    0    0    0  0.34185024752E+02  0.33158780164E+02  0.39218992941E+02  0.62500000676E+02  0.10000002899E+02 0.  0.
    3000022    2    3    3    0    0  0.23178571615E+02  0.15764205622E+02  0.21664642381E+02  0.35428457356E+02  0.25000027279E+00 0.  0.
    1000022    2    1    0    0    0 -0.34185024752E+02 -0.33158780164E+02 -0.39218992941E+02  0.62499999324E+02  0.99999944494E+01 0.  0.
    3000022    2    5    5    0    0 -0.11974462271E+02 -0.88555938025E+01 -0.17797923313E+02  0.23208573071E+02  0.25000289326E+00 0.  0.
        -13    1    4    4    0    0  0.66897290632E+01  0.45463999627E+01  0.63052494274E+01  0.10256189492E+02  0.10500000000E+00 0. -1.
         13    1    4    4    0    0  0.16488842552E+02  0.11217805659E+02  0.15359392954E+02  0.25172267864E+02  0.10500000000E+00 0.  1.
    3000001    1    5    5    0    0 -0.22210562481E+02 -0.24303186361E+02 -0.21421069627E+02  0.39291426253E+02  0.10000000000E+01 0. -1.
        -13    1    6    6    0    0 -0.59645137401E+01 -0.43385946949E+01 -0.88679780652E+01  0.11534768660E+02  0.10500000000E+00 0.  1.
         13    1    6    6    0    0 -0.60099485308E+01 -0.45169991076E+01 -0.89299452479E+01  0.11673804410E+02  0.10500000000E+00 0. -1.
</event>
<event>
11    0  0.3476221E-009  0.9118800E+02  0.7816531E-02  0.1126479E+00
         25   -1    0    0    0    0  0.00000000000E+00  0.00000000000E+00  0.99999998245E-14  0.12500000000E+03  0.12500000000E+03 0.  0.
    3000001    1    3    3    0    0  0.14304795358E+02  0.71739648421E+00 -0.18767412143E+02  0.23629591331E+02  0.10000000000E+01 0. -1.
    1000022    2    1    0    0    0  0.45514981748E+02 -0.39452657112E+01 -0.41461683932E+02  0.62499999361E+02  0.10000000031E+02 0.  0.
    3000022    2    3    3    0    0  0.31210186390E+02 -0.46626621955E+01 -0.22694271790E+02  0.38870408030E+02  0.24999024227E+00 0.  0.
    1000022    2    1    0    0    0 -0.45514981748E+02  0.39452657112E+01  0.41461683932E+02  0.62500000639E+02  0.10000008015E+02 0.  0.
    3000022    2    5    5    0    0 -0.28538180465E+02  0.53982775377E+01  0.30999069629E+02  0.42480277283E+02  0.24999114398E+00 0.  0.
        -13    1    4    4    0    0  0.22241372351E+02 -0.33134489838E+01 -0.16222000271E+02  0.27727637945E+02  0.10500000000E+00 0.  1.
         13    1    4    4    0    0  0.89688140389E+01 -0.13492132117E+01 -0.64722715186E+01  0.11142770085E+02  0.10500000000E+00 0. -1.
    3000001    1    5    5    0    0 -0.16976801283E+02 -0.14530118265E+01  0.10462614303E+02  0.20019723355E+02  0.10000000000E+01 0. -1.
        -13    1    6    6    0    0 -0.11441334299E+02  0.21255867499E+01  0.12494204083E+02  0.17074495900E+02  0.10500000000E+00 0.  1.
         13    1    6    6    0    0 -0.17096846166E+02  0.32726907879E+01  0.18504865546E+02  0.25405781383E+02  0.10500000000E+00 0. -1.
</event>
<event>
11    0  0.3476221E-009  0.9118800E+02  0.7816531E-02  0.1126479E+00
         25   -1    0    0    0    0  0.00000000000E+00  0.00000000000E+00  0.99999998245E-14  0.12500000000E+03  0.12500000000E+03 0.  0.
    3000001    1    3    3    0    0  0.16028633314E+02  0.18197140577E+02 -0.38741364307E+02  0.45715930697E+02  0.10000000000E+01 0. -1.
    1000022    2    1    0    0    0  0.16616877146E+02  0.22775588026E+02 -0.54876242775E+02  0.62500001171E+02  0.10000005466E+02 0.  0.
    3000022    2    3    3    0    0  0.58824383112E+00  0.45784474494E+01 -0.16134878468E+02  0.16784070475E+02  0.25001333958E+00 0.  0.
    1000022    2    1    0    0    0 -0.16616877146E+02 -0.22775588026E+02  0.54876242775E+02  0.62499998829E+02  0.99999908224E+01 0.  0.
    3000022    2    5    5    0    0 -0.26419747295E+01  0.10072711210E+00  0.24692999565E+01  0.36263090560E+01  0.24999734355E+00 0.  0.
        -13    1    4    4    0    0  0.37370654242E+00  0.32022071240E+01 -0.11358134582E+02  0.11807287293E+02  0.10500000000E+00 0. -1.
         13    1    4    4    0    0  0.21453728871E+00  0.13762403255E+01 -0.47767438862E+01  0.49767831815E+01  0.10500000000E+00 0.  1.
    3000001    1    5    5    0    0 -0.13974902416E+02 -0.22876315138E+02  0.52406942819E+02  0.58873689773E+02  0.10000000000E+01 0. -1.
        -13    1    6    6    0    0 -0.14535668921E+01  0.56913817985E-01  0.12665185810E+01  0.19316289003E+01  0.10500000000E+00 0. -1.
         13    1    6    6    0    0 -0.11884078374E+01  0.43813294111E-01  0.12027813755E+01  0.16946801556E+01  0.10500000000E+00 0.  1.
</event>
<event>
11    0  0.3476221E-009  0.9118800E+02  0.7816531E-02  0.1126479E+00
         25   -1    0    0    0    0  0.00000000000E+00  0.00000000000E+00  0.99999998245E-14  0.12500000000E+03  0.12500000000E+03 0.  0.
    3000001    1    3    3    0    0 -0.93983670520E+01  0.14265740171E+02 -0.12859617312E+02  0.21405849745E+02  0.10000000000E+01 0.  1.
    1000022    2    1    0    0    0 -0.23062022684E+02  0.50055302835E+02 -0.27728320111E+02  0.62499999019E+02  0.99999954485E+01 0.  0.
    3000022    2    3    3    0    0 -0.13663655632E+02  0.35789562664E+02 -0.14868702799E+02  0.41094149274E+02  0.25000145814E+00 0.  0.
    1000022    2    1    0    0    0  0.23062022684E+02 -0.50055302835E+02  0.27728320111E+02  0.62500000981E+02  0.10000007714E+02 0.  0.
    3000022    2    5    5    0    0  0.13547097541E+02 -0.37191536831E+02  0.23026508513E+02  0.45793196722E+02  0.25001601794E+00 0.  0.
        -13    1    4    4    0    0 -0.51650093468E+01  0.13453862630E+02 -0.55353891155E+01  0.15438111895E+02  0.10500000000E+00 0.  1.
         13    1    4    4    0    0 -0.84986462849E+01  0.22335700034E+02 -0.93333136832E+01  0.25656037379E+02  0.10500000000E+00 0. -1.
    3000001    1    5    5    0    0  0.95149251424E+01 -0.12863766004E+02  0.47018115979E+01  0.16706804260E+02  0.10000000000E+01 0.  1.
        -13    1    6    6    0    0  0.34793892527E+01 -0.95851642355E+01  0.59650869570E+01  0.11814178363E+02  0.10500000000E+00 0. -1.
         13    1    6    6    0    0  0.10067708289E+02 -0.27606372596E+02  0.17061421556E+02  0.33979018358E+02  0.10500000000E+00 0.  1.
</event>
<event>
11    0  0.3476221E-009  0.9118800E+02  0.7816531E-02  0.1126479E+00
         25   -1    0    0    0    0  0.00000000000E+00  0.00000000000E+00  0.99999998245E-14  0.12500000000E+03  0.12500000000E+03 0.  0.
    3000001    1    3    3    0    0 -0.10770471278E+02  0.11015369386E+02  0.55513138524E+01  0.16406050706E+02  0.10000000000E+01 0. -1.
    1000022    2    1    0    0    0 -0.50642008717E+02  0.33532841817E+02  0.10825204090E+02  0.62500003440E+02  0.10000042958E+02 0.  0.
    3000022    2    3    3    0    0 -0.39871537439E+02  0.22517472431E+02  0.52738902377E+01  0.46093952734E+02  0.24999603456E+00 0.  0.
    1000022    2    1    0    0    0  0.50642008717E+02 -0.33532841817E+02 -0.10825204090E+02  0.62499996560E+02  0.99999999613E+01 0.  0.
    3000022    2    5    5    0    0  0.49843765408E+02 -0.32586041815E+02 -0.92581012594E+01  0.60266292482E+02  0.24999895832E+00 0.  0.
        -13    1    4    4    0    0 -0.14017237322E+02  0.79656905813E+01  0.18942851658E+01  0.16233746021E+02  0.10500000000E+00 0.  1.
         13    1    4    4    0    0 -0.25854300116E+02  0.14551781850E+02  0.33796050719E+01  0.29860206713E+02  0.10500000000E+00 0. -1.
    3000001    1    5    5    0    0  0.79824330896E+00 -0.94680000276E+00 -0.15671028306E+01  0.22337040778E+01  0.10000000000E+01 0. -1.
        -13    1    6    6    0    0  0.22264816837E+02 -0.14548426266E+02 -0.40678965468E+01  0.26906088212E+02  0.10500000000E+00 0.  1.
         13    1    6    6    0    0  0.27578948571E+02 -0.18037615549E+02 -0.51902047126E+01  0.33360204270E+02  0.10500000000E+00 0. -1.
</event>
<event>
11    0  0.3476221E-009  0.9118800E+02  0.7816531E-02  0.1126479E+00
         25   -1    0    0    0    0  0.00000000000E+00  0.00000000000E+00  0.99999998245E-14  0.12500000000E+03  0.12500000000E+03 0.  0.
    3000001    1    3    3    0    0 -0.44120585344E+01  0.23792028436E+02  0.74812040408E+01  0.25347490832E+02  0.10000000000E+01 0.  1.
    1000022    2    1    0    0    0 -0.34552223787E+01  0.60884370557E+02  0.93490389590E+01  0.62499996686E+02  0.99999958222E+01 0.  0.
    3000022    2    3    3    0    0  0.95683615576E+00  0.37092342121E+02  0.18678349181E+01  0.37152505853E+02  0.25000885073E+00 0.  0.
    1000022    2    1    0    0    0  0.34552223787E+01 -0.60884370557E+02 -0.93490389590E+01  0.62500003314E+02  0.10000037252E+02 0.  0.
    3000022    2    5    5    0    0  0.37754224562E+01 -0.10895137958E+02  0.47734530500E+00  0.11543318457E+02  0.24999324241E+00 0.  0.
        -13    1    4    4    0    0  0.55159052968E+00  0.20989143624E+02  0.99184724822E+00  0.21020066321E+02  0.10500000000E+00 0.  1.
         13    1    4    4    0    0  0.40524562608E+00  0.16103198497E+02  0.87598766992E+00  0.16132439532E+02  0.10500000000E+00 0. -1.
    3000001    1    5    5    0    0 -0.32020007752E+00 -0.49989232599E+02 -0.98263842640E+01  0.50956684857E+02  0.10000000000E+01 0.  1.
        -13    1    6    6    0    0  0.29104186256E+01 -0.83764540164E+01  0.36219999832E+00  0.88756820755E+01  0.10500000000E+00 0.  1.
         13    1    6    6    0    0  0.86500383053E+00 -0.25186839413E+01  0.11514530668E+00  0.26676363817E+01  0.10500000000E+00 0. -1.
</event>
<event>
11    0  0.3476221E-009  0.9118800E+02  0.7816531E-02  0.1126479E+00
         25   -1    0    0    0    0  0.00000000000E+00  0.00000000000E+00  0.99999998245E-14  0.12500000000E+03  0.12500000000E+03 0.  0.
    3000001    1    3    3    0    0  0.32687666245E+01 -0.10742305355E+02 -0.10214051725E+01  0.11319241499E+02  0.10000000000E+01 0. -1.
    1000022    2    1    0    0    0  0.13870342955E+02 -0.58323237419E+02  0.14569263992E+02  0.62499999494E+02  0.10000002338E+02 0.  0.
    3000022    2    3    3    0    0  0.10601576330E+02 -0.47580932064E+02  0.15590669165E+02  0.51180757995E+02  0.25001436065E+00 0.  0.
    1000022    2    1    0    0    0 -0.13870342955E+02  0.58323237419E+02 -0.14569263992E+02  0.62500000506E+02  0.10000008662E+02 0.  0.
    3000022    2    5    5    0    0 -0.79886017759E+01  0.36336419775E+02 -0.13873266576E+02  0.39707470111E+02  0.24999342834E+00 0.  0.
        -13    1    4    4    0    0  0.58544923406E+01 -0.25970297614E+02  0.85060426913E+01  0.27948080900E+02  0.10500000000E+00 0.  1.
         13    1    4    4    0    0  0.47470839894E+01 -0.21610634450E+02  0.70846264734E+01  0.23232677095E+02  0.10500000000E+00 0. -1.
    3000001    1    5    5    0    0 -0.58817411786E+01  0.21986817644E+02 -0.69599741638E+00  0.22792530395E+02  0.10000000000E+01 0.  1.
        -13    1    6    6    0    0 -0.29703430310E+01  0.13782325776E+02 -0.52394765225E+01  0.15041229363E+02  0.10500000000E+00 0. -1.
         13    1    6    6    0    0 -0.50182587449E+01  0.22554093999E+02 -0.86337900534E+01  0.24666240748E+02  0.10500000000E+00 0.  1.
</event>
<event>
11    0  0.3476221E-009  0.9118800E+02  0.7816531E-02  0.1126479E+00
         25   -1    0    0    0    0  0.00000000000E+00  0.00000000000E+00  0.99999998245E-14  0.12500000000E+03  0.12500000000E+03 0.  0.
    3000001    1    3    3    0    0 -0.21492078015E+02  0.70654695394E+01  0.63957427607E-01  0.22645846590E+02  0.10000000000E+01 0. -1.
    1000022    2    1    0    0    0 -0.53985362376E+02  0.28894967612E+02  0.75439606397E+01  0.62499998979E+02  0.10000001307E+02 0.  0.
    3000022    2    3    3    0    0 -0.32493284361E+02  0.21829498072E+02  0.74800032121E+01  0.39854152389E+02  0.24999996310E+00 0.  0.
    1000022    2    1    0    0    0  0.53985362376E+02 -0.28894967612E+02 -0.75439606397E+01  0.62500001021E+02  0.10000014068E+02 0.  0.
    3000022    2    5    5    0    0  0.31949146404E+02 -0.21924752222E+02 -0.68885042998E+01  0.39356787330E+02  0.25000302356E+00 0.  0.
        -13    1    4    4    0    0 -0.13123018730E+02  0.87580197429E+01  0.30564448258E+01  0.16070762595E+02  0.10500000000E+00 0.  1.
         13    1    4    4    0    0 -0.19370265630E+02  0.13071478330E+02  0.44235583863E+01  0.23783389794E+02  0.10500000000E+00 0. -1.
    3000001    1    5    5    0    0  0.22036215971E+02 -0.69702153897E+01 -0.65545633990E+00  0.23143213691E+02  0.10000000000E+01 0.  1.
        -13    1    6    6    0    0  0.23868747896E+02 -0.16413290016E+02 -0.51506272645E+01  0.29421985003E+02  0.10500000000E+00 0.  1.
         13    1    6    6    0    0  0.80803985077E+01 -0.55114622066E+01 -0.17378770353E+01  0.99348023276E+01  0.10500000000E+00 0. -1.
</event>
<event>
11    0  0.3476221E-009  0.9118800E+02  0.7816531E-02  0.1126479E+00
         25   -1    0    0    0    0  0.00000000000E+00  0.00000000000E+00  0.99999998245E-14  0.12500000000E+03  0.12500000000E+03 0.  0.
    3000001    1    3    3    0    0  0.67026481134E+01 -0.52157966815E+01  0.69693278095E+01  0.11031842859E+02  0.10000000000E+01 0. -1.
    1000022    2    1    0    0    0  0.19190809509E+02 -0.35489000196E+02  0.46674335926E+02  0.62499999953E+02  0.10000002773E+02 0.  0.
    3000022    2    3    3    0    0  0.12488161395E+02 -0.30273203515E+02  0.39705008117E+02  0.51468157094E+02  0.24999803099E+00 0.  0.
    1000022    2    1    0    0    0 -0.19190809509E+02  0.35489000196E+02 -0.46674335926E+02  0.62500000047E+02  0.10000003358E+02 0.  0.
    3000022    2    5    5    0    0 -0.19202370453E+02  0.27702595283E+02 -0.37373415409E+02  0.50328913094E+02  0.24999501706E+00 0.  0.
        -13    1    4    4    0    0  0.67558279647E+01 -0.16344981193E+02  0.21339764369E+02  0.27716352394E+02  0.10500000000E+00 0. -1.
         13    1    4    4    0    0  0.57323334307E+01 -0.13928222321E+02  0.18365243748E+02  0.23751804700E+02  0.10500000000E+00 0.  1.
    3000001    1    5    5    0    0  0.11560944699E-01  0.77864049135E+01 -0.93009205175E+01  0.12171086953E+02  0.10000000000E+01 0. -1.
        -13    1    6    6    0    0 -0.10197565694E+02  0.14614232118E+02 -0.19701407374E+02  0.26565440031E+02  0.10500000000E+00 0.  1.
         13    1    6    6    0    0 -0.90048047592E+01  0.13088363164E+02 -0.17672008035E+02  0.23763473064E+02  0.10500000000E+00 0. -1.
</event>
<event>
11    0  0.3476221E-009  0.9118800E+02  0.7816531E-02  0.1126479E+00
         25   -1    0    0    0    0  0.00000000000E+00  0.00000000000E+00  0.99999998245E-14  0.12500000000E+03  0.12500000000E+03 0.  0.
    3000001    1    3    3    0    0 -0.38543913099E+00  0.98344765435E+01  0.56504006112E+01  0.11392651986E+02  0.10000000000E+01 0. -1.
    1000022    2    1    0    0    0 -0.14086192055E+02  0.42108920801E+02  0.42833028440E+02  0.62499996819E+02  0.99999629712E+01 0.  0.
    3000022    2    3    3    0    0 -0.13700752924E+02  0.32274444257E+02  0.37182627828E+02  0.51107344833E+02  0.25000165794E+00 0.  0.
    1000022    2    1    0    0    0  0.14086192055E+02 -0.42108920801E+02 -0.42833028440E+02  0.62500003181E+02  0.10000002735E+02 0.  0.
    3000022    2    5    5    0    0  0.32857333622E+01 -0.16403362465E+02 -0.22202227449E+02  0.27800499051E+02  0.24999985913E+00 0.  0.
        -13    1    4    4    0    0 -0.97834994510E+01  0.22939135461E+02  0.26455885259E+02  0.36357195809E+02  0.10500000000E+00 0. -1.
         13    1    4    4    0    0 -0.39172534725E+01  0.93353087962E+01  0.10726742569E+02  0.14750149024E+02  0.10500000000E+00 0.  1.
    3000001    1    5    5    0    0  0.10800458692E+02 -0.25705558336E+02 -0.20630800991E+02  0.34699504130E+02  0.10000000000E+01 0. -1.
        -13    1    6    6    0    0  0.81488720725E+00 -0.40543553253E+01 -0.55302874212E+01  0.69062972877E+01  0.10500000000E+00 0.  1.
         13    1    6    6    0    0  0.24708461550E+01 -0.12349007140E+02 -0.16671940027E+02  0.20894201764E+02  0.10500000000E+00 0. -1.
</event>
<event>
11    0  0.3476221E-009  0.9118800E+02  0.7816531E-02  0.1126479E+00
         25   -1    0    0    0    0  0.00000000000E+00  0.00000000000E+00  0.99999998245E-14  0.12500000000E+03  0.12500000000E+03 0.  0.
    3000001    1    3    3    0    0  0.96518892293E+01 -0.71059938979E+01  0.46970595693E+01  0.12911873744E+02  0.10000000000E+01 0.  1.
    1000022    2    1    0    0    0  0.35403951394E+02 -0.33198496778E+02  0.38087663500E+02  0.62500000786E+02  0.10000001239E+02 0.  0.
    3000022    2    3    3    0    0  0.25752062164E+02 -0.26092502880E+02  0.33390603931E+02  0.49588127043E+02  0.25000093624E+00 0.  0.
    1000022    2    1    0    0    0 -0.35403951394E+02  0.33198496778E+02 -0.38087663500E+02  0.62499999214E+02  0.99999914104E+01 0.  0.
    3000022    2    5    5    0    0 -0.32732752191E+02  0.32941592613E+02 -0.37199465285E+02  0.59501632825E+02  0.25000300294E+00 0.  0.
        -13    1    4    4    0    0  0.18282529828E+02 -0.18485560288E+02  0.23725498151E+02  0.35197686339E+02  0.10500000000E+00 0.  1.
         13    1    4    4    0    0  0.74695323367E+01 -0.76069425925E+01  0.96651057793E+01  0.14390440704E+02  0.10500000000E+00 0. -1.
    3000001    1    5    5    0    0 -0.26711992025E+01  0.25690416494E+00 -0.88819821525E+00  0.29983663884E+01  0.10000000000E+01 0. -1.
        -13    1    6    6    0    0 -0.23407657201E+02  0.23602175830E+02 -0.26593994757E+02  0.42570326540E+02  0.10500000000E+00 0. -1.
         13    1    6    6    0    0 -0.93250949904E+01  0.93394167830E+01 -0.10605470527E+02  0.16931306285E+02  0.10500000000E+00 0.  1.
</event>
<event>
11    0  0.3476221E-009  0.9118800E+02  0.7816531E-02  0.1126479E+00
         25   -1    0    0    0    0  0.00000000000E+00  0.00000000000E+00  0.99999998245E-14  0.12500000000E+03  0.12500000000E+03 0.  0.
    3000001    1    3    3    0    0 -0.39821710793E+00  0.58407737783E+01  0.14168078051E+02  0.15362540508E+02  0.10000000000E+01 0.  1.
    1000022    2    1    0    0    0  0.57870604607E+01  0.86242942652E+01  0.60814320128E+02  0.62499999506E+02  0.99999942636E+01 0.  0.
    3000022    2    3    3    0    0  0.61852775686E+01  0.27835204869E+01  0.46646242077E+02  0.47137458998E+02  0.24999199996E+00 0.  0.
    1000022    2    1    0    0    0 -0.57870604607E+01 -0.86242942652E+01 -0.60814320128E+02  0.62500000494E+02  0.10000000436E+02 0.  0.
    3000022    2    5    5    0    0 -0.23861815405E+01  0.20582423348E+01 -0.13669131839E+02  0.14029892752E+02  0.25000311439E+00 0.  0.
        -13    1    4    4    0    0  0.47653234681E+01  0.21455383315E+01  0.35962576855E+02  0.36340467822E+02  0.10500000000E+00 0. -1.
         13    1    4    4    0    0  0.14199541005E+01  0.63798215542E+00  0.10683665222E+02  0.10796991176E+02  0.10500000000E+00 0.  1.
    3000001    1    5    5    0    0 -0.34008789202E+01 -0.10682536600E+02 -0.47145188289E+02  0.48470107741E+02  0.10000000000E+01 0. -1.
        -13    1    6    6    0    0 -0.16125389617E+01  0.13534693260E+01 -0.89162864051E+01  0.91620603239E+01  0.10500000000E+00 0.  1.
         13    1    6    6    0    0 -0.77364257877E+00  0.70477300873E+00 -0.47528454339E+01  0.48678324285E+01  0.10500000000E+00 0. -1.
</event>
<event>
11    0  0.3476221E-009  0.9118800E+02  0.7816531E-02  0.1126479E+00
         25   -1    0    0    0    0  0.00000000000E+00  0.00000000000E+00  0.99999998245E-14  0.12500000000E+03  0.12500000000E+03 0.  0.
    3000001    1    3    3    0    0 -0.43045581410E+02  0.33333041915E+02 -0.27535865106E+02  0.61018338468E+02  0.10000000000E+01 0.  1.
    1000022    2    1    0    0    0 -0.43415286117E+02  0.34600128138E+02 -0.26910859959E+02  0.62500001614E+02  0.99999941128E+01 0.  0.
    3000022    2    3    3    0    0 -0.36970470749E+00  0.12670862225E+01  0.62500514707E+00  0.14816631465E+01  0.25001035919E+00 0.  0.
    1000022    2    1    0    0    0  0.43415286117E+02 -0.34600128138E+02  0.26910859959E+02  0.62499998386E+02  0.99999739320E+01 0.  0.
    3000022    2    5    5    0    0  0.51465557807E+01 -0.73819214943E+00  0.14680624243E+01  0.54082969144E+01  0.25000835933E+00 0.  0.
        -13    1    4    4    0    0 -0.17382719435E+00  0.55218016565E+00  0.34706909801E+00  0.68308183084E+00  0.10500000000E+00 0. -1.
         13    1    4    4    0    0 -0.19587751314E+00  0.71490605689E+00  0.27793604907E+00  0.79858131565E+00  0.10500000000E+00 0.  1.
    3000001    1    5    5    0    0  0.38268730337E+02 -0.33861935989E+02  0.25442797535E+02  0.57091701471E+02  0.10000000000E+01 0.  1.
        -13    1    6    6    0    0  0.12210501230E+01 -0.19203738155E+00  0.35569471930E+00  0.12904981566E+01  0.10500000000E+00 0.  1.
         13    1    6    6    0    0  0.39255056576E+01 -0.54615476788E+00  0.11123677050E+01  0.41177987578E+01  0.10500000000E+00 0. -1.
</event>
<event>
11    0  0.3476221E-009  0.9118800E+02  0.7816531E-02  0.1126479E+00
         25   -1    0    0    0    0  0.00000000000E+00  0.00000000000E+00  0.99999998245E-14  0.12500000000E+03  0.12500000000E+03 0.  0.
    3000001    1    3    3    0    0 -0.95790046348E+01  0.56522776548E+02 -0.15076357748E+02  0.59286407898E+02  0.10000000000E+01 0. -1.
    1000022    2    1    0    0    0 -0.10622117263E+02  0.58162040583E+02 -0.17623785649E+02  0.62499998378E+02  0.99999818352E+01 0.  0.
    3000022    2    3    3    0    0 -0.10431126277E+01  0.16392640350E+01 -0.25474279017E+01  0.32135904801E+01  0.25000865764E+00 0.  0.
    1000022    2    1    0    0    0  0.10622117263E+02 -0.58162040583E+02  0.17623785649E+02  0.62500001622E+02  0.10000002111E+02 0.  0.
    3000022    2    5    5    0    0  0.24116647720E+01 -0.19809014589E+02  0.12819364531E+01  0.19997976163E+02  0.25000714243E+00 0.  0.
        -13    1    4    4    0    0 -0.23833871131E+00  0.37279967026E+00 -0.60205277680E+00  0.75450479223E+00  0.10500000000E+00 0.  1.
         13    1    4    4    0    0 -0.80477391643E+00  0.12664643647E+01 -0.19453751249E+01  0.24590856879E+01  0.10500000000E+00 0. -1.
    3000001    1    5    5    0    0  0.82104524905E+01 -0.38353025994E+02  0.16341849196E+02  0.42502025459E+02  0.10000000000E+01 0. -1.
        -13    1    6    6    0    0  0.14916886883E+01 -0.12027995628E+02  0.83477122558E+00  0.12149307880E+02  0.10500000000E+00 0.  1.
         13    1    6    6    0    0  0.91997608370E+00 -0.77810189617E+01  0.44716522750E+00  0.78486682831E+01  0.10500000000E+00 0. -1.
</event>
<event>
11    0  0.3476221E-009  0.9118800E+02  0.7816531E-02  0.1126479E+00
         25   -1    0    0    0    0  0.00000000000E+00  0.00000000000E+00  0.99999998245E-14  0.12500000000E+03  0.12500000000E+03 0.  0.
    3000001    1    3    3    0    0  0.21849677541E+00 -0.13642530547E+02 -0.45984048195E+01  0.14433007568E+02  0.10000000000E+01 0.  1.
    1000022    2    1    0    0    0  0.18298208533E+02 -0.55060535741E+02 -0.20970523580E+02  0.62500001712E+02  0.10000016161E+02 0.  0.
    3000022    2    3    3    0    0  0.18079711758E+02 -0.41418005194E+02 -0.16372118761E+02  0.48066994145E+02  0.25004380190E+00 0.  0.
    1000022    2    1    0    0    0 -0.18298208533E+02  0.55060535741E+02  0.20970523580E+02  0.62499998288E+02  0.99999947605E+01 0.  0.
    3000022    2    5    5    0    0 -0.23821687985E+01  0.22215758823E+02  0.71583155207E+01  0.23463133877E+02  0.25000389267E+00 0.  0.
        -13    1    4    4    0    0  0.87652963077E+01 -0.20249163996E+02 -0.79890606089E+01  0.23466895327E+02  0.10500000000E+00 0.  1.
         13    1    4    4    0    0  0.93144154498E+01 -0.21168841198E+02 -0.83830581519E+01  0.24600098817E+02  0.10500000000E+00 0. -1.
    3000001    1    5    5    0    0 -0.15916039734E+02  0.32844776917E+02  0.13812208060E+02  0.39036864411E+02  0.10000000000E+01 0. -1.
        -13    1    6    6    0    0 -0.16183185667E+01  0.15339568553E+02  0.48990770564E+01  0.16184353536E+02  0.10500000000E+00 0. -1.
         13    1    6    6    0    0 -0.76385023185E+00  0.68761902706E+01  0.22592384642E+01  0.72787803410E+01  0.10500000000E+00 0. -1.
</event>
<event>
11    0  0.3476221E-009  0.9118800E+02  0.7816531E-02  0.1126479E+00
         25   -1    0    0    0    0  0.00000000000E+00  0.00000000000E+00  0.99999998245E-14  0.12500000000E+03  0.12500000000E+03 0.  0.
    3000001    1    3    3    0    0 -0.44111263858E+02  0.98612579698E+01  0.40818193889E+02  0.60911189122E+02  0.10000000000E+01 0. -1.
    1000022    2    1    0    0    0 -0.43737420803E+02  0.10332495246E+02  0.42267335153E+02  0.62500000248E+02  0.99999986756E+01 0.  0.
    3000022    2    3    3    0    0  0.37384305514E+00  0.47123727621E+00  0.14491412637E+01  0.15888111253E+01  0.24997437750E+00 0.  0.
    1000022    2    1    0    0    0  0.43737420803E+02 -0.10332495246E+02 -0.42267335153E+02  0.62499999752E+02  0.99999955812E+01 0.  0.
    3000022    2    5    5    0    0  0.36541387870E+02 -0.52258182460E+01 -0.36492415073E+02  0.51907042569E+02  0.25001325200E+00 0.  0.
        -13    1    4    4    0    0  0.15758736054E+00  0.22411776303E+00  0.82737129164E+00  0.87785579803E+00  0.10500000000E+00 0. -1.
         13    1    4    4    0    0  0.21625569460E+00  0.24711951318E+00  0.62176997208E+00  0.71095532730E+00  0.10500000000E+00 0.  1.
    3000001    1    5    5    0    0  0.71960329330E+01 -0.51066770000E+01 -0.57749200798E+01  0.10592957183E+02  0.10000000000E+01 0.  1.
        -13    1    6    6    0    0  0.18768687365E+02 -0.26722711552E+01 -0.18835678984E+02  0.26724492256E+02  0.10500000000E+00 0. -1.
         13    1    6    6    0    0  0.17772700505E+02 -0.25535470908E+01 -0.17656736089E+02  0.25182550314E+02  0.10500000000E+00 0.  1.
</event>
<event>
11    0  0.3476221E-009  0.9118800E+02  0.7816531E-02  0.1126479E+00
         25   -1    0    0    0    0  0.00000000000E+00  0.00000000000E+00  0.99999998245E-14  0.12500000000E+03  0.12500000000E+03 0.  0.
    3000001    1    3    3    0    0 -0.16118038388E+02 -0.55683518735E+02 -0.19323743713E+02  0.61113439531E+02  0.10000000000E+01 0.  1.
    1000022    2    1    0    0    0 -0.15689911802E+02 -0.56005574618E+02 -0.20577953238E+02  0.62500000412E+02  0.10000008571E+02 0.  0.
    3000022    2    3    3    0    0  0.42812658680E+00 -0.32205588260E+00 -0.12542095245E+01  0.13865608809E+01  0.24999435821E+00 0.  0.
    1000022    2    1    0    0    0  0.15689911802E+02  0.56005574618E+02  0.20577953238E+02  0.62499999588E+02  0.10000003422E+02 0.  0.
    3000022    2    5    5    0    0  0.24578711763E+01  0.23726396749E+02  0.54920208404E+01  0.24478721607E+02  0.24997041300E+00 0.  0.
        -13    1    4    4    0    0  0.28673361498E+00 -0.21815411337E+00 -0.93468433311E+00  0.10072076180E+01  0.10500000000E+00 0. -1.
         13    1    4    4    0    0  0.14139297182E+00 -0.10390176923E+00 -0.31952519139E+00  0.37935326288E+00  0.10500000000E+00 0.  1.
    3000001    1    5    5    0    0  0.13232040625E+02  0.32279177869E+02  0.15085932398E+02  0.38021277981E+02  0.10000000000E+01 0.  1.
        -13    1    6    6    0    0  0.12976442115E+01  0.12630363377E+02  0.28551179826E+01  0.13014326077E+02  0.10500000000E+00 0.  1.
         13    1    6    6    0    0  0.11602269648E+01  0.11096033371E+02  0.26369028578E+01  0.11464395530E+02  0.10500000000E+00 0. -1.
</event>
<event>
11    0  0.3476221E-009  0.9118800E+02  0.7816531E-02  0.1126479E+00
         25   -1    0    0    0    0  0.00000000000E+00  0.00000000000E+00  0.99999998245E-14  0.12500000000E+03  0.12500000000E+03 0.  0.
    3000001    1    3    3    0    0 -0.48664669835E+02 -0.35964979281E+02  0.78332116263E+01  0.61025314658E+02  0.10000000000E+01 0. -1.
    1000022    2    1    0    0    0 -0.49916175885E+02 -0.35528105801E+02  0.72373345275E+01  0.62500000045E+02  0.10000003890E+02 0.  0.
    3000022    2    3    3    0    0 -0.12515060498E+01  0.43687347987E+00 -0.59587709874E+00  0.14746853863E+01  0.25000328337E+00 0.  0.
    1000022    2    1    0    0    0  0.49916175885E+02  0.35528105801E+02 -0.72373345275E+01  0.62499999955E+02  0.10000003330E+02 0.  0.
    3000022    2    5    5    0    0  0.92009969215E+01  0.87802199822E+01  0.20861328672E+01  0.12890502497E+02  0.24999401812E+00 0.  0.
        -13    1    4    4    0    0 -0.96475341508E+00  0.34084678031E+00 -0.46656140104E+00  0.11294380109E+01  0.10500000000E+00 0.  1.
         13    1    4    4    0    0 -0.28675263474E+00  0.96026699558E-01 -0.12931569770E+00  0.34524737541E+00  0.10500000000E+00 0. -1.
    3000001    1    5    5    0    0  0.40715178963E+02  0.26747885819E+02 -0.93234673947E+01  0.49609497458E+02  0.10000000000E+01 0. -1.
        -13    1    6    6    0    0  0.22320092908E+01  0.21485258115E+01  0.52624688515E+00  0.31441993291E+01  0.10500000000E+00 0.  1.
         13    1    6    6    0    0  0.69689876307E+01  0.66316941706E+01  0.15598859820E+01  0.97463031682E+01  0.10500000000E+00 0. -1.
</event>
<event>
11    0  0.3476221E-009  0.9118800E+02  0.7816531E-02  0.1126479E+00
         25   -1    0    0    0    0  0.00000000000E+00  0.00000000000E+00  0.99999998245E-14  0.12500000000E+03  0.12500000000E+03 0.  0.
    3000001    1    3    3    0    0  0.26323564082E+00  0.35630916787E+01  0.53586014525E+01  0.65176318430E+01  0.10000000000E+01 0.  1.
    1000022    2    1    0    0    0 -0.22094913560E+02  0.41106239630E+02  0.40352720358E+02  0.62500000971E+02  0.99999969655E+01 0.  0.
    3000022    2    3    3    0    0 -0.22358149201E+02  0.37543147951E+02  0.34994118906E+02  0.55982369128E+02  0.25000282615E+00 0.  0.
    1000022    2    1    0    0    0  0.22094913560E+02 -0.41106239630E+02 -0.40352720358E+02  0.62499999029E+02  0.99999848278E+01 0.  0.
    3000022    2    5    5    0    0  0.43264660527E+01 -0.23692928756E+01 -0.58594140215E+01  0.76633602487E+01  0.25000077837E+00 0.  0.
        -13    1    4    4    0    0 -0.10820235514E+02  0.18157705435E+02  0.17014070974E+02  0.27134284574E+02  0.10500000000E+00 0.  1.
         13    1    4    4    0    0 -0.11537913687E+02  0.19385442516E+02  0.17980047932E+02  0.28848084554E+02  0.10500000000E+00 0. -1.
    3000001    1    5    5    0    0  0.17768447507E+02 -0.38736946755E+02 -0.34493306337E+02  0.54836638780E+02  0.10000000000E+01 0. -1.
        -13    1    6    6    0    0  0.12445560851E+01 -0.63953332368E+00 -0.16926252569E+01  0.21986195626E+01  0.10500000000E+00 0.  1.
         13    1    6    6    0    0  0.30819099676E+01 -0.17297595519E+01 -0.41667887647E+01  0.54647406860E+01  0.10500000000E+00 0. -1.
</event>
<event>
11    0  0.3476221E-009  0.9118800E+02  0.7816531E-02  0.1126479E+00
         25   -1    0    0    0    0  0.00000000000E+00  0.00000000000E+00  0.99999998245E-14  0.12500000000E+03  0.12500000000E+03 0.  0.
    3000001    1    3    3    0    0  0.10580430480E+01  0.14582261795E+00  0.12564441017E+02  0.12649343753E+02  0.10000000000E+01 0.  1.
    1000022    2    1    0    0    0  0.99239903381E+01  0.19005953237E+02  0.57849271061E+02  0.62499999466E+02  0.99999964134E+01 0.  0.
    3000022    2    3    3    0    0  0.88659472901E+01  0.18860130619E+02  0.45284830045E+02  0.49850655713E+02  0.24998902211E+00 0.  0.
    1000022    2    1    0    0    0 -0.99239903381E+01 -0.19005953237E+02 -0.57849271061E+02  0.62500000534E+02  0.10000003086E+02 0.  0.
    3000022    2    5    5    0    0 -0.60643109893E+00 -0.75059380442E+01 -0.30163637923E+02  0.31090423302E+02  0.25000748175E+00 0.  0.
        -13    1    4    4    0    0  0.61359118169E+01  0.13156850606E+02  0.31579527420E+02  0.34756721778E+02  0.10500000000E+00 0.  1.
         13    1    4    4    0    0  0.27300354733E+01  0.57032800138E+01  0.13705302624E+02  0.15093933935E+02  0.10500000000E+00 0. -1.
    3000001    1    5    5    0    0 -0.93175592392E+01 -0.11500015193E+02 -0.27685633138E+02  0.31409577232E+02  0.10000000000E+01 0.  1.
        -13    1    6    6    0    0 -0.19258181511E+00 -0.22857723944E+01 -0.90031591932E+01  0.92913800726E+01  0.10500000000E+00 0.  1.
         13    1    6    6    0    0 -0.41384928382E+00 -0.52201656498E+01 -0.21160478730E+02  0.21799043229E+02  0.10500000000E+00 0. -1.
</event>
<event>
11    0  0.3476221E-009  0.9118800E+02  0.7816531E-02  0.1126479E+00
         25   -1    0    0    0    0  0.00000000000E+00  0.00000000000E+00  0.99999998245E-14  0.12500000000E+03  0.12500000000E+03 0.  0.
    3000001    1    3    3    0    0  0.44539448354E+00  0.24172557563E+02  0.14448795899E+02  0.28182949070E+02  0.10000000000E+01 0.  1.
    1000022    2    1    0    0    0  0.55001221525E+01  0.47063701775E+02  0.39509574207E+02  0.62499998220E+02  0.99999977472E+01 0.  0.
    3000022    2    3    3    0    0  0.50547276690E+01  0.22891144213E+02  0.25060778308E+02  0.34317049149E+02  0.24999549288E+00 0.  0.
    1000022    2    1    0    0    0 -0.55001221525E+01 -0.47063701775E+02 -0.39509574207E+02  0.62500001780E+02  0.10000020000E+02 0.  0.
    3000022    2    5    5    0    0 -0.59042701798E+01 -0.12760739107E+02 -0.10274268751E+02  0.17416083710E+02  0.25000902397E+00 0.  0.
        -13    1    4    4    0    0  0.15936895632E+01  0.73885898376E+01  0.80286197313E+01  0.11027278268E+02  0.10500000000E+00 0. -1.
         13    1    4    4    0    0  0.34610381058E+01  0.15502554375E+02  0.17032158577E+02  0.23289770881E+02  0.10500000000E+00 0.  1.
    3000001    1    5    5    0    0  0.40414802731E+00 -0.34302962668E+02 -0.29235305456E+02  0.45083918070E+02  0.10000000000E+01 0.  1.
        -13    1    6    6    0    0 -0.36789646275E+01 -0.78045607435E+01 -0.63047980532E+01  0.10686788695E+02  0.10500000000E+00 0.  1.
         13    1    6    6    0    0 -0.22253055523E+01 -0.49561783637E+01 -0.39694706980E+01  0.67292950148E+01  0.10500000000E+00 0. -1.
</event>
<event>
11    0  0.3476221E-009  0.9118800E+02  0.7816531E-02  0.1126479E+00
         25   -1    0    0    0    0  0.00000000000E+00  0.00000000000E+00  0.99999998245E-14  0.12500000000E+03  0.12500000000E+03 0.  0.
    3000001    1    3    3    0    0  0.83065617389E+01 -0.15392293960E+02 -0.13550348516E+02  0.22147993728E+02  0.10000000000E+01 0.  1.
    1000022    2    1    0    0    0  0.21864632212E+02 -0.33516497508E+02 -0.46955643163E+02  0.62499997832E+02  0.99999778617E+01 0.  0.
    3000022    2    3    3    0    0  0.13558070473E+02 -0.18124203548E+02 -0.33405294647E+02  0.40352004104E+02  0.24999117268E+00 0.  0.
    1000022    2    1    0    0    0 -0.21864632212E+02  0.33516497508E+02  0.46955643163E+02  0.62500002168E+02  0.10000004956E+02 0.  0.
    3000022    2    5    5    0    0 -0.79784529546E+01  0.59657583909E+01  0.78908557038E+01  0.12711179933E+02  0.25001364881E+00 0.  0.
        -13    1    4    4    0    0  0.70625682849E+01 -0.93972604945E+01 -0.17238202931E+02  0.20865163332E+02  0.10500000000E+00 0. -1.
         13    1    4    4    0    0  0.64955021886E+01 -0.87269430531E+01 -0.16167091716E+02  0.19486840772E+02  0.10500000000E+00 0.  1.
    3000001    1    5    5    0    0 -0.13886179258E+02  0.27550739117E+02  0.39064787459E+02  0.49788822235E+02  0.10000000000E+01 0.  1.
        -13    1    6    6    0    0 -0.24153001673E+01  0.17596699329E+01  0.23334602543E+01  0.37929111418E+01  0.10500000000E+00 0.  1.
         13    1    6    6    0    0 -0.55631527873E+01  0.42060884580E+01  0.55573954494E+01  0.89182687912E+01  0.10500000000E+00 0. -1.
</event>
<event>
11    0  0.3476221E-009  0.9118800E+02  0.7816531E-02  0.1126479E+00
         25   -1    0    0    0    0  0.00000000000E+00  0.00000000000E+00  0.99999998245E-14  0.12500000000E+03  0.12500000000E+03 0.  0.
    3000001    1    3    3    0    0 -0.29513817098E+02  0.28111726850E+01 -0.20225576619E+02  0.35903231625E+02  0.10000000000E+01 0. -1.
    1000022    2    1    0    0    0 -0.49049078231E+02 -0.30366100191E+01 -0.37299022167E+02  0.62499998905E+02  0.99999866384E+01 0.  0.
    3000022    2    3    3    0    0 -0.19535261133E+02 -0.58477827041E+01 -0.17073445548E+02  0.26596767279E+02  0.24999351732E+00 0.  0.
    1000022    2    1    0    0    0  0.49049078231E+02  0.30366100191E+01  0.37299022167E+02  0.62500001095E+02  0.10000000328E+02 0.  0.
    3000022    2    5    5    0    0  0.46949535713E+02  0.26117024969E+01  0.37475365716E+02  0.60129405761E+02  0.25001617619E+00 0.  0.
        -13    1    4    4    0    0 -0.67370766860E+01 -0.20070382458E+01 -0.58146372019E+01  0.91234552437E+01  0.10500000000E+00 0.  1.
         13    1    4    4    0    0 -0.12798184447E+02 -0.38407444583E+01 -0.11258808346E+02  0.17473312036E+02  0.10500000000E+00 0. -1.
    3000001    1    5    5    0    0  0.20995425185E+01  0.42490752226E+00 -0.17634354920E+00  0.23705953338E+01  0.10000000000E+01 0. -1.
        -13    1    6    6    0    0  0.23975621952E+02  0.13414408758E+01  0.19051681928E+02  0.30653018137E+02  0.10500000000E+00 0. -1.
         13    1    6    6    0    0  0.22973913760E+02  0.12702616211E+01  0.18423683788E+02  0.29476387624E+02  0.10500000000E+00 0.  1.
</event>
<event>
11    0  0.3476221E-009  0.9118800E+02  0.7816531E-02  0.1126479E+00
         25   -1    0    0    0    0  0.00000000000E+00  0.00000000000E+00  0.99999998245E-14  0.12500000000E+03  0.12500000000E+03 0.  0.
    3000001    1    3    3    0    0 -0.31880471823E+02 -0.15943668988E+02 -0.17122650739E+02  0.39556923954E+02  0.10000000000E+01 0.  1.
    1000022    2    1    0    0    0 -0.52743409525E+02 -0.18051832226E+02 -0.26429410092E+02  0.62500001148E+02  0.10000026533E+02 0.  0.
    3000022    2    3    3    0    0 -0.20862937703E+02 -0.21081632378E+01 -0.93067593532E+01  0.22943077194E+02  0.24999925526E+00 0.  0.
    1000022    2    1    0    0    0  0.52743409525E+02  0.18051832226E+02  0.26429410092E+02  0.62499998852E+02  0.10000012182E+02 0.  0.
    3000022    2    5    5    0    0  0.28630947793E+02  0.53560097356E+01  0.16514635793E+02  0.33484529377E+02  0.25000075213E+00 0.  0.
        -13    1    4    4    0    0 -0.11921263354E+02 -0.11478738930E+01 -0.53515529705E+01  0.13118089747E+02  0.10500000000E+00 0. -1.
         13    1    4    4    0    0 -0.89416743489E+01 -0.96028934472E+00 -0.39552063827E+01  0.98249874462E+01  0.10500000000E+00 0.  1.
    3000001    1    5    5    0    0  0.24112461732E+02  0.12695822490E+02  0.99147742988E+01  0.29015469475E+02  0.10000000000E+01 0. -1.
        -13    1    6    6    0    0  0.15128797623E+02  0.28728293662E+01  0.86701568763E+01  0.17672473267E+02  0.10500000000E+00 0.  1.
         13    1    6    6    0    0  0.13502150170E+02  0.24831803694E+01  0.78444789168E+01  0.15812056110E+02  0.10500000000E+00 0. -1.
</event>
<event>
11    0  0.3476221E-009  0.9118800E+02  0.7816531E-02  0.1126479E+00
         25   -1    0    0    0    0  0.00000000000E+00  0.00000000000E+00  0.99999998245E-14  0.12500000000E+03  0.12500000000E+03 0.  0.
    3000001    1    3    3    0    0  0.10774205062E+02  0.19563007138E+02  0.21509415562E+02  0.31023373460E+02  0.10000000000E+01 0.  1.
    1000022    2    1    0    0    0  0.17885947121E+02  0.32437046138E+02  0.49337418573E+02  0.62500000039E+02  0.10000003342E+02 0.  0.
    3000022    2    3    3    0    0  0.71117420593E+01  0.12874039000E+02  0.27828003011E+02  0.31476626579E+02  0.25002786891E+00 0.  0.
    1000022    2    1    0    0    0 -0.17885947121E+02 -0.32437046138E+02 -0.49337418573E+02  0.62499999961E+02  0.10000002857E+02 0.  0.
    3000022    2    5    5    0    0 -0.99722595806E+01 -0.91164186969E+01 -0.14447611406E+02  0.19782594154E+02  0.25001026886E+00 0.  0.
        -13    1    4    4    0    0  0.50711490730E+01  0.91573343803E+01  0.19891651188E+02  0.22478036788E+02  0.10500000000E+00 0.  1.
         13    1    4    4    0    0  0.20405929862E+01  0.37167046192E+01  0.79363518234E+01  0.89985897910E+01  0.10500000000E+00 0. -1.
    3000001    1    5    5    0    0 -0.79136875405E+01 -0.23320627441E+02 -0.34889807167E+02  0.42717405807E+02  0.10000000000E+01 0. -1.
        -13    1    6    6    0    0 -0.62855734595E+01 -0.58231738099E+01 -0.91841761618E+01  0.12560967467E+02  0.10500000000E+00 0.  1.
         13    1    6    6    0    0 -0.36866861211E+01 -0.32932448870E+01 -0.52634352440E+01  0.72216266872E+01  0.10500000000E+00 0. -1.
</event>
<event>
11    0  0.3476221E-009  0.9118800E+02  0.7816531E-02  0.1126479E+00
         25   -1    0    0    0    0  0.00000000000E+00  0.00000000000E+00  0.99999998245E-14  0.12500000000E+03  0.12500000000E+03 0.  0.
    3000001    1    3    3    0    0 -0.18682160013E+01 -0.25070505402E+00  0.94867615039E+00  0.23351810401E+01  0.10000000000E+01 0.  1.
    1000022    2    1    0    0    0 -0.25777177134E+02  0.15294228445E+02  0.53924704228E+02  0.62499999777E+02  0.99999980671E+01 0.  0.
    3000022    2    3    3    0    0 -0.23908961133E+02  0.15544933499E+02  0.52976028078E+02  0.60164818737E+02  0.24996570405E+00 0.  0.
    1000022    2    1    0    0    0  0.25777177134E+02 -0.15294228445E+02 -0.53924704228E+02  0.62500000223E+02  0.10000000851E+02 0.  0.
    3000022    2    5    5    0    0  0.20438411565E+02 -0.77345164848E+01 -0.32783260091E+02  0.39399949943E+02  0.25000151335E+00 0.  0.
        -13    1    4    4    0    0 -0.14280024909E+02  0.93224534653E+01  0.31794072320E+02  0.36079097961E+02  0.10500000000E+00 0. -1.
         13    1    4    4    0    0 -0.96289362242E+01  0.62224800337E+01  0.21181955758E+02  0.24085720776E+02  0.10500000000E+00 0.  1.
    3000001    1    5    5    0    0  0.53387655689E+01 -0.75597119602E+01 -0.21141444137E+02  0.23100050280E+02  0.10000000000E+01 0.  1.
        -13    1    6    6    0    0  0.13673426587E+02 -0.51361291844E+01 -0.21840294474E+02  0.26274548623E+02  0.10500000000E+00 0.  1.
         13    1    6    6    0    0  0.67649849782E+01 -0.25983873004E+01 -0.10942965616E+02  0.13125401319E+02  0.10500000000E+00 0. -1.
</event>
<event>
11    0  0.3476221E-009  0.9118800E+02  0.7816531E-02  0.1126479E+00
         25   -1    0    0    0    0  0.00000000000E+00  0.00000000000E+00  0.99999998245E-14  0.12500000000E+03  0.12500000000E+03 0.  0.
    3000001    1    3    3    0    0  0.85421134013E+00  0.26118165404E+02  0.50216433431E+02  0.56617827825E+02  0.10000000000E+01 0. -1.
    1000022    2    1    0    0    0  0.25450673480E+00  0.25774110605E+02  0.56052479778E+02  0.62500000122E+02  0.99999987436E+01 0.  0.
    3000022    2    3    3    0    0 -0.59970460533E+00 -0.34405479904E+00  0.58360463470E+01  0.58821722974E+01  0.24998930643E+00 0.  0.
    1000022    2    1    0    0    0 -0.25450673480E+00 -0.25774110605E+02 -0.56052479778E+02  0.62499999878E+02  0.99999972200E+01 0.  0.
    3000022    2    5    5    0    0 -0.94834170232E+00 -0.26173997624E+02 -0.54637404457E+02  0.60591137716E+02  0.25000064257E+00 0.  0.
        -13    1    4    4    0    0 -0.39696862170E+00 -0.27086603836E+00  0.41843358525E+01  0.42131513174E+01  0.10500000000E+00 0. -1.
         13    1    4    4    0    0 -0.20273598364E+00 -0.73188760681E-01  0.16517104945E+01  0.16690209799E+01  0.10500000000E+00 0.  1.
    3000001    1    5    5    0    0  0.69383496752E+00  0.39988701948E+00 -0.14150753208E+01  0.19088621622E+01  0.10000000000E+01 0. -1.
        -13    1    6    6    0    0 -0.56513983461E+00 -0.13740902570E+02 -0.28703398398E+02  0.31828099081E+02  0.10500000000E+00 0.  1.
         13    1    6    6    0    0 -0.38320186771E+00 -0.12433095054E+02 -0.25934006058E+02  0.28763038635E+02  0.10500000000E+00 0. -1.
</event>
<event>
11    0  0.3476221E-009  0.9118800E+02  0.7816531E-02  0.1126479E+00
         25   -1    0    0    0    0  0.00000000000E+00  0.00000000000E+00  0.99999998245E-14  0.12500000000E+03  0.12500000000E+03 0.  0.
    3000001    1    3    3    0    0 -0.37839365995E+01  0.14344310699E+01 -0.13912829663E+01  0.43944780094E+01  0.10000000000E+01 0. -1.
    1000022    2    1    0    0    0 -0.33838519058E+02  0.21577441108E+02 -0.46857429025E+02  0.62500000255E+02  0.10000002009E+02 0.  0.
    3000022    2    3    3    0    0 -0.30054582459E+02  0.20143010038E+02 -0.45466146059E+02  0.58105522245E+02  0.24999557834E+00 0.  0.
    1000022    2    1    0    0    0  0.33838519058E+02 -0.21577441108E+02  0.46857429025E+02  0.62499999745E+02  0.99999988252E+01 0.  0.
    3000022    2    5    5    0    0  0.16382106717E+02 -0.57956362293E+01  0.24394898724E+02  0.29952235389E+02  0.25000252959E+00 0.  0.
        -13    1    4    4    0    0 -0.13961309899E+02  0.93139216035E+01 -0.21181679610E+02  0.27024838313E+02  0.10500000000E+00 0. -1.
         13    1    4    4    0    0 -0.16093272560E+02  0.10829088434E+02 -0.24284466449E+02  0.31080683933E+02  0.10500000000E+00 0.  1.
    3000001    1    5    5    0    0  0.17456412342E+02 -0.15781804879E+02  0.22462530301E+02  0.32547764356E+02  0.10000000000E+01 0.  1.
        -13    1    6    6    0    0  0.80377376940E+01 -0.29093984813E+01  0.11952934597E+02  0.14695356316E+02  0.10500000000E+00 0.  1.
         13    1    6    6    0    0  0.83443690227E+01 -0.28862377480E+01  0.12441964127E+02  0.15256879073E+02  0.10500000000E+00 0. -1.
</event>
<event>
11    0  0.3476221E-009  0.9118800E+02  0.7816531E-02  0.1126479E+00
         25   -1    0    0    0    0  0.00000000000E+00  0.00000000000E+00  0.99999998245E-14  0.12500000000E+03  0.12500000000E+03 0.  0.
    3000001    1    3    3    0    0 -0.59509044215E+01  0.23139759649E+02  0.36316628920E+02  0.43482861867E+02  0.10000000000E+01 0.  1.
    1000022    2    1    0    0    0 -0.24276448520E+01  0.31142324917E+02  0.53202558406E+02  0.62499999636E+02  0.99999936429E+01 0.  0.
    3000022    2    3    3    0    0  0.35232595695E+01  0.80025652679E+01  0.16885929486E+02  0.19017137769E+02  0.25001093702E+00 0.  0.
    1000022    2    1    0    0    0  0.24276448520E+01 -0.31142324917E+02 -0.53202558406E+02  0.62500000364E+02  0.99999981900E+01 0.  0.
    3000022    2    5    5    0    0 -0.10762408983E+01 -0.27796649344E+02 -0.44127596105E+02  0.52164348418E+02  0.24999724965E+00 0.  0.
        -13    1    4    4    0    0  0.12467879632E+01  0.29599868652E+01  0.61408018892E+01  0.69308351091E+01  0.10500000000E+00 0.  1.
         13    1    4    4    0    0  0.22764716063E+01  0.50425784027E+01  0.10745127597E+02  0.12086302660E+02  0.10500000000E+00 0. -1.
    3000001    1    5    5    0    0  0.35038857503E+01 -0.33456755733E+01 -0.90749623005E+01  0.10335651946E+02  0.10000000000E+01 0. -1.
        -13    1    6    6    0    0 -0.65592850666E+00 -0.15269525067E+02 -0.24274917715E+02  0.28685733266E+02  0.10500000000E+00 0. -1.
         13    1    6    6    0    0 -0.42031239164E+00 -0.12527124277E+02 -0.19852678390E+02  0.23478615151E+02  0.10500000000E+00 0.  1.
</event>
<event>
11    0  0.3476221E-009  0.9118800E+02  0.7816531E-02  0.1126479E+00
         25   -1    0    0    0    0  0.00000000000E+00  0.00000000000E+00  0.99999998245E-14  0.12500000000E+03  0.12500000000E+03 0.  0.
    3000001    1    3    3    0    0 -0.14505363369E+02  0.23070897652E+02  0.44353340250E+02  0.52066214346E+02  0.10000000000E+01 0.  1.
    1000022    2    1    0    0    0 -0.19069149894E+02  0.30433813722E+02  0.50163734846E+02  0.62499999312E+02  0.10000006252E+02 0.  0.
    3000022    2    3    3    0    0 -0.45637865253E+01  0.73629160700E+01  0.58103945953E+01  0.10433784967E+02  0.25000574812E+00 0.  0.
    1000022    2    1    0    0    0  0.19069149894E+02 -0.30433813722E+02 -0.50163734846E+02  0.62500000688E+02  0.10000014849E+02 0.  0.
    3000022    2    5    5    0    0  0.97881743155E+01 -0.96613595887E+01 -0.25195539460E+02  0.28705886715E+02  0.24999574461E+00 0.  0.
        -13    1    4    4    0    0 -0.21756173883E+01  0.35695844927E+01  0.27317458523E+01  0.49948678533E+01  0.10500000000E+00 0. -1.
         13    1    4    4    0    0 -0.23881691371E+01  0.37933315773E+01  0.30786487430E+01  0.54389171133E+01  0.10500000000E+00 0.  1.
    3000001    1    5    5    0    0  0.92809755787E+01 -0.20772454133E+02 -0.24968195385E+02  0.33794113973E+02  0.10000000000E+01 0.  1.
        -13    1    6    6    0    0  0.54651162574E+01 -0.53012780903E+01 -0.13934933136E+02  0.15879686130E+02  0.10500000000E+00 0.  1.
         13    1    6    6    0    0  0.43230580582E+01 -0.43600814985E+01 -0.11260606324E+02  0.12826200585E+02  0.10500000000E+00 0. -1.
</event>
<event>
11    0  0.3476221E-009  0.9118800E+02  0.7816531E-02  0.1126479E+00
         25   -1    0    0    0    0  0.00000000000E+00  0.00000000000E+00  0.99999998245E-14  0.12500000000E+03  0.12500000000E+03 0.  0.
    3000001    1    3    3    0    0  0.55864763485E+01  0.12464273554E+02 -0.46936355217E+01  0.14477466893E+02  0.10000000000E+01 0. -1.
    1000022    2    1    0    0    0  0.29601786247E+02  0.54027294084E+02 -0.33220320694E+01  0.62499998911E+02  0.99999855870E+01 0.  0.
    3000022    2    3    3    0    0  0.24015309899E+02  0.41563020530E+02  0.13716034523E+01  0.48022532018E+02  0.25000060192E+00 0.  0.
    1000022    2    1    0    0    0 -0.29601786247E+02 -0.54027294084E+02  0.33220320694E+01  0.62500001089E+02  0.99999991990E+01 0.  0.
    3000022    2    5    5    0    0 -0.43289230290E+00 -0.60328217082E+00  0.13867095905E+01  0.15927363668E+01  0.25000104452E+00 0.  0.
        -13    1    4    4    0    0  0.18282786733E+02  0.31663143377E+02  0.10590884736E+01  0.36577966491E+02  0.10500000000E+00 0.  1.
         13    1    4    4    0    0  0.57325231661E+01  0.98998771535E+01  0.31251497864E+00  0.11444565528E+02  0.10500000000E+00 0. -1.
    3000001    1    5    5    0    0 -0.29168893944E+02 -0.53424011913E+02  0.19353224789E+01  0.60907264722E+02  0.10000000000E+01 0. -1.
        -13    1    6    6    0    0 -0.18255858702E+00 -0.26760030177E+00  0.74731672608E+00  0.82124591219E+00  0.10500000000E+00 0.  1.
         13    1    6    6    0    0 -0.25033371588E+00 -0.33568186906E+00  0.63939286439E+00  0.77149045461E+00  0.10500000000E+00 0. -1.
</event>
<event>
11    0  0.3476221E-009  0.9118800E+02  0.7816531E-02  0.1126479E+00
         25   -1    0    0    0    0  0.00000000000E+00  0.00000000000E+00  0.99999998245E-14  0.12500000000E+03  0.12500000000E+03 0.  0.
    3000001    1    3    3    0    0 -0.37359136075E+00 -0.38375271323E+01  0.31849460866E+00  0.39959509271E+01  0.10000000000E+01 0.  1.
    1000022    2    1    0    0    0 -0.32241552911E+02 -0.50115706844E+02 -0.15973357274E+02  0.62500000599E+02  0.10000006284E+02 0.  0.
    3000022    2    3    3    0    0 -0.31867961551E+02 -0.46278179712E+02 -0.16291851883E+02  0.58504049672E+02  0.24999889334E+00 0.  0.
    1000022    2    1    0    0    0  0.32241552911E+02  0.50115706844E+02  0.15973357274E+02  0.62499999401E+02  0.99999987937E+01 0.  0.
    3000022    2    5    5    0    0  0.28572241273E+02  0.48393914835E+02  0.14211591124E+02  0.57968748405E+02  0.25000984437E+00 0.  0.
        -13    1    4    4    0    0 -0.24228623569E+02 -0.35182116802E+02 -0.12365857212E+02  0.44471710022E+02  0.10500000000E+00 0. -1.
         13    1    4    4    0    0 -0.76393379819E+01 -0.11096062910E+02 -0.39259946708E+01  0.14032339650E+02  0.10500000000E+00 0.  1.
    3000001    1    5    5    0    0  0.36693116379E+01  0.17217920090E+01  0.17617661502E+01  0.45312509957E+01  0.10000000000E+01 0.  1.
        -13    1    6    6    0    0  0.16078212314E+02  0.27281916937E+02  0.80708059529E+01  0.32679670083E+02  0.10500000000E+00 0.  1.
         13    1    6    6    0    0  0.12494028959E+02  0.21111997898E+02  0.61407851711E+01  0.25289078323E+02  0.10500000000E+00 0. -1.
</event>
<event>
11    0  0.3476221E-009  0.9118800E+02  0.7816531E-02  0.1126479E+00
         25   -1    0    0    0    0  0.00000000000E+00  0.00000000000E+00  0.99999998245E-14  0.12500000000E+03  0.12500000000E+03 0.  0.
    3000001    1    3    3    0    0 -0.77133241061E+00  0.16907666772E+02  0.68961739015E+01  0.18303588824E+02  0.10000000000E+01 0.  1.
    1000022    2    1    0    0    0  0.28491152395E+01  0.50255107593E+02  0.35672912235E+02  0.62499998670E+02  0.99999934789E+01 0.  0.
    3000022    2    3    3    0    0  0.36204476501E+01  0.33347440822E+02  0.28776738334E+02  0.44196409846E+02  0.25004729879E+00 0.  0.
    1000022    2    1    0    0    0 -0.28491152395E+01 -0.50255107593E+02 -0.35672912235E+02  0.62500001330E+02  0.10000010100E+02 0.  0.
    3000022    2    5    5    0    0  0.15578245555E+01 -0.13606144529E+01 -0.63521873851E+00  0.21780936727E+01  0.25000033219E+00 0.  0.
        -13    1    4    4    0    0  0.23424205824E+01  0.21033918192E+02  0.18142091176E+02  0.27875780634E+02  0.10500000000E+00 0.  1.
         13    1    4    4    0    0  0.12780270677E+01  0.12313522629E+02  0.10634647157E+02  0.16320629212E+02  0.10500000000E+00 0. -1.
    3000001    1    5    5    0    0 -0.44069397950E+01 -0.48894493141E+02 -0.35037693497E+02  0.60321907657E+02  0.10000000000E+01 0.  1.
        -13    1    6    6    0    0  0.57159474546E+00 -0.50527279690E+00 -0.17347029931E+00  0.78939096591E+00  0.10500000000E+00 0. -1.
         13    1    6    6    0    0  0.98622981004E+00 -0.85534165599E+00 -0.46174843920E+00  0.13887027068E+01  0.10500000000E+00 0.  1.
</event>
<event>
11    0  0.3476221E-009  0.9118800E+02  0.7816531E-02  0.1126479E+00
         25   -1    0    0    0    0  0.00000000000E+00  0.00000000000E+00  0.99999998245E-14  0.12500000000E+03  0.12500000000E+03 0.  0.
    3000001    1    3    3    0    0 -0.24775381560E+02 -0.10710689191E+02 -0.64544578376E+01  0.27770459492E+02  0.10000000000E+01 0.  1.
    1000022    2    1    0    0    0 -0.55852212057E+02 -0.15336832545E+02 -0.21249988907E+02  0.62499998536E+02  0.99999882162E+01 0.  0.
    3000022    2    3    3    0    0 -0.31076830497E+02 -0.46261433534E+01 -0.14795531069E+02  0.34729539044E+02  0.25009312211E+00 0.  0.
    1000022    2    1    0    0    0  0.55852212057E+02  0.15336832545E+02  0.21249988907E+02  0.62500001464E+02  0.10000006513E+02 0.  0.
    3000022    2    5    5    0    0  0.19122081974E+02  0.28359041604E+01  0.28305557756E+01  0.19538958841E+02  0.24999030623E+00 0.  0.
        -13    1    4    4    0    0 -0.96025710569E+01 -0.14782054809E+01 -0.45788065700E+01  0.10741087326E+02  0.10500000000E+00 0.  1.
         13    1    4    4    0    0 -0.21474259440E+02 -0.31479378725E+01 -0.10216724499E+02  0.23988451718E+02  0.10500000000E+00 0. -1.
    3000001    1    5    5    0    0  0.36730130083E+02  0.12500928384E+02  0.18419433131E+02  0.42961042623E+02  0.10000000000E+01 0. -1.
        -13    1    6    6    0    0  0.13359131971E+02  0.19530194020E+01  0.19395160456E+01  0.13640140736E+02  0.10500000000E+00 0. -1.
         13    1    6    6    0    0  0.57629500036E+01  0.88288475832E+00  0.89103973000E+00  0.58988181054E+01  0.10500000000E+00 0.  1.
</event>
<event>
11    0  0.3476221E-009  0.9118800E+02  0.7816531E-02  0.1126479E+00
         25   -1    0    0    0    0  0.00000000000E+00  0.00000000000E+00  0.99999998245E-14  0.12500000000E+03  0.12500000000E+03 0.  0.
    3000001    1    3    3    0    0 -0.15080868861E+02  0.13515318608E+02 -0.57072700843E+01  0.21063460649E+02  0.10000000000E+01 0.  1.
    1000022    2    1    0    0    0 -0.52041887180E+02  0.28378012169E+02 -0.17104981203E+02  0.62500000619E+02  0.10000004972E+02 0.  0.
    3000022    2    3    3    0    0 -0.36961018319E+02  0.14862693561E+02 -0.11397711119E+02  0.41436539970E+02  0.24998175626E+00 0.  0.
    1000022    2    1    0    0    0  0.52041887180E+02 -0.28378012169E+02  0.17104981203E+02  0.62499999381E+02  0.99999972391E+01 0.  0.
    3000022    2    5    5    0    0  0.46234913222E+02 -0.24729190158E+02  0.11730434121E+02  0.53729560114E+02  0.24999759826E+00 0.  0.
        -13    1    4    4    0    0 -0.15946842243E+02  0.63524356455E+01 -0.49470788809E+01  0.17864485176E+02  0.10500000000E+00 0. -1.
         13    1    4    4    0    0 -0.21014176076E+02  0.85102579154E+01 -0.64506322378E+01  0.23572054794E+02  0.10500000000E+00 0.  1.
    3000001    1    5    5    0    0  0.58069739583E+01 -0.36488220103E+01  0.53745470817E+01  0.87704392677E+01  0.10000000000E+01 0.  1.
        -13    1    6    6    0    0  0.16201680176E+02 -0.86047931481E+01  0.41223614556E+01  0.18802707108E+02  0.10500000000E+00 0. -1.
         13    1    6    6    0    0  0.30033233046E+02 -0.16124397010E+02  0.76080726657E+01  0.34926853005E+02  0.10500000000E+00 0.  1.
</event>
<event>
11    0  0.3476221E-009  0.9118800E+02  0.7816531E-02  0.1126479E+00
         25   -1    0    0    0    0  0.00000000000E+00  0.00000000000E+00  0.99999998245E-14  0.12500000000E+03  0.12500000000E+03 0.  0.
    3000001    1    3    3    0    0 -0.42687178635E+02 -0.91100401917E+01  0.35170236250E+02  0.56063656410E+02  0.10000000000E+01 0. -1.
    1000022    2    1    0    0    0 -0.45454767903E+02 -0.12696458071E+02  0.39735549635E+02  0.62500000259E+02  0.10000007745E+02 0.  0.
    3000022    2    3    3    0    0 -0.27675892678E+01 -0.35864178789E+01  0.45653133853E+01  0.64363438495E+01  0.24998457044E+00 0.  0.
    1000022    2    1    0    0    0  0.45454767903E+02  0.12696458071E+02 -0.39735549635E+02  0.62499999741E+02  0.10000004505E+02 0.  0.
    3000022    2    5    5    0    0  0.19799102440E+02  0.31440403056E+01 -0.22491136070E+02  0.30129771834E+02  0.25000436837E+00 0.  0.
        -13    1    4    4    0    0 -0.95437096952E+00 -0.11904674082E+01  0.14740372041E+01  0.21241109379E+01  0.10500000000E+00 0.  1.
         13    1    4    4    0    0 -0.18132182983E+01 -0.23959504708E+01  0.30912761813E+01  0.43122329117E+01  0.10500000000E+00 0. -1.
    3000001    1    5    5    0    0  0.25655665463E+02  0.95524177649E+01 -0.17244413565E+02  0.32370227907E+02  0.10000000000E+01 0. -1.
        -13    1    6    6    0    0  0.96974597344E+01  0.14902453551E+01 -0.11077555140E+02  0.14798135335E+02  0.10500000000E+00 0.  1.
         13    1    6    6    0    0  0.10101642706E+02  0.16537949506E+01 -0.11413580930E+02  0.15331636499E+02  0.10500000000E+00 0. -1.
</event>
<event>
11    0  0.3476221E-009  0.9118800E+02  0.7816531E-02  0.1126479E+00
         25   -1    0    0    0    0  0.00000000000E+00  0.00000000000E+00  0.99999998245E-14  0.12500000000E+03  0.12500000000E+03 0.  0.
    3000001    1    3    3    0    0 -0.50607844211E+02  0.82878280013E+01 -0.28496731872E+02  0.58676278989E+02  0.10000000000E+01 0. -1.
    1000022    2    1    0    0    0 -0.54291651400E+02  0.90576428510E+01 -0.27868007430E+02  0.62500000769E+02  0.99999976124E+01 0.  0.
    3000022    2    3    3    0    0 -0.36838071896E+01  0.76981484966E+00  0.62872444166E+00  0.38237217802E+01  0.25000703166E+00 0.  0.
    1000022    2    1    0    0    0  0.54291651400E+02 -0.90576428510E+01  0.27868007430E+02  0.62499999231E+02  0.99999879984E+01 0.  0.
    3000022    2    5    5    0    0  0.58880909243E+01 -0.71669503046E+00  0.68526219837E+01  0.90666528754E+01  0.24999962390E+00 0.  0.
        -13    1    4    4    0    0 -0.95768735062E+00  0.16922500085E+00  0.15588479104E+00  0.99051866743E+00  0.10500000000E+00 0. -1.
         13    1    4    4    0    0 -0.27261198390E+01  0.60058984880E+00  0.47283965062E+00  0.28332031128E+01  0.10500000000E+00 0.  1.
    3000001    1    5    5    0    0  0.48403560476E+02 -0.83409478205E+01  0.21015385446E+02  0.53433346355E+02  0.10000000000E+01 0.  1.
        -13    1    6    6    0    0  0.36922123534E+01 -0.41087489768E+00  0.42194485885E+01  0.56228126090E+01  0.10500000000E+00 0.  1.
         13    1    6    6    0    0  0.21958785708E+01 -0.30582013278E+00  0.26331733952E+01  0.34438402664E+01  0.10500000000E+00 0. -1.
</event>
<event>
11    0  0.3476221E-009  0.9118800E+02  0.7816531E-02  0.1126479E+00
         25   -1    0    0    0    0  0.00000000000E+00  0.00000000000E+00  0.99999998245E-14  0.12500000000E+03  0.12500000000E+03 0.  0.
    3000001    1    3    3    0    0 -0.12091416974E+02 -0.62565707284E+00  0.57908955843E+02  0.59169595047E+02  0.10000000000E+01 0.  1.
    1000022    2    1    0    0    0 -0.10760601924E+02 -0.17829291239E+01  0.60722980046E+02  0.62499997165E+02  0.99999974934E+01 0.  0.
    3000022    2    3    3    0    0  0.13308150493E+01 -0.11572720511E+01  0.28140242026E+01  0.33304021171E+01  0.24999750698E+00 0.  0.
    1000022    2    1    0    0    0  0.10760601924E+02  0.17829291239E+01 -0.60722980046E+02  0.62500002835E+02  0.10000032937E+02 0.  0.
    3000022    2    5    5    0    0  0.94175621144E+01 -0.14497211918E+01 -0.28059692299E+02  0.29634456279E+02  0.24999868849E+00 0.  0.
        -13    1    4    4    0    0  0.83187272885E+00 -0.74996612082E+00  0.16755558789E+01  0.20181610250E+01  0.10500000000E+00 0.  1.
         13    1    4    4    0    0  0.49894232043E+00 -0.40730593024E+00  0.11384683237E+01  0.13122410921E+01  0.10500000000E+00 0.  1.
    3000001    1    5    5    0    0  0.13430398099E+01  0.32326503157E+01 -0.32663287747E+02  0.32865546556E+02  0.10000000000E+01 0.  1.
        -13    1    6    6    0    0  0.35907671237E+01 -0.50463696993E+00 -0.10797702328E+02  0.11390771158E+02  0.10500000000E+00 0. -1.
         13    1    6    6    0    0  0.58267949907E+01 -0.94508422186E+00 -0.17261989971E+02  0.18243685122E+02  0.10500000000E+00 0.  1.
</event>
<event>
11    0  0.3476221E-009  0.9118800E+02  0.7816531E-02  0.1126479E+00
         25   -1    0    0    0    0  0.00000000000E+00  0.00000000000E+00  0.99999998245E-14  0.12500000000E+03  0.12500000000E+03 0.  0.
    3000001    1    3    3    0    0 -0.39908224540E+02  0.20151437825E+02  0.16776179780E+02  0.47761773840E+02  0.10000000000E+01 0. -1.
    1000022    2    1    0    0    0 -0.51541633974E+02  0.29183545970E+02  0.17263579226E+02  0.62499998015E+02  0.99999598028E+01 0.  0.
    3000022    2    3    3    0    0 -0.11633409435E+02  0.90321081447E+01  0.48739944639E+00  0.14738224175E+02  0.25000200750E+00 0.  0.
    1000022    2    1    0    0    0  0.51541633974E+02 -0.29183545970E+02 -0.17263579226E+02  0.62500001985E+02  0.99999846167E+01 0.  0.
    3000022    2    5    5    0    0  0.11833024949E+02 -0.95981231083E+01 -0.82620084563E+00  0.15260719313E+02  0.24999891456E+00 0.  0.
        -13    1    4    4    0    0 -0.78907726465E+01  0.61066108083E+01  0.28126216586E+00  0.99822403262E+01  0.10500000000E+00 0. -1.
         13    1    4    4    0    0 -0.37426367884E+01  0.29254973364E+01  0.20613728053E+00  0.47559838492E+01  0.10500000000E+00 0.  1.
    3000001    1    5    5    0    0  0.39708609025E+02 -0.19585422861E+02 -0.16437378380E+02  0.47239282672E+02  0.10000000000E+01 0. -1.
        -13    1    6    6    0    0  0.61255765837E+01 -0.50517776303E+01 -0.41042754140E+00  0.79512654009E+01  0.10500000000E+00 0. -1.
         13    1    6    6    0    0  0.57074483656E+01 -0.45463454779E+01 -0.41577330422E+00  0.73094539119E+01  0.10500000000E+00 0.  1.
</event>
<event>
11    0  0.3476221E-009  0.9118800E+02  0.7816531E-02  0.1126479E+00
         25   -1    0    0    0    0  0.00000000000E+00  0.00000000000E+00  0.99999998245E-14  0.12500000000E+03  0.12500000000E+03 0.  0.
    3000001    1    3    3    0    0  0.81691726063E+01 -0.16758466394E+02 -0.33134995424E+01  0.18962089974E+02  0.10000000000E+01 0. -1.
    1000022    2    1    0    0    0  0.14573314722E+02 -0.56828497205E+02 -0.19089011626E+02  0.62500000951E+02  0.10000007875E+02 0.  0.
    3000022    2    3    3    0    0  0.64041421158E+01 -0.40070030811E+02 -0.15775512083E+02  0.43537910977E+02  0.25001075896E+00 0.  0.
    1000022    2    1    0    0    0 -0.14573314722E+02  0.56828497205E+02  0.19089011626E+02  0.62499999049E+02  0.99999959876E+01 0.  0.
    3000022    2    5    5    0    0 -0.37618840815E+01  0.32982557540E+02  0.87382249981E+01  0.34328122030E+02  0.25002447092E+00 0.  0.
        -13    1    4    4    0    0  0.16362845052E+01 -0.10372041815E+02 -0.41066806061E+01  0.11275306160E+02  0.10500000000E+00 0. -1.
         13    1    4    4    0    0  0.47678576106E+01 -0.29697988996E+02 -0.11668831477E+02  0.32262604818E+02  0.10500000000E+00 0.  1.
    3000001    1    5    5    0    0 -0.10811430641E+02  0.23845939664E+02  0.10350786628E+02  0.28171877019E+02  0.10000000000E+01 0. -1.
        -13    1    6    6    0    0 -0.10369337171E+01  0.87876396037E+01  0.23328298202E+01  0.91515551305E+01  0.10500000000E+00 0.  1.
         13    1    6    6    0    0 -0.27249503644E+01  0.24194917937E+02  0.64053951779E+01  0.25176566899E+02  0.10500000000E+00 0. -1.
</event>
<event>
11    0  0.3476221E-009  0.9118800E+02  0.7816531E-02  0.1126479E+00
         25   -1    0    0    0    0  0.00000000000E+00  0.00000000000E+00  0.99999998245E-14  0.12500000000E+03  0.12500000000E+03 0.  0.
    3000001    1    3    3    0    0 -0.14721180245E+02  0.62170808603E+01 -0.16392619833E+02  0.22914694569E+02  0.10000000000E+01 0. -1.
    1000022    2    1    0    0    0 -0.48594888958E+02  0.13996253067E+02 -0.35339659313E+02  0.62500000747E+02  0.10000012013E+02 0.  0.
    3000022    2    3    3    0    0 -0.33873708714E+02  0.77791722066E+01 -0.18947039480E+02  0.39585306178E+02  0.24999580161E+00 0.  0.
    1000022    2    1    0    0    0  0.48594888958E+02 -0.13996253067E+02  0.35339659313E+02  0.62499999253E+02  0.10000002677E+02 0.  0.
    3000022    2    5    5    0    0  0.19201595239E+02 -0.95337531895E+01  0.18496250736E+02  0.28315499354E+02  0.25000563621E+00 0.  0.
        -13    1    4    4    0    0 -0.17142816075E+02  0.39868560985E+01 -0.95410910524E+01  0.20020354842E+02  0.10500000000E+00 0. -1.
         13    1    4    4    0    0 -0.16730892638E+02  0.37923161081E+01 -0.94059484276E+01  0.19564951336E+02  0.10500000000E+00 0.  1.
    3000001    1    5    5    0    0  0.29393293720E+02 -0.44624998775E+01  0.16843408577E+02  0.34184499899E+02  0.10000000000E+01 0. -1.
        -13    1    6    6    0    0  0.11578347317E+02 -0.56821547425E+01  0.11100877800E+02  0.17017212523E+02  0.10500000000E+00 0. -1.
         13    1    6    6    0    0  0.76232479211E+01 -0.38515984470E+01  0.73953729355E+01  0.11298286831E+02  0.10500000000E+00 0.  1.
</event>
<event>
11    0  0.3476221E-009  0.9118800E+02  0.7816531E-02  0.1126479E+00
         25   -1    0    0    0    0  0.00000000000E+00  0.00000000000E+00  0.99999998245E-14  0.12500000000E+03  0.12500000000E+03 0.  0.
    3000001    1    3    3    0    0  0.12539933679E+02 -0.25199680116E+02 -0.19956321883E+02  0.34518525428E+02  0.10000000000E+01 0. -1.
    1000022    2    1    0    0    0  0.28955776321E+02 -0.45619896188E+02 -0.29776466050E+02  0.62499998672E+02  0.99999996555E+01 0.  0.
    3000022    2    3    3    0    0  0.16415842642E+02 -0.20420216071E+02 -0.98201441668E+01  0.27981473244E+02  0.24999883381E+00 0.  0.
    1000022    2    1    0    0    0 -0.28955776321E+02  0.45619896188E+02  0.29776466050E+02  0.62500001328E+02  0.10000016251E+02 0.  0.
    3000022    2    5    5    0    0 -0.21522028894E+02  0.25556898561E+02  0.16125239774E+02  0.37100386106E+02  0.24999936658E+00 0.  0.
        -13    1    4    4    0    0  0.62551893842E+01 -0.77000547240E+01 -0.37538725814E+01  0.10607583200E+02  0.10500000000E+00 0. -1.
         13    1    4    4    0    0  0.10160653258E+02 -0.12720161347E+02 -0.60662715853E+01  0.17373890044E+02  0.10500000000E+00 0.  1.
    3000001    1    5    5    0    0 -0.74337474273E+01  0.20062997627E+02  0.13651226276E+02  0.25399615222E+02  0.10000000000E+01 0.  1.
        -13    1    6    6    0    0 -0.14725176325E+02  0.17435410737E+02  0.10971655314E+02  0.25322176263E+02  0.10500000000E+00 0. -1.
         13    1    6    6    0    0 -0.67968525692E+01  0.81214878232E+01  0.51535844598E+01  0.11778209843E+02  0.10500000000E+00 0.  1.
</event>
<event>
11    0  0.3476221E-009  0.9118800E+02  0.7816531E-02  0.1126479E+00
         25   -1    0    0    0    0  0.00000000000E+00  0.00000000000E+00  0.99999998245E-14  0.12500000000E+03  0.12500000000E+03 0.  0.
    3000001    1    3    3    0    0 -0.66278382683E+00 -0.34628474513E+01 -0.13600911254E+00  0.36673005537E+01  0.10000000000E+01 0.  1.
    1000022    2    1    0    0    0 -0.11333820124E+02 -0.47990228054E+02 -0.37077386139E+02  0.62499999586E+02  0.99999959028E+01 0.  0.
    3000022    2    3    3    0    0 -0.10671036297E+02 -0.44527380603E+02 -0.36941377026E+02  0.58832699032E+02  0.24999962538E+00 0.  0.
    1000022    2    1    0    0    0  0.11333820124E+02  0.47990228054E+02  0.37077386139E+02  0.62500000414E+02  0.10000001081E+02 0.  0.
    3000022    2    5    5    0    0  0.11546549083E+02  0.47903822618E+02  0.36504524220E+02  0.61324887531E+02  0.25005009145E+00 0.  0.
        -13    1    4    4    0    0 -0.32840324939E+01 -0.13897654658E+02 -0.11545041000E+02  0.18363786949E+02  0.10500000000E+00 0. -1.
         13    1    4    4    0    0 -0.73870038033E+01 -0.30629725945E+02 -0.25396336026E+02  0.40468912083E+02  0.10500000000E+00 0.  1.
    3000001    1    5    5    0    0 -0.21272895925E+00  0.86405435869E-01  0.57286191891E+00  0.11751128829E+01  0.10000000000E+01 0.  1.
        -13    1    6    6    0    0  0.57616707772E+01  0.24112463940E+02  0.18307313050E+02  0.30818444210E+02  0.10500000000E+00 0.  1.
         13    1    6    6    0    0  0.57848783061E+01  0.23791358678E+02  0.18197211170E+02  0.30506443321E+02  0.10500000000E+00 0. -1.
</event>
<event>
11    0  0.3476221E-009  0.9118800E+02  0.7816531E-02  0.1126479E+00
         25   -1    0    0    0    0  0.00000000000E+00  0.00000000000E+00  0.99999998245E-14  0.12500000000E+03  0.12500000000E+03 0.  0.
    3000001    1    3    3    0    0 -0.33400503610E+02  0.26640465414E+02 -0.41104910949E+02  0.59295208432E+02  0.10000000000E+01 0. -1.
    1000022    2    1    0    0    0 -0.36143673333E+02  0.28273174570E+02 -0.41237260920E+02  0.62500007987E+02  0.10000089398E+02 0.  0.
    3000022    2    3    3    0    0 -0.27431697225E+01  0.16327091562E+01 -0.13234997068E+00  0.32047995550E+01  0.25000871428E+00 0.  0.
    1000022    2    1    0    0    0  0.36143673333E+02 -0.28273174570E+02  0.41237260920E+02  0.62499992013E+02  0.99999895643E+01 0.  0.
    3000022    2    5    5    0    0  0.16582423832E+02 -0.18751063133E+02  0.19522188929E+02  0.31745196618E+02  0.24999797184E+00 0.  0.
        -13    1    4    4    0    0 -0.18711361966E+01  0.10661751718E+01 -0.56806921026E-01  0.21568801982E+01  0.10500000000E+00 0. -1.
         13    1    4    4    0    0 -0.87203352599E+00  0.56653398445E+00 -0.75543049652E-01  0.10479193568E+01  0.10500000000E+00 0.  1.
    3000001    1    5    5    0    0  0.19561249501E+02 -0.95221114366E+01  0.21715071990E+02  0.30754795395E+02  0.10000000000E+01 0.  1.
        -13    1    6    6    0    0  0.11775769965E+02 -0.13326334296E+02  0.13922699518E+02  0.22585670920E+02  0.10500000000E+00 0. -1.
         13    1    6    6    0    0  0.48066538666E+01 -0.54247288373E+01  0.55994894111E+01  0.91595256982E+01  0.10500000000E+00 0.  1.
</event>
<event>
11    0  0.3476221E-009  0.9118800E+02  0.7816531E-02  0.1126479E+00
         25   -1    0    0    0    0  0.00000000000E+00  0.00000000000E+00  0.99999998245E-14  0.12500000000E+03  0.12500000000E+03 0.  0.
    3000001    1    3    3    0    0  0.21370623206E+01 -0.22799606561E+02  0.14959625399E+02  0.27371143323E+02  0.10000000000E+01 0. -1.
    1000022    2    1    0    0    0  0.15659910952E+02 -0.50697927551E+02  0.31475992727E+02  0.62500000963E+02  0.99999666616E+01 0.  0.
    3000022    2    3    3    0    0  0.13522848632E+02 -0.27898320990E+02  0.16516367328E+02  0.35128857641E+02  0.25000049364E+00 0.  0.
    1000022    2    1    0    0    0 -0.15659910952E+02  0.50697927551E+02 -0.31475992727E+02  0.62499999037E+02  0.99999546209E+01 0.  0.
    3000022    2    5    5    0    0 -0.16491104699E+02  0.40899487467E+02 -0.26205183604E+02  0.51298135802E+02  0.24995947456E+00 0.  0.
        -13    1    4    4    0    0  0.58418907080E+01 -0.12083238015E+02  0.70772323864E+01  0.15173350692E+02  0.10500000000E+00 0. -1.
         13    1    4    4    0    0  0.76809579236E+01 -0.15815082974E+02  0.94391349419E+01  0.19955506948E+02  0.10500000000E+00 0.  1.
    3000001    1    5    5    0    0  0.83119374678E+00  0.97984400842E+01 -0.52708091232E+01  0.11201863235E+02  0.10000000000E+01 0. -1.
        -13    1    6    6    0    0 -0.84096918594E+01  0.21008593439E+02 -0.13404103496E+02  0.26301424504E+02  0.10500000000E+00 0. -1.
         13    1    6    6    0    0 -0.80814128396E+01  0.19890894028E+02 -0.12801080108E+02  0.24996711297E+02  0.10500000000E+00 0.  1.
</event>
<event>
11    0  0.3476221E-009  0.9118800E+02  0.7816531E-02  0.1126479E+00
         25   -1    0    0    0    0  0.00000000000E+00  0.00000000000E+00  0.99999998245E-14  0.12500000000E+03  0.12500000000E+03 0.  0.
    3000001    1    3    3    0    0 -0.45366673918E+02  0.69562129356E+01 -0.24153440067E+02  0.51874007633E+02  0.10000000000E+01 0. -1.
    1000022    2    1    0    0    0 -0.51996343937E+02  0.70284280184E+01 -0.32453529417E+02  0.62500000924E+02  0.99999980314E+01 0.  0.
    3000022    2    3    3    0    0 -0.66296700186E+01  0.72215082778E-01 -0.83000893495E+01  0.10625993291E+02  0.25002125920E+00 0.  0.
    1000022    2    1    0    0    0  0.51996343937E+02 -0.70284280184E+01  0.32453529417E+02  0.62499999076E+02  0.99999864858E+01 0.  0.
    3000022    2    5    5    0    0  0.25359424078E+02 -0.49126492343E+01  0.10429273931E+02  0.27857974754E+02  0.24998123702E+00 0.  0.
        -13    1    4    4    0    0 -0.27226468361E+01  0.92875943363E-01 -0.33937945195E+01  0.43531939970E+01  0.10500000000E+00 0. -1.
         13    1    4    4    0    0 -0.39070231826E+01 -0.20660860585E-01 -0.49062948300E+01  0.62727992937E+01  0.10500000000E+00 0.  1.
    3000001    1    5    5    0    0  0.26636919860E+02 -0.21157787840E+01  0.22024255485E+02  0.34642024322E+02  0.10000000000E+01 0. -1.
        -13    1    6    6    0    0  0.18082491937E+02 -0.34838308283E+01  0.73943648128E+01  0.19844426116E+02  0.10500000000E+00 0. -1.
         13    1    6    6    0    0  0.72769321405E+01 -0.14288184061E+01  0.30349091186E+01  0.80135486380E+01  0.10500000000E+00 0.  1.
</event>
<event>
11    0  0.3476221E-009  0.9118800E+02  0.7816531E-02  0.1126479E+00
         25   -1    0    0    0    0  0.00000000000E+00  0.00000000000E+00  0.99999998245E-14  0.12500000000E+03  0.12500000000E+03 0.  0.
    3000001    1    3    3    0    0  0.16310088907E+02 -0.10283065403E+02  0.92861005107E+01  0.21424100843E+02  0.10000000000E+01 0. -1.
    1000022    2    1    0    0    0  0.45625815890E+02 -0.20146498526E+02  0.36313267629E+02  0.62499999241E+02  0.10000001034E+02 0.  0.
    3000022    2    3    3    0    0  0.29315726983E+02 -0.98634331235E+01  0.27027167119E+02  0.41075898398E+02  0.25001042067E+00 0.  0.
    1000022    2    1    0    0    0 -0.45625815890E+02  0.20146498526E+02 -0.36313267629E+02  0.62500000759E+02  0.10000010525E+02 0.  0.
    3000022    2    5    5    0    0 -0.75677162895E+01  0.19498333112E-01 -0.34083837999E+01  0.83036313071E+01  0.25000546492E+00 0.  0.
        -13    1    4    4    0    0  0.98593454820E+01 -0.33712227464E+01  0.91287286837E+01  0.13853394837E+02  0.10500000000E+00 0. -1.
         13    1    4    4    0    0  0.19456381501E+02 -0.64922103771E+01  0.17898438435E+02  0.27222503560E+02  0.10500000000E+00 0.  1.
    3000001    1    5    5    0    0 -0.38058099600E+02  0.20127000193E+02 -0.32904883829E+02  0.54196369452E+02  0.10000000000E+01 0. -1.
        -13    1    6    6    0    0 -0.48003101086E+01  0.62918199410E-01 -0.21283055470E+01  0.52523942483E+01  0.10500000000E+00 0. -1.
         13    1    6    6    0    0 -0.27674061809E+01 -0.43419866297E-01 -0.12800782530E+01  0.30512370587E+01  0.10500000000E+00 0.  1.
</event>
<event>
11    0  0.3476221E-009  0.9118800E+02  0.7816531E-02  0.1126479E+00
         25   -1    0    0    0    0  0.00000000000E+00  0.00000000000E+00  0.99999998245E-14  0.12500000000E+03  0.12500000000E+03 0.  0.
    3000001    1    3    3    0    0  0.68349040506E+01 -0.20757743696E+02 -0.31574952297E+01  0.22103610855E+02  0.10000000000E+01 0. -1.
    1000022    2    1    0    0    0  0.26713842732E+02 -0.52562472598E+02 -0.18160587247E+02  0.62499999896E+02  0.10000006932E+02 0.  0.
    3000022    2    3    3    0    0  0.19878938681E+02 -0.31804728903E+02 -0.15003092017E+02  0.40396389040E+02  0.24998751745E+00 0.  0.
    1000022    2    1    0    0    0 -0.26713842732E+02  0.52562472598E+02  0.18160587247E+02  0.62500000104E+02  0.10000008238E+02 0.  0.
    3000022    2    5    5    0    0 -0.12486567422E+02  0.27178564176E+02  0.14217944251E+02  0.33117988544E+02  0.25001965406E+00 0.  0.
        -13    1    4    4    0    0  0.62814605611E+01 -0.99633162997E+01 -0.47312246720E+01  0.12693302579E+02  0.10500000000E+00 0.  1.
         13    1    4    4    0    0  0.13597478120E+02 -0.21841412603E+02 -0.10271867345E+02  0.27703086461E+02  0.10500000000E+00 0. -1.
    3000001    1    5    5    0    0 -0.14227275310E+02  0.25383908422E+02  0.39426429952E+01  0.29382011560E+02  0.10000000000E+01 0.  1.
        -13    1    6    6    0    0 -0.68879708500E+01  0.15102132929E+02  0.78370146330E+01  0.18356153867E+02  0.10500000000E+00 0. -1.
         13    1    6    6    0    0 -0.55985965721E+01  0.12076431247E+02  0.63809296184E+01  0.14761834677E+02  0.10500000000E+00 0.  1.
</event>
<event>
11    0  0.3476221E-009  0.9118800E+02  0.7816531E-02  0.1126479E+00
         25   -1    0    0    0    0  0.00000000000E+00  0.00000000000E+00  0.99999998245E-14  0.12500000000E+03  0.12500000000E+03 0.  0.
    3000001    1    3    3    0    0  0.15674247746E+02 -0.26489637778E+02 -0.24157006697E+02  0.39140055245E+02  0.10000000000E+01 0.  1.
    1000022    2    1    0    0    0  0.24474553619E+02 -0.36381024268E+02 -0.43401224429E+02  0.62500006640E+02  0.10000092322E+02 0.  0.
    3000022    2    3    3    0    0  0.88003058724E+01 -0.98913864903E+01 -0.19244217731E+02  0.23359951395E+02  0.25000584822E+00 0.  0.
    1000022    2    1    0    0    0 -0.24474553619E+02  0.36381024268E+02  0.43401224429E+02  0.62499993360E+02  0.10000009322E+02 0.  0.
    3000022    2    5    5    0    0 -0.10530786530E+02  0.77206347745E+01  0.13565542743E+02  0.18830616582E+02  0.25000934046E+00 0.  0.
        -13    1    4    4    0    0  0.27065940101E+01 -0.30424972089E+01 -0.60047402112E+01  0.72560574974E+01  0.10500000000E+00 0.  1.
         13    1    4    4    0    0  0.60937118623E+01 -0.68488892814E+01 -0.13239477520E+02  0.16103893897E+02  0.10500000000E+00 0.  1.
    3000001    1    5    5    0    0 -0.13943767089E+02  0.28660389494E+02  0.29835681686E+02  0.43669376778E+02  0.10000000000E+01 0.  1.
        -13    1    6    6    0    0 -0.31251919902E+01  0.22432011832E+01  0.40284017781E+01  0.55711598801E+01  0.10500000000E+00 0.  1.
         13    1    6    6    0    0 -0.74055945399E+01  0.54774335913E+01  0.95371409647E+01  0.13259456701E+02  0.10500000000E+00 0. -1.
</event>
<event>
11    0  0.3476221E-009  0.9118800E+02  0.7816531E-02  0.1126479E+00
         25   -1    0    0    0    0  0.00000000000E+00  0.00000000000E+00  0.99999998245E-14  0.12500000000E+03  0.12500000000E+03 0.  0.
    3000001    1    3    3    0    0 -0.28396260206E+02  0.11969165476E+02 -0.77269296232E+00  0.30841620747E+02  0.10000000000E+01 0. -1.
    1000022    2    1    0    0    0 -0.53851963028E+02  0.29467056503E+02  0.61571094565E+01  0.62500010783E+02  0.10000000504E+02 0.  0.
    3000022    2    3    3    0    0 -0.25455702823E+02  0.17497891027E+02  0.69298024189E+01  0.31658390037E+02  0.25000311485E+00 0.  0.
    1000022    2    1    0    0    0  0.53851963028E+02 -0.29467056503E+02 -0.61571094565E+01  0.62499989217E+02  0.99998657111E+01 0.  0.
    3000022    2    5    5    0    0  0.50650726375E+02 -0.27574220872E+02 -0.34134372381E+01  0.57771513767E+02  0.25002021641E+00 0.  0.
        -13    1    4    4    0    0 -0.14472128202E+02  0.99129900724E+01  0.39957575042E+01  0.17991302618E+02  0.10500000000E+00 0. -1.
         13    1    4    4    0    0 -0.10983574620E+02  0.75849009548E+01  0.29340449146E+01  0.13667087418E+02  0.10500000000E+00 0.  1.
    3000001    1    5    5    0    0  0.32012366532E+01 -0.18928356317E+01 -0.27436722184E+01  0.47284754499E+01  0.10000000000E+01 0. -1.
        -13    1    6    6    0    0  0.25350215112E+02 -0.13822123746E+02 -0.17742803040E+01  0.28928249284E+02  0.10500000000E+00 0. -1.
         13    1    6    6    0    0  0.25300511263E+02 -0.13752097126E+02 -0.16391569341E+01  0.28843264482E+02  0.10500000000E+00 0.  1.
</event>
<event>
11    0  0.3476221E-009  0.9118800E+02  0.7816531E-02  0.1126479E+00
         25   -1    0    0    0    0  0.00000000000E+00  0.00000000000E+00  0.99999998245E-14  0.12500000000E+03  0.12500000000E+03 0.  0.
    3000001    1    3    3    0    0 -0.61569844129E+02  0.88023021166E+00  0.45360623521E+01  0.61751083982E+02  0.10000000000E+01 0.  1.
    1000022    2    1    0    0    0 -0.61477870342E+02  0.14317513231E+01  0.49670404586E+01  0.62500000575E+02  0.10000006366E+02 0.  0.
    3000022    2    3    3    0    0  0.91973787219E-01  0.55152111143E+00  0.43097810646E+00  0.74891659269E+00  0.24999844133E+00 0.  0.
    1000022    2    1    0    0    0  0.61477870342E+02 -0.14317513231E+01 -0.49670404586E+01  0.62499999425E+02  0.99999991811E+01 0.  0.
    3000022    2    5    5    0    0  0.55928966472E+00  0.73704788764E+00 -0.10310523209E+01  0.14076990565E+01  0.25000645478E+00 0.  0.
        -13    1    4    4    0    0  0.11362686562E+00  0.27699418878E+00  0.20843793878E+00  0.37961588419E+00  0.10500000000E+00 0. -1.
         13    1    4    4    0    0 -0.21653078400E-01  0.27452692265E+00  0.22254016768E+00  0.36930070850E+00  0.10500000000E+00 0.  1.
    3000001    1    5    5    0    0  0.60918580677E+02 -0.21687992107E+01 -0.39359881377E+01  0.61092300369E+02  0.10000000000E+01 0.  1.
        -13    1    6    6    0    0  0.20615813938E+00  0.30314137710E+00 -0.32710603299E+00  0.50241340524E+00  0.10500000000E+00 0. -1.
         13    1    6    6    0    0  0.35313152534E+00  0.43390651054E+00 -0.70394628791E+00  0.90528565124E+00  0.10500000000E+00 0.  1.
</event>
<event>
11    0  0.3476221E-009  0.9118800E+02  0.7816531E-02  0.1126479E+00
         25   -1    0    0    0    0  0.00000000000E+00  0.00000000000E+00  0.99999998245E-14  0.12500000000E+03  0.12500000000E+03 0.  0.
    3000001    1    3    3    0    0  0.10313035898E+02 -0.28200259179E+01  0.63496155641E+01  0.12475130197E+02  0.10000000000E+01 0. -1.
    1000022    2    1    0    0    0  0.58923199793E+02 -0.11956896009E+02  0.13832550911E+02  0.62499996502E+02  0.99999631019E+01 0.  0.
    3000022    2    3    3    0    0  0.48610163895E+02 -0.91368700907E+01  0.74829353470E+01  0.50024866306E+02  0.24999703130E+00 0.  0.
    1000022    2    1    0    0    0 -0.58923199793E+02  0.11956896009E+02 -0.13832550911E+02  0.62500003498E+02  0.10000006822E+02 0.  0.
    3000022    2    5    5    0    0 -0.23751617222E+01  0.26986835862E+01 -0.13384593205E+01  0.38442498869E+01  0.24999507071E+00 0.  0.
        -13    1    4    4    0    0  0.29222227169E+02 -0.55440397863E+01  0.44618523175E+01  0.30076470687E+02  0.10500000000E+00 0. -1.
         13    1    4    4    0    0  0.19387936726E+02 -0.35928303044E+01  0.30210830294E+01  0.19948395619E+02  0.10500000000E+00 0.  1.
    3000001    1    5    5    0    0 -0.56548038071E+02  0.92582124225E+01 -0.12494091591E+02  0.58655753611E+02  0.10000000000E+01 0.  1.
        -13    1    6    6    0    0 -0.11664722192E+01  0.14083991036E+01 -0.72295685283E+00  0.19692478473E+01  0.10500000000E+00 0. -1.
         13    1    6    6    0    0 -0.12086895031E+01  0.12902844826E+01 -0.61550246770E+00  0.18750020396E+01  0.10500000000E+00 0.  1.
</event>
<event>
11    0  0.3476221E-009  0.9118800E+02  0.7816531E-02  0.1126479E+00
         25   -1    0    0    0    0  0.00000000000E+00  0.00000000000E+00  0.99999998245E-14  0.12500000000E+03  0.12500000000E+03 0.  0.
    3000001    1    3    3    0    0 -0.13650678627E+01 -0.64985997522E+01  0.43181494432E+01  0.79838351450E+01  0.10000000000E+01 0. -1.
    1000022    2    1    0    0    0  0.14367724019E+02 -0.50049825740E+02  0.33088268197E+02  0.62500000236E+02  0.99999993579E+01 0.  0.
    3000022    2    3    3    0    0  0.15732791882E+02 -0.43551225987E+02  0.28770118754E+02  0.54516165091E+02  0.24999541795E+00 0.  0.
    1000022    2    1    0    0    0 -0.14367724019E+02  0.50049825740E+02 -0.33088268197E+02  0.62499999764E+02  0.99999964078E+01 0.  0.
    3000022    2    5    5    0    0 -0.98454220357E+01  0.42284140237E+02 -0.30619136673E+02  0.53126969463E+02  0.25000600848E+00 0.  0.
        -13    1    4    4    0    0  0.93079461625E+01 -0.25905033575E+02  0.17052164693E+02  0.32380487519E+02  0.10500000000E+00 0. -1.
         13    1    4    4    0    0  0.64248457192E+01 -0.17646192413E+02  0.11717954061E+02  0.22135677572E+02  0.10500000000E+00 0.  1.
    3000001    1    5    5    0    0 -0.45223019834E+01  0.77656855021E+01 -0.24691315244E+01  0.93730303014E+01  0.10000000000E+01 0. -1.
        -13    1    6    6    0    0 -0.68660848015E+01  0.29688262172E+02 -0.21491735099E+02  0.37288627406E+02  0.10500000000E+00 0.  1.
         13    1    6    6    0    0 -0.29793372342E+01  0.12595878066E+02 -0.91274015742E+01  0.15838342056E+02  0.10500000000E+00 0. -1.
</event>
<event>
11    0  0.3476221E-009  0.9118800E+02  0.7816531E-02  0.1126479E+00
         25   -1    0    0    0    0  0.00000000000E+00  0.00000000000E+00  0.99999998245E-14  0.12500000000E+03  0.12500000000E+03 0.  0.
    3000001    1    3    3    0    0 -0.33654383141E+02  0.36343311009E+02 -0.48098065774E+01  0.49775375428E+02  0.10000000000E+01 0. -1.
    1000022    2    1    0    0    0 -0.38036925289E+02  0.48271571337E+02 -0.54127498320E+01  0.62500001402E+02  0.10000001484E+02 0.  0.
    3000022    2    3    3    0    0 -0.43825421474E+01  0.11928260328E+02 -0.60294325455E+00  0.12724625974E+02  0.24999091982E+00 0.  0.
    1000022    2    1    0    0    0  0.38036925289E+02 -0.48271571337E+02  0.54127498320E+01  0.62499998598E+02  0.99999839643E+01 0.  0.
    3000022    2    5    5    0    0  0.14642586365E+02 -0.26513093780E+02  0.32445051997E+01  0.30462087866E+02  0.25001189017E+00 0.  0.
        -13    1    4    4    0    0 -0.21600867589E+01  0.57138963606E+01 -0.32624243406E+00  0.61181733836E+01  0.10500000000E+00 0.  1.
         13    1    4    4    0    0 -0.22224553885E+01  0.62143639678E+01 -0.27670082050E+00  0.66064525899E+01  0.10500000000E+00 0. -1.
    3000001    1    5    5    0    0  0.23394338924E+02 -0.21758477557E+02  0.21682446323E+01  0.32037910732E+02  0.10000000000E+01 0. -1.
        -13    1    6    6    0    0  0.85796497624E+01 -0.15518393214E+02  0.19637429973E+01  0.17840914482E+02  0.10500000000E+00 0.  1.
         13    1    6    6    0    0  0.60629366023E+01 -0.10994700566E+02  0.12807622023E+01  0.12621173384E+02  0.10500000000E+00 0. -1.
</event>
<event>
11    0  0.3476221E-009  0.9118800E+02  0.7816531E-02  0.1126479E+00
         25   -1    0    0    0    0  0.00000000000E+00  0.00000000000E+00  0.99999998245E-14  0.12500000000E+03  0.12500000000E+03 0.  0.
    3000001    1    3    3    0    0 -0.94979287574E+01 -0.22446909189E+02 -0.17677484287E+02  0.30125866519E+02  0.10000000000E+01 0.  1.
    1000022    2    1    0    0    0 -0.13696645003E+02 -0.41671241208E+02 -0.43383863056E+02  0.62500000788E+02  0.10000004835E+02 0.  0.
    3000022    2    3    3    0    0 -0.41987162456E+01 -0.19224332019E+02 -0.25706378769E+02  0.32374134269E+02  0.25000111425E+00 0.  0.
    1000022    2    1    0    0    0  0.13696645003E+02  0.41671241208E+02  0.43383863056E+02  0.62499999212E+02  0.99999949845E+01 0.  0.
    3000022    2    5    5    0    0  0.10489291109E+02  0.17928331153E+02  0.23353186222E+02  0.31255145054E+02  0.24999953689E+00 0.  0.
        -13    1    4    4    0    0 -0.24021176627E+01 -0.11082897019E+02 -0.14917242100E+02  0.18738620880E+02  0.10500000000E+00 0. -1.
         13    1    4    4    0    0 -0.17965985829E+01 -0.81414349995E+01 -0.10789136668E+02  0.13635513389E+02  0.10500000000E+00 0.  1.
    3000001    1    5    5    0    0  0.32073538938E+01  0.23742910055E+02  0.20030676834E+02  0.31244854157E+02  0.10000000000E+01 0. -1.
        -13    1    6    6    0    0  0.71424713464E+01  0.12153045266E+02  0.15912502132E+02  0.21258648952E+02  0.10500000000E+00 0.  1.
         13    1    6    6    0    0  0.33468197627E+01  0.57752858861E+01  0.74406840900E+01  0.99964961020E+01  0.10500000000E+00 0. -1.
</event>
<event>
11    0  0.3476221E-009  0.9118800E+02  0.7816531E-02  0.1126479E+00
         25   -1    0    0    0    0  0.00000000000E+00  0.00000000000E+00  0.99999998245E-14  0.12500000000E+03  0.12500000000E+03 0.  0.
    3000001    1    3    3    0    0  0.14392014322E+02  0.86613270027E+01  0.42776594972E+01  0.17362230054E+02  0.10000000000E+01 0.  1.
    1000022    2    1    0    0    0  0.46295241287E+02  0.27795190677E+02  0.29840041426E+02  0.62500002465E+02  0.10000012259E+02 0.  0.
    3000022    2    3    3    0    0  0.31903226966E+02  0.19133863675E+02  0.25562381929E+02  0.45137772411E+02  0.24999677846E+00 0.  0.
    1000022    2    1    0    0    0 -0.46295241287E+02 -0.27795190677E+02 -0.29840041426E+02  0.62499997535E+02  0.99999814457E+01 0.  0.
    3000022    2    5    5    0    0 -0.24547972678E+02 -0.15509192563E+02 -0.21559404767E+02  0.36166399507E+02  0.25000563585E+00 0.  0.
        -13    1    4    4    0    0  0.16622871545E+02  0.10010458458E+02  0.13403575674E+02  0.23583808064E+02  0.10500000000E+00 0. -1.
         13    1    4    4    0    0  0.15280355421E+02  0.91234052164E+01  0.12158806255E+02  0.21553964347E+02  0.10500000000E+00 0.  1.
    3000001    1    5    5    0    0 -0.21747268609E+02 -0.12285998114E+02 -0.82806366590E+01  0.26333598028E+02  0.10000000000E+01 0. -1.
        -13    1    6    6    0    0 -0.86344978255E+01 -0.53885658944E+01 -0.75640201698E+01  0.12681349346E+02  0.10500000000E+00 0. -1.
         13    1    6    6    0    0 -0.15913474853E+02 -0.10120626669E+02 -0.13995384597E+02  0.23485050161E+02  0.10500000000E+00 0.  1.
</event>
<event>
11    0  0.3476221E-009  0.9118800E+02  0.7816531E-02  0.1126479E+00
         25   -1    0    0    0    0  0.00000000000E+00  0.00000000000E+00  0.99999998245E-14  0.12500000000E+03  0.12500000000E+03 0.  0.
    3000001    1    3    3    0    0 -0.78543028328E+01 -0.41587999384E+02 -0.16900510255E+02  0.45583758211E+02  0.10000000000E+01 0. -1.
    1000022    2    1    0    0    0 -0.88756068220E+01 -0.54173788633E+02 -0.28154469195E+02  0.62500000235E+02  0.10000006118E+02 0.  0.
    3000022    2    3    3    0    0 -0.10213039892E+01 -0.12585789249E+02 -0.11253958941E+02  0.16916242024E+02  0.24999903948E+00 0.  0.
    1000022    2    1    0    0    0  0.88756068220E+01  0.54173788633E+02  0.28154469195E+02  0.62499999765E+02  0.10000003182E+02 0.  0.
    3000022    2    5    5    0    0  0.59464807860E+01  0.43906723973E+02  0.26558935141E+02  0.51658499639E+02  0.25001070804E+00 0.  0.
        -13    1    4    4    0    0 -0.59868673899E+00 -0.73620244532E+01 -0.64964334841E+01  0.98373016054E+01  0.10500000000E+00 0. -1.
         13    1    4    4    0    0 -0.42261725025E+00 -0.52237647960E+01 -0.47575254565E+01  0.70789404188E+01  0.10500000000E+00 0.  1.
    3000001    1    5    5    0    0  0.29291260360E+01  0.10267064660E+02  0.15955340550E+01  0.10841500126E+02  0.10000000000E+01 0.  1.
        -13    1    6    6    0    0  0.35980675824E+01  0.26097427467E+02  0.15781270528E+02  0.30709629356E+02  0.10500000000E+00 0. -1.
         13    1    6    6    0    0  0.23484132037E+01  0.17809296506E+02  0.10777664612E+02  0.20948870282E+02  0.10500000000E+00 0.  1.
</event>
<event>
11    0  0.3476221E-009  0.9118800E+02  0.7816531E-02  0.1126479E+00
         25   -1    0    0    0    0  0.00000000000E+00  0.00000000000E+00  0.99999998245E-14  0.12500000000E+03  0.12500000000E+03 0.  0.
    3000001    1    3    3    0    0 -0.20377083544E+02  0.40184162160E+01  0.22352517737E+02  0.30528810194E+02  0.10000000000E+01 0.  1.
    1000022    2    1    0    0    0 -0.41268280165E+02 -0.18850734871E+01  0.45821672319E+02  0.62500000669E+02  0.99999989861E+01 0.  0.
    3000022    2    3    3    0    0 -0.20891196620E+02 -0.59034897031E+01  0.23469154582E+02  0.31971190475E+02  0.25003343113E+00 0.  0.
    1000022    2    1    0    0    0  0.41268280165E+02  0.18850734871E+01 -0.45821672319E+02  0.62499999331E+02  0.99999906200E+01 0.  0.
    3000022    2    5    5    0    0  0.34991007380E+02  0.31598802524E+01 -0.42723632964E+02  0.55314796915E+02  0.25000689955E+00 0.  0.
        -13    1    4    4    0    0 -0.11577811286E+02 -0.33161431575E+01  0.13094298776E+02  0.17790846103E+02  0.10500000000E+00 0. -1.
         13    1    4    4    0    0 -0.93133853340E+01 -0.25873465456E+01  0.10374855805E+02  0.14180344372E+02  0.10500000000E+00 0.  1.
    3000001    1    5    5    0    0  0.62772727848E+01 -0.12748067653E+01 -0.30980393548E+01  0.71852024152E+01  0.10000000000E+01 0. -1.
        -13    1    6    6    0    0  0.18997772222E+02  0.16716271676E+01 -0.23111384742E+02  0.29964258984E+02  0.10500000000E+00 0. -1.
         13    1    6    6    0    0  0.15993235158E+02  0.14882530848E+01 -0.19612248223E+02  0.25350537932E+02  0.10500000000E+00 0.  1.
</event>
<event>
11    0  0.3476221E-009  0.9118800E+02  0.7816531E-02  0.1126479E+00
         25   -1    0    0    0    0  0.00000000000E+00  0.00000000000E+00  0.99999998245E-14  0.12500000000E+03  0.12500000000E+03 0.  0.
    3000001    1    3    3    0    0 -0.23512641460E+01 -0.54823003509E+01  0.37688724598E+01  0.71266022647E+01  0.10000000000E+01 0.  1.
    1000022    2    1    0    0    0 -0.38602282399E+02 -0.46186748107E+02  0.13523987619E+02  0.62499999882E+02  0.99999918496E+01 0.  0.
    3000022    2    3    3    0    0 -0.36251018253E+02 -0.40704447756E+02  0.97551151588E+01  0.55373397617E+02  0.25000074756E+00 0.  0.
    1000022    2    1    0    0    0  0.38602282399E+02  0.46186748107E+02 -0.13523987619E+02  0.62500000118E+02  0.99999933264E+01 0.  0.
    3000022    2    5    5    0    0  0.19507098998E+02  0.20743891592E+02 -0.11160641784E+02  0.30585264019E+02  0.25000071354E+00 0.  0.
        -13    1    4    4    0    0 -0.11820004055E+02 -0.13239085706E+02  0.31285378606E+01  0.18021782940E+02  0.10500000000E+00 0.  1.
         13    1    4    4    0    0 -0.24431014197E+02 -0.27465362050E+02  0.66265772982E+01  0.37351614677E+02  0.10500000000E+00 0. -1.
    3000001    1    5    5    0    0  0.19095183401E+02  0.25442856515E+02 -0.23633458347E+01  0.31914736100E+02  0.10000000000E+01 0.  1.
        -13    1    6    6    0    0  0.13624402799E+02  0.14547775328E+02 -0.77893464762E+01  0.21399697712E+02  0.10500000000E+00 0.  1.
         13    1    6    6    0    0  0.58826961985E+01  0.61961162643E+01 -0.33712953078E+01  0.91855663069E+01  0.10500000000E+00 0. -1.
</event>
<event>
11    0  0.3476221E-009  0.9118800E+02  0.7816531E-02  0.1126479E+00
         25   -1    0    0    0    0  0.00000000000E+00  0.00000000000E+00  0.99999998245E-14  0.12500000000E+03  0.12500000000E+03 0.  0.
    3000001    1    3    3    0    0 -0.32839745465E+02  0.86961429035E+01 -0.35867233030E+02  0.49411842597E+02  0.10000000000E+01 0. -1.
    1000022    2    1    0    0    0 -0.39637957261E+02  0.15676730375E+02 -0.44601822658E+02  0.62499999206E+02  0.99999892650E+01 0.  0.
    3000022    2    3    3    0    0 -0.67982117962E+01  0.69805874719E+01 -0.87345896275E+01  0.13088156609E+02  0.25000477514E+00 0.  0.
    1000022    2    1    0    0    0  0.39637957261E+02 -0.15676730375E+02  0.44601822658E+02  0.62500000794E+02  0.99999991887E+01 0.  0.
    3000022    2    5    5    0    0  0.36132018977E+02 -0.10979824987E+02  0.39716909968E+02  0.54804879257E+02  0.25000178691E+00 0.  0.
        -13    1    4    4    0    0 -0.41392170317E+01  0.42625631315E+01 -0.54079796760E+01  0.80349132703E+01  0.10500000000E+00 0. -1.
         13    1    4    4    0    0 -0.26589947646E+01  0.27180243404E+01 -0.33266099516E+01  0.50532433390E+01  0.10500000000E+00 0.  1.
    3000001    1    5    5    0    0  0.35059382837E+01 -0.46969053885E+01  0.48849126901E+01  0.76951215369E+01  0.10000000000E+01 0. -1.
        -13    1    6    6    0    0  0.11351807955E+02 -0.34010603950E+01  0.12487724718E+02  0.17215837165E+02  0.10500000000E+00 0.  1.
         13    1    6    6    0    0  0.24780211022E+02 -0.75787645919E+01  0.27229185249E+02  0.37589042092E+02  0.10500000000E+00 0. -1.
</event>
<event>
11    0  0.3476221E-009  0.9118800E+02  0.7816531E-02  0.1126479E+00
         25   -1    0    0    0    0  0.00000000000E+00  0.00000000000E+00  0.99999998245E-14  0.12500000000E+03  0.12500000000E+03 0.  0.
    3000001    1    3    3    0    0  0.13364263194E+02  0.15150117850E+02 -0.18956454166E+02  0.27721413314E+02  0.10000000000E+01 0.  1.
    1000022    2    1    0    0    0  0.28956364952E+02  0.24787649470E+02 -0.48511350126E+02  0.62499999133E+02  0.10000008155E+02 0.  0.
    3000022    2    3    3    0    0  0.15592101758E+02  0.96375316204E+01 -0.29554895959E+02  0.34778585818E+02  0.25000682875E+00 0.  0.
    1000022    2    1    0    0    0 -0.28956364952E+02 -0.24787649470E+02  0.48511350126E+02  0.62500000867E+02  0.10000018998E+02 0.  0.
    3000022    2    5    5    0    0 -0.18705289443E+02 -0.16066403617E+02  0.23415728135E+02  0.34005529099E+02  0.25001364996E+00 0.  0.
        -13    1    4    4    0    0  0.81540200039E+01  0.49658642489E+01 -0.15439231486E+02  0.18152926592E+02  0.10500000000E+00 0. -1.
         13    1    4    4    0    0  0.74380817537E+01  0.46716673715E+01 -0.14115664473E+02  0.16625659226E+02  0.10500000000E+00 0.  1.
    3000001    1    5    5    0    0 -0.10251075508E+02 -0.87212458529E+01  0.25095621990E+02  0.28494471769E+02  0.10000000000E+01 0.  1.
        -13    1    6    6    0    0 -0.84406803382E+01 -0.71695893437E+01  0.10553908818E+02  0.15298500328E+02  0.10500000000E+00 0.  1.
         13    1    6    6    0    0 -0.10264609105E+02 -0.88968142735E+01  0.12861819317E+02  0.18707028771E+02  0.10500000000E+00 0. -1.
</event>
<event>
11    0  0.3476221E-009  0.9118800E+02  0.7816531E-02  0.1126479E+00
         25   -1    0    0    0    0  0.00000000000E+00  0.00000000000E+00  0.99999998245E-14  0.12500000000E+03  0.12500000000E+03 0.  0.
    3000001    1    3    3    0    0 -0.49103495392E+02  0.19201947505E+02 -0.44981234874E+01  0.52925430207E+02  0.10000000000E+01 0. -1.
    1000022    2    1    0    0    0 -0.55590105797E+02  0.26009920948E+02 -0.62828555408E+01  0.62499999688E+02  0.99999918528E+01 0.  0.
    3000022    2    3    3    0    0 -0.64866104055E+01  0.68079734421E+01 -0.17847320533E+01  0.95745694814E+01  0.24999062061E+00 0.  0.
    1000022    2    1    0    0    0  0.55590105797E+02 -0.26009920948E+02  0.62828555408E+01  0.62500000312E+02  0.99999957475E+01 0.  0.
    3000022    2    5    5    0    0  0.31779327026E+01  0.22972397901E+00 -0.11754486921E+01  0.34053207168E+01  0.25000037521E+00 0.  0.
        -13    1    4    4    0    0 -0.17178969332E+01  0.18412004529E+01 -0.45462139949E+00  0.25610338923E+01  0.10500000000E+00 0. -1.
         13    1    4    4    0    0 -0.47687134723E+01  0.49667729892E+01 -0.13301106538E+01  0.70135355891E+01  0.10500000000E+00 0.  1.
    3000001    1    5    5    0    0  0.52412173095E+02 -0.26239644927E+02  0.74583042329E+01  0.59094679595E+02  0.10000000000E+01 0. -1.
        -13    1    6    6    0    0  0.19715804628E+01  0.13193481686E+00 -0.79195516315E+00  0.21313738052E+01  0.10500000000E+00 0. -1.
         13    1    6    6    0    0  0.12063522398E+01  0.97789162149E-01 -0.38349352900E+00  0.12739469116E+01  0.10500000000E+00 0.  1.
</event>
<event>
11    0  0.3476221E-009  0.9118800E+02  0.7816531E-02  0.1126479E+00
         25   -1    0    0    0    0  0.00000000000E+00  0.00000000000E+00  0.99999998245E-14  0.12500000000E+03  0.12500000000E+03 0.  0.
    3000001    1    3    3    0    0 -0.34597657438E+01  0.27184470935E+01 -0.36241238004E+01  0.57874179841E+01  0.10000000000E+01 0. -1.
    1000022    2    1    0    0    0 -0.11926841353E+02  0.27270322103E+02 -0.54040078695E+02  0.62499999842E+02  0.99999931292E+01 0.  0.
    3000022    2    3    3    0    0 -0.84670756096E+01  0.24551875010E+02 -0.50415954895E+02  0.56712581858E+02  0.24999432116E+00 0.  0.
    1000022    2    1    0    0    0  0.11926841353E+02 -0.27270322103E+02  0.54040078695E+02  0.62500000158E+02  0.99999951006E+01 0.  0.
    3000022    2    5    5    0    0  0.11818374028E+02 -0.27397088673E+02  0.49089160278E+02  0.57446345233E+02  0.24998276658E+00 0.  0.
        -13    1    4    4    0    0 -0.54373561862E+01  0.15588207392E+02 -0.32065454691E+02  0.36066070780E+02  0.10500000000E+00 0.  1.
         13    1    4    4    0    0 -0.30297194234E+01  0.89636676178E+01 -0.18350500204E+02  0.20646511078E+02  0.10500000000E+00 0. -1.
    3000001    1    5    5    0    0  0.10846732565E+00  0.12676656980E+00  0.49509184171E+01  0.50536549246E+01  0.10000000000E+01 0. -1.
        -13    1    6    6    0    0  0.80109622110E+01 -0.18695736702E+02  0.33444622178E+02  0.39144091049E+02  0.10500000000E+00 0. -1.
         13    1    6    6    0    0  0.38074118168E+01 -0.87013519709E+01  0.15644538100E+02  0.18302254184E+02  0.10500000000E+00 0.  1.
</event>
<event>
11    0  0.3476221E-009  0.9118800E+02  0.7816531E-02  0.1126479E+00
         25   -1    0    0    0    0  0.00000000000E+00  0.00000000000E+00  0.99999998245E-14  0.12500000000E+03  0.12500000000E+03 0.  0.
    3000001    1    3    3    0    0 -0.24810273554E+02 -0.12861296647E+02  0.77554565641E+01  0.29019126999E+02  0.10000000000E+01 0. -1.
    1000022    2    1    0    0    0 -0.55706450705E+02 -0.25699482058E+02  0.65251785577E+01  0.62499999893E+02  0.10000000160E+02 0.  0.
    3000022    2    3    3    0    0 -0.30896177151E+02 -0.12838185410E+02 -0.12302780064E+01  0.33480872894E+02  0.24999712810E+00 0.  0.
    1000022    2    1    0    0    0  0.55706450705E+02  0.25699482058E+02 -0.65251785577E+01  0.62500000107E+02  0.10000001499E+02 0.  0.
    3000022    2    5    5    0    0  0.28569048878E+02  0.12894663052E+02  0.16336696163E+01  0.31387803604E+02  0.24989932586E+00 0.  0.
        -13    1    4    4    0    0 -0.10513656518E+02 -0.43562398564E+01 -0.36487571080E+00  0.11386744853E+02  0.10500000000E+00 0. -1.
         13    1    4    4    0    0 -0.20382520633E+02 -0.84819455540E+01 -0.86540229563E+00  0.22094128041E+02  0.10500000000E+00 0.  1.
    3000001    1    5    5    0    0  0.27137401827E+02  0.12804819006E+02 -0.81588481739E+01  0.31112196503E+02  0.10000000000E+01 0. -1.
        -13    1    6    6    0    0  0.14524772515E+02  0.65840762962E+01  0.89384873009E+00  0.15972760182E+02  0.10500000000E+00 0.  1.
         13    1    6    6    0    0  0.14044276364E+02  0.63105867558E+01  0.73982088617E+00  0.15415043423E+02  0.10500000000E+00 0. -1.
</event>
<event>
11    0  0.3476221E-009  0.9118800E+02  0.7816531E-02  0.1126479E+00
         25   -1    0    0    0    0  0.00000000000E+00  0.00000000000E+00  0.99999998245E-14  0.12500000000E+03  0.12500000000E+03 0.  0.
    3000001    1    3    3    0    0 -0.26845556825E+01 -0.16795997400E+02  0.24423977385E+02  0.29779909993E+02  0.10000000000E+01 0.  1.
    1000022    2    1    0    0    0 -0.13385241321E+02 -0.28593643606E+02  0.53004612087E+02  0.62500000161E+02  0.99999988858E+01 0.  0.
    3000022    2    3    3    0    0 -0.10700685638E+02 -0.11797646206E+02  0.28580634702E+02  0.32720090168E+02  0.24998300892E+00 0.  0.
    1000022    2    1    0    0    0  0.13385241321E+02  0.28593643606E+02 -0.53004612087E+02  0.62499999839E+02  0.99999968729E+01 0.  0.
    3000022    2    5    5    0    0  0.65744323689E+01  0.64912328083E+01 -0.97133285505E+01  0.13407852688E+02  0.24999564369E+00 0.  0.
        -13    1    4    4    0    0 -0.35711687188E+01 -0.39572025613E+01  0.94590242238E+01  0.10858032160E+02  0.10500000000E+00 0. -1.
         13    1    4    4    0    0 -0.71295169197E+01 -0.78404436450E+01  0.19121610478E+02  0.21862058008E+02  0.10500000000E+00 0.  1.
    3000001    1    5    5    0    0  0.68108089521E+01  0.22102410798E+02 -0.43291283537E+02  0.49092147151E+02  0.10000000000E+01 0.  1.
        -13    1    6    6    0    0  0.40297863639E+01  0.39117697650E+01 -0.59614982119E+01  0.81909466341E+01  0.10500000000E+00 0.  1.
         13    1    6    6    0    0  0.25446460050E+01  0.25794630433E+01 -0.37518303387E+01  0.52169060536E+01  0.10500000000E+00 0. -1.
</event>
<event>
11    0  0.3476221E-009  0.9118800E+02  0.7816531E-02  0.1126479E+00
         25   -1    0    0    0    0  0.00000000000E+00  0.00000000000E+00  0.99999998245E-14  0.12500000000E+03  0.12500000000E+03 0.  0.
    3000001    1    3    3    0    0  0.38412514459E+01 -0.15867800331E+01  0.61248349405E+01  0.74690485735E+01  0.10000000000E+01 0. -1.
    1000022    2    1    0    0    0  0.28541225051E+02 -0.36679400390E+02  0.40574252863E+02  0.62499999788E+02  0.10000001885E+02 0.  0.
    3000022    2    3    3    0    0  0.24699973605E+02 -0.35092620357E+02  0.34449417922E+02  0.55030951214E+02  0.24999348218E+00 0.  0.
    1000022    2    1    0    0    0 -0.28541225051E+02  0.36679400390E+02 -0.40574252863E+02  0.62500000212E+02  0.10000004537E+02 0.  0.
    3000022    2    5    5    0    0 -0.17208849065E+01  0.60077895363E+01 -0.25304807335E+01  0.67469110093E+01  0.24999089992E+00 0.  0.
        -13    1    4    4    0    0  0.17955080986E+02 -0.25552461406E+02  0.25105189060E+02  0.40069873469E+02  0.10500000000E+00 0.  1.
         13    1    4    4    0    0  0.67448926193E+01 -0.95401589516E+01  0.93442288622E+01  0.14961077745E+02  0.10500000000E+00 0. -1.
    3000001    1    5    5    0    0 -0.26820340144E+02  0.30671610854E+02 -0.38043772129E+02  0.55753089203E+02  0.10000000000E+01 0.  1.
        -13    1    6    6    0    0 -0.46636272798E+00  0.17775323819E+01 -0.76208188071E+00  0.19922121764E+01  0.10500000000E+00 0.  1.
         13    1    6    6    0    0 -0.12545221786E+01  0.42302571544E+01 -0.17683988528E+01  0.47546988329E+01  0.10500000000E+00 0. -1.
</event>
<event>
11    0  0.3476221E-009  0.9118800E+02  0.7816531E-02  0.1126479E+00
         25   -1    0    0    0    0  0.00000000000E+00  0.00000000000E+00  0.99999998245E-14  0.12500000000E+03  0.12500000000E+03 0.  0.
    3000001    1    3    3    0    0 -0.11022276288E+02 -0.44894466669E+02  0.19193604169E+02  0.50063940647E+02  0.10000000000E+01 0. -1.
    1000022    2    1    0    0    0 -0.96161327758E+01 -0.57039857824E+02  0.21453053807E+02  0.62499992150E+02  0.10000005551E+02 0.  0.
    3000022    2    3    3    0    0  0.14061435124E+01 -0.12145391155E+02  0.22594496377E+01  0.12436051504E+02  0.24999691189E+00 0.  0.
    1000022    2    1    0    0    0  0.96161327758E+01  0.57039857824E+02 -0.21453053807E+02  0.62500007850E+02  0.10000103674E+02 0.  0.
    3000022    2    5    5    0    0 -0.69924388423E+00  0.81851806799E+01 -0.61537905174E+01  0.10267317591E+02  0.25009601111E+00 0.  0.
        -13    1    4    4    0    0  0.10101718406E+01 -0.83328354414E+01  0.15309022279E+01  0.85329526116E+01  0.10500000000E+00 0.  1.
         13    1    4    4    0    0  0.39597167175E+00 -0.38125557133E+01  0.72854740984E+00  0.39030988919E+01  0.10500000000E+00 0. -1.
    3000001    1    5    5    0    0  0.10315376660E+02  0.48854677144E+02 -0.15299263289E+02  0.52232690259E+02  0.10000000000E+01 0. -1.
        -13    1    6    6    0    0 -0.48856219011E+00  0.50015666871E+01 -0.37762622850E+01  0.62869344027E+01  0.10500000000E+00 0.  1.
         13    1    6    6    0    0 -0.21068169412E+00  0.31836139927E+01 -0.23775282324E+01  0.39803831884E+01  0.10500000000E+00 0. -1.
</event>
<event>
11    0  0.3476221E-009  0.9118800E+02  0.7816531E-02  0.1126479E+00
         25   -1    0    0    0    0  0.00000000000E+00  0.00000000000E+00  0.99999998245E-14  0.12500000000E+03  0.12500000000E+03 0.  0.
    3000001    1    3    3    0    0  0.36987351769E+02 -0.19725399510E+02 -0.27924984670E+02  0.50378173305E+02  0.10000000000E+01 0. -1.
    1000022    2    1    0    0    0  0.47926179493E+02 -0.24407844017E+02 -0.30225626258E+02  0.62500000217E+02  0.10000000704E+02 0.  0.
    3000022    2    3    3    0    0  0.10938827723E+02 -0.46824445072E+01 -0.23006415882E+01  0.12121826912E+02  0.24999487763E+00 0.  0.
    1000022    2    1    0    0    0 -0.47926179493E+02  0.24407844017E+02  0.30225626258E+02  0.62499999783E+02  0.99999979972E+01 0.  0.
    3000022    2    5    5    0    0 -0.43624959712E+01 -0.67885598967E+00  0.22794123555E+01  0.49749799169E+01  0.24997586622E+00 0.  0.
        -13    1    4    4    0    0  0.46737456885E+01 -0.20690292141E+01 -0.96960493366E+00  0.52034545618E+01  0.10500000000E+00 0.  1.
         13    1    4    4    0    0  0.62650820346E+01 -0.26134152931E+01 -0.13310366546E+01  0.69183723498E+01  0.10500000000E+00 0. -1.
    3000001    1    5    5    0    0 -0.43563683521E+02  0.25086700007E+02  0.27946213902E+02  0.57525019867E+02  0.10000000000E+01 0. -1.
        -13    1    6    6    0    0 -0.16775270550E+01 -0.21504199643E+00  0.91978696661E+00  0.19280490513E+01  0.10500000000E+00 0. -1.
         13    1    6    6    0    0 -0.26849689163E+01 -0.46381399324E+00  0.13596253889E+01  0.30469308656E+01  0.10500000000E+00 0.  1.
</event>
<event>
11    0  0.3476221E-009  0.9118800E+02  0.7816531E-02  0.1126479E+00
         25   -1    0    0    0    0  0.00000000000E+00  0.00000000000E+00  0.99999998245E-14  0.12500000000E+03  0.12500000000E+03 0.  0.
    3000001    1    3    3    0    0 -0.48779471591E+01  0.27720077927E+01  0.86223941816E+01  0.10335573381E+02  0.10000000000E+01 0.  1.
    1000022    2    1    0    0    0 -0.11951608973E+02  0.66780512378E+01  0.60156568700E+02  0.62500001081E+02  0.10000002601E+02 0.  0.
    3000022    2    3    3    0    0 -0.70736618136E+01  0.39060434451E+01  0.51534174518E+02  0.52164427700E+02  0.25001432564E+00 0.  0.
    1000022    2    1    0    0    0  0.11951608973E+02 -0.66780512378E+01 -0.60156568700E+02  0.62499998919E+02  0.99999890858E+01 0.  0.
    3000022    2    5    5    0    0  0.78893628522E+01 -0.51757247660E+01 -0.54472456559E+02  0.55284185784E+02  0.25000219592E+00 0.  0.
        -13    1    4    4    0    0 -0.22271140961E+01  0.12858352398E+01  0.16481091281E+02  0.16680851425E+02  0.10500000000E+00 0. -1.
         13    1    4    4    0    0 -0.48465477175E+01  0.26202082053E+01  0.35053083237E+02  0.35483576275E+02  0.10500000000E+00 0.  1.
    3000001    1    5    5    0    0  0.40622461206E+01 -0.15023264718E+01 -0.56841121407E+01  0.72158131351E+01  0.10000000000E+01 0. -1.
        -13    1    6    6    0    0  0.59265765384E+01 -0.38564863557E+01 -0.40836431033E+02  0.41444202501E+02  0.10500000000E+00 0. -1.
         13    1    6    6    0    0  0.19627863137E+01 -0.13192384103E+01 -0.13636025526E+02  0.13839983282E+02  0.10500000000E+00 0.  1.
</event>
<event>
11    0  0.3476221E-009  0.9118800E+02  0.7816531E-02  0.1126479E+00
         25   -1    0    0    0    0  0.00000000000E+00  0.00000000000E+00  0.99999998245E-14  0.12500000000E+03  0.12500000000E+03 0.  0.
    3000001    1    3    3    0    0  0.29407442828E+01 -0.41965649929E+01 -0.48214794611E+01  0.71067431972E+01  0.10000000000E+01 0. -1.
    1000022    2    1    0    0    0  0.45891412752E+02 -0.32496971958E+02 -0.25380603493E+02  0.62500001511E+02  0.10000010217E+02 0.  0.
    3000022    2    3    3    0    0  0.42950668470E+02 -0.28300406965E+02 -0.20559124032E+02  0.55393258313E+02  0.25005853722E+00 0.  0.
    1000022    2    1    0    0    0 -0.45891412752E+02  0.32496971958E+02  0.25380603493E+02  0.62499998489E+02  0.99999913345E+01 0.  0.
    3000022    2    5    5    0    0 -0.19571173213E+02  0.16903273142E+02  0.16310742221E+02  0.30575386735E+02  0.24999674991E+00 0.  0.
        -13    1    4    4    0    0  0.21783730843E+02 -0.14312317181E+02 -0.10355096624E+02  0.28046611268E+02  0.10500000000E+00 0. -1.
         13    1    4    4    0    0  0.21166937627E+02 -0.13988089784E+02 -0.10204027408E+02  0.27346647046E+02  0.10500000000E+00 0.  1.
    3000001    1    5    5    0    0 -0.26320239539E+02  0.15593698815E+02  0.90698612724E+01  0.31924611754E+02  0.10000000000E+01 0. -1.
        -13    1    6    6    0    0 -0.59123234137E+01  0.51397844218E+01  0.49877392011E+01  0.92877079729E+01  0.10500000000E+00 0. -1.
         13    1    6    6    0    0 -0.13658849800E+02  0.11763488720E+02  0.11323003019E+02  0.21287678763E+02  0.10500000000E+00 0.  1.
</event>
<event>
11    0  0.3476221E-009  0.9118800E+02  0.7816531E-02  0.1126479E+00
         25   -1    0    0    0    0  0.00000000000E+00  0.00000000000E+00  0.99999998245E-14  0.12500000000E+03  0.12500000000E+03 0.  0.
    3000001    1    3    3    0    0 -0.11728181753E+02  0.27387738776E+02 -0.15351486288E+02  0.33530681678E+02  0.10000000000E+01 0. -1.
    1000022    2    1    0    0    0 -0.15521674811E+02  0.55001373694E+02 -0.23241699256E+02  0.62499999623E+02  0.99999935699E+01 0.  0.
    3000022    2    3    3    0    0 -0.37934930575E+01  0.27613634918E+02 -0.78902129678E+01  0.28969317945E+02  0.24999717007E+00 0.  0.
    1000022    2    1    0    0    0  0.15521674811E+02 -0.55001373694E+02  0.23241699256E+02  0.62500000377E+02  0.99999982875E+01 0.  0.
    3000022    2    5    5    0    0  0.11142992667E+01 -0.25280569392E+01  0.38051984715E+01  0.47090062345E+01  0.24993912324E+00 0.  0.
        -13    1    4    4    0    0 -0.19764943275E+01  0.14876343981E+02 -0.42389306834E+01  0.15594604785E+02  0.10500000000E+00 0. -1.
         13    1    4    4    0    0 -0.18169987301E+01  0.12737290937E+02 -0.36512822844E+01  0.13374713160E+02  0.10500000000E+00 0.  1.
    3000001    1    5    5    0    0  0.14407375544E+02 -0.52473316754E+02  0.19436500785E+02  0.57790994143E+02  0.10000000000E+01 0.  1.
        -13    1    6    6    0    0  0.64027227352E+00 -0.13730428750E+01  0.19854315817E+01  0.24996317501E+01  0.10500000000E+00 0.  1.
         13    1    6    6    0    0  0.47402699321E+00 -0.11550140642E+01  0.18197668898E+01  0.22093744843E+01  0.10500000000E+00 0. -1.
</event>
<event>
11    0  0.3476221E-009  0.9118800E+02  0.7816531E-02  0.1126479E+00
         25   -1    0    0    0    0  0.00000000000E+00  0.00000000000E+00  0.99999998245E-14  0.12500000000E+03  0.12500000000E+03 0.  0.
    3000001    1    3    3    0    0 -0.14034035850E+02 -0.46976151185E+01 -0.24116844188E+02  0.28313317072E+02  0.10000000000E+01 0.  1.
    1000022    2    1    0    0    0 -0.39340043833E+02 -0.10668423697E+02 -0.46311938533E+02  0.62500000275E+02  0.10000003539E+02 0.  0.
    3000022    2    3    3    0    0 -0.25306007983E+02 -0.59708085788E+01 -0.22195094345E+02  0.34186683203E+02  0.25000069371E+00 0.  0.
    1000022    2    1    0    0    0  0.39340043833E+02  0.10668423697E+02  0.46311938533E+02  0.62499999725E+02  0.10000000099E+02 0.  0.
    3000022    2    5    5    0    0  0.23757573676E+02  0.24189655184E+01  0.30957232625E+02  0.39098420078E+02  0.24999934767E+00 0.  0.
        -13    1    4    4    0    0 -0.16730195704E+02 -0.39808753135E+01 -0.14737214652E+02  0.22648252410E+02  0.10500000000E+00 0.  1.
         13    1    4    4    0    0 -0.85758122791E+01 -0.19899332652E+01 -0.74578796934E+01  0.11538430793E+02  0.10500000000E+00 0. -1.
    3000001    1    5    5    0    0  0.15582470157E+02  0.82494581788E+01  0.15354705908E+02  0.23401579647E+02  0.10000000000E+01 0.  1.
        -13    1    6    6    0    0  0.70861390022E+01  0.69331691811E+00  0.91722686709E+01  0.11611872884E+02  0.10500000000E+00 0. -1.
         13    1    6    6    0    0  0.16671434674E+02  0.17256486003E+01  0.21784963954E+02  0.27486547194E+02  0.10500000000E+00 0.  1.
</event>
<event>
11    0  0.3476221E-009  0.9118800E+02  0.7816531E-02  0.1126479E+00
         25   -1    0    0    0    0  0.00000000000E+00  0.00000000000E+00  0.99999998245E-14  0.12500000000E+03  0.12500000000E+03 0.  0.
    3000001    1    3    3    0    0 -0.63500477183E+01 -0.95042892136E+01  0.23799765153E+02  0.26421268721E+02  0.10000000000E+01 0. -1.
    1000022    2    1    0    0    0 -0.19173947808E+02 -0.11776754764E+02  0.57444912408E+02  0.62500001333E+02  0.99999988911E+01 0.  0.
    3000022    2    3    3    0    0 -0.12823900089E+02 -0.22724655500E+01  0.33645147254E+02  0.36078732612E+02  0.24999988750E+00 0.  0.
    1000022    2    1    0    0    0  0.19173947808E+02  0.11776754764E+02 -0.57444912408E+02  0.62499998667E+02  0.99999822273E+01 0.  0.
    3000022    2    5    5    0    0  0.13987773225E+02  0.60205445455E+01 -0.26314157240E+02  0.30403982089E+02  0.24999836195E+00 0.  0.
        -13    1    4    4    0    0 -0.75558355790E+01 -0.13230283412E+01  0.19987509276E+02  0.21409171104E+02  0.10500000000E+00 0. -1.
         13    1    4    4    0    0 -0.52680645104E+01 -0.94943720881E+00  0.13657637978E+02  0.14669561508E+02  0.10500000000E+00 0.  1.
    3000001    1    5    5    0    0  0.51861745825E+01  0.57562102181E+01 -0.31130755167E+02  0.32096016578E+02  0.10000000000E+01 0. -1.
        -13    1    6    6    0    0  0.88724950864E+01  0.37724777260E+01 -0.16576757593E+02  0.19176878644E+02  0.10500000000E+00 0. -1.
         13    1    6    6    0    0  0.51152781388E+01  0.22480668195E+01 -0.97373996473E+01  0.11227103445E+02  0.10500000000E+00 0.  1.
</event>
<event>
11    0  0.3476221E-009  0.9118800E+02  0.7816531E-02  0.1126479E+00
         25   -1    0    0    0    0  0.00000000000E+00  0.00000000000E+00  0.99999998245E-14  0.12500000000E+03  0.12500000000E+03 0.  0.
    3000001    1    3    3    0    0 -0.11061385394E+01 -0.43291308770E+02 -0.18531096127E+01  0.43356602412E+02  0.10000000000E+01 0. -1.
    1000022    2    1    0    0    0  0.46339546890E+01 -0.61516424705E+02 -0.71132537504E+00  0.62500000496E+02  0.10000001684E+02 0.  0.
    3000022    2    3    3    0    0  0.57400932284E+01 -0.18225115936E+02  0.11417842376E+01  0.19143398085E+02  0.24999568075E+00 0.  0.
    1000022    2    1    0    0    0 -0.46339546890E+01  0.61516424705E+02  0.71132537504E+00  0.62499999504E+02  0.99999954784E+01 0.  0.
    3000022    2    5    5    0    0 -0.65826337733E+01  0.25384040381E+02 -0.11853917680E+01  0.26251632877E+02  0.25000326906E+00 0.  0.
        -13    1    4    4    0    0  0.29882117732E+01 -0.93795497142E+01  0.52871839545E+00  0.98587996523E+01  0.10500000000E+00 0. -1.
         13    1    4    4    0    0  0.27518814552E+01 -0.88455662214E+01  0.61306584217E+00  0.92845984322E+01  0.10500000000E+00 0.  1.
    3000001    1    5    5    0    0  0.19486790843E+01  0.36132384325E+02  0.18967171430E+01  0.36248366626E+02  0.10000000000E+01 0.  1.
        -13    1    6    6    0    0 -0.22704883702E+01  0.86469685131E+01 -0.35637147787E+00  0.89478046210E+01  0.10500000000E+00 0.  1.
         13    1    6    6    0    0 -0.43121454031E+01  0.16737071868E+02 -0.82902029009E+00  0.17303828256E+02  0.10500000000E+00 0. -1.
</event>
<event>
11    0  0.3476221E-009  0.9118800E+02  0.7816531E-02  0.1126479E+00
         25   -1    0    0    0    0  0.00000000000E+00  0.00000000000E+00  0.99999998245E-14  0.12500000000E+03  0.12500000000E+03 0.  0.
    3000001    1    3    3    0    0  0.15168723571E+01  0.13266605604E+02  0.30249522590E+01  0.13727857159E+02  0.10000000000E+01 0. -1.
    1000022    2    1    0    0    0 -0.75887304833E+01  0.61177150305E+02  0.24530436159E+01  0.62499999590E+02  0.99999988038E+01 0.  0.
    3000022    2    3    3    0    0 -0.91056028404E+01  0.47910544701E+02 -0.57190864305E+00  0.48772142432E+02  0.25000257187E+00 0.  0.
    1000022    2    1    0    0    0  0.75887304833E+01 -0.61177150305E+02 -0.24530436159E+01  0.62500000410E+02  0.10000003923E+02 0.  0.
    3000022    2    5    5    0    0  0.49464047683E+01 -0.55059725060E+02  0.13384504367E+00  0.55282191203E+02  0.25001171319E+00 0.  0.
        -13    1    4    4    0    0 -0.40914611661E+01  0.21716915326E+02 -0.31588018451E+00  0.22101476671E+02  0.10500000000E+00 0.  1.
         13    1    4    4    0    0 -0.50141416743E+01  0.26193629375E+02 -0.25602845854E+00  0.26670665761E+02  0.10500000000E+00 0. -1.
    3000001    1    5    5    0    0  0.26423257149E+01 -0.61174252443E+01 -0.25868886596E+01  0.72178092064E+01  0.10000000000E+01 0. -1.
        -13    1    6    6    0    0  0.15594608066E+01 -0.17162587424E+02  0.87310157397E-01  0.17233832225E+02  0.10500000000E+00 0.  1.
         13    1    6    6    0    0  0.33869439617E+01 -0.37897137637E+02  0.46534886277E-01  0.38048358978E+02  0.10500000000E+00 0. -1.
</event>
<event>
11    0  0.3476221E-009  0.9118800E+02  0.7816531E-02  0.1126479E+00
         25   -1    0    0    0    0  0.00000000000E+00  0.00000000000E+00  0.99999998245E-14  0.12500000000E+03  0.12500000000E+03 0.  0.
    3000001    1    3    3    0    0 -0.27500832929E+02  0.15450781888E+02  0.39290497145E+02  0.50396087534E+02  0.10000000000E+01 0. -1.
    1000022    2    1    0    0    0 -0.37412793343E+02  0.19154101340E+02  0.45162521275E+02  0.62500000215E+02  0.99999997535E+01 0.  0.
    3000022    2    3    3    0    0 -0.99119604134E+01  0.37033194517E+01  0.58720241297E+01  0.12103912681E+02  0.25000122731E+00 0.  0.
    1000022    2    1    0    0    0  0.37412793343E+02 -0.19154101340E+02 -0.45162521275E+02  0.62499999785E+02  0.99999970695E+01 0.  0.
    3000022    2    5    5    0    0  0.15865737983E+02 -0.12487739431E+02 -0.25763891847E+02  0.32733864674E+02  0.24999110438E+00 0.  0.
        -13    1    4    4    0    0 -0.71829239146E+01  0.26622135646E+01  0.42131190013E+01  0.87431786980E+01  0.10500000000E+00 0.  1.
         13    1    4    4    0    0 -0.27290364988E+01  0.10411058871E+01  0.16589051284E+01  0.33607339831E+01  0.10500000000E+00 0. -1.
    3000001    1    5    5    0    0  0.21547055359E+02 -0.66663619087E+01 -0.19398629428E+02  0.29766135111E+02  0.10000000000E+01 0. -1.
        -13    1    6    6    0    0  0.78490144146E+01 -0.61742594240E+01 -0.12852767515E+02  0.16276767631E+02  0.10500000000E+00 0. -1.
         13    1    6    6    0    0  0.80167235689E+01 -0.63134800071E+01 -0.12911124332E+02  0.16457097043E+02  0.10500000000E+00 0.  1.
</event>
<event>
11    0  0.3476221E-009  0.9118800E+02  0.7816531E-02  0.1126479E+00
         25   -1    0    0    0    0  0.00000000000E+00  0.00000000000E+00  0.99999998245E-14  0.12500000000E+03  0.12500000000E+03 0.  0.
    3000001    1    3    3    0    0  0.11108400570E+02 -0.30599286590E+02 -0.11905770173E+02  0.34676508856E+02  0.10000000000E+01 0.  1.
    1000022    2    1    0    0    0  0.17164395358E+02 -0.51631641836E+02 -0.29082763470E+02  0.62499999789E+02  0.99999967956E+01 0.  0.
    3000022    2    3    3    0    0  0.60559947882E+01 -0.21032355246E+02 -0.17176993297E+02  0.27823490933E+02  0.25001780376E+00 0.  0.
    1000022    2    1    0    0    0 -0.17164395358E+02  0.51631641836E+02  0.29082763470E+02  0.62500000211E+02  0.99999994343E+01 0.  0.
    3000022    2    5    5    0    0 -0.12807064851E+01  0.80311488143E+01  0.83722453427E+01  0.11674611624E+02  0.25000823406E+00 0.  0.
        -13    1    4    4    0    0  0.29099965010E+01 -0.99661236002E+01 -0.82183613878E+01  0.13241759254E+02  0.10500000000E+00 0. -1.
         13    1    4    4    0    0  0.31459982873E+01 -0.11066231645E+02 -0.89586319094E+01  0.14581731678E+02  0.10500000000E+00 0.  1.
    3000001    1    5    5    0    0 -0.15883688873E+02  0.43600493021E+02  0.20710518127E+02  0.50825388587E+02  0.10000000000E+01 0. -1.
        -13    1    6    6    0    0 -0.72560597888E+00  0.49374997507E+01  0.51238677970E+01  0.71533526424E+01  0.10500000000E+00 0.  1.
         13    1    6    6    0    0 -0.55510050625E+00  0.30936490636E+01  0.32483775456E+01  0.45212589817E+01  0.10500000000E+00 0. -1.
</event>
<event>
11    0  0.3476221E-009  0.9118800E+02  0.7816531E-02  0.1126479E+00
         25   -1    0    0    0    0  0.00000000000E+00  0.00000000000E+00  0.99999998245E-14  0.12500000000E+03  0.12500000000E+03 0.  0.
    3000001    1    3    3    0    0 -0.22197099757E+02 -0.13628371327E+02  0.28471206661E+02  0.38601209196E+02  0.10000000000E+01 0. -1.
    1000022    2    1    0    0    0 -0.37260428972E+02 -0.27559193203E+02  0.40723475527E+02  0.62500001266E+02  0.10000000107E+02 0.  0.
    3000022    2    3    3    0    0 -0.15063329215E+02 -0.13930821876E+02  0.12252268867E+02  0.23898792071E+02  0.24996979979E+00 0.  0.
    1000022    2    1    0    0    0  0.37260428972E+02  0.27559193203E+02 -0.40723475527E+02  0.62499998734E+02  0.99999842774E+01 0.  0.
    3000022    2    5    5    0    0  0.36100589024E+02  0.28139622253E+02 -0.39386907171E+02  0.60386106220E+02  0.24999915965E+00 0.  0.
        -13    1    4    4    0    0 -0.74387068100E+01 -0.69708838380E+01  0.60985741901E+01  0.11879865851E+02  0.10500000000E+00 0. -1.
         13    1    4    4    0    0 -0.76246224046E+01 -0.69599380376E+01  0.61536946766E+01  0.12018926220E+02  0.10500000000E+00 0.  1.
    3000001    1    5    5    0    0  0.11598399479E+01 -0.58042904988E+00 -0.13365683565E+01  0.21138925134E+01  0.10000000000E+01 0.  1.
        -13    1    6    6    0    0  0.19039240302E+02  0.14815779333E+02 -0.20844402494E+02  0.31882599154E+02  0.10500000000E+00 0.  1.
         13    1    6    6    0    0  0.17061348722E+02  0.13323842920E+02 -0.18542504677E+02  0.28503507066E+02  0.10500000000E+00 0. -1.
</event>
<event>
11    0  0.3476221E-009  0.9118800E+02  0.7816531E-02  0.1126479E+00
         25   -1    0    0    0    0  0.00000000000E+00  0.00000000000E+00  0.99999998245E-14  0.12500000000E+03  0.12500000000E+03 0.  0.
    3000001    1    3    3    0    0 -0.41564365215E+01  0.24376409408E+02  0.61403593353E+01  0.25498810030E+02  0.10000000000E+01 0.  1.
    1000022    2    1    0    0    0 -0.12797343569E+02  0.54702615058E+02  0.25497075579E+02  0.62500012649E+02  0.10000131071E+02 0.  0.
    3000022    2    3    3    0    0 -0.86409070477E+01  0.30326205650E+02  0.19356716244E+02  0.37001202619E+02  0.25001555685E+00 0.  0.
    1000022    2    1    0    0    0  0.12797343569E+02 -0.54702615058E+02 -0.25497075579E+02  0.62499987351E+02  0.99999729608E+01 0.  0.
    3000022    2    5    5    0    0 -0.15377029211E+01 -0.94929265989E+01 -0.45863334713E+01  0.10657257640E+02  0.25000000870E+00 0.  0.
        -13    1    4    4    0    0 -0.28363687676E+01  0.98053135029E+01  0.62290754565E+01  0.11958326251E+02  0.10500000000E+00 0. -1.
         13    1    4    4    0    0 -0.58045382801E+01  0.20520892147E+02  0.13127640787E+02  0.25042876368E+02  0.10500000000E+00 0.  1.
    3000001    1    5    5    0    0  0.14335046490E+02 -0.45209688459E+02 -0.20910742108E+02  0.51842729711E+02  0.10000000000E+01 0. -1.
        -13    1    6    6    0    0 -0.76820716624E+00 -0.45424610617E+01 -0.22631457281E+01  0.51339018625E+01  0.10500000000E+00 0. -1.
         13    1    6    6    0    0 -0.76949575486E+00 -0.49504655371E+01 -0.23231877432E+01  0.55233557772E+01  0.10500000000E+00 0.  1.
</event>
<event>
11    0  0.3476221E-009  0.9118800E+02  0.7816531E-02  0.1126479E+00
         25   -1    0    0    0    0  0.00000000000E+00  0.00000000000E+00  0.99999998245E-14  0.12500000000E+03  0.12500000000E+03 0.  0.
    3000001    1    3    3    0    0 -0.17412960248E+02  0.90348581511E+01  0.76428672592E+01  0.21077316393E+02  0.10000000000E+01 0.  1.
    1000022    2    1    0    0    0 -0.52859510806E+02  0.30394761005E+02  0.93957803170E+01  0.62499998618E+02  0.99999880168E+01 0.  0.
    3000022    2    3    3    0    0 -0.35446550558E+02  0.21359902854E+02  0.17529130578E+01  0.41422682225E+02  0.25000426103E+00 0.  0.
    1000022    2    1    0    0    0  0.52859510806E+02 -0.30394761005E+02 -0.93957803170E+01  0.62500001382E+02  0.10000005288E+02 0.  0.
    3000022    2    5    5    0    0  0.18480323406E+02 -0.15720608365E+02 -0.57028424222E+01  0.24924782523E+02  0.24998316842E+00 0.  0.
        -13    1    4    4    0    0 -0.19683103351E+02  0.11919996808E+02  0.10176559471E+01  0.23033834463E+02  0.10500000000E+00 0. -1.
         13    1    4    4    0    0 -0.15763447207E+02  0.94399060459E+01  0.73525711063E+00  0.18388847762E+02  0.10500000000E+00 0.  1.
    3000001    1    5    5    0    0  0.34379187400E+02 -0.14674152641E+02 -0.36929378948E+01  0.37575218859E+02  0.10000000000E+01 0. -1.
        -13    1    6    6    0    0  0.71555537669E+01 -0.60106993423E+01 -0.21761253392E+01  0.95956762548E+01  0.10500000000E+00 0. -1.
         13    1    6    6    0    0  0.11324769639E+02 -0.97099090223E+01 -0.35267170830E+01  0.15329106268E+02  0.10500000000E+00 0.  1.
</event>
<event>
11    0  0.3476221E-009  0.9118800E+02  0.7816531E-02  0.1126479E+00
         25   -1    0    0    0    0  0.00000000000E+00  0.00000000000E+00  0.99999998245E-14  0.12500000000E+03  0.12500000000E+03 0.  0.
    3000001    1    3    3    0    0 -0.23559094162E+02  0.34400064533E+01  0.50179976981E+02  0.55550829444E+02  0.10000000000E+01 0. -1.
    1000022    2    1    0    0    0 -0.27569760020E+02  0.77961039792E+00  0.55186510502E+02  0.62500003826E+02  0.10000003847E+02 0.  0.
    3000022    2    3    3    0    0 -0.40106658576E+01 -0.26603960554E+01  0.50065335204E+01  0.69491743812E+01  0.24999779167E+00 0.  0.
    1000022    2    1    0    0    0  0.27569760020E+02 -0.77961039792E+00 -0.55186510502E+02  0.62499996174E+02  0.99999560280E+01 0.  0.
    3000022    2    5    5    0    0  0.20564441495E+02 -0.30339539595E+01 -0.32058200659E+02  0.38208531239E+02  0.24999867109E+00 0.  0.
        -13    1    4    4    0    0 -0.28896386618E+01 -0.18718169372E+01  0.36035973706E+01  0.49850425526E+01  0.10500000000E+00 0. -1.
         13    1    4    4    0    0 -0.11210271959E+01 -0.78857911820E+00  0.14029361498E+01  0.19641318286E+01  0.10500000000E+00 0. -1.
    3000001    1    5    5    0    0  0.70053185243E+01  0.22543435616E+01 -0.23128309843E+02  0.24291464935E+02  0.10000000000E+01 0. -1.
        -13    1    6    6    0    0  0.13100927960E+02 -0.19283093171E+01 -0.20528840082E+02  0.24429428776E+02  0.10500000000E+00 0.  1.
         13    1    6    6    0    0  0.74635135354E+01 -0.11056446424E+01 -0.11529360577E+02  0.13779102463E+02  0.10500000000E+00 0. -1.
</event>
<event>
11    0  0.3476221E-009  0.9118800E+02  0.7816531E-02  0.1126479E+00
         25   -1    0    0    0    0  0.00000000000E+00  0.00000000000E+00  0.99999998245E-14  0.12500000000E+03  0.12500000000E+03 0.  0.
    3000001    1    3    3    0    0  0.16728197930E+02  0.38349843755E+02  0.45356624063E+02  0.61715204516E+02  0.10000000000E+01 0. -1.
    1000022    2    1    0    0    0  0.17382526176E+02  0.37997536087E+02  0.45390361070E+02  0.62500001028E+02  0.10000014278E+02 0.  0.
    3000022    2    3    3    0    0  0.65432824601E+00 -0.35230766791E+00  0.33737006816E-01  0.78479651276E+00  0.25000246884E+00 0.  0.
    1000022    2    1    0    0    0 -0.17382526176E+02 -0.37997536087E+02 -0.45390361070E+02  0.62499998972E+02  0.10000001424E+02 0.  0.
    3000022    2    5    5    0    0 -0.14856334517E+02 -0.37136960862E+02 -0.43416749377E+02  0.59033390092E+02  0.24996380709E+00 0.  0.
        -13    1    4    4    0    0  0.24120763804E+00 -0.19295176290E+00 -0.18316968263E-01  0.32675987939E+00  0.10500000000E+00 0.  1.
         13    1    4    4    0    0  0.41312060797E+00 -0.15935590501E+00  0.52053975080E-01  0.45803663337E+00  0.10500000000E+00 0. -1.
    3000001    1    5    5    0    0 -0.25261916583E+01 -0.86057522494E+00 -0.19736116928E+01  0.34666088799E+01  0.10000000000E+01 0.  1.
        -13    1    6    6    0    0 -0.97843069597E+01 -0.24312657822E+02 -0.28466187157E+02  0.38693317631E+02  0.10500000000E+00 0. -1.
         13    1    6    6    0    0 -0.50720275577E+01 -0.12824303040E+02 -0.14950562220E+02  0.20340072461E+02  0.10500000000E+00 0.  1.
</event>
<event>
11    0  0.3476221E-009  0.9118800E+02  0.7816531E-02  0.1126479E+00
         25   -1    0    0    0    0  0.00000000000E+00  0.00000000000E+00  0.99999998245E-14  0.12500000000E+03  0.12500000000E+03 0.  0.
    3000001    1    3    3    0    0  0.34120906680E+02 -0.54339501160E-02  0.28361672492E+02  0.44380409741E+02  0.10000000000E+01 0. -1.
    1000022    2    1    0    0    0  0.43750591216E+02  0.31219538854E+01  0.43386508613E+02  0.62500000669E+02  0.10000006309E+02 0.  0.
    3000022    2    3    3    0    0  0.96296845359E+01  0.31273878355E+01  0.15024836121E+02  0.18119590928E+02  0.24999203646E+00 0.  0.
    1000022    2    1    0    0    0 -0.43750591216E+02 -0.31219538854E+01 -0.43386508613E+02  0.62499999331E+02  0.99999979506E+01 0.  0.
    3000022    2    5    5    0    0  0.42350111198E+00 -0.51995239312E+00 -0.53650830692E+00  0.89445273880E+00  0.25000171117E+00 0.  0.
        -13    1    4    4    0    0  0.72068013156E+01  0.23686892222E+01  0.11253510481E+02  0.13572074159E+02  0.10500000000E+00 0.  1.
         13    1    4    4    0    0  0.24228832203E+01  0.75869861333E+00  0.37713256392E+01  0.45475167687E+01  0.10500000000E+00 0. -1.
    3000001    1    5    5    0    0 -0.44174092328E+02 -0.26020014923E+01 -0.42850000306E+02  0.61605546592E+02  0.10000000000E+01 0. -1.
        -13    1    6    6    0    0  0.82010058418E-01 -0.15742833506E+00 -0.14029290640E+00  0.24943221514E+00  0.10500000000E+00 0. -1.
         13    1    6    6    0    0  0.34149105356E+00 -0.36252405806E+00 -0.39621540052E+00  0.64502052366E+00  0.10500000000E+00 0.  1.
</event>
<event>
11    0  0.3476221E-009  0.9118800E+02  0.7816531E-02  0.1126479E+00
         25   -1    0    0    0    0  0.00000000000E+00  0.00000000000E+00  0.99999998245E-14  0.12500000000E+03  0.12500000000E+03 0.  0.
    3000001    1    3    3    0    0  0.36968495104E+02  0.12910982982E+02  0.15075307945E+01  0.39199945930E+02  0.10000000000E+01 0. -1.
    1000022    2    1    0    0    0  0.55727847734E+02  0.26437359763E+02 -0.13127119920E+01  0.62499998514E+02  0.99999798617E+01 0.  0.
    3000022    2    3    3    0    0  0.18759352629E+02  0.13526376781E+02 -0.28202427865E+01  0.23300052584E+02  0.25000228626E+00 0.  0.
    1000022    2    1    0    0    0 -0.55727847734E+02 -0.26437359763E+02  0.13127119920E+01  0.62500001486E+02  0.99999984342E+01 0.  0.
    3000022    2    5    5    0    0 -0.24329629927E+02 -0.11457127078E+02  0.54868368908E+01  0.27447487005E+02  0.25002114957E+00 0.  0.
        -13    1    4    4    0    0  0.10033226582E+02  0.72122871380E+01 -0.14414635402E+01  0.12440721987E+02  0.10500000000E+00 0. -1.
         13    1    4    4    0    0  0.87261260470E+01  0.63140896432E+01 -0.13787792463E+01  0.10859330597E+02  0.10500000000E+00 0.  1.
    3000001    1    5    5    0    0 -0.31398217807E+02 -0.14980232685E+02 -0.41741248988E+01  0.35052514481E+02  0.10000000000E+01 0.  1.
        -13    1    6    6    0    0 -0.13848911868E+02 -0.65940338484E+01  0.31280867661E+01  0.15654698788E+02  0.10500000000E+00 0.  1.
         13    1    6    6    0    0 -0.10480718058E+02 -0.48630932296E+01  0.23587501246E+01  0.11792788217E+02  0.10500000000E+00 0. -1.
</event>
<event>
11    0  0.3476221E-009  0.9118800E+02  0.7816531E-02  0.1126479E+00
         25   -1    0    0    0    0  0.00000000000E+00  0.00000000000E+00  0.99999998245E-14  0.12500000000E+03  0.12500000000E+03 0.  0.
    3000001    1    3    3    0    0 -0.11256090634E+02 -0.25842170149E+02 -0.63462652205E+01  0.28910074656E+02  0.10000000000E+01 0.  1.
    1000022    2    1    0    0    0 -0.19631076075E+02 -0.53756717632E+02 -0.23045324047E+02  0.62500004813E+02  0.99999901379E+01 0.  0.
    3000022    2    3    3    0    0 -0.83749854408E+01 -0.27914547483E+02 -0.16699058827E+02  0.33589930157E+02  0.24999986768E+00 0.  0.
    1000022    2    1    0    0    0  0.19631076075E+02  0.53756717632E+02  0.23045324047E+02  0.62499995187E+02  0.99999299811E+01 0.  0.
    3000022    2    5    5    0    0  0.14421679795E+02  0.28625457421E+02  0.93395000906E+01  0.33386979891E+02  0.25000716189E+00 0.  0.
        -13    1    4    4    0    0 -0.38822831457E+01 -0.12716983702E+02 -0.76409095195E+01  0.15335850814E+02  0.10500000000E+00 0.  1.
         13    1    4    4    0    0 -0.44927022951E+01 -0.15197563781E+02 -0.90581493072E+01  0.18254079343E+02  0.10500000000E+00 0. -1.
    3000001    1    5    5    0    0  0.52093962798E+01  0.25131260210E+02  0.13705823957E+02  0.29113015297E+02  0.10000000000E+01 0.  1.
        -13    1    6    6    0    0  0.83637495029E+01  0.16586503119E+02  0.53453269652E+01  0.19329975086E+02  0.10500000000E+00 0. -1.
         13    1    6    6    0    0  0.60579302919E+01  0.12038954303E+02  0.39941731254E+01  0.14057004805E+02  0.10500000000E+00 0.  1.
</event>
<event>
11    0  0.3476221E-009  0.9118800E+02  0.7816531E-02  0.1126479E+00
         25   -1    0    0    0    0  0.00000000000E+00  0.00000000000E+00  0.99999998245E-14  0.12500000000E+03  0.12500000000E+03 0.  0.
    3000001    1    3    3    0    0  0.53688953316E+00 -0.40431356846E+01  0.17347088557E+01  0.45436121477E+01  0.10000000000E+01 0.  1.
    1000022    2    1    0    0    0 -0.13264364269E+02 -0.60229056652E+02 -0.16635342495E+01  0.62499999993E+02  0.10000001416E+02 0.  0.
    3000022    2    3    3    0    0 -0.13801253802E+02 -0.56185920967E+02 -0.33982431052E+01  0.57956387845E+02  0.25002888527E+00 0.  0.
    1000022    2    1    0    0    0  0.13264364269E+02  0.60229056652E+02  0.16635342495E+01  0.62500000007E+02  0.10000001503E+02 0.  0.
    3000022    2    5    5    0    0  0.37042344994E+01  0.38777987813E+02  0.34612191336E+00  0.38956847907E+02  0.25001285042E+00 0.  0.
        -13    1    4    4    0    0 -0.54947556512E+01 -0.22468176348E+02 -0.12999875943E+01  0.23167051621E+02  0.10500000000E+00 0. -1.
         13    1    4    4    0    0 -0.83064981508E+01 -0.33717744619E+02 -0.20982555109E+01  0.34789336224E+02  0.10500000000E+00 0.  1.
    3000001    1    5    5    0    0  0.95601297696E+01  0.21451068839E+02  0.13174123361E+01  0.23543152100E+02  0.10000000000E+01 0.  1.
        -13    1    6    6    0    0  0.23984832965E+01  0.25545783340E+02  0.26403739604E+00  0.25659705948E+02  0.10500000000E+00 0. -1.
         13    1    6    6    0    0  0.13057512029E+01  0.13232204473E+02  0.82084517318E-01  0.13297141959E+02  0.10500000000E+00 0.  1.
</event>
<event>
11    0  0.3476221E-009  0.9118800E+02  0.7816531E-02  0.1126479E+00
         25   -1    0    0    0    0  0.00000000000E+00  0.00000000000E+00  0.99999998245E-14  0.12500000000E+03  0.12500000000E+03 0.  0.
    3000001    1    3    3    0    0 -0.19575002277E+01 -0.52503266514E+01  0.13131740427E-01  0.56919161563E+01  0.10000000000E+01 0. -1.
    1000022    2    1    0    0    0 -0.45837327931E+02 -0.41065333911E+02 -0.43390798504E+01  0.62499999043E+02  0.99999992664E+01 0.  0.
    3000022    2    3    3    0    0 -0.43879827704E+02 -0.35815007259E+02 -0.43522115909E+01  0.56808082887E+02  0.25002246423E+00 0.  0.
    1000022    2    1    0    0    0  0.45837327931E+02  0.41065333911E+02  0.43390798504E+01  0.62500000957E+02  0.10000011228E+02 0.  0.
    3000022    2    5    5    0    0  0.18975140477E+02  0.14600585675E+02 -0.28049548083E+01  0.24107329192E+02  0.24998226259E+00 0.  0.
        -13    1    4    4    0    0 -0.10957064740E+02 -0.89360342129E+01 -0.11120781955E+01  0.14183008076E+02  0.10500000000E+00 0. -1.
         13    1    4    4    0    0 -0.32922762964E+02 -0.26878973047E+02 -0.32401333953E+01  0.42625074811E+02  0.10500000000E+00 0.  1.
    3000001    1    5    5    0    0  0.26862187455E+02  0.26464748236E+02  0.71440346587E+01  0.38392671765E+02  0.10000000000E+01 0. -1.
        -13    1    6    6    0    0  0.80311160527E+01  0.61585371075E+01 -0.12489414952E+01  0.10197905874E+02  0.10500000000E+00 0.  1.
         13    1    6    6    0    0  0.10944024424E+02  0.84420485670E+01 -0.15560133131E+01  0.13909423318E+02  0.10500000000E+00 0. -1.
</event>
<event>
11    0  0.3476221E-009  0.9118800E+02  0.7816531E-02  0.1126479E+00
         25   -1    0    0    0    0  0.00000000000E+00  0.00000000000E+00  0.99999998245E-14  0.12500000000E+03  0.12500000000E+03 0.  0.
    3000001    1    3    3    0    0 -0.46137955858E+02 -0.15559551280E+01  0.36221366217E+02  0.58686619750E+02  0.10000000000E+01 0.  1.
    1000022    2    1    0    0    0 -0.47067235776E+02 -0.10269546589E+01  0.39873198549E+02  0.62499988383E+02  0.99998632917E+01 0.  0.
    3000022    2    3    3    0    0 -0.92927991806E+00  0.52900046909E+00  0.36518323329E+01  0.38133686329E+01  0.24999656059E+00 0.  0.
    1000022    2    1    0    0    0  0.47067235776E+02  0.10269546589E+01 -0.39873198549E+02  0.62500011617E+02  0.10000008507E+02 0.  0.
    3000022    2    5    5    0    0  0.44078288059E+02  0.27472208242E+01 -0.38703367261E+02  0.58723554365E+02  0.24999892136E+00 0.  0.
        -13    1    4    4    0    0 -0.27991010616E+00  0.12240522374E+00  0.11771104682E+01  0.12206337537E+01  0.10500000000E+00 0. -1.
         13    1    4    4    0    0 -0.64936981191E+00  0.40659524535E+00  0.24747218647E+01  0.25927348792E+01  0.10500000000E+00 0.  1.
    3000001    1    5    5    0    0  0.29889477167E+01 -0.17202661653E+01 -0.11698312885E+01  0.37764572520E+01  0.10000000000E+01 0. -1.
        -13    1    6    6    0    0  0.18307193718E+02  0.11017197428E+01 -0.16004799322E+02  0.24341975158E+02  0.10500000000E+00 0.  1.
         13    1    6    6    0    0  0.25771094341E+02  0.16455010813E+01 -0.22698567939E+02  0.34381579208E+02  0.10500000000E+00 0. -1.
</event>
<event>
11    0  0.3476221E-009  0.9118800E+02  0.7816531E-02  0.1126479E+00
         25   -1    0    0    0    0  0.00000000000E+00  0.00000000000E+00  0.99999998245E-14  0.12500000000E+03  0.12500000000E+03 0.  0.
    3000001    1    3    3    0    0 -0.44615572485E+02  0.10073313777E+02 -0.24890805645E+02  0.52082369035E+02  0.10000000000E+01 0.  1.
    1000022    2    1    0    0    0 -0.52450174350E+02  0.80919909839E+01 -0.31460274407E+02  0.62500000532E+02  0.10000004662E+02 0.  0.
    3000022    2    3    3    0    0 -0.78346018655E+01 -0.19813227934E+01 -0.65694687616E+01  0.10417631497E+02  0.24999958729E+00 0.  0.
    1000022    2    1    0    0    0  0.52450174350E+02 -0.80919909839E+01  0.31460274407E+02  0.62499999468E+02  0.99999980164E+01 0.  0.
    3000022    2    5    5    0    0  0.50157020558E+02 -0.92976384121E+01  0.28469545217E+02  0.58418749523E+02  0.24999915198E+00 0.  0.
        -13    1    4    4    0    0 -0.19375402433E+01 -0.47187566002E+00 -0.16008160089E+01  0.25593682281E+01  0.10500000000E+00 0.  1.
         13    1    4    4    0    0 -0.58970616222E+01 -0.15094471334E+01 -0.49686527528E+01  0.78582632688E+01  0.10500000000E+00 0. -1.
    3000001    1    5    5    0    0  0.22931537921E+01  0.12056474282E+01  0.29907291894E+01  0.40812499457E+01  0.10000000000E+01 0. -1.
        -13    1    6    6    0    0  0.19434135314E+02 -0.36570434951E+01  0.11001548631E+02  0.22629729999E+02  0.10500000000E+00 0.  1.
         13    1    6    6    0    0  0.30722885244E+02 -0.56405949170E+01  0.17467996586E+02  0.35789019524E+02  0.10500000000E+00 0. -1.
</event>
<event>
11    0  0.3476221E-009  0.9118800E+02  0.7816531E-02  0.1126479E+00
         25   -1    0    0    0    0  0.00000000000E+00  0.00000000000E+00  0.99999998245E-14  0.12500000000E+03  0.12500000000E+03 0.  0.
    3000001    1    3    3    0    0 -0.18206554861E+02 -0.17778829588E+01 -0.23531518433E+02  0.29822338397E+02  0.10000000000E+01 0.  1.
    1000022    2    1    0    0    0 -0.31224494328E+02  0.29498743221E+01 -0.53127949172E+02  0.62500001321E+02  0.10000018865E+02 0.  0.
    3000022    2    3    3    0    0 -0.13017939468E+02  0.47277572809E+01 -0.29596430739E+02  0.32677662923E+02  0.25000955104E+00 0.  0.
    1000022    2    1    0    0    0  0.31224494328E+02 -0.29498743221E+01  0.53127949172E+02  0.62499998679E+02  0.10000002357E+02 0.  0.
    3000022    2    5    5    0    0  0.20485729508E+02 -0.28069832357E+01  0.25432685304E+02  0.32778472332E+02  0.24999654047E+00 0.  0.
        -13    1    4    4    0    0 -0.47945383711E+01  0.17900512533E+01 -0.10848007993E+02  0.11995090000E+02  0.10500000000E+00 0.  1.
         13    1    4    4    0    0 -0.82234010967E+01  0.29377060277E+01 -0.18748422746E+02  0.20682572924E+02  0.10500000000E+00 0. -1.
    3000001    1    5    5    0    0  0.10738764821E+02 -0.14289108646E+00  0.27695263868E+02  0.29721526348E+02  0.10000000000E+01 0.  1.
        -13    1    6    6    0    0  0.12060521837E+02 -0.17082377348E+01  0.14930303706E+02  0.19269127041E+02  0.10500000000E+00 0.  1.
         13    1    6    6    0    0  0.84252076704E+01 -0.10987455009E+01  0.10502381598E+02  0.13509345291E+02  0.10500000000E+00 0. -1.
</event>
<event>
11    0  0.3476221E-009  0.9118800E+02  0.7816531E-02  0.1126479E+00
         25   -1    0    0    0    0  0.00000000000E+00  0.00000000000E+00  0.99999998245E-14  0.12500000000E+03  0.12500000000E+03 0.  0.
    3000001    1    3    3    0    0 -0.19839201137E+01 -0.19579136475E+02 -0.37214927738E+02  0.42109730119E+02  0.10000000000E+01 0. -1.
    1000022    2    1    0    0    0 -0.33211605539E+00 -0.34150900034E+02 -0.51379526032E+02  0.62499999570E+02  0.99999988413E+01 0.  0.
    3000022    2    3    3    0    0  0.16518040583E+01 -0.14571763559E+02 -0.14164598293E+02  0.20390269451E+02  0.24998721924E+00 0.  0.
    1000022    2    1    0    0    0  0.33211605539E+00  0.34150900034E+02  0.51379526032E+02  0.62500000430E+02  0.10000004214E+02 0.  0.
    3000022    2    5    5    0    0 -0.83481280998E+00  0.11024135981E+02  0.25289338029E+02  0.27601478276E+02  0.24999699806E+00 0.  0.
        -13    1    4    4    0    0  0.61948388915E+00 -0.55435707442E+01 -0.53044851539E+01  0.76982806284E+01  0.10500000000E+00 0.  1.
         13    1    4    4    0    0  0.10323201692E+01 -0.90281928150E+01 -0.88601131392E+01  0.12691988823E+02  0.10500000000E+00 0. -1.
    3000001    1    5    5    0    0  0.11669288654E+01  0.23126764053E+02  0.26090188003E+02  0.34898522154E+02  0.10000000000E+01 0. -1.
        -13    1    6    6    0    0 -0.41311724368E+00  0.56288956540E+01  0.13076226484E+02  0.14242677284E+02  0.10500000000E+00 0.  1.
         13    1    6    6    0    0 -0.42169556631E+00  0.53952403271E+01  0.12213111545E+02  0.13358800992E+02  0.10500000000E+00 0. -1.
</event>
<event>
11    0  0.3476221E-009  0.9118800E+02  0.7816531E-02  0.1126479E+00
         25   -1    0    0    0    0  0.00000000000E+00  0.00000000000E+00  0.99999998245E-14  0.12500000000E+03  0.12500000000E+03 0.  0.
    3000001    1    3    3    0    0  0.33042560956E+02  0.29276683215E+02 -0.13102400882E+02  0.46060915357E+02  0.10000000000E+01 0.  1.
    1000022    2    1    0    0    0  0.40151207721E+02  0.42109492972E+02 -0.20516376497E+02  0.62499996890E+02  0.99999513430E+01 0.  0.
    3000022    2    3    3    0    0  0.71086467646E+01  0.12832809757E+02 -0.74139756146E+01  0.16439081533E+02  0.25000430922E+00 0.  0.
    1000022    2    1    0    0    0 -0.40151207721E+02 -0.42109492972E+02  0.20516376497E+02  0.62500003110E+02  0.99999902218E+01 0.  0.
    3000022    2    5    5    0    0 -0.18161702851E+02 -0.19488422039E+02  0.42023915804E+01  0.26969772623E+02  0.24999274167E+00 0.  0.
        -13    1    4    4    0    0  0.51598602444E+01  0.92338899840E+01 -0.53414742129E+01  0.11850369351E+02  0.10500000000E+00 0.  1.
         13    1    4    4    0    0  0.19487865202E+01  0.35989197731E+01 -0.20725014017E+01  0.45887121825E+01  0.10500000000E+00 0. -1.
    3000001    1    5    5    0    0 -0.21989504870E+02 -0.22621070934E+02  0.16313984916E+02  0.35530230487E+02  0.10000000000E+01 0.  1.
        -13    1    6    6    0    0 -0.59142942032E+01 -0.64161255877E+01  0.13987236836E+01  0.88381557139E+01  0.10500000000E+00 0.  1.
         13    1    6    6    0    0 -0.12247408647E+02 -0.13072296451E+02  0.28036678968E+01  0.18131616910E+02  0.10500000000E+00 0. -1.
</event>
<event>
11    0  0.3476221E-009  0.9118800E+02  0.7816531E-02  0.1126479E+00
         25   -1    0    0    0    0  0.00000000000E+00  0.00000000000E+00  0.99999998245E-14  0.12500000000E+03  0.12500000000E+03 0.  0.
    3000001    1    3    3    0    0 -0.56170541995E+02  0.25967039600E+02 -0.58305204522E+00  0.61893108528E+02  0.10000000000E+01 0.  1.
    1000022    2    1    0    0    0 -0.55807476336E+02  0.26299553942E+02 -0.33118474365E+00  0.62499995023E+02  0.99999370993E+01 0.  0.
    3000022    2    3    3    0    0  0.36306565923E+00  0.33251434205E+00  0.25186730157E+00  0.60688649450E+00  0.24998323750E+00 0.  0.
    1000022    2    1    0    0    0  0.55807476336E+02 -0.26299553942E+02  0.33118474365E+00  0.62500004977E+02  0.99999993128E+01 0.  0.
    3000022    2    5    5    0    0  0.17484606029E+02 -0.84958254325E+01 -0.45041541205E+01  0.19955961453E+02  0.24999084125E+00 0.  0.
        -13    1    4    4    0    0  0.18380974299E+00  0.19665418132E+00  0.20500856845E+00  0.35427729505E+00  0.10500000000E+00 0.  1.
         13    1    4    4    0    0  0.17925591624E+00  0.13586016073E+00  0.46858733116E-01  0.25260919945E+00  0.10500000000E+00 0. -1.
    3000001    1    5    5    0    0  0.38322870307E+02 -0.17803728510E+02  0.48353388642E+01  0.42544043524E+02  0.10000000000E+01 0.  1.
        -13    1    6    6    0    0  0.81133886352E+01 -0.40063009958E+01 -0.20608212285E+01  0.92809230118E+01  0.10500000000E+00 0.  1.
         13    1    6    6    0    0  0.93712173937E+01 -0.44895244367E+01 -0.24433328920E+01  0.10675038442E+02  0.10500000000E+00 0. -1.
</event>
<event>
11    0  0.3476221E-009  0.9118800E+02  0.7816531E-02  0.1126479E+00
         25   -1    0    0    0    0  0.00000000000E+00  0.00000000000E+00  0.99999998245E-14  0.12500000000E+03  0.12500000000E+03 0.  0.
    3000001    1    3    3    0    0  0.20400966325E+02 -0.30147526149E+02  0.46000443007E+02  0.58669528008E+02  0.10000000000E+01 0. -1.
    1000022    2    1    0    0    0  0.19205565674E+02 -0.32086607288E+02  0.49069806608E+02  0.62499999714E+02  0.99999961811E+01 0.  0.
    3000022    2    3    3    0    0 -0.11954006510E+01 -0.19390811394E+01  0.30693636011E+01  0.38304717060E+01  0.25000438645E+00 0.  0.
    1000022    2    1    0    0    0 -0.19205565674E+02  0.32086607288E+02 -0.49069806608E+02  0.62500000286E+02  0.99999997542E+01 0.  0.
    3000022    2    5    5    0    0 -0.69299805392E+01  0.61566267949E+01 -0.72267623909E+01  0.11756584672E+02  0.25000947905E+00 0.  0.
        -13    1    4    4    0    0 -0.68325304695E+00 -0.11372421680E+01  0.18895850307E+01  0.23112141967E+01  0.10500000000E+00 0.  1.
         13    1    4    4    0    0 -0.51214760409E+00 -0.80183897140E+00  0.11797785704E+01  0.15192575093E+01  0.10500000000E+00 0. -1.
    3000001    1    5    5    0    0 -0.12275585135E+02  0.25929980493E+02 -0.41843044217E+02  0.50743415613E+02  0.10000000000E+01 0. -1.
        -13    1    6    6    0    0 -0.48247646916E+01  0.43274124276E+01 -0.50080363735E+01  0.81912334826E+01  0.10500000000E+00 0. -1.
         13    1    6    6    0    0 -0.21052158476E+01  0.18292143673E+01 -0.22187260174E+01  0.35653511898E+01  0.10500000000E+00 0.  1.
</event>
<event>
11    0  0.3476221E-009  0.9118800E+02  0.7816531E-02  0.1126479E+00
         25   -1    0    0    0    0  0.00000000000E+00  0.00000000000E+00  0.99999998245E-14  0.12500000000E+03  0.12500000000E+03 0.  0.
    3000001    1    3    3    0    0  0.20544859739E+02  0.54072637192E+02  0.21936672818E+01  0.57894330730E+02  0.10000000000E+01 0. -1.
    1000022    2    1    0    0    0  0.23846625652E+02  0.56764149142E+02  0.39268146213E+01  0.62500000314E+02  0.99999991659E+01 0.  0.
    3000022    2    3    3    0    0  0.33017659137E+01  0.26915119504E+01  0.17331473396E+01  0.46056695836E+01  0.24999576983E+00 0.  0.
    1000022    2    1    0    0    0 -0.23846625652E+02 -0.56764149142E+02 -0.39268146213E+01  0.62499999686E+02  0.99999952456E+01 0.  0.
    3000022    2    5    5    0    0 -0.67523368948E+01 -0.28646831657E+02 -0.10157797254E+01  0.29450455441E+02  0.24999937867E+00 0.  0.
        -13    1    4    4    0    0  0.24643775386E+01  0.20100635781E+01  0.13231886085E+01  0.34460651959E+01  0.10500000000E+00 0.  1.
         13    1    4    4    0    0  0.83738837513E+00  0.68144837226E+00  0.40995873111E+00  0.11596043877E+01  0.10500000000E+00 0. -1.
    3000001    1    5    5    0    0 -0.17094288758E+02 -0.28117317485E+02 -0.29110348960E+01  0.33049544245E+02  0.10000000000E+01 0.  1.
        -13    1    6    6    0    0 -0.34303323119E+01 -0.14614955003E+02 -0.58442991676E+00  0.15023870102E+02  0.10500000000E+00 0.  1.
         13    1    6    6    0    0 -0.33220045829E+01 -0.14031876655E+02 -0.43134980861E+00  0.14426585340E+02  0.10500000000E+00 0. -1.
</event>
<event>
11    0  0.3476221E-009  0.9118800E+02  0.7816531E-02  0.1126479E+00
         25   -1    0    0    0    0  0.00000000000E+00  0.00000000000E+00  0.99999998245E-14  0.12500000000E+03  0.12500000000E+03 0.  0.
    3000001    1    3    3    0    0  0.36924323756E+01  0.25210878893E+02 -0.29685916223E+02  0.39134078415E+02  0.10000000000E+01 0.  1.
    1000022    2    1    0    0    0  0.86284950895E+01  0.33953541043E+02 -0.50783427860E+02  0.62500001394E+02  0.99999876048E+01 0.  0.
    3000022    2    3    3    0    0  0.49360627138E+01  0.87426621503E+01 -0.21097511637E+02  0.23365922978E+02  0.25000553941E+00 0.  0.
    1000022    2    1    0    0    0 -0.86284950895E+01 -0.33953541043E+02  0.50783427860E+02  0.62499998606E+02  0.99999701851E+01 0.  0.
    3000022    2    5    5    0    0 -0.39719332926E+01 -0.18061042549E+02  0.18262248313E+02  0.25991339424E+02  0.24999915398E+00 0.  0.
        -13    1    4    4    0    0  0.16825010205E+01  0.29597262225E+01 -0.70313078401E+01  0.78128806428E+01  0.10500000000E+00 0. -1.
         13    1    4    4    0    0  0.32535616933E+01  0.57829359278E+01 -0.14066203797E+02  0.15553042336E+02  0.10500000000E+00 0.  1.
    3000001    1    5    5    0    0 -0.46565617969E+01 -0.15892498494E+02  0.32521179547E+02  0.36508659182E+02  0.10000000000E+01 0.  1.
        -13    1    6    6    0    0 -0.20906914676E+01 -0.95972639013E+01  0.97905084847E+01  0.13868797590E+02  0.10500000000E+00 0. -1.
         13    1    6    6    0    0 -0.18812418250E+01 -0.84637786478E+01  0.84717398283E+01  0.12122541834E+02  0.10500000000E+00 0.  1.
</event>
<event>
11    0  0.3476221E-009  0.9118800E+02  0.7816531E-02  0.1126479E+00
         25   -1    0    0    0    0  0.00000000000E+00  0.00000000000E+00  0.99999998245E-14  0.12500000000E+03  0.12500000000E+03 0.  0.
    3000001    1    3    3    0    0 -0.54347126111E+01 -0.79955787897E-02  0.13367960298E+01  0.56853486014E+01  0.10000000000E+01 0.  1.
    1000022    2    1    0    0    0 -0.59733713722E+02 -0.43185903142E+01 -0.14814964865E+02  0.62500000113E+02  0.10000002640E+02 0.  0.
    3000022    2    3    3    0    0 -0.54299001111E+02 -0.43105947354E+01 -0.16151760895E+02  0.56814651511E+02  0.24999542980E+00 0.  0.
    1000022    2    1    0    0    0  0.59733713722E+02  0.43185903142E+01  0.14814964865E+02  0.62499999887E+02  0.10000001229E+02 0.  0.
    3000022    2    5    5    0    0  0.12030785217E+02 -0.25624448496E+01  0.51292109615E+01  0.13329563021E+02  0.25005740110E+00 0.  0.
        -13    1    4    4    0    0 -0.20050997487E+02 -0.16295531514E+01 -0.60132492013E+01  0.20996860114E+02  0.10500000000E+00 0.  1.
         13    1    4    4    0    0 -0.34248003624E+02 -0.26810415840E+01 -0.10138511694E+02  0.35817791397E+02  0.10500000000E+00 0. -1.
    3000001    1    5    5    0    0  0.47702928505E+02  0.68810351638E+01  0.96857539036E+01  0.49170436866E+02  0.10000000000E+01 0. -1.
        -13    1    6    6    0    0  0.55877545924E+01 -0.12056318511E+01  0.23126636577E+01  0.61673323032E+01  0.10500000000E+00 0. -1.
         13    1    6    6    0    0  0.64430306249E+01 -0.13568129985E+01  0.28165473038E+01  0.71622307182E+01  0.10500000000E+00 0.  1.
</event>
<event>
11    0  0.3476221E-009  0.9118800E+02  0.7816531E-02  0.1126479E+00
         25   -1    0    0    0    0  0.00000000000E+00  0.00000000000E+00  0.99999998245E-14  0.12500000000E+03  0.12500000000E+03 0.  0.
    3000001    1    3    3    0    0  0.16218020791E+02  0.15109465301E+01 -0.68599865487E+01  0.17702162954E+02  0.10000000000E+01 0. -1.
    1000022    2    1    0    0    0  0.48932720549E+02  0.12084611858E+02 -0.35578096391E+02  0.62500001030E+02  0.10000010092E+02 0.  0.
    3000022    2    3    3    0    0  0.32714699758E+02  0.10573665327E+02 -0.28718109842E+02  0.44797838076E+02  0.24996929843E+00 0.  0.
    1000022    2    1    0    0    0 -0.48932720549E+02 -0.12084611858E+02  0.35578096391E+02  0.62499998970E+02  0.99999972153E+01 0.  0.
    3000022    2    5    5    0    0 -0.10319042302E+02  0.14676873499E+01  0.80056996527E+01  0.13144978724E+02  0.24999705923E+00 0.  0.
        -13    1    4    4    0    0  0.21040416796E+02  0.68108110351E+01 -0.18546360764E+02  0.28862862098E+02  0.10500000000E+00 0.  1.
         13    1    4    4    0    0  0.11674282962E+02  0.37628542924E+01 -0.10171749078E+02  0.15934975978E+02  0.10500000000E+00 0. -1.
    3000001    1    5    5    0    0 -0.38613678247E+02 -0.13552299207E+02  0.27572396738E+02  0.49355020246E+02  0.10000000000E+01 0. -1.
        -13    1    6    6    0    0 -0.24364965506E+01  0.35615738027E+00  0.19086681106E+01  0.31172748479E+01  0.10500000000E+00 0.  1.
         13    1    6    6    0    0 -0.78825457515E+01  0.11115299696E+01  0.60970315421E+01  0.10027703876E+02  0.10500000000E+00 0. -1.
</event>
<event>
11    0  0.3476221E-009  0.9118800E+02  0.7816531E-02  0.1126479E+00
         25   -1    0    0    0    0  0.00000000000E+00  0.00000000000E+00  0.99999998245E-14  0.12500000000E+03  0.12500000000E+03 0.  0.
    3000001    1    3    3    0    0  0.38926266034E+02  0.47000666486E+01 -0.27073501383E+02  0.47658360138E+02  0.10000000000E+01 0.  1.
    1000022    2    1    0    0    0  0.47379120294E+02  0.90708172923E+01 -0.38460228731E+02  0.62499999754E+02  0.10000000453E+02 0.  0.
    3000022    2    3    3    0    0  0.84528542591E+01  0.43707506437E+01 -0.11386727348E+02  0.14841639616E+02  0.25000096773E+00 0.  0.
    1000022    2    1    0    0    0 -0.47379120294E+02 -0.90708172923E+01  0.38460228731E+02  0.62500000246E+02  0.10000003532E+02 0.  0.
    3000022    2    5    5    0    0 -0.42023421786E+02 -0.59900680816E+01  0.30016323234E+02  0.51989336031E+02  0.25001252461E+00 0.  0.
        -13    1    4    4    0    0  0.43942139135E+01  0.22899952722E+01 -0.60315354382E+01  0.78066406992E+01  0.10500000000E+00 0. -1.
         13    1    4    4    0    0  0.40586403455E+01  0.20807553715E+01 -0.53551919095E+01  0.70349989167E+01  0.10500000000E+00 0.  1.
    3000001    1    5    5    0    0 -0.53556985075E+01 -0.30807492107E+01  0.84439054968E+01  0.10510664215E+02  0.10000000000E+01 0.  1.
        -13    1    6    6    0    0 -0.30617410360E+02 -0.43825393247E+01  0.21909715188E+02  0.37903550134E+02  0.10500000000E+00 0.  1.
         13    1    6    6    0    0 -0.11406011426E+02 -0.16075287569E+01  0.81066080454E+01  0.14085785898E+02  0.10500000000E+00 0. -1.
</event>
<event>
11    0  0.3476221E-009  0.9118800E+02  0.7816531E-02  0.1126479E+00
         25   -1    0    0    0    0  0.00000000000E+00  0.00000000000E+00  0.99999998245E-14  0.12500000000E+03  0.12500000000E+03 0.  0.
    3000001    1    3    3    0    0  0.26561419414E+02 -0.10676027201E+02  0.37285767143E+01  0.28885789627E+02  0.10000000000E+01 0.  1.
    1000022    2    1    0    0    0  0.52987684049E+02 -0.31441070774E+02  0.31645543563E+01  0.62499999764E+02  0.99999986984E+01 0.  0.
    3000022    2    3    3    0    0  0.26426264635E+02 -0.20765043573E+02 -0.56402235797E+00  0.33614210137E+02  0.25000951065E+00 0.  0.
    1000022    2    1    0    0    0 -0.52987684049E+02  0.31441070774E+02 -0.31645543563E+01  0.62500000236E+02  0.10000001648E+02 0.  0.
    3000022    2    5    5    0    0 -0.47040917445E+02  0.31070678390E+02 -0.27171145815E+01  0.56441830057E+02  0.24999784271E+00 0.  0.
        -13    1    4    4    0    0  0.82065609386E+01 -0.64454709009E+01 -0.12663667607E+00  0.10436416982E+02  0.10500000000E+00 0.  1.
         13    1    4    4    0    0  0.18219703696E+02 -0.14319572672E+02 -0.43738568190E+00  0.23177793155E+02  0.10500000000E+00 0. -1.
    3000001    1    5    5    0    0 -0.59467666042E+01  0.37039238416E+00 -0.44743977481E+00  0.60581701788E+01  0.10000000000E+01 0. -1.
        -13    1    6    6    0    0 -0.30462860416E+02  0.20080194002E+02 -0.18043118971E+01  0.36530352069E+02  0.10500000000E+00 0. -1.
         13    1    6    6    0    0 -0.16578057028E+02  0.10990484388E+02 -0.91280268438E+00  0.19911477988E+02  0.10500000000E+00 0.  1.
</event>
<event>
11    0  0.3476221E-009  0.9118800E+02  0.7816531E-02  0.1126479E+00
         25   -1    0    0    0    0  0.00000000000E+00  0.00000000000E+00  0.99999998245E-14  0.12500000000E+03  0.12500000000E+03 0.  0.
    3000001    1    3    3    0    0  0.85188361237E+01  0.99377790877E+01 -0.87792847823E+01  0.15792588875E+02  0.10000000000E+01 0. -1.
    1000022    2    1    0    0    0  0.46041972313E+02  0.31498617824E+02 -0.26348129942E+02  0.62500000875E+02  0.10000000935E+02 0.  0.
    3000022    2    3    3    0    0  0.37523136189E+02  0.21560838736E+02 -0.17568845160E+02  0.46707412000E+02  0.24999801241E+00 0.  0.
    1000022    2    1    0    0    0 -0.46041972313E+02 -0.31498617824E+02  0.26348129942E+02  0.62499999125E+02  0.99999899948E+01 0.  0.
    3000022    2    5    5    0    0 -0.20831027076E+02 -0.15836587371E+02  0.71127997538E+01  0.27117957280E+02  0.24999624299E+00 0.  0.
        -13    1    4    4    0    0  0.17460233372E+02  0.10028526732E+02 -0.82467932364E+01  0.21758945781E+02  0.10500000000E+00 0.  1.
         13    1    4    4    0    0  0.20062902817E+02  0.11532312004E+02 -0.93220519235E+01  0.24948466219E+02  0.10500000000E+00 0. -1.
    3000001    1    5    5    0    0 -0.25210945237E+02 -0.15662030454E+02  0.19235330188E+02  0.35382041845E+02  0.10000000000E+01 0.  1.
        -13    1    6    6    0    0 -0.11575171779E+02 -0.87301327422E+01  0.39030446468E+01  0.15014812750E+02  0.10500000000E+00 0.  1.
         13    1    6    6    0    0 -0.92558552969E+01 -0.71064546284E+01  0.32097551070E+01  0.12103144530E+02  0.10500000000E+00 0. -1.
</event>
<event>
11    0  0.3476221E-009  0.9118800E+02  0.7816531E-02  0.1126479E+00
         25   -1    0    0    0    0  0.00000000000E+00  0.00000000000E+00  0.99999998245E-14  0.12500000000E+03  0.12500000000E+03 0.  0.
    3000001    1    3    3    0    0  0.20648620824E+02 -0.79502910221E+01  0.14024928719E+02  0.26215859605E+02  0.10000000000E+01 0.  1.
    1000022    2    1    0    0    0  0.50734192595E+02 -0.74674430162E+01  0.34300568766E+02  0.62500000071E+02  0.99999993881E+01 0.  0.
    3000022    2    3    3    0    0  0.30085571771E+02  0.48284800587E+00  0.20275640046E+02  0.36284140466E+02  0.24999810571E+00 0.  0.
    1000022    2    1    0    0    0 -0.50734192595E+02  0.74674430162E+01 -0.34300568766E+02  0.62499999929E+02  0.99999985040E+01 0.  0.
    3000022    2    5    5    0    0 -0.30811807547E+02 -0.93825560574E-02 -0.22440674830E+02  0.38118420186E+02  0.24999657488E+00 0.  0.
        -13    1    4    4    0    0  0.14821458465E+02  0.22354469712E+00  0.10068421298E+02  0.17919535030E+02  0.10500000000E+00 0.  1.
         13    1    4    4    0    0  0.15264113306E+02  0.25930330876E+00  0.10207218749E+02  0.18364605435E+02  0.10500000000E+00 0. -1.
    3000001    1    5    5    0    0 -0.19922385048E+02  0.74768255723E+01 -0.11859893936E+02  0.24381579744E+02  0.10000000000E+01 0. -1.
        -13    1    6    6    0    0 -0.21881126444E+02 -0.21106269292E-01 -0.15886066554E+02  0.27040012491E+02  0.10500000000E+00 0. -1.
         13    1    6    6    0    0 -0.89306811026E+01  0.11723713235E-01 -0.65546082756E+01  0.11078407695E+02  0.10500000000E+00 0.  1.
</event>
<event>
11    0  0.3476221E-009  0.9118800E+02  0.7816531E-02  0.1126479E+00
         25   -1    0    0    0    0  0.00000000000E+00  0.00000000000E+00  0.99999998245E-14  0.12500000000E+03  0.12500000000E+03 0.  0.
    3000001    1    3    3    0    0  0.38335116427E+00 -0.97237403280E+01  0.22795761247E+02  0.24806144701E+02  0.10000000000E+01 0. -1.
    1000022    2    1    0    0    0 -0.63456768304E+01 -0.15000899157E+02  0.59505925189E+02  0.62500001919E+02  0.10000025868E+02 0.  0.
    3000022    2    3    3    0    0 -0.67290279947E+01 -0.52771588293E+01  0.36710163942E+02  0.37693857218E+02  0.25002462693E+00 0.  0.
    1000022    2    1    0    0    0  0.63456768304E+01  0.15000899157E+02 -0.59505925189E+02  0.62499998081E+02  0.10000001875E+02 0.  0.
    3000022    2    5    5    0    0  0.22738248332E+00  0.41525564512E+01 -0.46690187348E+01  0.62576085984E+01  0.25000310143E+00 0.  0.
        -13    1    4    4    0    0 -0.20378453944E+01 -0.15413971049E+01  0.11012469969E+02  0.11305495951E+02  0.10500000000E+00 0. -1.
         13    1    4    4    0    0 -0.46911826003E+01 -0.37357617244E+01  0.25697693973E+02  0.26388361267E+02  0.10500000000E+00 0.  1.
    3000001    1    5    5    0    0  0.61182943471E+01  0.10848342706E+02 -0.54836906454E+02  0.56242389482E+02  0.10000000000E+01 0. -1.
        -13    1    6    6    0    0  0.43265520638E-01  0.13526245646E+01 -0.14589872508E+01  0.19927704123E+01  0.10500000000E+00 0. -1.
         13    1    6    6    0    0  0.18411696268E+00  0.27999318865E+01 -0.32100314841E+01  0.42648381861E+01  0.10500000000E+00 0.  1.
</event>
<event>
11    0  0.3476221E-009  0.9118800E+02  0.7816531E-02  0.1126479E+00
         25   -1    0    0    0    0  0.00000000000E+00  0.00000000000E+00  0.99999998245E-14  0.12500000000E+03  0.12500000000E+03 0.  0.
    3000001    1    3    3    0    0 -0.60327007332E+01 -0.54503510010E+01 -0.23679227354E+02  0.25056049414E+02  0.10000000000E+01 0. -1.
    1000022    2    1    0    0    0 -0.91558958091E+01 -0.23728326317E+02 -0.56208417196E+02  0.62499999815E+02  0.99999957668E+01 0.  0.
    3000022    2    3    3    0    0 -0.31231950759E+01 -0.18277975316E+02 -0.32529189842E+02  0.37443950401E+02  0.25000141114E+00 0.  0.
    1000022    2    1    0    0    0  0.91558958091E+01  0.23728326317E+02  0.56208417196E+02  0.62500000185E+02  0.99999980797E+01 0.  0.
    3000022    2    5    5    0    0  0.45341576817E+01  0.20211781379E+01  0.79929485234E+01  0.94124106307E+01  0.25000167152E+00 0.  0.
        -13    1    4    4    0    0 -0.83564665472E+00 -0.49090249643E+01 -0.88081732852E+01  0.10118882006E+02  0.10500000000E+00 0. -1.
         13    1    4    4    0    0 -0.22875484212E+01 -0.13368950352E+02 -0.23721016557E+02  0.27325068394E+02  0.10500000000E+00 0.  1.
    3000001    1    5    5    0    0  0.46217381275E+01  0.21707148179E+02  0.48215468673E+02  0.53087589554E+02  0.10000000000E+01 0. -1.
        -13    1    6    6    0    0  0.31868994597E+01  0.14018104930E+01  0.56814210361E+01  0.66641556715E+01  0.10500000000E+00 0. -1.
         13    1    6    6    0    0  0.13472582220E+01  0.61936764489E+00  0.23115274873E+01  0.27482549592E+01  0.10500000000E+00 0.  1.
</event>
<event>
11    0  0.3476221E-009  0.9118800E+02  0.7816531E-02  0.1126479E+00
         25   -1    0    0    0    0  0.00000000000E+00  0.00000000000E+00  0.99999998245E-14  0.12500000000E+03  0.12500000000E+03 0.  0.
    3000001    1    3    3    0    0 -0.64922248724E+01  0.43263924001E+01  0.74106640975E+01  0.10806692249E+02  0.10000000000E+01 0. -1.
    1000022    2    1    0    0    0 -0.18493806601E+02  0.31026094207E+02  0.50016103919E+02  0.62499999901E+02  0.99999965983E+01 0.  0.
    3000022    2    3    3    0    0 -0.12001581729E+02  0.26699701807E+02  0.42605439822E+02  0.51693307652E+02  0.25002601709E+00 0.  0.
    1000022    2    1    0    0    0  0.18493806601E+02 -0.31026094207E+02 -0.50016103919E+02  0.62500000099E+02  0.99999978386E+01 0.  0.
    3000022    2    5    5    0    0  0.16882322449E+02 -0.30505394254E+02 -0.49348777783E+02  0.60423143391E+02  0.24999744449E+00 0.  0.
        -13    1    4    4    0    0 -0.39575851489E+01  0.89013157810E+01  0.14241650905E+02  0.17254899256E+02  0.10500000000E+00 0.  1.
         13    1    4    4    0    0 -0.80439965801E+01  0.17798386026E+02  0.28363788917E+02  0.34438408396E+02  0.10500000000E+00 0. -1.
    3000001    1    5    5    0    0  0.16114841522E+01 -0.52069995330E+00 -0.66732613647E+00  0.20768567082E+01  0.10000000000E+01 0.  1.
        -13    1    6    6    0    0  0.53428525881E+01 -0.95579612607E+01 -0.15470696109E+02  0.18954001170E+02  0.10500000000E+00 0. -1.
         13    1    6    6    0    0  0.11539469861E+02 -0.20947432993E+02 -0.33878081674E+02  0.41469142221E+02  0.10500000000E+00 0.  1.
</event>
<event>
11    0  0.3476221E-009  0.9118800E+02  0.7816531E-02  0.1126479E+00
         25   -1    0    0    0    0  0.00000000000E+00  0.00000000000E+00  0.99999998245E-14  0.12500000000E+03  0.12500000000E+03 0.  0.
    3000001    1    3    3    0    0 -0.23998118000E+02 -0.77039839729E+01  0.77576030547E+01  0.26390176993E+02  0.10000000000E+01 0. -1.
    1000022    2    1    0    0    0 -0.59513354563E+02 -0.14223895675E+02  0.78797670994E+01  0.62499991350E+02  0.99999804852E+01 0.  0.
    3000022    2    3    3    0    0 -0.35515236564E+02 -0.65199117018E+01  0.12216404472E+00  0.36109814357E+02  0.24998415557E+00 0.  0.
    1000022    2    1    0    0    0  0.59513354563E+02  0.14223895675E+02 -0.78797670994E+01  0.62500008650E+02  0.10000088605E+02 0.  0.
    3000022    2    5    5    0    0  0.17315106907E+02  0.63435629534E+01 -0.64472776747E+01  0.19536724615E+02  0.25000226157E+00 0.  0.
        -13    1    4    4    0    0 -0.22151574781E+02 -0.41130011358E+01  0.36787758485E-01  0.22530455432E+02  0.10500000000E+00 0.  1.
         13    1    4    4    0    0 -0.13363661782E+02 -0.24069105661E+01  0.85376286235E-01  0.13579358925E+02  0.10500000000E+00 0. -1.
    3000001    1    5    5    0    0  0.42198247657E+02  0.78803327214E+01 -0.14324894247E+01  0.42963284035E+02  0.10000000000E+01 0. -1.
        -13    1    6    6    0    0  0.11746965579E+02  0.43025855919E+01 -0.43195208858E+01  0.13235283479E+02  0.10500000000E+00 0.  1.
         13    1    6    6    0    0  0.55681413281E+01  0.20409773615E+01 -0.21277567889E+01  0.63014411362E+01  0.10500000000E+00 0. -1.
</event>
<event>
11    0  0.3476221E-009  0.9118800E+02  0.7816531E-02  0.1126479E+00
         25   -1    0    0    0    0  0.00000000000E+00  0.00000000000E+00  0.99999998245E-14  0.12500000000E+03  0.12500000000E+03 0.  0.
    3000001    1    3    3    0    0  0.16932380219E+02 -0.24344626795E+02 -0.24173384649E+02  0.38271645888E+02  0.10000000000E+01 0. -1.
    1000022    2    1    0    0    0  0.24073785094E+02 -0.35054328961E+02 -0.44697841252E+02  0.62500001270E+02  0.10000001926E+02 0.  0.
    3000022    2    3    3    0    0  0.71414048754E+01 -0.10709702167E+02 -0.20524456603E+02  0.24228355382E+02  0.25000311894E+00 0.  0.
    1000022    2    1    0    0    0 -0.24073785094E+02  0.35054328961E+02  0.44697841252E+02  0.62499998730E+02  0.99999860463E+01 0.  0.
    3000022    2    5    5    0    0 -0.12449405947E+02  0.26243735588E+02  0.28917773616E+02  0.40988065280E+02  0.24999688265E+00 0.  0.
        -13    1    4    4    0    0  0.49734542543E+01 -0.73766918373E+01 -0.14213941691E+02  0.16768959213E+02  0.10500000000E+00 0.  1.
         13    1    4    4    0    0  0.21679506211E+01 -0.33330103295E+01 -0.63105149122E+01  0.74593961692E+01  0.10500000000E+00 0. -1.
    3000001    1    5    5    0    0 -0.11624379147E+02  0.88105933735E+01  0.15780067636E+02  0.21511933450E+02  0.10000000000E+01 0. -1.
        -13    1    6    6    0    0 -0.58174091998E+01  0.12413672624E+02  0.13620083073E+02  0.19325092645E+02  0.10500000000E+00 0. -1.
         13    1    6    6    0    0 -0.66319967470E+01  0.13830062964E+02  0.15297690542E+02  0.21662972635E+02  0.10500000000E+00 0.  1.
</event>
<event>
11    0  0.3476221E-009  0.9118800E+02  0.7816531E-02  0.1126479E+00
         25   -1    0    0    0    0  0.00000000000E+00  0.00000000000E+00  0.99999998245E-14  0.12500000000E+03  0.12500000000E+03 0.  0.
    3000001    1    3    3    0    0  0.18270904576E+02  0.25246341666E+02 -0.52172391836E+02  0.60779619869E+02  0.10000000000E+01 0. -1.
    1000022    2    1    0    0    0  0.17462523179E+02  0.26571831443E+02 -0.52870105278E+02  0.62499999919E+02  0.10000000785E+02 0.  0.
    3000022    2    3    3    0    0 -0.80838139690E+00  0.13254897777E+01 -0.69771344221E+00  0.17203800500E+01  0.24999967037E+00 0.  0.
    1000022    2    1    0    0    0 -0.17462523179E+02 -0.26571831443E+02  0.52870105278E+02  0.62500000081E+02  0.10000001801E+02 0.  0.
    3000022    2    5    5    0    0 -0.57246693401E+01 -0.14839747134E+02  0.19082636532E+02  0.24843499192E+02  0.25000204971E+00 0.  0.
        -13    1    4    4    0    0 -0.50941259982E+00  0.90686847965E+00 -0.50594667203E+00  0.11614295808E+01  0.10500000000E+00 0. -1.
         13    1    4    4    0    0 -0.29896879708E+00  0.41862129806E+00 -0.19176677018E+00  0.55895046915E+00  0.10500000000E+00 0. -1.
    3000001    1    5    5    0    0 -0.11737853839E+02 -0.11732084310E+02  0.33787468746E+02  0.37656500890E+02  0.10000000000E+01 0. -1.
        -13    1    6    6    0    0 -0.14731054217E+01 -0.38144745879E+01  0.49540571286E+01  0.64244815354E+01  0.10500000000E+00 0.  1.
         13    1    6    6    0    0 -0.42515639184E+01 -0.11025272546E+02  0.14128579404E+02  0.18419017656E+02  0.10500000000E+00 0. -1.
</event>
<event>
11    0  0.3476221E-009  0.9118800E+02  0.7816531E-02  0.1126479E+00
         25   -1    0    0    0    0  0.00000000000E+00  0.00000000000E+00  0.99999998245E-14  0.12500000000E+03  0.12500000000E+03 0.  0.
    3000001    1    3    3    0    0 -0.93801732022E+01 -0.11827135512E+02 -0.57457018824E+01  0.16182764715E+02  0.10000000000E+01 0.  1.
    1000022    2    1    0    0    0 -0.37256725673E+02 -0.34843935072E+02 -0.34699951328E+02  0.62500000221E+02  0.99999993165E+01 0.  0.
    3000022    2    3    3    0    0 -0.27876552471E+02 -0.23016799560E+02 -0.28954249445E+02  0.46317235506E+02  0.25000859269E+00 0.  0.
    1000022    2    1    0    0    0  0.37256725673E+02  0.34843935072E+02  0.34699951328E+02  0.62499999779E+02  0.99999965540E+01 0.  0.
    3000022    2    5    5    0    0  0.14236546879E+02  0.19710500679E+02  0.18196674306E+02  0.30370455421E+02  0.25000521260E+00 0.  0.
        -13    1    4    4    0    0 -0.20274064604E+02 -0.16704431662E+02 -0.21006857351E+02  0.33635915529E+02  0.10500000000E+00 0. -1.
         13    1    4    4    0    0 -0.76024878664E+01 -0.63123678981E+01 -0.79473920947E+01  0.12681319977E+02  0.10500000000E+00 0.  1.
    3000001    1    5    5    0    0  0.23020178793E+02  0.15133434393E+02  0.16503277022E+02  0.32129544358E+02  0.10000000000E+01 0. -1.
        -13    1    6    6    0    0  0.36114120975E+01  0.50023394256E+01  0.46534051815E+01  0.77285769615E+01  0.10500000000E+00 0.  1.
         13    1    6    6    0    0  0.10625134782E+02  0.14708161254E+02  0.13543269124E+02  0.22641878459E+02  0.10500000000E+00 0. -1.
</event>
<event>
11    0  0.3476221E-009  0.9118800E+02  0.7816531E-02  0.1126479E+00
         25   -1    0    0    0    0  0.00000000000E+00  0.00000000000E+00  0.99999998245E-14  0.12500000000E+03  0.12500000000E+03 0.  0.
    3000001    1    3    3    0    0 -0.37229154543E+02  0.41068497053E+02  0.65317153615E+01  0.55823782600E+02  0.10000000000E+01 0. -1.
    1000022    2    1    0    0    0 -0.39962150585E+02  0.45865667953E+02  0.10277013382E+02  0.62500000188E+02  0.10000002167E+02 0.  0.
    3000022    2    3    3    0    0 -0.27329960418E+01  0.47971708999E+01  0.37452980209E+01  0.66762175886E+01  0.25001603311E+00 0.  0.
    1000022    2    1    0    0    0  0.39962150585E+02 -0.45865667953E+02 -0.10277013382E+02  0.62499999812E+02  0.99999998116E+01 0.  0.
    3000022    2    5    5    0    0  0.31835392048E+02 -0.41563733792E+02 -0.78810818146E+01  0.52945350162E+02  0.24999933445E+00 0.  0.
        -13    1    4    4    0    0 -0.12665915072E+01  0.23470370598E+01  0.17741015684E+01  0.32048866409E+01  0.10500000000E+00 0.  1.
         13    1    4    4    0    0 -0.14664045346E+01  0.24501338401E+01  0.19711964525E+01  0.34713309476E+01  0.10500000000E+00 0. -1.
    3000001    1    5    5    0    0  0.81267585366E+01 -0.43019341612E+01 -0.23959315677E+01  0.95546496491E+01  0.10000000000E+01 0. -1.
        -13    1    6    6    0    0  0.11112659585E+02 -0.14437023851E+02 -0.27065108527E+01  0.18418878541E+02  0.10500000000E+00 0. -1.
         13    1    6    6    0    0  0.20722732463E+02 -0.27126709941E+02 -0.51745709619E+01  0.34526471621E+02  0.10500000000E+00 0.  1.
</event>
<event>
11    0  0.3476221E-009  0.9118800E+02  0.7816531E-02  0.1126479E+00
         25   -1    0    0    0    0  0.00000000000E+00  0.00000000000E+00  0.99999998245E-14  0.12500000000E+03  0.12500000000E+03 0.  0.
    3000001    1    3    3    0    0 -0.22963314686E+02  0.79687542034E+01  0.29482847119E+02  0.38223724821E+02  0.10000000000E+01 0. -1.
    1000022    2    1    0    0    0 -0.42210297620E+02  0.80130237022E+01  0.44275638902E+02  0.62499999047E+02  0.99999953380E+01 0.  0.
    3000022    2    3    3    0    0 -0.19246982933E+02  0.44269498791E-01  0.14792791782E+02  0.24276274226E+02  0.24997952328E+00 0.  0.
    1000022    2    1    0    0    0  0.42210297620E+02 -0.80130237022E+01 -0.44275638902E+02  0.62500000953E+02  0.10000007247E+02 0.  0.
    3000022    2    5    5    0    0  0.18772817182E+02 -0.67507906286E+01 -0.14985094374E+02  0.24952101940E+02  0.24999747033E+00 0.  0.
        -13    1    4    4    0    0 -0.14475028189E+02  0.10057499110E-01  0.11136324546E+02  0.18263496150E+02  0.10500000000E+00 0.  1.
         13    1    4    4    0    0 -0.47719547442E+01  0.34211999681E-01  0.36564672363E+01  0.60127780760E+01  0.10500000000E+00 0. -1.
    3000001    1    5    5    0    0  0.23437480438E+02 -0.12622330736E+01 -0.29290544527E+02  0.37547899013E+02  0.10000000000E+01 0. -1.
        -13    1    6    6    0    0  0.12558280085E+02 -0.45000152763E+01 -0.99562707751E+01  0.16646287542E+02  0.10500000000E+00 0. -1.
         13    1    6    6    0    0  0.62145370971E+01 -0.22507753524E+01 -0.50288235994E+01  0.83058143979E+01  0.10500000000E+00 0.  1.
</event>
<event>
11    0  0.3476221E-009  0.9118800E+02  0.7816531E-02  0.1126479E+00
         25   -1    0    0    0    0  0.00000000000E+00  0.00000000000E+00  0.99999998245E-14  0.12500000000E+03  0.12500000000E+03 0.  0.
    3000001    1    3    3    0    0 -0.82656023158E+01  0.19225734058E+02  0.24266078071E+01  0.21091170123E+02  0.10000000000E+01 0. -1.
    1000022    2    1    0    0    0 -0.25216567889E+02  0.55924248079E+02 -0.65462966095E+01  0.62500005909E+02  0.99999960023E+01 0.  0.
    3000022    2    3    3    0    0 -0.16950965573E+02  0.36698514021E+02 -0.89729044167E+01  0.41408835786E+02  0.25000454825E+00 0.  0.
    1000022    2    1    0    0    0  0.25216567889E+02 -0.55924248079E+02  0.65462966095E+01  0.62499994091E+02  0.99999221347E+01 0.  0.
    3000022    2    5    5    0    0  0.18004257909E+02 -0.46941409194E+02  0.77659286303E+01  0.50872599199E+02  0.25000372899E+00 0.  0.
        -13    1    4    4    0    0 -0.99039621249E+01  0.21592497620E+02 -0.52611692003E+01  0.24331365469E+02  0.10500000000E+00 0.  1.
         13    1    4    4    0    0 -0.70470034482E+01  0.15106016401E+02 -0.37117352163E+01  0.17077470317E+02  0.10500000000E+00 0. -1.
    3000001    1    5    5    0    0  0.72123099799E+01 -0.89828388855E+01 -0.12196320208E+01  0.11627394891E+02  0.10000000000E+01 0.  1.
        -13    1    6    6    0    0  0.77148512255E+01 -0.20027660926E+02  0.33733350760E+01  0.21725941778E+02  0.10500000000E+00 0. -1.
         13    1    6    6    0    0  0.10289406684E+02 -0.26913748268E+02  0.43925935543E+01  0.29146657422E+02  0.10500000000E+00 0.  1.
</event>
<event>
11    0  0.3476221E-009  0.9118800E+02  0.7816531E-02  0.1126479E+00
         25   -1    0    0    0    0  0.00000000000E+00  0.00000000000E+00  0.99999998245E-14  0.12500000000E+03  0.12500000000E+03 0.  0.
    3000001    1    3    3    0    0 -0.59661309878E+01  0.30630654149E+01  0.24597385998E+01  0.72130023346E+01  0.10000000000E+01 0.  1.
    1000022    2    1    0    0    0 -0.43974785845E+02  0.11562747557E+02  0.41698581397E+02  0.62499996638E+02  0.99999484029E+01 0.  0.
    3000022    2    3    3    0    0 -0.38008654857E+02  0.84996821422E+01  0.39238842797E+02  0.55286994304E+02  0.25002896234E+00 0.  0.
    1000022    2    1    0    0    0  0.43974785845E+02 -0.11562747557E+02 -0.41698581397E+02  0.62500003362E+02  0.99999904241E+01 0.  0.
    3000022    2    5    5    0    0  0.17930644561E+02 -0.94762122139E+01 -0.15939796890E+02  0.25796244641E+02  0.25000074454E+00 0.  0.
        -13    1    4    4    0    0 -0.28894474105E+02  0.64747649221E+01  0.29852321726E+02  0.42047417900E+02  0.10500000000E+00 0. -1.
         13    1    4    4    0    0 -0.91141807526E+01  0.20249172201E+01  0.93865210714E+01  0.13239576404E+02  0.10500000000E+00 0.  1.
    3000001    1    5    5    0    0  0.26044141284E+02 -0.20865353432E+01 -0.25758784507E+02  0.36703758721E+02  0.10000000000E+01 0.  1.
        -13    1    6    6    0    0  0.77687567041E+01 -0.40335121909E+01 -0.68991623365E+01  0.11145952955E+02  0.10500000000E+00 0. -1.
         13    1    6    6    0    0  0.10161887857E+02 -0.54427000229E+01 -0.90406345539E+01  0.14650291686E+02  0.10500000000E+00 0.  1.
</event>
<event>
11    0  0.3476221E-009  0.9118800E+02  0.7816531E-02  0.1126479E+00
         25   -1    0    0    0    0  0.00000000000E+00  0.00000000000E+00  0.99999998245E-14  0.12500000000E+03  0.12500000000E+03 0.  0.
    3000001    1    3    3    0    0  0.90192827325E+01  0.95980043498E+01  0.11770521610E+02  0.17692210927E+02  0.10000000000E+01 0.  1.
    1000022    2    1    0    0    0  0.30895762848E+02  0.44242345926E+02  0.29905131606E+02  0.62499993288E+02  0.99999464840E+01 0.  0.
    3000022    2    3    3    0    0  0.21876480116E+02  0.34644341576E+02  0.18134609996E+02  0.44807782362E+02  0.24998993894E+00 0.  0.
    1000022    2    1    0    0    0 -0.30895762848E+02 -0.44242345926E+02 -0.29905131606E+02  0.62500006712E+02  0.10000030382E+02 0.  0.
    3000022    2    5    5    0    0 -0.10826881926E+02 -0.19384394978E+02 -0.73875396803E+01  0.23401162063E+02  0.25000488695E+00 0.  0.
        -13    1    4    4    0    0  0.92236415430E+01  0.14532743980E+02  0.75621769941E+01  0.18800897765E+02  0.10500000000E+00 0. -1.
         13    1    4    4    0    0  0.12652838573E+02  0.20111597596E+02  0.10572433002E+02  0.26006884596E+02  0.10500000000E+00 0.  1.
    3000001    1    5    5    0    0 -0.20068880922E+02 -0.24857950947E+02 -0.22517591925E+02  0.39098844649E+02  0.10000000000E+01 0. -1.
        -13    1    6    6    0    0 -0.53760829245E+01 -0.95333916695E+01 -0.35879661333E+01  0.11518348419E+02  0.10500000000E+00 0.  1.
         13    1    6    6    0    0 -0.54507990018E+01 -0.98510033088E+01 -0.37995735470E+01  0.11882813644E+02  0.10500000000E+00 0. -1.
</event>
<event>
11    0  0.3476221E-009  0.9118800E+02  0.7816531E-02  0.1126479E+00
         25   -1    0    0    0    0  0.00000000000E+00  0.00000000000E+00  0.99999998245E-14  0.12500000000E+03  0.12500000000E+03 0.  0.
    3000001    1    3    3    0    0 -0.12229928277E+02 -0.10171614083E+01 -0.41895622921E+01  0.13006083007E+02  0.10000000000E+01 0. -1.
    1000022    2    1    0    0    0 -0.53931303454E+02 -0.23246082672E+02 -0.18901979142E+02  0.62499995184E+02  0.99999365331E+01 0.  0.
    3000022    2    3    3    0    0 -0.41701375177E+02 -0.22228921263E+02 -0.14712416849E+02  0.49493912177E+02  0.25000158429E+00 0.  0.
    1000022    2    1    0    0    0  0.53931303454E+02  0.23246082672E+02  0.18901979142E+02  0.62500004816E+02  0.99999967365E+01 0.  0.
    3000022    2    5    5    0    0  0.90693038300E+01  0.66758044652E+01  0.58907933662E+00  0.11279545726E+02  0.25000022185E+00 0.  0.
        -13    1    4    4    0    0 -0.24724362949E+02 -0.13144755733E+02 -0.87763923969E+01  0.29344757880E+02  0.10500000000E+00 0. -1.
         13    1    4    4    0    0 -0.16977012228E+02 -0.90841655300E+01 -0.59360244525E+01  0.20149154297E+02  0.10500000000E+00 0.  1.
    3000001    1    5    5    0    0  0.44861999624E+02  0.16570278207E+02  0.18312899805E+02  0.51220459090E+02  0.10000000000E+01 0.  1.
        -13    1    6    6    0    0  0.65566134956E+01  0.47813421567E+01  0.40849257218E+00  0.81257802414E+01  0.10500000000E+00 0. -1.
         13    1    6    6    0    0  0.25126903344E+01  0.18944623084E+01  0.18058676444E+00  0.31537654850E+01  0.10500000000E+00 0.  1.
</event>
<event>
11    0  0.3476221E-009  0.9118800E+02  0.7816531E-02  0.1126479E+00
         25   -1    0    0    0    0  0.00000000000E+00  0.00000000000E+00  0.99999998245E-14  0.12500000000E+03  0.12500000000E+03 0.  0.
    3000001    1    3    3    0    0  0.29080566665E+02  0.12244439745E+02 -0.52966535349E+02  0.61660842753E+02  0.10000000000E+01 0. -1.
    1000022    2    1    0    0    0  0.29206355110E+02  0.13009105423E+02 -0.52763639781E+02  0.62500003859E+02  0.10000039840E+02 0.  0.
    3000022    2    3    3    0    0  0.12578844473E+00  0.76466567863E+00  0.20289556805E+00  0.83916110589E+00  0.24997683332E+00 0.  0.
    1000022    2    1    0    0    0 -0.29206355110E+02 -0.13009105423E+02  0.52763639781E+02  0.62499996141E+02  0.99999915978E+01 0.  0.
    3000022    2    5    5    0    0 -0.14948645458E+02 -0.59708384118E+01  0.17354341571E+02  0.23671683188E+02  0.25000243562E+00 0.  0.
        -13    1    4    4    0    0  0.27983388859E-01  0.19992400901E+00  0.94935870070E-01  0.24655729326E+00  0.10500000000E+00 0.  1.
         13    1    4    4    0    0  0.97805055873E-01  0.56474166962E+00  0.10795969798E+00  0.59260381263E+00  0.10500000000E+00 0. -1.
    3000001    1    5    5    0    0 -0.14257709651E+02 -0.70382670117E+01  0.35409298210E+02  0.38828312953E+02  0.10000000000E+01 0. -1.
        -13    1    6    6    0    0 -0.36738581940E+01 -0.14509782820E+01  0.42857286412E+01  0.58293281766E+01  0.10500000000E+00 0.  1.
         13    1    6    6    0    0 -0.11274787264E+02 -0.45198601297E+01  0.13068612930E+02  0.17842355011E+02  0.10500000000E+00 0. -1.
</event>
<event>
11    0  0.3476221E-009  0.9118800E+02  0.7816531E-02  0.1126479E+00
         25   -1    0    0    0    0  0.00000000000E+00  0.00000000000E+00  0.99999998245E-14  0.12500000000E+03  0.12500000000E+03 0.  0.
    3000001    1    3    3    0    0 -0.28956230104E+02 -0.19051858745E+00  0.27462115214E+02  0.39920763159E+02  0.10000000000E+01 0.  1.
    1000022    2    1    0    0    0 -0.40438963705E+02 -0.48148158788E+01  0.46343904047E+02  0.62499995670E+02  0.99999889537E+01 0.  0.
    3000022    2    3    3    0    0 -0.11482733601E+02 -0.46242972914E+01  0.18881788832E+02  0.22579232511E+02  0.24998982218E+00 0.  0.
    1000022    2    1    0    0    0  0.40438963705E+02  0.48148158788E+01 -0.46343904047E+02  0.62500004330E+02  0.10000043073E+02 0.  0.
    3000022    2    5    5    0    0  0.18320518780E+01 -0.14210759794E+01 -0.80919773299E+00  0.24684337427E+01  0.24998629579E+00 0.  0.
        -13    1    4    4    0    0 -0.53549816859E+01 -0.21001414857E+01  0.88506807875E+01  0.10556135586E+02  0.10500000000E+00 0.  1.
         13    1    4    4    0    0 -0.61277519150E+01 -0.25241558057E+01  0.10031108045E+02  0.12023096925E+02  0.10500000000E+00 0. -1.
    3000001    1    5    5    0    0  0.38606911827E+02  0.62358918583E+01 -0.45534706314E+02  0.60031570587E+02  0.10000000000E+01 0.  1.
        -13    1    6    6    0    0  0.11372394052E+01 -0.92777538823E+00 -0.56056979409E+00  0.15745933220E+01  0.10500000000E+00 0.  1.
         13    1    6    6    0    0  0.69481247279E+00 -0.49330059119E+00 -0.24862793890E+00  0.89384042067E+00  0.10500000000E+00 0. -1.
</event>
<event>
11    0  0.3476221E-009  0.9118800E+02  0.7816531E-02  0.1126479E+00
         25   -1    0    0    0    0  0.00000000000E+00  0.00000000000E+00  0.99999998245E-14  0.12500000000E+03  0.12500000000E+03 0.  0.
    3000001    1    3    3    0    0  0.63597699428E+01  0.56069663040E+02  0.73301999532E+01  0.56912086752E+02  0.10000000000E+01 0. -1.
    1000022    2    1    0    0    0  0.39482642471E+01  0.61096636415E+02  0.76066887807E+01  0.62499999453E+02  0.10000022283E+02 0.  0.
    3000022    2    3    3    0    0 -0.24115056958E+01  0.50269733754E+01  0.27648882749E+00  0.55879127014E+01  0.25000249670E+00 0.  0.
    1000022    2    1    0    0    0 -0.39482642471E+01 -0.61096636415E+02 -0.76066887807E+01  0.62500000547E+02  0.10000029118E+02 0.  0.
    3000022    2    5    5    0    0 -0.32553504295E+01 -0.57764087087E+02 -0.49496236592E+01  0.58067618609E+02  0.24998628654E+00 0.  0.
        -13    1    4    4    0    0 -0.15884110696E+01  0.31950399926E+01  0.14754331343E+00  0.35726914658E+01  0.10500000000E+00 0. -1.
         13    1    4    4    0    0 -0.82309462618E+00  0.18319333828E+01  0.12894551405E+00  0.20152212356E+01  0.10500000000E+00 0.  1.
    3000001    1    5    5    0    0 -0.69291381755E+00 -0.33325493276E+01 -0.26570651215E+01  0.44323819374E+01  0.10000000000E+01 0.  1.
        -13    1    6    6    0    0 -0.20172803365E+01 -0.36058571666E+02 -0.30310155382E+01  0.36242076248E+02  0.10500000000E+00 0. -1.
         13    1    6    6    0    0 -0.12380700930E+01 -0.21705515421E+02 -0.19186081210E+01  0.21825542361E+02  0.10500000000E+00 0.  1.
</event>
<event>
11    0  0.3476221E-009  0.9118800E+02  0.7816531E-02  0.1126479E+00
         25   -1    0    0    0    0  0.00000000000E+00  0.00000000000E+00  0.99999998245E-14  0.12500000000E+03  0.12500000000E+03 0.  0.
    3000001    1    3    3    0    0 -0.26275453286E+02  0.64927758769E+01  0.18040631432E+02  0.32542586966E+02  0.10000000000E+01 0.  1.
    1000022    2    1    0    0    0 -0.50220646246E+02  0.20413805950E+02  0.29451870816E+02  0.62499993818E+02  0.99999874933E+01 0.  0.
    3000022    2    3    3    0    0 -0.23945192960E+02  0.13921030073E+02  0.11411239384E+02  0.29957406852E+02  0.24999357982E+00 0.  0.
    1000022    2    1    0    0    0  0.50220646246E+02 -0.20413805950E+02 -0.29451870816E+02  0.62500006182E+02  0.10000064774E+02 0.  0.
    3000022    2    5    5    0    0  0.21851950670E+02 -0.13480236986E+02 -0.16617917733E+02  0.30585000009E+02  0.24999702611E+00 0.  0.
        -13    1    4    4    0    0 -0.11176978021E+02  0.64276514510E+01  0.52807828889E+01  0.13933313811E+02  0.10500000000E+00 0.  1.
         13    1    4    4    0    0 -0.12768214940E+02  0.74933786222E+01  0.61304564953E+01  0.16024093040E+02  0.10500000000E+00 0. -1.
    3000001    1    5    5    0    0  0.28368695577E+02 -0.69335689641E+01 -0.12833953082E+02  0.31915006173E+02  0.10000000000E+01 0. -1.
        -13    1    6    6    0    0  0.13835861137E+02 -0.85129188541E+01 -0.10580825468E+02  0.19387256985E+02  0.10500000000E+00 0. -1.
         13    1    6    6    0    0  0.80160895325E+01 -0.49673181319E+01 -0.60370922649E+01  0.11197743024E+02  0.10500000000E+00 0.  1.
</event>
<event>
11    0  0.3476221E-009  0.9118800E+02  0.7816531E-02  0.1126479E+00
         25   -1    0    0    0    0  0.00000000000E+00  0.00000000000E+00  0.99999998245E-14  0.12500000000E+03  0.12500000000E+03 0.  0.
    3000001    1    3    3    0    0  0.30546450471E+02 -0.18995980445E+02 -0.46307843135E+02  0.58645965294E+02  0.10000000000E+01 0.  1.
    1000022    2    1    0    0    0  0.30727285253E+02 -0.21917105861E+02 -0.48802915374E+02  0.62499997655E+02  0.99999784813E+01 0.  0.
    3000022    2    3    3    0    0  0.18083478204E+00 -0.29211254160E+01 -0.24950722388E+01  0.38540323617E+01  0.25001010637E+00 0.  0.
    1000022    2    1    0    0    0 -0.30727285253E+02  0.21917105861E+02  0.48802915374E+02  0.62500002345E+02  0.10000007791E+02 0.  0.
    3000022    2    5    5    0    0 -0.22228311984E+01 -0.75294237810E+00  0.15162489690E+01  0.28052470663E+01  0.24999881157E+00 0.  0.
        -13    1    4    4    0    0  0.98709659035E-01 -0.12318856937E+01 -0.97473759542E+00  0.15774740375E+01  0.10500000000E+00 0.  1.
         13    1    4    4    0    0  0.82125123009E-01 -0.16892397224E+01 -0.15203346434E+01  0.22765583242E+01  0.10500000000E+00 0. -1.
    3000001    1    5    5    0    0 -0.28504454055E+02  0.22670048239E+02  0.47286666405E+02  0.59694755278E+02  0.10000000000E+01 0.  1.
        -13    1    6    6    0    0 -0.15968812142E+01 -0.54131374633E+00  0.11339277579E+01  0.20346663963E+01  0.10500000000E+00 0. -1.
         13    1    6    6    0    0 -0.62594998418E+00 -0.21162863177E+00  0.38232121112E+00  0.77058066999E+00  0.10500000000E+00 0.  1.
</event>
<event>
11    0  0.3476221E-009  0.9118800E+02  0.7816531E-02  0.1126479E+00
         25   -1    0    0    0    0  0.00000000000E+00  0.00000000000E+00  0.99999998245E-14  0.12500000000E+03  0.12500000000E+03 0.  0.
    3000001    1    3    3    0    0 -0.44051759603E+02  0.17804603868E+02 -0.16726892661E+02  0.50382044233E+02  0.10000000000E+01 0.  1.
    1000022    2    1    0    0    0 -0.53970546421E+02  0.24761599169E+02 -0.16741963182E+02  0.62500000293E+02  0.10000001551E+02 0.  0.
    3000022    2    3    3    0    0 -0.99187868185E+01  0.69569953011E+01 -0.15070521056E-01  0.12117956060E+02  0.25003276421E+00 0.  0.
    1000022    2    1    0    0    0  0.53970546421E+02 -0.24761599169E+02  0.16741963182E+02  0.62499999707E+02  0.99999978925E+01 0.  0.
    3000022    2    5    5    0    0  0.70230027499E+01 -0.56617622868E+01  0.55200894628E+01  0.10578847222E+02  0.25000208813E+00 0.  0.
        -13    1    4    4    0    0 -0.57142145383E+01  0.39297991001E+01 -0.22242625928E-01  0.69359273707E+01  0.10500000000E+00 0. -1.
         13    1    4    4    0    0 -0.42045722802E+01  0.30271962011E+01  0.71721048721E-02  0.51820286894E+01  0.10500000000E+00 0.  1.
    3000001    1    5    5    0    0  0.46947543671E+02 -0.19099836882E+02  0.11221873719E+02  0.51921152486E+02  0.10000000000E+01 0.  1.
        -13    1    6    6    0    0  0.32132533634E+01 -0.25898497748E+01  0.26040988304E+01  0.48810526275E+01  0.10500000000E+00 0. -1.
         13    1    6    6    0    0  0.38097493865E+01 -0.30719125119E+01  0.29159906324E+01  0.56977945941E+01  0.10500000000E+00 0.  1.
</event>
<event>
11    0  0.3476221E-009  0.9118800E+02  0.7816531E-02  0.1126479E+00
         25   -1    0    0    0    0  0.00000000000E+00  0.00000000000E+00  0.99999998245E-14  0.12500000000E+03  0.12500000000E+03 0.  0.
    3000001    1    3    3    0    0  0.30561170000E+02  0.20105401312E+02  0.27040080956E+02  0.45501409339E+02  0.10000000000E+01 0. -1.
    1000022    2    1    0    0    0  0.39703607442E+02  0.23494419459E+02  0.40962005567E+02  0.62500000237E+02  0.99999969960E+01 0.  0.
    3000022    2    3    3    0    0  0.91424374412E+01  0.33890181471E+01  0.13921924612E+02  0.16998590898E+02  0.25000253525E+00 0.  0.
    1000022    2    1    0    0    0 -0.39703607442E+02 -0.23494419459E+02 -0.40962005567E+02  0.62499999763E+02  0.99999940329E+01 0.  0.
    3000022    2    5    5    0    0 -0.26661493876E+02 -0.10959298809E+02 -0.21903558804E+02  0.36204555880E+02  0.24998421065E+00 0.  0.
        -13    1    4    4    0    0  0.57819745058E+01  0.21081642677E+01  0.86999646738E+01  0.10657203953E+02  0.10500000000E+00 0. -1.
         13    1    4    4    0    0  0.33604629355E+01  0.12808538794E+01  0.52219599378E+01  0.63413869456E+01  0.10500000000E+00 0.  1.
    3000001    1    5    5    0    0 -0.13042113566E+02 -0.12535120650E+02 -0.19058446763E+02  0.26295443883E+02  0.10000000000E+01 0. -1.
        -13    1    6    6    0    0 -0.17850220941E+02 -0.73421903366E+01 -0.14732063420E+02  0.24281327480E+02  0.10500000000E+00 0.  1.
         13    1    6    6    0    0 -0.88112729351E+01 -0.36171084728E+01 -0.71714953847E+01  0.11923228401E+02  0.10500000000E+00 0. -1.
</event>
<event>
11    0  0.3476221E-009  0.9118800E+02  0.7816531E-02  0.1126479E+00
         25   -1    0    0    0    0  0.00000000000E+00  0.00000000000E+00  0.99999998245E-14  0.12500000000E+03  0.12500000000E+03 0.  0.
    3000001    1    3    3    0    0  0.14077269819E+02  0.17972726855E+02  0.32496906074E+02  0.39727035386E+02  0.10000000000E+01 0. -1.
    1000022    2    1    0    0    0  0.26079954584E+02  0.31941331817E+02  0.45889395839E+02  0.62499994504E+02  0.99999976613E+01 0.  0.
    3000022    2    3    3    0    0  0.12002684766E+02  0.13968604963E+02  0.13392489765E+02  0.22772959119E+02  0.25003749099E+00 0.  0.
    1000022    2    1    0    0    0 -0.26079954584E+02 -0.31941331817E+02 -0.45889395839E+02  0.62500005496E+02  0.10000066356E+02 0.  0.
    3000022    2    5    5    0    0 -0.16688928992E+02 -0.16919935583E+02 -0.19721788848E+02  0.30883912092E+02  0.24999938012E+00 0.  0.
        -13    1    4    4    0    0  0.91825570638E+01  0.10679269568E+02  0.10223605725E+02  0.17404002177E+02  0.10500000000E+00 0. -1.
         13    1    4    4    0    0  0.28201277018E+01  0.32893353949E+01  0.31688840392E+01  0.53689569423E+01  0.10500000000E+00 0.  1.
    3000001    1    5    5    0    0 -0.93910255925E+01 -0.15021396234E+02 -0.26167606991E+02  0.31616093404E+02  0.10000000000E+01 0. -1.
        -13    1    6    6    0    0 -0.91819430425E+01 -0.93353690397E+01 -0.10782850441E+02  0.16962844153E+02  0.10500000000E+00 0. -1.
         13    1    6    6    0    0 -0.75069859494E+01 -0.75845665434E+01 -0.89389384073E+01  0.13921067938E+02  0.10500000000E+00 0.  1.
</event>
<event>
11    0  0.3476221E-009  0.9118800E+02  0.7816531E-02  0.1126479E+00
         25   -1    0    0    0    0  0.00000000000E+00  0.00000000000E+00  0.99999998245E-14  0.12500000000E+03  0.12500000000E+03 0.  0.
    3000001    1    3    3    0    0 -0.48873300785E+02 -0.68742629044E+01 -0.33768181532E+01  0.49479873898E+02  0.10000000000E+01 0. -1.
    1000022    2    1    0    0    0 -0.60052685552E+02 -0.11603880815E+02 -0.80793036292E+01  0.62500004330E+02  0.10000015111E+02 0.  0.
    3000022    2    3    3    0    0 -0.11179384767E+02 -0.47296179105E+01 -0.47024854760E+01  0.13020130433E+02  0.24999497583E+00 0.  0.
    1000022    2    1    0    0    0  0.60052685552E+02  0.11603880815E+02  0.80793036292E+01  0.62499995670E+02  0.99999609802E+01 0.  0.
    3000022    2    5    5    0    0  0.38402669251E+02  0.11699413853E+02  0.73575601096E+01  0.40814672382E+02  0.25000152442E+00 0.  0.
        -13    1    4    4    0    0 -0.30519490811E+01 -0.13104752929E+01 -0.12518605410E+01  0.35510447056E+01  0.10500000000E+00 0. -1.
         13    1    4    4    0    0 -0.81274356856E+01 -0.34191426176E+01 -0.34506249349E+01  0.94690857270E+01  0.10500000000E+00 0.  1.
    3000001    1    5    5    0    0  0.21650016301E+02 -0.95533037926E-01  0.72174351961E+00  0.21685323288E+02  0.10000000000E+01 0.  1.
        -13    1    6    6    0    0  0.28140222192E+02  0.85803902348E+01  0.54263628933E+01  0.29915742358E+02  0.10500000000E+00 0.  1.
         13    1    6    6    0    0  0.10262447059E+02  0.31190236181E+01  0.19311972163E+01  0.10898930024E+02  0.10500000000E+00 0. -1.
</event>
<event>
11    0  0.3476221E-009  0.9118800E+02  0.7816531E-02  0.1126479E+00
         25   -1    0    0    0    0  0.00000000000E+00  0.00000000000E+00  0.99999998245E-14  0.12500000000E+03  0.12500000000E+03 0.  0.
    3000001    1    3    3    0    0  0.15952347807E+02  0.20673978810E+02 -0.24029726540E+02  0.35500965592E+02  0.10000000000E+01 0.  1.
    1000022    2    1    0    0    0  0.24417950511E+02  0.30674319606E+02 -0.47635068382E+02  0.62500000962E+02  0.10000009500E+02 0.  0.
    3000022    2    3    3    0    0  0.84656027042E+01  0.10000340797E+02 -0.23605341842E+02  0.26999035370E+02  0.25000445261E+00 0.  0.
    1000022    2    1    0    0    0 -0.24417950511E+02 -0.30674319606E+02  0.47635068382E+02  0.62499999038E+02  0.99999974772E+01 0.  0.
    3000022    2    5    5    0    0 -0.93991315892E+01 -0.90058242629E+01  0.22859699548E+02  0.26307354577E+02  0.24999222810E+00 0.  0.
        -13    1    4    4    0    0  0.35899068227E+01  0.43119357205E+01 -0.10204357539E+02  0.11645606830E+02  0.10500000000E+00 0.  1.
         13    1    4    4    0    0  0.48756958815E+01  0.56884050760E+01 -0.13400984304E+02  0.15353428540E+02  0.10500000000E+00 0. -1.
    3000001    1    5    5    0    0 -0.15018818922E+02 -0.21668495343E+02  0.24775368834E+02  0.36192644462E+02  0.10000000000E+01 0. -1.
        -13    1    6    6    0    0 -0.65187319263E+01 -0.62199907012E+01  0.15732082182E+02  0.18129853420E+02  0.10500000000E+00 0. -1.
         13    1    6    6    0    0 -0.28803996629E+01 -0.27858335617E+01  0.71276173658E+01  0.81775011565E+01  0.10500000000E+00 0.  1.
</event>
<event>
11    0  0.3476221E-009  0.9118800E+02  0.7816531E-02  0.1126479E+00
         25   -1    0    0    0    0  0.00000000000E+00  0.00000000000E+00  0.99999998245E-14  0.12500000000E+03  0.12500000000E+03 0.  0.
    3000001    1    3    3    0    0 -0.25474066724E+02  0.45967646827E+02  0.97263283875E+01  0.53456095014E+02  0.10000000000E+01 0.  1.
    1000022    2    1    0    0    0 -0.32505963895E+02  0.50924051594E+02  0.12504131838E+02  0.62500000053E+02  0.99999987044E+01 0.  0.
    3000022    2    3    3    0    0 -0.70318971710E+01  0.49564047673E+01  0.27778034503E+01  0.90439050388E+01  0.25000060320E+00 0.  0.
    1000022    2    1    0    0    0  0.32505963895E+02 -0.50924051594E+02 -0.12504131838E+02  0.62499999947E+02  0.99999980432E+01 0.  0.
    3000022    2    5    5    0    0  0.12978786617E+02 -0.25499174613E+02 -0.17325836157E+01  0.28665679014E+02  0.24999861855E+00 0.  0.
        -13    1    4    4    0    0 -0.33132006647E+01  0.23003641944E+01  0.12382598609E+01  0.42205789360E+01  0.10500000000E+00 0.  1.
         13    1    4    4    0    0 -0.37186965062E+01  0.26560405729E+01  0.15395435893E+01  0.48233261028E+01  0.10500000000E+00 0. -1.
    3000001    1    5    5    0    0  0.19527177278E+02 -0.25424876981E+02 -0.10771548222E+02  0.33834320933E+02  0.10000000000E+01 0.  1.
        -13    1    6    6    0    0  0.79303483779E+01 -0.15715344926E+02 -0.10600188509E+01  0.17635111468E+02  0.10500000000E+00 0. -1.
         13    1    6    6    0    0  0.50484382392E+01 -0.97838296875E+01 -0.67256476481E+00  0.11030567545E+02  0.10500000000E+00 0.  1.
</event>
<event>
11    0  0.3476221E-009  0.9118800E+02  0.7816531E-02  0.1126479E+00
         25   -1    0    0    0    0  0.00000000000E+00  0.00000000000E+00  0.99999998245E-14  0.12500000000E+03  0.12500000000E+03 0.  0.
    3000001    1    3    3    0    0 -0.39797474470E+02  0.10168748036E+02 -0.67713453523E+01  0.41642448639E+02  0.10000000000E+01 0. -1.
    1000022    2    1    0    0    0 -0.57088959501E+02  0.16542192161E+02 -0.16536522758E+02  0.62499999626E+02  0.99999974935E+01 0.  0.
    3000022    2    3    3    0    0 -0.17291485031E+02  0.63734441257E+01 -0.97651774062E+01  0.20857550987E+02  0.24999755420E+00 0.  0.
    1000022    2    1    0    0    0  0.57088959501E+02 -0.16542192161E+02  0.16536522758E+02  0.62500000374E+02  0.10000002170E+02 0.  0.
    3000022    2    5    5    0    0  0.17387306349E+02 -0.69636446865E+01  0.96479730414E+01  0.21070277325E+02  0.24986665008E+00 0.  0.
        -13    1    4    4    0    0 -0.80885366156E+01  0.30262522582E+01 -0.46356804900E+01  0.98022031155E+01  0.10500000000E+00 0. -1.
         13    1    4    4    0    0 -0.92029484158E+01  0.33471918674E+01 -0.51294969161E+01  0.11055347871E+02  0.10500000000E+00 0.  1.
    3000001    1    5    5    0    0  0.39701653152E+02 -0.95785474747E+01  0.68885497171E+01  0.41429723049E+02  0.10000000000E+01 0.  1.
        -13    1    6    6    0    0  0.81342515991E+01 -0.32093449451E+01  0.45605272985E+01  0.98628281083E+01  0.10500000000E+00 0. -1.
         13    1    6    6    0    0  0.92530547503E+01 -0.37542997414E+01  0.50874457429E+01  0.11207449217E+02  0.10500000000E+00 0.  1.
</event>
<event>
11    0  0.3476221E-009  0.9118800E+02  0.7816531E-02  0.1126479E+00
         25   -1    0    0    0    0  0.00000000000E+00  0.00000000000E+00  0.99999998245E-14  0.12500000000E+03  0.12500000000E+03 0.  0.
    3000001    1    3    3    0    0  0.23352325206E+01  0.88116604024E+01 -0.36887759198E+02  0.38010596531E+02  0.10000000000E+01 0. -1.
    1000022    2    1    0    0    0  0.10329093457E+02  0.99351094079E+01 -0.60007110256E+02  0.62499998890E+02  0.10000000467E+02 0.  0.
    3000022    2    3    3    0    0  0.79938609363E+01  0.11234490055E+01 -0.23119351058E+02  0.24489402359E+02  0.24996843295E+00 0.  0.
    1000022    2    1    0    0    0 -0.10329093457E+02 -0.99351094079E+01  0.60007110256E+02  0.62500001110E+02  0.10000014341E+02 0.  0.
    3000022    2    5    5    0    0 -0.68413478797E+01 -0.23372088568E+01  0.42040672839E+02  0.42658495737E+02  0.24999942987E+00 0.  0.
        -13    1    4    4    0    0  0.30870234481E+01  0.41818367268E+00 -0.91048675643E+01  0.96236287187E+01  0.10500000000E+00 0.  1.
         13    1    4    4    0    0  0.49068374883E+01  0.70526533278E+00 -0.14014483494E+02  0.14865773640E+02  0.10500000000E+00 0. -1.
    3000001    1    5    5    0    0 -0.34877455772E+01 -0.75979005510E+01  0.17966437418E+02  0.19841505373E+02  0.10000000000E+01 0. -1.
        -13    1    6    6    0    0 -0.47252828149E+01 -0.15800924806E+01  0.28749346521E+02  0.29178090073E+02  0.10500000000E+00 0. -1.
         13    1    6    6    0    0 -0.21160650647E+01 -0.75711637621E+00  0.13291326318E+02  0.13480405664E+02  0.10500000000E+00 0.  1.
</event>
<event>
11    0  0.3476221E-009  0.9118800E+02  0.7816531E-02  0.1126479E+00
         25   -1    0    0    0    0  0.00000000000E+00  0.00000000000E+00  0.99999998245E-14  0.12500000000E+03  0.12500000000E+03 0.  0.
    3000001    1    3    3    0    0 -0.12675914441E+02 -0.20738291463E+02 -0.20352857473E+02  0.31717413940E+02  0.10000000000E+01 0. -1.
    1000022    2    1    0    0    0 -0.17108909458E+02 -0.38289070074E+02 -0.45249116787E+02  0.62499998322E+02  0.99999775100E+01 0.  0.
    3000022    2    3    3    0    0 -0.44329950173E+01 -0.17550778611E+02 -0.24896259314E+02  0.30782584382E+02  0.24999740414E+00 0.  0.
    1000022    2    1    0    0    0  0.17108909458E+02  0.38289070074E+02  0.45249116787E+02  0.62500001678E+02  0.99999984909E+01 0.  0.
    3000022    2    5    5    0    0  0.93229057166E+01  0.29304847111E+02  0.28443759248E+02  0.41890339902E+02  0.25000356336E+00 0.  0.
        -13    1    4    4    0    0 -0.13736607658E+01 -0.54212748687E+01 -0.76110329165E+01  0.94454228152E+01  0.10500000000E+00 0. -1.
         13    1    4    4    0    0 -0.30593342515E+01 -0.12129503743E+02 -0.17285226398E+02  0.21337161567E+02  0.10500000000E+00 0.  1.
    3000001    1    5    5    0    0  0.77860037418E+01  0.89842229636E+01  0.16805357539E+02  0.20609661776E+02  0.10000000000E+01 0.  1.
        -13    1    6    6    0    0  0.65147024268E+01  0.20584995951E+02  0.20013065554E+02  0.29440061547E+02  0.10500000000E+00 0. -1.
         13    1    6    6    0    0  0.28082032898E+01  0.87198511595E+01  0.84306936936E+01  0.12450278355E+02  0.10500000000E+00 0.  1.
</event>
<event>
11    0  0.3476221E-009  0.9118800E+02  0.7816531E-02  0.1126479E+00
         25   -1    0    0    0    0  0.00000000000E+00  0.00000000000E+00  0.99999998245E-14  0.12500000000E+03  0.12500000000E+03 0.  0.
    3000001    1    3    3    0    0  0.24241196024E+02  0.29065529542E+02  0.54725490483E+01  0.38254272772E+02  0.10000000000E+01 0. -1.
    1000022    2    1    0    0    0  0.32827285299E+02  0.51514483915E+02  0.86531621040E+01  0.62499999808E+02  0.10000002422E+02 0.  0.
    3000022    2    3    3    0    0  0.85860892748E+01  0.22448954374E+02  0.31806130557E+01  0.24245727036E+02  0.24999719047E+00 0.  0.
    1000022    2    1    0    0    0 -0.32827285299E+02 -0.51514483915E+02 -0.86531621040E+01  0.62500000192E+02  0.10000004823E+02 0.  0.
    3000022    2    5    5    0    0 -0.31050427076E+02 -0.48540407502E+02 -0.10299911762E+02  0.58535893724E+02  0.24997934528E+00 0.  0.
        -13    1    4    4    0    0  0.37848925243E+01  0.97213363125E+01  0.13593586344E+01  0.10520868406E+02  0.10500000000E+00 0. -1.
         13    1    4    4    0    0  0.48011967504E+01  0.12727618061E+02  0.18212544213E+01  0.13724858630E+02  0.10500000000E+00 0.  1.
    3000001    1    5    5    0    0 -0.17768582222E+01 -0.29740764137E+01  0.16467496580E+01  0.39641064684E+01  0.10000000000E+01 0. -1.
        -13    1    6    6    0    0 -0.17698370574E+02 -0.27774621172E+02 -0.59181331760E+01  0.33461877226E+02  0.10500000000E+00 0. -1.
         13    1    6    6    0    0 -0.13352056502E+02 -0.20765786330E+02 -0.43817785859E+01  0.25074016498E+02  0.10500000000E+00 0.  1.
</event>
<event>
11    0  0.3476221E-009  0.9118800E+02  0.7816531E-02  0.1126479E+00
         25   -1    0    0    0    0  0.00000000000E+00  0.00000000000E+00  0.99999998245E-14  0.12500000000E+03  0.12500000000E+03 0.  0.
    3000001    1    3    3    0    0  0.36771556236E+01 -0.18021573534E+01 -0.23540869254E+02  0.23915304093E+02  0.10000000000E+01 0.  1.
    1000022    2    1    0    0    0  0.19980696357E+02 -0.10425786910E+02 -0.57431042870E+02  0.62500000666E+02  0.10000006925E+02 0.  0.
    3000022    2    3    3    0    0  0.16303540733E+02 -0.86236295562E+01 -0.33890173616E+02  0.38584696573E+02  0.25002952401E+00 0.  0.
    1000022    2    1    0    0    0 -0.19980696357E+02  0.10425786910E+02  0.57431042870E+02  0.62499999334E+02  0.99999986036E+01 0.  0.
    3000022    2    5    5    0    0 -0.16030430174E+02  0.10454186738E+02  0.53569469191E+02  0.56885984662E+02  0.25001931366E+00 0.  0.
        -13    1    4    4    0    0  0.11405560060E+02 -0.59838046524E+01 -0.23631409462E+02  0.26913700165E+02  0.10500000000E+00 0. -1.
         13    1    4    4    0    0  0.48979806735E+01 -0.26398249039E+01 -0.10258764154E+02  0.11670996409E+02  0.10500000000E+00 0.  1.
    3000001    1    5    5    0    0 -0.39502661823E+01 -0.28399827917E-01  0.38615736790E+01  0.56140146722E+01  0.10000000000E+01 0.  1.
        -13    1    6    6    0    0 -0.78352984982E+01  0.51900794984E+01  0.26281284315E+02  0.27911391187E+02  0.10500000000E+00 0.  1.
         13    1    6    6    0    0 -0.81951316763E+01  0.52641072392E+01  0.27288184876E+02  0.28974593475E+02  0.10500000000E+00 0. -1.
</event>
<event>
11    0  0.3476221E-009  0.9118800E+02  0.7816531E-02  0.1126479E+00
         25   -1    0    0    0    0  0.00000000000E+00  0.00000000000E+00  0.99999998245E-14  0.12500000000E+03  0.12500000000E+03 0.  0.
    3000001    1    3    3    0    0 -0.17146127212E+02 -0.84147941906E+01 -0.16366763942E+02  0.25172790898E+02  0.10000000000E+01 0.  1.
    1000022    2    1    0    0    0 -0.45833514344E+02 -0.93323113262E+01 -0.40229920879E+02  0.62500003172E+02  0.10000039536E+02 0.  0.
    3000022    2    3    3    0    0 -0.28687387132E+02 -0.91751713557E+00 -0.23863156937E+02  0.37327212274E+02  0.24999801027E+00 0.  0.
    1000022    2    1    0    0    0  0.45833514344E+02  0.93323113262E+01  0.40229920879E+02  0.62499996828E+02  0.99999998890E+01 0.  0.
    3000022    2    5    5    0    0  0.44390559450E+02  0.99384641863E+01  0.36463234827E+02  0.58300298752E+02  0.25000374677E+00 0.  0.
        -13    1    4    4    0    0 -0.11490605936E+02 -0.42014703918E+00 -0.95145451804E+01  0.14924749355E+02  0.10500000000E+00 0. -1.
         13    1    4    4    0    0 -0.17196781196E+02 -0.49737009639E+00 -0.14348611756E+02  0.22402462919E+02  0.10500000000E+00 0.  1.
    3000001    1    5    5    0    0  0.14429548940E+01 -0.60615286014E+00  0.37666860517E+01  0.41996980758E+01  0.10000000000E+01 0. -1.
        -13    1    6    6    0    0  0.17405695071E+02  0.39031083248E+01  0.14219184687E+02  0.22812030020E+02  0.10500000000E+00 0. -1.
         13    1    6    6    0    0  0.26984864380E+02  0.60353558615E+01  0.22244050141E+02  0.35488268732E+02  0.10500000000E+00 0.  1.
</event>
<event>
11    0  0.3476221E-009  0.9118800E+02  0.7816531E-02  0.1126479E+00
         25   -1    0    0    0    0  0.00000000000E+00  0.00000000000E+00  0.99999998245E-14  0.12500000000E+03  0.12500000000E+03 0.  0.
    3000001    1    3    3    0    0 -0.16079438351E+02 -0.15585196268E+02  0.32737394469E+00  0.22417712954E+02  0.10000000000E+01 0.  1.
    1000022    2    1    0    0    0 -0.49664514003E+02 -0.35600701125E+02 -0.85015319473E+01  0.62500000934E+02  0.10000009975E+02 0.  0.
    3000022    2    3    3    0    0 -0.33585075652E+02 -0.20015504857E+02 -0.88289058920E+01  0.40082287980E+02  0.24997837136E+00 0.  0.
    1000022    2    1    0    0    0  0.49664514003E+02  0.35600701125E+02  0.85015319473E+01  0.62499999066E+02  0.99999983038E+01 0.  0.
    3000022    2    5    5    0    0  0.29345542187E+02  0.23157021681E+02  0.97053651742E+01  0.38622080643E+02  0.25000136973E+00 0.  0.
        -13    1    4    4    0    0 -0.77473239557E+01 -0.46085548370E+01 -0.20384175161E+01  0.92426174393E+01  0.10500000000E+00 0. -1.
         13    1    4    4    0    0 -0.25837751697E+02 -0.15406950020E+02 -0.67904883759E+01  0.30839670540E+02  0.10500000000E+00 0.  1.
    3000001    1    5    5    0    0  0.20318971816E+02  0.12443679444E+02 -0.12038332269E+01  0.23877918423E+02  0.10000000000E+01 0. -1.
        -13    1    6    6    0    0  0.92756600105E+01  0.73392702916E+01  0.31200154166E+01  0.12233081306E+02  0.10500000000E+00 0. -1.
         13    1    6    6    0    0  0.20069882177E+02  0.15817751389E+02  0.65853497575E+01  0.26388999337E+02  0.10500000000E+00 0.  1.
</event>
<event>
11    0  0.3476221E-009  0.9118800E+02  0.7816531E-02  0.1126479E+00
         25   -1    0    0    0    0  0.00000000000E+00  0.00000000000E+00  0.99999998245E-14  0.12500000000E+03  0.12500000000E+03 0.  0.
    3000001    1    3    3    0    0 -0.33504715771E+01 -0.34981294225E+02 -0.99034398731E+01  0.36523892546E+02  0.10000000000E+01 0. -1.
    1000022    2    1    0    0    0  0.16102696809E+01 -0.58151117797E+02 -0.20545164457E+02  0.62500006152E+02  0.10000075851E+02 0.  0.
    3000022    2    3    3    0    0  0.49607412581E+01 -0.23169823572E+02 -0.10641724584E+02  0.25976113606E+02  0.24999551366E+00 0.  0.
    1000022    2    1    0    0    0 -0.16102696809E+01  0.58151117797E+02  0.20545164457E+02  0.62499993848E+02  0.99999989476E+01 0.  0.
    3000022    2    5    5    0    0 -0.51584700918E+01  0.20437500658E+02  0.86225038846E+01  0.22775234830E+02  0.25000303607E+00 0.  0.
        -13    1    4    4    0    0  0.30112648822E+01 -0.13761056000E+02 -0.63287582611E+01  0.15443399385E+02  0.10500000000E+00 0.  1.
         13    1    4    4    0    0  0.19494763758E+01 -0.94087675717E+01 -0.43129663228E+01  0.10532714221E+02  0.10500000000E+00 0. -1.
    3000001    1    5    5    0    0  0.35482004108E+01  0.37713617139E+02  0.11922660572E+02  0.39724759018E+02  0.10000000000E+01 0.  1.
        -13    1    6    6    0    0 -0.34931966622E+01  0.13804749223E+02  0.58799411772E+01  0.15406435580E+02  0.10500000000E+00 0. -1.
         13    1    6    6    0    0 -0.16652734296E+01  0.66327514341E+01  0.27425627074E+01  0.73687992499E+01  0.10500000000E+00 0.  1.
</event>
<event>
11    0  0.3476221E-009  0.9118800E+02  0.7816531E-02  0.1126479E+00
         25   -1    0    0    0    0  0.00000000000E+00  0.00000000000E+00  0.99999998245E-14  0.12500000000E+03  0.12500000000E+03 0.  0.
    3000001    1    3    3    0    0  0.88104915359E+01 -0.13108543655E+02  0.86583282710E+00  0.15849553443E+02  0.10000000000E+01 0.  1.
    1000022    2    1    0    0    0  0.46468649118E+02 -0.40056118126E+02  0.65132218501E+01  0.62499999668E+02  0.99999974682E+01 0.  0.
    3000022    2    3    3    0    0  0.37658157582E+02 -0.26947574471E+02  0.56473890230E+01  0.46650446224E+02  0.25005557911E+00 0.  0.
    1000022    2    1    0    0    0 -0.46468649118E+02  0.40056118126E+02 -0.65132218501E+01  0.62500000332E+02  0.10000001624E+02 0.  0.
    3000022    2    5    5    0    0 -0.30764719521E+02  0.24504376502E+02 -0.86541392914E+01  0.40272683809E+02  0.24999871653E+00 0.  0.
        -13    1    4    4    0    0  0.17424844680E+02 -0.12404686560E+02  0.25659830771E+01  0.21542904979E+02  0.10500000000E+00 0. -1.
         13    1    4    4    0    0  0.20233312902E+02 -0.14542887911E+02  0.30814059459E+01  0.25107541246E+02  0.10500000000E+00 0.  1.
    3000001    1    5    5    0    0 -0.15703929597E+02  0.15551741624E+02  0.21409174413E+01  0.22227316523E+02  0.10000000000E+01 0. -1.
        -13    1    6    6    0    0 -0.18252632563E+02  0.14472333173E+02 -0.50871010157E+01  0.23843167673E+02  0.10500000000E+00 0.  1.
         13    1    6    6    0    0 -0.12512086958E+02  0.10032043329E+02 -0.35670382757E+01  0.16429516136E+02  0.10500000000E+00 0. -1.
</event>
<event>
11    0  0.3476221E-009  0.9118800E+02  0.7816531E-02  0.1126479E+00
         25   -1    0    0    0    0  0.00000000000E+00  0.00000000000E+00  0.99999998245E-14  0.12500000000E+03  0.12500000000E+03 0.  0.
    3000001    1    3    3    0    0  0.66341960970E+01  0.19495614202E+02 -0.11020223324E+01  0.20647178601E+02  0.10000000000E+01 0.  1.
    1000022    2    1    0    0    0  0.11104800197E+02  0.60239877681E+02  0.73546229560E+01  0.62499999951E+02  0.10000003228E+02 0.  0.
    3000022    2    3    3    0    0  0.44706041003E+01  0.40744263480E+02  0.84566452884E+01  0.41852821350E+02  0.24999581942E+00 0.  0.
    1000022    2    1    0    0    0 -0.11104800197E+02 -0.60239877681E+02 -0.73546229560E+01  0.62500000049E+02  0.10000003840E+02 0.  0.
    3000022    2    5    5    0    0 -0.72757925419E-01 -0.22759942636E+02 -0.16760213196E+00  0.22762048969E+02  0.25000058327E+00 0.  0.
        -13    1    4    4    0    0  0.21217847512E+01  0.19365258366E+02  0.39503905335E+01  0.19877922740E+02  0.10500000000E+00 0. -1.
         13    1    4    4    0    0  0.23488193491E+01  0.21379005114E+02  0.45062547549E+01  0.21974898610E+02  0.10500000000E+00 0.  1.
    3000001    1    5    5    0    0 -0.11032042272E+02 -0.37479935045E+02 -0.71870208240E+01  0.39737951080E+02  0.10000000000E+01 0.  1.
        -13    1    6    6    0    0 -0.18917102593E-01 -0.68259848595E+01 -0.45551509810E-02  0.68268201169E+01  0.10500000000E+00 0.  1.
         13    1    6    6    0    0 -0.53840822826E-01 -0.15933957776E+02 -0.16304698097E+00  0.15935228852E+02  0.10500000000E+00 0. -1.
</event>
<event>
11    0  0.3476221E-009  0.9118800E+02  0.7816531E-02  0.1126479E+00
         25   -1    0    0    0    0  0.00000000000E+00  0.00000000000E+00  0.99999998245E-14  0.12500000000E+03  0.12500000000E+03 0.  0.
    3000001    1    3    3    0    0 -0.19492031896E+02 -0.11232078186E+02 -0.45768753485E+02  0.51008604013E+02  0.10000000000E+01 0. -1.
    1000022    2    1    0    0    0 -0.22559123876E+02 -0.92817339660E+01 -0.56667320921E+02  0.62499999340E+02  0.10000000081E+02 0.  0.
    3000022    2    3    3    0    0 -0.30670919802E+01  0.19503442199E+01 -0.10898567436E+02  0.11491395326E+02  0.24999719752E+00 0.  0.
    1000022    2    1    0    0    0  0.22559123876E+02  0.92817339660E+01  0.56667320921E+02  0.62500000660E+02  0.10000008336E+02 0.  0.
    3000022    2    5    5    0    0  0.17855857477E+02  0.59817102456E+01  0.51007796812E+02  0.54373434072E+02  0.24998691378E+00 0.  0.
        -13    1    4    4    0    0 -0.14732657700E+01  0.10116966376E+01 -0.54335493191E+01  0.57208850118E+01  0.10500000000E+00 0.  1.
         13    1    4    4    0    0 -0.15938262102E+01  0.93864758232E+00 -0.54650181170E+01  0.57705103146E+01  0.10500000000E+00 0. -1.
    3000001    1    5    5    0    0  0.47032663988E+01  0.33000237204E+01  0.56595241086E+01  0.81265665880E+01  0.10000000000E+01 0.  1.
        -13    1    6    6    0    0  0.11080338426E+02  0.36904251895E+01  0.31467623409E+02  0.33565093262E+02  0.10500000000E+00 0. -1.
         13    1    6    6    0    0  0.67755190519E+01  0.22912850561E+01  0.19540173404E+02  0.20808340810E+02  0.10500000000E+00 0.  1.
</event>
<event>
11    0  0.3476221E-009  0.9118800E+02  0.7816531E-02  0.1126479E+00
         25   -1    0    0    0    0  0.00000000000E+00  0.00000000000E+00  0.99999998245E-14  0.12500000000E+03  0.12500000000E+03 0.  0.
    3000001    1    3    3    0    0 -0.22468571732E+01 -0.30967626856E+01  0.12122325239E+02  0.12751042134E+02  0.10000000000E+01 0. -1.
    1000022    2    1    0    0    0 -0.27308222592E+02 -0.21185498445E+02  0.51104657337E+02  0.62500003339E+02  0.10000002520E+02 0.  0.
    3000022    2    3    3    0    0 -0.25061365419E+02 -0.18088735760E+02  0.38982332098E+02  0.49748961206E+02  0.25005448541E+00 0.  0.
    1000022    2    1    0    0    0  0.27308222592E+02  0.21185498445E+02 -0.51104657337E+02  0.62499996661E+02  0.99999607763E+01 0.  0.
    3000022    2    5    5    0    0  0.18173933686E+01  0.94131810914E-01 -0.29616329393E+00  0.18606432016E+01  0.25000194543E+00 0.  0.
        -13    1    4    4    0    0 -0.12410687388E+02 -0.88866330228E+01  0.19194480650E+02  0.24524202747E+02  0.10500000000E+00 0.  1.
         13    1    4    4    0    0 -0.12650678031E+02 -0.92021027369E+01  0.19787851448E+02  0.25224758459E+02  0.10500000000E+00 0. -1.
    3000001    1    5    5    0    0  0.25490829224E+02  0.21091366634E+02 -0.50808494043E+02  0.60639353459E+02  0.10000000000E+01 0. -1.
        -13    1    6    6    0    0  0.78911824367E+00  0.87092995886E-01 -0.17700454291E+00  0.82015144982E+00  0.10500000000E+00 0. -1.
         13    1    6    6    0    0  0.10282751249E+01  0.70388150287E-02 -0.11915875102E+00  0.10404917517E+01  0.10500000000E+00 0. -1.
</event>
<event>
11    0  0.3476221E-009  0.9118800E+02  0.7816531E-02  0.1126479E+00
         25   -1    0    0    0    0  0.00000000000E+00  0.00000000000E+00  0.99999998245E-14  0.12500000000E+03  0.12500000000E+03 0.  0.
    3000001    1    3    3    0    0 -0.11920113161E+02 -0.47030361513E+01 -0.42336061817E+02  0.44244206140E+02  0.10000000000E+01 0. -1.
    1000022    2    1    0    0    0 -0.18597760234E+02 -0.12324546625E+02 -0.57519380280E+02  0.62500001126E+02  0.99999948863E+01 0.  0.
    3000022    2    3    3    0    0 -0.66776470727E+01 -0.76215104732E+01 -0.15183318463E+02  0.18255794986E+02  0.24999737321E+00 0.  0.
    1000022    2    1    0    0    0  0.18597760234E+02  0.12324546625E+02  0.57519380280E+02  0.62499998874E+02  0.99999808094E+01 0.  0.
    3000022    2    5    5    0    0  0.15199653363E+02  0.12624343502E+02  0.53982169795E+02  0.57485134320E+02  0.25000163109E+00 0.  0.
        -13    1    4    4    0    0 -0.40960283540E+01 -0.45867920575E+01 -0.92535851725E+01  0.11111074350E+02  0.10500000000E+00 0. -1.
         13    1    4    4    0    0 -0.25816187187E+01 -0.30347184157E+01 -0.59297332908E+01  0.71447206363E+01  0.10500000000E+00 0.  1.
    3000001    1    5    5    0    0  0.33981068716E+01 -0.29979687711E+00  0.35372104855E+01  0.50148645542E+01  0.10000000000E+01 0.  1.
        -13    1    6    6    0    0  0.75571862920E+01  0.62489535412E+01  0.26978371228E+02  0.28705470282E+02  0.10500000000E+00 0. -1.
         13    1    6    6    0    0  0.76424670706E+01  0.63753899604E+01  0.27003798567E+02  0.28779664037E+02  0.10500000000E+00 0.  1.
</event>
<event>
11    0  0.3476221E-009  0.9118800E+02  0.7816531E-02  0.1126479E+00
         25   -1    0    0    0    0  0.00000000000E+00  0.00000000000E+00  0.99999998245E-14  0.12500000000E+03  0.12500000000E+03 0.  0.
    3000001    1    3    3    0    0  0.15720044204E+02  0.86467153673E+01 -0.20469990837E+00  0.17970180257E+02  0.10000000000E+01 0. -1.
    1000022    2    1    0    0    0  0.52983171390E+02  0.28073378609E+02  0.14523047956E+02  0.62500001092E+02  0.10000008876E+02 0.  0.
    3000022    2    3    3    0    0  0.37263127186E+02  0.19426663242E+02  0.14727747864E+02  0.44529820836E+02  0.24998811876E+00 0.  0.
    1000022    2    1    0    0    0 -0.52983171390E+02 -0.28073378609E+02 -0.14523047956E+02  0.62499998908E+02  0.99999952220E+01 0.  0.
    3000022    2    5    5    0    0 -0.55667845129E+01 -0.86553263706E+00 -0.37486037035E+01  0.67714669345E+01  0.24999632126E+00 0.  0.
        -13    1    4    4    0    0  0.23195328584E+02  0.12089429875E+02  0.91030126899E+01  0.27695729777E+02  0.10500000000E+00 0.  1.
         13    1    4    4    0    0  0.14067798602E+02  0.73372333673E+01  0.56247351742E+01  0.16834091059E+02  0.10500000000E+00 0. -1.
    3000001    1    5    5    0    0 -0.47416386877E+02 -0.27207845972E+02 -0.10774444252E+02  0.55728531973E+02  0.10000000000E+01 0.  1.
        -13    1    6    6    0    0 -0.18951697533E+01 -0.33602089254E+00 -0.13259250067E+01  0.23395898268E+01  0.10500000000E+00 0. -1.
         13    1    6    6    0    0 -0.36716147597E+01 -0.52951174451E+00 -0.24226786967E+01  0.44318771078E+01  0.10500000000E+00 0.  1.
</event>
<event>
11    0  0.3476221E-009  0.9118800E+02  0.7816531E-02  0.1126479E+00
         25   -1    0    0    0    0  0.00000000000E+00  0.00000000000E+00  0.99999998245E-14  0.12500000000E+03  0.12500000000E+03 0.  0.
    3000001    1    3    3    0    0 -0.74963249135E+01  0.31736402454E+02  0.21091641981E+02  0.38849086082E+02  0.10000000000E+01 0. -1.
    1000022    2    1    0    0    0 -0.12877932075E+02  0.45674711552E+02  0.39423718583E+02  0.62499999169E+02  0.99999949674E+01 0.  0.
    3000022    2    3    3    0    0 -0.53816071616E+01  0.13938309098E+02  0.18332076602E+02  0.23650913087E+02  0.25000235634E+00 0.  0.
    1000022    2    1    0    0    0  0.12877932075E+02 -0.45674711552E+02 -0.39423718583E+02  0.62500000831E+02  0.10000005354E+02 0.  0.
    3000022    2    5    5    0    0 -0.37236389755E-01  0.19061871827E+00 -0.16676820856E+01  0.16974647880E+01  0.25000224679E+00 0.  0.
        -13    1    4    4    0    0 -0.12787600845E+01  0.33655662141E+01  0.44093091794E+01  0.56934432231E+01  0.10500000000E+00 0. -1.
         13    1    4    4    0    0 -0.41028470771E+01  0.10572742884E+02  0.13922767423E+02  0.17957469864E+02  0.10500000000E+00 0.  1.
    3000001    1    5    5    0    0  0.12915168465E+02 -0.45865330270E+02 -0.37756036498E+02  0.60802536043E+02  0.10000000000E+01 0.  1.
        -13    1    6    6    0    0 -0.84595049718E-01  0.89029918693E-01 -0.93500546018E+00  0.94886398362E+00  0.10500000000E+00 0.  1.
         13    1    6    6    0    0  0.47358659963E-01  0.10158879957E+00 -0.73267662543E+00  0.74860080438E+00  0.10500000000E+00 0. -1.
</event>
<event>
11    0  0.3476221E-009  0.9118800E+02  0.7816531E-02  0.1126479E+00
         25   -1    0    0    0    0  0.00000000000E+00  0.00000000000E+00  0.99999998245E-14  0.12500000000E+03  0.12500000000E+03 0.  0.
    3000001    1    3    3    0    0  0.28213170084E+02 -0.27822283137E+02 -0.16178148767E+02  0.42811153952E+02  0.10000000000E+01 0.  1.
    1000022    2    1    0    0    0  0.35495422511E+02 -0.43168427892E+02 -0.26130672547E+02  0.62499998267E+02  0.99999774822E+01 0.  0.
    3000022    2    3    3    0    0  0.72822524273E+01 -0.15346144756E+02 -0.99525237802E+01  0.19688844315E+02  0.25000321467E+00 0.  0.
    1000022    2    1    0    0    0 -0.35495422511E+02  0.43168427892E+02  0.26130672547E+02  0.62500001733E+02  0.99999991464E+01 0.  0.
    3000022    2    5    5    0    0 -0.62461265904E+01  0.86109921932E+01  0.94541003445E+00  0.10682677200E+02  0.25001617099E+00 0.  0.
        -13    1    4    4    0    0  0.25165751177E+01 -0.51843473576E+01 -0.33539703181E+01  0.66686392721E+01  0.10500000000E+00 0. -1.
         13    1    4    4    0    0  0.47656773096E+01 -0.10161797398E+02 -0.65985534621E+01  0.13020205043E+02  0.10500000000E+00 0.  1.
    3000001    1    5    5    0    0 -0.29249295921E+02  0.34557435699E+02  0.25185262513E+02  0.51817324533E+02  0.10000000000E+01 0.  1.
        -13    1    6    6    0    0 -0.26153310223E+01  0.35085998954E+01  0.41856999324E+00  0.43973236657E+01  0.10500000000E+00 0. -1.
         13    1    6    6    0    0 -0.36307955681E+01  0.51023922978E+01  0.52684004121E+00  0.62853535340E+01  0.10500000000E+00 0.  1.
</event>
<event>
11    0  0.3476221E-009  0.9118800E+02  0.7816531E-02  0.1126479E+00
         25   -1    0    0    0    0  0.00000000000E+00  0.00000000000E+00  0.99999998245E-14  0.12500000000E+03  0.12500000000E+03 0.  0.
    3000001    1    3    3    0    0  0.43549618980E+02  0.16890463724E+02  0.22257471932E+02  0.51751832189E+02  0.10000000000E+01 0. -1.
    1000022    2    1    0    0    0  0.49494149644E+02  0.21306759653E+02  0.30043330425E+02  0.62500004453E+02  0.99999998872E+01 0.  0.
    3000022    2    3    3    0    0  0.59445306635E+01  0.44162959289E+01  0.77858584926E+01  0.10748172264E+02  0.25000000400E+00 0.  0.
    1000022    2    1    0    0    0 -0.49494149644E+02 -0.21306759653E+02 -0.30043330425E+02  0.62499995547E+02  0.99999442266E+01 0.  0.
    3000022    2    5    5    0    0 -0.19789369418E+02 -0.13142691295E+02 -0.10283654667E+02  0.25887555496E+02  0.24999968884E+00 0.  0.
        -13    1    4    4    0    0  0.26824133153E+01  0.19222961107E+01  0.35200422394E+01  0.48262082319E+01  0.10500000000E+00 0. -1.
         13    1    4    4    0    0  0.32621173483E+01  0.24939998182E+01  0.42658162532E+01  0.59219640318E+01  0.10500000000E+00 0.  1.
    3000001    1    5    5    0    0 -0.29704780226E+02 -0.81640683584E+01 -0.19759675758E+02  0.36612440051E+02  0.10000000000E+01 0.  1.
        -13    1    6    6    0    0 -0.10265276685E+02 -0.67944523667E+01 -0.52581581768E+01  0.13386550743E+02  0.10500000000E+00 0.  1.
         13    1    6    6    0    0 -0.95240927325E+01 -0.63482389281E+01 -0.50254964898E+01  0.12501004753E+02  0.10500000000E+00 0. -1.
</event>
<event>
11    0  0.3476221E-009  0.9118800E+02  0.7816531E-02  0.1126479E+00
         25   -1    0    0    0    0  0.00000000000E+00  0.00000000000E+00  0.99999998245E-14  0.12500000000E+03  0.12500000000E+03 0.  0.
    3000001    1    3    3    0    0  0.67866320545E+01  0.15365997797E+02  0.17708504548E+02  0.24428741193E+02  0.10000000000E+01 0.  1.
    1000022    2    1    0    0    0  0.12082690223E+02  0.47371197904E+02  0.37632796346E+02  0.62500003110E+02  0.10000061702E+02 0.  0.
    3000022    2    3    3    0    0  0.52960581686E+01  0.32005200106E+02  0.19924291797E+02  0.38071261916E+02  0.25002858768E+00 0.  0.
    1000022    2    1    0    0    0 -0.12082690223E+02 -0.47371197904E+02 -0.37632796346E+02  0.62499996890E+02  0.10000022832E+02 0.  0.
    3000022    2    5    5    0    0 -0.66055177545E+01 -0.24149393796E+02 -0.13075573987E+02  0.28246401835E+02  0.24999200846E+00 0.  0.
        -13    1    4    4    0    0  0.33273317010E+01  0.20457888175E+02  0.12743126953E+02  0.24330939858E+02  0.10500000000E+00 0. -1.
         13    1    4    4    0    0  0.19687264676E+01  0.11547311931E+02  0.71811648446E+01  0.13740322058E+02  0.10500000000E+00 0.  1.
    3000001    1    5    5    0    0 -0.54771724686E+01 -0.23221804108E+02 -0.24557222358E+02  0.34253595056E+02  0.10000000000E+01 0. -1.
        -13    1    6    6    0    0 -0.25610890906E+01 -0.94017364692E+01 -0.50203305144E+01  0.10962051334E+02  0.10500000000E+00 0.  1.
         13    1    6    6    0    0 -0.40444286640E+01 -0.14747657327E+02 -0.80552434731E+01  0.17284350501E+02  0.10500000000E+00 0. -1.
</event>
<event>
11    0  0.3476221E-009  0.9118800E+02  0.7816531E-02  0.1126479E+00
         25   -1    0    0    0    0  0.00000000000E+00  0.00000000000E+00  0.99999998245E-14  0.12500000000E+03  0.12500000000E+03 0.  0.
    3000001    1    3    3    0    0  0.11403039268E+02 -0.30367213373E+02  0.39337240877E+02  0.50996229982E+02  0.10000000000E+01 0. -1.
    1000022    2    1    0    0    0  0.13591907772E+02 -0.40314068336E+02  0.44679806321E+02  0.62499993495E+02  0.10000001565E+02 0.  0.
    3000022    2    3    3    0    0  0.21888685040E+01 -0.99468549630E+01  0.53425654444E+01  0.11503763513E+02  0.25000090086E+00 0.  0.
    1000022    2    1    0    0    0 -0.13591907772E+02  0.40314068336E+02 -0.44679806321E+02  0.62500006505E+02  0.10000082876E+02 0.  0.
    3000022    2    5    5    0    0 -0.12177824155E+02  0.20923604560E+02 -0.23717224718E+02  0.33891973623E+02  0.24999755166E+00 0.  0.
        -13    1    4    4    0    0  0.80611634384E+00 -0.34531124565E+01  0.18982007152E+01  0.40234313903E+01  0.10500000000E+00 0. -1.
         13    1    4    4    0    0  0.13827521601E+01 -0.64937425065E+01  0.34443647291E+01  0.74803321226E+01  0.10500000000E+00 0.  1.
    3000001    1    5    5    0    0 -0.14140836169E+01  0.19390463776E+02 -0.20962581603E+02  0.28608032882E+02  0.10000000000E+01 0.  1.
        -13    1    6    6    0    0 -0.72843430850E+01  0.12632862145E+02 -0.14316215790E+02  0.20435653151E+02  0.10500000000E+00 0. -1.
         13    1    6    6    0    0 -0.48934810705E+01  0.82907424157E+01 -0.94010089279E+01  0.13456320472E+02  0.10500000000E+00 0.  1.
</event>
<event>
11    0  0.3476221E-009  0.9118800E+02  0.7816531E-02  0.1126479E+00
         25   -1    0    0    0    0  0.00000000000E+00  0.00000000000E+00  0.99999998245E-14  0.12500000000E+03  0.12500000000E+03 0.  0.
    3000001    1    3    3    0    0 -0.84719883335E+01 -0.57163034001E+01 -0.41883816684E+01  0.11090232274E+02  0.10000000000E+01 0.  1.
    1000022    2    1    0    0    0 -0.52962684678E+02 -0.31461496874E+02 -0.33731491154E+01  0.62499999356E+02  0.10000001534E+02 0.  0.
    3000022    2    3    3    0    0 -0.44490696344E+02 -0.25745193474E+02  0.81523255294E+00  0.51409767082E+02  0.24999822567E+00 0.  0.
    1000022    2    1    0    0    0  0.52962684678E+02  0.31461496874E+02  0.33731491154E+01  0.62500000644E+02  0.10000009588E+02 0.  0.
    3000022    2    5    5    0    0  0.46426769909E+02  0.29652924877E+02  0.53965541960E+01  0.55352743642E+02  0.25002721878E+00 0.  0.
        -13    1    4    4    0    0 -0.32706307578E+02 -0.18963820511E+02  0.60742625827E+00  0.37811493431E+02  0.10500000000E+00 0.  1.
         13    1    4    4    0    0 -0.11784388766E+02 -0.67813729625E+01  0.20780629467E+00  0.13598273651E+02  0.10500000000E+00 0. -1.
    3000001    1    5    5    0    0  0.65359147688E+01  0.18085719971E+01 -0.20234050806E+01  0.71472570021E+01  0.10000000000E+01 0.  1.
        -13    1    6    6    0    0  0.15486018152E+02  0.98382955740E+01  0.18272855821E+01  0.18437972112E+02  0.10500000000E+00 0.  1.
         13    1    6    6    0    0  0.30940751757E+02  0.19814629303E+02  0.35692686139E+01  0.36914771531E+02  0.10500000000E+00 0. -1.
</event>
<event>
11    0  0.3476221E-009  0.9118800E+02  0.7816531E-02  0.1126479E+00
         25   -1    0    0    0    0  0.00000000000E+00  0.00000000000E+00  0.99999998245E-14  0.12500000000E+03  0.12500000000E+03 0.  0.
    3000001    1    3    3    0    0 -0.15595430353E+02  0.27455407528E+02  0.22313661160E+02  0.38677077511E+02  0.10000000000E+01 0. -1.
    1000022    2    1    0    0    0 -0.17716896188E+02  0.45290617857E+02  0.37962102658E+02  0.62499998490E+02  0.10000004831E+02 0.  0.
    3000022    2    3    3    0    0 -0.21214658349E+01  0.17835210330E+02  0.15648441498E+02  0.23822920980E+02  0.24999575900E+00 0.  0.
    1000022    2    1    0    0    0  0.17716896188E+02 -0.45290617857E+02 -0.37962102658E+02  0.62500001510E+02  0.10000023700E+02 0.  0.
    3000022    2    5    5    0    0  0.47699394939E+01 -0.25717151071E+02 -0.20390160130E+02  0.33165423723E+02  0.25003724933E+00 0.  0.
        -13    1    4    4    0    0 -0.16161407258E+01  0.13548721842E+02  0.11912539308E+02  0.18113514075E+02  0.10500000000E+00 0.  1.
         13    1    4    4    0    0 -0.50532510912E+00  0.42864884877E+01  0.37359021907E+01  0.57094069044E+01  0.10500000000E+00 0. -1.
    3000001    1    5    5    0    0  0.12946956694E+02 -0.19573466787E+02 -0.17571942529E+02  0.29334577787E+02  0.10000000000E+01 0.  1.
        -13    1    6    6    0    0  0.11218799726E+01 -0.61380743315E+01 -0.48750567775E+01  0.79190766353E+01  0.10500000000E+00 0. -1.
         13    1    6    6    0    0  0.36480595213E+01 -0.19579076739E+02 -0.15515103352E+02  0.25246347087E+02  0.10500000000E+00 0.  1.
</event>
<event>
11    0  0.3476221E-009  0.9118800E+02  0.7816531E-02  0.1126479E+00
         25   -1    0    0    0    0  0.00000000000E+00  0.00000000000E+00  0.99999998245E-14  0.12500000000E+03  0.12500000000E+03 0.  0.
    3000001    1    3    3    0    0  0.10948960381E+02  0.43715278189E+01 -0.13420027255E+02  0.17890978744E+02  0.10000000000E+01 0. -1.
    1000022    2    1    0    0    0  0.33338238185E+02  0.14441899452E+01 -0.51891484335E+02  0.62499998104E+02  0.99999903278E+01 0.  0.
    3000022    2    3    3    0    0  0.22389277804E+02 -0.29273378738E+01 -0.38471457080E+02  0.44609019359E+02  0.25006143707E+00 0.  0.
    1000022    2    1    0    0    0 -0.33338238185E+02 -0.14441899452E+01  0.51891484335E+02  0.62500001896E+02  0.10000014033E+02 0.  0.
    3000022    2    5    5    0    0 -0.33360590037E+02 -0.20843251978E+01  0.48471693709E+02  0.58879885783E+02  0.24995931278E+00 0.  0.
        -13    1    4    4    0    0  0.16469203914E+02 -0.21603067810E+01 -0.28234270739E+02  0.32758001650E+02  0.10500000000E+00 0.  1.
         13    1    4    4    0    0  0.59200738901E+01 -0.76703109273E+00 -0.10237186342E+02  0.11851017710E+02  0.10500000000E+00 0. -1.
    3000001    1    5    5    0    0  0.22351851980E-01  0.64013525266E+00  0.34197906263E+01  0.36201161134E+01  0.10000000000E+01 0. -1.
        -13    1    6    6    0    0 -0.10468416936E+02 -0.61347370237E+00  0.15256461895E+02  0.18513096923E+02  0.10500000000E+00 0. -1.
         13    1    6    6    0    0 -0.22892173101E+02 -0.14708514955E+01  0.33215231814E+02  0.40366788860E+02  0.10500000000E+00 0.  1.
</event>
<event>
11    0  0.3476221E-009  0.9118800E+02  0.7816531E-02  0.1126479E+00
         25   -1    0    0    0    0  0.00000000000E+00  0.00000000000E+00  0.99999998245E-14  0.12500000000E+03  0.12500000000E+03 0.  0.
    3000001    1    3    3    0    0 -0.13232455293E+02 -0.19419436668E+02  0.27382943984E+02  0.36097617855E+02  0.10000000000E+01 0.  1.
    1000022    2    1    0    0    0 -0.15713781413E+02 -0.30958848470E+02  0.50998792621E+02  0.62500000497E+02  0.99999994252E+01 0.  0.
    3000022    2    3    3    0    0 -0.24813261200E+01 -0.11539411802E+02  0.23615848637E+02  0.26402382642E+02  0.24999659695E+00 0.  0.
    1000022    2    1    0    0    0  0.15713781413E+02  0.30958848470E+02 -0.50998792621E+02  0.62499999503E+02  0.99999932095E+01 0.  0.
    3000022    2    5    5    0    0  0.84024793067E+01  0.25428423038E+02 -0.40131208256E+02  0.48247100364E+02  0.24992138157E+00 0.  0.
        -13    1    4    4    0    0 -0.16128049005E+01 -0.73365963179E+01  0.14921864621E+02  0.16706281871E+02  0.10500000000E+00 0.  1.
         13    1    4    4    0    0 -0.86852121953E+00 -0.42028154839E+01  0.86939840161E+01  0.96961007716E+01  0.10500000000E+00 0. -1.
    3000001    1    5    5    0    0  0.73113021063E+01  0.55304254312E+01 -0.10867584365E+02  0.14252899139E+02  0.10000000000E+01 0.  1.
        -13    1    6    6    0    0  0.44304409212E+01  0.13275932079E+02 -0.21068622182E+02  0.25293814362E+02  0.10500000000E+00 0.  1.
         13    1    6    6    0    0  0.39720383854E+01  0.12152490960E+02 -0.19062586074E+02  0.22953286002E+02  0.10500000000E+00 0. -1.
</event>
<event>
11    0  0.3476221E-009  0.9118800E+02  0.7816531E-02  0.1126479E+00
         25   -1    0    0    0    0  0.00000000000E+00  0.00000000000E+00  0.99999998245E-14  0.12500000000E+03  0.12500000000E+03 0.  0.
    3000001    1    3    3    0    0  0.87984438810E+01  0.33803358037E+01  0.17402231002E+01  0.96367868770E+01  0.10000000000E+01 0. -1.
    1000022    2    1    0    0    0  0.44753984855E+02  0.40925109413E+02  0.11334286976E+02  0.62500002002E+02  0.10000022402E+02 0.  0.
    3000022    2    3    3    0    0  0.35955540974E+02  0.37544773609E+02  0.95940638759E+01  0.52863215125E+02  0.24999905612E+00 0.  0.
    1000022    2    1    0    0    0 -0.44753984855E+02 -0.40925109413E+02 -0.11334286976E+02  0.62499997998E+02  0.99999973820E+01 0.  0.
    3000022    2    5    5    0    0 -0.34529897326E+02 -0.31401079427E+02 -0.12849238814E+02  0.48409781817E+02  0.24987772781E+00 0.  0.
        -13    1    4    4    0    0  0.21110092489E+02  0.22135058123E+02  0.56364826462E+01  0.31102697063E+02  0.10500000000E+00 0. -1.
         13    1    4    4    0    0  0.14845448486E+02  0.15409715486E+02  0.39575812298E+01  0.21760518061E+02  0.10500000000E+00 0.  1.
    3000001    1    5    5    0    0 -0.10224087529E+02 -0.95240299859E+01  0.15149518383E+01  0.14090216182E+02  0.10000000000E+01 0. -1.
        -13    1    6    6    0    0 -0.26458833654E+02 -0.24051954640E+02 -0.98551017655E+01  0.37090436182E+02  0.10500000000E+00 0. -1.
         13    1    6    6    0    0 -0.80710636723E+01 -0.73491247867E+01 -0.29941370489E+01  0.11319345635E+02  0.10500000000E+00 0.  1.
</event>
<event>
11    0  0.3476221E-009  0.9118800E+02  0.7816531E-02  0.1126479E+00
         25   -1    0    0    0    0  0.00000000000E+00  0.00000000000E+00  0.99999998245E-14  0.12500000000E+03  0.12500000000E+03 0.  0.
    3000001    1    3    3    0    0  0.23191729053E+02 -0.49235437270E+02  0.25608917426E+01  0.54493511046E+02  0.10000000000E+01 0. -1.
    1000022    2    1    0    0    0  0.25200675886E+02 -0.56310056177E+02 -0.59430557667E+00  0.62500000469E+02  0.10000018390E+02 0.  0.
    3000022    2    3    3    0    0  0.20089468324E+01 -0.70746189068E+01 -0.31551973193E+01  0.80064894228E+01  0.25000540243E+00 0.  0.
    1000022    2    1    0    0    0 -0.25200675886E+02  0.56310056177E+02  0.59430557667E+00  0.62499999531E+02  0.10000012527E+02 0.  0.
    3000022    2    5    5    0    0  0.65888711513E+00  0.38471126356E+01 -0.76705636333E+00  0.39856359104E+01  0.25002056784E+00 0.  0.
        -13    1    4    4    0    0  0.14999307369E+01 -0.51738346403E+01 -0.22897994720E+01  0.58542773869E+01  0.10500000000E+00 0.  1.
         13    1    4    4    0    0  0.50901609546E+00 -0.19007842665E+01 -0.86539784723E+00  0.21522120359E+01  0.10500000000E+00 0. -1.
    3000001    1    5    5    0    0 -0.25859563001E+02  0.52462943541E+02  0.13613619400E+01  0.58514363621E+02  0.10000000000E+01 0. -1.
        -13    1    6    6    0    0  0.17072014551E+00  0.13125755126E+01 -0.27265817489E+00  0.13554952323E+01  0.10500000000E+00 0.  1.
         13    1    6    6    0    0  0.48816696962E+00  0.25345371230E+01 -0.49439818843E+00  0.26301406782E+01  0.10500000000E+00 0. -1.
</event>
<event>
11    0  0.3476221E-009  0.9118800E+02  0.7816531E-02  0.1126479E+00
         25   -1    0    0    0    0  0.00000000000E+00  0.00000000000E+00  0.99999998245E-14  0.12500000000E+03  0.12500000000E+03 0.  0.
    3000001    1    3    3    0    0  0.21441845714E+02  0.19331499570E+02  0.72637521070E+01  0.29786267271E+02  0.10000000000E+01 0.  1.
    1000022    2    1    0    0    0  0.38323743506E+02  0.42572121483E+02  0.22916257979E+02  0.62500001709E+02  0.10000024498E+02 0.  0.
    3000022    2    3    3    0    0  0.16881897791E+02  0.23240621913E+02  0.15652505872E+02  0.32713734438E+02  0.25000168463E+00 0.  0.
    1000022    2    1    0    0    0 -0.38323743506E+02 -0.42572121483E+02 -0.22916257979E+02  0.62499998291E+02  0.10000003138E+02 0.  0.
    3000022    2    5    5    0    0 -0.25561503553E+01 -0.34545562166E+01  0.87397054644E+00  0.43925150772E+01  0.25000178893E+00 0.  0.
        -13    1    4    4    0    0  0.79946940341E+01  0.11007783464E+02  0.73364620732E+01  0.15457073793E+02  0.10500000000E+00 0.  1.
         13    1    4    4    0    0  0.88872037573E+01  0.12232838450E+02  0.83160437991E+01  0.17256660645E+02  0.10500000000E+00 0. -1.
    3000001    1    5    5    0    0 -0.35767593150E+02 -0.39117565267E+02 -0.23790228526E+02  0.58107483214E+02  0.10000000000E+01 0.  1.
        -13    1    6    6    0    0 -0.11608383457E+01 -0.15798037403E+01  0.46680130012E+00  0.20179826502E+01  0.10500000000E+00 0. -1.
         13    1    6    6    0    0 -0.13953120096E+01 -0.18747524763E+01  0.40716924631E+00  0.23745324269E+01  0.10500000000E+00 0.  1.
</event>
<event>
11    0  0.3476221E-009  0.9118800E+02  0.7816531E-02  0.1126479E+00
         25   -1    0    0    0    0  0.00000000000E+00  0.00000000000E+00  0.99999998245E-14  0.12500000000E+03  0.12500000000E+03 0.  0.
    3000001    1    3    3    0    0  0.11844472578E+02  0.27550677832E+02  0.17981614008E+02  0.34980992296E+02  0.10000000000E+01 0.  1.
    1000022    2    1    0    0    0  0.23450224723E+02  0.51756267916E+02  0.24033835067E+02  0.62500003051E+02  0.10000042259E+02 0.  0.
    3000022    2    3    3    0    0  0.11605752145E+02  0.24205590084E+02  0.60522210584E+01  0.27519010755E+02  0.24999805766E+00 0.  0.
    1000022    2    1    0    0    0 -0.23450224723E+02 -0.51756267916E+02 -0.24033835067E+02  0.62499996949E+02  0.10000004125E+02 0.  0.
    3000022    2    5    5    0    0 -0.39918535956E+01 -0.34951492128E+01 -0.36250626076E+00  0.53239915549E+01  0.25002427790E+00 0.  0.
        -13    1    4    4    0    0  0.83173120822E+01  0.17336933798E+02  0.43769032036E+01  0.19720934573E+02  0.10500000000E+00 0. -1.
         13    1    4    4    0    0  0.32884400624E+01  0.68686562863E+01  0.16753178548E+01  0.77980761819E+01  0.10500000000E+00 0.  1.
    3000001    1    5    5    0    0 -0.19458371127E+02 -0.48261118703E+02 -0.23671328806E+02  0.57176005394E+02  0.10000000000E+01 0. -1.
        -13    1    6    6    0    0 -0.15627480185E+01 -0.14333195739E+01 -0.18477031333E+00  0.21311385312E+01  0.10500000000E+00 0. -1.
         13    1    6    6    0    0 -0.24291055771E+01 -0.20618296389E+01 -0.17773594743E+00  0.31928530238E+01  0.10500000000E+00 0.  1.
</event>
<event>
11    0  0.3476221E-009  0.9118800E+02  0.7816531E-02  0.1126479E+00
         25   -1    0    0    0    0  0.00000000000E+00  0.00000000000E+00  0.99999998245E-14  0.12500000000E+03  0.12500000000E+03 0.  0.
    3000001    1    3    3    0    0 -0.18073113878E+01 -0.20873531611E+02  0.63257056690E+01  0.21908565644E+02  0.10000000000E+01 0. -1.
    1000022    2    1    0    0    0  0.18744918926E+01 -0.54736505707E+02  0.28401605918E+02  0.62500000121E+02  0.10000000977E+02 0.  0.
    3000022    2    3    3    0    0  0.36818032803E+01 -0.33862974096E+02  0.22075900249E+02  0.40591434477E+02  0.24998214460E+00 0.  0.
    1000022    2    1    0    0    0 -0.18744918926E+01  0.54736505707E+02 -0.28401605918E+02  0.62499999879E+02  0.99999994640E+01 0.  0.
    3000022    2    5    5    0    0 -0.49230178616E+01  0.44951096875E+02 -0.24901513840E+02  0.51623493954E+02  0.25004260128E+00 0.  0.
        -13    1    4    4    0    0  0.26271016370E+01 -0.23857476509E+02  0.15590845400E+02  0.28621081980E+02  0.10500000000E+00 0. -1.
         13    1    4    4    0    0  0.10547016433E+01 -0.10005497586E+02  0.64850548491E+01  0.11970352497E+02  0.10500000000E+00 0.  1.
    3000001    1    5    5    0    0  0.30485259691E+01  0.97854088319E+01 -0.35000920779E+01  0.10876505925E+02  0.10000000000E+01 0. -1.
        -13    1    6    6    0    0 -0.29011862868E+01  0.25902103706E+02 -0.14366367408E+02  0.29761374225E+02  0.10500000000E+00 0. -1.
         13    1    6    6    0    0 -0.20218315748E+01  0.19048993169E+02 -0.10535146432E+02  0.21862119728E+02  0.10500000000E+00 0.  1.
</event>
<event>
11    0  0.3476221E-009  0.9118800E+02  0.7816531E-02  0.1126479E+00
         25   -1    0    0    0    0  0.00000000000E+00  0.00000000000E+00  0.99999998245E-14  0.12500000000E+03  0.12500000000E+03 0.  0.
    3000001    1    3    3    0    0 -0.70178258005E+01 -0.61933732370E+01  0.85294896459E+01  0.12702753427E+02  0.10000000000E+01 0.  1.
    1000022    2    1    0    0    0 -0.28447819263E+02 -0.45131135491E+02  0.30986322900E+02  0.62500000410E+02  0.10000001644E+02 0.  0.
    3000022    2    3    3    0    0 -0.21429993463E+02 -0.38937762254E+02  0.22456833254E+02  0.49797246983E+02  0.24999620136E+00 0.  0.
    1000022    2    1    0    0    0  0.28447819263E+02  0.45131135491E+02 -0.30986322900E+02  0.62499999590E+02  0.99999965189E+01 0.  0.
    3000022    2    5    5    0    0  0.18186378626E+02  0.22389667138E+02 -0.20650063077E+02  0.35475754662E+02  0.25000337520E+00 0.  0.
        -13    1    4    4    0    0 -0.85531240002E+01 -0.15671891494E+02  0.90222854801E+01  0.20004418848E+02  0.10500000000E+00 0. -1.
         13    1    4    4    0    0 -0.12876869463E+02 -0.23265870760E+02  0.13434547774E+02  0.29792828135E+02  0.10500000000E+00 0.  1.
    3000001    1    5    5    0    0  0.10261440637E+02  0.22741468353E+02 -0.10336259823E+02  0.27024244928E+02  0.10000000000E+01 0.  1.
        -13    1    6    6    0    0  0.10111980945E+02  0.12433959562E+02 -0.11554138812E+02  0.19757648081E+02  0.10500000000E+00 0.  1.
         13    1    6    6    0    0  0.80743976814E+01  0.99557075757E+01 -0.90959242651E+01  0.15718106581E+02  0.10500000000E+00 0. -1.
</event>
<event>
11    0  0.3476221E-009  0.9118800E+02  0.7816531E-02  0.1126479E+00
         25   -1    0    0    0    0  0.00000000000E+00  0.00000000000E+00  0.99999998245E-14  0.12500000000E+03  0.12500000000E+03 0.  0.
    3000001    1    3    3    0    0  0.20462997874E+01 -0.20107042202E+01  0.78910359182E+01  0.84556917011E+01  0.10000000000E+01 0.  1.
    1000022    2    1    0    0    0  0.11978212325E+01  0.48212893873E+01  0.61494474866E+02  0.62499999128E+02  0.99999922432E+01 0.  0.
    3000022    2    3    3    0    0 -0.84847855489E+00  0.68319936075E+01  0.53603438948E+02  0.54044307427E+02  0.24989135782E+00 0.  0.
    1000022    2    1    0    0    0 -0.11978212325E+01 -0.48212893873E+01 -0.61494474866E+02  0.62500000872E+02  0.10000003141E+02 0.  0.
    3000022    2    5    5    0    0  0.55744390239E+00 -0.17805411243E+01 -0.55135529837E+02  0.55167655573E+02  0.25000125807E+00 0.  0.
        -13    1    4    4    0    0 -0.58334134807E+00  0.42806058220E+01  0.33385748934E+02  0.33664270825E+02  0.10500000000E+00 0. -1.
         13    1    4    4    0    0 -0.26513720682E+00  0.25513877855E+01  0.20217690014E+02  0.20380036602E+02  0.10500000000E+00 0.  1.
    3000001    1    5    5    0    0 -0.17552651348E+01 -0.30407482629E+01 -0.63589450296E+01  0.73323452989E+01  0.10000000000E+01 0.  1.
        -13    1    6    6    0    0  0.24535212293E+00 -0.81659930327E+00 -0.27179059211E+02  0.27192633501E+02  0.10500000000E+00 0. -1.
         13    1    6    6    0    0  0.31209177946E+00 -0.96394182105E+00 -0.27956470626E+02  0.27975022072E+02  0.10500000000E+00 0.  1.
</event>
<event>
11    0  0.3476221E-009  0.9118800E+02  0.7816531E-02  0.1126479E+00
         25   -1    0    0    0    0  0.00000000000E+00  0.00000000000E+00  0.99999998245E-14  0.12500000000E+03  0.12500000000E+03 0.  0.
    3000001    1    3    3    0    0 -0.23809762396E+02 -0.28920907865E+02 -0.12494196887E+02  0.39502261365E+02  0.10000000000E+01 0.  1.
    1000022    2    1    0    0    0 -0.38820953328E+02 -0.46341175208E+02 -0.12315816780E+02  0.62499997898E+02  0.99999728679E+01 0.  0.
    3000022    2    3    3    0    0 -0.15011190932E+02 -0.17420267343E+02  0.17838010767E+00  0.22997736533E+02  0.24999736813E+00 0.  0.
    1000022    2    1    0    0    0  0.38820953328E+02  0.46341175208E+02  0.12315816780E+02  0.62500002102E+02  0.99999991461E+01 0.  0.
    3000022    2    5    5    0    0  0.41371185357E+01  0.11586827572E+01  0.10048339162E+01  0.44193310208E+01  0.24999992547E+00 0.  0.
        -13    1    4    4    0    0 -0.37962638759E+01 -0.43719330698E+01  0.28508642916E-01  0.57911359788E+01  0.10500000000E+00 0. -1.
         13    1    4    4    0    0 -0.11214927056E+02 -0.13048334273E+02  0.14987146475E+00  0.17206600554E+02  0.10500000000E+00 0.  1.
    3000001    1    5    5    0    0  0.34683834792E+02  0.45182492451E+02  0.11310982863E+02  0.58080671081E+02  0.10000000000E+01 0. -1.
        -13    1    6    6    0    0  0.20930402426E+01  0.64451057462E+00  0.47302420712E+00  0.22429864552E+01  0.10500000000E+00 0. -1.
         13    1    6    6    0    0  0.20440782931E+01  0.51417218256E+00  0.53180970909E+00  0.21763445656E+01  0.10500000000E+00 0. -1.
</event>
<event>
11    0  0.3476221E-009  0.9118800E+02  0.7816531E-02  0.1126479E+00
         25   -1    0    0    0    0  0.00000000000E+00  0.00000000000E+00  0.99999998245E-14  0.12500000000E+03  0.12500000000E+03 0.  0.
    3000001    1    3    3    0    0  0.17624877851E+02  0.88490390229E+01  0.51741636987E+01  0.20413568548E+02  0.10000000000E+01 0.  1.
    1000022    2    1    0    0    0  0.45144449072E+02  0.37855768065E+02  0.18307635774E+02  0.62500000055E+02  0.10000001071E+02 0.  0.
    3000022    2    3    3    0    0  0.27519571221E+02  0.29006729042E+02  0.13133472075E+02  0.42086431507E+02  0.24999660087E+00 0.  0.
    1000022    2    1    0    0    0 -0.45144449072E+02 -0.37855768065E+02 -0.18307635774E+02  0.62499999945E+02  0.10000000388E+02 0.  0.
    3000022    2    5    5    0    0 -0.12236958296E+02 -0.49260087796E+01 -0.39740876748E+01  0.13779135863E+02  0.25000294296E+00 0.  0.
        -13    1    4    4    0    0  0.12490213450E+02  0.13259143197E+02  0.60013104215E+01  0.19179078761E+02  0.10500000000E+00 0. -1.
         13    1    4    4    0    0  0.15029357770E+02  0.15747585845E+02  0.71321616538E+01  0.22907352745E+02  0.10500000000E+00 0.  1.
    3000001    1    5    5    0    0 -0.32907490776E+02 -0.32929759285E+02 -0.14333548099E+02  0.48720864082E+02  0.10000000000E+01 0.  1.
        -13    1    6    6    0    0 -0.36051816608E+01 -0.14850520281E+01 -0.11417677933E+01  0.40641571116E+01  0.10500000000E+00 0. -1.
         13    1    6    6    0    0 -0.86317766348E+01 -0.34409567515E+01 -0.28323198815E+01  0.97149787519E+01  0.10500000000E+00 0.  1.
</event>
<event>
11    0  0.3476221E-009  0.9118800E+02  0.7816531E-02  0.1126479E+00
         25   -1    0    0    0    0  0.00000000000E+00  0.00000000000E+00  0.99999998245E-14  0.12500000000E+03  0.12500000000E+03 0.  0.
    3000001    1    3    3    0    0 -0.27881858490E+02  0.15813731444E+02 -0.13617806423E+02  0.34841308627E+02  0.10000000000E+01 0. -1.
    1000022    2    1    0    0    0 -0.53641022548E+02  0.20557876765E+02 -0.22500345636E+02  0.62500004365E+02  0.99999697446E+01 0.  0.
    3000022    2    3    3    0    0 -0.25759164057E+02  0.47441453214E+01 -0.88825392130E+01  0.27658695739E+02  0.24999866926E+00 0.  0.
    1000022    2    1    0    0    0  0.53641022548E+02 -0.20557876765E+02  0.22500345636E+02  0.62499995635E+02  0.99999151797E+01 0.  0.
    3000022    2    5    5    0    0  0.15886108408E+02 -0.75540385631E+01  0.11678357583E+02  0.21115834715E+02  0.25000178961E+00 0.  0.
        -13    1    4    4    0    0 -0.16502233664E+02  0.30797233522E+01 -0.56483416202E+01  0.17712233058E+02  0.10500000000E+00 0.  1.
         13    1    4    4    0    0 -0.92569303930E+01  0.16644219692E+01 -0.32341975928E+01  0.99464626809E+01  0.10500000000E+00 0. -1.
    3000001    1    5    5    0    0  0.37754914139E+02 -0.13003838202E+02  0.10821988053E+02  0.41384160920E+02  0.10000000000E+01 0. -1.
        -13    1    6    6    0    0  0.64265233526E+01 -0.29926153871E+01  0.46737195283E+01  0.84917977182E+01  0.10500000000E+00 0.  1.
         13    1    6    6    0    0  0.94595850556E+01 -0.45614231759E+01  0.70046380545E+01  0.12624036996E+02  0.10500000000E+00 0. -1.
</event>
<event>
11    0  0.3476221E-009  0.9118800E+02  0.7816531E-02  0.1126479E+00
         25   -1    0    0    0    0  0.00000000000E+00  0.00000000000E+00  0.99999998245E-14  0.12500000000E+03  0.12500000000E+03 0.  0.
    3000001    1    3    3    0    0  0.21311834484E+02 -0.18258743109E+02 -0.79914106290E+01  0.29196551729E+02  0.10000000000E+01 0.  1.
    1000022    2    1    0    0    0  0.46633217246E+02 -0.39846130503E+02 -0.66241156969E+01  0.62500000843E+02  0.10000006494E+02 0.  0.
    3000022    2    3    3    0    0  0.25321382762E+02 -0.21587387394E+02  0.13672949322E+01  0.33303449114E+02  0.25001607680E+00 0.  0.
    1000022    2    1    0    0    0 -0.46633217246E+02  0.39846130503E+02  0.66241156969E+01  0.62499999157E+02  0.99999959541E+01 0.  0.
    3000022    2    5    5    0    0 -0.15960525744E+02  0.13137840591E+02 -0.24452929364E+01  0.20817857574E+02  0.24999799882E+00 0.  0.
        -13    1    4    4    0    0  0.11937682661E+02 -0.10245448780E+02  0.68966399067E+00  0.15746877450E+02  0.10500000000E+00 0.  1.
         13    1    4    4    0    0  0.13383700101E+02 -0.11341938614E+02  0.67763094149E+00  0.17556571665E+02  0.10500000000E+00 0. -1.
    3000001    1    5    5    0    0 -0.30672691501E+02  0.26708289912E+02  0.90694086332E+01  0.41682141583E+02  0.10000000000E+01 0. -1.
        -13    1    6    6    0    0 -0.11393824524E+02  0.93935989969E+01 -0.17064155048E+01  0.14865457217E+02  0.10500000000E+00 0.  1.
         13    1    6    6    0    0 -0.45667012208E+01  0.37442415937E+01 -0.73887743155E+00  0.59524003571E+01  0.10500000000E+00 0. -1.
</event>
<event>
11    0  0.3476221E-009  0.9118800E+02  0.7816531E-02  0.1126479E+00
         25   -1    0    0    0    0  0.00000000000E+00  0.00000000000E+00  0.99999998245E-14  0.12500000000E+03  0.12500000000E+03 0.  0.
    3000001    1    3    3    0    0 -0.49670442228E+02  0.17906432582E+02 -0.12270998768E+01  0.52823280219E+02  0.10000000000E+01 0.  1.
    1000022    2    1    0    0    0 -0.58131263392E+02  0.20488634586E+02  0.26873781539E+01  0.62499999893E+02  0.10000002723E+02 0.  0.
    3000022    2    3    3    0    0 -0.84608211639E+01  0.25822020035E+01  0.39144780307E+01  0.96767196736E+01  0.25000686704E+00 0.  0.
    1000022    2    1    0    0    0  0.58131263392E+02 -0.20488634586E+02 -0.26873781539E+01  0.62500000107E+02  0.10000004066E+02 0.  0.
    3000022    2    5    5    0    0  0.57700271355E+02 -0.20593837911E+02 -0.22077850737E+01  0.61305499627E+02  0.24999028407E+00 0.  0.
        -13    1    4    4    0    0 -0.46734371262E+01  0.13567957725E+01  0.21477461131E+01  0.53203146248E+01  0.10500000000E+00 0. -1.
         13    1    4    4    0    0 -0.37873840377E+01  0.12254062310E+01  0.17667319176E+01  0.43564050488E+01  0.10500000000E+00 0.  1.
    3000001    1    5    5    0    0  0.43099203690E+00  0.10520332588E+00 -0.47959308017E+00  0.11945004806E+01  0.10000000000E+01 0.  1.
        -13    1    6    6    0    0  0.18567105777E+02 -0.65801495773E+01 -0.68381627722E+00  0.19710769013E+02  0.10500000000E+00 0.  1.
         13    1    6    6    0    0  0.39133165579E+02 -0.14013688334E+02 -0.15239687965E+01  0.41594730614E+02  0.10500000000E+00 0. -1.
</event>
<event>
11    0  0.3476221E-009  0.9118800E+02  0.7816531E-02  0.1126479E+00
         25   -1    0    0    0    0  0.00000000000E+00  0.00000000000E+00  0.99999998245E-14  0.12500000000E+03  0.12500000000E+03 0.  0.
    3000001    1    3    3    0    0  0.20699015380E+02  0.32230150989E+02  0.24705181808E+02  0.45591423301E+02  0.10000000000E+01 0. -1.
    1000022    2    1    0    0    0  0.25266605664E+02  0.41338918245E+02  0.38196103844E+02  0.62500000958E+02  0.10000012370E+02 0.  0.
    3000022    2    3    3    0    0  0.45675902845E+01  0.91087672564E+01  0.13490922036E+02  0.16908577657E+02  0.24999811957E+00 0.  0.
    1000022    2    1    0    0    0 -0.25266605664E+02 -0.41338918245E+02 -0.38196103844E+02  0.62499999042E+02  0.10000000394E+02 0.  0.
    3000022    2    5    5    0    0 -0.22236434760E+02 -0.29936198390E+02 -0.25732003002E+02  0.45308205487E+02  0.25000228312E+00 0.  0.
        -13    1    4    4    0    0  0.34277058763E+01  0.68843591606E+01  0.10193594211E+02  0.12769649822E+02  0.10500000000E+00 0.  1.
         13    1    4    4    0    0  0.11398844082E+01  0.22244080957E+01  0.32973278248E+01  0.41389278352E+01  0.10500000000E+00 0. -1.
    3000001    1    5    5    0    0 -0.30301709047E+01 -0.11402719856E+02 -0.12464100842E+02  0.17191793555E+02  0.10000000000E+01 0. -1.
        -13    1    6    6    0    0 -0.12963333569E+02 -0.17556586645E+02 -0.15039125212E+02  0.26504114096E+02  0.10500000000E+00 0. -1.
         13    1    6    6    0    0 -0.92731011910E+01 -0.12379611744E+02 -0.10692877789E+02  0.18804091391E+02  0.10500000000E+00 0.  1.
</event>
<event>
11    0  0.3476221E-009  0.9118800E+02  0.7816531E-02  0.1126479E+00
         25   -1    0    0    0    0  0.00000000000E+00  0.00000000000E+00  0.99999998245E-14  0.12500000000E+03  0.12500000000E+03 0.  0.
    3000001    1    3    3    0    0 -0.39545235881E+01  0.30851734030E+02  0.93705066343E+01  0.32500371445E+02  0.10000000000E+01 0.  1.
    1000022    2    1    0    0    0  0.16792182499E+01  0.58391215389E+02  0.19846831019E+02  0.62500003990E+02  0.99999994355E+01 0.  0.
    3000022    2    3    3    0    0  0.56337418380E+01  0.27539481358E+02  0.10476324385E+02  0.29999632545E+02  0.24999921624E+00 0.  0.
    1000022    2    1    0    0    0 -0.16792182499E+01 -0.58391215389E+02 -0.19846831019E+02  0.62499996010E+02  0.99999495631E+01 0.  0.
    3000022    2    5    5    0    0 -0.35191080907E+01 -0.53768878956E+02 -0.19852983958E+02  0.57425429370E+02  0.25000080786E+00 0.  0.
        -13    1    4    4    0    0  0.36770810555E+01  0.17724511028E+02  0.67163094542E+01  0.19308004919E+02  0.10500000000E+00 0.  1.
         13    1    4    4    0    0  0.19566607825E+01  0.98149703307E+01  0.37600149306E+01  0.10691627626E+02  0.10500000000E+00 0. -1.
    3000001    1    5    5    0    0  0.18398898408E+01 -0.46223364328E+01  0.61529385472E-02  0.50745666399E+01  0.10000000000E+01 0. -1.
        -13    1    6    6    0    0 -0.24110823794E+01 -0.36280331428E+02 -0.13435803277E+02  0.38763482835E+02  0.10500000000E+00 0. -1.
         13    1    6    6    0    0 -0.11080257113E+01 -0.17488547528E+02 -0.64171806804E+01  0.18661946536E+02  0.10500000000E+00 0.  1.
</event>
<event>
11    0  0.3476221E-009  0.9118800E+02  0.7816531E-02  0.1126479E+00
         25   -1    0    0    0    0  0.00000000000E+00  0.00000000000E+00  0.99999998245E-14  0.12500000000E+03  0.12500000000E+03 0.  0.
    3000001    1    3    3    0    0  0.15049986630E+02  0.14937881526E+02  0.57980843121E+01  0.22005912473E+02  0.10000000000E+01 0. -1.
    1000022    2    1    0    0    0  0.32141250449E+02  0.47430010400E+02  0.22881962584E+02  0.62499999921E+02  0.99999955779E+01 0.  0.
    3000022    2    3    3    0    0  0.17091263819E+02  0.32492128873E+02  0.17083878271E+02  0.40494087449E+02  0.24996772641E+00 0.  0.
    1000022    2    1    0    0    0 -0.32141250449E+02 -0.47430010400E+02 -0.22881962584E+02  0.62500000079E+02  0.99999965604E+01 0.  0.
    3000022    2    5    5    0    0 -0.86953814416E+01 -0.81933648393E+01 -0.15529462319E+01  0.12050519736E+02  0.24999619003E+00 0.  0.
        -13    1    4    4    0    0  0.10589675924E+02  0.20009822564E+02  0.10559635658E+02  0.24981016101E+02  0.10500000000E+00 0.  1.
         13    1    4    4    0    0  0.65015878943E+01  0.12482306309E+02  0.65242426136E+01  0.15513071347E+02  0.10500000000E+00 0. -1.
    3000001    1    5    5    0    0 -0.23445869007E+02 -0.39236645560E+02 -0.21329016352E+02  0.50449480343E+02  0.10000000000E+01 0. -1.
        -13    1    6    6    0    0 -0.39874591094E+01 -0.37427041828E+01 -0.77757681535E+00  0.55247909873E+01  0.10500000000E+00 0.  1.
         13    1    6    6    0    0 -0.47079223322E+01 -0.44506606565E+01 -0.77536941651E+00  0.65257287484E+01  0.10500000000E+00 0. -1.
</event>
<event>
11    0  0.3476221E-009  0.9118800E+02  0.7816531E-02  0.1126479E+00
         25   -1    0    0    0    0  0.00000000000E+00  0.00000000000E+00  0.99999998245E-14  0.12500000000E+03  0.12500000000E+03 0.  0.
    3000001    1    3    3    0    0 -0.47392492776E+01  0.47040005825E+01 -0.20101748471E+01  0.70447787837E+01  0.10000000000E+01 0.  1.
    1000022    2    1    0    0    0 -0.37996717293E+02  0.27448938330E+02 -0.40113020343E+02  0.62499992308E+02  0.99999948456E+01 0.  0.
    3000022    2    3    3    0    0 -0.33257468016E+02  0.22744937747E+02 -0.38102845496E+02  0.55455213524E+02  0.25000030262E+00 0.  0.
    1000022    2    1    0    0    0  0.37996717293E+02 -0.27448938330E+02  0.40113020343E+02  0.62500007692E+02  0.10000090999E+02 0.  0.
    3000022    2    5    5    0    0  0.19951877642E+02 -0.10799904936E+02  0.24473941031E+02  0.33372918021E+02  0.24999915709E+00 0.  0.
        -13    1    4    4    0    0 -0.16671371600E+02  0.11323144497E+02 -0.19030736754E+02  0.27718733714E+02  0.10500000000E+00 0.  1.
         13    1    4    4    0    0 -0.16586096415E+02  0.11421793250E+02 -0.19072108743E+02  0.27736479810E+02  0.10500000000E+00 0. -1.
    3000001    1    5    5    0    0  0.18044839651E+02 -0.16649033394E+02  0.15639079312E+02  0.29127089671E+02  0.10000000000E+01 0. -1.
        -13    1    6    6    0    0  0.13522774279E+02 -0.73204482886E+01  0.16662825518E+02  0.22674107845E+02  0.10500000000E+00 0.  1.
         13    1    6    6    0    0  0.64291033635E+01 -0.34794566472E+01  0.78111155135E+01  0.10698810176E+02  0.10500000000E+00 0. -1.
</event>
<event>
11    0  0.3476221E-009  0.9118800E+02  0.7816531E-02  0.1126479E+00
         25   -1    0    0    0    0  0.00000000000E+00  0.00000000000E+00  0.99999998245E-14  0.12500000000E+03  0.12500000000E+03 0.  0.
    3000001    1    3    3    0    0 -0.33563348376E+02 -0.19676150110E+02 -0.19788813655E+01  0.38968772226E+02  0.10000000000E+01 0.  1.
    1000022    2    1    0    0    0 -0.56484798169E+02 -0.24426601074E+02 -0.43656226003E+01  0.62499999907E+02  0.10000003169E+02 0.  0.
    3000022    2    3    3    0    0 -0.22921449794E+02 -0.47504509633E+01 -0.23867412348E+01  0.23531227680E+02  0.24999485490E+00 0.  0.
    1000022    2    1    0    0    0  0.56484798169E+02  0.24426601074E+02  0.43656226003E+01  0.62500000093E+02  0.10000004338E+02 0.  0.
    3000022    2    5    5    0    0  0.35819348953E+02  0.20512236553E+02  0.22850388749E+01  0.41340797142E+02  0.24999564871E+00 0.  0.
        -13    1    4    4    0    0 -0.59678459379E+01 -0.12670864774E+01 -0.63403593796E+00  0.61346328212E+01  0.10500000000E+00 0. -1.
         13    1    4    4    0    0 -0.16953603856E+02 -0.34833644859E+01 -0.17527052968E+01  0.17396594859E+02  0.10500000000E+00 0.  1.
    3000001    1    5    5    0    0  0.20665449216E+02  0.39143645201E+01  0.20805837254E+01  0.21159202951E+02  0.10000000000E+01 0.  1.
        -13    1    6    6    0    0  0.21752124633E+02  0.12523058301E+02  0.13662697273E+01  0.25136818280E+02  0.10500000000E+00 0. -1.
         13    1    6    6    0    0  0.14067224320E+02  0.79891782522E+01  0.91876914759E+00  0.16203978862E+02  0.10500000000E+00 0.  1.
</event>
<event>
11    0  0.3476221E-009  0.9118800E+02  0.7816531E-02  0.1126479E+00
         25   -1    0    0    0    0  0.00000000000E+00  0.00000000000E+00  0.99999998245E-14  0.12500000000E+03  0.12500000000E+03 0.  0.
    3000001    1    3    3    0    0  0.27966108935E+01 -0.43160265755E+02  0.65866027933E-01  0.43262384480E+02  0.10000000000E+01 0.  1.
    1000022    2    1    0    0    0  0.96073523805E+01 -0.60850937744E+02  0.33334829222E+01  0.62500000699E+02  0.10000006742E+02 0.  0.
    3000022    2    3    3    0    0  0.68107414871E+01 -0.17690671989E+02  0.32676168943E+01  0.19237616219E+02  0.24996518370E+00 0.  0.
    1000022    2    1    0    0    0 -0.96073523805E+01  0.60850937744E+02 -0.33334829222E+01  0.62499999301E+02  0.99999980059E+01 0.  0.
    3000022    2    5    5    0    0  0.18424811048E+01  0.14761926215E+02 -0.16489186393E+01  0.14969657124E+02  0.24999910221E+00 0.  0.
        -13    1    4    4    0    0  0.27461453821E+01 -0.70256991269E+01  0.12500142027E+01  0.76469159266E+01  0.10500000000E+00 0. -1.
         13    1    4    4    0    0  0.40645961049E+01 -0.10664972862E+02  0.20176026916E+01  0.11590700292E+02  0.10500000000E+00 0.  1.
    3000001    1    5    5    0    0 -0.11449833485E+02  0.46089011530E+02 -0.16845642829E+01  0.47530342177E+02  0.10000000000E+01 0. -1.
        -13    1    6    6    0    0  0.71037318646E+00  0.55360793352E+01 -0.56129815715E+00  0.56106046992E+01  0.10500000000E+00 0. -1.
         13    1    6    6    0    0  0.11321079183E+01  0.92258468793E+01 -0.10876204821E+01  0.93590524249E+01  0.10500000000E+00 0.  1.
</event>
<event>
11    0  0.3476221E-009  0.9118800E+02  0.7816531E-02  0.1126479E+00
         25   -1    0    0    0    0  0.00000000000E+00  0.00000000000E+00  0.99999998245E-14  0.12500000000E+03  0.12500000000E+03 0.  0.
    3000001    1    3    3    0    0 -0.92768091148E+01  0.11441579820E+01  0.24670702261E+00  0.94036774294E+01  0.10000000000E+01 0. -1.
    1000022    2    1    0    0    0 -0.54330166189E+02  0.26317915809E+02  0.12722039104E+02  0.62500000074E+02  0.10000003981E+02 0.  0.
    3000022    2    3    3    0    0 -0.45053357074E+02  0.25173757827E+02  0.12475332081E+02  0.53096322645E+02  0.25000208092E+00 0.  0.
    1000022    2    1    0    0    0  0.54330166189E+02 -0.26317915809E+02 -0.12722039104E+02  0.62499999926E+02  0.10000003052E+02 0.  0.
    3000022    2    5    5    0    0  0.46663940982E+02 -0.25684245708E+02 -0.12627595097E+02  0.54742328471E+02  0.25000583912E+00 0.  0.
        -13    1    4    4    0    0 -0.16482811257E+02  0.92773658082E+01  0.45756065822E+01  0.19460210273E+02  0.10500000000E+00 0. -1.
         13    1    4    4    0    0 -0.28570545817E+02  0.15896392019E+02  0.78997254989E+01  0.33636112372E+02  0.10500000000E+00 0.  1.
    3000001    1    5    5    0    0  0.76662252076E+01 -0.63367010100E+00 -0.94444006503E-01  0.77576714548E+01  0.10000000000E+01 0.  1.
        -13    1    6    6    0    0  0.19956732390E+02 -0.10912005424E+02 -0.53759456662E+01  0.23372095474E+02  0.10500000000E+00 0.  1.
         13    1    6    6    0    0  0.26707208592E+02 -0.14772240285E+02 -0.72516494310E+01  0.31370232997E+02  0.10500000000E+00 0. -1.
</event>
<event>
11    0  0.3476221E-009  0.9118800E+02  0.7816531E-02  0.1126479E+00
         25   -1    0    0    0    0  0.00000000000E+00  0.00000000000E+00  0.99999998245E-14  0.12500000000E+03  0.12500000000E+03 0.  0.
    3000001    1    3    3    0    0  0.49829326984E+01 -0.24201717082E+02 -0.27809354192E+02  0.37214418020E+02  0.10000000000E+01 0. -1.
    1000022    2    1    0    0    0  0.15544406647E+02 -0.41519436182E+02 -0.42904055033E+02  0.62499999494E+02  0.99999919821E+01 0.  0.
    3000022    2    3    3    0    0  0.10561473949E+02 -0.17317719100E+02 -0.15094700841E+02  0.25285581474E+02  0.25002044285E+00 0.  0.
    1000022    2    1    0    0    0 -0.15544406647E+02  0.41519436182E+02  0.42904055033E+02  0.62500000506E+02  0.99999983032E+01 0.  0.
    3000022    2    5    5    0    0 -0.32926396168E+01  0.18047352495E+01  0.48594453274E+01  0.61461577515E+01  0.25000249853E+00 0.  0.
        -13    1    4    4    0    0  0.48546827864E+01 -0.78737227703E+01 -0.69452657631E+01  0.11567678969E+02  0.10500000000E+00 0.  1.
         13    1    4    4    0    0  0.57067911621E+01 -0.94439963296E+01 -0.81494350779E+01  0.13717902505E+02  0.10500000000E+00 0. -1.
    3000001    1    5    5    0    0 -0.12251767030E+02  0.39714700932E+02  0.38044609706E+02  0.56353842754E+02  0.10000000000E+01 0. -1.
        -13    1    6    6    0    0 -0.21606619960E+01  0.11666661821E+01  0.32623061679E+01  0.40845118159E+01  0.10500000000E+00 0.  1.
         13    1    6    6    0    0 -0.11319776208E+01  0.63806906737E+00  0.15971391595E+01  0.20616459356E+01  0.10500000000E+00 0. -1.
</event>
<event>
11    0  0.3476221E-009  0.9118800E+02  0.7816531E-02  0.1126479E+00
         25   -1    0    0    0    0  0.00000000000E+00  0.00000000000E+00  0.99999998245E-14  0.12500000000E+03  0.12500000000E+03 0.  0.
    3000001    1    3    3    0    0  0.39584649533E+02 -0.43896224303E+02 -0.12460704057E+02  0.60415992356E+02  0.10000000000E+01 0. -1.
    1000022    2    1    0    0    0  0.39213202201E+02 -0.45924525273E+02 -0.12629838539E+02  0.62500001254E+02  0.10000004341E+02 0.  0.
    3000022    2    3    3    0    0 -0.37144733165E+00 -0.20283009696E+01 -0.16913448119E+00  0.20840088982E+01  0.25001734278E+00 0.  0.
    1000022    2    1    0    0    0 -0.39213202201E+02  0.45924525273E+02  0.12629838539E+02  0.62499998746E+02  0.99999886679E+01 0.  0.
    3000022    2    5    5    0    0 -0.11704898083E+02  0.78127555091E+01  0.45902998936E+01  0.14804632393E+02  0.24999877216E+00 0.  0.
        -13    1    4    4    0    0 -0.13526037751E+00 -0.69888244389E+00 -0.11439920858E+00  0.72859057023E+00  0.10500000000E+00 0.  1.
         13    1    4    4    0    0 -0.23618695414E+00 -0.13294185257E+01 -0.54735272606E-01  0.13554183280E+01  0.10500000000E+00 0.  1.
    3000001    1    5    5    0    0 -0.27508304118E+02  0.38111769764E+02  0.80395386450E+01  0.47695366353E+02  0.10000000000E+01 0. -1.
        -13    1    6    6    0    0 -0.47359999652E+01  0.32314487106E+01  0.18434086926E+01  0.60233825254E+01  0.10500000000E+00 0.  1.
         13    1    6    6    0    0 -0.69688981180E+01  0.45813067985E+01  0.27468912010E+01  0.87812498672E+01  0.10500000000E+00 0. -1.
</event>
<event>
11    0  0.3476221E-009  0.9118800E+02  0.7816531E-02  0.1126479E+00
         25   -1    0    0    0    0  0.00000000000E+00  0.00000000000E+00  0.99999998245E-14  0.12500000000E+03  0.12500000000E+03 0.  0.
    3000001    1    3    3    0    0  0.26575385046E+02  0.41450104311E+02 -0.29576646810E+02  0.57446847383E+02  0.10000000000E+01 0.  1.
    1000022    2    1    0    0    0  0.28783478411E+02  0.42739386212E+02 -0.33927958832E+02  0.62499999024E+02  0.99999862129E+01 0.  0.
    3000022    2    3    3    0    0  0.22080933651E+01  0.12892819016E+01 -0.43513120217E+01  0.50531516411E+01  0.25000213299E+00 0.  0.
    1000022    2    1    0    0    0 -0.28783478411E+02 -0.42739386212E+02  0.33927958832E+02  0.62500000976E+02  0.99999984101E+01 0.  0.
    3000022    2    5    5    0    0 -0.19553768497E+02 -0.22301514869E+02  0.15555781491E+02  0.33492570369E+02  0.25000847492E+00 0.  0.
        -13    1    4    4    0    0  0.13052899655E+01  0.71459621650E+00 -0.24297099526E+01  0.28511304952E+01  0.10500000000E+00 0. -1.
         13    1    4    4    0    0  0.90280339960E+00  0.57468568512E+00 -0.19216020691E+01  0.22020211459E+01  0.10500000000E+00 0.  1.
    3000001    1    5    5    0    0 -0.92297099139E+01 -0.20437871343E+02  0.18372177341E+02  0.29007430606E+02  0.10000000000E+01 0.  1.
        -13    1    6    6    0    0 -0.59693733647E+01 -0.68804061569E+01  0.47811131735E+01  0.10288025828E+02  0.10500000000E+00 0.  1.
         13    1    6    6    0    0 -0.13584395133E+02 -0.15421108713E+02  0.10774668317E+02  0.23204544542E+02  0.10500000000E+00 0. -1.
</event>
<event>
11    0  0.3476221E-009  0.9118800E+02  0.7816531E-02  0.1126479E+00
         25   -1    0    0    0    0  0.00000000000E+00  0.00000000000E+00  0.99999998245E-14  0.12500000000E+03  0.12500000000E+03 0.  0.
    3000001    1    3    3    0    0  0.11243148915E+02 -0.20087393174E+02 -0.51606063560E+00  0.23047300940E+02  0.10000000000E+01 0.  1.
    1000022    2    1    0    0    0  0.18870950414E+02 -0.58693413100E+02  0.22847933694E+01  0.62499999795E+02  0.10000009137E+02 0.  0.
    3000022    2    3    3    0    0  0.76278014986E+01 -0.38606019927E+02  0.28008540050E+01  0.39452698855E+02  0.25006698769E+00 0.  0.
    1000022    2    1    0    0    0 -0.18870950414E+02  0.58693413100E+02 -0.22847933694E+01  0.62500000205E+02  0.10000011703E+02 0.  0.
    3000022    2    5    5    0    0 -0.14084748272E+02  0.47355646119E+02 -0.55802598276E+01  0.49720610931E+02  0.24999663734E+00 0.  0.
        -13    1    4    4    0    0  0.32844543751E+01 -0.16755139971E+02  0.11543908749E+01  0.17113328118E+02  0.10500000000E+00 0. -1.
         13    1    4    4    0    0  0.43433471235E+01 -0.21850879956E+02  0.16464631301E+01  0.22339370737E+02  0.10500000000E+00 0.  1.
    3000001    1    5    5    0    0 -0.47862021414E+01  0.11337766981E+02  0.32954664582E+01  0.12779389275E+02  0.10000000000E+01 0. -1.
        -13    1    6    6    0    0 -0.10743166258E+02  0.36176007727E+02 -0.42624973527E+01  0.37977612682E+02  0.10500000000E+00 0.  1.
         13    1    6    6    0    0 -0.33415820141E+01  0.11179638392E+02 -0.13177624749E+01  0.11742998249E+02  0.10500000000E+00 0. -1.
</event>
<event>
11    0  0.3476221E-009  0.9118800E+02  0.7816531E-02  0.1126479E+00
         25   -1    0    0    0    0  0.00000000000E+00  0.00000000000E+00  0.99999998245E-14  0.12500000000E+03  0.12500000000E+03 0.  0.
    3000001    1    3    3    0    0 -0.57388144118E-01 -0.10382064239E+01  0.13455592766E+01  0.19727381338E+01  0.10000000000E+01 0. -1.
    1000022    2    1    0    0    0 -0.45181479963E+02 -0.19264619677E+02  0.37333072616E+02  0.62499999866E+02  0.99999984671E+01 0.  0.
    3000022    2    3    3    0    0 -0.45124091819E+02 -0.18226413253E+02  0.35987513340E+02  0.60527261733E+02  0.24998776448E+00 0.  0.
    1000022    2    1    0    0    0  0.45181479963E+02  0.19264619677E+02 -0.37333072616E+02  0.62500000134E+02  0.10000000137E+02 0.  0.
    3000022    2    5    5    0    0  0.40683884020E+02  0.18043913517E+02 -0.36710699043E+02  0.57693146520E+02  0.24999439392E+00 0.  0.
        -13    1    4    4    0    0 -0.15266885664E+02 -0.61245754906E+01  0.12116979009E+02  0.20430869490E+02  0.10500000000E+00 0.  1.
         13    1    4    4    0    0 -0.29857206156E+02 -0.12101837762E+02  0.23870534331E+02  0.40096392243E+02  0.10500000000E+00 0. -1.
    3000001    1    5    5    0    0  0.44975959432E+01  0.12207061599E+01 -0.62237357363E+00  0.48068536136E+01  0.10000000000E+01 0. -1.
        -13    1    6    6    0    0  0.22030518563E+02  0.98334453147E+01 -0.19854692338E+02  0.31245163269E+02  0.10500000000E+00 0. -1.
         13    1    6    6    0    0  0.18653365457E+02  0.82104682020E+01 -0.16856006705E+02  0.26447983251E+02  0.10500000000E+00 0.  1.
</event>
<event>
11    0  0.3476221E-009  0.9118800E+02  0.7816531E-02  0.1126479E+00
         25   -1    0    0    0    0  0.00000000000E+00  0.00000000000E+00  0.99999998245E-14  0.12500000000E+03  0.12500000000E+03 0.  0.
    3000001    1    3    3    0    0 -0.37121246197E+02 -0.26404434924E+02 -0.34886664156E+02  0.57386936133E+02  0.10000000000E+01 0. -1.
    1000022    2    1    0    0    0 -0.39151735834E+02 -0.30856188041E+02 -0.36349517159E+02  0.62500001524E+02  0.10000001674E+02 0.  0.
    3000022    2    3    3    0    0 -0.20304896371E+01 -0.44517531171E+01 -0.14628530038E+01  0.51130653902E+01  0.25000958457E+00 0.  0.
    1000022    2    1    0    0    0  0.39151735834E+02  0.30856188041E+02  0.36349517159E+02  0.62499998476E+02  0.99999826292E+01 0.  0.
    3000022    2    5    5    0    0  0.23299877184E+02  0.12156115684E+02  0.19794537892E+02  0.32902000785E+02  0.24999992298E+00 0.  0.
        -13    1    4    4    0    0 -0.49883366255E+00 -0.10777550593E+01 -0.37769212609E+00  0.12506267760E+01  0.10500000000E+00 0. -1.
         13    1    4    4    0    0 -0.15316559745E+01 -0.33739980578E+01 -0.10851608777E+01  0.38624386142E+01  0.10500000000E+00 0.  1.
    3000001    1    5    5    0    0  0.15851858650E+02  0.18700072357E+02  0.16554979268E+02  0.29597997692E+02  0.10000000000E+01 0. -1.
        -13    1    6    6    0    0  0.14902868584E+02  0.78251671416E+01  0.12724870040E+02  0.21101233977E+02  0.10500000000E+00 0. -1.
         13    1    6    6    0    0  0.83970086005E+01  0.43309485425E+01  0.70696678512E+01  0.11800766807E+02  0.10500000000E+00 0.  1.
</event>
<event>
11    0  0.3476221E-009  0.9118800E+02  0.7816531E-02  0.1126479E+00
         25   -1    0    0    0    0  0.00000000000E+00  0.00000000000E+00  0.99999998245E-14  0.12500000000E+03  0.12500000000E+03 0.  0.
    3000001    1    3    3    0    0  0.15408907340E+01 -0.94334880412E-01 -0.22141447103E+01  0.28784857342E+01  0.10000000000E+01 0.  1.
    1000022    2    1    0    0    0  0.26010039875E+02 -0.40461708733E+02 -0.38633896093E+02  0.62499999624E+02  0.99999988891E+01 0.  0.
    3000022    2    3    3    0    0  0.24469149141E+02 -0.40367373852E+02 -0.36419751383E+02  0.59621513890E+02  0.24999259377E+00 0.  0.
    1000022    2    1    0    0    0 -0.26010039875E+02  0.40461708733E+02  0.38633896093E+02  0.62500000376E+02  0.10000003589E+02 0.  0.
    3000022    2    5    5    0    0 -0.24125277597E+02  0.30342508357E+02  0.29724954829E+02  0.48850100027E+02  0.25000101931E+00 0.  0.
        -13    1    4    4    0    0  0.16564243328E+02 -0.27366477083E+02 -0.24621173057E+02  0.40367207144E+02  0.10500000000E+00 0.  1.
         13    1    4    4    0    0  0.79049058125E+01 -0.13000896770E+02 -0.11798578326E+02  0.19254306745E+02  0.10500000000E+00 0. -1.
    3000001    1    5    5    0    0 -0.18847622773E+01  0.10119200376E+02  0.89089412643E+01  0.13649900349E+02  0.10000000000E+01 0. -1.
        -13    1    6    6    0    0 -0.74728179587E+01  0.94668043471E+01  0.92785543951E+01  0.15217292448E+02  0.10500000000E+00 0. -1.
         13    1    6    6    0    0 -0.16652459639E+02  0.20875704010E+02  0.20446400434E+02  0.33632807579E+02  0.10500000000E+00 0.  1.
</event>
<event>
11    0  0.3476221E-009  0.9118800E+02  0.7816531E-02  0.1126479E+00
         25   -1    0    0    0    0  0.00000000000E+00  0.00000000000E+00  0.99999998245E-14  0.12500000000E+03  0.12500000000E+03 0.  0.
    3000001    1    3    3    0    0  0.45916721667E+01 -0.18412156517E+02  0.42970036810E+02  0.46984199731E+02  0.10000000000E+01 0. -1.
    1000022    2    1    0    0    0  0.55107424437E+01 -0.29232470922E+02  0.54049460366E+02  0.62499998362E+02  0.99999995477E+01 0.  0.
    3000022    2    3    3    0    0  0.91907027693E+00 -0.10820314405E+02  0.11079423556E+02  0.15515798631E+02  0.24997369003E+00 0.  0.
    1000022    2    1    0    0    0 -0.55107424437E+01  0.29232470922E+02 -0.54049460366E+02  0.62500001638E+02  0.10000020019E+02 0.  0.
    3000022    2    5    5    0    0  0.25257719126E+01  0.62496679336E+01 -0.15364192866E+02  0.16779713824E+02  0.25000113436E+00 0.  0.
        -13    1    4    4    0    0  0.41217307750E+00 -0.54677362412E+01  0.55321210627E+01  0.77898276425E+01  0.10500000000E+00 0.  1.
         13    1    4    4    0    0  0.50689719944E+00 -0.53525781634E+01  0.55473024929E+01  0.77259709884E+01  0.10500000000E+00 0. -1.
    3000001    1    5    5    0    0 -0.80365143562E+01  0.22982802988E+02 -0.38685267500E+02  0.45720287814E+02  0.10000000000E+01 0. -1.
        -13    1    6    6    0    0  0.18187239541E+01  0.44363162532E+01 -0.11011473544E+02  0.12010505124E+02  0.10500000000E+00 0. -1.
         13    1    6    6    0    0  0.70704795843E+00  0.18133516804E+01 -0.43527193212E+01  0.47692086997E+01  0.10500000000E+00 0.  1.
</event>
<event>
11    0  0.3476221E-009  0.9118800E+02  0.7816531E-02  0.1126479E+00
         25   -1    0    0    0    0  0.00000000000E+00  0.00000000000E+00  0.99999998245E-14  0.12500000000E+03  0.12500000000E+03 0.  0.
    3000001    1    3    3    0    0 -0.14440675571E+02 -0.91303532006E+01  0.36130663087E+02  0.39979010438E+02  0.10000000000E+01 0.  1.
    1000022    2    1    0    0    0 -0.18565673681E+02 -0.20404342231E+02  0.55183587520E+02  0.62499997714E+02  0.99999980800E+01 0.  0.
    3000022    2    3    3    0    0 -0.41249981092E+01 -0.11273989030E+02  0.19052924434E+02  0.22520987276E+02  0.25000073831E+00 0.  0.
    1000022    2    1    0    0    0  0.18565673681E+02  0.20404342231E+02 -0.55183587520E+02  0.62500002286E+02  0.10000026652E+02 0.  0.
    3000022    2    5    5    0    0  0.49736733434E+01  0.50145382722E+01 -0.25009473915E+02  0.25988830422E+02  0.25000110204E+00 0.  0.
        -13    1    4    4    0    0 -0.24906189719E+01 -0.67076186708E+01  0.11455096183E+02  0.13506501570E+02  0.10500000000E+00 0. -1.
         13    1    4    4    0    0 -0.16343791372E+01 -0.45663703597E+01  0.75978282502E+01  0.90144857061E+01  0.10500000000E+00 0.  1.
    3000001    1    5    5    0    0  0.13592000337E+02  0.15389803959E+02 -0.30174113605E+02  0.36511171864E+02  0.10000000000E+01 0.  1.
        -13    1    6    6    0    0  0.22688169807E+01  0.23619478401E+01 -0.11442327053E+02  0.11902277155E+02  0.10500000000E+00 0.  1.
         13    1    6    6    0    0  0.27048563627E+01  0.26525904321E+01 -0.13567146862E+02  0.14086553266E+02  0.10500000000E+00 0. -1.
</event>
<event>
11    0  0.3476221E-009  0.9118800E+02  0.7816531E-02  0.1126479E+00
         25   -1    0    0    0    0  0.00000000000E+00  0.00000000000E+00  0.99999998245E-14  0.12500000000E+03  0.12500000000E+03 0.  0.
    3000001    1    3    3    0    0 -0.80455082575E+01  0.59423663629E+01  0.69961887106E+01  0.12246982387E+02  0.10000000000E+01 0.  1.
    1000022    2    1    0    0    0 -0.45770604047E+02  0.37309743513E+02  0.17868539781E+02  0.62499999381E+02  0.10000002643E+02 0.  0.
    3000022    2    3    3    0    0 -0.37725095790E+02  0.31367377150E+02  0.10872351071E+02  0.50253016994E+02  0.24999517204E+00 0.  0.
    1000022    2    1    0    0    0  0.45770604047E+02 -0.37309743513E+02 -0.17868539781E+02  0.62500000619E+02  0.10000010381E+02 0.  0.
    3000022    2    5    5    0    0  0.39737687001E+00 -0.20662167565E+01  0.49402695090E+00  0.21757121467E+01  0.25000131020E+00 0.  0.
        -13    1    4    4    0    0 -0.12915558711E+02  0.10694770738E+02  0.36716104572E+01  0.17166290406E+02  0.10500000000E+00 0.  1.
         13    1    4    4    0    0 -0.24809537079E+02  0.20672606412E+02  0.72007406133E+01  0.33086726588E+02  0.10500000000E+00 0. -1.
    3000001    1    5    5    0    0  0.45373227177E+02 -0.35243526756E+02 -0.18362566732E+02  0.60324288472E+02  0.10000000000E+01 0. -1.
        -13    1    6    6    0    0  0.26183154320E+00 -0.14670087591E+01  0.38861246682E+00  0.15436045821E+01  0.10500000000E+00 0.  1.
         13    1    6    6    0    0  0.13554532681E+00 -0.59920799740E+00  0.10541448408E+00  0.63210756459E+00  0.10500000000E+00 0. -1.
</event>
<event>
11    0  0.3476221E-009  0.9118800E+02  0.7816531E-02  0.1126479E+00
         25   -1    0    0    0    0  0.00000000000E+00  0.00000000000E+00  0.99999998245E-14  0.12500000000E+03  0.12500000000E+03 0.  0.
    3000001    1    3    3    0    0 -0.91244871660E+00 -0.33166891174E+01  0.23450868626E+01  0.42816377422E+01  0.10000000000E+01 0. -1.
    1000022    2    1    0    0    0  0.14448919875E+02 -0.57588393305E+02  0.16764709660E+02  0.62499998557E+02  0.10000000030E+02 0.  0.
    3000022    2    3    3    0    0  0.15361368591E+02 -0.54271704187E+02  0.14419622797E+02  0.58218360814E+02  0.24998777875E+00 0.  0.
    1000022    2    1    0    0    0 -0.14448919875E+02  0.57588393305E+02 -0.16764709660E+02  0.62500001443E+02  0.10000018072E+02 0.  0.
    3000022    2    5    5    0    0 -0.65664519864E+01  0.43448393344E+02 -0.13341300226E+02  0.45923131080E+02  0.25000111516E+00 0.  0.
        -13    1    4    4    0    0  0.10262028610E+02 -0.36195484436E+02  0.96705228252E+01  0.38845236020E+02  0.10500000000E+00 0. -1.
         13    1    4    4    0    0  0.50993399819E+01 -0.18076219752E+02  0.47490999721E+01  0.19373124795E+02  0.10500000000E+00 0.  1.
    3000001    1    5    5    0    0 -0.78824678885E+01  0.14139999961E+02 -0.34234094339E+01  0.16576870364E+02  0.10000000000E+01 0. -1.
        -13    1    6    6    0    0 -0.45166386664E+01  0.29759712605E+02 -0.90908363050E+01  0.31443518392E+02  0.10500000000E+00 0.  1.
         13    1    6    6    0    0 -0.20498133200E+01  0.13688680739E+02 -0.42504639211E+01  0.14479612687E+02  0.10500000000E+00 0. -1.
</event>
<event>
11    0  0.3476221E-009  0.9118800E+02  0.7816531E-02  0.1126479E+00
         25   -1    0    0    0    0  0.00000000000E+00  0.00000000000E+00  0.99999998245E-14  0.12500000000E+03  0.12500000000E+03 0.  0.
    3000001    1    3    3    0    0 -0.81310881505E+01 -0.31902940926E+02  0.33957616761E+02  0.47307842588E+02  0.10000000000E+01 0. -1.
    1000022    2    1    0    0    0 -0.71795775131E+01 -0.38697685847E+02  0.47509927567E+02  0.62499997424E+02  0.99999618697E+01 0.  0.
    3000022    2    3    3    0    0  0.95151063740E+00 -0.67947449210E+01  0.13552310806E+02  0.15192154836E+02  0.25001868768E+00 0.  0.
    1000022    2    1    0    0    0  0.71795775131E+01  0.38697685847E+02 -0.47509927567E+02  0.62500002576E+02  0.99999940648E+01 0.  0.
    3000022    2    5    5    0    0  0.61079690829E+01  0.37189338777E+02 -0.41147891453E+02  0.55799334024E+02  0.25000317273E+00 0.  0.
        -13    1    4    4    0    0  0.64486205057E+00 -0.48636437583E+01  0.96411069734E+01  0.10818172043E+02  0.10500000000E+00 0. -1.
         13    1    4    4    0    0  0.30664858683E+00 -0.19311011627E+01  0.39112038326E+01  0.43739827934E+01  0.10500000000E+00 0.  1.
    3000001    1    5    5    0    0  0.10716084302E+01  0.15083470708E+01 -0.63620361142E+01  0.67006685511E+01  0.10000000000E+01 0. -1.
        -13    1    6    6    0    0  0.34071997420E+01  0.20939278589E+02 -0.23076492981E+02  0.31346418476E+02  0.10500000000E+00 0. -1.
         13    1    6    6    0    0  0.27007693409E+01  0.16250060187E+02 -0.18071398472E+02  0.24452915549E+02  0.10500000000E+00 0.  1.
</event>
<event>
11    0  0.3476221E-009  0.9118800E+02  0.7816531E-02  0.1126479E+00
         25   -1    0    0    0    0  0.00000000000E+00  0.00000000000E+00  0.99999998245E-14  0.12500000000E+03  0.12500000000E+03 0.  0.
    3000001    1    3    3    0    0 -0.16894153461E+02  0.30172227952E+00  0.11788947649E+01  0.16967417316E+02  0.10000000000E+01 0.  1.
    1000022    2    1    0    0    0 -0.58492019722E+02  0.12157959351E+02  0.15398623858E+02  0.62499999322E+02  0.99999975943E+01 0.  0.
    3000022    2    3    3    0    0 -0.41597866261E+02  0.11856237072E+02  0.14219729093E+02  0.45532582007E+02  0.24998757811E+00 0.  0.
    1000022    2    1    0    0    0  0.58492019722E+02 -0.12157959351E+02 -0.15398623858E+02  0.62500000678E+02  0.10000006064E+02 0.  0.
    3000022    2    5    5    0    0  0.54103974106E+02 -0.13135828285E+02 -0.15806059867E+02  0.57876454843E+02  0.24999590751E+00 0.  0.
        -13    1    4    4    0    0 -0.14593786801E+02  0.42049388766E+01  0.50309122976E+01  0.15999413355E+02  0.10500000000E+00 0. -1.
         13    1    4    4    0    0 -0.27004079460E+02  0.76512981951E+01  0.91888167950E+01  0.29533168652E+02  0.10500000000E+00 0.  1.
    3000001    1    5    5    0    0  0.43880456159E+01  0.97786893385E+00  0.40743600906E+00  0.46235458341E+01  0.10000000000E+01 0. -1.
        -13    1    6    6    0    0  0.14836828549E+02 -0.35826666182E+01 -0.42995323594E+01  0.15857615994E+02  0.10500000000E+00 0.  1.
         13    1    6    6    0    0  0.39267145557E+02 -0.95531616668E+01 -0.11506527507E+02  0.42018838850E+02  0.10500000000E+00 0. -1.
</event>
<event>
11    0  0.3476221E-009  0.9118800E+02  0.7816531E-02  0.1126479E+00
         25   -1    0    0    0    0  0.00000000000E+00  0.00000000000E+00  0.99999998245E-14  0.12500000000E+03  0.12500000000E+03 0.  0.
    3000001    1    3    3    0    0 -0.28399347117E+02  0.13347598267E+02  0.98693610528E+01  0.32910265628E+02  0.10000000000E+01 0.  1.
    1000022    2    1    0    0    0 -0.54787894068E+02  0.26726577398E+02  0.94987716245E+01  0.62499999169E+02  0.99999978990E+01 0.  0.
    3000022    2    3    3    0    0 -0.26388546951E+02  0.13378979131E+02 -0.37058942826E+00  0.29589733540E+02  0.25000340808E+00 0.  0.
    1000022    2    1    0    0    0  0.54787894068E+02 -0.26726577398E+02 -0.94987716245E+01  0.62500000831E+02  0.10000008288E+02 0.  0.
    3000022    2    5    5    0    0  0.18365228534E+02 -0.13487716391E+02 -0.60686036386E+01  0.23581572577E+02  0.25000509664E+00 0.  0.
        -13    1    4    4    0    0 -0.17044882557E+02  0.86334900962E+01 -0.18259051735E+00  0.19107839672E+02  0.10500000000E+00 0. -1.
         13    1    4    4    0    0 -0.93436643940E+01  0.47454890345E+01 -0.18799891091E+00  0.10481893869E+02  0.10500000000E+00 0.  1.
    3000001    1    5    5    0    0  0.36422665534E+02 -0.13238861007E+02 -0.34301679859E+01  0.38918428254E+02  0.10000000000E+01 0.  1.
        -13    1    6    6    0    0  0.56173692091E+01 -0.41836904284E+01 -0.18561957576E+01  0.72466951173E+01  0.10500000000E+00 0. -1.
         13    1    6    6    0    0  0.12747859325E+02 -0.93040259626E+01 -0.42124078811E+01  0.16334877460E+02  0.10500000000E+00 0.  1.
</event>
<event>
11    0  0.3476221E-009  0.9118800E+02  0.7816531E-02  0.1126479E+00
         25   -1    0    0    0    0  0.00000000000E+00  0.00000000000E+00  0.99999998245E-14  0.12500000000E+03  0.12500000000E+03 0.  0.
    3000001    1    3    3    0    0  0.67101984808E+01  0.39332550653E+01  0.22524475568E+02  0.23850560972E+02  0.10000000000E+01 0. -1.
    1000022    2    1    0    0    0  0.80987138665E+01  0.23510933379E+01  0.61115735349E+02  0.62499998735E+02  0.99999964286E+01 0.  0.
    3000022    2    3    3    0    0  0.13885153857E+01 -0.15821617274E+01  0.38591259780E+02  0.38649437764E+02  0.24999457668E+00 0.  0.
    1000022    2    1    0    0    0 -0.80987138665E+01 -0.23510933379E+01 -0.61115735349E+02  0.62500001265E+02  0.10000012235E+02 0.  0.
    3000022    2    5    5    0    0 -0.19521261765E+01 -0.15968440834E+01 -0.46820036401E+02  0.46888581067E+02  0.25003659686E+00 0.  0.
        -13    1    4    4    0    0  0.56644215670E+00 -0.73849100020E+00  0.16603412360E+02  0.16629809159E+02  0.10500000000E+00 0. -1.
         13    1    4    4    0    0  0.82207322900E+00 -0.84367072721E+00  0.21987847421E+02  0.22019628605E+02  0.10500000000E+00 0.  1.
    3000001    1    5    5    0    0 -0.61465876900E+01 -0.75424925441E+00 -0.14295698948E+02  0.15611420197E+02  0.10000000000E+01 0.  1.
        -13    1    6    6    0    0 -0.63384457108E+00 -0.46434361989E+00 -0.15119637404E+02  0.15140404029E+02  0.10500000000E+00 0. -1.
         13    1    6    6    0    0 -0.13182816054E+01 -0.11325004636E+01 -0.31700398997E+02  0.31748177038E+02  0.10500000000E+00 0.  1.
</event>
<event>
11    0  0.3476221E-009  0.9118800E+02  0.7816531E-02  0.1126479E+00
         25   -1    0    0    0    0  0.00000000000E+00  0.00000000000E+00  0.99999998245E-14  0.12500000000E+03  0.12500000000E+03 0.  0.
    3000001    1    3    3    0    0  0.95860438028E+01 -0.11703535880E+02  0.57929259666E+01  0.16230310506E+02  0.10000000000E+01 0.  1.
    1000022    2    1    0    0    0  0.45800339547E+02 -0.31743995345E+02  0.26474476651E+02  0.62500001179E+02  0.99999945168E+01 0.  0.
    3000022    2    3    3    0    0  0.36214295744E+02 -0.20040459465E+02  0.20681550684E+02  0.46269690672E+02  0.25000878502E+00 0.  0.
    1000022    2    1    0    0    0 -0.45800339547E+02  0.31743995345E+02 -0.26474476651E+02  0.62499998821E+02  0.99999797813E+01 0.  0.
    3000022    2    5    5    0    0 -0.28634158372E+02  0.22682938188E+02 -0.12691871997E+02  0.38672688357E+02  0.24999884098E+00 0.  0.
        -13    1    4    4    0    0  0.13435642117E+02 -0.74574703362E+01  0.76153904883E+01  0.17150380177E+02  0.10500000000E+00 0.  1.
         13    1    4    4    0    0  0.22778653627E+02 -0.12582989129E+02  0.13066160196E+02  0.29119310496E+02  0.10500000000E+00 0. -1.
    3000001    1    5    5    0    0 -0.17166181175E+02  0.90610571569E+01 -0.13782604654E+02  0.23827310464E+02  0.10000000000E+01 0.  1.
        -13    1    6    6    0    0 -0.14599503746E+02  0.11649692705E+02 -0.64741844232E+01  0.19768331712E+02  0.10500000000E+00 0.  1.
         13    1    6    6    0    0 -0.14034654626E+02  0.11033245484E+02 -0.62176875739E+01  0.18904356645E+02  0.10500000000E+00 0. -1.
</event>
<event>
11    0  0.3476221E-009  0.9118800E+02  0.7816531E-02  0.1126479E+00
         25   -1    0    0    0    0  0.00000000000E+00  0.00000000000E+00  0.99999998245E-14  0.12500000000E+03  0.12500000000E+03 0.  0.
    3000001    1    3    3    0    0 -0.58177720059E+01 -0.29500173566E+02  0.32168606131E+02  0.44044590269E+02  0.10000000000E+01 0. -1.
    1000022    2    1    0    0    0 -0.10970301283E+02 -0.36711339941E+02  0.48354722527E+02  0.62500005229E+02  0.10000073623E+02 0.  0.
    3000022    2    3    3    0    0 -0.51525292773E+01 -0.72111663747E+01  0.16186116396E+02  0.18455414960E+02  0.24999784889E+00 0.  0.
    1000022    2    1    0    0    0  0.10970301283E+02  0.36711339941E+02 -0.48354722527E+02  0.62499994771E+02  0.10000008256E+02 0.  0.
    3000022    2    5    5    0    0  0.11983215981E+02  0.35599834210E+02 -0.47326335790E+02  0.60421769456E+02  0.25000776150E+00 0.  0.
        -13    1    4    4    0    0 -0.23970540781E+01 -0.34288329470E+01  0.75324030096E+01  0.86168952489E+01  0.10500000000E+00 0.  1.
         13    1    4    4    0    0 -0.27554751992E+01 -0.37823334277E+01  0.86537133867E+01  0.98385197113E+01  0.10500000000E+00 0. -1.
    3000001    1    5    5    0    0 -0.10129146982E+01  0.11115057307E+01 -0.10283867377E+01  0.20782253144E+01  0.10000000000E+01 0.  1.
        -13    1    6    6    0    0  0.62655723140E+01  0.18486665575E+02 -0.24680382502E+02  0.31466593491E+02  0.10500000000E+00 0. -1.
         13    1    6    6    0    0  0.57176436673E+01  0.17113168635E+02 -0.22645953288E+02  0.28955175965E+02  0.10500000000E+00 0.  1.
</event>
<event>
11    0  0.3476221E-009  0.9118800E+02  0.7816531E-02  0.1126479E+00
         25   -1    0    0    0    0  0.00000000000E+00  0.00000000000E+00  0.99999998245E-14  0.12500000000E+03  0.12500000000E+03 0.  0.
    3000001    1    3    3    0    0 -0.71197236158E+01 -0.75960004881E+01  0.26556081456E+02  0.28541463699E+02  0.10000000000E+01 0. -1.
    1000022    2    1    0    0    0 -0.11576016737E+02 -0.26033309265E+02  0.54722138673E+02  0.62499999904E+02  0.10000008610E+02 0.  0.
    3000022    2    3    3    0    0 -0.44562931208E+01 -0.18437308777E+02  0.28166057217E+02  0.33958536205E+02  0.24999735618E+00 0.  0.
    1000022    2    1    0    0    0  0.11576016737E+02  0.26033309265E+02 -0.54722138673E+02  0.62500000096E+02  0.10000009816E+02 0.  0.
    3000022    2    5    5    0    0  0.14700821079E+01  0.22572737091E+00 -0.48639001395E+00  0.15846684420E+01  0.25000915102E+00 0.  0.
        -13    1    4    4    0    0 -0.25947523226E+01 -0.10807598149E+02  0.16614980994E+02  0.19990135963E+02  0.10500000000E+00 0. -1.
         13    1    4    4    0    0 -0.18615407981E+01 -0.76297106277E+01  0.11551076223E+02  0.13968400242E+02  0.10500000000E+00 0.  1.
    3000001    1    5    5    0    0  0.10105934629E+02  0.25807581894E+02 -0.54235748659E+02  0.60915331654E+02  0.10000000000E+01 0. -1.
        -13    1    6    6    0    0  0.67114624204E+00  0.16911887282E+00 -0.24260270854E+00  0.74089104836E+00  0.10500000000E+00 0.  1.
         13    1    6    6    0    0  0.79893586585E+00  0.56608498085E-01 -0.24378730541E+00  0.84377739367E+00  0.10500000000E+00 0. -1.
</event>
<event>
11    0  0.3476221E-009  0.9118800E+02  0.7816531E-02  0.1126479E+00
         25   -1    0    0    0    0  0.00000000000E+00  0.00000000000E+00  0.99999998245E-14  0.12500000000E+03  0.12500000000E+03 0.  0.
    3000001    1    3    3    0    0 -0.31010886093E+02  0.13425726762E+02  0.19607574625E+02  0.39081737142E+02  0.10000000000E+01 0. -1.
    1000022    2    1    0    0    0 -0.46986885857E+02  0.28079941221E+02  0.28460486664E+02  0.62500001575E+02  0.10000017707E+02 0.  0.
    3000022    2    3    3    0    0 -0.15975999764E+02  0.14654214460E+02  0.88529120389E+01  0.23418264433E+02  0.24997515934E+00 0.  0.
    1000022    2    1    0    0    0  0.46986885857E+02 -0.28079941221E+02 -0.28460486664E+02  0.62499998425E+02  0.99999980244E+01 0.  0.
    3000022    2    5    5    0    0  0.10982036718E+02 -0.72132698138E+01 -0.23157346781E+01  0.13343969359E+02  0.24999855359E+00 0.  0.
        -13    1    4    4    0    0 -0.83685358299E+01  0.75845345130E+01  0.46154740858E+01  0.12201277874E+02  0.10500000000E+00 0. -1.
         13    1    4    4    0    0 -0.76074639340E+01  0.70696799466E+01  0.42374379531E+01  0.11216986559E+02  0.10500000000E+00 0.  1.
    3000001    1    5    5    0    0  0.36004849139E+02 -0.20866671408E+02 -0.26144751986E+02  0.49156029066E+02  0.10000000000E+01 0. -1.
        -13    1    6    6    0    0  0.71832836333E+01 -0.46582699498E+01 -0.14827268189E+01  0.86895653805E+01  0.10500000000E+00 0. -1.
         13    1    6    6    0    0  0.37987530844E+01 -0.25549998641E+01 -0.83300785912E+00  0.46544039785E+01  0.10500000000E+00 0.  1.
</event>
<event>
11    0  0.3476221E-009  0.9118800E+02  0.7816531E-02  0.1126479E+00
         25   -1    0    0    0    0  0.00000000000E+00  0.00000000000E+00  0.99999998245E-14  0.12500000000E+03  0.12500000000E+03 0.  0.
    3000001    1    3    3    0    0 -0.78110216457E+00  0.35140987525E+02  0.84176115777E+00  0.35173963192E+02  0.10000000000E+01 0. -1.
    1000022    2    1    0    0    0  0.66658059140E+01  0.61160231973E+02  0.46090235253E+01  0.62500000095E+02  0.99999985291E+01 0.  0.
    3000022    2    3    3    0    0  0.74469080785E+01  0.26019244448E+02  0.37672623676E+01  0.27326036903E+02  0.25001097951E+00 0.  0.
    1000022    2    1    0    0    0 -0.66658059140E+01 -0.61160231973E+02 -0.46090235253E+01  0.62499999905E+02  0.99999973415E+01 0.  0.
    3000022    2    5    5    0    0  0.18757721990E+01 -0.19357130396E+02 -0.37804730050E+01  0.19813417071E+02  0.25000274202E+00 0.  0.
        -13    1    4    4    0    0  0.51069937051E+01  0.17907801727E+02  0.26381025977E+01  0.18808013125E+02  0.10500000000E+00 0. -1.
         13    1    4    4    0    0  0.23399143735E+01  0.81114427206E+01  0.11291597699E+01  0.85180237773E+01  0.10500000000E+00 0.  1.
    3000001    1    5    5    0    0 -0.85415781130E+01 -0.41803101576E+02 -0.82855052036E+00  0.42686582834E+02  0.10000000000E+01 0. -1.
        -13    1    6    6    0    0  0.57886279489E+00 -0.64911877224E+01 -0.12463054967E+01  0.66358799397E+01  0.10500000000E+00 0. -1.
         13    1    6    6    0    0  0.12969094042E+01 -0.12865942674E+02 -0.25341675083E+01  0.13177537132E+02  0.10500000000E+00 0.  1.
</event>
<event>
11    0  0.3476221E-009  0.9118800E+02  0.7816531E-02  0.1126479E+00
         25   -1    0    0    0    0  0.00000000000E+00  0.00000000000E+00  0.99999998245E-14  0.12500000000E+03  0.12500000000E+03 0.  0.
    3000001    1    3    3    0    0  0.20467324557E+01  0.33380425158E+01 -0.46662301886E+02  0.46836973204E+02  0.10000000000E+01 0. -1.
    1000022    2    1    0    0    0 -0.26468261702E+01  0.25774985303E+01 -0.61584096909E+02  0.62499999325E+02  0.99999868051E+01 0.  0.
    3000022    2    3    3    0    0 -0.46935586259E+01 -0.76054398545E+00 -0.14921795023E+02  0.15663026121E+02  0.25000169158E+00 0.  0.
    1000022    2    1    0    0    0  0.26468261702E+01 -0.25774985303E+01  0.61584096909E+02  0.62500000675E+02  0.99999952411E+01 0.  0.
    3000022    2    5    5    0    0  0.61187426865E+00 -0.17883079573E+00  0.56065203140E+02  0.56069384486E+02  0.25000574588E+00 0.  0.
        -13    1    4    4    0    0 -0.23891907801E+01 -0.43580516823E+00 -0.77769974874E+01  0.81480595019E+01  0.10500000000E+00 0. -1.
         13    1    4    4    0    0 -0.23043678457E+01 -0.32473881722E+00 -0.71447975354E+01  0.75149666194E+01  0.10500000000E+00 0.  1.
    3000001    1    5    5    0    0  0.20349519015E+01 -0.23986677346E+01  0.55188937687E+01  0.64306161892E+01  0.10000000000E+01 0.  1.
        -13    1    6    6    0    0  0.28343150487E+00 -0.14568979450E+00  0.25056604199E+02  0.25058850690E+02  0.10500000000E+00 0.  1.
         13    1    6    6    0    0  0.32844276378E+00 -0.33141001230E-01  0.31008598941E+02  0.31010533795E+02  0.10500000000E+00 0. -1.
</event>
<event>
11    0  0.3476221E-009  0.9118800E+02  0.7816531E-02  0.1126479E+00
         25   -1    0    0    0    0  0.00000000000E+00  0.00000000000E+00  0.99999998245E-14  0.12500000000E+03  0.12500000000E+03 0.  0.
    3000001    1    3    3    0    0 -0.26202647901E+02 -0.42599213877E+01 -0.45901386302E+01  0.26959136854E+02  0.10000000000E+01 0. -1.
    1000022    2    1    0    0    0 -0.57593966726E+02 -0.67246661643E+01 -0.21070449160E+02  0.62500000625E+02  0.10000005600E+02 0.  0.
    3000022    2    3    3    0    0 -0.31391318825E+02 -0.24647447767E+01 -0.16480310530E+02  0.35540863771E+02  0.24999605245E+00 0.  0.
    1000022    2    1    0    0    0  0.57593966726E+02  0.67246661643E+01  0.21070449160E+02  0.62499999375E+02  0.99999977913E+01 0.  0.
    3000022    2    5    5    0    0  0.37517132922E+01 -0.36843186526E+00 -0.93991433416E+00  0.38932045845E+01  0.25001662858E+00 0.  0.
        -13    1    4    4    0    0 -0.13663592589E+02 -0.11388654994E+01 -0.71783066577E+01  0.15476753165E+02  0.10500000000E+00 0. -1.
         13    1    4    4    0    0 -0.17727726236E+02 -0.13258792773E+01 -0.93020038724E+01  0.20064110606E+02  0.10500000000E+00 0.  1.
    3000001    1    5    5    0    0  0.53842253434E+02  0.70930980296E+01  0.22010363494E+02  0.58606794791E+02  0.10000000000E+01 0. -1.
        -13    1    6    6    0    0  0.18014464123E+01 -0.24488374777E+00 -0.45541076319E+00  0.18771257788E+01  0.10500000000E+00 0.  1.
         13    1    6    6    0    0  0.19502668799E+01 -0.12354811749E+00 -0.48450357097E+00  0.20160788057E+01  0.10500000000E+00 0. -1.
</event>
<event>
11    0  0.3476221E-009  0.9118800E+02  0.7816531E-02  0.1126479E+00
         25   -1    0    0    0    0  0.00000000000E+00  0.00000000000E+00  0.99999998245E-14  0.12500000000E+03  0.12500000000E+03 0.  0.
    3000001    1    3    3    0    0 -0.90019866977E+01 -0.59808470090E+01  0.87946498666E+01  0.13969687245E+02  0.10000000000E+01 0.  1.
    1000022    2    1    0    0    0 -0.51463169610E+02 -0.22319005111E+02  0.25683735569E+02  0.62499999214E+02  0.99999906754E+01 0.  0.
    3000022    2    3    3    0    0 -0.42461182912E+02 -0.16338158102E+02  0.16889085702E+02  0.48530311969E+02  0.24999889009E+00 0.  0.
    1000022    2    1    0    0    0  0.51463169610E+02  0.22319005111E+02 -0.25683735569E+02  0.62500000786E+02  0.10000000505E+02 0.  0.
    3000022    2    5    5    0    0  0.17359516900E+01  0.14011819169E+01 -0.35058305453E+01  0.41629542340E+01  0.25000221576E+00 0.  0.
        -13    1    4    4    0    0 -0.18727307302E+02 -0.72254571172E+01  0.73836148245E+01  0.21388035492E+02  0.10500000000E+00 0. -1.
         13    1    4    4    0    0 -0.23733875610E+02 -0.91127009845E+01  0.95054708777E+01  0.27142276476E+02  0.10500000000E+00 0.  1.
    3000001    1    5    5    0    0  0.49727217920E+02  0.20917823194E+02 -0.22177905024E+02  0.58337046552E+02  0.10000000000E+01 0. -1.
        -13    1    6    6    0    0  0.54956149206E+00  0.38451917903E+00 -0.10680764083E+01  0.12655769619E+01  0.10500000000E+00 0.  1.
         13    1    6    6    0    0  0.11863901980E+01  0.10166627379E+01 -0.24377541370E+01  0.28973772721E+01  0.10500000000E+00 0. -1.
</event>
<event>
11    0  0.3476221E-009  0.9118800E+02  0.7816531E-02  0.1126479E+00
         25   -1    0    0    0    0  0.00000000000E+00  0.00000000000E+00  0.99999998245E-14  0.12500000000E+03  0.12500000000E+03 0.  0.
    3000001    1    3    3    0    0 -0.38417782850E+02  0.20403426848E+02 -0.11168496646E+02  0.44921722847E+02  0.10000000000E+01 0.  1.
    1000022    2    1    0    0    0 -0.55500746450E+02  0.22594929011E+02 -0.14676052446E+02  0.62499998456E+02  0.99999809010E+01 0.  0.
    3000022    2    3    3    0    0 -0.17082963601E+02  0.21915021625E+01 -0.35075558000E+01  0.17578275608E+02  0.24999713061E+00 0.  0.
    1000022    2    1    0    0    0  0.55500746450E+02 -0.22594929011E+02  0.14676052446E+02  0.62500001544E+02  0.10000000206E+02 0.  0.
    3000022    2    5    5    0    0  0.50633436895E+02 -0.18068960189E+02  0.14856178495E+02  0.55776346179E+02  0.24999897491E+00 0.  0.
        -13    1    4    4    0    0 -0.12237728799E+02  0.15464231470E+01 -0.24775512341E+01  0.12581840717E+02  0.10500000000E+00 0.  1.
         13    1    4    4    0    0 -0.48452348015E+01  0.64507901545E+00 -0.10300045659E+01  0.49964348914E+01  0.10500000000E+00 0. -1.
    3000001    1    5    5    0    0  0.48673095554E+01 -0.45259688215E+01 -0.18012604900E+00  0.67236553655E+01  0.10000000000E+01 0. -1.
        -13    1    6    6    0    0  0.36612940941E+02 -0.13050557066E+02  0.10778268870E+02  0.40336169736E+02  0.10500000000E+00 0. -1.
         13    1    6    6    0    0  0.14020495954E+02 -0.50184031228E+01  0.40779096253E+01  0.15440176443E+02  0.10500000000E+00 0.  1.
</event>
<event>
11    0  0.3476221E-009  0.9118800E+02  0.7816531E-02  0.1126479E+00
         25   -1    0    0    0    0  0.00000000000E+00  0.00000000000E+00  0.99999998245E-14  0.12500000000E+03  0.12500000000E+03 0.  0.
    3000001    1    3    3    0    0  0.57692324336E+01  0.70465039493E+01 -0.17551079924E+02  0.19798425879E+02  0.10000000000E+01 0.  1.
    1000022    2    1    0    0    0  0.29821326375E+02  0.14318377389E+02 -0.52076122606E+02  0.62500000112E+02  0.10000001532E+02 0.  0.
    3000022    2    3    3    0    0  0.24052093941E+02  0.72718734393E+01 -0.34525042681E+02  0.42701574233E+02  0.25000718686E+00 0.  0.
    1000022    2    1    0    0    0 -0.29821326375E+02 -0.14318377389E+02  0.52076122606E+02  0.62499999888E+02  0.10000000126E+02 0.  0.
    3000022    2    5    5    0    0 -0.65186054951E+00 -0.16586739375E+01  0.76415478758E+01  0.78505967854E+01  0.24998908254E+00 0.  0.
        -13    1    4    4    0    0  0.72773224525E+01  0.21593754601E+01 -0.10472988803E+02  0.12935101234E+02  0.10500000000E+00 0.  1.
         13    1    4    4    0    0  0.16774771489E+02  0.51124979792E+01 -0.24052053878E+02  0.29766473000E+02  0.10500000000E+00 0. -1.
    3000001    1    5    5    0    0 -0.29169465825E+02 -0.12659703451E+02  0.44434574730E+02  0.54649403102E+02  0.10000000000E+01 0. -1.
        -13    1    6    6    0    0 -0.22939249427E+00 -0.62520538225E+00  0.31273327148E+01  0.31991776436E+01  0.10500000000E+00 0. -1.
         13    1    6    6    0    0 -0.42246805524E+00 -0.10334685552E+01  0.45142151610E+01  0.46514191418E+01  0.10500000000E+00 0.  1.
</event>
<event>
11    0  0.3476221E-009  0.9118800E+02  0.7816531E-02  0.1126479E+00
         25   -1    0    0    0    0  0.00000000000E+00  0.00000000000E+00  0.99999998245E-14  0.12500000000E+03  0.12500000000E+03 0.  0.
    3000001    1    3    3    0    0 -0.21710857006E+02 -0.94822539940E+01  0.72265717172E+01  0.24789065967E+02  0.10000000000E+01 0.  1.
    1000022    2    1    0    0    0 -0.50126373431E+02 -0.33679732192E+02  0.12620316583E+02  0.62499999473E+02  0.99999934789E+01 0.  0.
    3000022    2    3    3    0    0 -0.28415516425E+02 -0.24197478198E+02  0.53937448657E+01  0.37710933506E+02  0.24999469048E+00 0.  0.
    1000022    2    1    0    0    0  0.50126373431E+02  0.33679732192E+02 -0.12620316583E+02  0.62500000527E+02  0.10000000066E+02 0.  0.
    3000022    2    5    5    0    0  0.42898289407E+02  0.27137184387E+02 -0.71117779401E+01  0.51257486199E+02  0.24999087173E+00 0.  0.
        -13    1    4    4    0    0 -0.15787953986E+02 -0.13530970729E+02  0.30119250493E+01  0.21010220785E+02  0.10500000000E+00 0.  1.
         13    1    4    4    0    0 -0.12627562440E+02 -0.10666507469E+02  0.23818198164E+01  0.16700712721E+02  0.10500000000E+00 0. -1.
    3000001    1    5    5    0    0  0.72280840241E+01  0.65425478052E+01 -0.55085386428E+01  0.11242514328E+02  0.10000000000E+01 0. -1.
        -13    1    6    6    0    0  0.27117810960E+02  0.17166280723E+02 -0.44375663091E+01  0.32399998223E+02  0.10500000000E+00 0.  1.
         13    1    6    6    0    0  0.15780478447E+02  0.99709036645E+01 -0.26742116310E+01  0.18857487975E+02  0.10500000000E+00 0. -1.
</event>
<event>
11    0  0.3476221E-009  0.9118800E+02  0.7816531E-02  0.1126479E+00
         25   -1    0    0    0    0  0.00000000000E+00  0.00000000000E+00  0.99999998245E-14  0.12500000000E+03  0.12500000000E+03 0.  0.
    3000001    1    3    3    0    0  0.89928846004E+01 -0.77412004946E+00  0.10709188179E+02  0.14041294340E+02  0.10000000000E+01 0. -1.
    1000022    2    1    0    0    0  0.41228391447E+02  0.14212451868E+02  0.43640302045E+02  0.62499998285E+02  0.99999886797E+01 0.  0.
    3000022    2    3    3    0    0  0.32235506847E+02  0.14986571918E+02  0.32931113866E+02  0.48458703945E+02  0.24997609973E+00 0.  0.
    1000022    2    1    0    0    0 -0.41228391447E+02 -0.14212451868E+02 -0.43640302045E+02  0.62500001715E+02  0.10000010118E+02 0.  0.
    3000022    2    5    5    0    0 -0.34016688107E+02 -0.75011490589E+01 -0.33617314339E+02  0.48410625113E+02  0.24998706114E+00 0.  0.
        -13    1    4    4    0    0  0.98922422310E+01  0.45525685412E+01  0.10117792132E+02  0.14864826918E+02  0.10500000000E+00 0. -1.
         13    1    4    4    0    0  0.22343264616E+02  0.10434003377E+02  0.22813321734E+02  0.33593877027E+02  0.10500000000E+00 0.  1.
    3000001    1    5    5    0    0 -0.72117033403E+01 -0.67113028095E+01 -0.10022987706E+02  0.14089376602E+02  0.10000000000E+01 0. -1.
        -13    1    6    6    0    0 -0.14791330189E+02 -0.33006883261E+01 -0.14551247279E+02  0.21010183592E+02  0.10500000000E+00 0. -1.
         13    1    6    6    0    0 -0.19225357918E+02 -0.42004607328E+01 -0.19066067061E+02  0.27400441522E+02  0.10500000000E+00 0.  1.
</event>
<event>
11    0  0.3476221E-009  0.9118800E+02  0.7816531E-02  0.1126479E+00
         25   -1    0    0    0    0  0.00000000000E+00  0.00000000000E+00  0.99999998245E-14  0.12500000000E+03  0.12500000000E+03 0.  0.
    3000001    1    3    3    0    0 -0.38344258664E+02  0.10322158033E+02  0.20972909938E+02  0.44918727389E+02  0.10000000000E+01 0. -1.
    1000022    2    1    0    0    0 -0.54669670494E+02  0.16352586957E+02  0.23453561199E+02  0.62500003866E+02  0.10000048907E+02 0.  0.
    3000022    2    3    3    0    0 -0.16325411830E+02  0.60304289242E+01  0.24806512611E+01  0.17581276477E+02  0.25001488504E+00 0.  0.
    1000022    2    1    0    0    0  0.54669670494E+02 -0.16352586957E+02 -0.23453561199E+02  0.62499996134E+02  0.10000000585E+02 0.  0.
    3000022    2    5    5    0    0  0.30036954171E+02 -0.86454223398E+01 -0.75133383473E+01  0.32147701254E+02  0.24999902725E+00 0.  0.
        -13    1    4    4    0    0 -0.88871160516E+01  0.32303922560E+01  0.13018611896E+01  0.95457913972E+01  0.10500000000E+00 0. -1.
         13    1    4    4    0    0 -0.74382957784E+01  0.28000366682E+01  0.11787900715E+01  0.80354850795E+01  0.10500000000E+00 0.  1.
    3000001    1    5    5    0    0  0.24632716323E+02 -0.77071646172E+01 -0.15940222852E+02  0.30352294880E+02  0.10000000000E+01 0.  1.
        -13    1    6    6    0    0  0.10906582189E+02 -0.31919198242E+01 -0.27013701023E+01  0.11681194830E+02  0.10500000000E+00 0.  1.
         13    1    6    6    0    0  0.19130371981E+02 -0.54535025156E+01 -0.48119682451E+01  0.20466506425E+02  0.10500000000E+00 0. -1.
</event>
<event>
11    0  0.3476221E-009  0.9118800E+02  0.7816531E-02  0.1126479E+00
         25   -1    0    0    0    0  0.00000000000E+00  0.00000000000E+00  0.99999998245E-14  0.12500000000E+03  0.12500000000E+03 0.  0.
    3000001    1    3    3    0    0  0.31491907625E+02 -0.62061762710E+01  0.19282916574E+02  0.37457812821E+02  0.10000000000E+01 0. -1.
    1000022    2    1    0    0    0  0.54623742699E+02 -0.13798467699E+02  0.25141581011E+02  0.62499999630E+02  0.99999940408E+01 0.  0.
    3000022    2    3    3    0    0  0.23131835074E+02 -0.75922914275E+01  0.58586644371E+01  0.25042186809E+02  0.24997637799E+00 0.  0.
    1000022    2    1    0    0    0 -0.54623742699E+02  0.13798467699E+02 -0.25141581011E+02  0.62500000370E+02  0.99999986614E+01 0.  0.
    3000022    2    5    5    0    0 -0.24032381901E+02  0.87976790181E+01 -0.15935590271E+02  0.30148964708E+02  0.24999946831E+00 0.  0.
        -13    1    4    4    0    0  0.12009111507E+02 -0.39429896952E+01  0.31112221584E+01  0.13017551815E+02  0.10500000000E+00 0. -1.
         13    1    4    4    0    0  0.11122723567E+02 -0.36493017323E+01  0.27474422787E+01  0.12024634994E+02  0.10500000000E+00 0.  1.
    3000001    1    5    5    0    0 -0.30591360798E+02  0.50007886804E+01 -0.92059907402E+01  0.32351035662E+02  0.10000000000E+01 0. -1.
        -13    1    6    6    0    0 -0.11980120517E+02  0.43312071177E+01 -0.79847445524E+01  0.15034953052E+02  0.10500000000E+00 0. -1.
         13    1    6    6    0    0 -0.12052261384E+02  0.44664719005E+01 -0.79508457182E+01  0.15114011656E+02  0.10500000000E+00 0.  1.
</event>
<event>
11    0  0.3476221E-009  0.9118800E+02  0.7816531E-02  0.1126479E+00
         25   -1    0    0    0    0  0.00000000000E+00  0.00000000000E+00  0.99999998245E-14  0.12500000000E+03  0.12500000000E+03 0.  0.
    3000001    1    3    3    0    0  0.19077113201E+01  0.47233574622E+00  0.48865939433E+00  0.22585950371E+01  0.10000000000E+01 0.  1.
    1000022    2    1    0    0    0  0.28688226654E+02  0.46501992192E+02  0.28649614399E+02  0.62500002366E+02  0.10000013207E+02 0.  0.
    3000022    2    3    3    0    0  0.26780515334E+02  0.46029656446E+02  0.28160955005E+02  0.60241407329E+02  0.24999221996E+00 0.  0.
    1000022    2    1    0    0    0 -0.28688226654E+02 -0.46501992192E+02 -0.28649614399E+02  0.62499997634E+02  0.99999836338E+01 0.  0.
    3000022    2    5    5    0    0 -0.79124517205E+01 -0.15528755163E+02 -0.43154403633E+01  0.17956465420E+02  0.24999138606E+00 0.  0.
        -13    1    4    4    0    0  0.65438817055E+01  0.11244048645E+02  0.68542525623E+01  0.14705197071E+02  0.10500000000E+00 0. -1.
         13    1    4    4    0    0  0.20236633628E+02  0.34785607801E+02  0.21306702443E+02  0.45536210258E+02  0.10500000000E+00 0.  1.
    3000001    1    5    5    0    0 -0.20775774934E+02 -0.30973237029E+02 -0.24334174036E+02  0.44543532214E+02  0.10000000000E+01 0. -1.
        -13    1    6    6    0    0 -0.57622928382E+01 -0.11385557558E+02 -0.31548407004E+01  0.13145302755E+02  0.10500000000E+00 0. -1.
         13    1    6    6    0    0 -0.21501588823E+01 -0.41431976050E+01 -0.11605996629E+01  0.48111626652E+01  0.10500000000E+00 0.  1.
</event>
<event>
11    0  0.3476221E-009  0.9118800E+02  0.7816531E-02  0.1126479E+00
         25   -1    0    0    0    0  0.00000000000E+00  0.00000000000E+00  0.99999998245E-14  0.12500000000E+03  0.12500000000E+03 0.  0.
    3000001    1    3    3    0    0 -0.25002341667E+02 -0.30517538664E+02  0.11358085582E+02  0.41066328823E+02  0.10000000000E+01 0. -1.
    1000022    2    1    0    0    0 -0.36336640448E+02 -0.48695777372E+02  0.10706072563E+02  0.62500001239E+02  0.99999996152E+01 0.  0.
    3000022    2    3    3    0    0 -0.11334298781E+02 -0.18178238708E+02 -0.65201301889E+00  0.21433672416E+02  0.25000176490E+00 0.  0.
    1000022    2    1    0    0    0  0.36336640448E+02  0.48695777372E+02 -0.10706072563E+02  0.62499998761E+02  0.99999841266E+01 0.  0.
    3000022    2    5    5    0    0  0.10499715375E+02  0.75126025849E+01 -0.31210373934E+01  0.13284824868E+02  0.24995364576E+00 0.  0.
        -13    1    4    4    0    0 -0.61562555264E+01 -0.98229314474E+01 -0.29134677227E+00  0.11596782841E+02  0.10500000000E+00 0. -1.
         13    1    4    4    0    0 -0.51780432546E+01 -0.83553072607E+01 -0.36066624662E+00  0.98368895749E+01  0.10500000000E+00 0.  1.
    3000001    1    5    5    0    0  0.25836925073E+02  0.41183174787E+02 -0.75850351700E+01  0.49215173892E+02  0.10000000000E+01 0.  1.
        -13    1    6    6    0    0  0.67063786662E+01  0.48051540051E+01 -0.20538614113E+01  0.85026108651E+01  0.10500000000E+00 0.  1.
         13    1    6    6    0    0  0.37933367085E+01  0.27074485798E+01 -0.10671759821E+01  0.47822140033E+01  0.10500000000E+00 0. -1.
</event>
<event>
11    0  0.3476221E-009  0.9118800E+02  0.7816531E-02  0.1126479E+00
         25   -1    0    0    0    0  0.00000000000E+00  0.00000000000E+00  0.99999998245E-14  0.12500000000E+03  0.12500000000E+03 0.  0.
    3000001    1    3    3    0    0 -0.48054927214E+01 -0.22536707032E+01  0.35098464301E+00  0.54124839171E+01  0.10000000000E+01 0.  1.
    1000022    2    1    0    0    0 -0.61408411970E+02  0.39266994351E+01  0.44539823463E+01  0.62500000277E+02  0.10000002336E+02 0.  0.
    3000022    2    3    3    0    0 -0.56602919249E+02  0.61803701382E+01  0.41029977033E+01  0.57087516360E+02  0.24998290071E+00 0.  0.
    1000022    2    1    0    0    0  0.61408411970E+02 -0.39266994351E+01 -0.44539823463E+01  0.62499999723E+02  0.99999988733E+01 0.  0.
    3000022    2    5    5    0    0  0.20853418218E+02 -0.47264599438E+01  0.17411755399E+01  0.21454572251E+02  0.25000648040E+00 0.  0.
        -13    1    4    4    0    0 -0.20680612802E+02  0.23167603542E+01  0.15075739812E+01  0.20864777227E+02  0.10500000000E+00 0.  1.
         13    1    4    4    0    0 -0.35922306447E+02  0.38636097840E+01  0.25954237221E+01  0.36222739133E+02  0.10500000000E+00 0. -1.
    3000001    1    5    5    0    0  0.40554993752E+02  0.79976050868E+00 -0.61951578862E+01  0.41045427472E+02  0.10000000000E+01 0. -1.
        -13    1    6    6    0    0  0.12713917065E+02 -0.28216138589E+01  0.10812987753E+01  0.13068489735E+02  0.10500000000E+00 0. -1.
         13    1    6    6    0    0  0.81395011527E+01 -0.19048460849E+01  0.65987676461E+00  0.83860825161E+01  0.10500000000E+00 0.  1.
</event>
<event>
11    0  0.3476221E-009  0.9118800E+02  0.7816531E-02  0.1126479E+00
         25   -1    0    0    0    0  0.00000000000E+00  0.00000000000E+00  0.99999998245E-14  0.12500000000E+03  0.12500000000E+03 0.  0.
    3000001    1    3    3    0    0 -0.41380917679E+02  0.29502763661E+02 -0.29439571397E+02  0.58740801626E+02  0.10000000000E+01 0. -1.
    1000022    2    1    0    0    0 -0.43862616755E+02  0.32279019620E+02 -0.28989407519E+02  0.62500000368E+02  0.10000002075E+02 0.  0.
    3000022    2    3    3    0    0 -0.24816990755E+01  0.27762559586E+01  0.45016387784E+00  0.37591987420E+01  0.25000043198E+00 0.  0.
    1000022    2    1    0    0    0  0.43862616755E+02 -0.32279019620E+02  0.28989407519E+02  0.62499999632E+02  0.99999974757E+01 0.  0.
    3000022    2    5    5    0    0  0.43069172060E+02 -0.30075295228E+02  0.26131254640E+02  0.58671815525E+02  0.25000588010E+00 0.  0.
        -13    1    4    4    0    0 -0.11803110903E+01  0.14221131933E+01  0.22116598905E+00  0.18642638223E+01  0.10500000000E+00 0. -1.
         13    1    4    4    0    0 -0.13013879852E+01  0.13541427654E+01  0.22899788879E+00  0.18949349198E+01  0.10500000000E+00 0.  1.
    3000001    1    5    5    0    0  0.79344469443E+00 -0.22037243920E+01  0.28581528784E+01  0.38281841068E+01  0.10000000000E+01 0.  1.
        -13    1    6    6    0    0  0.17489623890E+02 -0.12214281145E+02  0.10540779777E+02  0.23794845471E+02  0.10500000000E+00 0.  1.
         13    1    6    6    0    0  0.25579548170E+02 -0.17861014083E+02  0.15590474864E+02  0.34876970054E+02  0.10500000000E+00 0. -1.
</event>
<event>
11    0  0.3476221E-009  0.9118800E+02  0.7816531E-02  0.1126479E+00
         25   -1    0    0    0    0  0.00000000000E+00  0.00000000000E+00  0.99999998245E-14  0.12500000000E+03  0.12500000000E+03 0.  0.
    3000001    1    3    3    0    0 -0.67270318791E+00 -0.28347486870E+02  0.30660303092E+01  0.28538274006E+02  0.10000000000E+01 0.  1.
    1000022    2    1    0    0    0 -0.27457921354E+01 -0.61505250957E+02 -0.39767870817E+01  0.62499999417E+02  0.99999910909E+01 0.  0.
    3000022    2    3    3    0    0 -0.20730889475E+01 -0.33157764088E+02 -0.70428173909E+01  0.33961725410E+02  0.24999793656E+00 0.  0.
    1000022    2    1    0    0    0  0.27457921354E+01  0.61505250957E+02  0.39767870817E+01  0.62500000583E+02  0.99999983808E+01 0.  0.
    3000022    2    5    5    0    0  0.42592050407E+01  0.20261690614E+02  0.46044498209E+01  0.21211798286E+02  0.24998850841E+00 0.  0.
        -13    1    4    4    0    0 -0.83485166184E+00 -0.13204084825E+02 -0.27411931545E+01  0.13511846590E+02  0.10500000000E+00 0.  1.
         13    1    4    4    0    0 -0.12382372856E+01 -0.19953679263E+02 -0.43016242364E+01  0.20449878820E+02  0.10500000000E+00 0. -1.
    3000001    1    5    5    0    0 -0.15134129053E+01  0.41243560343E+02 -0.62766273918E+00  0.41288202297E+02  0.10000000000E+01 0. -1.
        -13    1    6    6    0    0  0.28377021142E+01  0.13356979814E+02  0.30841278482E+01  0.13999440439E+02  0.10500000000E+00 0.  1.
         13    1    6    6    0    0  0.14215029265E+01  0.69047108006E+01  0.15203219727E+01  0.72123578468E+01  0.10500000000E+00 0. -1.
</event>
<event>
11    0  0.3476221E-009  0.9118800E+02  0.7816531E-02  0.1126479E+00
         25   -1    0    0    0    0  0.00000000000E+00  0.00000000000E+00  0.99999998245E-14  0.12500000000E+03  0.12500000000E+03 0.  0.
    3000001    1    3    3    0    0 -0.52762595715E+01  0.78947146078E+00  0.57910470136E+01  0.79371535053E+01  0.10000000000E+01 0. -1.
    1000022    2    1    0    0    0 -0.55416946869E+02  0.10409319872E+02  0.25037131334E+02  0.62500000439E+02  0.10000008449E+02 0.  0.
    3000022    2    3    3    0    0 -0.50140687297E+02  0.96198484114E+01  0.19246084321E+02  0.54562846934E+02  0.24999547527E+00 0.  0.
    1000022    2    1    0    0    0  0.55416946869E+02 -0.10409319872E+02 -0.25037131334E+02  0.62499999561E+02  0.10000002960E+02 0.  0.
    3000022    2    5    5    0    0  0.15696398431E+02 -0.10963937512E+01 -0.26669804315E+01  0.15961024362E+02  0.25002220163E+00 0.  0.
        -13    1    4    4    0    0 -0.22054055570E+02  0.42916324025E+01  0.84383202234E+01  0.24000328101E+02  0.10500000000E+00 0.  1.
         13    1    4    4    0    0 -0.28086631728E+02  0.53282160089E+01  0.10807764097E+02  0.30562518833E+02  0.10500000000E+00 0. -1.
    3000001    1    5    5    0    0  0.39720548437E+02 -0.93129261210E+01 -0.22370150903E+02  0.46538975198E+02  0.10000000000E+01 0.  1.
        -13    1    6    6    0    0  0.75187718765E+01 -0.46308306445E+00 -0.13043220943E+01  0.76458261542E+01  0.10500000000E+00 0. -1.
         13    1    6    6    0    0  0.81776265549E+01 -0.63331068679E+00 -0.13626583372E+01  0.83151982081E+01  0.10500000000E+00 0.  1.
</event>
<event>
11    0  0.3476221E-009  0.9118800E+02  0.7816531E-02  0.1126479E+00
         25   -1    0    0    0    0  0.00000000000E+00  0.00000000000E+00  0.99999998245E-14  0.12500000000E+03  0.12500000000E+03 0.  0.
    3000001    1    3    3    0    0  0.37615800672E+00  0.16315264784E+01 -0.18508667084E+01  0.26886950493E+01  0.10000000000E+01 0.  1.
    1000022    2    1    0    0    0  0.36245484008E+02  0.77587268347E+01 -0.49318525950E+02  0.62500000782E+02  0.10000007143E+02 0.  0.
    3000022    2    3    3    0    0  0.35869326001E+02  0.61272003563E+01 -0.47467659242E+02  0.59811305733E+02  0.24997529768E+00 0.  0.
    1000022    2    1    0    0    0 -0.36245484008E+02 -0.77587268347E+01  0.49318525950E+02  0.62499999218E+02  0.99999973637E+01 0.  0.
    3000022    2    5    5    0    0 -0.11639194998E+02  0.46772974886E+00  0.98501794750E+01  0.15257069374E+02  0.24999774660E+00 0.  0.
        -13    1    4    4    0    0  0.15730296662E+02  0.26481402572E+01 -0.20896610137E+02  0.26289431719E+02  0.10500000000E+00 0. -1.
         13    1    4    4    0    0  0.20139029339E+02  0.34790600990E+01 -0.26571049105E+02  0.33521874014E+02  0.10500000000E+00 0.  1.
    3000001    1    5    5    0    0 -0.24606289010E+02 -0.82264565835E+01  0.39468346475E+02  0.47242929844E+02  0.10000000000E+01 0. -1.
        -13    1    6    6    0    0 -0.37379339385E+01  0.17682910938E+00  0.32221264446E+01  0.49392856252E+01  0.10500000000E+00 0.  1.
         13    1    6    6    0    0 -0.79012610591E+01  0.29090063948E+00  0.66280530304E+01  0.10317783748E+02  0.10500000000E+00 0. -1.
</event>
<event>
11    0  0.3476221E-009  0.9118800E+02  0.7816531E-02  0.1126479E+00
         25   -1    0    0    0    0  0.00000000000E+00  0.00000000000E+00  0.99999998245E-14  0.12500000000E+03  0.12500000000E+03 0.  0.
    3000001    1    3    3    0    0  0.33092392338E+02 -0.23741368748E+02 -0.10105898504E+02  0.41974852058E+02  0.10000000000E+01 0.  1.
    1000022    2    1    0    0    0  0.47809280612E+02 -0.37986986572E+02 -0.88040678403E+01  0.62499999349E+02  0.99999923304E+01 0.  0.
    3000022    2    3    3    0    0  0.14716888274E+02 -0.14245617824E+02  0.13018306637E+01  0.20525147291E+02  0.24996118313E+00 0.  0.
    1000022    2    1    0    0    0 -0.47809280612E+02  0.37986986572E+02  0.88040678403E+01  0.62500000651E+02  0.10000000470E+02 0.  0.
    3000022    2    5    5    0    0 -0.31265734310E+02  0.30379618504E+02  0.72974843951E+01  0.44201619115E+02  0.24998300658E+00 0.  0.
        -13    1    4    4    0    0  0.70273034071E+01 -0.67371679307E+01  0.66751823180E+00  0.97585362884E+01  0.10500000000E+00 0. -1.
         13    1    4    4    0    0  0.76895848667E+01 -0.75084498934E+01  0.63431243186E+00  0.10766611003E+02  0.10500000000E+00 0.  1.
    3000001    1    5    5    0    0 -0.16543546302E+02  0.76073680680E+01  0.15065834452E+01  0.18298381536E+02  0.10000000000E+01 0.  1.
        -13    1    6    6    0    0 -0.18061303058E+02  0.17634049710E+02  0.42485980391E+01  0.25597499636E+02  0.10500000000E+00 0. -1.
         13    1    6    6    0    0 -0.13204431253E+02  0.12745568793E+02  0.30488863560E+01  0.18604119479E+02  0.10500000000E+00 0.  1.
</event>
<event>
11    0  0.3476221E-009  0.9118800E+02  0.7816531E-02  0.1126479E+00
         25   -1    0    0    0    0  0.00000000000E+00  0.00000000000E+00  0.99999998245E-14  0.12500000000E+03  0.12500000000E+03 0.  0.
    3000001    1    3    3    0    0 -0.36708291671E+02 -0.18356728019E+02 -0.38685461945E+02  0.56409512556E+02  0.10000000000E+01 0. -1.
    1000022    2    1    0    0    0 -0.42466358421E+02 -0.19527730836E+02 -0.40268175956E+02  0.62499999054E+02  0.10000000895E+02 0.  0.
    3000022    2    3    3    0    0 -0.57580667503E+01 -0.11710028167E+01 -0.15827140104E+01  0.60904864981E+01  0.24992368336E+00 0.  0.
    1000022    2    1    0    0    0  0.42466358421E+02  0.19527730836E+02  0.40268175956E+02  0.62500000946E+02  0.10000012714E+02 0.  0.
    3000022    2    5    5    0    0  0.35545452839E+02  0.12283740379E+02  0.29886381414E+02  0.48037774639E+02  0.25000618135E+00 0.  0.
        -13    1    4    4    0    0 -0.40263133068E+01 -0.85370835778E+00 -0.10766502546E+01  0.42556101296E+01  0.10500000000E+00 0. -1.
         13    1    4    4    0    0 -0.17317534435E+01 -0.31729445889E+00 -0.50606375581E+00  0.18348763685E+01  0.10500000000E+00 0.  1.
    3000001    1    5    5    0    0  0.69209055818E+01  0.72439904570E+01  0.10381794542E+02  0.14462226306E+02  0.10000000000E+01 0.  1.
        -13    1    6    6    0    0  0.20559506722E+02  0.70387541282E+01  0.17291552545E+02  0.27771319572E+02  0.10500000000E+00 0.  1.
         13    1    6    6    0    0  0.14985946117E+02  0.52449862504E+01  0.12594828869E+02  0.20266455068E+02  0.10500000000E+00 0. -1.
</event>
<event>
11    0  0.3476221E-009  0.9118800E+02  0.7816531E-02  0.1126479E+00
         25   -1    0    0    0    0  0.00000000000E+00  0.00000000000E+00  0.99999998245E-14  0.12500000000E+03  0.12500000000E+03 0.  0.
    3000001    1    3    3    0    0 -0.41532140077E+01 -0.17535414676E+02 -0.22623124824E+02  0.28940382362E+02  0.10000000000E+01 0. -1.
    1000022    2    1    0    0    0 -0.82196735499E+01 -0.28602836463E+02 -0.54042250651E+02  0.62499998991E+02  0.99999865750E+01 0.  0.
    3000022    2    3    3    0    0 -0.40664595421E+01 -0.11067421786E+02 -0.31419125827E+02  0.33559616629E+02  0.24996470134E+00 0.  0.
    1000022    2    1    0    0    0  0.82196735499E+01  0.28602836463E+02  0.54042250651E+02  0.62500001009E+02  0.99999991889E+01 0.  0.
    3000022    2    5    5    0    0  0.32865238978E+01  0.11588248708E+01  0.59823471317E+01  0.69278491343E+01  0.25000402444E+00 0.  0.
        -13    1    4    4    0    0 -0.10297802580E+01 -0.27715490705E+01 -0.79518718218E+01  0.84844105335E+01  0.10500000000E+00 0.  1.
         13    1    4    4    0    0 -0.30366792841E+01 -0.82958727160E+01 -0.23467254005E+02  0.25075206096E+02  0.10500000000E+00 0. -1.
    3000001    1    5    5    0    0  0.49331496521E+01  0.27444011592E+02  0.48059903519E+02  0.55572151875E+02  0.10000000000E+01 0.  1.
        -13    1    6    6    0    0  0.20402093886E+01  0.71041768416E+00  0.35853882196E+01  0.41872641809E+01  0.10500000000E+00 0.  1.
         13    1    6    6    0    0  0.12463145091E+01  0.44840718665E+00  0.23969589121E+01  0.27405849534E+01  0.10500000000E+00 0. -1.
</event>
<event>
11    0  0.3476221E-009  0.9118800E+02  0.7816531E-02  0.1126479E+00
         25   -1    0    0    0    0  0.00000000000E+00  0.00000000000E+00  0.99999998245E-14  0.12500000000E+03  0.12500000000E+03 0.  0.
    3000001    1    3    3    0    0 -0.36642738292E+01 -0.43257114114E+01  0.19327802361E+02  0.20166869515E+02  0.10000000000E+01 0. -1.
    1000022    2    1    0    0    0 -0.13784064729E+02  0.63909484766E+00  0.60131867535E+02  0.62499997245E+02  0.99999639842E+01 0.  0.
    3000022    2    3    3    0    0 -0.10119790900E+02  0.49648062590E+01  0.40804065174E+02  0.42333127731E+02  0.24999932866E+00 0.  0.
    1000022    2    1    0    0    0  0.13784064729E+02 -0.63909484766E+00 -0.60131867535E+02  0.62500002755E+02  0.99999984186E+01 0.  0.
    3000022    2    5    5    0    0  0.92968074842E+01 -0.16415781889E+01 -0.20277598287E+02  0.22368927168E+02  0.25000402109E+00 0.  0.
        -13    1    4    4    0    0 -0.37954815140E+01  0.18782643986E+01  0.15112402415E+02  0.15694880975E+02  0.10500000000E+00 0.  1.
         13    1    4    4    0    0 -0.63243093861E+01  0.30865418605E+01  0.25691662760E+02  0.26638246756E+02  0.10500000000E+00 0. -1.
    3000001    1    5    5    0    0  0.44872572452E+01  0.10024833412E+01 -0.39854269248E+02  0.40131075587E+02  0.10000000000E+01 0.  1.
        -13    1    6    6    0    0  0.39273743560E+01 -0.75870120293E+00 -0.85666972138E+01  0.94551162341E+01  0.10500000000E+00 0. -1.
         13    1    6    6    0    0  0.53694331282E+01 -0.88287698597E+00 -0.11710901073E+02  0.12913810934E+02  0.10500000000E+00 0.  1.
</event>
<event>
11    0  0.3476221E-009  0.9118800E+02  0.7816531E-02  0.1126479E+00
         25   -1    0    0    0    0  0.00000000000E+00  0.00000000000E+00  0.99999998245E-14  0.12500000000E+03  0.12500000000E+03 0.  0.
    3000001    1    3    3    0    0  0.37249911903E+01 -0.22658334996E+02  0.39346190126E+01  0.23318596248E+02  0.10000000000E+01 0.  1.
    1000022    2    1    0    0    0  0.10774463504E+02 -0.60706455266E+02 -0.22107306099E+01  0.62499999162E+02  0.99999895280E+01 0.  0.
    3000022    2    3    3    0    0  0.70494723135E+01 -0.38048120270E+02 -0.61453496225E+01  0.39181402914E+02  0.24999271595E+00 0.  0.
    1000022    2    1    0    0    0 -0.10774463504E+02  0.60706455266E+02  0.22107306099E+01  0.62500000838E+02  0.10000000008E+02 0.  0.
    3000022    2    5    5    0    0 -0.11957810792E+02  0.49069251501E+02  0.38209764858E+01  0.50650202778E+02  0.24999679255E+00 0.  0.
        -13    1    4    4    0    0  0.24728819936E+01 -0.13663560532E+02 -0.22103293166E+01  0.14060747223E+02  0.10500000000E+00 0. -1.
         13    1    4    4    0    0  0.45765903200E+01 -0.24384559738E+02 -0.39350203059E+01  0.25120655692E+02  0.10500000000E+00 0.  1.
    3000001    1    5    5    0    0  0.11833472878E+01  0.11637203765E+02 -0.16102458759E+01  0.11849798060E+02  0.10000000000E+01 0. -1.
        -13    1    6    6    0    0 -0.58997933848E+01  0.24195910882E+02  0.18162648852E+01  0.24971173551E+02  0.10500000000E+00 0. -1.
         13    1    6    6    0    0 -0.60580174068E+01  0.24873340619E+02  0.20047116007E+01  0.25679029227E+02  0.10500000000E+00 0.  1.
</event>
<event>
11    0  0.3476221E-009  0.9118800E+02  0.7816531E-02  0.1126479E+00
         25   -1    0    0    0    0  0.00000000000E+00  0.00000000000E+00  0.99999998245E-14  0.12500000000E+03  0.12500000000E+03 0.  0.
    3000001    1    3    3    0    0  0.71899853299E+01  0.14455041170E+00 -0.40642090853E+02  0.41285546294E+02  0.10000000000E+01 0. -1.
    1000022    2    1    0    0    0  0.17268669854E+02 -0.18649721503E+01 -0.59199366163E+02  0.62499999564E+02  0.99999955873E+01 0.  0.
    3000022    2    3    3    0    0  0.10078684524E+02 -0.20095225620E+01 -0.18557275310E+02  0.21214453270E+02  0.24999591802E+00 0.  0.
    1000022    2    1    0    0    0 -0.17268669854E+02  0.18649721503E+01  0.59199366163E+02  0.62500000436E+02  0.10000001038E+02 0.  0.
    3000022    2    5    5    0    0  0.93306357755E+00 -0.10897461132E+01  0.28294867580E+01  0.31822394866E+01  0.24999721033E+00 0.  0.
        -13    1    4    4    0    0  0.44745152214E+01 -0.91327012838E+00 -0.81165869008E+01  0.93137187370E+01  0.10500000000E+00 0.  1.
         13    1    4    4    0    0  0.56041693027E+01 -0.10962524336E+01 -0.10440688409E+02  0.11900734533E+02  0.10500000000E+00 0. -1.
    3000001    1    5    5    0    0 -0.18201733432E+02  0.29547182635E+01  0.56369879405E+02  0.59317760949E+02  0.10000000000E+01 0. -1.
        -13    1    6    6    0    0  0.60638418375E+00 -0.74933982395E+00  0.19862052846E+01  0.22102597998E+01  0.10500000000E+00 0. -1.
         13    1    6    6    0    0  0.32667939380E+00 -0.34040628923E+00  0.84328147339E+00  0.97197968674E+00  0.10500000000E+00 0.  1.
</event>
<event>
11    0  0.3476221E-009  0.9118800E+02  0.7816531E-02  0.1126479E+00
         25   -1    0    0    0    0  0.00000000000E+00  0.00000000000E+00  0.99999998245E-14  0.12500000000E+03  0.12500000000E+03 0.  0.
    3000001    1    3    3    0    0  0.21485369485E+01  0.37593922637E+02  0.42152148226E+02  0.56530724657E+02  0.10000000000E+01 0. -1.
    1000022    2    1    0    0    0  0.19873641268E+00  0.42707385351E+02  0.44522911817E+02  0.62499999666E+02  0.10000001093E+02 0.  0.
    3000022    2    3    3    0    0 -0.19498005358E+01  0.51134627138E+01  0.23707635914E+01  0.59692750082E+01  0.25000212393E+00 0.  0.
    1000022    2    1    0    0    0 -0.19873641268E+00 -0.42707385351E+02 -0.44522911817E+02  0.62500000334E+02  0.10000005274E+02 0.  0.
    3000022    2    5    5    0    0  0.37101159365E+01 -0.71055589643E+01 -0.75521755068E+01  0.11015978424E+02  0.24999459441E+00 0.  0.
        -13    1    4    4    0    0 -0.93446286765E+00  0.25183536517E+01  0.10946197139E+01  0.29025063796E+01  0.10500000000E+00 0.  1.
         13    1    4    4    0    0 -0.10153376682E+01  0.25951090622E+01  0.12761438775E+01  0.30667686286E+01  0.10500000000E+00 0. -1.
    3000001    1    5    5    0    0 -0.39088523491E+01 -0.35601826386E+02 -0.36970736310E+02  0.51484021910E+02  0.10000000000E+01 0. -1.
        -13    1    6    6    0    0  0.27428940197E+01 -0.52882426896E+01 -0.56456930344E+01  0.82081577218E+01  0.10500000000E+00 0.  1.
         13    1    6    6    0    0  0.96722191674E+00 -0.18173162747E+01 -0.19064824723E+01  0.28078207022E+01  0.10500000000E+00 0. -1.
</event>
<event>
11    0  0.3476221E-009  0.9118800E+02  0.7816531E-02  0.1126479E+00
         25   -1    0    0    0    0  0.00000000000E+00  0.00000000000E+00  0.99999998245E-14  0.12500000000E+03  0.12500000000E+03 0.  0.
    3000001    1    3    3    0    0  0.95808849790E+00  0.15186393485E+01 -0.23090813075E+01  0.30912870338E+01  0.10000000000E+01 0. -1.
    1000022    2    1    0    0    0 -0.19407911115E+02  0.28160609134E+02 -0.51347475045E+02  0.62499998970E+02  0.99999878561E+01 0.  0.
    3000022    2    3    3    0    0 -0.20365999613E+02  0.26641969785E+02 -0.49038393737E+02  0.59408711936E+02  0.24999859011E+00 0.  0.
    1000022    2    1    0    0    0  0.19407911115E+02 -0.28160609134E+02  0.51347475045E+02  0.62500001030E+02  0.10000000736E+02 0.  0.
    3000022    2    5    5    0    0  0.20070104963E+01 -0.10668956372E+02  0.13792776601E+02  0.17554426901E+02  0.24999247520E+00 0.  0.
        -13    1    4    4    0    0 -0.12740494780E+02  0.16569170303E+02 -0.30542103682E+02  0.37009306047E+02  0.10500000000E+00 0. -1.
         13    1    4    4    0    0 -0.76255048332E+01  0.10072799482E+02 -0.18496290055E+02  0.22399405889E+02  0.10500000000E+00 0.  1.
    3000001    1    5    5    0    0  0.17400900619E+02 -0.17491652762E+02  0.37554698444E+02  0.44945574130E+02  0.10000000000E+01 0.  1.
        -13    1    6    6    0    0  0.11883049314E+01 -0.61477006911E+01  0.78624272172E+01  0.10051620722E+02  0.10500000000E+00 0.  1.
         13    1    6    6    0    0  0.81870556486E+00 -0.45212556809E+01  0.59303493839E+01  0.75028061783E+01  0.10500000000E+00 0. -1.
</event>
<event>
11    0  0.3476221E-009  0.9118800E+02  0.7816531E-02  0.1126479E+00
         25   -1    0    0    0    0  0.00000000000E+00  0.00000000000E+00  0.99999998245E-14  0.12500000000E+03  0.12500000000E+03 0.  0.
    3000001    1    3    3    0    0  0.10022790937E+02 -0.46793160505E+02  0.16016579843E+02  0.50473627154E+02  0.10000000000E+01 0.  1.
    1000022    2    1    0    0    0  0.82042156785E+01 -0.57031672096E+02  0.22052870782E+02  0.62499999871E+02  0.10000004863E+02 0.  0.
    3000022    2    3    3    0    0 -0.18185752582E+01 -0.10238511591E+02  0.60362909388E+01  0.12026372717E+02  0.24999374752E+00 0.  0.
    1000022    2    1    0    0    0 -0.82042156785E+01  0.57031672096E+02 -0.22052870782E+02  0.62500000129E+02  0.10000006469E+02 0.  0.
    3000022    2    5    5    0    0 -0.36337530241E+01  0.19404729376E+02 -0.12603913281E+02  0.23423680635E+02  0.25000258469E+00 0.  0.
        -13    1    4    4    0    0 -0.92337541457E+00 -0.54652733489E+01  0.32733381641E+01  0.64379812574E+01  0.10500000000E+00 0. -1.
         13    1    4    4    0    0 -0.89519984368E+00 -0.47732382420E+01  0.27629527747E+01  0.55883914600E+01  0.10500000000E+00 0.  1.
    3000001    1    5    5    0    0 -0.45704626544E+01  0.37626942720E+02 -0.94489575010E+01  0.39076319494E+02  0.10000000000E+01 0.  1.
        -13    1    6    6    0    0 -0.20201512880E+01  0.10649322426E+02 -0.68468514827E+01  0.12821056102E+02  0.10500000000E+00 0. -1.
         13    1    6    6    0    0 -0.16136017361E+01  0.87554069502E+01 -0.57570617980E+01  0.10602624532E+02  0.10500000000E+00 0.  1.
</event>
<event>
11    0  0.3476221E-009  0.9118800E+02  0.7816531E-02  0.1126479E+00
         25   -1    0    0    0    0  0.00000000000E+00  0.00000000000E+00  0.99999998245E-14  0.12500000000E+03  0.12500000000E+03 0.  0.
    3000001    1    3    3    0    0 -0.33163194507E+02 -0.37949793962E+02 -0.23720877269E+02  0.55710540745E+02  0.10000000000E+01 0. -1.
    1000022    2    1    0    0    0 -0.34641541884E+02 -0.44408628923E+02 -0.25181086766E+02  0.62500001234E+02  0.10000013832E+02 0.  0.
    3000022    2    3    3    0    0 -0.14783473764E+01 -0.64588349612E+01 -0.14602094973E+01  0.67894604893E+01  0.25000387773E+00 0.  0.
    1000022    2    1    0    0    0  0.34641541884E+02  0.44408628923E+02  0.25181086766E+02  0.62499998766E+02  0.99999984060E+01 0.  0.
    3000022    2    5    5    0    0  0.11604143225E+02  0.79741037218E+01  0.59561951944E+01  0.15289906418E+02  0.25001382614E+00 0.  0.
        -13    1    4    4    0    0 -0.91071192187E+00 -0.42296353993E+01 -0.95636029232E+00  0.44322524550E+01  0.10500000000E+00 0. -1.
         13    1    4    4    0    0 -0.56763545456E+00 -0.22291995619E+01 -0.50384920499E+00  0.23572080344E+01  0.10500000000E+00 0.  1.
    3000001    1    5    5    0    0  0.23037398659E+02  0.36434525201E+02  0.19224891571E+02  0.47210092348E+02  0.10000000000E+01 0. -1.
        -13    1    6    6    0    0  0.62679974112E+01  0.43840934577E+01  0.32591578918E+01  0.83151188901E+01  0.10500000000E+00 0. -1.
         13    1    6    6    0    0  0.53361458138E+01  0.35900102641E+01  0.26970373026E+01  0.69747875275E+01  0.10500000000E+00 0.  1.
</event>
<event>
11    0  0.3476221E-009  0.9118800E+02  0.7816531E-02  0.1126479E+00
         25   -1    0    0    0    0  0.00000000000E+00  0.00000000000E+00  0.99999998245E-14  0.12500000000E+03  0.12500000000E+03 0.  0.
    3000001    1    3    3    0    0 -0.11277940434E+01  0.49900510337E+01  0.68899949453E+01  0.86397082745E+01  0.10000000000E+01 0.  1.
    1000022    2    1    0    0    0 -0.76180379237E+01  0.14123021116E+02  0.59571435153E+02  0.62500000229E+02  0.99999957542E+01 0.  0.
    3000022    2    3    3    0    0 -0.64902438802E+01  0.91329700820E+01  0.52681440208E+02  0.53860291954E+02  0.24999763750E+00 0.  0.
    1000022    2    1    0    0    0  0.76180379237E+01 -0.14123021116E+02 -0.59571435153E+02  0.62499999771E+02  0.99999928975E+01 0.  0.
    3000022    2    5    5    0    0  0.14703879172E+01 -0.57493633843E+00 -0.65763621636E+00  0.17284611458E+01  0.25000023819E+00 0.  0.
        -13    1    4    4    0    0 -0.37708250418E+01  0.52044047744E+01  0.30081279693E+02  0.30760353761E+02  0.10500000000E+00 0. -1.
         13    1    4    4    0    0 -0.27194188384E+01  0.39285653076E+01  0.22600160515E+02  0.23099938193E+02  0.10500000000E+00 0.  1.
    3000001    1    5    5    0    0  0.61476500065E+01 -0.13548084777E+02 -0.58913798937E+02  0.60771538626E+02  0.10000000000E+01 0.  1.
        -13    1    6    6    0    0  0.60670983802E+00 -0.22333250363E+00 -0.20289549528E+00  0.68568638366E+00  0.10500000000E+00 0.  1.
         13    1    6    6    0    0  0.86367807916E+00 -0.35160383480E+00 -0.45474072108E+00  0.10427747621E+01  0.10500000000E+00 0. -1.
</event>
<event>
11    0  0.3476221E-009  0.9118800E+02  0.7816531E-02  0.1126479E+00
         25   -1    0    0    0    0  0.00000000000E+00  0.00000000000E+00  0.99999998245E-14  0.12500000000E+03  0.12500000000E+03 0.  0.
    3000001    1    3    3    0    0 -0.31071762105E+02  0.35469940564E+02 -0.12007141487E+02  0.48669729099E+02  0.10000000000E+01 0.  1.
    1000022    2    1    0    0    0 -0.35367920686E+02  0.48251124286E+02 -0.15072801671E+02  0.62500000929E+02  0.99999978666E+01 0.  0.
    3000022    2    3    3    0    0 -0.42961585812E+01  0.12781183722E+02 -0.30656601836E+01  0.13830271829E+02  0.25002122505E+00 0.  0.
    1000022    2    1    0    0    0  0.35367920686E+02 -0.48251124286E+02  0.15072801671E+02  0.62499999071E+02  0.99999862598E+01 0.  0.
    3000022    2    5    5    0    0  0.73021872352E+00 -0.38830730509E+01 -0.73400556661E+00  0.40265048823E+01  0.25000338384E+00 0.  0.
        -13    1    4    4    0    0 -0.20297483525E+01  0.62440325045E+01 -0.14747528520E+01  0.67300625009E+01  0.10500000000E+00 0.  1.
         13    1    4    4    0    0 -0.22664102287E+01  0.65371512176E+01 -0.15909073316E+01  0.71002093282E+01  0.10500000000E+00 0. -1.
    3000001    1    5    5    0    0  0.34637701963E+02 -0.44368051235E+02  0.15806807238E+02  0.58473494189E+02  0.10000000000E+01 0.  1.
        -13    1    6    6    0    0  0.41780584329E+00 -0.25099579361E+01 -0.49434215177E+00  0.25941953910E+01  0.10500000000E+00 0. -1.
         13    1    6    6    0    0  0.31241288023E+00 -0.13731151149E+01 -0.23966341483E+00  0.14323094913E+01  0.10500000000E+00 0.  1.
</event>
<event>
11    0  0.3476221E-009  0.9118800E+02  0.7816531E-02  0.1126479E+00
         25   -1    0    0    0    0  0.00000000000E+00  0.00000000000E+00  0.99999998245E-14  0.12500000000E+03  0.12500000000E+03 0.  0.
    3000001    1    3    3    0    0  0.85518457792E+01  0.13401210807E+02 -0.11220877412E+02  0.19484214308E+02  0.10000000000E+01 0.  1.
    1000022    2    1    0    0    0  0.32212877566E+02  0.30869360513E+02 -0.42610599436E+02  0.62500000114E+02  0.99999965200E+01 0.  0.
    3000022    2    3    3    0    0  0.23661031786E+02  0.17468149706E+02 -0.31389722024E+02  0.43015785805E+02  0.25000071038E+00 0.  0.
    1000022    2    1    0    0    0 -0.32212877566E+02 -0.30869360513E+02  0.42610599436E+02  0.62499999886E+02  0.99999951005E+01 0.  0.
    3000022    2    5    5    0    0 -0.52298171347E+01 -0.96053342334E+01  0.68835234116E+01  0.12925123940E+02  0.25000264057E+00 0.  0.
        -13    1    4    4    0    0  0.15460133417E+02  0.11345928670E+02 -0.20486534931E+02  0.28061627913E+02  0.10500000000E+00 0. -1.
         13    1    4    4    0    0  0.82008983695E+01  0.61222210357E+01 -0.10903187093E+02  0.14954157892E+02  0.10500000000E+00 0.  1.
    3000001    1    5    5    0    0 -0.26983060431E+02 -0.21264026280E+02  0.35727076024E+02  0.49574875946E+02  0.10000000000E+01 0.  1.
        -13    1    6    6    0    0 -0.18255110079E+01 -0.33179371201E+01  0.23209959221E+01  0.44428869267E+01  0.10500000000E+00 0.  1.
         13    1    6    6    0    0 -0.34043061268E+01 -0.62873971134E+01  0.45625274895E+01  0.84822370138E+01  0.10500000000E+00 0. -1.
</event>
<event>
11    0  0.3476221E-009  0.9118800E+02  0.7816531E-02  0.1126479E+00
         25   -1    0    0    0    0  0.00000000000E+00  0.00000000000E+00  0.99999998245E-14  0.12500000000E+03  0.12500000000E+03 0.  0.
    3000001    1    3    3    0    0 -0.20068239332E+02  0.35774690883E+02  0.53215004097E+00  0.41034691681E+02  0.10000000000E+01 0.  1.
    1000022    2    1    0    0    0 -0.26046390783E+02  0.55574410899E+02  0.62705943344E+01  0.62499999875E+02  0.10000000576E+02 0.  0.
    3000022    2    3    3    0    0 -0.59781514501E+01  0.19799720016E+02  0.57384442934E+01  0.21465308194E+02  0.25001099338E+00 0.  0.
    1000022    2    1    0    0    0  0.26046390783E+02 -0.55574410899E+02 -0.62705943344E+01  0.62500000125E+02  0.10000002136E+02 0.  0.
    3000022    2    5    5    0    0  0.10306286883E+02 -0.20743030584E+02 -0.71876850589E+01  0.24253209661E+02  0.24999041302E+00 0.  0.
        -13    1    4    4    0    0 -0.26533134984E+01  0.90098244398E+01  0.26253949632E+01  0.97529858336E+01  0.10500000000E+00 0. -1.
         13    1    4    4    0    0 -0.33248379517E+01  0.10789895576E+02  0.31130493303E+01  0.11712322361E+02  0.10500000000E+00 0.  1.
    3000001    1    5    5    0    0  0.15740103899E+02 -0.34831380315E+02  0.91709072446E+00  0.38246790464E+02  0.10000000000E+01 0. -1.
        -13    1    6    6    0    0  0.48405144691E+01 -0.97691067045E+01 -0.34527622634E+01  0.11436722362E+02  0.10500000000E+00 0. -1.
         13    1    6    6    0    0  0.54657724140E+01 -0.10973923880E+02 -0.37349227955E+01  0.12816487299E+02  0.10500000000E+00 0.  1.
</event>
<event>
11    0  0.3476221E-009  0.9118800E+02  0.7816531E-02  0.1126479E+00
         25   -1    0    0    0    0  0.00000000000E+00  0.00000000000E+00  0.99999998245E-14  0.12500000000E+03  0.12500000000E+03 0.  0.
    3000001    1    3    3    0    0 -0.14763492334E+02  0.32251970506E+02  0.31631660077E+02  0.47536430521E+02  0.10000000000E+01 0.  1.
    1000022    2    1    0    0    0 -0.21823641310E+02  0.37807320674E+02  0.43595701970E+02  0.62500000122E+02  0.99999984228E+01 0.  0.
    3000022    2    3    3    0    0 -0.70601489767E+01  0.55553501684E+01  0.11964041892E+02  0.14963569602E+02  0.24999551147E+00 0.  0.
    1000022    2    1    0    0    0  0.21823641310E+02 -0.37807320674E+02 -0.43595701970E+02  0.62499999878E+02  0.99999968935E+01 0.  0.
    3000022    2    5    5    0    0  0.28699150492E+01 -0.28701003246E+01 -0.91320457622E+00  0.41677730328E+01  0.25000238329E+00 0.  0.
        -13    1    4    4    0    0 -0.37601903907E+01  0.30005243207E+01  0.65037443541E+01  0.80902344587E+01  0.10500000000E+00 0.  1.
         13    1    4    4    0    0 -0.32999585861E+01  0.25548258477E+01  0.54602975384E+01  0.68733351431E+01  0.10500000000E+00 0. -1.
    3000001    1    5    5    0    0  0.18953726261E+02 -0.34937220350E+02 -0.42682497393E+02  0.58332226845E+02  0.10000000000E+01 0.  1.
        -13    1    6    6    0    0  0.18600315315E+01 -0.19349343039E+01 -0.61723343412E+00  0.27560279699E+01  0.10500000000E+00 0.  1.
         13    1    6    6    0    0  0.10098835177E+01 -0.93516602072E+00 -0.29597114210E+00  0.14117450629E+01  0.10500000000E+00 0. -1.
</event>
<event>
11    0  0.3476221E-009  0.9118800E+02  0.7816531E-02  0.1126479E+00
         25   -1    0    0    0    0  0.00000000000E+00  0.00000000000E+00  0.99999998245E-14  0.12500000000E+03  0.12500000000E+03 0.  0.
    3000001    1    3    3    0    0 -0.69775801197E+01 -0.60866209957E+00 -0.16380985888E+01  0.72622627923E+01  0.10000000000E+01 0. -1.
    1000022    2    1    0    0    0 -0.48417075954E+02 -0.19919911264E+02 -0.32637920503E+02  0.62500000122E+02  0.10000002587E+02 0.  0.
    3000022    2    3    3    0    0 -0.41439495834E+02 -0.19311249164E+02 -0.30999821914E+02  0.55237737329E+02  0.25001452302E+00 0.  0.
    1000022    2    1    0    0    0  0.48417075954E+02  0.19919911264E+02  0.32637920503E+02  0.62499999878E+02  0.10000001067E+02 0.  0.
    3000022    2    5    5    0    0  0.27438285565E+02  0.13091142025E+02  0.24200512541E+02  0.38858265834E+02  0.25000422154E+00 0.  0.
        -13    1    4    4    0    0 -0.28680284675E+02 -0.13322629315E+02 -0.21408249436E+02  0.38188680912E+02  0.10500000000E+00 0. -1.
         13    1    4    4    0    0 -0.12759211159E+02 -0.59886198492E+01 -0.95915724777E+01  0.17049056417E+02  0.10500000000E+00 0.  1.
    3000001    1    5    5    0    0  0.20978790389E+02  0.68287692390E+01  0.84374079616E+01  0.23641734044E+02  0.10000000000E+01 0.  1.
        -13    1    6    6    0    0  0.20062575130E+02  0.95385245111E+01  0.17659163485E+02  0.28378644271E+02  0.10500000000E+00 0.  1.
         13    1    6    6    0    0  0.73757104353E+01  0.35526175138E+01  0.65413490565E+01  0.10479621563E+02  0.10500000000E+00 0. -1.
</event>
<event>
11    0  0.3476221E-009  0.9118800E+02  0.7816531E-02  0.1126479E+00
         25   -1    0    0    0    0  0.00000000000E+00  0.00000000000E+00  0.99999998245E-14  0.12500000000E+03  0.12500000000E+03 0.  0.
    3000001    1    3    3    0    0 -0.62568574977E+01  0.45139813912E+01  0.49630900175E+01  0.92280310072E+01  0.10000000000E+01 0.  1.
    1000022    2    1    0    0    0 -0.55097171420E+02  0.22783102482E+02  0.15858185893E+02  0.62499999857E+02  0.99999932609E+01 0.  0.
    3000022    2    3    3    0    0 -0.48840313922E+02  0.18269121091E+02  0.10895095875E+02  0.53271968850E+02  0.25000326349E+00 0.  0.
    1000022    2    1    0    0    0  0.55097171420E+02 -0.22783102482E+02 -0.15858185893E+02  0.62500000143E+02  0.99999950446E+01 0.  0.
    3000022    2    5    5    0    0  0.22660155804E+02 -0.13707567656E+02 -0.40455083970E+01  0.26791952534E+02  0.25002055478E+00 0.  0.
        -13    1    4    4    0    0 -0.12118466563E+02  0.45560161058E+01  0.26915337363E+01  0.13223838076E+02  0.10500000000E+00 0.  1.
         13    1    4    4    0    0 -0.36721847359E+02  0.13713104985E+02  0.82035621390E+01  0.40048130774E+02  0.10500000000E+00 0. -1.
    3000001    1    5    5    0    0  0.32437015616E+02 -0.90755348259E+01 -0.11812677496E+02  0.35708047609E+02  0.10000000000E+01 0. -1.
        -13    1    6    6    0    0  0.14107669662E+02 -0.84641820532E+01 -0.25022118279E+01  0.16641538695E+02  0.10500000000E+00 0. -1.
         13    1    6    6    0    0  0.85524861422E+01 -0.52433856029E+01 -0.15432965691E+01  0.10150413839E+02  0.10500000000E+00 0.  1.
</event>
<event>
11    0  0.3476221E-009  0.9118800E+02  0.7816531E-02  0.1126479E+00
         25   -1    0    0    0    0  0.00000000000E+00  0.00000000000E+00  0.99999998245E-14  0.12500000000E+03  0.12500000000E+03 0.  0.
    3000001    1    3    3    0    0 -0.40124929989E+01  0.42512819923E+01  0.16226905959E+02  0.17276746674E+02  0.10000000000E+01 0. -1.
    1000022    2    1    0    0    0  0.94064335238E+00  0.12208664182E+02  0.60467460317E+02  0.62499999990E+02  0.99999975231E+01 0.  0.
    3000022    2    3    3    0    0  0.49531363513E+01  0.79573821901E+01  0.44240554359E+02  0.45223253316E+02  0.24999894859E+00 0.  0.
    1000022    2    1    0    0    0 -0.94064335238E+00 -0.12208664182E+02 -0.60467460317E+02  0.62500000010E+02  0.99999976489E+01 0.  0.
    3000022    2    5    5    0    0 -0.33450133817E+00  0.14556729795E+01 -0.24225235819E+01  0.28569266582E+01  0.25006890469E+00 0.  0.
        -13    1    4    4    0    0  0.29019359638E+01  0.46521018098E+01  0.26186643922E+02  0.26754712267E+02  0.10500000000E+00 0. -1.
         13    1    4    4    0    0  0.20512003875E+01  0.33052803803E+01  0.18053910437E+02  0.18468541049E+02  0.10500000000E+00 0.  1.
    3000001    1    5    5    0    0 -0.60614201420E+00 -0.13664337162E+02 -0.58044936736E+02  0.59643073352E+02  0.10000000000E+01 0. -1.
        -13    1    6    6    0    0 -0.76382669828E-01  0.37232945778E+00 -0.68782710070E+00  0.79283961672E+00  0.10500000000E+00 0. -1.
         13    1    6    6    0    0 -0.25811866835E+00  0.10833435217E+01 -0.17346964812E+01  0.20640870415E+01  0.10500000000E+00 0.  1.
</event>
<event>
11    0  0.3476221E-009  0.9118800E+02  0.7816531E-02  0.1126479E+00
         25   -1    0    0    0    0  0.00000000000E+00  0.00000000000E+00  0.99999998245E-14  0.12500000000E+03  0.12500000000E+03 0.  0.
    3000001    1    3    3    0    0 -0.55866399841E+01 -0.82097985711E+01  0.44491167011E+01  0.10927304256E+02  0.10000000000E+01 0.  1.
    1000022    2    1    0    0    0 -0.38215840083E+02 -0.30761762211E+02  0.37410072964E+02  0.62499999592E+02  0.99999971124E+01 0.  0.
    3000022    2    3    3    0    0 -0.32629200099E+02 -0.22551963640E+02  0.32960956263E+02  0.51572695336E+02  0.25000662016E+00 0.  0.
    1000022    2    1    0    0    0  0.38215840083E+02  0.30761762211E+02 -0.37410072964E+02  0.62500000408E+02  0.10000002208E+02 0.  0.
    3000022    2    5    5    0    0  0.53475292263E+01  0.50434918679E+00 -0.42731399608E+01  0.68682358267E+01  0.25000263742E+00 0.  0.
        -13    1    4    4    0    0 -0.18998691686E+02 -0.13068457143E+02  0.19111287780E+02  0.29949744631E+02  0.10500000000E+00 0. -1.
         13    1    4    4    0    0 -0.13630508413E+02 -0.94835064973E+01  0.13849668483E+02  0.21622950705E+02  0.10500000000E+00 0.  1.
    3000001    1    5    5    0    0  0.32868310857E+02  0.30257413025E+02 -0.33136933003E+02  0.55631764581E+02  0.10000000000E+01 0.  1.
        -13    1    6    6    0    0  0.22491612488E+01  0.16577019534E+00 -0.18526524794E+01  0.29205397258E+01  0.10500000000E+00 0.  1.
         13    1    6    6    0    0  0.30983679774E+01  0.33857899144E+00 -0.24204874815E+01  0.39476961009E+01  0.10500000000E+00 0. -1.
</event>
<event>
11    0  0.3476221E-009  0.9118800E+02  0.7816531E-02  0.1126479E+00
         25   -1    0    0    0    0  0.00000000000E+00  0.00000000000E+00  0.99999998245E-14  0.12500000000E+03  0.12500000000E+03 0.  0.
    3000001    1    3    3    0    0 -0.11854400921E+02  0.81789821751E+01  0.13673214476E+02  0.19884148580E+02  0.10000000000E+01 0. -1.
    1000022    2    1    0    0    0 -0.28678927007E+02  0.36943169674E+02  0.40236445188E+02  0.62500001133E+02  0.99999990205E+01 0.  0.
    3000022    2    3    3    0    0 -0.16824526086E+02  0.28764187499E+02  0.26563230712E+02  0.42615852553E+02  0.25000504214E+00 0.  0.
    1000022    2    1    0    0    0  0.28678927007E+02 -0.36943169674E+02 -0.40236445188E+02  0.62499998867E+02  0.99999848577E+01 0.  0.
    3000022    2    5    5    0    0  0.83425501148E+01 -0.18527956456E+02 -0.18548460864E+02  0.27513473361E+02  0.25000616223E+00 0.  0.
        -13    1    4    4    0    0 -0.39446573988E+01  0.67675907491E+01  0.62337288492E+01  0.10011543683E+02  0.10500000000E+00 0.  1.
         13    1    4    4    0    0 -0.12879868687E+02  0.21996596750E+02  0.20329501862E+02  0.32604308871E+02  0.10500000000E+00 0. -1.
    3000001    1    5    5    0    0  0.20336376893E+02 -0.18415213218E+02 -0.21687984324E+02  0.34986525506E+02  0.10000000000E+01 0.  1.
        -13    1    6    6    0    0  0.48287254769E+01 -0.10854772579E+02 -0.10796155906E+02  0.16053369890E+02  0.10500000000E+00 0. -1.
         13    1    6    6    0    0  0.35138246379E+01 -0.76731838768E+01 -0.77523049581E+01  0.11460103471E+02  0.10500000000E+00 0.  1.
</event>
<event>
11    0  0.3476221E-009  0.9118800E+02  0.7816531E-02  0.1126479E+00
         25   -1    0    0    0    0  0.00000000000E+00  0.00000000000E+00  0.99999998245E-14  0.12500000000E+03  0.12500000000E+03 0.  0.
    3000001    1    3    3    0    0  0.52708581402E+01  0.10629264071E+02  0.63353052599E+01  0.13487004596E+02  0.10000000000E+01 0. -1.
    1000022    2    1    0    0    0  0.71172570964E+01  0.49456490615E+02  0.36189094299E+02  0.62500002161E+02  0.99999955700E+01 0.  0.
    3000022    2    3    3    0    0  0.18463989562E+01  0.38827226544E+02  0.29853789040E+02  0.49012997565E+02  0.25000027402E+00 0.  0.
    1000022    2    1    0    0    0 -0.71172570964E+01 -0.49456490615E+02 -0.36189094299E+02  0.62499997839E+02  0.99999685569E+01 0.  0.
    3000022    2    5    5    0    0 -0.62588052351E+01 -0.41490852729E+02 -0.34329306903E+02  0.54214641137E+02  0.24999595433E+00 0.  0.
        -13    1    4    4    0    0  0.11901485760E+01  0.23794663989E+02  0.18272989030E+02  0.30025250058E+02  0.10500000000E+00 0. -1.
         13    1    4    4    0    0  0.65625038020E+00  0.15032562555E+02  0.11580800009E+02  0.18987747507E+02  0.10500000000E+00 0.  1.
    3000001    1    5    5    0    0 -0.85845186136E+00 -0.79656378855E+01 -0.18597873965E+01  0.82853567022E+01  0.10000000000E+01 0.  1.
        -13    1    6    6    0    0 -0.31496508234E+01 -0.20493972525E+02 -0.17010074589E+02  0.26819337663E+02  0.10500000000E+00 0.  1.
         13    1    6    6    0    0 -0.31091544117E+01 -0.20996880204E+02 -0.17319232314E+02  0.27395303474E+02  0.10500000000E+00 0. -1.
</event>
<event>
11    0  0.3476221E-009  0.9118800E+02  0.7816531E-02  0.1126479E+00
         25   -1    0    0    0    0  0.00000000000E+00  0.00000000000E+00  0.99999998245E-14  0.12500000000E+03  0.12500000000E+03 0.  0.
    3000001    1    3    3    0    0 -0.19579202601E+02 -0.43428848077E+02 -0.35408733484E+02  0.59364875362E+02  0.10000000000E+01 0.  1.
    1000022    2    1    0    0    0 -0.18556175798E+02 -0.44995874817E+02 -0.37911601939E+02  0.62500000019E+02  0.10000001498E+02 0.  0.
    3000022    2    3    3    0    0  0.10230268029E+01 -0.15670267403E+01 -0.25028684549E+01  0.31351246570E+01  0.24999893600E+00 0.  0.
    1000022    2    1    0    0    0  0.18556175798E+02  0.44995874817E+02  0.37911601939E+02  0.62499999981E+02  0.10000001261E+02 0.  0.
    3000022    2    5    5    0    0  0.10650163753E+02  0.18120565994E+02  0.21251734978E+02  0.29891129747E+02  0.24999607486E+00 0.  0.
        -13    1    4    4    0    0  0.79675307759E+00 -0.11993424799E+01 -0.19193667793E+01  0.24017143219E+01  0.10500000000E+00 0. -1.
         13    1    4    4    0    0  0.22627372529E+00 -0.36768426038E+00 -0.58350167562E+00  0.73341033504E+00  0.10500000000E+00 0.  1.
    3000001    1    5    5    0    0  0.79060120445E+01  0.26875308823E+02  0.16659866961E+02  0.32608870234E+02  0.10000000000E+01 0.  1.
        -13    1    6    6    0    0  0.79106916552E+01  0.13398852913E+02  0.15722010312E+02  0.22120147719E+02  0.10500000000E+00 0.  1.
         13    1    6    6    0    0  0.27394720980E+01  0.47217130812E+01  0.55297246664E+01  0.77709820282E+01  0.10500000000E+00 0. -1.
</event>
<event>
11    0  0.3476221E-009  0.9118800E+02  0.7816531E-02  0.1126479E+00
         25   -1    0    0    0    0  0.00000000000E+00  0.00000000000E+00  0.99999998245E-14  0.12500000000E+03  0.12500000000E+03 0.  0.
    3000001    1    3    3    0    0 -0.22085380214E+01  0.17461617947E+01 -0.10120336885E+01  0.31545100082E+01  0.10000000000E+01 0.  1.
    1000022    2    1    0    0    0 -0.26281020937E+02  0.20729176513E+02 -0.51825274541E+02  0.62500000399E+02  0.10000007416E+02 0.  0.
    3000022    2    3    3    0    0 -0.24072482915E+02  0.18983014719E+02 -0.50813240852E+02  0.59345490391E+02  0.25000470654E+00 0.  0.
    1000022    2    1    0    0    0  0.26281020937E+02 -0.20729176513E+02  0.51825274541E+02  0.62499999601E+02  0.10000002424E+02 0.  0.
    3000022    2    5    5    0    0  0.23928285721E+02 -0.15185863223E+02  0.38161047135E+02  0.47534212090E+02  0.25000240471E+00 0.  0.
        -13    1    4    4    0    0 -0.16936416245E+02  0.13410537516E+02 -0.35827529708E+02  0.41836677948E+02  0.10500000000E+00 0.  1.
         13    1    4    4    0    0 -0.71360666703E+01  0.55724772022E+01 -0.14985711144E+02  0.17508812443E+02  0.10500000000E+00 0. -1.
    3000001    1    5    5    0    0  0.23527352162E+01 -0.55433132902E+01  0.13664227406E+02  0.14965787511E+02  0.10000000000E+01 0.  1.
        -13    1    6    6    0    0  0.16051583537E+02 -0.10238826745E+02  0.25684713600E+02  0.31971900865E+02  0.10500000000E+00 0. -1.
         13    1    6    6    0    0  0.78767021832E+01 -0.49470364784E+01  0.12476333534E+02  0.15562311225E+02  0.10500000000E+00 0.  1.
</event>
<event>
11    0  0.3476221E-009  0.9118800E+02  0.7816531E-02  0.1126479E+00
         25   -1    0    0    0    0  0.00000000000E+00  0.00000000000E+00  0.99999998245E-14  0.12500000000E+03  0.12500000000E+03 0.  0.
    3000001    1    3    3    0    0  0.46155671239E+01  0.15988530138E+01  0.74068440410E+00  0.50406749768E+01  0.10000000000E+01 0. -1.
    1000022    2    1    0    0    0  0.48140498428E+02  0.91392256259E+01  0.37486225365E+02  0.62500000763E+02  0.99999984683E+01 0.  0.
    3000022    2    3    3    0    0  0.43524931304E+02  0.75403726121E+01  0.36745540960E+02  0.57459325786E+02  0.24995036708E+00 0.  0.
    1000022    2    1    0    0    0 -0.48140498428E+02 -0.91392256259E+01 -0.37486225365E+02  0.62499999237E+02  0.99999889296E+01 0.  0.
    3000022    2    5    5    0    0 -0.23326166205E+02 -0.65292163394E+01 -0.24085917551E+02  0.34160424758E+02  0.24999907905E+00 0.  0.
        -13    1    4    4    0    0  0.30404628488E+02  0.52336453565E+01  0.25705550182E+02  0.40157425370E+02  0.10500000000E+00 0.  1.
         13    1    4    4    0    0  0.13120302817E+02  0.23067272556E+01  0.11039990778E+02  0.17301900416E+02  0.10500000000E+00 0. -1.
    3000001    1    5    5    0    0 -0.24814332223E+02 -0.26100092865E+01 -0.13400307813E+02  0.28339574479E+02  0.10000000000E+01 0.  1.
        -13    1    6    6    0    0 -0.10616634303E+02 -0.30039510903E+01 -0.10887621923E+02  0.15501225184E+02  0.10500000000E+00 0. -1.
         13    1    6    6    0    0 -0.12709531902E+02 -0.35252652491E+01 -0.13198295628E+02  0.18659199574E+02  0.10500000000E+00 0.  1.
</event>
<event>
11    0  0.3476221E-009  0.9118800E+02  0.7816531E-02  0.1126479E+00
         25   -1    0    0    0    0  0.00000000000E+00  0.00000000000E+00  0.99999998245E-14  0.12500000000E+03  0.12500000000E+03 0.  0.
    3000001    1    3    3    0    0 -0.16144334771E+02  0.20397021148E+02 -0.53580982538E+02  0.59570124280E+02  0.10000000000E+01 0.  1.
    1000022    2    1    0    0    0 -0.15787952720E+02  0.22877545033E+02 -0.55078203538E+02  0.62500000512E+02  0.10000002063E+02 0.  0.
    3000022    2    3    3    0    0  0.35638205153E+00  0.24805238848E+01 -0.14972209997E+01  0.29298762327E+01  0.24999421483E+00 0.  0.
    1000022    2    1    0    0    0  0.15787952720E+02 -0.22877545033E+02  0.55078203538E+02  0.62499999488E+02  0.99999956582E+01 0.  0.
    3000022    2    5    5    0    0  0.13494725289E+02 -0.13658210105E+02  0.29528402014E+02  0.35222767471E+02  0.25001786858E+00 0.  0.
        -13    1    4    4    0    0  0.27978857958E+00  0.19113699437E+01 -0.11433867164E+01  0.22472149194E+01  0.10500000000E+00 0.  1.
         13    1    4    4    0    0  0.76593471945E-01  0.56915394112E+00 -0.35383428323E+00  0.68266131327E+00  0.10500000000E+00 0. -1.
    3000001    1    5    5    0    0  0.22932274307E+01 -0.92193349285E+01  0.25549801524E+02  0.27277232016E+02  0.10000000000E+01 0.  1.
        -13    1    6    6    0    0  0.32229860737E+01 -0.32825930094E+01  0.70990164913E+01  0.84599123070E+01  0.10500000000E+00 0.  1.
         13    1    6    6    0    0  0.10271739215E+02 -0.10375617095E+02  0.22429385523E+02  0.26762855164E+02  0.10500000000E+00 0. -1.
</event>
<event>
11    0  0.3476221E-009  0.9118800E+02  0.7816531E-02  0.1126479E+00
         25   -1    0    0    0    0  0.00000000000E+00  0.00000000000E+00  0.99999998245E-14  0.12500000000E+03  0.12500000000E+03 0.  0.
    3000001    1    3    3    0    0 -0.28365152882E+02 -0.41782724411E+02 -0.60517002460E+01  0.50872399522E+02  0.10000000000E+01 0. -1.
    1000022    2    1    0    0    0 -0.34062093107E+02 -0.51365559923E+02 -0.27573516814E+01  0.62500000113E+02  0.10000004642E+02 0.  0.
    3000022    2    3    3    0    0 -0.56969402247E+01 -0.95828355114E+01  0.32943485647E+01  0.11627600591E+02  0.24999735421E+00 0.  0.
    1000022    2    1    0    0    0  0.34062093107E+02  0.51365559923E+02  0.27573516814E+01  0.62499999887E+02  0.10000003227E+02 0.  0.
    3000022    2    5    5    0    0  0.25446904883E+02  0.44517476687E+02  0.84307090887E+00  0.51284734263E+02  0.25000232233E+00 0.  0.
        -13    1    4    4    0    0 -0.21397519181E+01 -0.35185007663E+01  0.11724419338E+01  0.42829932292E+01  0.10500000000E+00 0. -1.
         13    1    4    4    0    0 -0.35571883067E+01 -0.60643347451E+01  0.21219066309E+01  0.73446073619E+01  0.10500000000E+00 0.  1.
    3000001    1    5    5    0    0  0.86151882241E+01  0.68480832360E+01  0.19142807725E+01  0.11215265624E+02  0.10000000000E+01 0.  1.
        -13    1    6    6    0    0  0.10187299406E+02  0.17829459624E+02  0.40061410622E+00  0.20538797831E+02  0.10500000000E+00 0. -1.
         13    1    6    6    0    0  0.15259605477E+02  0.26688017063E+02  0.44245680265E+00  0.30745936432E+02  0.10500000000E+00 0.  1.
</event>
<event>
11    0  0.3476221E-009  0.9118800E+02  0.7816531E-02  0.1126479E+00
         25   -1    0    0    0    0  0.00000000000E+00  0.00000000000E+00  0.99999998245E-14  0.12500000000E+03  0.12500000000E+03 0.  0.
    3000001    1    3    3    0    0 -0.45525932386E+01  0.13708975376E+01 -0.13162970765E+01  0.50336967776E+01  0.10000000000E+01 0. -1.
    1000022    2    1    0    0    0 -0.58212329199E+02 -0.14483237873E+02 -0.14415634285E+02  0.62499999986E+02  0.10000001820E+02 0.  0.
    3000022    2    3    3    0    0 -0.53659735960E+02 -0.15854135410E+02 -0.13099337209E+02  0.57466303209E+02  0.24999245461E+00 0.  0.
    1000022    2    1    0    0    0  0.58212329199E+02  0.14483237873E+02  0.14415634285E+02  0.62500000014E+02  0.10000001990E+02 0.  0.
    3000022    2    5    5    0    0  0.10414379203E+02 -0.12289824635E+01  0.23482381868E+01  0.10749251804E+02  0.24999934293E+00 0.  0.
        -13    1    4    4    0    0 -0.23735114824E+02 -0.69830432280E+01 -0.58536899153E+01  0.25424304888E+02  0.10500000000E+00 0.  1.
         13    1    4    4    0    0 -0.29924621136E+02 -0.88710921824E+01 -0.72456472932E+01  0.32041998320E+02  0.10500000000E+00 0. -1.
    3000001    1    5    5    0    0  0.47797949996E+02  0.15712220336E+02  0.12067396098E+02  0.51750748210E+02  0.10000000000E+01 0. -1.
        -13    1    6    6    0    0  0.73216241109E+01 -0.86903809983E+00  0.16965572353E+01  0.75664217628E+01  0.10500000000E+00 0. -1.
         13    1    6    6    0    0  0.30927550924E+01 -0.35994436368E+00  0.65168095156E+00  0.31828300409E+01  0.10500000000E+00 0.  1.
</event>
<event>
11    0  0.3476221E-009  0.9118800E+02  0.7816531E-02  0.1126479E+00
         25   -1    0    0    0    0  0.00000000000E+00  0.00000000000E+00  0.99999998245E-14  0.12500000000E+03  0.12500000000E+03 0.  0.
    3000001    1    3    3    0    0  0.52919882231E+02  0.60450551586E+01  0.10835992972E+02  0.54364283964E+02  0.10000000000E+01 0. -1.
    1000022    2    1    0    0    0  0.60603823334E+02  0.33913740124E+01  0.11041962437E+02  0.62500001495E+02  0.10000021601E+02 0.  0.
    3000022    2    3    3    0    0  0.76839411028E+01 -0.26536811462E+01  0.20596946489E+00  0.81357175308E+01  0.25000365001E+00 0.  0.
    1000022    2    1    0    0    0 -0.60603823334E+02 -0.33913740124E+01 -0.11041962437E+02  0.62499998505E+02  0.10000002912E+02 0.  0.
    3000022    2    5    5    0    0 -0.33289856777E+02 -0.65319324831E+01 -0.45191580828E+01  0.34225224355E+02  0.24997232050E+00 0.  0.
        -13    1    4    4    0    0  0.28862528402E+01 -0.10239253597E+01  0.22889679616E-01  0.30643804492E+01  0.10500000000E+00 0. -1.
         13    1    4    4    0    0  0.47976882625E+01 -0.16297557864E+01  0.18307978528E+00  0.50713370816E+01  0.10500000000E+00 0.  1.
    3000001    1    5    5    0    0 -0.27313966557E+02  0.31405584706E+01 -0.65228043541E+01  0.28274774150E+02  0.10000000000E+01 0.  1.
        -13    1    6    6    0    0 -0.12326773882E+02 -0.23621187878E+01 -0.16935757786E+01  0.12665235230E+02  0.10500000000E+00 0. -1.
         13    1    6    6    0    0 -0.20963082894E+02 -0.41698136953E+01 -0.28255823042E+01  0.21559989124E+02  0.10500000000E+00 0.  1.
</event>
<event>
11    0  0.3476221E-009  0.9118800E+02  0.7816531E-02  0.1126479E+00
         25   -1    0    0    0    0  0.00000000000E+00  0.00000000000E+00  0.99999998245E-14  0.12500000000E+03  0.12500000000E+03 0.  0.
    3000001    1    3    3    0    0  0.36152976886E+02 -0.27845689268E+02  0.21739160166E+02  0.50557009734E+02  0.10000000000E+01 0.  1.
    1000022    2    1    0    0    0  0.45643258060E+02 -0.35077681289E+02  0.22192324544E+02  0.62499999866E+02  0.99999991859E+01 0.  0.
    3000022    2    3    3    0    0  0.94902811742E+01 -0.72319920207E+01  0.45316437800E+00  0.11942990133E+02  0.25001999869E+00 0.  0.
    1000022    2    1    0    0    0 -0.45643258060E+02  0.35077681289E+02 -0.22192324544E+02  0.62500000134E+02  0.10000000858E+02 0.  0.
    3000022    2    5    5    0    0 -0.28928647607E+02  0.26612660645E+02 -0.18199530805E+02  0.43317268865E+02  0.25000282823E+00 0.  0.
        -13    1    4    4    0    0  0.61399927613E+01 -0.47297756118E+01  0.25468230551E+00  0.77553966065E+01  0.10500000000E+00 0. -1.
         13    1    4    4    0    0  0.33502884129E+01 -0.25022164088E+01  0.19848207249E+00  0.41875935261E+01  0.10500000000E+00 0.  1.
    3000001    1    5    5    0    0 -0.16714610453E+02  0.84650206440E+01 -0.39927937383E+01  0.19182731269E+02  0.10000000000E+01 0. -1.
        -13    1    6    6    0    0 -0.11273550284E+02  0.10293503081E+02 -0.70944467226E+01  0.16834231226E+02  0.10500000000E+00 0.  1.
         13    1    6    6    0    0 -0.17655097323E+02  0.16319157564E+02 -0.11105084083E+02  0.26483037638E+02  0.10500000000E+00 0. -1.
</event>
<event>
11    0  0.3476221E-009  0.9118800E+02  0.7816531E-02  0.1126479E+00
         25   -1    0    0    0    0  0.00000000000E+00  0.00000000000E+00  0.99999998245E-14  0.12500000000E+03  0.12500000000E+03 0.  0.
    3000001    1    3    3    0    0 -0.13261930344E+02 -0.95822987712E+01 -0.10803560103E+01  0.16427611369E+02  0.10000000000E+01 0. -1.
    1000022    2    1    0    0    0 -0.43092012804E+02 -0.43245106519E+02  0.88988214191E+01  0.62499999290E+02  0.10000004162E+02 0.  0.
    3000022    2    3    3    0    0 -0.29830082461E+02 -0.33662807747E+02  0.99791774293E+01  0.46072387921E+02  0.25000301704E+00 0.  0.
    1000022    2    1    0    0    0  0.43092012804E+02  0.43245106519E+02 -0.88988214191E+01  0.62500000710E+02  0.10000013040E+02 0.  0.
    3000022    2    5    5    0    0  0.69217385779E+01  0.88059925195E+01  0.19764288673E+01  0.11376499466E+02  0.24999968799E+00 0.  0.
        -13    1    4    4    0    0 -0.97373699822E+01 -0.10914393665E+02  0.32622641824E+01  0.14986452410E+02  0.10500000000E+00 0.  1.
         13    1    4    4    0    0 -0.20092712478E+02 -0.22748414083E+02  0.67169132469E+01  0.31085935511E+02  0.10500000000E+00 0. -1.
    3000001    1    5    5    0    0  0.36170274226E+02  0.34439113999E+02 -0.10875250286E+02  0.51123501244E+02  0.10000000000E+01 0. -1.
        -13    1    6    6    0    0  0.31546969043E+01  0.40358573354E+01  0.83738893675E+00  0.51915799349E+01  0.10500000000E+00 0. -1.
         13    1    6    6    0    0  0.37670416736E+01  0.47701351841E+01  0.11390399306E+01  0.61849195313E+01  0.10500000000E+00 0.  1.
</event>
<event>
11    0  0.3476221E-009  0.9118800E+02  0.7816531E-02  0.1126479E+00
         25   -1    0    0    0    0  0.00000000000E+00  0.00000000000E+00  0.99999998245E-14  0.12500000000E+03  0.12500000000E+03 0.  0.
    3000001    1    3    3    0    0  0.76333216777E+01  0.47272818044E+01  0.42435309928E+01  0.99810995577E+01  0.10000000000E+01 0.  1.
    1000022    2    1    0    0    0  0.51961723003E+02  0.85206613144E+01  0.32150079948E+02  0.62499999645E+02  0.99999994179E+01 0.  0.
    3000022    2    3    3    0    0  0.44328401325E+02  0.37933795100E+01  0.27906548955E+02  0.52518900088E+02  0.24999938269E+00 0.  0.
    1000022    2    1    0    0    0 -0.51961723003E+02 -0.85206613144E+01 -0.32150079948E+02  0.62500000355E+02  0.10000003853E+02 0.  0.
    3000022    2    5    5    0    0 -0.38620495438E+02 -0.92308971117E+01 -0.20220519048E+02  0.44561014567E+02  0.24999867118E+00 0.  0.
        -13    1    4    4    0    0  0.16204992049E+02  0.13376793920E+01  0.10237996827E+02  0.19215065899E+02  0.10500000000E+00 0. -1.
         13    1    4    4    0    0  0.28123409276E+02  0.24557001180E+01  0.17668552128E+02  0.33303834189E+02  0.10500000000E+00 0.  1.
    3000001    1    5    5    0    0 -0.13341227565E+02  0.71023579734E+00 -0.11929560900E+02  0.17938985788E+02  0.10000000000E+01 0.  1.
        -13    1    6    6    0    0 -0.16979775391E+02 -0.40847077034E+01 -0.89616999470E+01  0.19629587369E+02  0.10500000000E+00 0. -1.
         13    1    6    6    0    0 -0.21640720047E+02 -0.51461894083E+01 -0.11258819101E+02  0.24931427198E+02  0.10500000000E+00 0.  1.
</event>
<event>
11    0  0.3476221E-009  0.9118800E+02  0.7816531E-02  0.1126479E+00
         25   -1    0    0    0    0  0.00000000000E+00  0.00000000000E+00  0.99999998245E-14  0.12500000000E+03  0.12500000000E+03 0.  0.
    3000001    1    3    3    0    0 -0.21068884066E+02 -0.50800904590E+02 -0.64515507220E+01  0.55382779721E+02  0.10000000000E+01 0. -1.
    1000022    2    1    0    0    0 -0.20617217185E+02 -0.57863768475E+02 -0.57414888652E+01  0.62499998714E+02  0.99999899137E+01 0.  0.
    3000022    2    3    3    0    0  0.45166688081E+00 -0.70628638858E+01  0.71006185681E+00  0.71172189934E+01  0.25013819940E+00 0.  0.
    1000022    2    1    0    0    0  0.20617217185E+02  0.57863768475E+02  0.57414888652E+01  0.62500001286E+02  0.10000005985E+02 0.  0.
    3000022    2    5    5    0    0  0.60806377260E+01  0.68173857040E+01  0.41142924048E+00  0.91478235232E+01  0.24999639778E+00 0.  0.
        -13    1    4    4    0    0  0.21195262809E+00 -0.39389315304E+01  0.34229271215E+00  0.39608452152E+01  0.10500000000E+00 0.  1.
         13    1    4    4    0    0  0.23971425271E+00 -0.31239323554E+01  0.36776914466E+00  0.31563737782E+01  0.10500000000E+00 0. -1.
    3000001    1    5    5    0    0  0.14536579459E+02  0.51046382771E+02  0.53300596247E+01  0.53352177763E+02  0.10000000000E+01 0. -1.
        -13    1    6    6    0    0  0.39831358557E+01  0.44047473976E+01  0.30675271898E+00  0.59474610644E+01  0.10500000000E+00 0.  1.
         13    1    6    6    0    0  0.20975018702E+01  0.24126383064E+01  0.10467652150E+00  0.32003624587E+01  0.10500000000E+00 0. -1.
</event>
<event>
11    0  0.3476221E-009  0.9118800E+02  0.7816531E-02  0.1126479E+00
         25   -1    0    0    0    0  0.00000000000E+00  0.00000000000E+00  0.99999998245E-14  0.12500000000E+03  0.12500000000E+03 0.  0.
    3000001    1    3    3    0    0 -0.12419049688E+02  0.14076434520E+02  0.24168293122E+02  0.30618380042E+02  0.10000000000E+01 0.  1.
    1000022    2    1    0    0    0 -0.20265384578E+02  0.21478442405E+02  0.54168632734E+02  0.62499998007E+02  0.99999839188E+01 0.  0.
    3000022    2    3    3    0    0 -0.78463348896E+01  0.74020078845E+01  0.30000339612E+02  0.31881617965E+02  0.24999061948E+00 0.  0.
    1000022    2    1    0    0    0  0.20265384578E+02 -0.21478442405E+02 -0.54168632734E+02  0.62500001993E+02  0.10000008831E+02 0.  0.
    3000022    2    5    5    0    0  0.24119222960E+01 -0.53352655944E+01 -0.18910124277E+02  0.19797417861E+02  0.25005128438E+00 0.  0.
        -13    1    4    4    0    0 -0.47429959195E+01  0.45178436788E+01  0.18057314394E+02  0.19208970558E+02  0.10500000000E+00 0. -1.
         13    1    4    4    0    0 -0.31033389701E+01  0.28841642057E+01  0.11943025219E+02  0.12672647407E+02  0.10500000000E+00 0.  1.
    3000001    1    5    5    0    0  0.17853462282E+02 -0.16143176810E+02 -0.35258508457E+02  0.42702584132E+02  0.10000000000E+01 0. -1.
        -13    1    6    6    0    0  0.14617218723E+01 -0.32390636967E+01 -0.11683948745E+02  0.12212855839E+02  0.10500000000E+00 0.  1.
         13    1    6    6    0    0  0.95020042368E+00 -0.20962018977E+01 -0.72261755323E+01  0.75845620219E+01  0.10500000000E+00 0. -1.
</event>
<event>
11    0  0.3476221E-009  0.9118800E+02  0.7816531E-02  0.1126479E+00
         25   -1    0    0    0    0  0.00000000000E+00  0.00000000000E+00  0.99999998245E-14  0.12500000000E+03  0.12500000000E+03 0.  0.
    3000001    1    3    3    0    0 -0.11010520695E+02  0.25442001465E+01  0.92979458668E+01  0.14668207719E+02  0.10000000000E+01 0.  1.
    1000022    2    1    0    0    0 -0.50297498756E+02 -0.59298010551E+01  0.35231365696E+02  0.62499997789E+02  0.99999836596E+01 0.  0.
    3000022    2    3    3    0    0 -0.39286978061E+02 -0.84740012016E+01  0.25933419829E+02  0.47831790070E+02  0.25007140879E+00 0.  0.
    1000022    2    1    0    0    0  0.50297498756E+02  0.59298010551E+01 -0.35231365696E+02  0.62500002211E+02  0.10000011297E+02 0.  0.
    3000022    2    5    5    0    0  0.34300701203E+01  0.30822957432E+01 -0.38883638226E+01  0.60372010068E+01  0.24998940138E+00 0.  0.
        -13    1    4    4    0    0 -0.99690282367E+01 -0.21283035522E+01  0.65554962552E+01  0.12120097200E+02  0.10500000000E+00 0.  1.
         13    1    4    4    0    0 -0.29317949825E+02 -0.63456976494E+01  0.19377923574E+02  0.35711692869E+02  0.10500000000E+00 0. -1.
    3000001    1    5    5    0    0  0.46867428636E+02  0.28475053119E+01 -0.31343001873E+02  0.56462801204E+02  0.10000000000E+01 0.  1.
        -13    1    6    6    0    0  0.14278770484E+01  0.11979342667E+01 -0.15759616791E+01  0.24430635658E+01  0.10500000000E+00 0.  1.
         13    1    6    6    0    0  0.20021930719E+01  0.18843614766E+01 -0.23124021435E+01  0.35941374410E+01  0.10500000000E+00 0. -1.
</event>
<event>
11    0  0.3476221E-009  0.9118800E+02  0.7816531E-02  0.1126479E+00
         25   -1    0    0    0    0  0.00000000000E+00  0.00000000000E+00  0.99999998245E-14  0.12500000000E+03  0.12500000000E+03 0.  0.
    3000001    1    3    3    0    0 -0.23463970842E+02 -0.33911318522E+02 -0.73211505872E+01  0.41894327749E+02  0.10000000000E+01 0. -1.
    1000022    2    1    0    0    0 -0.38756667862E+02 -0.45817999654E+02 -0.14313687997E+02  0.62499999734E+02  0.99999953329E+01 0.  0.
    3000022    2    3    3    0    0 -0.15292697019E+02 -0.11906681132E+02 -0.69925374094E+01  0.20605671985E+02  0.25000168261E+00 0.  0.
    1000022    2    1    0    0    0  0.38756667862E+02  0.45817999654E+02  0.14313687997E+02  0.62500000266E+02  0.99999986587E+01 0.  0.
    3000022    2    5    5    0    0  0.12616993804E+02  0.10650837501E+02  0.75285413299E+01  0.18148562082E+02  0.24999791355E+00 0.  0.
        -13    1    4    4    0    0 -0.42865547564E+01 -0.33590380852E+01 -0.19265376834E+01  0.57775653162E+01  0.10500000000E+00 0. -1.
         13    1    4    4    0    0 -0.11006142263E+02 -0.85476430465E+01 -0.50659997260E+01  0.14828106669E+02  0.10500000000E+00 0.  1.
    3000001    1    5    5    0    0  0.26139674058E+02  0.35167162153E+02  0.67851466667E+01  0.44351438184E+02  0.10000000000E+01 0.  1.
        -13    1    6    6    0    0  0.45404759418E+01  0.37766980207E+01  0.27354095167E+01  0.65094439042E+01  0.10500000000E+00 0. -1.
         13    1    6    6    0    0  0.80765178621E+01  0.68741394802E+01  0.47931318132E+01  0.11639118177E+02  0.10500000000E+00 0.  1.
</event>
<event>
11    0  0.3476221E-009  0.9118800E+02  0.7816531E-02  0.1126479E+00
         25   -1    0    0    0    0  0.00000000000E+00  0.00000000000E+00  0.99999998245E-14  0.12500000000E+03  0.12500000000E+03 0.  0.
    3000001    1    3    3    0    0 -0.35837163852E+00  0.66748256978E+00  0.28834109989E+00  0.12872854393E+01  0.10000000000E+01 0.  1.
    1000022    2    1    0    0    0  0.20038807254E+01  0.20947970257E+02  0.57994973653E+02  0.62499999450E+02  0.99999983206E+01 0.  0.
    3000022    2    3    3    0    0  0.23622523639E+01  0.20280487687E+02  0.57706632553E+02  0.61212714011E+02  0.24999780230E+00 0.  0.
    1000022    2    1    0    0    0 -0.20038807254E+01 -0.20947970257E+02 -0.57994973653E+02  0.62500000550E+02  0.10000005192E+02 0.  0.
    3000022    2    5    5    0    0  0.11999399410E+01 -0.95349857394E+01 -0.38325878867E+02  0.39513178843E+02  0.25000492197E+00 0.  0.
        -13    1    4    4    0    0  0.10230825629E+01  0.82461900011E+01  0.23443253374E+02  0.24872545130E+02  0.10500000000E+00 0.  1.
         13    1    4    4    0    0  0.13391698010E+01  0.12034297686E+02  0.34263379179E+02  0.36340168881E+02  0.10500000000E+00 0. -1.
    3000001    1    5    5    0    0 -0.32038206664E+01 -0.11412984518E+02 -0.19669094786E+02  0.22986821707E+02  0.10000000000E+01 0.  1.
        -13    1    6    6    0    0  0.30318444993E+00 -0.22780782386E+01 -0.91344588012E+01  0.94197093300E+01  0.10500000000E+00 0.  1.
         13    1    6    6    0    0  0.89675549110E+00 -0.72569075008E+01 -0.29191420066E+02  0.30093469513E+02  0.10500000000E+00 0. -1.
</event>
<event>
11    0  0.3476221E-009  0.9118800E+02  0.7816531E-02  0.1126479E+00
         25   -1    0    0    0    0  0.00000000000E+00  0.00000000000E+00  0.99999998245E-14  0.12500000000E+03  0.12500000000E+03 0.  0.
    3000001    1    3    3    0    0  0.12965166127E+02  0.32190885061E+02 -0.33028401518E+02  0.47918930711E+02  0.10000000000E+01 0.  1.
    1000022    2    1    0    0    0  0.18468979361E+02  0.37337187343E+02 -0.45509133965E+02  0.62499999622E+02  0.99999960570E+01 0.  0.
    3000022    2    3    3    0    0  0.55038132347E+01  0.51463022827E+01 -0.12480732448E+02  0.14581068911E+02  0.25000170990E+00 0.  0.
    1000022    2    1    0    0    0 -0.18468979361E+02 -0.37337187343E+02  0.45509133965E+02  0.62500000378E+02  0.10000000778E+02 0.  0.
    3000022    2    5    5    0    0  0.73748327460E+00 -0.56306101207E+00  0.27513086757E+01  0.29142957336E+01  0.25000182032E+00 0.  0.
        -13    1    4    4    0    0  0.18170712114E+01  0.16917632896E+01 -0.42161407269E+01  0.48939430365E+01  0.10500000000E+00 0. -1.
         13    1    4    4    0    0  0.36867420232E+01  0.34545389931E+01 -0.82645917207E+01  0.96871258746E+01  0.10500000000E+00 0.  1.
    3000001    1    5    5    0    0 -0.19206462636E+02 -0.36774126331E+02  0.42757825290E+02  0.59585704644E+02  0.10000000000E+01 0. -1.
        -13    1    6    6    0    0  0.31805481620E+00 -0.16557180163E+00  0.10675537924E+01  0.11310477387E+01  0.10500000000E+00 0. -1.
         13    1    6    6    0    0  0.41942845840E+00 -0.39748921044E+00  0.16837548834E+01  0.17832479949E+01  0.10500000000E+00 0.  1.
</event>
<event>
11    0  0.3476221E-009  0.9118800E+02  0.7816531E-02  0.1126479E+00
         25   -1    0    0    0    0  0.00000000000E+00  0.00000000000E+00  0.99999998245E-14  0.12500000000E+03  0.12500000000E+03 0.  0.
    3000001    1    3    3    0    0 -0.22577055737E+02  0.13773553600E+02 -0.10114315771E+02  0.28332553856E+02  0.10000000000E+01 0. -1.
    1000022    2    1    0    0    0 -0.47716512164E+02  0.36633827236E+02 -0.13687482912E+02  0.62500000455E+02  0.10000001870E+02 0.  0.
    3000022    2    3    3    0    0 -0.25139456427E+02  0.22860273636E+02 -0.35731671406E+01  0.34167446599E+02  0.25000700418E+00 0.  0.
    1000022    2    1    0    0    0  0.47716512164E+02 -0.36633827236E+02  0.13687482912E+02  0.62499999545E+02  0.99999961794E+01 0.  0.
    3000022    2    5    5    0    0  0.45467910829E+02 -0.35279686519E+02  0.10959944800E+02  0.58584725710E+02  0.25000109061E+00 0.  0.
        -13    1    4    4    0    0 -0.13592233020E+02  0.12273983536E+02 -0.19042221924E+01  0.18412945378E+02  0.10500000000E+00 0. -1.
         13    1    4    4    0    0 -0.11547223407E+02  0.10586290100E+02 -0.16689449483E+01  0.15754501221E+02  0.10500000000E+00 0.  1.
    3000001    1    5    5    0    0  0.22486013353E+01 -0.13541407174E+01  0.27275381121E+01  0.39152738347E+01  0.10000000000E+01 0.  1.
        -13    1    6    6    0    0  0.13182373182E+02 -0.10270802022E+02  0.31548972554E+01  0.17006726275E+02  0.10500000000E+00 0. -1.
         13    1    6    6    0    0  0.32285537647E+02 -0.25008884496E+02  0.78050475444E+01  0.41577999436E+02  0.10500000000E+00 0.  1.
</event>
<event>
11    0  0.3476221E-009  0.9118800E+02  0.7816531E-02  0.1126479E+00
         25   -1    0    0    0    0  0.00000000000E+00  0.00000000000E+00  0.99999998245E-14  0.12500000000E+03  0.12500000000E+03 0.  0.
    3000001    1    3    3    0    0  0.65132211445E+01  0.52199419332E+02  0.14387806200E+02  0.54545489232E+02  0.10000000000E+01 0. -1.
    1000022    2    1    0    0    0  0.46923132810E+01  0.59923676918E+02  0.13906326366E+02  0.62499995668E+02  0.99999343145E+01 0.  0.
    3000022    2    3    3    0    0 -0.18209078635E+01  0.77242575855E+01 -0.48147983403E+00  0.79545064366E+01  0.24997824804E+00 0.  0.
    1000022    2    1    0    0    0 -0.46923132810E+01 -0.59923676918E+02 -0.13906326366E+02  0.62500004332E+02  0.99999884593E+01 0.  0.
    3000022    2    5    5    0    0 -0.77004944171E+01 -0.38020234691E+02 -0.93594542935E+01  0.39906111777E+02  0.25002451412E+00 0.  0.
        -13    1    4    4    0    0 -0.90735479715E+00  0.36003354197E+01 -0.26106256834E+00  0.37235583152E+01  0.10500000000E+00 0. -1.
         13    1    4    4    0    0 -0.91355306631E+00  0.41239221658E+01 -0.22041726569E+00  0.42309481213E+01  0.10500000000E+00 0.  1.
    3000001    1    5    5    0    0  0.30081811361E+01 -0.21903442227E+02 -0.45468720725E+01  0.22593892555E+02  0.10000000000E+01 0. -1.
        -13    1    6    6    0    0 -0.36206455516E+01 -0.17966980410E+02 -0.44889990343E+01  0.18870177439E+02  0.10500000000E+00 0.  1.
         13    1    6    6    0    0 -0.40798488655E+01 -0.20053254281E+02 -0.48704552592E+01  0.21035934337E+02  0.10500000000E+00 0. -1.
</event>
<event>
11    0  0.3476221E-009  0.9118800E+02  0.7816531E-02  0.1126479E+00
         25   -1    0    0    0    0  0.00000000000E+00  0.00000000000E+00  0.99999998245E-14  0.12500000000E+03  0.12500000000E+03 0.  0.
    3000001    1    3    3    0    0 -0.32240354640E+02  0.13683990303E+01 -0.67540996554E+01  0.32983796710E+02  0.10000000000E+01 0. -1.
    1000022    2    1    0    0    0 -0.57731132875E+02  0.53826980799E+01 -0.21080627054E+02  0.62500000179E+02  0.10000002192E+02 0.  0.
    3000022    2    3    3    0    0 -0.25490778234E+02  0.40142990496E+01 -0.14326527398E+02  0.29516203469E+02  0.25001621833E+00 0.  0.
    1000022    2    1    0    0    0  0.57731132875E+02 -0.53826980799E+01  0.21080627054E+02  0.62499999821E+02  0.99999999508E+01 0.  0.
    3000022    2    5    5    0    0  0.30641885853E+02 -0.64643853929E-02  0.67822657091E+01  0.31384499984E+02  0.25000139129E+00 0.  0.
        -13    1    4    4    0    0 -0.13969898257E+02  0.22188562212E+01 -0.79263597960E+01  0.16214795246E+02  0.10500000000E+00 0.  1.
         13    1    4    4    0    0 -0.11520879977E+02  0.17954428284E+01 -0.64001676022E+01  0.13301408224E+02  0.10500000000E+00 0. -1.
    3000001    1    5    5    0    0  0.27089247021E+02 -0.53762336945E+01  0.14298361345E+02  0.31115499836E+02  0.10000000000E+01 0. -1.
        -13    1    6    6    0    0  0.11547253648E+02 -0.62863572351E-01  0.25550025703E+01  0.11827175562E+02  0.10500000000E+00 0. -1.
         13    1    6    6    0    0  0.19094632205E+02  0.56399186958E-01  0.42272631389E+01  0.19557324422E+02  0.10500000000E+00 0.  1.
</event>
<event>
11    0  0.3476221E-009  0.9118800E+02  0.7816531E-02  0.1126479E+00
         25   -1    0    0    0    0  0.00000000000E+00  0.00000000000E+00  0.99999998245E-14  0.12500000000E+03  0.12500000000E+03 0.  0.
    3000001    1    3    3    0    0 -0.24672277713E+02 -0.13869377900E+02 -0.63793997341E+01  0.29030633335E+02  0.10000000000E+01 0.  1.
    1000022    2    1    0    0    0 -0.56625723348E+02 -0.23805177577E+02 -0.57525048826E+01  0.62499996885E+02  0.99999637042E+01 0.  0.
    3000022    2    3    3    0    0 -0.31953445635E+02 -0.99357996768E+01  0.62689485145E+00  0.33469363550E+02  0.24999223341E+00 0.  0.
    1000022    2    1    0    0    0  0.56625723348E+02  0.23805177577E+02  0.57525048826E+01  0.62500003115E+02  0.10000002636E+02 0.  0.
    3000022    2    5    5    0    0  0.32277372139E+01  0.40505776425E+01  0.14987262446E+01  0.53976058403E+01  0.25000338180E+00 0.  0.
        -13    1    4    4    0    0 -0.14926179969E+02 -0.46762118889E+01  0.23456379382E+00  0.15643652108E+02  0.10500000000E+00 0.  1.
         13    1    4    4    0    0 -0.17027265667E+02 -0.52595877879E+01  0.39233105763E+00  0.17825711443E+02  0.10500000000E+00 0. -1.
    3000001    1    5    5    0    0  0.53397986134E+02  0.19754599934E+02  0.42537786380E+01  0.57102397274E+02  0.10000000000E+01 0.  1.
        -13    1    6    6    0    0  0.17698581171E+01  0.22463085014E+01  0.76000562152E+00  0.29609007385E+01  0.10500000000E+00 0. -1.
         13    1    6    6    0    0  0.14578790968E+01  0.18042691411E+01  0.73872062308E+00  0.24367051018E+01  0.10500000000E+00 0.  1.
</event>
<event>
11    0  0.3476221E-009  0.9118800E+02  0.7816531E-02  0.1126479E+00
         25   -1    0    0    0    0  0.00000000000E+00  0.00000000000E+00  0.99999998245E-14  0.12500000000E+03  0.12500000000E+03 0.  0.
    3000001    1    3    3    0    0  0.44512578215E+02  0.67969179173E+01  0.17104977529E+02  0.48178293544E+02  0.10000000000E+01 0. -1.
    1000022    2    1    0    0    0  0.57095054829E+02  0.13295522511E+02  0.19225858825E+02  0.62499998048E+02  0.99999951862E+01 0.  0.
    3000022    2    3    3    0    0  0.12582476614E+02  0.64986045933E+01  0.21208812958E+01  0.14321704504E+02  0.25000608075E+00 0.  0.
    1000022    2    1    0    0    0 -0.57095054829E+02 -0.13295522511E+02 -0.19225858825E+02  0.62500001952E+02  0.10000019585E+02 0.  0.
    3000022    2    5    5    0    0 -0.12884284895E+02 -0.44080404273E+01 -0.87654986341E+01  0.16196668905E+02  0.24999930710E+00 0.  0.
        -13    1    4    4    0    0  0.80409455836E+01  0.41909851313E+01  0.13101213908E+01  0.91623471506E+01  0.10500000000E+00 0.  1.
         13    1    4    4    0    0  0.45415310301E+01  0.23076194620E+01  0.81075990502E+00  0.51593573537E+01  0.10500000000E+00 0. -1.
    3000001    1    5    5    0    0 -0.44210769934E+02 -0.88874820833E+01 -0.10460360191E+02  0.46303333047E+02  0.10000000000E+01 0. -1.
        -13    1    6    6    0    0 -0.64169598929E+01 -0.21326031446E+01 -0.43136703344E+01  0.80214803617E+01  0.10500000000E+00 0. -1.
         13    1    6    6    0    0 -0.64673250016E+01 -0.22754372827E+01 -0.44518282996E+01  0.81751885430E+01  0.10500000000E+00 0.  1.
</event>
<event>
11    0  0.3476221E-009  0.9118800E+02  0.7816531E-02  0.1126479E+00
         25   -1    0    0    0    0  0.00000000000E+00  0.00000000000E+00  0.99999998245E-14  0.12500000000E+03  0.12500000000E+03 0.  0.
    3000001    1    3    3    0    0 -0.88012109743E+01  0.47847931428E+01 -0.27458621686E+01  0.10435291998E+02  0.10000000000E+01 0.  1.
    1000022    2    1    0    0    0 -0.41994993967E+02  0.28284254131E+02 -0.35251542595E+02  0.62499998457E+02  0.10000000091E+02 0.  0.
    3000022    2    3    3    0    0 -0.33193782993E+02  0.23499460988E+02 -0.32505680427E+02  0.52064706460E+02  0.25000524909E+00 0.  0.
    1000022    2    1    0    0    0  0.41994993967E+02 -0.28284254131E+02  0.35251542595E+02  0.62500001543E+02  0.10000019373E+02 0.  0.
    3000022    2    5    5    0    0  0.87692986488E+01 -0.82550680830E+01  0.13173403191E+02  0.17850708573E+02  0.24999416984E+00 0.  0.
        -13    1    4    4    0    0 -0.13959093827E+02  0.98633368196E+01 -0.13741654565E+02  0.21931388667E+02  0.10500000000E+00 0.  1.
         13    1    4    4    0    0 -0.19234689165E+02  0.13636124169E+02 -0.18764025862E+02  0.30133317792E+02  0.10500000000E+00 0. -1.
    3000001    1    5    5    0    0  0.33225695318E+02 -0.20029186048E+02  0.22078139404E+02  0.44649292969E+02  0.10000000000E+01 0. -1.
        -13    1    6    6    0    0  0.48992150373E+01 -0.45405319220E+01  0.72445665127E+01  0.98546185656E+01  0.10500000000E+00 0.  1.
         13    1    6    6    0    0  0.38700836116E+01 -0.37145361610E+01  0.59288366785E+01  0.79960900077E+01  0.10500000000E+00 0. -1.
</event>
<event>
11    0  0.3476221E-009  0.9118800E+02  0.7816531E-02  0.1126479E+00
         25   -1    0    0    0    0  0.00000000000E+00  0.00000000000E+00  0.99999998245E-14  0.12500000000E+03  0.12500000000E+03 0.  0.
    3000001    1    3    3    0    0  0.17673976551E+01  0.56866377054E+00 -0.72246096083E+00  0.22291305020E+01  0.10000000000E+01 0. -1.
    1000022    2    1    0    0    0  0.48251879900E+02 -0.27651871577E+02 -0.26709173665E+02  0.62499997818E+02  0.99999926916E+01 0.  0.
    3000022    2    3    3    0    0  0.46484482244E+02 -0.28220535347E+02 -0.25986712704E+02  0.60270867316E+02  0.25001002948E+00 0.  0.
    1000022    2    1    0    0    0 -0.48251879900E+02  0.27651871577E+02  0.26709173665E+02  0.62500002182E+02  0.10000019965E+02 0.  0.
    3000022    2    5    5    0    0 -0.46992809566E+02  0.27789058191E+02  0.26922371899E+02  0.60872263948E+02  0.25000680215E+00 0.  0.
        -13    1    4    4    0    0  0.31438154244E+02 -0.19136473307E+02 -0.17618664844E+02  0.40804295470E+02  0.10500000000E+00 0. -1.
         13    1    4    4    0    0  0.15046328001E+02 -0.90840620402E+01 -0.83680478606E+01  0.19466571846E+02  0.10500000000E+00 0.  1.
    3000001    1    5    5    0    0 -0.12590703339E+01 -0.13718661399E+00 -0.21319823395E+00  0.16277382344E+01  0.10000000000E+01 0.  1.
        -13    1    6    6    0    0 -0.13965973214E+02  0.82094547347E+01  0.79724073790E+01  0.18055853878E+02  0.10500000000E+00 0.  1.
         13    1    6    6    0    0 -0.33026836352E+02  0.19579603456E+02  0.18949964520E+02  0.42816410070E+02  0.10500000000E+00 0. -1.
</event>
<event>
11    0  0.3476221E-009  0.9118800E+02  0.7816531E-02  0.1126479E+00
         25   -1    0    0    0    0  0.00000000000E+00  0.00000000000E+00  0.99999998245E-14  0.12500000000E+03  0.12500000000E+03 0.  0.
    3000001    1    3    3    0    0  0.49303645431E+01 -0.47642502886E+01 -0.74283497055E+01  0.10158097986E+02  0.10000000000E+01 0. -1.
    1000022    2    1    0    0    0  0.40594981083E+02 -0.98753661498E+01 -0.45395754929E+02  0.62500000322E+02  0.10000006449E+02 0.  0.
    3000022    2    3    3    0    0  0.35664616540E+02 -0.51111158613E+01 -0.37967405223E+02  0.52341902336E+02  0.25000501902E+00 0.  0.
    1000022    2    1    0    0    0 -0.40594981083E+02  0.98753661498E+01  0.45395754929E+02  0.62499999678E+02  0.10000002423E+02 0.  0.
    3000022    2    5    5    0    0 -0.90842468778E+01  0.59354684195E+01  0.83401906951E+01  0.13688484592E+02  0.25000581297E+00 0.  0.
        -13    1    4    4    0    0  0.15321237124E+02 -0.21940570525E+01 -0.16215250217E+02  0.22416501912E+02  0.10500000000E+00 0.  1.
         13    1    4    4    0    0  0.20343379415E+02 -0.29170588088E+01 -0.21752155006E+02  0.29925400424E+02  0.10500000000E+00 0. -1.
    3000001    1    5    5    0    0 -0.31510734205E+02  0.39398977303E+01  0.37055564234E+02  0.48811515086E+02  0.10000000000E+01 0. -1.
        -13    1    6    6    0    0 -0.57755953115E+01  0.38427239550E+01  0.53223606795E+01  0.87442882385E+01  0.10500000000E+00 0. -1.
         13    1    6    6    0    0 -0.33086515663E+01  0.20927444645E+01  0.30178300156E+01  0.49441963537E+01  0.10500000000E+00 0.  1.
</event>
<event>
11    0  0.3476221E-009  0.9118800E+02  0.7816531E-02  0.1126479E+00
         25   -1    0    0    0    0  0.00000000000E+00  0.00000000000E+00  0.99999998245E-14  0.12500000000E+03  0.12500000000E+03 0.  0.
    3000001    1    3    3    0    0  0.22193286610E+02  0.45787977087E+01  0.21427007073E+02  0.31202948436E+02  0.10000000000E+01 0.  1.
    1000022    2    1    0    0    0  0.50092010524E+02  0.56607001942E+01  0.35566796224E+02  0.62500000310E+02  0.10000000005E+02 0.  0.
    3000022    2    3    3    0    0  0.27898723915E+02  0.10819024855E+01  0.14139789151E+02  0.31297051874E+02  0.25001947152E+00 0.  0.
    1000022    2    1    0    0    0 -0.50092010524E+02 -0.56607001942E+01 -0.35566796224E+02  0.62499999690E+02  0.99999961270E+01 0.  0.
    3000022    2    5    5    0    0 -0.47090222913E+02 -0.31898248143E+01 -0.31257847749E+02  0.56610773003E+02  0.24999553269E+00 0.  0.
        -13    1    4    4    0    0  0.83807473490E+01  0.28220864277E+00  0.42657936434E+01  0.94087506213E+01  0.10500000000E+00 0.  1.
         13    1    4    4    0    0  0.19517976565E+02  0.79969384275E+00  0.98739955078E+01  0.21888301253E+02  0.10500000000E+00 0. -1.
    3000001    1    5    5    0    0 -0.30017876108E+01 -0.24708753799E+01 -0.43089484749E+01  0.58892266863E+01  0.10000000000E+01 0. -1.
        -13    1    6    6    0    0 -0.23043740647E+02 -0.16049778956E+01 -0.15236207530E+02  0.27672061397E+02  0.10500000000E+00 0. -1.
         13    1    6    6    0    0 -0.24046482266E+02 -0.15848469187E+01 -0.16021640219E+02  0.28938711606E+02  0.10500000000E+00 0.  1.
</event>
<event>
11    0  0.3476221E-009  0.9118800E+02  0.7816531E-02  0.1126479E+00
         25   -1    0    0    0    0  0.00000000000E+00  0.00000000000E+00  0.99999998245E-14  0.12500000000E+03  0.12500000000E+03 0.  0.
    3000001    1    3    3    0    0  0.36375993222E+02 -0.11375761009E+02 -0.26465808543E+02  0.46411850247E+02  0.10000000000E+01 0.  1.
    1000022    2    1    0    0    0  0.45849190743E+02 -0.12184601775E+02 -0.39441568107E+02  0.62499999058E+02  0.99999887633E+01 0.  0.
    3000022    2    3    3    0    0  0.94731975205E+01 -0.80884076538E+00 -0.12975759564E+02  0.16088148811E+02  0.25000252744E+00 0.  0.
    1000022    2    1    0    0    0 -0.45849190743E+02  0.12184601775E+02  0.39441568107E+02  0.62500000942E+02  0.10000000544E+02 0.  0.
    3000022    2    5    5    0    0 -0.34823833507E+02  0.78249577117E+01  0.24022672409E+02  0.43024186631E+02  0.25000460193E+00 0.  0.
        -13    1    4    4    0    0  0.23460971182E+01 -0.21985117965E+00 -0.31913260647E+01  0.39683867352E+01  0.10500000000E+00 0.  1.
         13    1    4    4    0    0  0.71271004023E+01 -0.58898958573E+00 -0.97844334990E+01  0.12119762076E+02  0.10500000000E+00 0. -1.
    3000001    1    5    5    0    0 -0.11025357236E+02  0.43596440629E+01  0.15418895698E+02  0.19475814311E+02  0.10000000000E+01 0. -1.
        -13    1    6    6    0    0 -0.83758462027E+01  0.18805907136E+01  0.58018438631E+01  0.10361652294E+02  0.10500000000E+00 0.  1.
         13    1    6    6    0    0 -0.26447987304E+02  0.59443669982E+01  0.18220828546E+02  0.32662534338E+02  0.10500000000E+00 0. -1.
</event>
<event>
11    0  0.3476221E-009  0.9118800E+02  0.7816531E-02  0.1126479E+00
         25   -1    0    0    0    0  0.00000000000E+00  0.00000000000E+00  0.99999998245E-14  0.12500000000E+03  0.12500000000E+03 0.  0.
    3000001    1    3    3    0    0 -0.30727170145E+02 -0.23826225470E+02 -0.21627150309E+02  0.44503726088E+02  0.10000000000E+01 0. -1.
    1000022    2    1    0    0    0 -0.43715572212E+02 -0.35922108596E+02 -0.24592698178E+02  0.62500001700E+02  0.10000013454E+02 0.  0.
    3000022    2    3    3    0    0 -0.12988402067E+02 -0.12095883125E+02 -0.29655478693E+01  0.17996275612E+02  0.24996978523E+00 0.  0.
    1000022    2    1    0    0    0  0.43715572212E+02  0.35922108596E+02  0.24592698178E+02  0.62499998300E+02  0.99999922009E+01 0.  0.
    3000022    2    5    5    0    0  0.43740886901E+02  0.34520555391E+02  0.23615744558E+02  0.60520243114E+02  0.25000842860E+00 0.  0.
        -13    1    4    4    0    0 -0.58546605558E+01 -0.54382931049E+01 -0.14019391950E+01  0.81134789471E+01  0.10500000000E+00 0. -1.
         13    1    4    4    0    0 -0.71337415112E+01 -0.66575900205E+01 -0.15636086743E+01  0.98827966647E+01  0.10500000000E+00 0.  1.
    3000001    1    5    5    0    0 -0.25314688720E-01  0.14015532044E+01  0.97695362047E+00  0.19797551856E+01  0.10000000000E+01 0.  1.
        -13    1    6    6    0    0  0.18952333466E+02  0.14931720640E+02  0.10157720329E+02  0.26178952087E+02  0.10500000000E+00 0.  1.
         13    1    6    6    0    0  0.24788553435E+02  0.19588834751E+02  0.13458024229E+02  0.34341291028E+02  0.10500000000E+00 0. -1.
</event>
<event>
11    0  0.3476221E-009  0.9118800E+02  0.7816531E-02  0.1126479E+00
         25   -1    0    0    0    0  0.00000000000E+00  0.00000000000E+00  0.99999998245E-14  0.12500000000E+03  0.12500000000E+03 0.  0.
    3000001    1    3    3    0    0  0.21183789734E+02 -0.43761782541E+02 -0.84513734018E+01  0.49358608885E+02  0.10000000000E+01 0. -1.
    1000022    2    1    0    0    0  0.28413538217E+02 -0.52734572418E+02 -0.14764335237E+02  0.62500001654E+02  0.10000016481E+02 0.  0.
    3000022    2    3    3    0    0  0.72297484829E+01 -0.89727898767E+01 -0.63129618347E+01  0.13141392769E+02  0.24999095360E+00 0.  0.
    1000022    2    1    0    0    0 -0.28413538217E+02  0.52734572418E+02  0.14764335237E+02  0.62499998346E+02  0.99999958109E+01 0.  0.
    3000022    2    5    5    0    0 -0.47372053608E+01  0.16931525753E+02  0.19383555015E+01  0.17690036907E+02  0.25000956073E+00 0.  0.
        -13    1    4    4    0    0  0.29324570274E+01 -0.36154902464E+01 -0.26209203711E+01  0.53433437594E+01  0.10500000000E+00 0.  1.
         13    1    4    4    0    0  0.42972914555E+01 -0.53572996303E+01 -0.36920414636E+01  0.77980490092E+01  0.10500000000E+00 0. -1.
    3000001    1    5    5    0    0 -0.23676332856E+02  0.35803046665E+02  0.12825979735E+02  0.44809961439E+02  0.10000000000E+01 0. -1.
        -13    1    6    6    0    0 -0.22148214362E+01  0.79733328591E+01  0.97838646207E+00  0.83335308210E+01  0.10500000000E+00 0.  1.
         13    1    6    6    0    0 -0.25223839247E+01  0.89581928936E+01  0.95996903940E+00  0.93565060861E+01  0.10500000000E+00 0. -1.
</event>
<event>
11    0  0.3476221E-009  0.9118800E+02  0.7816531E-02  0.1126479E+00
         25   -1    0    0    0    0  0.00000000000E+00  0.00000000000E+00  0.99999998245E-14  0.12500000000E+03  0.12500000000E+03 0.  0.
    3000001    1    3    3    0    0 -0.23385038070E+01 -0.50237693038E+01  0.10266805779E+02  0.11709575525E+02  0.10000000000E+01 0. -1.
    1000022    2    1    0    0    0 -0.26018760340E+02 -0.35975664548E+02  0.42837198329E+02  0.62500001227E+02  0.10000013171E+02 0.  0.
    3000022    2    3    3    0    0 -0.23680256533E+02 -0.30951895244E+02  0.32570392549E+02  0.50790425701E+02  0.25000693385E+00 0.  0.
    1000022    2    1    0    0    0  0.26018760340E+02  0.35975664548E+02 -0.42837198329E+02  0.62499998773E+02  0.99999978378E+01 0.  0.
    3000022    2    5    5    0    0  0.43155647736E+01  0.13810792082E+02 -0.13352737058E+02  0.19690610485E+02  0.24995416049E+00 0.  0.
        -13    1    4    4    0    0 -0.71849350764E+01 -0.93676309275E+01  0.98091062744E+01  0.15349442731E+02  0.10500000000E+00 0. -1.
         13    1    4    4    0    0 -0.16495321456E+02 -0.21584264316E+02  0.22761286275E+02  0.35440982971E+02  0.10500000000E+00 0.  1.
    3000001    1    5    5    0    0  0.21703195566E+02  0.22164872465E+02 -0.29484461271E+02  0.42809388288E+02  0.10000000000E+01 0. -1.
        -13    1    6    6    0    0  0.10508492736E+01  0.34369163090E+01 -0.33344145913E+01  0.49036744975E+01  0.10500000000E+00 0.  1.
         13    1    6    6    0    0  0.32647155000E+01  0.10373875773E+02 -0.10018322467E+02  0.14786935988E+02  0.10500000000E+00 0. -1.
</event>
<event>
11    0  0.3476221E-009  0.9118800E+02  0.7816531E-02  0.1126479E+00
         25   -1    0    0    0    0  0.00000000000E+00  0.00000000000E+00  0.99999998245E-14  0.12500000000E+03  0.12500000000E+03 0.  0.
    3000001    1    3    3    0    0  0.46598234982E+02 -0.25531248020E+01  0.20450733317E+02  0.50962206025E+02  0.10000000000E+01 0.  1.
    1000022    2    1    0    0    0  0.56447392970E+02 -0.75945096089E+01  0.23712132371E+02  0.62500000419E+02  0.10000004069E+02 0.  0.
    3000022    2    3    3    0    0  0.98491579883E+01 -0.50413848069E+01  0.32613990541E+01  0.11537794394E+02  0.25000366928E+00 0.  0.
    1000022    2    1    0    0    0 -0.56447392970E+02  0.75945096089E+01 -0.23712132371E+02  0.62499999581E+02  0.99999988375E+01 0.  0.
    3000022    2    5    5    0    0 -0.46064653887E+02  0.23157331100E+01 -0.19451313446E+02  0.50057277608E+02  0.24997835199E+00 0.  0.
        -13    1    4    4    0    0  0.35831885802E+01 -0.18587020571E+01  0.12469487427E+01  0.42260998456E+01  0.10500000000E+00 0.  1.
         13    1    4    4    0    0  0.62659694082E+01 -0.31826827498E+01  0.20144503114E+01  0.73116945483E+01  0.10500000000E+00 0. -1.
    3000001    1    5    5    0    0 -0.10382739083E+02  0.52787764990E+01 -0.42608189251E+01  0.12442721974E+02  0.10000000000E+01 0.  1.
        -13    1    6    6    0    0 -0.11852277577E+02  0.59519676415E+00 -0.49720337167E+01  0.12867124280E+02  0.10500000000E+00 0.  1.
         13    1    6    6    0    0 -0.34212376310E+02  0.17205363458E+01 -0.14479279729E+02  0.37190153328E+02  0.10500000000E+00 0. -1.
</event>
<event>
11    0  0.3476221E-009  0.9118800E+02  0.7816531E-02  0.1126479E+00
         25   -1    0    0    0    0  0.00000000000E+00  0.00000000000E+00  0.99999998245E-14  0.12500000000E+03  0.12500000000E+03 0.  0.
    3000001    1    3    3    0    0  0.92616027606E+01 -0.80195898722E+01 -0.37808996228E+01  0.12860260859E+02  0.10000000000E+01 0. -1.
    1000022    2    1    0    0    0  0.40722172151E+02 -0.46330084861E+02 -0.12157655426E+01  0.62500001624E+02  0.10000002459E+02 0.  0.
    3000022    2    3    3    0    0  0.31460569390E+02 -0.38310494989E+02  0.25651340802E+01  0.49639740764E+02  0.24999528863E+00 0.  0.
    1000022    2    1    0    0    0 -0.40722172151E+02  0.46330084861E+02  0.12157655426E+01  0.62499998376E+02  0.99999821611E+01 0.  0.
    3000022    2    5    5    0    0 -0.11097235123E+02  0.18371972211E+02  0.32149356345E+01  0.21704292255E+02  0.25000169805E+00 0.  0.
        -13    1    4    4    0    0  0.80974976738E+01 -0.99066818149E+01  0.67138297213E+00  0.12813024360E+02  0.10500000000E+00 0. -1.
         13    1    4    4    0    0  0.23363071717E+02 -0.28403813174E+02  0.18937511081E+01  0.36826716404E+02  0.10500000000E+00 0.  1.
    3000001    1    5    5    0    0 -0.29624937028E+02  0.27958112650E+02 -0.19991700919E+01  0.40795706121E+02  0.10000000000E+01 0. -1.
        -13    1    6    6    0    0 -0.50159425751E+01  0.84112677455E+01  0.15048964399E+01  0.99088265349E+01  0.10500000000E+00 0.  1.
         13    1    6    6    0    0 -0.60812925475E+01  0.99607044658E+01  0.17100391946E+01  0.11795465720E+02  0.10500000000E+00 0. -1.
</event>
<event>
11    0  0.3476221E-009  0.9118800E+02  0.7816531E-02  0.1126479E+00
         25   -1    0    0    0    0  0.00000000000E+00  0.00000000000E+00  0.99999998245E-14  0.12500000000E+03  0.12500000000E+03 0.  0.
    3000001    1    3    3    0    0 -0.42158380462E+01 -0.56893446185E+02  0.20670129997E+02  0.60686833690E+02  0.10000000000E+01 0.  1.
    1000022    2    1    0    0    0 -0.40864740092E+01 -0.58347574053E+02  0.19624254502E+02  0.62500001722E+02  0.10000009142E+02 0.  0.
    3000022    2    3    3    0    0  0.12936403702E+00 -0.14541278683E+01 -0.10458754951E+01  0.18131680325E+01  0.24999970265E+00 0.  0.
    1000022    2    1    0    0    0  0.40864740092E+01  0.58347574053E+02 -0.19624254502E+02  0.62499998278E+02  0.99999876145E+01 0.  0.
    3000022    2    5    5    0    0  0.70644913685E+01  0.30913656016E+02 -0.11176853305E+02  0.33623588646E+02  0.24999412288E+00 0.  0.
        -13    1    4    4    0    0  0.10182819310E+00 -0.62662997412E+00 -0.51336529478E+00  0.82316646631E+00  0.10500000000E+00 0.  1.
         13    1    4    4    0    0  0.27535843924E-01 -0.82749789421E+00 -0.53251020030E+00  0.99000156618E+00  0.10500000000E+00 0. -1.
    3000001    1    5    5    0    0 -0.29780173593E+01  0.27433918036E+02 -0.84474011970E+01  0.28876409631E+02  0.10000000000E+01 0.  1.
        -13    1    6    6    0    0  0.50710935990E+01  0.22224354146E+02 -0.80762126827E+01  0.24184171348E+02  0.10500000000E+00 0. -1.
         13    1    6    6    0    0  0.19933977695E+01  0.86893018702E+01 -0.31006406223E+01  0.94394172981E+01  0.10500000000E+00 0.  1.
</event>
<event>
11    0  0.3476221E-009  0.9118800E+02  0.7816531E-02  0.1126479E+00
         25   -1    0    0    0    0  0.00000000000E+00  0.00000000000E+00  0.99999998245E-14  0.12500000000E+03  0.12500000000E+03 0.  0.
    3000001    1    3    3    0    0  0.15332863754E+02 -0.24515304837E+02 -0.52280720837E+02  0.59752578634E+02  0.10000000000E+01 0. -1.
    1000022    2    1    0    0    0  0.17709583381E+02 -0.25108458077E+02 -0.53499403013E+02  0.62499998567E+02  0.99999843786E+01 0.  0.
    3000022    2    3    3    0    0  0.23767196276E+01 -0.59315324005E+00 -0.12186821764E+01  0.27474199336E+01  0.25000618003E+00 0.  0.
    1000022    2    1    0    0    0 -0.17709583381E+02  0.25108458077E+02  0.53499403013E+02  0.62500001433E+02  0.10000002290E+02 0.  0.
    3000022    2    5    5    0    0 -0.49760028360E+01  0.88911768311E+01  0.27330286351E+02  0.29168830565E+02  0.24998972729E+00 0.  0.
        -13    1    4    4    0    0  0.14683040720E+01 -0.32519659045E+00 -0.79881659012E+00  0.17061074453E+01  0.10500000000E+00 0.  1.
         13    1    4    4    0    0  0.90841555561E+00 -0.26795664961E+00 -0.41986558630E+00  0.10413124883E+01  0.10500000000E+00 0. -1.
    3000001    1    5    5    0    0 -0.12733580545E+02  0.16217281246E+02  0.26169116662E+02  0.33331170868E+02  0.10000000000E+01 0. -1.
        -13    1    6    6    0    0 -0.34657801754E+01  0.61358238558E+01  0.19011328557E+02  0.20275640683E+02  0.10500000000E+00 0.  1.
         13    1    6    6    0    0 -0.15102226606E+01  0.27553529753E+01  0.83189577937E+01  0.88931898819E+01  0.10500000000E+00 0. -1.
</event>
<event>
11    0  0.3476221E-009  0.9118800E+02  0.7816531E-02  0.1126479E+00
         25   -1    0    0    0    0  0.00000000000E+00  0.00000000000E+00  0.99999998245E-14  0.12500000000E+03  0.12500000000E+03 0.  0.
    3000001    1    3    3    0    0 -0.15152632012E+02 -0.31947601530E+02 -0.27515894180E+02  0.44814907485E+02  0.10000000000E+01 0. -1.
    1000022    2    1    0    0    0 -0.23893067358E+02 -0.39558400882E+02 -0.40871806749E+02  0.62499996574E+02  0.99999618372E+01 0.  0.
    3000022    2    3    3    0    0 -0.87404353463E+01 -0.76107993516E+01 -0.13355912569E+02  0.17685089089E+02  0.24999742071E+00 0.  0.
    1000022    2    1    0    0    0  0.23893067358E+02  0.39558400882E+02  0.40871806749E+02  0.62500003426E+02  0.10000004663E+02 0.  0.
    3000022    2    5    5    0    0  0.24004613991E+02  0.34831655426E+02  0.38087583827E+02  0.56922686640E+02  0.24999991978E+00 0.  0.
        -13    1    4    4    0    0 -0.66147253184E+01 -0.57297121537E+01 -0.10089997771E+02  0.13356768786E+02  0.10500000000E+00 0.  1.
         13    1    4    4    0    0 -0.21257100279E+01 -0.18810871980E+01 -0.32659147983E+01  0.43283203022E+01  0.10500000000E+00 0. -1.
    3000001    1    5    5    0    0 -0.11154663285E+00  0.47267454560E+01  0.27842229219E+01  0.55773167864E+01  0.10000000000E+01 0.  1.
        -13    1    6    6    0    0  0.79016606035E+01  0.11378319526E+02  0.12495617842E+02  0.18656202340E+02  0.10500000000E+00 0. -1.
         13    1    6    6    0    0  0.16102953387E+02  0.23453335900E+02  0.25591965985E+02  0.38266484299E+02  0.10500000000E+00 0.  1.
</event>
<event>
11    0  0.3476221E-009  0.9118800E+02  0.7816531E-02  0.1126479E+00
         25   -1    0    0    0    0  0.00000000000E+00  0.00000000000E+00  0.99999998245E-14  0.12500000000E+03  0.12500000000E+03 0.  0.
    3000001    1    3    3    0    0  0.27880254984E+01 -0.20316609086E+02  0.36014843959E+01  0.20844864614E+02  0.10000000000E+01 0. -1.
    1000022    2    1    0    0    0  0.26832070394E+01 -0.61607500448E+02 -0.18884135231E+01  0.62499998458E+02  0.99999995082E+01 0.  0.
    3000022    2    3    3    0    0 -0.10481845893E+00 -0.41290891361E+02 -0.54898979191E+01  0.41655133843E+02  0.25000002223E+00 0.  0.
    1000022    2    1    0    0    0 -0.26832070394E+01  0.61607500448E+02  0.18884135231E+01  0.62500001542E+02  0.10000018788E+02 0.  0.
    3000022    2    5    5    0    0 -0.29027603010E+01  0.56002064592E+02 -0.10524704157E+01  0.56087676449E+02  0.24999901228E+00 0.  0.
        -13    1    4    4    0    0 -0.12352400442E+00 -0.22200936136E+02 -0.29515919883E+01  0.22396869062E+02  0.10500000000E+00 0.  1.
         13    1    4    4    0    0  0.18705545488E-01 -0.19089955225E+02 -0.25383059308E+01  0.19258264781E+02  0.10500000000E+00 0. -1.
    3000001    1    5    5    0    0  0.21955326151E+00  0.56054358553E+01  0.29408839388E+01  0.64123250934E+01  0.10000000000E+01 0. -1.
        -13    1    6    6    0    0 -0.18508968732E+01  0.35405723460E+02 -0.60829280283E+00  0.35459443285E+02  0.10500000000E+00 0. -1.
         13    1    6    6    0    0 -0.10518634277E+01  0.20596341133E+02 -0.44417761285E+00  0.20628233164E+02  0.10500000000E+00 0.  1.
</event>
<event>
11    0  0.3476221E-009  0.9118800E+02  0.7816531E-02  0.1126479E+00
         25   -1    0    0    0    0  0.00000000000E+00  0.00000000000E+00  0.99999998245E-14  0.12500000000E+03  0.12500000000E+03 0.  0.
    3000001    1    3    3    0    0 -0.26746841495E+02 -0.32962496327E+02 -0.29497313607E+01  0.42563136740E+02  0.10000000000E+01 0. -1.
    1000022    2    1    0    0    0 -0.34023845416E+02 -0.51448466287E+02 -0.12974169945E+01  0.62499999700E+02  0.99999965748E+01 0.  0.
    3000022    2    3    3    0    0 -0.72770039207E+01 -0.18485969960E+02  0.16523143662E+01  0.19936862960E+02  0.24998098169E+00 0.  0.
    1000022    2    1    0    0    0  0.34023845416E+02  0.51448466287E+02  0.12974169945E+01  0.62500000300E+02  0.10000000319E+02 0.  0.
    3000022    2    5    5    0    0  0.23113761101E+02  0.26056124915E+02  0.68588191545E+00  0.34838205071E+02  0.25000144106E+00 0.  0.
        -13    1    4    4    0    0 -0.44371418121E+01 -0.11434434884E+02  0.10063013098E+01  0.12306835332E+02  0.10500000000E+00 0.  1.
         13    1    4    4    0    0 -0.28398621086E+01 -0.70515350766E+01  0.64601305632E+00  0.76300276279E+01  0.10500000000E+00 0. -1.
    3000001    1    5    5    0    0  0.10910084314E+02  0.25392341372E+02  0.61153507906E+00  0.27661795228E+02  0.10000000000E+01 0. -1.
        -13    1    6    6    0    0  0.98979939864E+01  0.11092734929E+02  0.34165026926E+00  0.14871005449E+02  0.10500000000E+00 0.  1.
         13    1    6    6    0    0  0.13215767115E+02  0.14963389987E+02  0.34423164619E+00  0.19967199622E+02  0.10500000000E+00 0. -1.
</event>
<event>
11    0  0.3476221E-009  0.9118800E+02  0.7816531E-02  0.1126479E+00
         25   -1    0    0    0    0  0.00000000000E+00  0.00000000000E+00  0.99999998245E-14  0.12500000000E+03  0.12500000000E+03 0.  0.
    3000001    1    3    3    0    0 -0.18269885053E+01  0.42624920747E+00  0.36683839047E+01  0.42398839439E+01  0.10000000000E+01 0.  1.
    1000022    2    1    0    0    0 -0.81186670174E+01  0.34625464454E+02  0.50412447352E+02  0.62500003323E+02  0.10000001228E+02 0.  0.
    3000022    2    3    3    0    0 -0.62916785121E+01  0.34199215247E+02  0.46744063447E+02  0.58260119379E+02  0.25000104131E+00 0.  0.
    1000022    2    1    0    0    0  0.81186670174E+01 -0.34625464454E+02 -0.50412447352E+02  0.62499996677E+02  0.99999596944E+01 0.  0.
    3000022    2    5    5    0    0  0.36566309615E+01 -0.13861491271E+02 -0.28859382874E+02  0.32224809866E+02  0.25000152144E+00 0.  0.
        -13    1    4    4    0    0 -0.40737196448E+01  0.22307277433E+02  0.30562126884E+02  0.38056069725E+02  0.10500000000E+00 0. -1.
         13    1    4    4    0    0 -0.22179588672E+01  0.11891937813E+02  0.16181936563E+02  0.20204049654E+02  0.10500000000E+00 0.  1.
    3000001    1    5    5    0    0  0.44620360559E+01 -0.20763973183E+02 -0.21553064477E+02  0.30275186811E+02  0.10000000000E+01 0.  1.
        -13    1    6    6    0    0  0.16329804916E+01 -0.62959746002E+01 -0.13231635116E+02  0.14744256994E+02  0.10500000000E+00 0. -1.
         13    1    6    6    0    0  0.20236504699E+01 -0.75655166709E+01 -0.15627747758E+02  0.17480552872E+02  0.10500000000E+00 0.  1.
</event>
<event>
11    0  0.3476221E-009  0.9118800E+02  0.7816531E-02  0.1126479E+00
         25   -1    0    0    0    0  0.00000000000E+00  0.00000000000E+00  0.99999998245E-14  0.12500000000E+03  0.12500000000E+03 0.  0.
    3000001    1    3    3    0    0 -0.33522497083E+02 -0.68836742372E+01 -0.34561262340E+01  0.34410573814E+02  0.10000000000E+01 0.  1.
    1000022    2    1    0    0    0 -0.57539867469E+02 -0.19485886583E+02 -0.10757046893E+02  0.62499998515E+02  0.99999816112E+01 0.  0.
    3000022    2    3    3    0    0 -0.24017370386E+02 -0.12602212346E+02 -0.73009206592E+01  0.28089424701E+02  0.25000253714E+00 0.  0.
    1000022    2    1    0    0    0  0.57539867469E+02  0.19485886583E+02  0.10757046893E+02  0.62500001485E+02  0.10000000173E+02 0.  0.
    3000022    2    5    5    0    0  0.38876643186E+02  0.82840511272E+01  0.78361395370E+01  0.40515262277E+02  0.25001219938E+00 0.  0.
        -13    1    4    4    0    0 -0.10780273918E+02 -0.56770238212E+01 -0.32132422159E+01  0.12600748222E+02  0.10500000000E+00 0. -1.
         13    1    4    4    0    0 -0.13237096468E+02 -0.69251885251E+01 -0.40876784432E+01  0.15488676479E+02  0.10500000000E+00 0.  1.
    3000001    1    5    5    0    0  0.18663224283E+02  0.11201835456E+02  0.29209073562E+01  0.21984739207E+02  0.10000000000E+01 0.  1.
        -13    1    6    6    0    0  0.12188071370E+02  0.25621418147E+01  0.24192033898E+01  0.12687680026E+02  0.10500000000E+00 0. -1.
         13    1    6    6    0    0  0.26688571816E+02  0.57219093125E+01  0.54169361472E+01  0.27827582252E+02  0.10500000000E+00 0.  1.
</event>
<event>
11    0  0.3476221E-009  0.9118800E+02  0.7816531E-02  0.1126479E+00
         25   -1    0    0    0    0  0.00000000000E+00  0.00000000000E+00  0.99999998245E-14  0.12500000000E+03  0.12500000000E+03 0.  0.
    3000001    1    3    3    0    0 -0.14381087838E+02 -0.43164313957E+02 -0.26822507962E+02  0.52824432038E+02  0.10000000000E+01 0. -1.
    1000022    2    1    0    0    0 -0.12815916862E+02 -0.51565718935E+02 -0.31352492976E+02  0.62500000819E+02  0.10000009618E+02 0.  0.
    3000022    2    3    3    0    0  0.15651709769E+01 -0.84014049781E+01 -0.45299850137E+01  0.96755687813E+01  0.25000244570E+00 0.  0.
    1000022    2    1    0    0    0  0.12815916862E+02  0.51565718935E+02  0.31352492976E+02  0.62499999181E+02  0.99999993745E+01 0.  0.
    3000022    2    5    5    0    0  0.55413170188E+00  0.11666055893E+01 -0.72794000385E+00  0.15034732017E+01  0.25000894970E+00 0.  0.
        -13    1    4    4    0    0  0.10311543844E+01 -0.53415092535E+01 -0.29359243403E+01  0.61826917440E+01  0.10500000000E+00 0.  1.
         13    1    4    4    0    0  0.53401659244E+00 -0.30598957246E+01 -0.15940606734E+01  0.34928770372E+01  0.10500000000E+00 0. -1.
    3000001    1    5    5    0    0  0.12261785160E+02  0.50399113346E+02  0.32080432980E+02  0.60996525979E+02  0.10000000000E+01 0. -1.
        -13    1    6    6    0    0  0.33583155940E+00  0.55275614439E+00 -0.37963216799E+00  0.75727655083E+00  0.10500000000E+00 0.  1.
         13    1    6    6    0    0  0.21830014248E+00  0.61384944491E+00 -0.34830783585E+00  0.74619665084E+00  0.10500000000E+00 0.  1.
</event>
<event>
11    0  0.3476221E-009  0.9118800E+02  0.7816531E-02  0.1126479E+00
         25   -1    0    0    0    0  0.00000000000E+00  0.00000000000E+00  0.99999998245E-14  0.12500000000E+03  0.12500000000E+03 0.  0.
    3000001    1    3    3    0    0  0.23022012170E+01  0.92046334670E+01 -0.20895795885E+02  0.22970844420E+02  0.10000000000E+01 0.  1.
    1000022    2    1    0    0    0  0.78851627123E+01  0.35693858685E+02 -0.49699320249E+02  0.62499998601E+02  0.10000002652E+02 0.  0.
    3000022    2    3    3    0    0  0.55829614952E+01  0.26489225218E+02 -0.28803524364E+02  0.39529154180E+02  0.25000545550E+00 0.  0.
    1000022    2    1    0    0    0 -0.78851627123E+01 -0.35693858685E+02  0.49699320249E+02  0.62500001399E+02  0.10000020145E+02 0.  0.
    3000022    2    5    5    0    0 -0.58852072420E+01 -0.22423833956E+02  0.23305758276E+02  0.32873771605E+02  0.24999435860E+00 0.  0.
        -13    1    4    4    0    0  0.21269301017E+01  0.98559536485E+01 -0.10779320532E+02  0.14760366869E+02  0.10500000000E+00 0. -1.
         13    1    4    4    0    0  0.34560313935E+01  0.16633271569E+02 -0.18024203832E+02  0.24768787311E+02  0.10500000000E+00 0.  1.
    3000001    1    5    5    0    0 -0.19999554703E+01 -0.13270024729E+02  0.26393561973E+02  0.29626229794E+02  0.10000000000E+01 0. -1.
        -13    1    6    6    0    0 -0.29012705715E+01 -0.10844887977E+02  0.11344879388E+02  0.15960773148E+02  0.10500000000E+00 0. -1.
         13    1    6    6    0    0 -0.29839366704E+01 -0.11578945979E+02  0.11960878888E+02  0.16912998457E+02  0.10500000000E+00 0.  1.
</event>
<event>
11    0  0.3476221E-009  0.9118800E+02  0.7816531E-02  0.1126479E+00
         25   -1    0    0    0    0  0.00000000000E+00  0.00000000000E+00  0.99999998245E-14  0.12500000000E+03  0.12500000000E+03 0.  0.
    3000001    1    3    3    0    0 -0.94383166661E+01  0.47839813738E+01 -0.32356591183E+01  0.11110256037E+02  0.10000000000E+01 0. -1.
    1000022    2    1    0    0    0 -0.58325789823E+02  0.20091300490E+02  0.83179388389E+00  0.62499999529E+02  0.99999973076E+01 0.  0.
    3000022    2    3    3    0    0 -0.48887473157E+02  0.15307319116E+02  0.40674530022E+01  0.51389743492E+02  0.25002406010E+00 0.  0.
    1000022    2    1    0    0    0  0.58325789823E+02 -0.20091300490E+02 -0.83179388389E+00  0.62500000471E+02  0.10000003200E+02 0.  0.
    3000022    2    5    5    0    0  0.24393372343E+02 -0.13609091928E+02 -0.37745858137E+00  0.27936516787E+02  0.24999561249E+00 0.  0.
        -13    1    4    4    0    0 -0.12680647825E+02  0.39377114064E+01  0.10547921719E+01  0.13320210655E+02  0.10500000000E+00 0. -1.
         13    1    4    4    0    0 -0.36206825332E+02  0.11369607710E+02  0.30126608303E+01  0.38069532837E+02  0.10500000000E+00 0.  1.
    3000001    1    5    5    0    0  0.33932417480E+02 -0.64822085622E+01 -0.45433530252E+00  0.34563483685E+02  0.10000000000E+01 0. -1.
        -13    1    6    6    0    0  0.15747967838E+02 -0.87622047617E+01 -0.29698152145E+00  0.18024259938E+02  0.10500000000E+00 0.  1.
         13    1    6    6    0    0  0.86454045058E+01 -0.48468871660E+01 -0.80477059920E-01  0.99122568483E+01  0.10500000000E+00 0. -1.
</event>
<event>
11    0  0.3476221E-009  0.9118800E+02  0.7816531E-02  0.1126479E+00
         25   -1    0    0    0    0  0.00000000000E+00  0.00000000000E+00  0.99999998245E-14  0.12500000000E+03  0.12500000000E+03 0.  0.
    3000001    1    3    3    0    0 -0.26990793593E+02  0.30439300590E+02 -0.51043354228E+01  0.41013512399E+02  0.10000000000E+01 0. -1.
    1000022    2    1    0    0    0 -0.37700794339E+02  0.46764626638E+02 -0.14070173427E+02  0.62499999730E+02  0.99999993743E+01 0.  0.
    3000022    2    3    3    0    0 -0.10710000746E+02  0.16325326048E+02 -0.89658380045E+01  0.21486487330E+02  0.25000022863E+00 0.  0.
    1000022    2    1    0    0    0  0.37700794339E+02 -0.46764626638E+02  0.14070173427E+02  0.62500000270E+02  0.10000002754E+02 0.  0.
    3000022    2    5    5    0    0  0.19233188779E+02 -0.21212329016E+02  0.11481745263E+02  0.30850792867E+02  0.24998666162E+00 0.  0.
        -13    1    4    4    0    0 -0.70192483175E+01  0.10691981228E+02 -0.59341005552E+01  0.14100102266E+02  0.10500000000E+00 0. -1.
         13    1    4    4    0    0 -0.36907524283E+01  0.56333448208E+01 -0.30317374493E+01  0.73863850643E+01  0.10500000000E+00 0.  1.
    3000001    1    5    5    0    0  0.18467605560E+02 -0.25552297623E+02  0.25884281642E+01  0.31649207404E+02  0.10000000000E+01 0.  1.
        -13    1    6    6    0    0  0.45916266667E+01 -0.50559290544E+01  0.27574137967E+01  0.73661258404E+01  0.10500000000E+00 0. -1.
         13    1    6    6    0    0  0.14641562113E+02 -0.16156399961E+02  0.87243314664E+01  0.23484667026E+02  0.10500000000E+00 0.  1.
</event>
<event>
11    0  0.3476221E-009  0.9118800E+02  0.7816531E-02  0.1126479E+00
         25   -1    0    0    0    0  0.00000000000E+00  0.00000000000E+00  0.99999998245E-14  0.12500000000E+03  0.12500000000E+03 0.  0.
    3000001    1    3    3    0    0 -0.73997208143E+00  0.47055753818E+01 -0.44314757062E+01  0.65823989008E+01  0.10000000000E+01 0. -1.
    1000022    2    1    0    0    0 -0.24317774738E+02  0.24911238746E+02 -0.50934527539E+02  0.62499998450E+02  0.99999863274E+01 0.  0.
    3000022    2    3    3    0    0 -0.23577802657E+02  0.20205663364E+02 -0.46503051833E+02  0.55917599549E+02  0.24999893196E+00 0.  0.
    1000022    2    1    0    0    0  0.24317774738E+02 -0.24911238746E+02  0.50934527539E+02  0.62500001550E+02  0.10000005702E+02 0.  0.
    3000022    2    5    5    0    0  0.22875318215E+02 -0.21263531512E+02  0.48759031165E+02  0.57904434843E+02  0.24999702489E+00 0.  0.
        -13    1    4    4    0    0 -0.12560691838E+02  0.10684938424E+02 -0.24750804628E+02  0.29741423020E+02  0.10500000000E+00 0.  1.
         13    1    4    4    0    0 -0.11017110819E+02  0.95207249407E+01 -0.21752247205E+02  0.26176176529E+02  0.10500000000E+00 0. -1.
    3000001    1    5    5    0    0  0.14424565234E+01 -0.36477072340E+01  0.21754963738E+01  0.45955667071E+01  0.10000000000E+01 0.  1.
        -13    1    6    6    0    0  0.96062453640E+01 -0.88599537040E+01  0.20328190733E+02  0.24166611122E+02  0.10500000000E+00 0. -1.
         13    1    6    6    0    0  0.13269072851E+02 -0.12403577808E+02  0.28430840432E+02  0.33737823721E+02  0.10500000000E+00 0.  1.
</event>
<event>
11    0  0.3476221E-009  0.9118800E+02  0.7816531E-02  0.1126479E+00
         25   -1    0    0    0    0  0.00000000000E+00  0.00000000000E+00  0.99999998245E-14  0.12500000000E+03  0.12500000000E+03 0.  0.
    3000001    1    3    3    0    0 -0.52293891758E+00 -0.19412845224E+02 -0.57981689413E+01  0.20291643302E+02  0.10000000000E+01 0. -1.
    1000022    2    1    0    0    0 -0.61850818928E+01 -0.61218807585E+02 -0.45002826891E+01  0.62500000147E+02  0.99999916945E+01 0.  0.
    3000022    2    3    3    0    0 -0.56621429752E+01 -0.41805962361E+02  0.12978862522E+01  0.42208356845E+02  0.25005367196E+00 0.  0.
    1000022    2    1    0    0    0  0.61850818928E+01  0.61218807585E+02  0.45002826891E+01  0.62499999853E+02  0.99999898592E+01 0.  0.
    3000022    2    5    5    0    0  0.64973856543E+01  0.21052615230E+02  0.34816200852E+01  0.22307236630E+02  0.24999863157E+00 0.  0.
        -13    1    4    4    0    0 -0.18168339428E+01 -0.13797751217E+02  0.44042664069E+00  0.13924217207E+02  0.10500000000E+00 0.  1.
         13    1    4    4    0    0 -0.38453090325E+01 -0.28008211144E+02  0.85745961151E+00  0.28284139637E+02  0.10500000000E+00 0. -1.
    3000001    1    5    5    0    0 -0.31230376150E+00  0.40166192356E+02  0.10186626040E+01  0.40192763223E+02  0.10000000000E+01 0. -1.
        -13    1    6    6    0    0  0.20905156463E+01  0.68461340525E+01  0.11789991696E+01  0.72554028954E+01  0.10500000000E+00 0.  1.
         13    1    6    6    0    0  0.44068700080E+01  0.14206481177E+02  0.23026209156E+01  0.15051833735E+02  0.10500000000E+00 0. -1.
</event>
<event>
11    0  0.3476221E-009  0.9118800E+02  0.7816531E-02  0.1126479E+00
         25   -1    0    0    0    0  0.00000000000E+00  0.00000000000E+00  0.99999998245E-14  0.12500000000E+03  0.12500000000E+03 0.  0.
    3000001    1    3    3    0    0  0.60318273964E+01 -0.14199580752E+01 -0.12102472129E+01  0.63924894206E+01  0.10000000000E+01 0.  1.
    1000022    2    1    0    0    0  0.55606086858E+02  0.11102393007E+02 -0.24309463499E+02  0.62500000244E+02  0.99999994387E+01 0.  0.
    3000022    2    3    3    0    0  0.49574259461E+02  0.12522351082E+02 -0.23099216286E+02  0.56107510824E+02  0.25000000806E+00 0.  0.
    1000022    2    1    0    0    0 -0.55606086858E+02 -0.11102393007E+02  0.24309463499E+02  0.62499999756E+02  0.99999963879E+01 0.  0.
    3000022    2    5    5    0    0 -0.65516880440E+01 -0.46112948936E+01  0.23349226058E+01  0.83488331464E+01  0.24998901991E+00 0.  0.
        -13    1    4    4    0    0  0.30809573621E+02  0.78355683879E+01 -0.14396627385E+02  0.34898422080E+02  0.10500000000E+00 0.  1.
         13    1    4    4    0    0  0.18764685841E+02  0.46867826944E+01 -0.87025889015E+01  0.21209088743E+02  0.10500000000E+00 0. -1.
    3000001    1    5    5    0    0 -0.49054398814E+02 -0.64910981136E+01  0.21974540893E+02  0.54151166610E+02  0.10000000000E+01 0. -1.
        -13    1    6    6    0    0 -0.42442471809E+01 -0.29934587504E+01  0.15722158892E+01  0.54274595554E+01  0.10500000000E+00 0. -1.
         13    1    6    6    0    0 -0.23074408630E+01 -0.16178361431E+01  0.76270671658E+00  0.29213735910E+01  0.10500000000E+00 0.  1.
</event>
<event>
11    0  0.3476221E-009  0.9118800E+02  0.7816531E-02  0.1126479E+00
         25   -1    0    0    0    0  0.00000000000E+00  0.00000000000E+00  0.99999998245E-14  0.12500000000E+03  0.12500000000E+03 0.  0.
    3000001    1    3    3    0    0 -0.15680861222E+02 -0.18581712491E+02  0.19524420828E+02  0.31198917552E+02  0.10000000000E+01 0. -1.
    1000022    2    1    0    0    0 -0.28730369709E+02 -0.43968432688E+02  0.32366538772E+02  0.62499999986E+02  0.99999974745E+01 0.  0.
    3000022    2    3    3    0    0 -0.13049508488E+02 -0.25386720197E+02  0.12842117944E+02  0.31301082434E+02  0.25006822401E+00 0.  0.
    1000022    2    1    0    0    0  0.28730369709E+02  0.43968432688E+02 -0.32366538772E+02  0.62500000014E+02  0.99999976490E+01 0.  0.
    3000022    2    5    5    0    0  0.73897333731E+01  0.48977363693E+01 -0.42357379565E+01  0.98285274258E+01  0.24998891368E+00 0.  0.
        -13    1    4    4    0    0 -0.75230580278E+01 -0.14777162500E+02  0.74580888113E+01  0.18182272888E+02  0.10500000000E+00 0.  1.
         13    1    4    4    0    0 -0.55264504599E+01 -0.10609557697E+02  0.53840291324E+01  0.13118809546E+02  0.10500000000E+00 0. -1.
    3000001    1    5    5    0    0  0.21340636336E+02  0.39070696319E+02 -0.28130800815E+02  0.52671472588E+02  0.10000000000E+01 0. -1.
        -13    1    6    6    0    0  0.39035408345E+01  0.26460812072E+01 -0.23039932515E+01  0.52496463409E+01  0.10500000000E+00 0. -1.
         13    1    6    6    0    0  0.34861925386E+01  0.22516551621E+01 -0.19317447050E+01  0.45788810849E+01  0.10500000000E+00 0.  1.
</event>
<event>
11    0  0.3476221E-009  0.9118800E+02  0.7816531E-02  0.1126479E+00
         25   -1    0    0    0    0  0.00000000000E+00  0.00000000000E+00  0.99999998245E-14  0.12500000000E+03  0.12500000000E+03 0.  0.
    3000001    1    3    3    0    0 -0.26289697077E+02  0.25012775798E+02  0.16597212832E+02  0.39915593435E+02  0.10000000000E+01 0.  1.
    1000022    2    1    0    0    0 -0.40823456271E+02  0.34004488080E+02  0.31359052460E+02  0.62500000808E+02  0.10000006920E+02 0.  0.
    3000022    2    3    3    0    0 -0.14533759194E+02  0.89917122821E+01  0.14761839628E+02  0.22584407373E+02  0.25000224395E+00 0.  0.
    1000022    2    1    0    0    0  0.40823456271E+02 -0.34004488080E+02 -0.31359052460E+02  0.62499999192E+02  0.99999968199E+01 0.  0.
    3000022    2    5    5    0    0  0.74570563142E+01 -0.34498966229E+01 -0.17031472377E+01  0.83948014780E+01  0.25001151914E+00 0.  0.
        -13    1    4    4    0    0 -0.47212225504E+01  0.29809835870E+01  0.48090487321E+01  0.73698154810E+01  0.10500000000E+00 0.  1.
         13    1    4    4    0    0 -0.98125366433E+01  0.60107286951E+01  0.99527908956E+01  0.15214591892E+02  0.10500000000E+00 0. -1.
    3000001    1    5    5    0    0  0.33366399956E+02 -0.30554591457E+02 -0.29655905222E+02  0.54105197714E+02  0.10000000000E+01 0.  1.
        -13    1    6    6    0    0  0.47650533450E+01 -0.22117715170E+01 -0.10296635609E+01  0.53543345687E+01  0.10500000000E+00 0.  1.
         13    1    6    6    0    0  0.26920029692E+01 -0.12381251059E+01 -0.67348367672E+00  0.30404669094E+01  0.10500000000E+00 0. -1.
</event>
<event>
11    0  0.3476221E-009  0.9118800E+02  0.7816531E-02  0.1126479E+00
         25   -1    0    0    0    0  0.00000000000E+00  0.00000000000E+00  0.99999998245E-14  0.12500000000E+03  0.12500000000E+03 0.  0.
    3000001    1    3    3    0    0 -0.14064527406E+02 -0.90026012528E+01  0.23661100638E+02  0.28977671470E+02  0.10000000000E+01 0.  1.
    1000022    2    1    0    0    0 -0.23849689391E+02 -0.27733967880E+02  0.49681679789E+02  0.62499999800E+02  0.10000000500E+02 0.  0.
    3000022    2    3    3    0    0 -0.97851619848E+01 -0.18731366627E+02  0.26020579152E+02  0.33522328330E+02  0.24993298585E+00 0.  0.
    1000022    2    1    0    0    0  0.23849689391E+02  0.27733967880E+02 -0.49681679789E+02  0.62500000200E+02  0.10000002994E+02 0.  0.
    3000022    2    5    5    0    0  0.91260156402E+01  0.42005682161E+01 -0.15194191365E+02  0.18216884611E+02  0.24999776430E+00 0.  0.
        -13    1    4    4    0    0 -0.64549969936E+01 -0.12311138408E+02  0.17034110077E+02  0.21986428682E+02  0.10500000000E+00 0. -1.
         13    1    4    4    0    0 -0.33301649912E+01 -0.64202282191E+01  0.89864690749E+01  0.11535899648E+02  0.10500000000E+00 0.  1.
    3000001    1    5    5    0    0  0.14723673750E+02  0.23533399664E+02 -0.34487488424E+02  0.44283115589E+02  0.10000000000E+01 0. -1.
        -13    1    6    6    0    0  0.52093931225E+01  0.24119453699E+01 -0.85652533767E+01  0.10311636513E+02  0.10500000000E+00 0.  1.
         13    1    6    6    0    0  0.39166225177E+01  0.17886228463E+01 -0.66289379885E+01  0.79052480978E+01  0.10500000000E+00 0. -1.
</event>
<event>
11    0  0.3476221E-009  0.9118800E+02  0.7816531E-02  0.1126479E+00
         25   -1    0    0    0    0  0.00000000000E+00  0.00000000000E+00  0.99999998245E-14  0.12500000000E+03  0.12500000000E+03 0.  0.
    3000001    1    3    3    0    0 -0.27220804053E+02  0.34665997322E+02  0.13912791816E+02  0.46230610203E+02  0.10000000000E+01 0.  1.
    1000022    2    1    0    0    0 -0.36393537148E+02  0.43766899607E+02  0.23795358009E+02  0.62499999783E+02  0.99999931357E+01 0.  0.
    3000022    2    3    3    0    0 -0.91727330943E+01  0.91009022853E+01  0.98825661937E+01  0.16269389580E+02  0.24993579561E+00 0.  0.
    1000022    2    1    0    0    0  0.36393537148E+02 -0.43766899607E+02 -0.23795358009E+02  0.62500000217E+02  0.99999958479E+01 0.  0.
    3000022    2    5    5    0    0  0.23440202364E+02 -0.31860815284E+02 -0.20573251899E+02  0.44585601156E+02  0.24999859480E+00 0.  0.
        -13    1    4    4    0    0 -0.57239788590E+01  0.56855947239E+01  0.62455245341E+01  0.10203309416E+02  0.10500000000E+00 0. -1.
         13    1    4    4    0    0 -0.34487542353E+01  0.34153075614E+01  0.36370416596E+01  0.60660801634E+01  0.10500000000E+00 0.  1.
    3000001    1    5    5    0    0  0.12953334784E+02 -0.11906084323E+02 -0.32221061104E+01  0.17914399061E+02  0.10000000000E+01 0. -1.
        -13    1    6    6    0    0  0.17243258757E+02 -0.23381714430E+02 -0.15101659864E+02  0.32743025179E+02  0.10500000000E+00 0. -1.
         13    1    6    6    0    0  0.61969436073E+01 -0.84791008542E+01 -0.54715920350E+01  0.11842575977E+02  0.10500000000E+00 0.  1.
</event>
<event>
11    0  0.3476221E-009  0.9118800E+02  0.7816531E-02  0.1126479E+00
         25   -1    0    0    0    0  0.00000000000E+00  0.00000000000E+00  0.99999998245E-14  0.12500000000E+03  0.12500000000E+03 0.  0.
    3000001    1    3    3    0    0  0.69490980114E+01  0.82925549879E+01 -0.24865678365E+02  0.27135924380E+02  0.10000000000E+01 0.  1.
    1000022    2    1    0    0    0  0.10647985635E+02  0.28373038052E+02 -0.53738646555E+02  0.62500007357E+02  0.99999949841E+01 0.  0.
    3000022    2    3    3    0    0  0.36988876239E+01  0.20080483064E+02 -0.28872968189E+02  0.35364082977E+02  0.25000594294E+00 0.  0.
    1000022    2    1    0    0    0 -0.10647985635E+02 -0.28373038052E+02  0.53738646555E+02  0.62499992643E+02  0.99999030219E+01 0.  0.
    3000022    2    5    5    0    0 -0.96393049531E+01 -0.23556774491E+02  0.36175228746E+02  0.44232878023E+02  0.24999798496E+00 0.  0.
        -13    1    4    4    0    0  0.22407865642E+01  0.11968052532E+02 -0.17308112402E+02  0.21162164014E+02  0.10500000000E+00 0.  1.
         13    1    4    4    0    0  0.14581010597E+01  0.81124305324E+01 -0.11564855788E+02  0.14201918963E+02  0.10500000000E+00 0. -1.
    3000001    1    5    5    0    0 -0.10086806822E+01 -0.48162635610E+01  0.17563417809E+02  0.18267114620E+02  0.10000000000E+01 0. -1.
        -13    1    6    6    0    0 -0.27715112524E+01 -0.68294995428E+01  0.10411642498E+02  0.12756828098E+02  0.10500000000E+00 0. -1.
         13    1    6    6    0    0 -0.68677937007E+01 -0.16727274948E+02  0.25763586248E+02  0.31476049925E+02  0.10500000000E+00 0.  1.
</event>
<event>
11    0  0.3476221E-009  0.9118800E+02  0.7816531E-02  0.1126479E+00
         25   -1    0    0    0    0  0.00000000000E+00  0.00000000000E+00  0.99999998245E-14  0.12500000000E+03  0.12500000000E+03 0.  0.
    3000001    1    3    3    0    0 -0.50426969311E+02  0.12268447364E+02 -0.37391412090E+01  0.52042052339E+02  0.10000000000E+01 0. -1.
    1000022    2    1    0    0    0 -0.60144999234E+02  0.11502591095E+02 -0.75179851601E+01  0.62500006399E+02  0.10000008212E+02 0.  0.
    3000022    2    3    3    0    0 -0.97180299230E+01 -0.76585626953E+00 -0.37788439511E+01  0.10457954060E+02  0.25000022472E+00 0.  0.
    1000022    2    1    0    0    0  0.60144999234E+02 -0.11502591095E+02  0.75179851601E+01  0.62499993601E+02  0.99999282202E+01 0.  0.
    3000022    2    5    5    0    0  0.50203887492E+02 -0.82068616365E+01  0.96167660070E+01  0.51771880236E+02  0.24999485279E+00 0.  0.
        -13    1    4    4    0    0 -0.70249733685E+01 -0.59176074440E+00 -0.27252087420E+01  0.75589826891E+01  0.10500000000E+00 0.  1.
         13    1    4    4    0    0 -0.26930565545E+01 -0.17409552512E+00 -0.10536352091E+01  0.28989713713E+01  0.10500000000E+00 0. -1.
    3000001    1    5    5    0    0  0.99411117421E+01 -0.32957294582E+01 -0.20987808469E+01  0.10728113365E+02  0.10000000000E+01 0. -1.
        -13    1    6    6    0    0  0.20774248674E+02 -0.33456200175E+01  0.39363749950E+01  0.21407210336E+02  0.10500000000E+00 0. -1.
         13    1    6    6    0    0  0.29429638819E+02 -0.48612416189E+01  0.56803910121E+01  0.30364669900E+02  0.10500000000E+00 0.  1.
</event>
<event>
11    0  0.3476221E-009  0.9118800E+02  0.7816531E-02  0.1126479E+00
         25   -1    0    0    0    0  0.00000000000E+00  0.00000000000E+00  0.99999998245E-14  0.12500000000E+03  0.12500000000E+03 0.  0.
    3000001    1    3    3    0    0 -0.12979333875E+01 -0.47824655338E+00 -0.21146890803E+01  0.27175836234E+01  0.10000000000E+01 0. -1.
    1000022    2    1    0    0    0 -0.42466063334E+02 -0.39243549540E+02 -0.21513425621E+02  0.62499998447E+02  0.99999804117E+01 0.  0.
    3000022    2    3    3    0    0 -0.41168129947E+02 -0.38765302987E+02 -0.19398736541E+02  0.59782414823E+02  0.25000744978E+00 0.  0.
    1000022    2    1    0    0    0  0.42466063334E+02  0.39243549540E+02  0.21513425621E+02  0.62500001553E+02  0.99999998298E+01 0.  0.
    3000022    2    5    5    0    0  0.98213602484E+01  0.58455601570E+01  0.77146723101E+01  0.13791604666E+02  0.24999946681E+00 0.  0.
        -13    1    4    4    0    0 -0.23525237572E+02 -0.22094821031E+02 -0.11018420274E+02  0.34103292062E+02  0.10500000000E+00 0. -1.
         13    1    4    4    0    0 -0.17642892375E+02 -0.16670481956E+02 -0.83803162675E+01  0.25679122761E+02  0.10500000000E+00 0.  1.
    3000001    1    5    5    0    0  0.32644703086E+02  0.33397989383E+02  0.13798753311E+02  0.48708396887E+02  0.10000000000E+01 0.  1.
        -13    1    6    6    0    0  0.44532282560E+01  0.26193109799E+01  0.35611665100E+01  0.62757440851E+01  0.10500000000E+00 0. -1.
         13    1    6    6    0    0  0.53681319924E+01  0.32262491771E+01  0.41535058001E+01  0.75158605809E+01  0.10500000000E+00 0.  1.
</event>
<event>
11    0  0.3476221E-009  0.9118800E+02  0.7816531E-02  0.1126479E+00
         25   -1    0    0    0    0  0.00000000000E+00  0.00000000000E+00  0.99999998245E-14  0.12500000000E+03  0.12500000000E+03 0.  0.
    3000001    1    3    3    0    0  0.11819530313E+02 -0.53868844567E+02 -0.30868726497E+01  0.55245655889E+02  0.10000000000E+01 0.  1.
    1000022    2    1    0    0    0  0.13215061393E+02 -0.59864631157E+02 -0.69165004978E+01  0.62500000546E+02  0.10000008896E+02 0.  0.
    3000022    2    3    3    0    0  0.13955310795E+01 -0.59957865899E+01 -0.38296278480E+01  0.72543446571E+01  0.25000624679E+00 0.  0.
    1000022    2    1    0    0    0 -0.13215061393E+02  0.59864631157E+02  0.69165004978E+01  0.62499999454E+02  0.10000002071E+02 0.  0.
    3000022    2    5    5    0    0 -0.12168040597E+02  0.37765218775E+02  0.15290415834E+01  0.39707347267E+02  0.24999539689E+00 0.  0.
        -13    1    4    4    0    0  0.73678859727E+00 -0.34369925627E+01 -0.21595725022E+01  0.41268091433E+01  0.10500000000E+00 0.  1.
         13    1    4    4    0    0  0.65874248224E+00 -0.25587940272E+01 -0.16700553459E+01  0.31275355138E+01  0.10500000000E+00 0. -1.
    3000001    1    5    5    0    0 -0.10470207962E+01  0.22099412382E+02  0.53874589143E+01  0.22792652187E+02  0.10000000000E+01 0. -1.
        -13    1    6    6    0    0 -0.75972176040E+01  0.23654176429E+02  0.10128998215E+01  0.24865131588E+02  0.10500000000E+00 0. -1.
         13    1    6    6    0    0 -0.45708229926E+01  0.14111042347E+02  0.51614176191E+00  0.14842215679E+02  0.10500000000E+00 0.  1.
</event>
<event>
11    0  0.3476221E-009  0.9118800E+02  0.7816531E-02  0.1126479E+00
         25   -1    0    0    0    0  0.00000000000E+00  0.00000000000E+00  0.99999998245E-14  0.12500000000E+03  0.12500000000E+03 0.  0.
    3000001    1    3    3    0    0 -0.15424861016E+01  0.33179262156E+02  0.41139036744E+01  0.33483830486E+02  0.10000000000E+01 0.  1.
    1000022    2    1    0    0    0  0.21880930927E+01  0.59785700939E+02  0.15070900143E+02  0.62499999721E+02  0.10000007295E+02 0.  0.
    3000022    2    3    3    0    0  0.37305791943E+01  0.26606438783E+02  0.10956996469E+02  0.29016169235E+02  0.24999925139E+00 0.  0.
    1000022    2    1    0    0    0 -0.21880930927E+01 -0.59785700939E+02 -0.15070900143E+02  0.62500000279E+02  0.10000010779E+02 0.  0.
    3000022    2    5    5    0    0  0.20197049083E+01 -0.33083427739E+02 -0.12106837941E+02  0.35287822439E+02  0.24997731201E+00 0.  0.
        -13    1    4    4    0    0  0.23612165738E+01  0.16607503838E+02  0.68959481377E+01  0.18136969239E+02  0.10500000000E+00 0.  1.
         13    1    4    4    0    0  0.13693626206E+01  0.99989349447E+01  0.40610483308E+01  0.10879199996E+02  0.10500000000E+00 0. -1.
    3000001    1    5    5    0    0 -0.42077980010E+01 -0.26702273200E+02 -0.29640622020E+01  0.27212177840E+02  0.10000000000E+01 0. -1.
        -13    1    6    6    0    0  0.56199804960E+00 -0.92275734391E+01 -0.34187365452E+01  0.98571161070E+01  0.10500000000E+00 0. -1.
         13    1    6    6    0    0  0.14577068587E+01 -0.23855854300E+02 -0.86881013956E+01  0.25430706332E+02  0.10500000000E+00 0.  1.
</event>
<event>
11    0  0.3476221E-009  0.9118800E+02  0.7816531E-02  0.1126479E+00
         25   -1    0    0    0    0  0.00000000000E+00  0.00000000000E+00  0.99999998245E-14  0.12500000000E+03  0.12500000000E+03 0.  0.
    3000001    1    3    3    0    0 -0.28321565195E+02 -0.33371522130E+00  0.29294141671E+01  0.28492172404E+02  0.10000000000E+01 0. -1.
    1000022    2    1    0    0    0 -0.61468771635E+02  0.42440761559E+01 -0.31349417344E+01  0.62500000550E+02  0.10000007017E+02 0.  0.
    3000022    2    3    3    0    0 -0.33147206440E+02  0.45777913772E+01 -0.60643559015E+01  0.34007828146E+02  0.24998805242E+00 0.  0.
    1000022    2    1    0    0    0  0.61468771635E+02 -0.42440761559E+01  0.31349417344E+01  0.62499999450E+02  0.10000000140E+02 0.  0.
    3000022    2    5    5    0    0  0.16083703572E+02 -0.58460969479E+00 -0.35097945098E+01  0.16474478078E+02  0.24996264665E+00 0.  0.
        -13    1    4    4    0    0 -0.19645018568E+02  0.27417799439E+01 -0.35368258106E+01  0.20148555125E+02  0.10500000000E+00 0. -1.
         13    1    4    4    0    0 -0.13502187872E+02  0.18360114333E+01 -0.25275300909E+01  0.13859273021E+02  0.10500000000E+00 0.  1.
    3000001    1    5    5    0    0  0.45385068063E+02 -0.36594664611E+01  0.66447362442E+01  0.46025521372E+02  0.10000000000E+01 0. -1.
        -13    1    6    6    0    0  0.10021068576E+02 -0.42364448604E+00 -0.21757844292E+01  0.10263837145E+02  0.10500000000E+00 0. -1.
         13    1    6    6    0    0  0.60626349966E+01 -0.16096520875E+00 -0.13340100806E+01  0.62106409328E+01  0.10500000000E+00 0.  1.
</event>
<event>
11    0  0.3476221E-009  0.9118800E+02  0.7816531E-02  0.1126479E+00
         25   -1    0    0    0    0  0.00000000000E+00  0.00000000000E+00  0.99999998245E-14  0.12500000000E+03  0.12500000000E+03 0.  0.
    3000001    1    3    3    0    0 -0.16238781284E+01 -0.62389499562E+01 -0.12659504224E+01  0.66456081139E+01  0.10000000000E+01 0.  1.
    1000022    2    1    0    0    0  0.11876794286E+02 -0.58175738132E+02 -0.16756349992E+02  0.62500000060E+02  0.99999996380E+01 0.  0.
    3000022    2    3    3    0    0  0.13500672414E+02 -0.51936788176E+02 -0.15490399570E+02  0.55854391946E+02  0.24999841384E+00 0.  0.
    1000022    2    1    0    0    0 -0.11876794286E+02  0.58175738132E+02  0.16756349992E+02  0.62499999940E+02  0.99999988861E+01 0.  0.
    3000022    2    5    5    0    0 -0.11110514716E+02  0.36548094559E+02  0.74434501437E+01  0.38918815608E+02  0.25001030656E+00 0.  0.
        -13    1    4    4    0    0  0.10009899207E+02 -0.38382839040E+02 -0.11443981804E+02  0.41284575321E+02  0.10500000000E+00 0.  1.
         13    1    4    4    0    0  0.34907732073E+01 -0.13553949136E+02 -0.40464177658E+01  0.14569816625E+02  0.10500000000E+00 0. -1.
    3000001    1    5    5    0    0 -0.76627956965E+00  0.21627643573E+02  0.93128998482E+01  0.23581184332E+02  0.10000000000E+01 0. -1.
        -13    1    6    6    0    0 -0.34882208038E+01  0.11561454194E+02  0.23093791388E+01  0.12295493664E+02  0.10500000000E+00 0.  1.
         13    1    6    6    0    0 -0.76222939126E+01  0.24986640365E+02  0.51340710049E+01  0.26623321944E+02  0.10500000000E+00 0. -1.
</event>
<event>
11    0  0.3476221E-009  0.9118800E+02  0.7816531E-02  0.1126479E+00
         25   -1    0    0    0    0  0.00000000000E+00  0.00000000000E+00  0.99999998245E-14  0.12500000000E+03  0.12500000000E+03 0.  0.
    3000001    1    3    3    0    0  0.27181169750E+02 -0.24839979612E+02 -0.28182897810E+02  0.46380128342E+02  0.10000000000E+01 0.  1.
    1000022    2    1    0    0    0  0.31957448621E+02 -0.32709025830E+02 -0.41413655091E+02  0.62499996964E+02  0.99999949685E+01 0.  0.
    3000022    2    3    3    0    0  0.47762788708E+01 -0.78690462178E+01 -0.13230757281E+02  0.16119868621E+02  0.24999579676E+00 0.  0.
    1000022    2    1    0    0    0 -0.31957448621E+02  0.32709025830E+02  0.41413655091E+02  0.62500003036E+02  0.10000032922E+02 0.  0.
    3000022    2    5    5    0    0 -0.80067895303E+01  0.29092991324E+01  0.85992366156E+01  0.12107108279E+02  0.25000098075E+00 0.  0.
        -13    1    4    4    0    0  0.34010411159E+01 -0.56525915719E+01 -0.95354105178E+01  0.11595428017E+02  0.10500000000E+00 0. -1.
         13    1    4    4    0    0  0.13752377548E+01 -0.22164546459E+01 -0.36953467637E+01  0.45244406045E+01  0.10500000000E+00 0.  1.
    3000001    1    5    5    0    0 -0.23950659091E+02  0.29799726698E+02  0.32814418475E+02  0.50392894757E+02  0.10000000000E+01 0.  1.
        -13    1    6    6    0    0 -0.31512202259E+01  0.11707667343E+01  0.34759051467E+01  0.48367163703E+01  0.10500000000E+00 0.  1.
         13    1    6    6    0    0 -0.48555693044E+01  0.17385323980E+01  0.51233314689E+01  0.72703919089E+01  0.10500000000E+00 0. -1.
</event>
<event>
11    0  0.3476221E-009  0.9118800E+02  0.7816531E-02  0.1126479E+00
         25   -1    0    0    0    0  0.00000000000E+00  0.00000000000E+00  0.99999998245E-14  0.12500000000E+03  0.12500000000E+03 0.  0.
    3000001    1    3    3    0    0  0.22093727445E+02 -0.46401809404E+02 -0.22629387618E+02  0.56163599353E+02  0.10000000000E+01 0.  1.
    1000022    2    1    0    0    0  0.22946091890E+02 -0.50143260732E+02 -0.27665506307E+02  0.62500000215E+02  0.10000002887E+02 0.  0.
    3000022    2    3    3    0    0  0.85236444580E+00 -0.37414513286E+01 -0.50361186892E+01  0.63364008619E+01  0.25000247744E+00 0.  0.
    1000022    2    1    0    0    0 -0.22946091890E+02  0.50143260732E+02  0.27665506307E+02  0.62499999785E+02  0.10000000198E+02 0.  0.
    3000022    2    5    5    0    0 -0.76062751326E+01  0.76509854442E+01  0.65369681821E+01  0.12616950954E+02  0.24999741643E+00 0.  0.
        -13    1    4    4    0    0  0.30382958532E+00 -0.16032376961E+01 -0.21841699262E+01  0.27284256988E+01  0.10500000000E+00 0.  1.
         13    1    4    4    0    0  0.54853486049E+00 -0.21382136325E+01 -0.28519487630E+01  0.36079751632E+01  0.10500000000E+00 0. -1.
    3000001    1    5    5    0    0 -0.15339816758E+02  0.42492275288E+02  0.21128538125E+02  0.49883048831E+02  0.10000000000E+01 0.  1.
        -13    1    6    6    0    0 -0.24286617710E+01  0.24658335916E+01  0.20412276453E+01  0.40194985508E+01  0.10500000000E+00 0. -1.
         13    1    6    6    0    0 -0.51776133616E+01  0.51851518526E+01  0.44957405367E+01  0.85974524035E+01  0.10500000000E+00 0.  1.
</event>
<event>
11    0  0.3476221E-009  0.9118800E+02  0.7816531E-02  0.1126479E+00
         25   -1    0    0    0    0  0.00000000000E+00  0.00000000000E+00  0.99999998245E-14  0.12500000000E+03  0.12500000000E+03 0.  0.
    3000001    1    3    3    0    0 -0.40736729860E+01  0.14650809620E+02  0.65891777430E+01  0.16602960502E+02  0.10000000000E+01 0. -1.
    1000022    2    1    0    0    0  0.77827185535E+00  0.57122617345E+02  0.23294865850E+02  0.62500001111E+02  0.10000012225E+02 0.  0.
    3000022    2    3    3    0    0  0.48519448413E+01  0.42471807725E+02  0.16705688107E+02  0.45897040609E+02  0.25000266972E+00 0.  0.
    1000022    2    1    0    0    0 -0.77827185535E+00 -0.57122617345E+02 -0.23294865850E+02  0.62499998889E+02  0.99999983384E+01 0.  0.
    3000022    2    5    5    0    0  0.16700399347E+01 -0.11976028364E+02 -0.11611054432E+01  0.12150102395E+02  0.25006719068E+00 0.  0.
        -13    1    4    4    0    0  0.11468109473E+01  0.10079218447E+02  0.39819780903E+01  0.10898302361E+02  0.10500000000E+00 0. -1.
         13    1    4    4    0    0  0.37051338941E+01  0.32392589279E+02  0.12723710016E+02  0.34998738248E+02  0.10500000000E+00 0.  1.
    3000001    1    5    5    0    0 -0.24483117900E+01 -0.45146588981E+02 -0.22133760406E+02  0.50349896494E+02  0.10000000000E+01 0.  1.
        -13    1    6    6    0    0  0.59733376389E+00 -0.43023874985E+01 -0.35890581780E+00  0.43597229498E+01  0.10500000000E+00 0. -1.
         13    1    6    6    0    0  0.10727061708E+01 -0.76736408658E+01 -0.80219962543E+00  0.77903794455E+01  0.10500000000E+00 0.  1.
</event>
<event>
11    0  0.3476221E-009  0.9118800E+02  0.7816531E-02  0.1126479E+00
         25   -1    0    0    0    0  0.00000000000E+00  0.00000000000E+00  0.99999998245E-14  0.12500000000E+03  0.12500000000E+03 0.  0.
    3000001    1    3    3    0    0  0.22191676130E+01 -0.78709293285E+01  0.84468976380E+01  0.11799420032E+02  0.10000000000E+01 0. -1.
    1000022    2    1    0    0    0  0.13343380635E+02 -0.53195015276E+02  0.28257642022E+02  0.62500001664E+02  0.10000020922E+02 0.  0.
    3000022    2    3    3    0    0  0.11124213022E+02 -0.45324085948E+02  0.19810744384E+02  0.50700581632E+02  0.25000494079E+00 0.  0.
    1000022    2    1    0    0    0 -0.13343380635E+02  0.53195015276E+02 -0.28257642022E+02  0.62499998336E+02  0.10000000119E+02 0.  0.
    3000022    2    5    5    0    0 -0.11641985346E+02  0.33613457712E+02 -0.14145759586E+02  0.38282703515E+02  0.25002398442E+00 0.  0.
        -13    1    4    4    0    0  0.39185668433E+01 -0.16204000870E+02  0.70659755009E+01  0.18107010937E+02  0.10500000000E+00 0.  1.
         13    1    4    4    0    0  0.72056461784E+01 -0.29120085078E+02  0.12744768883E+02  0.32593570695E+02  0.10500000000E+00 0. -1.
    3000001    1    5    5    0    0 -0.17013952887E+01  0.19581557564E+02 -0.14111882436E+02  0.24217294821E+02  0.10000000000E+01 0.  1.
        -13    1    6    6    0    0 -0.86097227816E+01  0.24864503058E+02 -0.10429284382E+02  0.28304625707E+02  0.10500000000E+00 0. -1.
         13    1    6    6    0    0 -0.30322625643E+01  0.87489546547E+01 -0.37164752037E+01  0.99780778083E+01  0.10500000000E+00 0.  1.
</event>
<event>
11    0  0.3476221E-009  0.9118800E+02  0.7816531E-02  0.1126479E+00
         25   -1    0    0    0    0  0.00000000000E+00  0.00000000000E+00  0.99999998245E-14  0.12500000000E+03  0.12500000000E+03 0.  0.
    3000001    1    3    3    0    0 -0.97368235814E+01  0.16019659045E+01 -0.10893730765E+02  0.14732460697E+02  0.10000000000E+01 0.  1.
    1000022    2    1    0    0    0 -0.45767674864E+02 -0.91962651683E+01 -0.40336070169E+02  0.62500000794E+02  0.10000009352E+02 0.  0.
    3000022    2    3    3    0    0 -0.36030851283E+02 -0.10798231073E+02 -0.29442339404E+02  0.47767540097E+02  0.24999770068E+00 0.  0.
    1000022    2    1    0    0    0  0.45767674864E+02  0.91962651683E+01  0.40336070169E+02  0.62499999206E+02  0.99999994220E+01 0.  0.
    3000022    2    5    5    0    0  0.21482592211E+02 -0.59177575303E+00  0.16803394067E+02  0.27281285017E+02  0.24998671509E+00 0.  0.
        -13    1    4    4    0    0 -0.13940618138E+02 -0.41193683261E+01 -0.11346127687E+02  0.18440598363E+02  0.10500000000E+00 0.  1.
         13    1    4    4    0    0 -0.22090233145E+02 -0.66788627467E+01 -0.18096211717E+02  0.29326941734E+02  0.10500000000E+00 0. -1.
    3000001    1    5    5    0    0  0.24285082654E+02  0.97880409213E+01  0.23532676102E+02  0.35218714189E+02  0.10000000000E+01 0.  1.
        -13    1    6    6    0    0  0.75174428234E+01 -0.21346586672E+00  0.59517700405E+01  0.95912515291E+01  0.10500000000E+00 0.  1.
         13    1    6    6    0    0  0.13965149387E+02 -0.37830988631E+00  0.10851624027E+02  0.17690033488E+02  0.10500000000E+00 0. -1.
</event>
<event>
11    0  0.3476221E-009  0.9118800E+02  0.7816531E-02  0.1126479E+00
         25   -1    0    0    0    0  0.00000000000E+00  0.00000000000E+00  0.99999998245E-14  0.12500000000E+03  0.12500000000E+03 0.  0.
    3000001    1    3    3    0    0  0.34762163813E+02  0.16943444887E+02 -0.23349117806E+02  0.45184838828E+02  0.10000000000E+01 0.  1.
    1000022    2    1    0    0    0  0.49334348590E+02  0.17437288046E+02 -0.32685059422E+02  0.62499998659E+02  0.99999878898E+01 0.  0.
    3000022    2    3    3    0    0  0.14572184776E+02  0.49384315955E+00 -0.93359416164E+01  0.17315159831E+02  0.25000778080E+00 0.  0.
    1000022    2    1    0    0    0 -0.49334348590E+02 -0.17437288046E+02  0.32685059422E+02  0.62500001341E+02  0.10000004649E+02 0.  0.
    3000022    2    5    5    0    0 -0.15688737056E+02 -0.37574464974E+01  0.52348793662E+01  0.16962350705E+02  0.25000976551E+00 0.  0.
        -13    1    4    4    0    0  0.62046663852E+01  0.15236877381E+00 -0.40098346301E+01  0.73899188057E+01  0.10500000000E+00 0.  1.
         13    1    4    4    0    0  0.83675183912E+01  0.34147438574E+00 -0.53261069864E+01  0.99252410255E+01  0.10500000000E+00 0. -1.
    3000001    1    5    5    0    0 -0.33645611534E+02 -0.13679841549E+02  0.27450180056E+02  0.45537650635E+02  0.10000000000E+01 0.  1.
        -13    1    6    6    0    0 -0.94088061156E+01 -0.23026598961E+01  0.30999966295E+01  0.10170982215E+02  0.10500000000E+00 0.  1.
         13    1    6    6    0    0 -0.62799309403E+01 -0.14547866013E+01  0.21348827367E+01  0.67913684902E+01  0.10500000000E+00 0. -1.
</event>
<event>
11    0  0.3476221E-009  0.9118800E+02  0.7816531E-02  0.1126479E+00
         25   -1    0    0    0    0  0.00000000000E+00  0.00000000000E+00  0.99999998245E-14  0.12500000000E+03  0.12500000000E+03 0.  0.
    3000001    1    3    3    0    0  0.12014814258E+02 -0.40152761229E+02  0.11548926183E+02  0.43485373310E+02  0.10000000000E+01 0. -1.
    1000022    2    1    0    0    0  0.14297043010E+02 -0.55789928531E+02  0.22120772948E+02  0.62499999544E+02  0.99999891448E+01 0.  0.
    3000022    2    3    3    0    0  0.22822287523E+01 -0.15637167302E+02  0.10571846765E+02  0.19014626234E+02  0.24999497300E+00 0.  0.
    1000022    2    1    0    0    0 -0.14297043010E+02  0.55789928531E+02 -0.22120772948E+02  0.62500000456E+02  0.99999948418E+01 0.  0.
    3000022    2    5    5    0    0 -0.68101754409E+01  0.14373695608E+02 -0.26913891891E+01  0.16133433958E+02  0.25000110088E+00 0.  0.
        -13    1    4    4    0    0  0.80573299166E+00 -0.55078246532E+01  0.37926510505E+01  0.67365098571E+01  0.10500000000E+00 0. -1.
         13    1    4    4    0    0  0.14764957607E+01 -0.10129342649E+02  0.67791957141E+01  0.12278116377E+02  0.10500000000E+00 0.  1.
    3000001    1    5    5    0    0 -0.74868675696E+01  0.41416232923E+02 -0.19429383758E+02  0.46366566498E+02  0.10000000000E+01 0. -1.
        -13    1    6    6    0    0 -0.17700210788E+01  0.36727259337E+01 -0.67721531021E+00  0.41341910913E+01  0.10500000000E+00 0.  1.
         13    1    6    6    0    0 -0.50401543621E+01  0.10700969674E+02 -0.20141738789E+01  0.11999242867E+02  0.10500000000E+00 0. -1.
</event>
<event>
11    0  0.3476221E-009  0.9118800E+02  0.7816531E-02  0.1126479E+00
         25   -1    0    0    0    0  0.00000000000E+00  0.00000000000E+00  0.99999998245E-14  0.12500000000E+03  0.12500000000E+03 0.  0.
    3000001    1    3    3    0    0 -0.13894103604E+02  0.24510375261E+02 -0.36368851841E+01  0.28425895663E+02  0.10000000000E+01 0.  1.
    1000022    2    1    0    0    0 -0.20410972295E+02  0.57674456348E+02 -0.79561298725E+01  0.62499994655E+02  0.99999312108E+01 0.  0.
    3000022    2    3    3    0    0 -0.65168686909E+01  0.33164081088E+02 -0.43192446884E+01  0.34074098992E+02  0.24999107481E+00 0.  0.
    1000022    2    1    0    0    0  0.20410972295E+02 -0.57674456348E+02  0.79561298725E+01  0.62500005345E+02  0.99999980253E+01 0.  0.
    3000022    2    5    5    0    0  0.93142672539E+00 -0.26102909716E+00 -0.74007825993E+00  0.12433456240E+01  0.25000115114E+00 0.  0.
        -13    1    4    4    0    0 -0.22885189522E+01  0.11375089949E+02 -0.15011987197E+01  0.11700197133E+02  0.10500000000E+00 0. -1.
         13    1    4    4    0    0 -0.42283497388E+01  0.21788991138E+02 -0.28180459687E+01  0.22373901859E+02  0.10500000000E+00 0.  1.
    3000001    1    5    5    0    0  0.19479545570E+02 -0.57413427251E+02  0.86962081324E+01  0.61256659721E+02  0.10000000000E+01 0. -1.
        -13    1    6    6    0    0  0.33108021047E+00 -0.43981733846E-01 -0.29819511941E+00  0.45988458108E+00  0.10500000000E+00 0. -1.
         13    1    6    6    0    0  0.60034651492E+00 -0.21704736331E+00 -0.44188314052E+00  0.78346104292E+00  0.10500000000E+00 0.  1.
</event>
<event>
11    0  0.3476221E-009  0.9118800E+02  0.7816531E-02  0.1126479E+00
         25   -1    0    0    0    0  0.00000000000E+00  0.00000000000E+00  0.99999998245E-14  0.12500000000E+03  0.12500000000E+03 0.  0.
    3000001    1    3    3    0    0 -0.27173032054E+01 -0.89788217037E+00  0.87794780218E+00  0.31560610649E+01  0.10000000000E+01 0.  1.
    1000022    2    1    0    0    0 -0.28971236222E+02 -0.34959373162E+02  0.41770322875E+02  0.62499999268E+02  0.99999867671E+01 0.  0.
    3000022    2    3    3    0    0 -0.26253933017E+02 -0.34061490992E+02  0.40892375072E+02  0.59343938203E+02  0.24998996031E+00 0.  0.
    1000022    2    1    0    0    0  0.28971236222E+02  0.34959373162E+02 -0.41770322875E+02  0.62500000732E+02  0.99999959146E+01 0.  0.
    3000022    2    5    5    0    0  0.13081744110E+02  0.21712811671E+02 -0.27171242264E+02  0.37160693211E+02  0.24998835055E+00 0.  0.
        -13    1    4    4    0    0 -0.14844078842E+02 -0.19168182289E+02  0.23102441086E+02  0.33488799592E+02  0.10500000000E+00 0.  1.
         13    1    4    4    0    0 -0.11409854175E+02 -0.14893308703E+02  0.17789933986E+02  0.25855138612E+02  0.10500000000E+00 0. -1.
    3000001    1    5    5    0    0  0.15889492113E+02  0.13246561491E+02 -0.14599080611E+02  0.25339307521E+02  0.10000000000E+01 0. -1.
        -13    1    6    6    0    0  0.86353469253E+01  0.14371720836E+02 -0.17896992535E+02  0.24524048261E+02  0.10500000000E+00 0. -1.
         13    1    6    6    0    0  0.44463971843E+01  0.73410908354E+01 -0.92742497288E+01  0.12636644951E+02  0.10500000000E+00 0.  1.
</event>
<event>
11    0  0.3476221E-009  0.9118800E+02  0.7816531E-02  0.1126479E+00
         25   -1    0    0    0    0  0.00000000000E+00  0.00000000000E+00  0.99999998245E-14  0.12500000000E+03  0.12500000000E+03 0.  0.
    3000001    1    3    3    0    0  0.58523891632E+00 -0.15579210349E+01  0.51876095461E+02  0.51912415690E+02  0.10000000000E+01 0.  1.
    1000022    2    1    0    0    0 -0.29332858873E+01 -0.42998948126E+01  0.61474844160E+02  0.62499998758E+02  0.10000005935E+02 0.  0.
    3000022    2    3    3    0    0 -0.35185248036E+01 -0.27419737777E+01  0.95987486995E+01  0.10587583068E+02  0.25000324900E+00 0.  0.
    1000022    2    1    0    0    0  0.29332858873E+01  0.42998948126E+01 -0.61474844160E+02  0.62500001242E+02  0.10000021464E+02 0.  0.
    3000022    2    5    5    0    0 -0.12707546474E+01 -0.21871340560E+01 -0.65685951248E+01  0.70432461669E+01  0.25000380324E+00 0.  0.
        -13    1    4    4    0    0 -0.16723904891E+01 -0.12901598704E+01  0.43877412913E+01  0.48708008662E+01  0.10500000000E+00 0.  1.
         13    1    4    4    0    0 -0.18461343145E+01 -0.14518139073E+01  0.52110074082E+01  0.57167822013E+01  0.10500000000E+00 0. -1.
    3000001    1    5    5    0    0  0.42040405346E+01  0.64870288685E+01 -0.54906249035E+02  0.55456755075E+02  0.10000000000E+01 0.  1.
        -13    1    6    6    0    0 -0.59248881401E+00 -0.10751992579E+01 -0.33591039945E+01  0.35779464900E+01  0.10500000000E+00 0. -1.
         13    1    6    6    0    0 -0.67826583337E+00 -0.11119347981E+01 -0.32094911302E+01  0.34652996769E+01  0.10500000000E+00 0.  1.
</event>
<event>
11    0  0.3476221E-009  0.9118800E+02  0.7816531E-02  0.1126479E+00
         25   -1    0    0    0    0  0.00000000000E+00  0.00000000000E+00  0.99999998245E-14  0.12500000000E+03  0.12500000000E+03 0.  0.
    3000001    1    3    3    0    0 -0.20292151524E+02 -0.23723447440E+02  0.76342481634E+01  0.32153617479E+02  0.10000000000E+01 0.  1.
    1000022    2    1    0    0    0 -0.36470374072E+02 -0.49361463987E+02  0.62934710519E+01  0.62500000495E+02  0.99999986050E+01 0.  0.
    3000022    2    3    3    0    0 -0.16178222547E+02 -0.25638016547E+02 -0.13407771115E+01  0.30346383016E+02  0.25000332733E+00 0.  0.
    1000022    2    1    0    0    0  0.36470374072E+02  0.49361463987E+02 -0.62934710519E+01  0.62499999505E+02  0.99999924185E+01 0.  0.
    3000022    2    5    5    0    0  0.33690609836E+02  0.39673168390E+02 -0.49803581556E+01  0.52286556096E+02  0.24999968770E+00 0.  0.
        -13    1    4    4    0    0 -0.89474954684E+01 -0.14070943281E+02 -0.77066146448E+00  0.16692934555E+02  0.10500000000E+00 0. -1.
         13    1    4    4    0    0 -0.72307270791E+01 -0.11567073266E+02 -0.57011564701E+00  0.13653448461E+02  0.10500000000E+00 0.  1.
    3000001    1    5    5    0    0  0.27797642358E+01  0.96882955972E+01 -0.13131128963E+01  0.10213443409E+02  0.10000000000E+01 0. -1.
        -13    1    6    6    0    0  0.98445565790E+01  0.11646960571E+02 -0.14329200702E+01  0.15317678339E+02  0.10500000000E+00 0. -1.
         13    1    6    6    0    0  0.23846053257E+02  0.28026207819E+02 -0.35474380855E+01  0.36968877757E+02  0.10500000000E+00 0.  1.
</event>
<event>
11    0  0.3476221E-009  0.9118800E+02  0.7816531E-02  0.1126479E+00
         25   -1    0    0    0    0  0.00000000000E+00  0.00000000000E+00  0.99999998245E-14  0.12500000000E+03  0.12500000000E+03 0.  0.
    3000001    1    3    3    0    0  0.27952881641E+02  0.68047463262E+01 -0.18892377674E+00  0.28787216899E+02  0.10000000000E+01 0. -1.
    1000022    2    1    0    0    0  0.59048697620E+02  0.14706015265E+02  0.10160440835E+02  0.62499998854E+02  0.99999861647E+01 0.  0.
    3000022    2    3    3    0    0  0.31095815979E+02  0.79012689384E+01  0.10349364612E+02  0.33712781956E+02  0.24999416417E+00 0.  0.
    1000022    2    1    0    0    0 -0.59048697620E+02 -0.14706015265E+02 -0.10160440835E+02  0.62500001146E+02  0.10000000485E+02 0.  0.
    3000022    2    5    5    0    0 -0.53322819423E+02 -0.10144419594E+02 -0.89177925671E+01  0.55007470805E+02  0.24999998851E+00 0.  0.
        -13    1    4    4    0    0  0.23896197234E+02  0.60620859649E+01  0.79550644711E+01  0.25905042062E+02  0.10500000000E+00 0. -1.
         13    1    4    4    0    0  0.71996187450E+01  0.18391829735E+01  0.23943001410E+01  0.78077398938E+01  0.10500000000E+00 0.  1.
    3000001    1    5    5    0    0 -0.57258781965E+01 -0.45615956703E+01 -0.12426482682E+01  0.74925303402E+01  0.10000000000E+01 0.  1.
        -13    1    6    6    0    0 -0.17647060883E+02 -0.33290189841E+01 -0.29962752862E+01  0.18206861778E+02  0.10500000000E+00 0. -1.
         13    1    6    6    0    0 -0.35675758540E+02 -0.68154006102E+01 -0.59215172809E+01  0.36800609027E+02  0.10500000000E+00 0.  1.
</event>
<event>
11    0  0.3476221E-009  0.9118800E+02  0.7816531E-02  0.1126479E+00
         25   -1    0    0    0    0  0.00000000000E+00  0.00000000000E+00  0.99999998245E-14  0.12500000000E+03  0.12500000000E+03 0.  0.
    3000001    1    3    3    0    0 -0.91284099331E+00  0.19333594478E+01 -0.62464925466E+01  0.66775614237E+01  0.10000000000E+01 0.  1.
    1000022    2    1    0    0    0 -0.33730301937E+02  0.10262157415E+02 -0.50628104194E+02  0.62499999321E+02  0.99999918632E+01 0.  0.
    3000022    2    3    3    0    0 -0.32817460944E+02  0.83287979673E+01 -0.44381611647E+02  0.55822437897E+02  0.25000398150E+00 0.  0.
    1000022    2    1    0    0    0  0.33730301937E+02 -0.10262157415E+02  0.50628104194E+02  0.62500000679E+02  0.10000000356E+02 0.  0.
    3000022    2    5    5    0    0  0.21438884967E+02 -0.11342454227E+02  0.32739236180E+02  0.40745516748E+02  0.24998568836E+00 0.  0.
        -13    1    4    4    0    0 -0.16299278291E+02  0.40667511971E+01 -0.22026255549E+02  0.27701478239E+02  0.10500000000E+00 0.  1.
         13    1    4    4    0    0 -0.16518182653E+02  0.42620467702E+01 -0.22355356098E+02  0.28120959658E+02  0.10500000000E+00 0. -1.
    3000001    1    5    5    0    0  0.12291416970E+02  0.10802968124E+01  0.17888868013E+02  0.21754483932E+02  0.10000000000E+01 0.  1.
        -13    1    6    6    0    0  0.11886320551E+02 -0.62710639983E+01  0.18031759463E+02  0.22489247080E+02  0.10500000000E+00 0.  1.
         13    1    6    6    0    0  0.95525644158E+01 -0.50713902292E+01  0.14707476718E+02  0.18256269668E+02  0.10500000000E+00 0. -1.
</event>
<event>
11    0  0.3476221E-009  0.9118800E+02  0.7816531E-02  0.1126479E+00
         25   -1    0    0    0    0  0.00000000000E+00  0.00000000000E+00  0.99999998245E-14  0.12500000000E+03  0.12500000000E+03 0.  0.
    3000001    1    3    3    0    0 -0.15069808265E+02  0.52728986753E+01  0.16806580781E+02  0.23202666638E+02  0.10000000000E+01 0. -1.
    1000022    2    1    0    0    0 -0.31282849108E+02  0.90044028494E+01  0.52407577986E+02  0.62499998902E+02  0.99999856664E+01 0.  0.
    3000022    2    3    3    0    0 -0.16213040844E+02  0.37315041741E+01  0.35600997205E+02  0.39297332264E+02  0.25000845152E+00 0.  0.
    1000022    2    1    0    0    0  0.31282849108E+02 -0.90044028494E+01 -0.52407577986E+02  0.62500001098E+02  0.99999993916E+01 0.  0.
    3000022    2    5    5    0    0  0.46439735585E+01 -0.20164164354E+01 -0.16345745302E+02  0.17113687949E+02  0.25000018492E+00 0.  0.
        -13    1    4    4    0    0 -0.71068706645E+01  0.16744498887E+01  0.15496485004E+02  0.17130775393E+02  0.10500000000E+00 0. -1.
         13    1    4    4    0    0 -0.91061701792E+01  0.20570542855E+01  0.20104512201E+02  0.22166556871E+02  0.10500000000E+00 0.  1.
    3000001    1    5    5    0    0  0.26638875550E+02 -0.69879864140E+01 -0.36061832685E+02  0.45386313149E+02  0.10000000000E+01 0.  1.
        -13    1    6    6    0    0  0.20301436890E+01 -0.86630594409E+00 -0.69111702784E+01  0.72558437830E+01  0.10500000000E+00 0. -1.
         13    1    6    6    0    0  0.26138298695E+01 -0.11501104913E+01 -0.94345750232E+01  0.98578441658E+01  0.10500000000E+00 0.  1.
</event>
<event>
11    0  0.3476221E-009  0.9118800E+02  0.7816531E-02  0.1126479E+00
         25   -1    0    0    0    0  0.00000000000E+00  0.00000000000E+00  0.99999998245E-14  0.12500000000E+03  0.12500000000E+03 0.  0.
    3000001    1    3    3    0    0 -0.16133429012E+02 -0.17554009104E+02  0.73939313284E+01  0.24982013286E+02  0.10000000000E+01 0.  1.
    1000022    2    1    0    0    0 -0.47971469811E+02 -0.34556058220E+02  0.17631421118E+02  0.62499999003E+02  0.99999894599E+01 0.  0.
    3000022    2    3    3    0    0 -0.31838040798E+02 -0.17002049116E+02  0.10237489789E+02  0.37517985717E+02  0.25007807719E+00 0.  0.
    1000022    2    1    0    0    0  0.47971469811E+02  0.34556058220E+02 -0.17631421118E+02  0.62500000997E+02  0.10000001926E+02 0.  0.
    3000022    2    5    5    0    0  0.33373999950E+02  0.29198202892E+02 -0.12100492500E+02  0.45965675748E+02  0.25000704742E+00 0.  0.
        -13    1    4    4    0    0 -0.23298152125E+02 -0.12453151886E+02  0.74577941665E+01  0.27450220457E+02  0.10500000000E+00 0.  1.
         13    1    4    4    0    0 -0.85398886738E+01 -0.45488972295E+01  0.27796956225E+01  0.10067765259E+02  0.10500000000E+00 0. -1.
    3000001    1    5    5    0    0  0.14597469861E+02  0.53578553285E+01 -0.55309286179E+01  0.16534325249E+02  0.10000000000E+01 0.  1.
        -13    1    6    6    0    0  0.16775663034E+02  0.14623459927E+02 -0.61295764123E+01  0.23083569535E+02  0.10500000000E+00 0.  1.
         13    1    6    6    0    0  0.16598336916E+02  0.14574742965E+02 -0.59709160873E+01  0.22882106214E+02  0.10500000000E+00 0. -1.
</event>
<event>
11    0  0.3476221E-009  0.9118800E+02  0.7816531E-02  0.1126479E+00
         25   -1    0    0    0    0  0.00000000000E+00  0.00000000000E+00  0.99999998245E-14  0.12500000000E+03  0.12500000000E+03 0.  0.
    3000001    1    3    3    0    0  0.54459873739E+01 -0.49659759768E+01  0.71375110024E+01  0.10308431461E+02  0.10000000000E+01 0. -1.
    1000022    2    1    0    0    0  0.42896504623E+02 -0.10676601852E+02  0.43036608441E+02  0.62500003428E+02  0.10000041321E+02 0.  0.
    3000022    2    3    3    0    0  0.37450517249E+02 -0.57106258749E+01  0.35899097438E+02  0.52191571967E+02  0.24999470594E+00 0.  0.
    1000022    2    1    0    0    0 -0.42896504623E+02  0.10676601852E+02 -0.43036608441E+02  0.62499996572E+02  0.99999984742E+01 0.  0.
    3000022    2    5    5    0    0 -0.85528887910E+01 -0.59781315944E+00 -0.12558944574E+02  0.15208513438E+02  0.25000987361E+00 0.  0.
        -13    1    4    4    0    0  0.25953967090E+02 -0.40049150271E+01  0.24897326382E+02  0.36187506657E+02  0.10500000000E+00 0. -1.
         13    1    4    4    0    0  0.11496550159E+02 -0.17057108478E+01  0.11001771056E+02  0.16004065310E+02  0.10500000000E+00 0.  1.
    3000001    1    5    5    0    0 -0.34343615832E+02  0.11274415011E+02 -0.30477663866E+02  0.47291483134E+02  0.10000000000E+01 0.  1.
        -13    1    6    6    0    0 -0.39939853414E+01 -0.34592871218E+00 -0.58541958463E+01  0.70960707147E+01  0.10500000000E+00 0. -1.
         13    1    6    6    0    0 -0.45589034496E+01 -0.25188444726E+00 -0.67047487280E+01  0.81124427236E+01  0.10500000000E+00 0.  1.
</event>
<event>
11    0  0.3476221E-009  0.9118800E+02  0.7816531E-02  0.1126479E+00
         25   -1    0    0    0    0  0.00000000000E+00  0.00000000000E+00  0.99999998245E-14  0.12500000000E+03  0.12500000000E+03 0.  0.
    3000001    1    3    3    0    0  0.55314517421E+00  0.44886469610E+01 -0.37661388885E+01  0.59697339348E+01  0.10000000000E+01 0.  1.
    1000022    2    1    0    0    0 -0.19096849808E+02  0.34300810935E+02 -0.47592172728E+02  0.62500001660E+02  0.99999999578E+01 0.  0.
    3000022    2    3    3    0    0 -0.19649994982E+02  0.29812163974E+02 -0.43826033839E+02  0.56530267725E+02  0.25000677550E+00 0.  0.
    1000022    2    1    0    0    0  0.19096849808E+02 -0.34300810935E+02  0.47592172728E+02  0.62499998340E+02  0.99999792099E+01 0.  0.
    3000022    2    5    5    0    0  0.17227317141E+01 -0.11278708281E+01  0.19053577239E+00  0.20829550418E+01  0.25000132443E+00 0.  0.
        -13    1    4    4    0    0 -0.58216227333E+01  0.87774338040E+01 -0.12979916869E+02  0.16715977457E+02  0.10500000000E+00 0.  1.
         13    1    4    4    0    0 -0.13828372249E+02  0.21034730170E+02 -0.30846116970E+02  0.39814290268E+02  0.10500000000E+00 0. -1.
    3000001    1    5    5    0    0  0.17374118094E+02 -0.33172940107E+02  0.47401636955E+02  0.60417043298E+02  0.10000000000E+01 0. -1.
        -13    1    6    6    0    0  0.11612034002E+01 -0.70369928676E+00  0.96627307427E-01  0.13652647580E+01  0.10500000000E+00 0.  1.
         13    1    6    6    0    0  0.56152831383E+00 -0.42417154134E+00  0.93908464963E-01  0.71769028383E+00  0.10500000000E+00 0. -1.
</event>
<event>
11    0  0.3476221E-009  0.9118800E+02  0.7816531E-02  0.1126479E+00
         25   -1    0    0    0    0  0.00000000000E+00  0.00000000000E+00  0.99999998245E-14  0.12500000000E+03  0.12500000000E+03 0.  0.
    3000001    1    3    3    0    0  0.16558619486E+02  0.78374127793E+01 -0.24809539705E+02  0.30856541911E+02  0.10000000000E+01 0.  1.
    1000022    2    1    0    0    0  0.39997915653E+02  0.18645590617E+02 -0.43113325284E+02  0.62499999918E+02  0.99999933354E+01 0.  0.
    3000022    2    3    3    0    0  0.23439296167E+02  0.10808177838E+02 -0.18303785579E+02  0.31643458007E+02  0.25011024642E+00 0.  0.
    1000022    2    1    0    0    0 -0.39997915653E+02 -0.18645590617E+02  0.43113325284E+02  0.62500000082E+02  0.99999943573E+01 0.  0.
    3000022    2    5    5    0    0 -0.38467264469E+02 -0.15411139297E+02  0.38382885378E+02  0.56484883284E+02  0.24999898369E+00 0.  0.
        -13    1    4    4    0    0  0.12313240731E+02  0.56159180855E+01 -0.95508392666E+01  0.16564540107E+02  0.10500000000E+00 0.  1.
         13    1    4    4    0    0  0.11126055436E+02  0.51922597527E+01 -0.87529463122E+01  0.15078917900E+02  0.10500000000E+00 0. -1.
    3000001    1    5    5    0    0 -0.15306511839E+01 -0.32344513201E+01  0.47304399062E+01  0.60151167981E+01  0.10000000000E+01 0. -1.
        -13    1    6    6    0    0 -0.12041277302E+02 -0.47752992361E+01  0.11972710672E+02  0.17639520053E+02  0.10500000000E+00 0. -1.
         13    1    6    6    0    0 -0.26425987167E+02 -0.10635840061E+02  0.26410174705E+02  0.38845363230E+02  0.10500000000E+00 0.  1.
</event>
<event>
11    0  0.3476221E-009  0.9118800E+02  0.7816531E-02  0.1126479E+00
         25   -1    0    0    0    0  0.00000000000E+00  0.00000000000E+00  0.99999998245E-14  0.12500000000E+03  0.12500000000E+03 0.  0.
    3000001    1    3    3    0    0 -0.39180915418E+01  0.10068409955E+02 -0.42115668753E+02  0.43490848173E+02  0.10000000000E+01 0.  1.
    1000022    2    1    0    0    0 -0.16549515462E+01  0.19304510954E+02 -0.58573433325E+02  0.62500000672E+02  0.99999992368E+01 0.  0.
    3000022    2    3    3    0    0  0.22631399956E+01  0.92361009989E+01 -0.16457764572E+02  0.19009152499E+02  0.24999939497E+00 0.  0.
    1000022    2    1    0    0    0  0.16549515462E+01 -0.19304510954E+02  0.58573433325E+02  0.62499999328E+02  0.99999908341E+01 0.  0.
    3000022    2    5    5    0    0 -0.37550164765E+01 -0.37848863427E+01  0.14176766020E+02  0.15148224599E+02  0.25000074992E+00 0.  0.
        -13    1    4    4    0    0  0.11653866366E+01  0.44851157460E+01 -0.79779707394E+01  0.92267779526E+01  0.10500000000E+00 0.  1.
         13    1    4    4    0    0  0.10977533590E+01  0.47509852529E+01 -0.84797938330E+01  0.97823745461E+01  0.10500000000E+00 0. -1.
    3000001    1    5    5    0    0  0.54099680227E+01 -0.15519624611E+02  0.44396667306E+02  0.47351774728E+02  0.10000000000E+01 0.  1.
        -13    1    6    6    0    0 -0.11805444816E+01 -0.11271942126E+01  0.42953901902E+01  0.45962652178E+01  0.10500000000E+00 0.  1.
         13    1    6    6    0    0 -0.25744719949E+01 -0.26576921301E+01  0.98813758294E+01  0.10551959382E+02  0.10500000000E+00 0. -1.
</event>
<event>
11    0  0.3476221E-009  0.9118800E+02  0.7816531E-02  0.1126479E+00
         25   -1    0    0    0    0  0.00000000000E+00  0.00000000000E+00  0.99999998245E-14  0.12500000000E+03  0.12500000000E+03 0.  0.
    3000001    1    3    3    0    0  0.14099243618E+02 -0.33083207886E+02  0.89725174638E+01  0.37078206324E+02  0.10000000000E+01 0. -1.
    1000022    2    1    0    0    0  0.30063356679E+02 -0.52781667787E+02  0.10795371852E+02  0.62499998652E+02  0.99999954443E+01 0.  0.
    3000022    2    3    3    0    0  0.15964113061E+02 -0.19698459901E+02  0.18228543878E+01  0.25421792328E+02  0.24999740735E+00 0.  0.
    1000022    2    1    0    0    0 -0.30063356679E+02  0.52781667787E+02 -0.10795371852E+02  0.62500001348E+02  0.10000012294E+02 0.  0.
    3000022    2    5    5    0    0 -0.44436655189E+01  0.64776340435E+01  0.18667302555E+01  0.80779383050E+01  0.24999873751E+00 0.  0.
        -13    1    4    4    0    0  0.11677003403E+02 -0.14384055030E+02  0.13642055616E+01  0.18577554451E+02  0.10500000000E+00 0.  1.
         13    1    4    4    0    0  0.42871096582E+01 -0.53144048719E+01  0.45864882616E+00  0.68442378765E+01  0.10500000000E+00 0. -1.
    3000001    1    5    5    0    0 -0.25619691160E+02  0.46304033744E+02 -0.12662102107E+02  0.54422063043E+02  0.10000000000E+01 0. -1.
        -13    1    6    6    0    0 -0.17967211583E+01  0.25267758299E+01  0.70160964436E+00  0.31805792096E+01  0.10500000000E+00 0.  1.
         13    1    6    6    0    0 -0.26469443605E+01  0.39508582135E+01  0.11651206111E+01  0.48973590954E+01  0.10500000000E+00 0. -1.
</event>
<event>
11    0  0.3476221E-009  0.9118800E+02  0.7816531E-02  0.1126479E+00
         25   -1    0    0    0    0  0.00000000000E+00  0.00000000000E+00  0.99999998245E-14  0.12500000000E+03  0.12500000000E+03 0.  0.
    3000001    1    3    3    0    0  0.48185483875E+01  0.11274120630E+02  0.13938306515E+01  0.12380103733E+02  0.10000000000E+01 0. -1.
    1000022    2    1    0    0    0  0.20528242576E+02  0.52206406102E+02  0.25677464990E+02  0.62499998846E+02  0.10000003304E+02 0.  0.
    3000022    2    3    3    0    0  0.15709694188E+02  0.40932285472E+02  0.24283634339E+02  0.50119895114E+02  0.25000806020E+00 0.  0.
    1000022    2    1    0    0    0 -0.20528242576E+02 -0.52206406102E+02 -0.25677464990E+02  0.62500001154E+02  0.10000017724E+02 0.  0.
    3000022    2    5    5    0    0 -0.12687238127E+02 -0.24417233655E+02 -0.81152814376E+01  0.28689503564E+02  0.25002262906E+00 0.  0.
        -13    1    4    4    0    0  0.47571146333E+01  0.12288370302E+02  0.73278446134E+01  0.15077881681E+02  0.10500000000E+00 0.  1.
         13    1    4    4    0    0  0.10952579555E+02  0.28643915170E+02  0.16955789726E+02  0.35042013432E+02  0.10500000000E+00 0. -1.
    3000001    1    5    5    0    0 -0.78410044490E+01 -0.27789172447E+02 -0.17562183553E+02  0.33810497589E+02  0.10000000000E+01 0. -1.
        -13    1    6    6    0    0 -0.79749775982E+01 -0.15217607258E+02 -0.50697383957E+01  0.17913377983E+02  0.10500000000E+00 0. -1.
         13    1    6    6    0    0 -0.47122605287E+01 -0.91996263967E+01 -0.30455430419E+01  0.10776125582E+02  0.10500000000E+00 0.  1.
</event>
<event>
11    0  0.3476221E-009  0.9118800E+02  0.7816531E-02  0.1126479E+00
         25   -1    0    0    0    0  0.00000000000E+00  0.00000000000E+00  0.99999998245E-14  0.12500000000E+03  0.12500000000E+03 0.  0.
    3000001    1    3    3    0    0  0.45157962404E+02 -0.67210688280E+01 -0.73512799496E+01  0.46254250092E+02  0.10000000000E+01 0. -1.
    1000022    2    1    0    0    0  0.58810523019E+02 -0.11054959710E+02 -0.15012010195E+02  0.62499997962E+02  0.99999771575E+01 0.  0.
    3000022    2    3    3    0    0  0.13652560615E+02 -0.43338908817E+01 -0.76607302451E+01  0.16245747870E+02  0.25002886265E+00 0.  0.
    1000022    2    1    0    0    0 -0.58810523019E+02  0.11054959710E+02  0.15012010195E+02  0.62500002038E+02  0.10000002633E+02 0.  0.
    3000022    2    5    5    0    0 -0.16715642034E+02  0.77234546469E+01  0.52315661117E+01  0.19144091050E+02  0.24999569800E+00 0.  0.
        -13    1    4    4    0    0  0.91805541911E+01 -0.29652946959E+01 -0.51377704589E+01  0.10930839775E+02  0.10500000000E+00 0. -1.
         13    1    4    4    0    0  0.44720064240E+01 -0.13685961858E+01 -0.25229597862E+01  0.53149080951E+01  0.10500000000E+00 0.  1.
    3000001    1    5    5    0    0 -0.42094880985E+02  0.33315050628E+01  0.97804440830E+01  0.43355910988E+02  0.10000000000E+01 0.  1.
        -13    1    6    6    0    0 -0.11167487788E+02  0.51901212397E+01  0.34512903931E+01  0.12789549342E+02  0.10500000000E+00 0. -1.
         13    1    6    6    0    0 -0.55481542460E+01  0.25333334073E+01  0.17802757186E+01  0.63545417085E+01  0.10500000000E+00 0.  1.
</event>
<event>
11    0  0.3476221E-009  0.9118800E+02  0.7816531E-02  0.1126479E+00
         25   -1    0    0    0    0  0.00000000000E+00  0.00000000000E+00  0.99999998245E-14  0.12500000000E+03  0.12500000000E+03 0.  0.
    3000001    1    3    3    0    0  0.21737883061E+02 -0.57145827767E+01  0.13674685396E+02  0.26328483377E+02  0.10000000000E+01 0. -1.
    1000022    2    1    0    0    0  0.49741511290E+02 -0.23896915920E+02  0.27585676000E+02  0.62499999636E+02  0.99999949086E+01 0.  0.
    3000022    2    3    3    0    0  0.28003628230E+02 -0.18182333143E+02  0.13910990604E+02  0.36171516258E+02  0.24999259295E+00 0.  0.
    1000022    2    1    0    0    0 -0.49741511290E+02  0.23896915920E+02 -0.27585676000E+02  0.62500000364E+02  0.99999994612E+01 0.  0.
    3000022    2    5    5    0    0 -0.93466084732E+01  0.72432974529E+01 -0.96247363726E+01  0.15248687854E+02  0.24996616170E+00 0.  0.
        -13    1    4    4    0    0  0.71247806746E+01 -0.46465465618E+01  0.35693984924E+01  0.92252113911E+01  0.10500000000E+00 0.  1.
         13    1    4    4    0    0  0.20878847555E+02 -0.13535786581E+02  0.10341592112E+02  0.26946304867E+02  0.10500000000E+00 0. -1.
    3000001    1    5    5    0    0 -0.40394902817E+02  0.16653618467E+02 -0.17960939628E+02  0.47251312510E+02  0.10000000000E+01 0. -1.
        -13    1    6    6    0    0 -0.58837692063E+01  0.45452427379E+01 -0.59755812543E+01  0.95392121240E+01  0.10500000000E+00 0.  1.
         13    1    6    6    0    0 -0.34628392669E+01  0.26980547149E+01 -0.36491551183E+01  0.57094757299E+01  0.10500000000E+00 0. -1.
</event>
<event>
11    0  0.3476221E-009  0.9118800E+02  0.7816531E-02  0.1126479E+00
         25   -1    0    0    0    0  0.00000000000E+00  0.00000000000E+00  0.99999998245E-14  0.12500000000E+03  0.12500000000E+03 0.  0.
    3000001    1    3    3    0    0  0.24801435125E+01  0.56035669408E+01  0.16785826659E+02  0.17897347595E+02  0.10000000000E+01 0. -1.
    1000022    2    1    0    0    0  0.20083378441E+02  0.27304879454E+02  0.51549505079E+02  0.62500000907E+02  0.10000005400E+02 0.  0.
    3000022    2    3    3    0    0  0.17603234928E+02  0.21701312513E+02  0.34763678420E+02  0.44602653313E+02  0.25000108138E+00 0.  0.
    1000022    2    1    0    0    0 -0.20083378441E+02 -0.27304879454E+02 -0.51549505079E+02  0.62499999093E+02  0.99999940561E+01 0.  0.
    3000022    2    5    5    0    0 -0.12884381025E+02 -0.23009784710E+02 -0.34034824039E+02  0.43056813793E+02  0.24999979029E+00 0.  0.
        -13    1    4    4    0    0  0.79304478140E+01  0.97648428699E+01  0.15755867068E+02  0.20161907917E+02  0.10500000000E+00 0.  1.
         13    1    4    4    0    0  0.96727871142E+01  0.11936469643E+02  0.19007811352E+02  0.24440745395E+02  0.10500000000E+00 0. -1.
    3000001    1    5    5    0    0 -0.71989974157E+01 -0.42950947444E+01 -0.17514681040E+02  0.19443185299E+02  0.10000000000E+01 0. -1.
        -13    1    6    6    0    0 -0.45341866418E+01 -0.80100004053E+01 -0.11819312731E+02  0.14980858902E+02  0.10500000000E+00 0. -1.
         13    1    6    6    0    0 -0.83501943832E+01 -0.14999784304E+02 -0.22215511308E+02  0.28075954892E+02  0.10500000000E+00 0.  1.
</event>
<event>
11    0  0.3476221E-009  0.9118800E+02  0.7816531E-02  0.1126479E+00
         25   -1    0    0    0    0  0.00000000000E+00  0.00000000000E+00  0.99999998245E-14  0.12500000000E+03  0.12500000000E+03 0.  0.
    3000001    1    3    3    0    0  0.35859565604E+02  0.84928931821E+01 -0.34480127075E+02  0.50476894150E+02  0.10000000000E+01 0.  1.
    1000022    2    1    0    0    0  0.40410185682E+02  0.11856140383E+02 -0.45085458444E+02  0.62500002211E+02  0.10000027084E+02 0.  0.
    3000022    2    3    3    0    0  0.45506200777E+01  0.33632472008E+01 -0.10605331369E+02  0.12023108061E+02  0.24999836716E+00 0.  0.
    1000022    2    1    0    0    0 -0.40410185682E+02 -0.11856140383E+02  0.45085458444E+02  0.62499997789E+02  0.99999994460E+01 0.  0.
    3000022    2    5    5    0    0 -0.30998549387E+02 -0.10180047915E+02  0.40019129114E+02  0.51634645673E+02  0.24999831076E+00 0.  0.
        -13    1    4    4    0    0  0.14170131720E+01  0.10033081126E+01 -0.31895891428E+01  0.36330507013E+01  0.10500000000E+00 0. -1.
         13    1    4    4    0    0  0.31336069057E+01  0.23599390882E+01 -0.74157422258E+01  0.83900573597E+01  0.10500000000E+00 0.  1.
    3000001    1    5    5    0    0 -0.94116362954E+01 -0.16760924684E+01  0.50663293295E+01  0.10865352115E+02  0.10000000000E+01 0. -1.
        -13    1    6    6    0    0 -0.17834325511E+02 -0.58144593322E+01  0.22926618108E+02  0.29622828134E+02  0.10500000000E+00 0.  1.
         13    1    6    6    0    0 -0.13164223875E+02 -0.43655885824E+01  0.17092511006E+02  0.22011817540E+02  0.10500000000E+00 0. -1.
</event>
<event>
11    0  0.3476221E-009  0.9118800E+02  0.7816531E-02  0.1126479E+00
         25   -1    0    0    0    0  0.00000000000E+00  0.00000000000E+00  0.99999998245E-14  0.12500000000E+03  0.12500000000E+03 0.  0.
    3000001    1    3    3    0    0  0.55982435237E+01  0.11218027364E+02  0.38303620448E+01  0.13147476636E+02  0.10000000000E+01 0. -1.
    1000022    2    1    0    0    0  0.39831777202E+02  0.46669219848E+02  0.64547399474E+01  0.62500001705E+02  0.99999994496E+01 0.  0.
    3000022    2    3    3    0    0  0.34233533679E+02  0.35451192484E+02  0.26243779027E+01  0.49352525069E+02  0.24998932803E+00 0.  0.
    1000022    2    1    0    0    0 -0.39831777202E+02 -0.46669219848E+02 -0.64547399474E+01  0.62499998295E+02  0.99999781376E+01 0.  0.
    3000022    2    5    5    0    0 -0.29307743670E+02 -0.38314358167E+02 -0.81390352775E+01  0.48920755081E+02  0.25000339525E+00 0.  0.
        -13    1    4    4    0    0  0.79878283430E+01  0.82758889388E+01  0.62475386309E+00  0.11519421937E+02  0.10500000000E+00 0. -1.
         13    1    4    4    0    0  0.26245705336E+02  0.27175303545E+02  0.19996240396E+01  0.37833103133E+02  0.10500000000E+00 0.  1.
    3000001    1    5    5    0    0 -0.10524033532E+02 -0.83548616814E+01  0.16842953301E+01  0.13579243214E+02  0.10000000000E+01 0. -1.
        -13    1    6    6    0    0 -0.14765168722E+02 -0.19316078828E+02 -0.40339405733E+01  0.24645583990E+02  0.10500000000E+00 0.  1.
         13    1    6    6    0    0 -0.14542574948E+02 -0.18998279339E+02 -0.41050947042E+01  0.24275171091E+02  0.10500000000E+00 0. -1.
</event>
<event>
11    0  0.3476221E-009  0.9118800E+02  0.7816531E-02  0.1126479E+00
         25   -1    0    0    0    0  0.00000000000E+00  0.00000000000E+00  0.99999998245E-14  0.12500000000E+03  0.12500000000E+03 0.  0.
    3000001    1    3    3    0    0  0.52402366507E+01 -0.31326079497E+02 -0.23978656694E+02  0.39809035578E+02  0.10000000000E+01 0.  1.
    1000022    2    1    0    0    0  0.15082553623E+02 -0.46201349635E+02 -0.38002655218E+02  0.62500000819E+02  0.10000008344E+02 0.  0.
    3000022    2    3    3    0    0  0.98423169719E+01 -0.14875270138E+02 -0.14023998524E+02  0.22690965241E+02  0.25000782241E+00 0.  0.
    1000022    2    1    0    0    0 -0.15082553623E+02  0.46201349635E+02  0.38002655218E+02  0.62499999181E+02  0.99999981079E+01 0.  0.
    3000022    2    5    5    0    0 -0.48685927427E+01  0.90193086291E+01  0.37574228417E+01  0.10919333126E+02  0.24997211370E+00 0.  0.
        -13    1    4    4    0    0  0.49473665274E+01 -0.75427794798E+01 -0.70193228726E+01  0.11430305176E+02  0.10500000000E+00 0.  1.
         13    1    4    4    0    0  0.48949504445E+01 -0.73324906585E+01 -0.70046756515E+01  0.11260660065E+02  0.10500000000E+00 0. -1.
    3000001    1    5    5    0    0 -0.10213960880E+02  0.37182041006E+02  0.34245232376E+02  0.51580666055E+02  0.10000000000E+01 0. -1.
        -13    1    6    6    0    0 -0.34482997087E+01  0.64738225409E+01  0.26820025008E+01  0.78105897080E+01  0.10500000000E+00 0. -1.
         13    1    6    6    0    0 -0.14202930340E+01  0.25454860882E+01  0.10754203409E+01  0.31087434177E+01  0.10500000000E+00 0.  1.
</event>
<event>
11    0  0.3476221E-009  0.9118800E+02  0.7816531E-02  0.1126479E+00
         25   -1    0    0    0    0  0.00000000000E+00  0.00000000000E+00  0.99999998245E-14  0.12500000000E+03  0.12500000000E+03 0.  0.
    3000001    1    3    3    0    0 -0.36472230409E+01 -0.42732662837E+02 -0.19504221719E+02  0.47125336857E+02  0.10000000000E+01 0.  1.
    1000022    2    1    0    0    0  0.75209456018E+00 -0.55825091190E+02 -0.26253445230E+02  0.62499997686E+02  0.99999935877E+01 0.  0.
    3000022    2    3    3    0    0  0.43993176011E+01 -0.13092428353E+02 -0.67492235114E+01  0.15374660829E+02  0.25000414837E+00 0.  0.
    1000022    2    1    0    0    0 -0.75209456018E+00  0.55825091190E+02  0.26253445230E+02  0.62500002314E+02  0.10000022507E+02 0.  0.
    3000022    2    5    5    0    0  0.32927885634E+01  0.17742309285E+02  0.51763849658E+01  0.18774702698E+02  0.25000957209E+00 0.  0.
        -13    1    4    4    0    0  0.11600876017E+01 -0.35521625408E+01 -0.18457868164E+01  0.41691265190E+01  0.10500000000E+00 0.  1.
         13    1    4    4    0    0  0.32392299994E+01 -0.95402658122E+01 -0.49034366950E+01  0.11205534310E+02  0.10500000000E+00 0. -1.
    3000001    1    5    5    0    0 -0.40448831236E+01  0.38082781905E+02  0.21077060265E+02  0.43725299616E+02  0.10000000000E+01 0.  1.
        -13    1    6    6    0    0  0.21664708018E+01  0.11890328213E+02  0.34302266154E+01  0.12563876009E+02  0.10500000000E+00 0.  1.
         13    1    6    6    0    0  0.11263177616E+01  0.58519810722E+01  0.17461583504E+01  0.62108266884E+01  0.10500000000E+00 0. -1.
</event>
<event>
11    0  0.3476221E-009  0.9118800E+02  0.7816531E-02  0.1126479E+00
         25   -1    0    0    0    0  0.00000000000E+00  0.00000000000E+00  0.99999998245E-14  0.12500000000E+03  0.12500000000E+03 0.  0.
    3000001    1    3    3    0    0  0.15518044411E+02  0.10453162042E+01  0.25245767971E+02  0.29669027432E+02  0.10000000000E+01 0. -1.
    1000022    2    1    0    0    0  0.27122824689E+02 -0.63849145256E+01  0.55043939548E+02  0.62500000380E+02  0.10000000697E+02 0.  0.
    3000022    2    3    3    0    0  0.11604780278E+02 -0.74302307298E+01  0.29798171577E+02  0.32830972948E+02  0.25000279165E+00 0.  0.
    1000022    2    1    0    0    0 -0.27122824689E+02  0.63849145256E+01 -0.55043939548E+02  0.62499999620E+02  0.99999959438E+01 0.  0.
    3000022    2    5    5    0    0 -0.17651798303E+02  0.72188224182E+01 -0.28555352944E+02  0.34339016621E+02  0.25000059219E+00 0.  0.
        -13    1    4    4    0    0  0.35883144983E+01 -0.23404222446E+01  0.93433280226E+01  0.10279220825E+02  0.10500000000E+00 0.  1.
         13    1    4    4    0    0  0.80164657793E+01 -0.50898084852E+01  0.20454843554E+02  0.22551752123E+02  0.10500000000E+00 0. -1.
    3000001    1    5    5    0    0 -0.94710263858E+01 -0.83390789259E+00 -0.26488586604E+02  0.28160982998E+02  0.10000000000E+01 0. -1.
        -13    1    6    6    0    0 -0.86325901098E+01  0.35783402535E+01 -0.13900025734E+02  0.16749563319E+02  0.10500000000E+00 0. -1.
         13    1    6    6    0    0 -0.90192081933E+01  0.36404821648E+01 -0.14655327210E+02  0.17589453302E+02  0.10500000000E+00 0.  1.
</event>
<event>
11    0  0.3476221E-009  0.9118800E+02  0.7816531E-02  0.1126479E+00
         25   -1    0    0    0    0  0.00000000000E+00  0.00000000000E+00  0.99999998245E-14  0.12500000000E+03  0.12500000000E+03 0.  0.
    3000001    1    3    3    0    0  0.38204228549E+02  0.42084738299E+02 -0.10141212058E+02  0.57745410715E+02  0.10000000000E+01 0. -1.
    1000022    2    1    0    0    0  0.39205480413E+02  0.46680468659E+02 -0.94928461494E+01  0.62500000246E+02  0.10000002705E+02 0.  0.
    3000022    2    3    3    0    0  0.10012518644E+01  0.45957303600E+01  0.64836590835E+00  0.47545895306E+01  0.25000083106E+00 0.  0.
    1000022    2    1    0    0    0 -0.39205480413E+02 -0.46680468659E+02  0.94928461494E+01  0.62499999754E+02  0.99999996294E+01 0.  0.
    3000022    2    5    5    0    0 -0.42411348196E+01 -0.76818214044E+01  0.45303197412E+01  0.98784583586E+01  0.25007586603E+00 0.  0.
        -13    1    4    4    0    0  0.23001498349E+00  0.11770465611E+01  0.15181060216E+00  0.12134318928E+01  0.10500000000E+00 0.  1.
         13    1    4    4    0    0  0.77123688086E+00  0.34186837989E+01  0.49655530619E+00  0.35411576378E+01  0.10500000000E+00 0. -1.
    3000001    1    5    5    0    0 -0.34964345593E+02 -0.38998647255E+02  0.49625264081E+01  0.52621541395E+02  0.10000000000E+01 0. -1.
        -13    1    6    6    0    0 -0.20491893467E+01 -0.35766027312E+01  0.21472658293E+01  0.46489826433E+01  0.10500000000E+00 0. -1.
         13    1    6    6    0    0 -0.21919454729E+01 -0.41052186731E+01  0.23830539119E+01  0.52294757153E+01  0.10500000000E+00 0.  1.
</event>
<event>
11    0  0.3476221E-009  0.9118800E+02  0.7816531E-02  0.1126479E+00
         25   -1    0    0    0    0  0.00000000000E+00  0.00000000000E+00  0.99999998245E-14  0.12500000000E+03  0.12500000000E+03 0.  0.
    3000001    1    3    3    0    0  0.39641217657E+00  0.36097369052E+02  0.26640749245E+02  0.44876572011E+02  0.10000000000E+01 0.  1.
    1000022    2    1    0    0    0 -0.53596994946E+01  0.50392987868E+02  0.35186214608E+02  0.62499994274E+02  0.99999990441E+01 0.  0.
    3000022    2    3    3    0    0 -0.57561116712E+01  0.14295618816E+02  0.85454653626E+01  0.17623422263E+02  0.24999019963E+00 0.  0.
    1000022    2    1    0    0    0  0.53596994946E+01 -0.50392987868E+02 -0.35186214608E+02  0.62500005726E+02  0.10000070618E+02 0.  0.
    3000022    2    5    5    0    0  0.25094377679E+01 -0.30210297661E+02 -0.15108282164E+02  0.33871552273E+02  0.25000145677E+00 0.  0.
        -13    1    4    4    0    0 -0.14580055751E+01  0.35965794966E+01  0.21229832718E+01  0.44248443255E+01  0.10500000000E+00 0. -1.
         13    1    4    4    0    0 -0.42981060961E+01  0.10699039319E+02  0.64224820907E+01  0.13198577937E+02  0.10500000000E+00 0.  1.
    3000001    1    5    5    0    0  0.28502617267E+01 -0.20182690207E+02 -0.20077932444E+02  0.28628453453E+02  0.10000000000E+01 0.  1.
        -13    1    6    6    0    0  0.10184688360E+01 -0.12930155122E+02 -0.64253886904E+01  0.14474903629E+02  0.10500000000E+00 0.  1.
         13    1    6    6    0    0  0.14909689319E+01 -0.17280142539E+02 -0.86828934733E+01  0.19396648643E+02  0.10500000000E+00 0. -1.
</event>
<event>
11    0  0.3476221E-009  0.9118800E+02  0.7816531E-02  0.1126479E+00
         25   -1    0    0    0    0  0.00000000000E+00  0.00000000000E+00  0.99999998245E-14  0.12500000000E+03  0.12500000000E+03 0.  0.
    3000001    1    3    3    0    0  0.53477614152E+01 -0.47750237899E+01 -0.40174518024E+02  0.40821456402E+02  0.10000000000E+01 0.  1.
    1000022    2    1    0    0    0  0.12888417718E+02 -0.12230445866E+02 -0.59080918656E+02  0.62500001133E+02  0.10000003755E+02 0.  0.
    3000022    2    3    3    0    0  0.75406563032E+01 -0.74554220759E+01 -0.18906400632E+02  0.21678544731E+02  0.25000198467E+00 0.  0.
    1000022    2    1    0    0    0 -0.12888417718E+02  0.12230445866E+02  0.59080918656E+02  0.62499998867E+02  0.99999895865E+01 0.  0.
    3000022    2    5    5    0    0 -0.26499457834E+01 -0.13661403885E+01  0.13677287245E+02  0.14000687422E+02  0.25001935812E+00 0.  0.
        -13    1    4    4    0    0  0.31660936865E+01 -0.30635689898E+01 -0.79445755580E+01  0.90849826628E+01  0.10500000000E+00 0. -1.
         13    1    4    4    0    0  0.43745626167E+01 -0.43918530861E+01 -0.10961825074E+02  0.12593562069E+02  0.10500000000E+00 0.  1.
    3000001    1    5    5    0    0 -0.10238471935E+02  0.13596586254E+02  0.45403631411E+02  0.48499311445E+02  0.10000000000E+01 0.  1.
        -13    1    6    6    0    0 -0.16841366418E+01 -0.90339726419E+00  0.85239814212E+01  0.87362307155E+01  0.10500000000E+00 0. -1.
         13    1    6    6    0    0 -0.96580914167E+00 -0.46274312427E+00  0.51533058242E+01  0.52644567065E+01  0.10500000000E+00 0.  1.
</event>
<event>
11    0  0.3476221E-009  0.9118800E+02  0.7816531E-02  0.1126479E+00
         25   -1    0    0    0    0  0.00000000000E+00  0.00000000000E+00  0.99999998245E-14  0.12500000000E+03  0.12500000000E+03 0.  0.
    3000001    1    3    3    0    0 -0.17881057712E+02 -0.12296433228E+01 -0.41558954806E+02  0.45270199603E+02  0.10000000000E+01 0. -1.
    1000022    2    1    0    0    0 -0.29243638877E+02  0.10053129878E+01 -0.54314353919E+02  0.62499998942E+02  0.99999878546E+01 0.  0.
    3000022    2    3    3    0    0 -0.11362581165E+02  0.22349563107E+01 -0.12755399114E+02  0.17229799339E+02  0.24999650224E+00 0.  0.
    1000022    2    1    0    0    0  0.29243638877E+02 -0.10053129878E+01  0.54314353919E+02  0.62500001058E+02  0.10000001080E+02 0.  0.
    3000022    2    5    5    0    0  0.12916270581E+02  0.44635036146E+01  0.23375845190E+02  0.27078507119E+02  0.24999836733E+00 0.  0.
        -13    1    4    4    0    0 -0.76985932692E+01  0.14810287216E+01 -0.85750561520E+01  0.11619139271E+02  0.10500000000E+00 0.  1.
         13    1    4    4    0    0 -0.36639878959E+01  0.75392758906E+00 -0.41803429618E+01  0.56106600672E+01  0.10500000000E+00 0. -1.
    3000001    1    5    5    0    0  0.16327368296E+02 -0.54688166024E+01  0.30938508729E+02  0.35421493940E+02  0.10000000000E+01 0. -1.
        -13    1    6    6    0    0  0.33986783385E+01  0.11423514556E+01  0.61106462627E+01  0.70856900895E+01  0.10500000000E+00 0.  1.
         13    1    6    6    0    0  0.95175922424E+01  0.33211521591E+01  0.17265198927E+02  0.19992817029E+02  0.10500000000E+00 0. -1.
</event>
<event>
11    0  0.3476221E-009  0.9118800E+02  0.7816531E-02  0.1126479E+00
         25   -1    0    0    0    0  0.00000000000E+00  0.00000000000E+00  0.99999998245E-14  0.12500000000E+03  0.12500000000E+03 0.  0.
    3000001    1    3    3    0    0 -0.53972642394E+02 -0.14508963136E+02 -0.22960450135E+02  0.60429615328E+02  0.10000000000E+01 0.  1.
    1000022    2    1    0    0    0 -0.55751051190E+02 -0.14706849897E+02 -0.21949461820E+02  0.62500000112E+02  0.99999998554E+01 0.  0.
    3000022    2    3    3    0    0 -0.17784087956E+01 -0.19788676163E+00  0.10109883141E+01  0.20703847841E+01  0.24999753608E+00 0.  0.
    1000022    2    1    0    0    0  0.55751051190E+02  0.14706849897E+02  0.21949461820E+02  0.62499999888E+02  0.99999984593E+01 0.  0.
    3000022    2    5    5    0    0  0.41052404007E+02  0.13356764907E+02  0.19995547367E+02  0.47577173742E+02  0.25000660867E+00 0.  0.
        -13    1    4    4    0    0 -0.80194206208E+00 -0.12037351390E+00  0.39089839083E+00  0.90632632409E+00  0.10500000000E+00 0.  1.
         13    1    4    4    0    0 -0.97646673355E+00 -0.77513247728E-01  0.62008992331E+00  0.11640584600E+01  0.10500000000E+00 0. -1.
    3000001    1    5    5    0    0  0.14698647183E+02  0.13500849903E+01  0.19539144535E+01  0.14922826146E+02  0.10000000000E+01 0. -1.
        -13    1    6    6    0    0  0.22170018969E+02  0.71459732746E+01  0.10811212062E+02  0.25680109158E+02  0.10500000000E+00 0.  1.
         13    1    6    6    0    0  0.18882385037E+02  0.62107916323E+01  0.91843353046E+01  0.21897064584E+02  0.10500000000E+00 0. -1.
</event>
<event>
11    0  0.3476221E-009  0.9118800E+02  0.7816531E-02  0.1126479E+00
         25   -1    0    0    0    0  0.00000000000E+00  0.00000000000E+00  0.99999998245E-14  0.12500000000E+03  0.12500000000E+03 0.  0.
    3000001    1    3    3    0    0 -0.21037635168E+02  0.34891633235E+02 -0.16158638222E+02  0.43841872136E+02  0.10000000000E+01 0. -1.
    1000022    2    1    0    0    0 -0.31258948629E+02  0.50488293985E+02 -0.16735001527E+02  0.62500000950E+02  0.10000007188E+02 0.  0.
    3000022    2    3    3    0    0 -0.10221313461E+02  0.15596660750E+02 -0.57636330540E+00  0.18658128814E+02  0.25000148964E+00 0.  0.
    1000022    2    1    0    0    0  0.31258948629E+02 -0.50488293985E+02  0.16735001527E+02  0.62499999050E+02  0.99999953111E+01 0.  0.
    3000022    2    5    5    0    0  0.69578815704E+01 -0.18321575793E+02  0.83839540589E+01  0.21317726004E+02  0.25000164999E+00 0.  0.
        -13    1    4    4    0    0 -0.36584946091E+01  0.55335268366E+01 -0.25585919918E+00  0.66393516992E+01  0.10500000000E+00 0. -1.
         13    1    4    4    0    0 -0.65628188519E+01  0.10063133914E+02 -0.32050410623E+00  0.12018777115E+02  0.10500000000E+00 0.  1.
    3000001    1    5    5    0    0  0.24301067059E+02 -0.32166718192E+02  0.83510474682E+01  0.41182273046E+02  0.10000000000E+01 0. -1.
        -13    1    6    6    0    0  0.23800174232E+01 -0.64258788036E+01  0.29348426645E+01  0.74552483392E+01  0.10500000000E+00 0.  1.
         13    1    6    6    0    0  0.45778641472E+01 -0.11895696989E+02  0.54491113943E+01  0.13862477664E+02  0.10500000000E+00 0. -1.
</event>
<event>
11    0  0.3476221E-009  0.9118800E+02  0.7816531E-02  0.1126479E+00
         25   -1    0    0    0    0  0.00000000000E+00  0.00000000000E+00  0.99999998245E-14  0.12500000000E+03  0.12500000000E+03 0.  0.
    3000001    1    3    3    0    0  0.11955743382E+02 -0.55434008960E+01  0.91903300788E+01  0.16097554481E+02  0.10000000000E+01 0.  1.
    1000022    2    1    0    0    0  0.37184104716E+02 -0.13893132036E+02  0.47228943181E+02  0.62499998528E+02  0.99999990386E+01 0.  0.
    3000022    2    3    3    0    0  0.25228361333E+02 -0.83497311404E+01  0.38038613102E+02  0.46402444047E+02  0.25000226774E+00 0.  0.
    1000022    2    1    0    0    0 -0.37184104716E+02  0.13893132036E+02 -0.47228943181E+02  0.62500001472E+02  0.10000017435E+02 0.  0.
    3000022    2    5    5    0    0 -0.57749949315E+01 -0.11001693453E+01 -0.46658659715E+01  0.75095768027E+01  0.24999888706E+00 0.  0.
        -13    1    4    4    0    0  0.13631635687E+02 -0.44701337544E+01  0.20629456754E+02  0.25127457059E+02  0.10500000000E+00 0. -1.
         13    1    4    4    0    0  0.11596725647E+02 -0.38795973860E+01  0.17409156348E+02  0.21274986988E+02  0.10500000000E+00 0.  1.
    3000001    1    5    5    0    0 -0.31409109784E+02  0.14993301382E+02 -0.42563077209E+02  0.54990424669E+02  0.10000000000E+01 0.  1.
        -13    1    6    6    0    0 -0.21353205349E+01 -0.36503156541E+00 -0.16654224326E+01  0.27345015468E+01  0.10500000000E+00 0. -1.
         13    1    6    6    0    0 -0.36396743967E+01 -0.73513777987E+00 -0.30004435389E+01  0.47750752559E+01  0.10500000000E+00 0.  1.
</event>
<event>
11    0  0.3476221E-009  0.9118800E+02  0.7816531E-02  0.1126479E+00
         25   -1    0    0    0    0  0.00000000000E+00  0.00000000000E+00  0.99999998245E-14  0.12500000000E+03  0.12500000000E+03 0.  0.
    3000001    1    3    3    0    0 -0.23318331383E+02  0.22703170622E+02 -0.23218804290E+02  0.39991141612E+02  0.10000000000E+01 0.  1.
    1000022    2    1    0    0    0 -0.29942436632E+02  0.38941449155E+02 -0.37326451819E+02  0.62499999379E+02  0.99999971600E+01 0.  0.
    3000022    2    3    3    0    0 -0.66241052494E+01  0.16238278533E+02 -0.14107647529E+02  0.22508857767E+02  0.24999819504E+00 0.  0.
    1000022    2    1    0    0    0  0.29942436632E+02 -0.38941449155E+02  0.37326451819E+02  0.62500000621E+02  0.10000004925E+02 0.  0.
    3000022    2    5    5    0    0  0.51868240126E+01 -0.71731154631E+01  0.11998340468E+02  0.14912390823E+02  0.24999455870E+00 0.  0.
        -13    1    4    4    0    0 -0.29749536377E+01  0.71253093726E+01 -0.62361966046E+01  0.99258025315E+01  0.10500000000E+00 0.  1.
         13    1    4    4    0    0 -0.36491516117E+01  0.91129691607E+01 -0.78714509243E+01  0.12583055236E+02  0.10500000000E+00 0. -1.
    3000001    1    5    5    0    0  0.24755612619E+02 -0.31768333692E+02  0.25328111351E+02  0.47587609798E+02  0.10000000000E+01 0. -1.
        -13    1    6    6    0    0  0.39261709666E+01 -0.54509627232E+01  0.90759729528E+01  0.11292126598E+02  0.10500000000E+00 0.  1.
         13    1    6    6    0    0  0.12606530460E+01 -0.17221527400E+01  0.29223675153E+01  0.36202642247E+01  0.10500000000E+00 0. -1.
</event>
<event>
11    0  0.3476221E-009  0.9118800E+02  0.7816531E-02  0.1126479E+00
         25   -1    0    0    0    0  0.00000000000E+00  0.00000000000E+00  0.99999998245E-14  0.12500000000E+03  0.12500000000E+03 0.  0.
    3000001    1    3    3    0    0 -0.27860884741E+02  0.83306916189E+01 -0.48915882987E+02  0.56915665065E+02  0.10000000000E+01 0.  1.
    1000022    2    1    0    0    0 -0.30622814169E+02  0.11871406613E+02 -0.52226074338E+02  0.62499998808E+02  0.99999983789E+01 0.  0.
    3000022    2    3    3    0    0 -0.27619294283E+01  0.35407149943E+01 -0.33101913512E+01  0.55843337428E+01  0.24999946298E+00 0.  0.
    1000022    2    1    0    0    0  0.30622814169E+02 -0.11871406613E+02  0.52226074338E+02  0.62500001192E+02  0.10000013281E+02 0.  0.
    3000022    2    5    5    0    0  0.11714412406E+02 -0.79507143255E+01  0.15497312950E+02  0.20992153761E+02  0.24998909723E+00 0.  0.
        -13    1    4    4    0    0 -0.19532303499E+01  0.25651912401E+01 -0.23928573657E+01  0.40164793377E+01  0.10500000000E+00 0.  1.
         13    1    4    4    0    0 -0.80869907838E+00  0.97552375419E+00 -0.91733398550E+00  0.15678544050E+01  0.10500000000E+00 0. -1.
    3000001    1    5    5    0    0  0.18908401763E+02 -0.39206922877E+01  0.36728761389E+02  0.41507847431E+02  0.10000000000E+01 0.  1.
        -13    1    6    6    0    0  0.46189630208E+01 -0.31958867757E+01  0.62037757856E+01  0.83693709840E+01  0.10500000000E+00 0. -1.
         13    1    6    6    0    0  0.70954493853E+01 -0.47548275498E+01  0.92935371642E+01  0.12622782777E+02  0.10500000000E+00 0.  1.
</event>
<event>
11    0  0.3476221E-009  0.9118800E+02  0.7816531E-02  0.1126479E+00
         25   -1    0    0    0    0  0.00000000000E+00  0.00000000000E+00  0.99999998245E-14  0.12500000000E+03  0.12500000000E+03 0.  0.
    3000001    1    3    3    0    0 -0.32769316098E+01  0.47703125814E+00  0.11595746181E+01  0.36483493379E+01  0.10000000000E+01 0.  1.
    1000022    2    1    0    0    0 -0.35266960682E+02  0.87363869489E+01  0.49861478221E+02  0.62500000384E+02  0.10000003246E+02 0.  0.
    3000022    2    3    3    0    0 -0.31990029073E+02  0.82593556907E+01  0.48701903603E+02  0.58851651046E+02  0.24999963232E+00 0.  0.
    1000022    2    1    0    0    0  0.35266960682E+02 -0.87363869489E+01 -0.49861478221E+02  0.62499999616E+02  0.99999984477E+01 0.  0.
    3000022    2    5    5    0    0  0.32453692950E+02 -0.10519175588E+02 -0.46407155569E+02  0.57598453365E+02  0.25000185277E+00 0.  0.
        -13    1    4    4    0    0 -0.16529125766E+02  0.42367982934E+01  0.25260971779E+02  0.30484261161E+02  0.10500000000E+00 0.  1.
         13    1    4    4    0    0 -0.15460903307E+02  0.40225573973E+01  0.23440931824E+02  0.28367389885E+02  0.10500000000E+00 0. -1.
    3000001    1    5    5    0    0  0.28132677327E+01  0.17827886391E+01 -0.34543226521E+01  0.49015462512E+01  0.10000000000E+01 0. -1.
        -13    1    6    6    0    0  0.83952785589E+01 -0.27537062739E+01 -0.12013582686E+02  0.14913108136E+02  0.10500000000E+00 0. -1.
         13    1    6    6    0    0  0.24058414391E+02 -0.77654693142E+01 -0.34393572882E+02  0.42685345229E+02  0.10500000000E+00 0.  1.
</event>
<event>
11    0  0.3476221E-009  0.9118800E+02  0.7816531E-02  0.1126479E+00
         25   -1    0    0    0    0  0.00000000000E+00  0.00000000000E+00  0.99999998245E-14  0.12500000000E+03  0.12500000000E+03 0.  0.
    3000001    1    3    3    0    0 -0.13224026128E+02 -0.57032816290E+01  0.43452617169E+01  0.15075927426E+02  0.10000000000E+01 0. -1.
    1000022    2    1    0    0    0 -0.44551511031E+02 -0.29742784172E+02  0.30606856689E+02  0.62500002288E+02  0.10000013208E+02 0.  0.
    3000022    2    3    3    0    0 -0.31327484903E+02 -0.24039502543E+02  0.26261594972E+02  0.47424074861E+02  0.25002627349E+00 0.  0.
    1000022    2    1    0    0    0  0.44551511031E+02  0.29742784172E+02 -0.30606856689E+02  0.62499997712E+02  0.99999846141E+01 0.  0.
    3000022    2    5    5    0    0  0.35008160300E+02  0.25011393426E+02 -0.28464141289E+02  0.51588864369E+02  0.24999772287E+00 0.  0.
        -13    1    4    4    0    0 -0.18609622899E+02 -0.14261751158E+02  0.15518303035E+02  0.28116620790E+02  0.10500000000E+00 0.  1.
         13    1    4    4    0    0 -0.12717862003E+02 -0.97777513858E+01  0.10743291936E+02  0.19307454072E+02  0.10500000000E+00 0. -1.
    3000001    1    5    5    0    0  0.95433507304E+01  0.47313907463E+01 -0.21427154000E+01  0.10911133344E+02  0.10000000000E+01 0.  1.
        -13    1    6    6    0    0  0.21390404117E+02  0.15283027298E+02 -0.17317924268E+02  0.31480816979E+02  0.10500000000E+00 0.  1.
         13    1    6    6    0    0  0.13617756183E+02  0.97283661278E+01 -0.11146217021E+02  0.20108047390E+02  0.10500000000E+00 0. -1.
</event>
<event>
11    0  0.3476221E-009  0.9118800E+02  0.7816531E-02  0.1126479E+00
         25   -1    0    0    0    0  0.00000000000E+00  0.00000000000E+00  0.99999998245E-14  0.12500000000E+03  0.12500000000E+03 0.  0.
    3000001    1    3    3    0    0  0.30902468413E+02 -0.44337492100E+02  0.20474027156E+02  0.57801051441E+02  0.10000000000E+01 0. -1.
    1000022    2    1    0    0    0  0.30780868949E+02 -0.48863651983E+02  0.21705571305E+02  0.62499998802E+02  0.99999823099E+01 0.  0.
    3000022    2    3    3    0    0 -0.12159946385E+00 -0.45261598825E+01  0.12315441489E+01  0.46989473604E+01  0.24999118571E+00 0.  0.
    1000022    2    1    0    0    0 -0.30780868949E+02  0.48863651983E+02 -0.21705571305E+02  0.62500001198E+02  0.99999972895E+01 0.  0.
    3000022    2    5    5    0    0 -0.13829672086E+02  0.14266245220E+02 -0.49673835826E+01  0.20482260207E+02  0.25000169867E+00 0.  0.
        -13    1    4    4    0    0 -0.42726220466E-01 -0.25305593122E+01  0.75155821370E+00  0.26422378226E+01  0.10500000000E+00 0.  1.
         13    1    4    4    0    0 -0.78873243388E-01 -0.19956005703E+01  0.47998593518E+00  0.20567095378E+01  0.10500000000E+00 0. -1.
    3000001    1    5    5    0    0 -0.16951196863E+02  0.34597406763E+02 -0.16738187722E+02  0.42017740991E+02  0.10000000000E+01 0. -1.
        -13    1    6    6    0    0 -0.10282553040E+02  0.10631386150E+02 -0.36725815473E+01  0.15239952386E+02  0.10500000000E+00 0.  1.
         13    1    6    6    0    0 -0.35471190463E+01  0.36348590695E+01 -0.12948020353E+01  0.52423078214E+01  0.10500000000E+00 0. -1.
</event>
<event>
11    0  0.3476221E-009  0.9118800E+02  0.7816531E-02  0.1126479E+00
         25   -1    0    0    0    0  0.00000000000E+00  0.00000000000E+00  0.99999998245E-14  0.12500000000E+03  0.12500000000E+03 0.  0.
    3000001    1    3    3    0    0  0.27803375284E+01  0.31835842314E+01  0.50083634420E+01  0.66294185037E+01  0.10000000000E+01 0. -1.
    1000022    2    1    0    0    0  0.46002183310E+02  0.12516883219E+02  0.39158348630E+02  0.62500004766E+02  0.10000054674E+02 0.  0.
    3000022    2    3    3    0    0  0.43221845782E+02  0.93332989876E+01  0.34149985187E+02  0.55870586262E+02  0.24999632466E+00 0.  0.
    1000022    2    1    0    0    0 -0.46002183310E+02 -0.12516883219E+02 -0.39158348630E+02  0.62499995234E+02  0.99999951044E+01 0.  0.
    3000022    2    5    5    0    0 -0.30042225256E+02 -0.37155102963E+01 -0.21742854839E+02  0.37271363674E+02  0.24999701773E+00 0.  0.
        -13    1    4    4    0    0  0.27264411650E+02  0.58376250569E+01  0.21490543847E+02  0.35203416152E+02  0.10500000000E+00 0.  1.
         13    1    4    4    0    0  0.15957434132E+02  0.34956739307E+01  0.12659441340E+02  0.20667170110E+02  0.10500000000E+00 0. -1.
    3000001    1    5    5    0    0 -0.15959958054E+02 -0.88013729227E+01 -0.17415493791E+02  0.25228631560E+02  0.10000000000E+01 0.  1.
        -13    1    6    6    0    0 -0.16035739063E+02 -0.19391361623E+01 -0.11664757303E+02  0.19924426323E+02  0.10500000000E+00 0.  1.
         13    1    6    6    0    0 -0.14006486193E+02 -0.17763741340E+01 -0.10078097535E+02  0.17346937352E+02  0.10500000000E+00 0. -1.
</event>
<event>
11    0  0.3476221E-009  0.9118800E+02  0.7816531E-02  0.1126479E+00
         25   -1    0    0    0    0  0.00000000000E+00  0.00000000000E+00  0.99999998245E-14  0.12500000000E+03  0.12500000000E+03 0.  0.
    3000001    1    3    3    0    0  0.11427909632E+01  0.95404949416E+00 -0.92699084489E-01  0.17957657818E+01  0.10000000000E+01 0.  1.
    1000022    2    1    0    0    0  0.44037951083E+02  0.15895259362E+02  0.40177724723E+02  0.62499999771E+02  0.10000000086E+02 0.  0.
    3000022    2    3    3    0    0  0.42895160120E+02  0.14941209868E+02  0.40270423808E+02  0.60704233989E+02  0.24995317394E+00 0.  0.
    1000022    2    1    0    0    0 -0.44037951083E+02 -0.15895259362E+02 -0.40177724723E+02  0.62500000229E+02  0.10000002946E+02 0.  0.
    3000022    2    5    5    0    0 -0.89666354835E+01 -0.70555965897E+01 -0.68661672239E+01  0.13318736735E+02  0.25000149529E+00 0.  0.
        -13    1    4    4    0    0  0.19269195527E+02  0.67162332707E+01  0.18002659677E+02  0.27212432197E+02  0.10500000000E+00 0.  1.
         13    1    4    4    0    0  0.23625964592E+02  0.82249765972E+01  0.22267764131E+02  0.33491801793E+02  0.10500000000E+00 0. -1.
    3000001    1    5    5    0    0 -0.35071315599E+02 -0.88396627723E+01 -0.33311557499E+02  0.49181263494E+02  0.10000000000E+01 0.  1.
        -13    1    6    6    0    0 -0.40641730085E+01 -0.32101281520E+01 -0.30395912240E+01  0.60060440229E+01  0.10500000000E+00 0.  1.
         13    1    6    6    0    0 -0.49024624749E+01 -0.38454684377E+01 -0.38265759999E+01  0.73126927124E+01  0.10500000000E+00 0. -1.
</event>
<event>
11    0  0.3476221E-009  0.9118800E+02  0.7816531E-02  0.1126479E+00
         25   -1    0    0    0    0  0.00000000000E+00  0.00000000000E+00  0.99999998245E-14  0.12500000000E+03  0.12500000000E+03 0.  0.
    3000001    1    3    3    0    0 -0.32822488164E+02  0.45720996270E+01  0.27770130192E+02  0.43248120828E+02  0.10000000000E+01 0.  1.
    1000022    2    1    0    0    0 -0.44966729500E+02  0.83788223053E+00  0.42231990817E+02  0.62500000877E+02  0.10000012637E+02 0.  0.
    3000022    2    3    3    0    0 -0.12144241336E+02 -0.37342173965E+01  0.14461860625E+02  0.19251880049E+02  0.24999100739E+00 0.  0.
    1000022    2    1    0    0    0  0.44966729500E+02 -0.83788223053E+00 -0.42231990817E+02  0.62499999123E+02  0.10000001676E+02 0.  0.
    3000022    2    5    5    0    0  0.60236223221E+01 -0.79370844463E-01 -0.11080028035E+02  0.12614272494E+02  0.25004736459E+00 0.  0.
        -13    1    4    4    0    0 -0.89601529708E+01 -0.27233561837E+01  0.10638731886E+02  0.14173731030E+02  0.10500000000E+00 0. -1.
         13    1    4    4    0    0 -0.31840883651E+01 -0.10108612127E+01  0.38231287386E+01  0.50781490191E+01  0.10500000000E+00 0.  1.
    3000001    1    5    5    0    0  0.38943107178E+02 -0.75851138607E+00 -0.31151962782E+02  0.49885726629E+02  0.10000000000E+01 0. -1.
        -13    1    6    6    0    0  0.30280176189E+01 -0.14956463499E-01 -0.57012154780E+01  0.64563145310E+01  0.10500000000E+00 0. -1.
         13    1    6    6    0    0  0.29956047032E+01 -0.64414380963E-01 -0.53788125568E+01  0.61579579628E+01  0.10500000000E+00 0.  1.
</event>
<event>
11    0  0.3476221E-009  0.9118800E+02  0.7816531E-02  0.1126479E+00
         25   -1    0    0    0    0  0.00000000000E+00  0.00000000000E+00  0.99999998245E-14  0.12500000000E+03  0.12500000000E+03 0.  0.
    3000001    1    3    3    0    0 -0.14433722170E+02  0.31896270949E+02  0.13877376260E+02  0.37673412481E+02  0.10000000000E+01 0. -1.
    1000022    2    1    0    0    0 -0.17866262996E+02  0.55995616633E+02  0.18749326275E+02  0.62499994921E+02  0.99999846917E+01 0.  0.
    3000022    2    3    3    0    0 -0.34325408254E+01  0.24099345684E+02  0.48719500152E+01  0.24826582440E+02  0.24999953944E+00 0.  0.
    1000022    2    1    0    0    0  0.17866262996E+02 -0.55995616633E+02 -0.18749326275E+02  0.62500005079E+02  0.10000048180E+02 0.  0.
    3000022    2    5    5    0    0  0.43523879909E+01 -0.44554618305E+01 -0.89818351103E+00  0.62979083862E+01  0.24999015091E+00 0.  0.
        -13    1    4    4    0    0 -0.19955757224E+01  0.14337749699E+02  0.28525764355E+01  0.14754714712E+02  0.10500000000E+00 0. -1.
         13    1    4    4    0    0 -0.14369651031E+01  0.97615959849E+01  0.20193735797E+01  0.10071867728E+02  0.10500000000E+00 0.  1.
    3000001    1    5    5    0    0  0.13513875005E+02 -0.51540154802E+02 -0.17851142764E+02  0.56202096693E+02  0.10000000000E+01 0. -1.
        -13    1    6    6    0    0  0.25008756465E+01 -0.26500914100E+01 -0.53934017121E+00  0.36850069608E+01  0.10500000000E+00 0. -1.
         13    1    6    6    0    0  0.18515123444E+01 -0.18053704205E+01 -0.35884333982E+00  0.26129014254E+01  0.10500000000E+00 0.  1.
</event>
<event>
11    0  0.3476221E-009  0.9118800E+02  0.7816531E-02  0.1126479E+00
         25   -1    0    0    0    0  0.00000000000E+00  0.00000000000E+00  0.99999998245E-14  0.12500000000E+03  0.12500000000E+03 0.  0.
    3000001    1    3    3    0    0  0.10852002354E+01  0.70231745669E+01 -0.32877845155E+01  0.78938056454E+01  0.10000000000E+01 0. -1.
    1000022    2    1    0    0    0  0.14860707598E+02  0.39839171673E+02 -0.44701787354E+02  0.62499999645E+02  0.99999966501E+01 0.  0.
    3000022    2    3    3    0    0  0.13775507363E+02  0.32815997106E+02 -0.41414002839E+02  0.54606193999E+02  0.25004554497E+00 0.  0.
    1000022    2    1    0    0    0 -0.14860707598E+02 -0.39839171673E+02  0.44701787354E+02  0.62500000355E+02  0.10000001090E+02 0.  0.
    3000022    2    5    5    0    0 -0.11698415887E+02 -0.30549717115E+02  0.39695045693E+02  0.51438286341E+02  0.24999818518E+00 0.  0.
        -13    1    4    4    0    0  0.54402577836E+01  0.12879853577E+02 -0.16186726064E+02  0.21389440352E+02  0.10500000000E+00 0.  1.
         13    1    4    4    0    0  0.83352495794E+01  0.19936143529E+02 -0.25227276775E+02  0.33216753647E+02  0.10500000000E+00 0. -1.
    3000001    1    5    5    0    0 -0.31622917116E+01 -0.92894545585E+01  0.50067416611E+01  0.11061714014E+02  0.10000000000E+01 0.  1.
        -13    1    6    6    0    0 -0.47548166414E+01 -0.12505512098E+02  0.16321877134E+02  0.21104758049E+02  0.10500000000E+00 0. -1.
         13    1    6    6    0    0 -0.69435992454E+01 -0.18044205017E+02  0.23373168559E+02  0.30333528292E+02  0.10500000000E+00 0.  1.
</event>
<event>
11    0  0.3476221E-009  0.9118800E+02  0.7816531E-02  0.1126479E+00
         25   -1    0    0    0    0  0.00000000000E+00  0.00000000000E+00  0.99999998245E-14  0.12500000000E+03  0.12500000000E+03 0.  0.
    3000001    1    3    3    0    0 -0.22313482475E+02 -0.26806593458E+02 -0.17536034214E+02  0.39051215717E+02  0.10000000000E+01 0.  1.
    1000022    2    1    0    0    0 -0.32818772908E+02 -0.39427283903E+02 -0.34273419534E+02  0.62500000675E+02  0.10000011331E+02 0.  0.
    3000022    2    3    3    0    0 -0.10505290432E+02 -0.12620690445E+02 -0.16737385321E+02  0.23448784958E+02  0.24998852718E+00 0.  0.
    1000022    2    1    0    0    0  0.32818772908E+02  0.39427283903E+02  0.34273419534E+02  0.62499999325E+02  0.10000002899E+02 0.  0.
    3000022    2    5    5    0    0  0.19197626819E+02  0.22789504990E+02  0.13974597607E+02  0.32912950139E+02  0.24999083473E+00 0.  0.
        -13    1    4    4    0    0 -0.32707673756E+01 -0.38667675777E+01 -0.51249983178E+01  0.72060005193E+01  0.10500000000E+00 0.  1.
         13    1    4    4    0    0 -0.72345230564E+01 -0.87539228672E+01 -0.11612387003E+02  0.16242784439E+02  0.10500000000E+00 0. -1.
    3000001    1    5    5    0    0  0.13621146089E+02  0.16637778913E+02  0.20298821927E+02  0.29587049186E+02  0.10000000000E+01 0.  1.
        -13    1    6    6    0    0  0.64900086990E+01  0.76729999933E+01  0.47688694900E+01  0.11124220558E+02  0.10500000000E+00 0.  1.
         13    1    6    6    0    0  0.12707618120E+02  0.15116504997E+02  0.92057281175E+01  0.21788729581E+02  0.10500000000E+00 0. -1.
</event>
<event>
11    0  0.3476221E-009  0.9118800E+02  0.7816531E-02  0.1126479E+00
         25   -1    0    0    0    0  0.00000000000E+00  0.00000000000E+00  0.99999998245E-14  0.12500000000E+03  0.12500000000E+03 0.  0.
    3000001    1    3    3    0    0  0.43577923093E+02 -0.15510401219E+02  0.28746025159E+02  0.54469641907E+02  0.10000000000E+01 0. -1.
    1000022    2    1    0    0    0  0.48130551236E+02 -0.15479871002E+02  0.35356380813E+02  0.62500000360E+02  0.10000000617E+02 0.  0.
    3000022    2    3    3    0    0  0.45526281431E+01  0.30530216412E-01  0.66103556541E+01  0.80303584533E+01  0.24999982335E+00 0.  0.
    1000022    2    1    0    0    0 -0.48130551236E+02  0.15479871002E+02 -0.35356380813E+02  0.62499999640E+02  0.99999961126E+01 0.  0.
    3000022    2    5    5    0    0 -0.43938136368E+01  0.25606492308E+01 -0.74542413257E+01  0.90272225007E+01  0.25001915273E+00 0.  0.
        -13    1    4    4    0    0  0.33515818552E+01  0.50862012334E-01  0.48306767397E+01  0.58806590311E+01  0.10500000000E+00 0. -1.
         13    1    4    4    0    0  0.12010462879E+01 -0.20331795922E-01  0.17796789143E+01  0.21496994222E+01  0.10500000000E+00 0.  1.
    3000001    1    5    5    0    0 -0.43736737599E+02  0.12919221772E+02 -0.27902139487E+02  0.53472777139E+02  0.10000000000E+01 0.  1.
        -13    1    6    6    0    0 -0.24374738214E+01  0.14086782377E+01 -0.40090333749E+01  0.48999006733E+01  0.10500000000E+00 0. -1.
         13    1    6    6    0    0 -0.19563398155E+01  0.11519709932E+01 -0.34452079508E+01  0.41273218274E+01  0.10500000000E+00 0.  1.
</event>
<event>
11    0  0.3476221E-009  0.9118800E+02  0.7816531E-02  0.1126479E+00
         25   -1    0    0    0    0  0.00000000000E+00  0.00000000000E+00  0.99999998245E-14  0.12500000000E+03  0.12500000000E+03 0.  0.
    3000001    1    3    3    0    0 -0.19459919301E+02 -0.30505289446E+02  0.24837882724E+01  0.36282645267E+02  0.10000000000E+01 0.  1.
    1000022    2    1    0    0    0 -0.30808137574E+02 -0.52033190725E+02  0.12233383500E+02  0.62500000390E+02  0.10000004961E+02 0.  0.
    3000022    2    3    3    0    0 -0.11348218273E+02 -0.21527901279E+02  0.97495952272E+01  0.26217355124E+02  0.25002231480E+00 0.  0.
    1000022    2    1    0    0    0  0.30808137574E+02  0.52033190725E+02 -0.12233383500E+02  0.62499999610E+02  0.10000000080E+02 0.  0.
    3000022    2    5    5    0    0  0.42735931865E+01  0.13768959655E+02 -0.30759846165E+00  0.14422377227E+02  0.24999871933E+00 0.  0.
        -13    1    4    4    0    0 -0.54433918800E+01 -0.10425699202E+02  0.47650011382E+01  0.12690231671E+02  0.10500000000E+00 0. -1.
         13    1    4    4    0    0 -0.59048263929E+01 -0.11102202076E+02  0.49845940891E+01  0.13527123453E+02  0.10500000000E+00 0.  1.
    3000001    1    5    5    0    0  0.26534544387E+02  0.38264231069E+02 -0.11925785038E+02  0.48077622382E+02  0.10000000000E+01 0.  1.
        -13    1    6    6    0    0  0.10839311635E+01  0.35332594729E+01 -0.10614120359E+00  0.36987998358E+01  0.10500000000E+00 0. -1.
         13    1    6    6    0    0  0.31896620230E+01  0.10235700183E+02 -0.20145725806E+00  0.10723577392E+02  0.10500000000E+00 0.  1.
</event>
<event>
11    0  0.3476221E-009  0.9118800E+02  0.7816531E-02  0.1126479E+00
         25   -1    0    0    0    0  0.00000000000E+00  0.00000000000E+00  0.99999998245E-14  0.12500000000E+03  0.12500000000E+03 0.  0.
    3000001    1    3    3    0    0  0.36127009773E+02 -0.21108246407E+02 -0.17915131829E+02  0.45526594974E+02  0.10000000000E+01 0. -1.
    1000022    2    1    0    0    0  0.51736591265E+02 -0.27666670426E+02 -0.19082212010E+02  0.62500001445E+02  0.99999918607E+01 0.  0.
    3000022    2    3    3    0    0  0.15609581493E+02 -0.65584240188E+01 -0.11670801809E+01  0.16973406471E+02  0.24998216816E+00 0.  0.
    1000022    2    1    0    0    0 -0.51736591265E+02  0.27666670426E+02  0.19082212010E+02  0.62499998555E+02  0.99999738006E+01 0.  0.
    3000022    2    5    5    0    0 -0.21112128226E+02  0.10417846482E+02  0.12741966161E+02  0.26770761489E+02  0.24997104184E+00 0.  0.
        -13    1    4    4    0    0  0.11236360122E+02 -0.47099280341E+01 -0.87833302499E+00  0.12215633622E+02  0.10500000000E+00 0.  1.
         13    1    4    4    0    0  0.43732213706E+01 -0.18484959847E+01 -0.28874715590E+00  0.47577728489E+01  0.10500000000E+00 0. -1.
    3000001    1    5    5    0    0 -0.30624463040E+02  0.17248823943E+02  0.63402458491E+01  0.35729237066E+02  0.10000000000E+01 0. -1.
        -13    1    6    6    0    0 -0.51735979886E+01  0.25274954265E+01  0.31166773554E+01  0.65482098330E+01  0.10500000000E+00 0. -1.
         13    1    6    6    0    0 -0.15938530237E+02  0.78903510557E+01  0.96252888052E+01  0.20222551656E+02  0.10500000000E+00 0.  1.
</event>
<event>
11    0  0.3476221E-009  0.9118800E+02  0.7816531E-02  0.1126479E+00
         25   -1    0    0    0    0  0.00000000000E+00  0.00000000000E+00  0.99999998245E-14  0.12500000000E+03  0.12500000000E+03 0.  0.
    3000001    1    3    3    0    0 -0.26775479578E+00 -0.98677753669E+01  0.53432892187E+01  0.11269224596E+02  0.10000000000E+01 0. -1.
    1000022    2    1    0    0    0  0.19136695480E+01 -0.41730117233E+02  0.45400277312E+02  0.62499998985E+02  0.99999938853E+01 0.  0.
    3000022    2    3    3    0    0  0.21814243438E+01 -0.31862341866E+02  0.40056988093E+02  0.51230774389E+02  0.25001605278E+00 0.  0.
    1000022    2    1    0    0    0 -0.19136695480E+01  0.41730117233E+02 -0.45400277312E+02  0.62500001015E+02  0.10000006568E+02 0.  0.
    3000022    2    5    5    0    0  0.40714188526E+00  0.39457970777E+02 -0.40587539294E+02  0.56608374545E+02  0.25000059812E+00 0.  0.
        -13    1    4    4    0    0  0.13265723191E+01 -0.19704974702E+02  0.24679614369E+02  0.31609179245E+02  0.10500000000E+00 0. -1.
         13    1    4    4    0    0  0.85485202476E+00 -0.12157367165E+02  0.15377373724E+02  0.19621595144E+02  0.10500000000E+00 0.  1.
    3000001    1    5    5    0    0 -0.23208114333E+01  0.22721464558E+01 -0.48127380185E+01  0.58916264699E+01  0.10000000000E+01 0. -1.
        -13    1    6    6    0    0  0.16526430441E+00  0.19216781417E+02 -0.19851432867E+02  0.27629737823E+02  0.10500000000E+00 0. -1.
         13    1    6    6    0    0  0.24187758085E+00  0.20241189360E+02 -0.20736106427E+02  0.28978636721E+02  0.10500000000E+00 0.  1.
</event>
<event>
11    0  0.3476221E-009  0.9118800E+02  0.7816531E-02  0.1126479E+00
         25   -1    0    0    0    0  0.00000000000E+00  0.00000000000E+00  0.99999998245E-14  0.12500000000E+03  0.12500000000E+03 0.  0.
    3000001    1    3    3    0    0 -0.11320166539E+02  0.31202723746E+02  0.89780026819E+00  0.33219906456E+02  0.10000000000E+01 0. -1.
    1000022    2    1    0    0    0 -0.13061825290E+02  0.60251272541E+02 -0.23286372345E+01  0.62500001459E+02  0.10000025418E+02 0.  0.
    3000022    2    3    3    0    0 -0.17416587510E+01  0.29048548795E+02 -0.32264375027E+01  0.29280095003E+02  0.25000429089E+00 0.  0.
    1000022    2    1    0    0    0  0.13061825290E+02 -0.60251272541E+02  0.23286372345E+01  0.62499998541E+02  0.10000007177E+02 0.  0.
    3000022    2    5    5    0    0  0.11000676243E+01 -0.15359846321E+02 -0.31170095667E+01  0.15713474161E+02  0.24998754828E+00 0.  0.
        -13    1    4    4    0    0 -0.47608145685E+00  0.74435258713E+01 -0.82484091662E+00  0.75049396058E+01  0.10500000000E+00 0. -1.
         13    1    4    4    0    0 -0.12655772942E+01  0.21605022923E+02 -0.24015965861E+01  0.21775155397E+02  0.10500000000E+00 0.  1.
    3000001    1    5    5    0    0  0.11961757666E+02 -0.44891426219E+02  0.54456468012E+01  0.46786524380E+02  0.10000000000E+01 0. -1.
        -13    1    6    6    0    0  0.62106336592E+00 -0.77669385796E+01 -0.15979777534E+01  0.79545969417E+01  0.10500000000E+00 0.  1.
         13    1    6    6    0    0  0.47900425835E+00 -0.75929077415E+01 -0.15190318133E+01  0.77588772191E+01  0.10500000000E+00 0. -1.
</event>
<event>
11    0  0.3476221E-009  0.9118800E+02  0.7816531E-02  0.1126479E+00
         25   -1    0    0    0    0  0.00000000000E+00  0.00000000000E+00  0.99999998245E-14  0.12500000000E+03  0.12500000000E+03 0.  0.
    3000001    1    3    3    0    0  0.20981225464E+02 -0.14800587814E+02 -0.53436528031E+02  0.59293606313E+02  0.10000000000E+01 0.  1.
    1000022    2    1    0    0    0  0.23106104528E+02 -0.16847069873E+02 -0.54667488109E+02  0.62500000157E+02  0.99999966814E+01 0.  0.
    3000022    2    3    3    0    0  0.21248790640E+01 -0.20464820587E+01 -0.12309600789E+01  0.32063938439E+01  0.24999782588E+00 0.  0.
    1000022    2    1    0    0    0 -0.23106104528E+02  0.16847069873E+02  0.54667488109E+02  0.62499999843E+02  0.99999947237E+01 0.  0.
    3000022    2    5    5    0    0 -0.42993370987E+01  0.35277681547E+01  0.20735328806E+02  0.21469648463E+02  0.24999359443E+00 0.  0.
        -13    1    4    4    0    0  0.11059541514E+01 -0.11366449423E+01 -0.61432765812E+00  0.17039717666E+01  0.10500000000E+00 0.  1.
         13    1    4    4    0    0  0.10189249126E+01 -0.90983711638E+00 -0.61663242075E+00  0.15024220772E+01  0.10500000000E+00 0. -1.
    3000001    1    5    5    0    0 -0.18806767429E+02  0.13319301718E+02  0.33932159304E+02  0.41030351380E+02  0.10000000000E+01 0.  1.
        -13    1    6    6    0    0 -0.19290313710E+01  0.15905994971E+01  0.95799529769E+01  0.99013985290E+01  0.10500000000E+00 0.  1.
         13    1    6    6    0    0 -0.23703057277E+01  0.19371686577E+01  0.11155375829E+02  0.11568249934E+02  0.10500000000E+00 0. -1.
</event>
<event>
11    0  0.3476221E-009  0.9118800E+02  0.7816531E-02  0.1126479E+00
         25   -1    0    0    0    0  0.00000000000E+00  0.00000000000E+00  0.99999998245E-14  0.12500000000E+03  0.12500000000E+03 0.  0.
    3000001    1    3    3    0    0  0.38403503043E+01  0.14717996937E+01 -0.17751149168E+01  0.45897187023E+01  0.10000000000E+01 0.  1.
    1000022    2    1    0    0    0  0.46989543353E+02 -0.89814812134E+01 -0.38955946908E+02  0.62500000233E+02  0.10000002013E+02 0.  0.
    3000022    2    3    3    0    0  0.43149193049E+02 -0.10453280907E+02 -0.37180831991E+02  0.57910281531E+02  0.24999376963E+00 0.  0.
    1000022    2    1    0    0    0 -0.46989543353E+02  0.89814812134E+01  0.38955946908E+02  0.62499999767E+02  0.99999991024E+01 0.  0.
    3000022    2    5    5    0    0 -0.45006710069E+02  0.66329049628E+01  0.35047159320E+02  0.57427913544E+02  0.24999647101E+00 0.  0.
        -13    1    4    4    0    0  0.30169855684E+02 -0.73329332211E+01 -0.26052993787E+02  0.40530995694E+02  0.10500000000E+00 0.  1.
         13    1    4    4    0    0  0.12979337365E+02 -0.31203476859E+01 -0.11127838204E+02  0.17379285837E+02  0.10500000000E+00 0. -1.
    3000001    1    5    5    0    0 -0.19828332847E+01  0.23485762506E+01  0.39087875884E+01  0.50720862228E+01  0.10000000000E+01 0.  1.
        -13    1    6    6    0    0 -0.16473813885E+02  0.24326004843E+01  0.12903203371E+02  0.21066745626E+02  0.10500000000E+00 0.  1.
         13    1    6    6    0    0 -0.28532896184E+02  0.42003044785E+01  0.22143955948E+02  0.36361167918E+02  0.10500000000E+00 0. -1.
</event>
<event>
11    0  0.3476221E-009  0.9118800E+02  0.7816531E-02  0.1126479E+00
         25   -1    0    0    0    0  0.00000000000E+00  0.00000000000E+00  0.99999998245E-14  0.12500000000E+03  0.12500000000E+03 0.  0.
    3000001    1    3    3    0    0  0.16674143624E+02  0.38405146198E+02  0.43222558690E+02  0.60184482218E+02  0.10000000000E+01 0. -1.
    1000022    2    1    0    0    0  0.16138235520E+02  0.40621280011E+02  0.43539855343E+02  0.62500000221E+02  0.99999994463E+01 0.  0.
    3000022    2    3    3    0    0 -0.53590810365E+00  0.22161338129E+01  0.31729665263E+00  0.23155180034E+01  0.24999977212E+00 0.  0.
    1000022    2    1    0    0    0 -0.16138235520E+02 -0.40621280011E+02 -0.43539855343E+02  0.62499999779E+02  0.99999966792E+01 0.  0.
    3000022    2    5    5    0    0 -0.90206044977E+01 -0.33518628205E+02 -0.32894050567E+02  0.47822074402E+02  0.24999019517E+00 0.  0.
        -13    1    4    4    0    0 -0.12741401336E+00  0.71899423137E+00  0.78375233853E-01  0.74185895750E+00  0.10500000000E+00 0. -1.
         13    1    4    4    0    0 -0.40849409029E+00  0.14971395815E+01  0.23892141877E+00  0.15736590459E+01  0.10500000000E+00 0.  1.
    3000001    1    5    5    0    0 -0.71176310223E+01 -0.71026518062E+01 -0.10645804776E+02  0.14677925377E+02  0.10000000000E+01 0.  1.
        -13    1    6    6    0    0 -0.66939947046E+01 -0.24772312828E+02 -0.24291960179E+02  0.35335356264E+02  0.10500000000E+00 0.  1.
         13    1    6    6    0    0 -0.23266097930E+01 -0.87463153770E+01 -0.86020903885E+01  0.12486718138E+02  0.10500000000E+00 0. -1.
</event>
<event>
11    0  0.3476221E-009  0.9118800E+02  0.7816531E-02  0.1126479E+00
         25   -1    0    0    0    0  0.00000000000E+00  0.00000000000E+00  0.99999998245E-14  0.12500000000E+03  0.12500000000E+03 0.  0.
    3000001    1    3    3    0    0 -0.43401979027E+01 -0.32368914457E+02 -0.25600885844E+02  0.41508906237E+02  0.10000000000E+01 0. -1.
    1000022    2    1    0    0    0 -0.13296069521E+02 -0.47643468542E+02 -0.36872266512E+02  0.62500003424E+02  0.10000041543E+02 0.  0.
    3000022    2    3    3    0    0 -0.89558716187E+01 -0.15274554085E+02 -0.11271380668E+02  0.20991097188E+02  0.25000006545E+00 0.  0.
    1000022    2    1    0    0    0  0.13296069521E+02  0.47643468542E+02  0.36872266512E+02  0.62499996576E+02  0.99999987375E+01 0.  0.
    3000022    2    5    5    0    0 -0.44220502973E+00  0.88034219220E+01  0.98489475719E+01  0.13219684324E+02  0.25000503246E+00 0.  0.
        -13    1    4    4    0    0 -0.22119523179E+01 -0.38228161743E+01 -0.28054379074E+01  0.52333701772E+01  0.10500000000E+00 0. -1.
         13    1    4    4    0    0 -0.67439193008E+01 -0.11451737911E+02 -0.84659427603E+01  0.15757727011E+02  0.10500000000E+00 0.  1.
    3000001    1    5    5    0    0  0.13738274551E+02  0.38840046620E+02  0.27023318940E+02  0.49280312252E+02  0.10000000000E+01 0. -1.
        -13    1    6    6    0    0 -0.30845790208E+00  0.65512917384E+01  0.73582916682E+01  0.98574870526E+01  0.10500000000E+00 0.  1.
         13    1    6    6    0    0 -0.13374712765E+00  0.22521301836E+01  0.24906559038E+01  0.33621972710E+01  0.10500000000E+00 0. -1.
</event>
<event>
11    0  0.3476221E-009  0.9118800E+02  0.7816531E-02  0.1126479E+00
         25   -1    0    0    0    0  0.00000000000E+00  0.00000000000E+00  0.99999998245E-14  0.12500000000E+03  0.12500000000E+03 0.  0.
    3000001    1    3    3    0    0 -0.27624492217E+02 -0.82344464007E+01 -0.16689772249E+02  0.33323672899E+02  0.10000000000E+01 0.  1.
    1000022    2    1    0    0    0 -0.48275410705E+02 -0.93063876113E+01 -0.37270979517E+02  0.62500000383E+02  0.10000000232E+02 0.  0.
    3000022    2    3    3    0    0 -0.20650918488E+02 -0.10719412107E+01 -0.20581207267E+02  0.29176327484E+02  0.25000099532E+00 0.  0.
    1000022    2    1    0    0    0  0.48275410705E+02  0.93063876113E+01  0.37270979517E+02  0.62499999617E+02  0.99999954454E+01 0.  0.
    3000022    2    5    5    0    0  0.17089791440E+02  0.31942481471E+01  0.74761285751E+01  0.18926679335E+02  0.24999899574E+00 0.  0.
        -13    1    4    4    0    0 -0.75940370065E+01 -0.43540638012E+00 -0.76310190901E+01  0.10775084878E+02  0.10500000000E+00 0.  1.
         13    1    4    4    0    0 -0.13056881481E+02 -0.63653483055E+00 -0.12950188177E+02  0.18401242606E+02  0.10500000000E+00 0. -1.
    3000001    1    5    5    0    0  0.31185619265E+02  0.61121394642E+01  0.29794850941E+02  0.43573320282E+02  0.10000000000E+01 0. -1.
        -13    1    6    6    0    0  0.45423810355E+01  0.85747169344E+00  0.19519490694E+01  0.50189255171E+01  0.10500000000E+00 0. -1.
         13    1    6    6    0    0  0.12547410404E+02  0.23367764537E+01  0.55241795058E+01  0.13907753818E+02  0.10500000000E+00 0.  1.
</event>
<event>
11    0  0.3476221E-009  0.9118800E+02  0.7816531E-02  0.1126479E+00
         25   -1    0    0    0    0  0.00000000000E+00  0.00000000000E+00  0.99999998245E-14  0.12500000000E+03  0.12500000000E+03 0.  0.
    3000001    1    3    3    0    0  0.67361019708E+01 -0.22460335431E+02  0.14950546418E+02  0.27827335044E+02  0.10000000000E+01 0. -1.
    1000022    2    1    0    0    0  0.22301911388E+02 -0.51665771282E+02  0.25288789241E+02  0.62499999661E+02  0.99999961317E+01 0.  0.
    3000022    2    3    3    0    0  0.15565809418E+02 -0.29205435850E+02  0.10338242823E+02  0.34672664617E+02  0.25000187624E+00 0.  0.
    1000022    2    1    0    0    0 -0.22301911388E+02  0.51665771282E+02 -0.25288789241E+02  0.62500000339E+02  0.10000000370E+02 0.  0.
    3000022    2    5    5    0    0 -0.90945005093E+01  0.15668046351E+02 -0.37248863470E+01  0.18496888968E+02  0.25001444985E+00 0.  0.
        -13    1    4    4    0    0  0.73420137916E+01 -0.13799955397E+02  0.48134061732E+01  0.16356156011E+02  0.10500000000E+00 0.  1.
         13    1    4    4    0    0  0.82237956260E+01 -0.15405480454E+02  0.55248366493E+01  0.18316508606E+02  0.10500000000E+00 0. -1.
    3000001    1    5    5    0    0 -0.13207410879E+02  0.35997724931E+02 -0.21563902894E+02  0.44003111371E+02  0.10000000000E+01 0.  1.
        -13    1    6    6    0    0 -0.38377296094E+01  0.66862142568E+01 -0.15306067201E+01  0.78604969038E+01  0.10500000000E+00 0. -1.
         13    1    6    6    0    0 -0.52567708999E+01  0.89818320938E+01 -0.21942796269E+01  0.10636392064E+02  0.10500000000E+00 0.  1.
</event>
<event>
11    0  0.3476221E-009  0.9118800E+02  0.7816531E-02  0.1126479E+00
         25   -1    0    0    0    0  0.00000000000E+00  0.00000000000E+00  0.99999998245E-14  0.12500000000E+03  0.12500000000E+03 0.  0.
    3000001    1    3    3    0    0 -0.72667528371E+01  0.22663752409E+01  0.78889830092E+00  0.77178050025E+01  0.10000000000E+01 0.  1.
    1000022    2    1    0    0    0 -0.46203204981E+02  0.40514966491E+02  0.54819097683E+01  0.62500000099E+02  0.10000000871E+02 0.  0.
    3000022    2    3    3    0    0 -0.38936452144E+02  0.38248591250E+02  0.46930114673E+01  0.54782195096E+02  0.25000961859E+00 0.  0.
    1000022    2    1    0    0    0  0.46203204981E+02 -0.40514966491E+02 -0.54819097683E+01  0.62499999901E+02  0.99999996354E+01 0.  0.
    3000022    2    5    5    0    0 -0.35866847379E+00  0.86593637054E-01  0.11748291033E+00  0.46091590754E+00  0.24999941507E+00 0.  0.
        -13    1    4    4    0    0 -0.24369751913E+02  0.23871720364E+02  0.29694635066E+01  0.34242847136E+02  0.10500000000E+00 0.  1.
         13    1    4    4    0    0 -0.14566700230E+02  0.14376870885E+02  0.17235479608E+01  0.20539347960E+02  0.10500000000E+00 0. -1.
    3000001    1    5    5    0    0  0.46561873454E+02 -0.40601560128E+02 -0.55993926786E+01  0.62039083994E+02  0.10000000000E+01 0. -1.
        -13    1    6    6    0    0 -0.13761330680E+00  0.61552644615E-01  0.11137249635E+00  0.21483710855E+00  0.10500000000E+00 0. -1.
         13    1    6    6    0    0 -0.22105516699E+00  0.25040992440E-01  0.61104139883E-02  0.24607879899E+00  0.10500000000E+00 0.  1.
</event>
<event>
11    0  0.3476221E-009  0.9118800E+02  0.7816531E-02  0.1126479E+00
         25   -1    0    0    0    0  0.00000000000E+00  0.00000000000E+00  0.99999998245E-14  0.12500000000E+03  0.12500000000E+03 0.  0.
    3000001    1    3    3    0    0 -0.10168832896E+02  0.26749388011E+02  0.26320193686E+02  0.38893283701E+02  0.10000000000E+01 0. -1.
    1000022    2    1    0    0    0 -0.22793773383E+02  0.42876509185E+02  0.38056522236E+02  0.62500000277E+02  0.10000000248E+02 0.  0.
    3000022    2    3    3    0    0 -0.12624940487E+02  0.16127121174E+02  0.11736328551E+02  0.23606716575E+02  0.24999992417E+00 0.  0.
    1000022    2    1    0    0    0  0.22793773383E+02 -0.42876509185E+02 -0.38056522236E+02  0.62499999723E+02  0.99999967909E+01 0.  0.
    3000022    2    5    5    0    0  0.14603213098E+02 -0.30836774524E+02 -0.21061445343E+02  0.40097474708E+02  0.25000434427E+00 0.  0.
        -13    1    4    4    0    0 -0.44033540021E+01  0.56708824801E+01  0.40580004112E+01  0.82478377110E+01  0.10500000000E+00 0.  1.
         13    1    4    4    0    0 -0.82215864848E+01  0.10456238694E+02  0.76783281394E+01  0.15358878864E+02  0.10500000000E+00 0. -1.
    3000001    1    5    5    0    0  0.81905602841E+01 -0.12039734661E+02 -0.16995076893E+02  0.22402525016E+02  0.10000000000E+01 0. -1.
        -13    1    6    6    0    0  0.10348101528E+02 -0.21950470764E+02 -0.14974610740E+02  0.28515896687E+02  0.10500000000E+00 0. -1.
         13    1    6    6    0    0  0.42551115705E+01 -0.88863037592E+01 -0.60868346028E+01  0.11581578021E+02  0.10500000000E+00 0.  1.
</event>
<event>
11    0  0.3476221E-009  0.9118800E+02  0.7816531E-02  0.1126479E+00
         25   -1    0    0    0    0  0.00000000000E+00  0.00000000000E+00  0.99999998245E-14  0.12500000000E+03  0.12500000000E+03 0.  0.
    3000001    1    3    3    0    0  0.46741842150E+02 -0.17825561764E+02  0.35036575441E+02  0.61082829653E+02  0.10000000000E+01 0. -1.
    1000022    2    1    0    0    0  0.47840430153E+02 -0.16966450888E+02  0.35066829253E+02  0.62500004990E+02  0.10000044847E+02 0.  0.
    3000022    2    3    3    0    0  0.10985880030E+01  0.85911087643E+00  0.30253812447E-01  0.14171753373E+01  0.25000708977E+00 0.  0.
    1000022    2    1    0    0    0 -0.47840430153E+02  0.16966450888E+02 -0.35066829253E+02  0.62499995010E+02  0.99999824684E+01 0.  0.
    3000022    2    5    5    0    0 -0.10405714537E+02 -0.48660476399E+00 -0.70535180976E+01  0.12582936936E+02  0.25001031236E+00 0.  0.
        -13    1    4    4    0    0  0.83352036177E+00  0.61826905896E+00  0.39596669639E-01  0.10438418075E+01  0.10500000000E+00 0. -1.
         13    1    4    4    0    0  0.26506764127E+00  0.24084181747E+00 -0.93428571928E-02  0.37333352980E+00  0.10500000000E+00 0.  1.
    3000001    1    5    5    0    0 -0.37434715616E+02  0.17453055652E+02 -0.28013311155E+02  0.49917058074E+02  0.10000000000E+01 0.  1.
        -13    1    6    6    0    0 -0.36995543775E+01 -0.13895852408E+00 -0.25630938298E+01  0.45040522914E+01  0.10500000000E+00 0. -1.
         13    1    6    6    0    0 -0.67061601597E+01 -0.34764623991E+00 -0.44904242679E+01  0.80788846446E+01  0.10500000000E+00 0.  1.
</event>
<event>
11    0  0.3476221E-009  0.9118800E+02  0.7816531E-02  0.1126479E+00
         25   -1    0    0    0    0  0.00000000000E+00  0.00000000000E+00  0.99999998245E-14  0.12500000000E+03  0.12500000000E+03 0.  0.
    3000001    1    3    3    0    0  0.35089485413E+02 -0.75261915160E+01 -0.27454937912E+02  0.45196118871E+02  0.10000000000E+01 0. -1.
    1000022    2    1    0    0    0  0.50358760441E+02 -0.52151679451E+01 -0.35256874503E+02  0.62500000040E+02  0.10000003770E+02 0.  0.
    3000022    2    3    3    0    0  0.15269275029E+02  0.23110235708E+01 -0.78019365912E+01  0.17303881169E+02  0.24999817986E+00 0.  0.
    1000022    2    1    0    0    0 -0.50358760441E+02  0.52151679451E+01  0.35256874503E+02  0.62499999960E+02  0.10000003269E+02 0.  0.
    3000022    2    5    5    0    0 -0.35244928244E+01  0.28999472180E+01  0.44884835749E+01  0.64063037852E+01  0.24999970071E+00 0.  0.
        -13    1    4    4    0    0  0.39306276062E+01  0.62214402172E+00 -0.20270013231E+01  0.44672873118E+01  0.10500000000E+00 0.  1.
         13    1    4    4    0    0  0.11338647423E+02  0.16888795491E+01 -0.57749352682E+01  0.12836593857E+02  0.10500000000E+00 0. -1.
    3000001    1    5    5    0    0 -0.46834267617E+02  0.23152207272E+01  0.30768390928E+02  0.56093696175E+02  0.10000000000E+01 0. -1.
        -13    1    6    6    0    0 -0.19807136744E+01  0.15729671220E+01  0.24162438359E+01  0.34995301830E+01  0.10500000000E+00 0.  1.
         13    1    6    6    0    0 -0.15437791500E+01  0.13269800959E+01  0.20722397390E+01  0.29067736022E+01  0.10500000000E+00 0. -1.
</event>
<event>
11    0  0.3476221E-009  0.9118800E+02  0.7816531E-02  0.1126479E+00
         25   -1    0    0    0    0  0.00000000000E+00  0.00000000000E+00  0.99999998245E-14  0.12500000000E+03  0.12500000000E+03 0.  0.
    3000001    1    3    3    0    0 -0.11090753434E+02 -0.17672681490E+02  0.37821125986E+02  0.43206088155E+02  0.10000000000E+01 0.  1.
    1000022    2    1    0    0    0 -0.21856543019E+02 -0.25911854474E+02  0.51547238175E+02  0.62499995439E+02  0.99999495744E+01 0.  0.
    3000022    2    3    3    0    0 -0.10765789584E+02 -0.82391729835E+01  0.13726112188E+02  0.19293907284E+02  0.25001131849E+00 0.  0.
    1000022    2    1    0    0    0  0.21856543019E+02  0.25911854474E+02 -0.51547238175E+02  0.62500004561E+02  0.10000006584E+02 0.  0.
    3000022    2    5    5    0    0  0.21284021442E+02  0.19674217550E+02 -0.41588527604E+02  0.50692726653E+02  0.25000474701E+00 0.  0.
        -13    1    4    4    0    0 -0.38412083345E+01 -0.29839895735E+01  0.49908522986E+01  0.69698426747E+01  0.10500000000E+00 0. -1.
         13    1    4    4    0    0 -0.69245812497E+01 -0.52551834100E+01  0.87352598896E+01  0.12324064609E+02  0.10500000000E+00 0.  1.
    3000001    1    5    5    0    0  0.57252157689E+00  0.62376369236E+01 -0.99587105711E+01  0.11807277908E+02  0.10000000000E+01 0. -1.
        -13    1    6    6    0    0  0.85182255379E+01  0.78010423668E+01 -0.16631475118E+02  0.20249281911E+02  0.10500000000E+00 0. -1.
         13    1    6    6    0    0  0.12765795904E+02  0.11873175183E+02 -0.24957052486E+02  0.30443444742E+02  0.10500000000E+00 0.  1.
</event>
<event>
11    0  0.3476221E-009  0.9118800E+02  0.7816531E-02  0.1126479E+00
         25   -1    0    0    0    0  0.00000000000E+00  0.00000000000E+00  0.99999998245E-14  0.12500000000E+03  0.12500000000E+03 0.  0.
    3000001    1    3    3    0    0  0.11994569741E+01  0.21918415741E+01  0.12673551877E+01  0.29747362388E+01  0.10000000000E+01 0. -1.
    1000022    2    1    0    0    0  0.53345929846E+02  0.18031020407E+02  0.25206032827E+02  0.62499999862E+02  0.99999981911E+01 0.  0.
    3000022    2    3    3    0    0  0.52146472872E+02  0.15839178833E+02  0.23938677639E+02  0.59525263623E+02  0.25000641801E+00 0.  0.
    1000022    2    1    0    0    0 -0.53345929846E+02 -0.18031020407E+02 -0.25206032827E+02  0.62500000138E+02  0.99999999189E+01 0.  0.
    3000022    2    5    5    0    0 -0.50221932649E+02 -0.14386376697E+02 -0.23729969364E+02  0.57379301983E+02  0.24999297685E+00 0.  0.
        -13    1    4    4    0    0  0.27958522190E+02  0.84639506327E+01  0.12763963575E+02  0.31878632570E+02  0.10500000000E+00 0. -1.
         13    1    4    4    0    0  0.24187950681E+02  0.73752282001E+01  0.11174714064E+02  0.27646631053E+02  0.10500000000E+00 0.  1.
    3000001    1    5    5    0    0 -0.31239971967E+01 -0.36446437096E+01 -0.14760634621E+01  0.51206981555E+01  0.10000000000E+01 0.  1.
        -13    1    6    6    0    0 -0.31355189785E+02 -0.89387765679E+01 -0.14761817157E+02  0.35790668109E+02  0.10500000000E+00 0. -1.
         13    1    6    6    0    0 -0.18866742865E+02 -0.54476001295E+01 -0.89681522079E+01  0.21588633873E+02  0.10500000000E+00 0.  1.
</event>
<event>
11    0  0.3476221E-009  0.9118800E+02  0.7816531E-02  0.1126479E+00
         25   -1    0    0    0    0  0.00000000000E+00  0.00000000000E+00  0.99999998245E-14  0.12500000000E+03  0.12500000000E+03 0.  0.
    3000001    1    3    3    0    0  0.10845288493E+02 -0.77097388641E+01 -0.48379477676E+02  0.50185996215E+02  0.10000000000E+01 0.  1.
    1000022    2    1    0    0    0  0.17905917344E+02 -0.83626287234E+01 -0.58443942186E+02  0.62500000086E+02  0.10000009869E+02 0.  0.
    3000022    2    3    3    0    0  0.70606288516E+01 -0.65288985923E+00 -0.10064464510E+02  0.12314003871E+02  0.25000104151E+00 0.  0.
    1000022    2    1    0    0    0 -0.17905917344E+02  0.83626287234E+01  0.58443942186E+02  0.62499999914E+02  0.10000008797E+02 0.  0.
    3000022    2    5    5    0    0 -0.14676206825E+01  0.34665287327E+01  0.20544351284E+02  0.20887881694E+02  0.25000010167E+00 0.  0.
        -13    1    4    4    0    0  0.27575442512E+01 -0.25817280299E+00 -0.40400707912E+01  0.48993775616E+01  0.10500000000E+00 0.  1.
         13    1    4    4    0    0  0.43030846004E+01 -0.39471705623E+00 -0.60243937183E+01  0.74146263093E+01  0.10500000000E+00 0. -1.
    3000001    1    5    5    0    0 -0.16438296662E+02  0.48960999906E+01  0.37899590902E+02  0.41612118221E+02  0.10000000000E+01 0.  1.
        -13    1    6    6    0    0 -0.80818017271E+00  0.17358622542E+01  0.10479105140E+02  0.10653123602E+02  0.10500000000E+00 0. -1.
         13    1    6    6    0    0 -0.65944050980E+00  0.17306664785E+01  0.10065246144E+02  0.10234758091E+02  0.10500000000E+00 0.  1.
</event>
<event>
11    0  0.3476221E-009  0.9118800E+02  0.7816531E-02  0.1126479E+00
         25   -1    0    0    0    0  0.00000000000E+00  0.00000000000E+00  0.99999998245E-14  0.12500000000E+03  0.12500000000E+03 0.  0.
    3000001    1    3    3    0    0  0.25872425808E+01 -0.16202685366E+02 -0.31388588235E+02  0.35432531784E+02  0.10000000000E+01 0.  1.
    1000022    2    1    0    0    0  0.12586805223E+02 -0.25378720382E+02 -0.54806424959E+02  0.62500011441E+02  0.10000004974E+02 0.  0.
    3000022    2    3    3    0    0  0.99995626418E+01 -0.91760350165E+01 -0.23417836723E+02  0.27067479657E+02  0.25001309129E+00 0.  0.
    1000022    2    1    0    0    0 -0.12586805223E+02  0.25378720382E+02  0.54806424959E+02  0.62499988559E+02  0.99998619568E+01 0.  0.
    3000022    2    5    5    0    0 -0.98181229160E+00  0.31197839218E+01  0.15762495212E+01  0.36392402593E+01  0.25000003391E+00 0.  0.
        -13    1    4    4    0    0  0.38645372457E+01 -0.34662073259E+01 -0.89899335945E+01  0.10381674835E+02  0.10500000000E+00 0.  1.
         13    1    4    4    0    0  0.61350253961E+01 -0.57098276906E+01 -0.14427903129E+02  0.16685804822E+02  0.10500000000E+00 0. -1.
    3000001    1    5    5    0    0 -0.11604992931E+02  0.22258936460E+02  0.53230175437E+02  0.58860748299E+02  0.10000000000E+01 0.  1.
        -13    1    6    6    0    0 -0.59619594663E+00  0.20732934263E+01  0.10510061376E+01  0.24020062738E+01  0.10500000000E+00 0. -1.
         13    1    6    6    0    0 -0.38561634497E+00  0.10464904956E+01  0.52524338360E+00  0.12372339855E+01  0.10500000000E+00 0.  1.
</event>
<event>
11    0  0.3476221E-009  0.9118800E+02  0.7816531E-02  0.1126479E+00
         25   -1    0    0    0    0  0.00000000000E+00  0.00000000000E+00  0.99999998245E-14  0.12500000000E+03  0.12500000000E+03 0.  0.
    3000001    1    3    3    0    0 -0.16279219836E+02  0.17737182475E+02 -0.22446301723E+02  0.32931096272E+02  0.10000000000E+01 0. -1.
    1000022    2    1    0    0    0 -0.27892445293E+02  0.26699381561E+02 -0.48118651382E+02  0.62499999701E+02  0.99999935853E+01 0.  0.
    3000022    2    3    3    0    0 -0.11613225457E+02  0.89621990867E+01 -0.25672349658E+02  0.29568903430E+02  0.24999014008E+00 0.  0.
    1000022    2    1    0    0    0  0.27892445293E+02 -0.26699381561E+02  0.48118651382E+02  0.62500000299E+02  0.99999973187E+01 0.  0.
    3000022    2    5    5    0    0  0.25885597041E+02 -0.24809728393E+02  0.39264038364E+02  0.53172492556E+02  0.24999767634E+00 0.  0.
        -13    1    4    4    0    0 -0.85487091756E+01  0.65603435507E+01 -0.18892035390E+02  0.21749449700E+02  0.10500000000E+00 0. -1.
         13    1    4    4    0    0 -0.30645162817E+01  0.24018555360E+01 -0.67803142683E+01  0.78194537299E+01  0.10500000000E+00 0.  1.
    3000001    1    5    5    0    0  0.20068482516E+01 -0.18896531685E+01  0.88546130174E+01  0.93275077427E+01  0.10000000000E+01 0. -1.
        -13    1    6    6    0    0  0.15578967598E+02 -0.14973000749E+02  0.23580119470E+02  0.31983246272E+02  0.10500000000E+00 0.  1.
         13    1    6    6    0    0  0.10306629443E+02 -0.98367276433E+01  0.15683918894E+02  0.21189246284E+02  0.10500000000E+00 0. -1.
</event>
<event>
11    0  0.3476221E-009  0.9118800E+02  0.7816531E-02  0.1126479E+00
         25   -1    0    0    0    0  0.00000000000E+00  0.00000000000E+00  0.99999998245E-14  0.12500000000E+03  0.12500000000E+03 0.  0.
    3000001    1    3    3    0    0 -0.17267832367E+02  0.92858279286E+01  0.88007912171E+01  0.21514147927E+02  0.10000000000E+01 0. -1.
    1000022    2    1    0    0    0 -0.40699252406E+02  0.31052911917E+02  0.34431635289E+02  0.62499999761E+02  0.99999988233E+01 0.  0.
    3000022    2    3    3    0    0 -0.23431420039E+02  0.21767083989E+02  0.25630844072E+02  0.40985851834E+02  0.24998456631E+00 0.  0.
    1000022    2    1    0    0    0  0.40699252406E+02 -0.31052911917E+02 -0.34431635289E+02  0.62500000239E+02  0.10000001813E+02 0.  0.
    3000022    2    5    5    0    0  0.13203770427E+02 -0.16121490344E+02 -0.12996899702E+02  0.24560617414E+02  0.25004299419E+00 0.  0.
        -13    1    4    4    0    0 -0.88101285767E+01  0.81130899563E+01  0.95602415047E+01  0.15324811151E+02  0.10500000000E+00 0.  1.
         13    1    4    4    0    0 -0.14621291462E+02  0.13653994032E+02  0.16070602567E+02  0.25661040683E+02  0.10500000000E+00 0. -1.
    3000001    1    5    5    0    0  0.27495481979E+02 -0.14931421573E+02 -0.21434735587E+02  0.37939382825E+02  0.10000000000E+01 0.  1.
        -13    1    6    6    0    0  0.60379856977E+01 -0.72978039949E+01 -0.59634801148E+01  0.11193271841E+02  0.10500000000E+00 0.  1.
         13    1    6    6    0    0  0.71657847294E+01 -0.88236863491E+01 -0.70334195874E+01  0.13367345573E+02  0.10500000000E+00 0. -1.
</event>
<event>
11    0  0.3476221E-009  0.9118800E+02  0.7816531E-02  0.1126479E+00
         25   -1    0    0    0    0  0.00000000000E+00  0.00000000000E+00  0.99999998245E-14  0.12500000000E+03  0.12500000000E+03 0.  0.
    3000001    1    3    3    0    0  0.31370184697E+01  0.22242574948E+01  0.56630414710E+01  0.69179653790E+01  0.10000000000E+01 0.  1.
    1000022    2    1    0    0    0  0.20980269060E+02 -0.50462248425E+01  0.57798046097E+02  0.62500001155E+02  0.99999968333E+01 0.  0.
    3000022    2    3    3    0    0  0.17843250590E+02 -0.72704823373E+01  0.52135004626E+02  0.55582035776E+02  0.24997705788E+00 0.  0.
    1000022    2    1    0    0    0 -0.20980269060E+02  0.50462248425E+01 -0.57798046097E+02  0.62499998845E+02  0.99999824013E+01 0.  0.
    3000022    2    5    5    0    0 -0.18199189273E+02  0.42182476982E+01 -0.55782476084E+02  0.58828150072E+02  0.24999809367E+00 0.  0.
        -13    1    4    4    0    0  0.71912950262E+01 -0.29815411161E+01  0.21186065823E+02  0.22571325208E+02  0.10500000000E+00 0. -1.
         13    1    4    4    0    0  0.10651955564E+02 -0.42889412213E+01  0.30948938803E+02  0.33010710568E+02  0.10500000000E+00 0.  1.
    3000001    1    5    5    0    0 -0.27810797871E+01  0.82797714435E+00 -0.20155700133E+01  0.36718487730E+01  0.10000000000E+01 0. -1.
        -13    1    6    6    0    0 -0.70432273031E+01  0.16467669489E+01 -0.21788212534E+02  0.22957702904E+02  0.10500000000E+00 0. -1.
         13    1    6    6    0    0 -0.11155961970E+02  0.25714807493E+01 -0.33994263550E+02  0.35870447168E+02  0.10500000000E+00 0.  1.
</event>
<event>
11    0  0.3476221E-009  0.9118800E+02  0.7816531E-02  0.1126479E+00
         25   -1    0    0    0    0  0.00000000000E+00  0.00000000000E+00  0.99999998245E-14  0.12500000000E+03  0.12500000000E+03 0.  0.
    3000001    1    3    3    0    0  0.64339910910E+00  0.76481895433E+01  0.19824248116E+02  0.21281672375E+02  0.10000000000E+01 0.  1.
    1000022    2    1    0    0    0  0.23659757091E+01  0.90466471900E+01  0.60982052138E+02  0.62499997003E+02  0.99999637973E+01 0.  0.
    3000022    2    3    3    0    0  0.17225766000E+01  0.13984576467E+01  0.41157804022E+02  0.41218324628E+02  0.24999858589E+00 0.  0.
    1000022    2    1    0    0    0 -0.23659757091E+01 -0.90466471900E+01 -0.60982052138E+02  0.62500002997E+02  0.10000001257E+02 0.  0.
    3000022    2    5    5    0    0 -0.19076999420E+01 -0.11102645447E+02 -0.47536312784E+02  0.48853572977E+02  0.25000896346E+00 0.  0.
        -13    1    4    4    0    0  0.10511634068E+01  0.92965069844E+00  0.25857466802E+02  0.25895729558E+02  0.10500000000E+00 0. -1.
         13    1    4    4    0    0  0.67141319326E+00  0.46880694830E+00  0.15300337220E+02  0.15322595070E+02  0.10500000000E+00 0.  1.
    3000001    1    5    5    0    0 -0.45827576715E+00  0.20559982569E+01 -0.13445739354E+02  0.13646430020E+02  0.10000000000E+01 0.  1.
        -13    1    6    6    0    0 -0.11387676502E+01 -0.68145959289E+01 -0.29380516716E+02  0.30182135394E+02  0.10500000000E+00 0. -1.
         13    1    6    6    0    0 -0.76893229176E+00 -0.42880495180E+01 -0.18155796068E+02  0.18671437583E+02  0.10500000000E+00 0.  1.
</event>
<event>
11    0  0.3476221E-009  0.9118800E+02  0.7816531E-02  0.1126479E+00
         25   -1    0    0    0    0  0.00000000000E+00  0.00000000000E+00  0.99999998245E-14  0.12500000000E+03  0.12500000000E+03 0.  0.
    3000001    1    3    3    0    0  0.17274093234E+02 -0.45155785751E+01  0.10631050853E+02  0.20803941674E+02  0.10000000000E+01 0. -1.
    1000022    2    1    0    0    0  0.57358316705E+02 -0.12158503873E+02  0.19194909574E+02  0.62500002094E+02  0.99999998270E+01 0.  0.
    3000022    2    3    3    0    0  0.40084223471E+02 -0.76429252979E+01  0.85638587207E+01  0.41696060420E+02  0.24999999572E+00 0.  0.
    1000022    2    1    0    0    0 -0.57358316705E+02  0.12158503873E+02 -0.19194909574E+02  0.62499997906E+02  0.99999736546E+01 0.  0.
    3000022    2    5    5    0    0 -0.19380636826E+02 -0.62373305824E+00 -0.59350886410E+01  0.20280185008E+02  0.25000019447E+00 0.  0.
        -13    1    4    4    0    0  0.16207000774E+02 -0.30553787756E+01  0.35158279944E+01  0.16863400755E+02  0.10500000000E+00 0.  1.
         13    1    4    4    0    0  0.23877222697E+02 -0.45875465223E+01  0.50480307263E+01  0.24832659665E+02  0.10500000000E+00 0. -1.
    3000001    1    5    5    0    0 -0.37977679879E+02  0.12782236931E+02 -0.13259820933E+02  0.42219812898E+02  0.10000000000E+01 0.  1.
        -13    1    6    6    0    0 -0.96248113440E+01 -0.36917069283E+00 -0.29823309604E+01  0.10083580880E+02  0.10500000000E+00 0. -1.
         13    1    6    6    0    0 -0.97558254815E+01 -0.25456236541E+00 -0.29527576806E+01  0.10196604128E+02  0.10500000000E+00 0.  1.
</event>
<event>
11    0  0.3476221E-009  0.9118800E+02  0.7816531E-02  0.1126479E+00
         25   -1    0    0    0    0  0.00000000000E+00  0.00000000000E+00  0.99999998245E-14  0.12500000000E+03  0.12500000000E+03 0.  0.
    3000001    1    3    3    0    0 -0.23937148304E+00  0.21875899923E+01 -0.12545140767E+01  0.27233534934E+01  0.10000000000E+01 0.  1.
    1000022    2    1    0    0    0 -0.13073558143E+02  0.59361762564E+02  0.10559990725E+02  0.62499999216E+02  0.99999860308E+01 0.  0.
    3000022    2    3    3    0    0 -0.12834186660E+02  0.57174172572E+02  0.11814504801E+02  0.59776645722E+02  0.24998722635E+00 0.  0.
    1000022    2    1    0    0    0  0.13073558143E+02 -0.59361762564E+02 -0.10559990725E+02  0.62500000784E+02  0.99999958343E+01 0.  0.
    3000022    2    5    5    0    0  0.14162773176E+02 -0.57518587603E+02 -0.10075281565E+02  0.60087817895E+02  0.24999362497E+00 0.  0.
        -13    1    4    4    0    0 -0.42667010862E+01  0.18893809393E+02  0.38577095625E+01  0.19750284038E+02  0.10500000000E+00 0.  1.
         13    1    4    4    0    0 -0.85674855738E+01  0.38280363179E+02  0.79567952388E+01  0.40026361684E+02  0.10500000000E+00 0. -1.
    3000001    1    5    5    0    0 -0.10892150327E+01 -0.18431749608E+01 -0.48470915984E+00  0.24121828896E+01  0.10000000000E+01 0. -1.
        -13    1    6    6    0    0  0.69986076955E+01 -0.28508828405E+02 -0.49273451067E+01  0.29766147911E+02  0.10500000000E+00 0.  1.
         13    1    6    6    0    0  0.71641654802E+01 -0.29009759199E+02 -0.51479364581E+01  0.30321669983E+02  0.10500000000E+00 0. -1.
</event>
<event>
11    0  0.3476221E-009  0.9118800E+02  0.7816531E-02  0.1126479E+00
         25   -1    0    0    0    0  0.00000000000E+00  0.00000000000E+00  0.99999998245E-14  0.12500000000E+03  0.12500000000E+03 0.  0.
    3000001    1    3    3    0    0 -0.35061367001E+02  0.32742489760E+01 -0.18122626455E+02  0.39616281400E+02  0.10000000000E+01 0.  1.
    1000022    2    1    0    0    0 -0.50813491738E+02  0.74339219023E+01 -0.34190288614E+02  0.62500000181E+02  0.10000002480E+02 0.  0.
    3000022    2    3    3    0    0 -0.15752124737E+02  0.41596729263E+01 -0.16067662159E+02  0.22883718781E+02  0.25001077514E+00 0.  0.
    1000022    2    1    0    0    0  0.50813491738E+02 -0.74339219023E+01  0.34190288614E+02  0.62499999819E+02  0.10000000223E+02 0.  0.
    3000022    2    5    5    0    0  0.14577873560E+02 -0.86831663052E+00  0.48030710208E+01  0.15375316742E+02  0.25000473624E+00 0.  0.
        -13    1    4    4    0    0 -0.98907177702E+01  0.26707969984E+01 -0.10078240207E+02  0.14371548465E+02  0.10500000000E+00 0. -1.
         13    1    4    4    0    0 -0.58614069667E+01  0.14888759279E+01 -0.59894219517E+01  0.85121703151E+01  0.10500000000E+00 0.  1.
    3000001    1    5    5    0    0  0.36235618178E+02 -0.65656052718E+01  0.29387217593E+02  0.47124683078E+02  0.10000000000E+01 0.  1.
        -13    1    6    6    0    0  0.61357398909E+01 -0.39406981432E+00  0.20835963131E+01  0.64926877041E+01  0.10500000000E+00 0.  1.
         13    1    6    6    0    0  0.84421336692E+01 -0.47424681620E+00  0.27194747077E+01  0.88826290374E+01  0.10500000000E+00 0. -1.
</event>
<event>
11    0  0.3476221E-009  0.9118800E+02  0.7816531E-02  0.1126479E+00
         25   -1    0    0    0    0  0.00000000000E+00  0.00000000000E+00  0.99999998245E-14  0.12500000000E+03  0.12500000000E+03 0.  0.
    3000001    1    3    3    0    0  0.27549779635E+01  0.80996488193E+01  0.70612355067E+00  0.86425010873E+01  0.10000000000E+01 0.  1.
    1000022    2    1    0    0    0  0.40111877520E+02  0.46051846321E+02  0.87472905593E+01  0.62499999281E+02  0.99999775080E+01 0.  0.
    3000022    2    3    3    0    0  0.37356899557E+02  0.37952197502E+02  0.80411670086E+01  0.53857498193E+02  0.25001013470E+00 0.  0.
    1000022    2    1    0    0    0 -0.40111877520E+02 -0.46051846321E+02 -0.87472905593E+01  0.62500000719E+02  0.99999864984E+01 0.  0.
    3000022    2    5    5    0    0 -0.21131658505E+01 -0.66579572308E+01  0.38640934818E+00  0.70004055834E+01  0.25000349826E+00 0.  0.
        -13    1    4    4    0    0  0.15181173500E+02  0.15355739820E+02  0.32175216159E+01  0.21831863058E+02  0.10500000000E+00 0. -1.
         13    1    4    4    0    0  0.22175726057E+02  0.22596457682E+02  0.48236453927E+01  0.32025635135E+02  0.10500000000E+00 0.  1.
    3000001    1    5    5    0    0 -0.37998711670E+02 -0.39393889091E+02 -0.91336999074E+01  0.55499595136E+02  0.10000000000E+01 0. -1.
        -13    1    6    6    0    0 -0.11266079012E+01 -0.37570221031E+01  0.19620427876E+00  0.39286106405E+01  0.10500000000E+00 0.  1.
         13    1    6    6    0    0 -0.98655794939E+00 -0.29009351277E+01  0.19020506943E+00  0.30717949429E+01  0.10500000000E+00 0. -1.
</event>
<event>
11    0  0.3476221E-009  0.9118800E+02  0.7816531E-02  0.1126479E+00
         25   -1    0    0    0    0  0.00000000000E+00  0.00000000000E+00  0.99999998245E-14  0.12500000000E+03  0.12500000000E+03 0.  0.
    3000001    1    3    3    0    0  0.33737562248E+01 -0.23519487862E+02  0.30470762095E+02  0.38652501640E+02  0.10000000000E+01 0.  1.
    1000022    2    1    0    0    0  0.11863206059E+02 -0.33726992685E+02  0.50279262860E+02  0.62499998736E+02  0.99999937332E+01 0.  0.
    3000022    2    3    3    0    0  0.84894498343E+01 -0.10207504823E+02  0.19808500766E+02  0.23847497097E+02  0.25000398923E+00 0.  0.
    1000022    2    1    0    0    0 -0.11863206059E+02  0.33726992685E+02 -0.50279262860E+02  0.62500001264E+02  0.10000009528E+02 0.  0.
    3000022    2    5    5    0    0  0.95560896525E+00  0.12597446132E+01 -0.46881482151E+00  0.16680610525E+01  0.24999070608E+00 0.  0.
        -13    1    4    4    0    0  0.59214741474E+01 -0.70743549712E+01  0.13829847840E+02  0.16624863025E+02  0.10500000000E+00 0. -1.
         13    1    4    4    0    0  0.25679756869E+01 -0.31331498519E+01  0.59786529262E+01  0.72226340718E+01  0.10500000000E+00 0.  1.
    3000001    1    5    5    0    0 -0.12818815024E+02  0.32467248072E+02 -0.49810448039E+02  0.60831940211E+02  0.10000000000E+01 0.  1.
        -13    1    6    6    0    0  0.30554339167E+00  0.40942481692E+00 -0.99602128720E-01  0.53097177792E+00  0.10500000000E+00 0.  1.
         13    1    6    6    0    0  0.65006557358E+00  0.85031979629E+00 -0.36921269279E+00  0.11370892746E+01  0.10500000000E+00 0. -1.
</event>
<event>
11    0  0.3476221E-009  0.9118800E+02  0.7816531E-02  0.1126479E+00
         25   -1    0    0    0    0  0.00000000000E+00  0.00000000000E+00  0.99999998245E-14  0.12500000000E+03  0.12500000000E+03 0.  0.
    3000001    1    3    3    0    0 -0.97428552479E+01 -0.28360683006E+01  0.54687892974E+01  0.11570400519E+02  0.10000000000E+01 0.  1.
    1000022    2    1    0    0    0 -0.56041832924E+02  0.43648014259E+01  0.25426586361E+02  0.62499999267E+02  0.10000004269E+02 0.  0.
    3000022    2    3    3    0    0 -0.46298977677E+02  0.72008697264E+01  0.19957797064E+02  0.50929598748E+02  0.25001259676E+00 0.  0.
    1000022    2    1    0    0    0  0.56041832924E+02 -0.43648014259E+01 -0.25426586361E+02  0.62500000733E+02  0.10000013433E+02 0.  0.
    3000022    2    5    5    0    0  0.34153954057E+02 -0.17591991178E+01 -0.10191837428E+02  0.35686459755E+02  0.25000093228E+00 0.  0.
        -13    1    4    4    0    0 -0.17849073705E+02  0.28327908390E+01  0.77254221338E+01  0.19654701936E+02  0.10500000000E+00 0. -1.
         13    1    4    4    0    0 -0.28449903972E+02  0.43680788874E+01  0.12232374930E+02  0.31274896812E+02  0.10500000000E+00 0.  1.
    3000001    1    5    5    0    0  0.21887878868E+02 -0.26056023080E+01 -0.15234748933E+02  0.26813540978E+02  0.10000000000E+01 0.  1.
        -13    1    6    6    0    0  0.16295944680E+02 -0.83077198215E+00 -0.47927844312E+01  0.17006757560E+02  0.10500000000E+00 0.  1.
         13    1    6    6    0    0  0.17858009377E+02 -0.92842713568E+00 -0.53990529965E+01  0.18679702196E+02  0.10500000000E+00 0. -1.
</event>
<event>
11    0  0.3476221E-009  0.9118800E+02  0.7816531E-02  0.1126479E+00
         25   -1    0    0    0    0  0.00000000000E+00  0.00000000000E+00  0.99999998245E-14  0.12500000000E+03  0.12500000000E+03 0.  0.
    3000001    1    3    3    0    0 -0.80665445370E+00  0.92658557718E+01 -0.20308041561E+02  0.22358965241E+02  0.10000000000E+01 0. -1.
    1000022    2    1    0    0    0 -0.68520333350E+01  0.13881025832E+02 -0.59721157728E+02  0.62499999379E+02  0.10000000151E+02 0.  0.
    3000022    2    3    3    0    0 -0.60453788813E+01  0.46151700604E+01 -0.39413116167E+02  0.40141034139E+02  0.24999036618E+00 0.  0.
    1000022    2    1    0    0    0  0.68520333350E+01 -0.13881025832E+02  0.59721157728E+02  0.62500000621E+02  0.10000007910E+02 0.  0.
    3000022    2    5    5    0    0 -0.13304186834E+01  0.14528923884E+00  0.12100965355E+02  0.12177314313E+02  0.24999705663E+00 0.  0.
        -13    1    4    4    0    0 -0.21726923340E+01  0.16747072350E+01 -0.13921746500E+02  0.14189830405E+02  0.10500000000E+00 0.  1.
         13    1    4    4    0    0 -0.38726865473E+01  0.29404628254E+01 -0.25491369668E+02  0.25951203734E+02  0.10500000000E+00 0. -1.
    3000001    1    5    5    0    0  0.81824520184E+01 -0.14026315071E+02  0.47620192374E+02  0.50322686308E+02  0.10000000000E+01 0.  1.
        -13    1    6    6    0    0 -0.58320579035E+00  0.12598308191E+00  0.56026641361E+01  0.56353235181E+01  0.10500000000E+00 0.  1.
         13    1    6    6    0    0 -0.74721289309E+00  0.19306156939E-01  0.64983012185E+01  0.65419907950E+01  0.10500000000E+00 0. -1.
</event>
<event>
11    0  0.3476221E-009  0.9118800E+02  0.7816531E-02  0.1126479E+00
         25   -1    0    0    0    0  0.00000000000E+00  0.00000000000E+00  0.99999998245E-14  0.12500000000E+03  0.12500000000E+03 0.  0.
    3000001    1    3    3    0    0 -0.42477806016E+02 -0.25641528685E+00 -0.37944952584E+02  0.56967088563E+02  0.10000000000E+01 0.  1.
    1000022    2    1    0    0    0 -0.47227082534E+02  0.20018402771E+01 -0.39646504759E+02  0.62500001230E+02  0.10000006246E+02 0.  0.
    3000022    2    3    3    0    0 -0.47492765182E+01  0.22582555640E+01 -0.17015521750E+01  0.55329126667E+01  0.24999426959E+00 0.  0.
    1000022    2    1    0    0    0  0.47227082534E+02 -0.20018402771E+01  0.39646504759E+02  0.62499998770E+02  0.99999908744E+01 0.  0.
    3000022    2    5    5    0    0  0.36246775393E+02 -0.34027476724E+01  0.25221775451E+02  0.44290042646E+02  0.25000507150E+00 0.  0.
        -13    1    4    4    0    0 -0.19035601167E+01  0.92894145234E+00 -0.62308885372E+00  0.22103705706E+01  0.10500000000E+00 0.  1.
         13    1    4    4    0    0 -0.28457164015E+01  0.13293141116E+01 -0.10784633213E+01  0.33225420961E+01  0.10500000000E+00 0. -1.
    3000001    1    5    5    0    0  0.10980307141E+02  0.14009073952E+01  0.14424729309E+02  0.18209956125E+02  0.10000000000E+01 0.  1.
        -13    1    6    6    0    0  0.19885525348E+02 -0.18915917285E+01  0.13763175619E+02  0.24257952629E+02  0.10500000000E+00 0.  1.
         13    1    6    6    0    0  0.16361250045E+02 -0.15111559439E+01  0.11458599831E+02  0.20032090016E+02  0.10500000000E+00 0.  1.
</event>
<event>
11    0  0.3476221E-009  0.9118800E+02  0.7816531E-02  0.1126479E+00
         25   -1    0    0    0    0  0.00000000000E+00  0.00000000000E+00  0.99999998245E-14  0.12500000000E+03  0.12500000000E+03 0.  0.
    3000001    1    3    3    0    0 -0.82251564806E+01  0.32000326538E+02  0.12137351109E+02  0.35213483066E+02  0.10000000000E+01 0. -1.
    1000022    2    1    0    0    0 -0.11304556144E+02  0.59060664147E+02  0.13794744481E+02  0.62500000315E+02  0.10000001249E+02 0.  0.
    3000022    2    3    3    0    0 -0.30793996633E+01  0.27060337609E+02  0.16573933721E+01  0.27286517249E+02  0.24999401957E+00 0.  0.
    1000022    2    1    0    0    0  0.11304556144E+02 -0.59060664147E+02 -0.13794744481E+02  0.62499999685E+02  0.99999973104E+01 0.  0.
    3000022    2    5    5    0    0  0.25802700669E+01 -0.12029976210E+02 -0.70526374067E+01  0.14183803816E+02  0.24995016162E+00 0.  0.
        -13    1    4    4    0    0 -0.20969764437E+01  0.18836174135E+02  0.11453403782E+01  0.18987406242E+02  0.10500000000E+00 0. -1.
         13    1    4    4    0    0 -0.98242321967E+00  0.82241634746E+01  0.51205299386E+00  0.82991110071E+01  0.10500000000E+00 0.  1.
    3000001    1    5    5    0    0  0.87242860771E+01 -0.47030687937E+02 -0.67421070746E+01  0.48316195869E+02  0.10000000000E+01 0.  1.
        -13    1    6    6    0    0  0.19391936678E+01 -0.90084527016E+01 -0.53113477405E+01  0.10636452979E+02  0.10500000000E+00 0. -1.
         13    1    6    6    0    0  0.64107639902E+00 -0.30215235080E+01 -0.17412896662E+01  0.35473508370E+01  0.10500000000E+00 0.  1.
</event>
<event>
11    0  0.3476221E-009  0.9118800E+02  0.7816531E-02  0.1126479E+00
         25   -1    0    0    0    0  0.00000000000E+00  0.00000000000E+00  0.99999998245E-14  0.12500000000E+03  0.12500000000E+03 0.  0.
    3000001    1    3    3    0    0  0.30069063031E+00 -0.21617154944E+01  0.11807895671E+00  0.24036163118E+01  0.10000000000E+01 0. -1.
    1000022    2    1    0    0    0 -0.57674020024E+01 -0.44645153418E+02  0.42187645910E+02  0.62499999189E+02  0.99999890790E+01 0.  0.
    3000022    2    3    3    0    0 -0.60680926327E+01 -0.42483437924E+02  0.42069566953E+02  0.60096382877E+02  0.25005048744E+00 0.  0.
    1000022    2    1    0    0    0  0.57674020024E+01  0.44645153418E+02 -0.42187645910E+02  0.62500000811E+02  0.99999992185E+01 0.  0.
    3000022    2    5    5    0    0  0.50966752229E+01  0.10953776810E+02 -0.80396493663E+01  0.14514123721E+02  0.25000144365E+00 0.  0.
        -13    1    4    4    0    0 -0.29844342816E+01 -0.20441350143E+02  0.20281926263E+02  0.28950357538E+02  0.10500000000E+00 0.  1.
         13    1    4    4    0    0 -0.30836583511E+01 -0.22042087780E+02  0.21787640690E+02  0.31146025339E+02  0.10500000000E+00 0. -1.
    3000001    1    5    5    0    0  0.67072677950E+00  0.33691376608E+02 -0.34147996544E+02  0.47985877090E+02  0.10000000000E+01 0. -1.
        -13    1    6    6    0    0  0.23715412126E+01  0.49391995800E+01 -0.36533537583E+01  0.65861915321E+01  0.10500000000E+00 0.  1.
         13    1    6    6    0    0  0.27251340102E+01  0.60145772297E+01 -0.43862956080E+01  0.79279321886E+01  0.10500000000E+00 0. -1.
</event>
<event>
11    0  0.3476221E-009  0.9118800E+02  0.7816531E-02  0.1126479E+00
         25   -1    0    0    0    0  0.00000000000E+00  0.00000000000E+00  0.99999998245E-14  0.12500000000E+03  0.12500000000E+03 0.  0.
    3000001    1    3    3    0    0  0.37682360074E+02 -0.30542296369E+02 -0.12268073805E+02  0.50042959176E+02  0.10000000000E+01 0. -1.
    1000022    2    1    0    0    0  0.49424318589E+02 -0.33824837946E+02 -0.14811044420E+02  0.62499999770E+02  0.10000000219E+02 0.  0.
    3000022    2    3    3    0    0  0.11741958515E+02 -0.32825415775E+01 -0.25429706149E+01  0.12457040594E+02  0.24998366469E+00 0.  0.
    1000022    2    1    0    0    0 -0.49424318589E+02  0.33824837946E+02  0.14811044420E+02  0.62500000230E+02  0.10000003094E+02 0.  0.
    3000022    2    5    5    0    0 -0.13804758351E+02  0.96770899271E+01 -0.34686230436E+00  0.16864170642E+02  0.25003078486E+00 0.  0.
        -13    1    4    4    0    0  0.29086555755E+01 -0.79043522908E+00 -0.61734853056E+00  0.30785076443E+01  0.10500000000E+00 0. -1.
         13    1    4    4    0    0  0.88333029396E+01 -0.24921063484E+01 -0.19256220843E+01  0.93785329495E+01  0.10500000000E+00 0.  1.
    3000001    1    5    5    0    0 -0.35619560238E+02  0.24147748019E+02  0.15157906725E+02  0.45635829588E+02  0.10000000000E+01 0. -1.
        -13    1    6    6    0    0 -0.71529561746E+01  0.50965511145E+01 -0.17530917556E+00  0.87852930290E+01  0.10500000000E+00 0.  1.
         13    1    6    6    0    0 -0.66518021765E+01  0.45805388126E+01 -0.17155312880E+00  0.80788776129E+01  0.10500000000E+00 0. -1.
</event>
<event>
11    0  0.3476221E-009  0.9118800E+02  0.7816531E-02  0.1126479E+00
         25   -1    0    0    0    0  0.00000000000E+00  0.00000000000E+00  0.99999998245E-14  0.12500000000E+03  0.12500000000E+03 0.  0.
    3000001    1    3    3    0    0  0.31532530288E+01  0.20326507237E+02  0.57409023484E+02  0.60991031131E+02  0.10000000000E+01 0. -1.
    1000022    2    1    0    0    0  0.44743092748E+01  0.20789528097E+02  0.57913955201E+02  0.62499998643E+02  0.99999850669E+01 0.  0.
    3000022    2    3    3    0    0  0.13210562461E+01  0.46302085970E+00  0.50493171779E+00  0.15089675117E+01  0.24989795904E+00 0.  0.
    1000022    2    1    0    0    0 -0.44743092748E+01 -0.20789528097E+02 -0.57913955201E+02  0.62500001357E+02  0.10000002029E+02 0.  0.
    3000022    2    5    5    0    0 -0.28881736949E+01 -0.20297049803E+02 -0.45119373290E+02  0.49559379763E+02  0.24999681456E+00 0.  0.
        -13    1    4    4    0    0  0.74636595999E+00  0.32391852368E+00  0.32040515443E+00  0.88072119265E+00  0.10500000000E+00 0.  1.
         13    1    4    4    0    0  0.57469028609E+00  0.13910233603E+00  0.18452656336E+00  0.62824631905E+00  0.10500000000E+00 0. -1.
    3000001    1    5    5    0    0 -0.15861355800E+01 -0.49247829334E+00 -0.12794581912E+02  0.12940621594E+02  0.10000000000E+01 0.  1.
        -13    1    6    6    0    0 -0.11010569092E+01 -0.77075016893E+01 -0.17282145703E+02  0.18955249767E+02  0.10500000000E+00 0.  1.
         13    1    6    6    0    0 -0.17871167856E+01 -0.12589548114E+02 -0.27837227587E+02  0.30604129996E+02  0.10500000000E+00 0. -1.
</event>
<event>
11    0  0.3476221E-009  0.9118800E+02  0.7816531E-02  0.1126479E+00
         25   -1    0    0    0    0  0.00000000000E+00  0.00000000000E+00  0.99999998245E-14  0.12500000000E+03  0.12500000000E+03 0.  0.
    3000001    1    3    3    0    0  0.17617095185E+02 -0.95407244749E+01 -0.83737544936E+01  0.21737231438E+02  0.10000000000E+01 0. -1.
    1000022    2    1    0    0    0  0.42249315223E+02 -0.37982884621E+02 -0.24052979442E+02  0.62500000057E+02  0.10000001308E+02 0.  0.
    3000022    2    3    3    0    0  0.24632220038E+02 -0.28442160146E+02 -0.15679224948E+02  0.40762768619E+02  0.24994549499E+00 0.  0.
    1000022    2    1    0    0    0 -0.42249315223E+02  0.37982884621E+02  0.24052979442E+02  0.62499999943E+02  0.10000000597E+02 0.  0.
    3000022    2    5    5    0    0 -0.31386415892E+02  0.33446326392E+02  0.18819288422E+02  0.49578140010E+02  0.24999700297E+00 0.  0.
        -13    1    4    4    0    0  0.13291278354E+02 -0.15396650773E+02 -0.85394400679E+01  0.22060099659E+02  0.10500000000E+00 0. -1.
         13    1    4    4    0    0  0.11340941684E+02 -0.13045509373E+02 -0.71397848801E+01  0.18702668959E+02  0.10500000000E+00 0.  1.
    3000001    1    5    5    0    0 -0.10862899331E+02  0.45365582289E+01  0.52336910193E+01  0.12921859933E+02  0.10000000000E+01 0.  1.
        -13    1    6    6    0    0 -0.19239604371E+02  0.20504558784E+02  0.11470050739E+02  0.30367291552E+02  0.10500000000E+00 0. -1.
         13    1    6    6    0    0 -0.12146811521E+02  0.12941767608E+02  0.73492376834E+01  0.19210848458E+02  0.10500000000E+00 0.  1.
</event>
<event>
11    0  0.3476221E-009  0.9118800E+02  0.7816531E-02  0.1126479E+00
         25   -1    0    0    0    0  0.00000000000E+00  0.00000000000E+00  0.99999998245E-14  0.12500000000E+03  0.12500000000E+03 0.  0.
    3000001    1    3    3    0    0 -0.16444855482E+01 -0.75504942135E+01 -0.35411471014E+02  0.36258606909E+02  0.10000000000E+01 0.  1.
    1000022    2    1    0    0    0 -0.44009896052E+01 -0.20698206179E+02 -0.57952269359E+02  0.62500000095E+02  0.10000001974E+02 0.  0.
    3000022    2    3    3    0    0 -0.27565040570E+01 -0.13147711965E+02 -0.22540798345E+02  0.26241393187E+02  0.24996357265E+00 0.  0.
    1000022    2    1    0    0    0  0.44009896052E+01  0.20698206179E+02  0.57952269359E+02  0.62499999905E+02  0.10000000784E+02 0.  0.
    3000022    2    5    5    0    0  0.73538644260E+01  0.16435499783E+02  0.42042812394E+02  0.45736916762E+02  0.25001156011E+00 0.  0.
        -13    1    4    4    0    0 -0.17742039932E+01 -0.81765626639E+01 -0.14009331486E+02  0.16317976912E+02  0.10500000000E+00 0. -1.
         13    1    4    4    0    0 -0.98230006382E+00 -0.49711493012E+01 -0.85314668591E+01  0.99234162745E+01  0.10500000000E+00 0.  1.
    3000001    1    5    5    0    0 -0.29528748208E+01  0.42627063953E+01  0.15909456965E+02  0.16763083142E+02  0.10000000000E+01 0.  1.
        -13    1    6    6    0    0  0.34153257918E+01  0.76519123308E+01  0.19735969855E+02  0.21441449198E+02  0.10500000000E+00 0.  1.
         13    1    6    6    0    0  0.39385386341E+01  0.87835874526E+01  0.22306842539E+02  0.24295467565E+02  0.10500000000E+00 0. -1.
</event>
<event>
11    0  0.3476221E-009  0.9118800E+02  0.7816531E-02  0.1126479E+00
         25   -1    0    0    0    0  0.00000000000E+00  0.00000000000E+00  0.99999998245E-14  0.12500000000E+03  0.12500000000E+03 0.  0.
    3000001    1    3    3    0    0  0.95258250413E+01  0.32725483481E+02  0.32184119751E+02  0.46888337312E+02  0.10000000000E+01 0. -1.
    1000022    2    1    0    0    0  0.12495238841E+02  0.38942276748E+02  0.46191103985E+02  0.62500001168E+02  0.10000007330E+02 0.  0.
    3000022    2    3    3    0    0  0.29694137999E+01  0.62167932669E+01  0.14006984234E+02  0.15611663855E+02  0.25000832209E+00 0.  0.
    1000022    2    1    0    0    0 -0.12495238841E+02 -0.38942276748E+02 -0.46191103985E+02  0.62499998832E+02  0.99999927345E+01 0.  0.
    3000022    2    5    5    0    0 -0.13361688226E+01 -0.19832938099E+02 -0.23670421352E+02  0.30910873907E+02  0.24999593845E+00 0.  0.
        -13    1    4    4    0    0  0.95285032016E+00  0.20866486258E+01  0.47475496701E+01  0.52737348331E+01  0.10500000000E+00 0. -1.
         13    1    4    4    0    0  0.20165634797E+01  0.41301446412E+01  0.92594345638E+01  0.10337929022E+02  0.10500000000E+00 0.  1.
    3000001    1    5    5    0    0 -0.11159070019E+02 -0.19109338649E+02 -0.22520682632E+02  0.31589124925E+02  0.10000000000E+01 0.  1.
        -13    1    6    6    0    0 -0.70007077531E+00 -0.11259750408E+02 -0.13480278539E+02  0.17578424641E+02  0.10500000000E+00 0. -1.
         13    1    6    6    0    0 -0.63609804727E+00 -0.85731876905E+01 -0.10190142813E+02  0.13332449267E+02  0.10500000000E+00 0.  1.
</event>
<event>
11    0  0.3476221E-009  0.9118800E+02  0.7816531E-02  0.1126479E+00
         25   -1    0    0    0    0  0.00000000000E+00  0.00000000000E+00  0.99999998245E-14  0.12500000000E+03  0.12500000000E+03 0.  0.
    3000001    1    3    3    0    0  0.16435199511E+02  0.45628807018E+01  0.48946276961E+02  0.51842778587E+02  0.10000000000E+01 0.  1.
    1000022    2    1    0    0    0  0.15514433182E+02  0.67848991160E+01  0.59325515049E+02  0.62499994684E+02  0.10000005332E+02 0.  0.
    3000022    2    3    3    0    0 -0.92076632904E+00  0.22220184142E+01  0.10379238088E+02  0.10657216097E+02  0.24999035236E+00 0.  0.
    1000022    2    1    0    0    0 -0.15514433182E+02 -0.67848991160E+01 -0.59325515049E+02  0.62500005316E+02  0.10000071785E+02 0.  0.
    3000022    2    5    5    0    0 -0.17263623164E+00 -0.60278503645E+00  0.20560552542E+00  0.70563999851E+00  0.25000221354E+00 0.  0.
        -13    1    4    4    0    0 -0.22030079618E+00  0.52300307535E+00  0.25515243848E+01  0.26159828638E+01  0.10500000000E+00 0. -1.
         13    1    4    4    0    0 -0.70046553286E+00  0.16990153388E+01  0.78277137036E+01  0.80412332331E+01  0.10500000000E+00 0.  1.
    3000001    1    5    5    0    0 -0.15341796951E+02 -0.61821140795E+01 -0.59531120575E+02  0.61794365318E+02  0.10000000000E+01 0.  1.
        -13    1    6    6    0    0 -0.10411613690E+00 -0.24907099771E+00  0.29685778074E-01  0.29117482255E+00  0.10500000000E+00 0. -1.
         13    1    6    6    0    0 -0.68520094730E-01 -0.35371403874E+00  0.17591974734E+00  0.41446517597E+00  0.10500000000E+00 0.  1.
</event>
<event>
11    0  0.3476221E-009  0.9118800E+02  0.7816531E-02  0.1126479E+00
         25   -1    0    0    0    0  0.00000000000E+00  0.00000000000E+00  0.99999998245E-14  0.12500000000E+03  0.12500000000E+03 0.  0.
    3000001    1    3    3    0    0  0.26387489546E+02  0.54641103578E+02  0.17312074714E+01  0.60711999506E+02  0.10000000000E+01 0. -1.
    1000022    2    1    0    0    0  0.27382217246E+02  0.55283737658E+02  0.41515969463E+00  0.62499999332E+02  0.10000004410E+02 0.  0.
    3000022    2    3    3    0    0  0.99472769983E+00  0.64263407985E+00 -0.13160477767E+01  0.17879998255E+01  0.24999973606E+00 0.  0.
    1000022    2    1    0    0    0 -0.27382217246E+02 -0.55283737658E+02 -0.41515969463E+00  0.62500000668E+02  0.10000012761E+02 0.  0.
    3000022    2    5    5    0    0 -0.96291598934E+01 -0.28258574056E+02 -0.32211047029E+01  0.30028415545E+02  0.24999331342E+00 0.  0.
        -13    1    4    4    0    0  0.34588621595E+00  0.22897464063E+00 -0.55339477638E+00  0.69952658203E+00  0.10500000000E+00 0.  1.
         13    1    4    4    0    0  0.64884148388E+00  0.41365943922E+00 -0.76265300034E+00  0.10884732435E+01  0.10500000000E+00 0. -1.
    3000001    1    5    5    0    0 -0.17753057353E+02 -0.27025163601E+02  0.28059450083E+01  0.32471585124E+02  0.10000000000E+01 0. -1.
        -13    1    6    6    0    0 -0.27251776317E+01 -0.81262666240E+01 -0.93138182298E+00  0.86221400748E+01  0.10500000000E+00 0. -1.
         13    1    6    6    0    0 -0.69039822617E+01 -0.20132307432E+02 -0.22897228799E+01  0.21406275470E+02  0.10500000000E+00 0.  1.
</event>
<event>
11    0  0.3476221E-009  0.9118800E+02  0.7816531E-02  0.1126479E+00
         25   -1    0    0    0    0  0.00000000000E+00  0.00000000000E+00  0.99999998245E-14  0.12500000000E+03  0.12500000000E+03 0.  0.
    3000001    1    3    3    0    0  0.15144379327E+02 -0.30423912107E+01 -0.46567078804E+01  0.16164569210E+02  0.10000000000E+01 0. -1.
    1000022    2    1    0    0    0  0.52571409402E+02 -0.27225995723E+02 -0.17356326973E+02  0.62499999802E+02  0.99999979838E+01 0.  0.
    3000022    2    3    3    0    0  0.37427030075E+02 -0.24183604512E+02 -0.12699619093E+02  0.46335430592E+02  0.24999118189E+00 0.  0.
    1000022    2    1    0    0    0 -0.52571409402E+02  0.27225995723E+02  0.17356326973E+02  0.62500000198E+02  0.10000000456E+02 0.  0.
    3000022    2    5    5    0    0 -0.46924257631E+02  0.26042441337E+02  0.18008393301E+02  0.56607944987E+02  0.25000277491E+00 0.  0.
        -13    1    4    4    0    0  0.15206836873E+02 -0.98450628503E+01 -0.50988692468E+01  0.18819740774E+02  0.10500000000E+00 0.  1.
         13    1    4    4    0    0  0.22220193202E+02 -0.14338541662E+02 -0.76007498459E+01  0.27515689817E+02  0.10500000000E+00 0. -1.
    3000001    1    5    5    0    0 -0.56471517709E+01  0.11835543860E+01 -0.65206632784E+00  0.58920552105E+01  0.10000000000E+01 0.  1.
        -13    1    6    6    0    0 -0.33108891275E+02  0.18341645338E+02  0.12665683437E+02  0.39912970287E+02  0.10500000000E+00 0.  1.
         13    1    6    6    0    0 -0.13815366356E+02  0.77007959988E+01  0.53427098637E+01  0.16694974701E+02  0.10500000000E+00 0. -1.
</event>
<event>
11    0  0.3476221E-009  0.9118800E+02  0.7816531E-02  0.1126479E+00
         25   -1    0    0    0    0  0.00000000000E+00  0.00000000000E+00  0.99999998245E-14  0.12500000000E+03  0.12500000000E+03 0.  0.
    3000001    1    3    3    0    0 -0.17928093938E+02  0.59391462155E+01  0.22108141551E+02  0.29093984479E+02  0.10000000000E+01 0.  1.
    1000022    2    1    0    0    0 -0.30974997044E+02  0.19927025322E+02  0.49494571639E+02  0.62499994355E+02  0.99999946300E+01 0.  0.
    3000022    2    3    3    0    0 -0.13046903106E+02  0.13987879107E+02  0.27386430088E+02  0.33406009876E+02  0.25000066016E+00 0.  0.
    1000022    2    1    0    0    0  0.30974997044E+02 -0.19927025322E+02 -0.49494571639E+02  0.62500005645E+02  0.10000065192E+02 0.  0.
    3000022    2    5    5    0    0  0.17532813588E+02 -0.77235790862E+01 -0.31814233342E+02  0.37138405570E+02  0.24999777650E+00 0.  0.
        -13    1    4    4    0    0 -0.80556882809E+01  0.85701829629E+01  0.16766956953E+02  0.20481309044E+02  0.10500000000E+00 0. -1.
         13    1    4    4    0    0 -0.49912148254E+01  0.54176961436E+01  0.10619473135E+02  0.12924700832E+02  0.10500000000E+00 0.  1.
    3000001    1    5    5    0    0  0.13442183456E+02 -0.12203446236E+02 -0.17680338296E+02  0.25361600075E+02  0.10000000000E+01 0.  1.
        -13    1    6    6    0    0  0.12302471566E+02 -0.53892117918E+01 -0.22372167972E+02  0.26094431114E+02  0.10500000000E+00 0. -1.
         13    1    6    6    0    0  0.52303420223E+01 -0.23343672944E+01 -0.94420653700E+01  0.11043974456E+02  0.10500000000E+00 0.  1.
</event>
<event>
11    0  0.3476221E-009  0.9118800E+02  0.7816531E-02  0.1126479E+00
         25   -1    0    0    0    0  0.00000000000E+00  0.00000000000E+00  0.99999998245E-14  0.12500000000E+03  0.12500000000E+03 0.  0.
    3000001    1    3    3    0    0  0.22849988682E+02  0.20881145795E+02 -0.19901218126E+02  0.36813078048E+02  0.10000000000E+01 0.  1.
    1000022    2    1    0    0    0  0.36767654129E+02  0.29853919043E+02 -0.39536469723E+02  0.62499994012E+02  0.99999970493E+01 0.  0.
    3000022    2    3    3    0    0  0.13917665447E+02  0.89727732488E+01 -0.19635251597E+02  0.25686915964E+02  0.24995042724E+00 0.  0.
    1000022    2    1    0    0    0 -0.36767654129E+02 -0.29853919043E+02  0.39536469723E+02  0.62500005988E+02  0.10000071899E+02 0.  0.
    3000022    2    5    5    0    0 -0.25802608729E+02 -0.21996889665E+02  0.33576317070E+02  0.47718647765E+02  0.25000870928E+00 0.  0.
        -13    1    4    4    0    0  0.77183206079E+01  0.50511569598E+01 -0.10968307399E+02  0.14331833513E+02  0.10500000000E+00 0. -1.
         13    1    4    4    0    0  0.61993448387E+01  0.39216162890E+01 -0.86669441976E+01  0.11355082451E+02  0.10500000000E+00 0.  1.
    3000001    1    5    5    0    0 -0.10965045401E+02 -0.78570293786E+01  0.59601526523E+01  0.14781358223E+02  0.10000000000E+01 0. -1.
        -13    1    6    6    0    0 -0.14292210560E+02 -0.12260011488E+02  0.18692990865E+02  0.26533263969E+02  0.10500000000E+00 0.  1.
         13    1    6    6    0    0 -0.11510398168E+02 -0.97368781769E+01  0.14883326205E+02  0.21185383795E+02  0.10500000000E+00 0. -1.
</event>
<event>
11    0  0.3476221E-009  0.9118800E+02  0.7816531E-02  0.1126479E+00
         25   -1    0    0    0    0  0.00000000000E+00  0.00000000000E+00  0.99999998245E-14  0.12500000000E+03  0.12500000000E+03 0.  0.
    3000001    1    3    3    0    0  0.50225064242E+02  0.60167578476E+01 -0.30500377501E+02  0.59076488392E+02  0.10000000000E+01 0. -1.
    1000022    2    1    0    0    0  0.51262619371E+02  0.69468548060E+01 -0.33617479865E+02  0.62500000155E+02  0.10000006518E+02 0.  0.
    3000022    2    3    3    0    0  0.10375551293E+01  0.93009695839E+00 -0.31171023645E+01  0.34235117623E+01  0.25000927429E+00 0.  0.
    1000022    2    1    0    0    0 -0.51262619371E+02 -0.69468548060E+01  0.33617479865E+02  0.62499999845E+02  0.10000004585E+02 0.  0.
    3000022    2    5    5    0    0 -0.12211254442E+01  0.13132326389E+01  0.21220941974E+01  0.27895361275E+01  0.25000141920E+00 0.  0.
        -13    1    4    4    0    0  0.26131278708E+00  0.28072573726E+00 -0.91925488832E+00  0.10015716959E+01  0.10500000000E+00 0.  1.
         13    1    4    4    0    0  0.77624234217E+00  0.64937122114E+00 -0.21978474762E+01  0.24219400664E+01  0.10500000000E+00 0. -1.
    3000001    1    5    5    0    0 -0.50041493927E+02 -0.82600874450E+01  0.31495385668E+02  0.59710463718E+02  0.10000000000E+01 0. -1.
        -13    1    6    6    0    0 -0.40547235852E+00  0.48744578518E+00  0.82489904833E+00  0.10457029535E+01  0.10500000000E+00 0. -1.
         13    1    6    6    0    0 -0.81565308572E+00  0.82578685375E+00  0.12971951490E+01  0.17438331740E+01  0.10500000000E+00 0.  1.
</event>
<event>
11    0  0.3476221E-009  0.9118800E+02  0.7816531E-02  0.1126479E+00
         25   -1    0    0    0    0  0.00000000000E+00  0.00000000000E+00  0.99999998245E-14  0.12500000000E+03  0.12500000000E+03 0.  0.
    3000001    1    3    3    0    0  0.37495491811E+02  0.18876428043E+02 -0.11387266119E+02  0.43507485235E+02  0.10000000000E+01 0. -1.
    1000022    2    1    0    0    0  0.53104862068E+02  0.29644271294E+02 -0.10360533431E+02  0.62499998420E+02  0.99999976857E+01 0.  0.
    3000022    2    3    3    0    0  0.15609370256E+02  0.10767843251E+02  0.10267326888E+01  0.18992513184E+02  0.24997792541E+00 0.  0.
    1000022    2    1    0    0    0 -0.53104862068E+02 -0.29644271294E+02  0.10360533431E+02  0.62500001580E+02  0.10000017438E+02 0.  0.
    3000022    2    5    5    0    0 -0.43685895751E+02 -0.25868555184E+02  0.12006153551E+02  0.52171350932E+02  0.25000029939E+00 0.  0.
        -13    1    4    4    0    0  0.52281130382E+01  0.36038881046E+01  0.39766092782E+00  0.63632016018E+01  0.10500000000E+00 0.  1.
         13    1    4    4    0    0  0.10381257218E+02  0.71639551463E+01  0.62907176096E+00  0.12629311583E+02  0.10500000000E+00 0. -1.
    3000001    1    5    5    0    0 -0.94189663171E+01 -0.37757161108E+01 -0.16456201207E+01  0.10328650648E+02  0.10000000000E+01 0.  1.
        -13    1    6    6    0    0 -0.10618948444E+02 -0.63124410623E+01  0.29149151288E+01  0.12693176648E+02  0.10500000000E+00 0. -1.
         13    1    6    6    0    0 -0.33066947306E+02 -0.19556114121E+02  0.90912384225E+01  0.39478174283E+02  0.10500000000E+00 0.  1.
</event>
<event>
11    0  0.3476221E-009  0.9118800E+02  0.7816531E-02  0.1126479E+00
         25   -1    0    0    0    0  0.00000000000E+00  0.00000000000E+00  0.99999998245E-14  0.12500000000E+03  0.12500000000E+03 0.  0.
    3000001    1    3    3    0    0 -0.17208989606E+02  0.21857774243E+02  0.39989893330E+02  0.48724769745E+02  0.10000000000E+01 0. -1.
    1000022    2    1    0    0    0 -0.18505827137E+02  0.24764934182E+02  0.53389921597E+02  0.62499987510E+02  0.99998553747E+01 0.  0.
    3000022    2    3    3    0    0 -0.12968375315E+01  0.29071599386E+01  0.13400028266E+02  0.13775217764E+02  0.25000086114E+00 0.  0.
    1000022    2    1    0    0    0  0.18505827137E+02 -0.24764934182E+02 -0.53389921597E+02  0.62500012490E+02  0.10000011507E+02 0.  0.
    3000022    2    5    5    0    0  0.15345596181E+02 -0.16538987369E+02 -0.44760980630E+02  0.50126173843E+02  0.24998362297E+00 0.  0.
        -13    1    4    4    0    0 -0.95952715363E+00  0.20533049244E+01  0.95867654710E+01  0.98515912759E+01  0.10500000000E+00 0.  1.
         13    1    4    4    0    0 -0.33731037785E+00  0.85385501425E+00  0.38132627953E+01  0.39236264886E+01  0.10500000000E+00 0. -1.
    3000001    1    5    5    0    0  0.31602309564E+01 -0.82259468136E+01 -0.86289409664E+01  0.12373838648E+02  0.10000000000E+01 0.  1.
        -13    1    6    6    0    0  0.90942086624E+01 -0.98698265047E+01 -0.26721614335E+02  0.29902739074E+02  0.10500000000E+00 0.  1.
         13    1    6    6    0    0  0.62513875184E+01 -0.66691608638E+01 -0.18039366295E+02  0.20223434769E+02  0.10500000000E+00 0. -1.
</event>
<event>
11    0  0.3476221E-009  0.9118800E+02  0.7816531E-02  0.1126479E+00
         25   -1    0    0    0    0  0.00000000000E+00  0.00000000000E+00  0.99999998245E-14  0.12500000000E+03  0.12500000000E+03 0.  0.
    3000001    1    3    3    0    0 -0.28895483546E+02 -0.18426115671E+02  0.86287020941E+01  0.35354281324E+02  0.10000000000E+01 0.  1.
    1000022    2    1    0    0    0 -0.54128678181E+02 -0.24550603539E+02  0.16540976723E+02  0.62500000204E+02  0.10000008942E+02 0.  0.
    3000022    2    3    3    0    0 -0.25233194634E+02 -0.61244878679E+01  0.79122746292E+01  0.27145718880E+02  0.25000122794E+00 0.  0.
    1000022    2    1    0    0    0  0.54128678181E+02  0.24550603539E+02 -0.16540976723E+02  0.62499999796E+02  0.10000006390E+02 0.  0.
    3000022    2    5    5    0    0  0.38330710518E+02  0.15004400246E+02 -0.71993928744E+01  0.41788385460E+02  0.25001207528E+00 0.  0.
        -13    1    4    4    0    0 -0.15931482156E+02 -0.38630200426E+01  0.50571253706E+01  0.17155774234E+02  0.10500000000E+00 0. -1.
         13    1    4    4    0    0 -0.93017124782E+01 -0.22614678253E+01  0.28551492586E+01  0.99899446465E+01  0.10500000000E+00 0.  1.
    3000001    1    5    5    0    0  0.15797967662E+02  0.95462032936E+01 -0.93415838490E+01  0.20711614336E+02  0.10000000000E+01 0.  1.
        -13    1    6    6    0    0  0.27926310188E+02  0.10926075321E+02 -0.52815455623E+01  0.30449362409E+02  0.10500000000E+00 0.  1.
         13    1    6    6    0    0  0.10404400331E+02  0.40783249247E+01 -0.19178473121E+01  0.11339023051E+02  0.10500000000E+00 0. -1.
</event>
<event>
11    0  0.3476221E-009  0.9118800E+02  0.7816531E-02  0.1126479E+00
         25   -1    0    0    0    0  0.00000000000E+00  0.00000000000E+00  0.99999998245E-14  0.12500000000E+03  0.12500000000E+03 0.  0.
    3000001    1    3    3    0    0  0.58621364525E+01 -0.24976574943E+02 -0.13331970501E+02  0.28929835415E+02  0.10000000000E+01 0.  1.
    1000022    2    1    0    0    0  0.28757100744E+01 -0.56210568015E+02 -0.25265635348E+02  0.62499999750E+02  0.99999987088E+01 0.  0.
    3000022    2    3    3    0    0 -0.29864263781E+01 -0.31233993071E+02 -0.11933664848E+02  0.33570164335E+02  0.25002216619E+00 0.  0.
    1000022    2    1    0    0    0 -0.28757100744E+01  0.56210568015E+02  0.25265635348E+02  0.62500000250E+02  0.10000001838E+02 0.  0.
    3000022    2    5    5    0    0 -0.34144382637E+01  0.44385429358E+02  0.23941576578E+02  0.50546872461E+02  0.24999721488E+00 0.  0.
        -13    1    4    4    0    0 -0.21611486187E+01 -0.22721338755E+02 -0.86429162185E+01  0.24405753910E+02  0.10500000000E+00 0. -1.
         13    1    4    4    0    0 -0.82527775943E+00 -0.85126543164E+01 -0.32907486290E+01  0.91644104246E+01  0.10500000000E+00 0.  1.
    3000001    1    5    5    0    0  0.53872818935E+00  0.11825138657E+02  0.13240587699E+01  0.11953127789E+02  0.10000000000E+01 0.  1.
        -13    1    6    6    0    0 -0.13681962961E+01  0.17002185650E+02  0.91867999910E+01  0.19374070224E+02  0.10500000000E+00 0.  1.
         13    1    6    6    0    0 -0.20462419676E+01  0.27383243709E+02  0.14754776587E+02  0.31172802237E+02  0.10500000000E+00 0. -1.
</event>
<event>
11    0  0.3476221E-009  0.9118800E+02  0.7816531E-02  0.1126479E+00
         25   -1    0    0    0    0  0.00000000000E+00  0.00000000000E+00  0.99999998245E-14  0.12500000000E+03  0.12500000000E+03 0.  0.
    3000001    1    3    3    0    0 -0.43126553186E+01  0.72259082753E+01 -0.67085321250E+01  0.10808198257E+02  0.10000000000E+01 0. -1.
    1000022    2    1    0    0    0 -0.25504552494E+02  0.24221307600E+02 -0.50686257651E+02  0.62500005590E+02  0.10000002213E+02 0.  0.
    3000022    2    3    3    0    0 -0.21191897175E+02  0.16995399325E+02 -0.43977725526E+02  0.51691807332E+02  0.24999744133E+00 0.  0.
    1000022    2    1    0    0    0  0.25504552494E+02 -0.24221307600E+02  0.50686257651E+02  0.62499994410E+02  0.99999323432E+01 0.  0.
    3000022    2    5    5    0    0  0.12475308909E+02 -0.15378966828E+02  0.35217984187E+02  0.40404391620E+02  0.24999780392E+00 0.  0.
        -13    1    4    4    0    0 -0.96575681159E+01  0.77569733156E+01 -0.19927547448E+02  0.23463960221E+02  0.10500000000E+00 0.  1.
         13    1    4    4    0    0 -0.11534329059E+02  0.92384260093E+01 -0.24050178078E+02  0.28227847112E+02  0.10500000000E+00 0. -1.
    3000001    1    5    5    0    0  0.13029243585E+02 -0.88423407718E+01  0.15468273464E+02  0.22095602791E+02  0.10000000000E+01 0.  1.
        -13    1    6    6    0    0  0.73418073341E+01 -0.91421029334E+01  0.20796018199E+02  0.23873951891E+02  0.10500000000E+00 0.  1.
         13    1    6    6    0    0  0.51335015749E+01 -0.62368638950E+01  0.14421965988E+02  0.16530439728E+02  0.10500000000E+00 0. -1.
</event>
<event>
11    0  0.3476221E-009  0.9118800E+02  0.7816531E-02  0.1126479E+00
         25   -1    0    0    0    0  0.00000000000E+00  0.00000000000E+00  0.99999998245E-14  0.12500000000E+03  0.12500000000E+03 0.  0.
    3000001    1    3    3    0    0  0.14922188128E+02 -0.13259394761E+02 -0.17010918277E+02  0.26246039484E+02  0.10000000000E+01 0.  1.
    1000022    2    1    0    0    0  0.28791827951E+02 -0.25873500469E+02 -0.48040010357E+02  0.62499999624E+02  0.99999987330E+01 0.  0.
    3000022    2    3    3    0    0  0.13869639823E+02 -0.12614105708E+02 -0.31029092080E+02  0.36253960141E+02  0.24999786962E+00 0.  0.
    1000022    2    1    0    0    0 -0.28791827951E+02  0.25873500469E+02  0.48040010357E+02  0.62500000376E+02  0.10000003428E+02 0.  0.
    3000022    2    5    5    0    0 -0.18225575461E+02  0.97779273368E+01  0.23983247237E+02  0.31670776935E+02  0.24999947078E+00 0.  0.
        -13    1    4    4    0    0  0.36849122564E+01 -0.33406528417E+01 -0.81692754274E+01  0.95648641263E+01  0.10500000000E+00 0.  1.
         13    1    4    4    0    0  0.10184727567E+02 -0.92734528666E+01 -0.22859816653E+02  0.26689096014E+02  0.10500000000E+00 0. -1.
    3000001    1    5    5    0    0 -0.10566252490E+02  0.16095573133E+02  0.24056763120E+02  0.30829223441E+02  0.10000000000E+01 0.  1.
        -13    1    6    6    0    0 -0.65385563856E+01  0.34759464834E+01  0.85098620706E+01  0.11281121444E+02  0.10500000000E+00 0.  1.
         13    1    6    6    0    0 -0.11687019076E+02  0.63019808534E+01  0.15473385166E+02  0.20389655491E+02  0.10500000000E+00 0. -1.
</event>
<event>
11    0  0.3476221E-009  0.9118800E+02  0.7816531E-02  0.1126479E+00
         25   -1    0    0    0    0  0.00000000000E+00  0.00000000000E+00  0.99999998245E-14  0.12500000000E+03  0.12500000000E+03 0.  0.
    3000001    1    3    3    0    0 -0.20810731888E+02  0.23871170307E+02  0.15975072224E+02  0.35484112869E+02  0.10000000000E+01 0.  1.
    1000022    2    1    0    0    0 -0.30065323173E+02  0.47199789450E+02  0.25971257880E+02  0.62500000160E+02  0.10000000127E+02 0.  0.
    3000022    2    3    3    0    0 -0.92545912845E+01  0.23328619143E+02  0.99961856564E+01  0.27015887291E+02  0.25001496182E+00 0.  0.
    1000022    2    1    0    0    0  0.30065323173E+02 -0.47199789450E+02 -0.25971257880E+02  0.62499999840E+02  0.99999981212E+01 0.  0.
    3000022    2    5    5    0    0  0.29502766040E+02 -0.45225692795E+02 -0.26508550858E+02  0.60154320433E+02  0.25001080213E+00 0.  0.
        -13    1    4    4    0    0 -0.26369143892E+01  0.65756712248E+01  0.27888898712E+01  0.76145716403E+01  0.10500000000E+00 0.  1.
         13    1    4    4    0    0 -0.66176768953E+01  0.16752947919E+02  0.72072957852E+01  0.19401315651E+02  0.10500000000E+00 0. -1.
    3000001    1    5    5    0    0  0.56255713338E+00 -0.19740966557E+01  0.53729297820E+00  0.23456794066E+01  0.10000000000E+01 0.  1.
        -13    1    6    6    0    0  0.14455145956E+02 -0.22267409574E+02 -0.12996326158E+02  0.29558489345E+02  0.10500000000E+00 0. -1.
         13    1    6    6    0    0  0.15047620084E+02 -0.22958283221E+02 -0.13512224700E+02  0.30595831088E+02  0.10500000000E+00 0.  1.
</event>
<event>
11    0  0.3476221E-009  0.9118800E+02  0.7816531E-02  0.1126479E+00
         25   -1    0    0    0    0  0.00000000000E+00  0.00000000000E+00  0.99999998245E-14  0.12500000000E+03  0.12500000000E+03 0.  0.
    3000001    1    3    3    0    0 -0.17091248314E+02 -0.13991660709E+02  0.33588421682E+01  0.22364238396E+02  0.10000000000E+01 0. -1.
    1000022    2    1    0    0    0 -0.54447823735E+02 -0.27756882492E+02  0.84403683200E+01  0.62500001366E+02  0.10000015915E+02 0.  0.
    3000022    2    3    3    0    0 -0.37356575421E+02 -0.13765221783E+02  0.50815261518E+01  0.40135762970E+02  0.25000656102E+00 0.  0.
    1000022    2    1    0    0    0  0.54447823735E+02  0.27756882492E+02 -0.84403683200E+01  0.62499998634E+02  0.99999988351E+01 0.  0.
    3000022    2    5    5    0    0  0.35119326327E+02  0.13576901781E+02 -0.80488063021E+01  0.38503832569E+02  0.24999191181E+00 0.  0.
        -13    1    4    4    0    0 -0.12164708695E+02 -0.45181809935E+01  0.16964808178E+01  0.13087519600E+02  0.10500000000E+00 0.  1.
         13    1    4    4    0    0 -0.25191866726E+02 -0.92470407896E+01  0.33850453340E+01  0.27048243370E+02  0.10500000000E+00 0. -1.
    3000001    1    5    5    0    0  0.19328497408E+02  0.14179980711E+02 -0.39156201785E+00  0.23996166065E+02  0.10000000000E+01 0.  1.
        -13    1    6    6    0    0  0.26828085260E+02  0.10356855707E+02 -0.61554612044E+01  0.29409375146E+02  0.10500000000E+00 0. -1.
         13    1    6    6    0    0  0.82912410669E+01  0.32200460746E+01 -0.18933450977E+01  0.90944574226E+01  0.10500000000E+00 0.  1.
</event>
<event>
11    0  0.3476221E-009  0.9118800E+02  0.7816531E-02  0.1126479E+00
         25   -1    0    0    0    0  0.00000000000E+00  0.00000000000E+00  0.99999998245E-14  0.12500000000E+03  0.12500000000E+03 0.  0.
    3000001    1    3    3    0    0 -0.15346473557E+02  0.16306592427E+02  0.17274430489E+01  0.22481175831E+02  0.10000000000E+01 0.  1.
    1000022    2    1    0    0    0 -0.31761753482E+02  0.52496009465E+02  0.64505925215E+01  0.62499995945E+02  0.99999677640E+01 0.  0.
    3000022    2    3    3    0    0 -0.16415279925E+02  0.36189417038E+02  0.47231494726E+01  0.40018820115E+02  0.25000380319E+00 0.  0.
    1000022    2    1    0    0    0  0.31761753482E+02 -0.52496009465E+02 -0.64505925215E+01  0.62500004055E+02  0.10000018449E+02 0.  0.
    3000022    2    5    5    0    0  0.20771175964E+02 -0.36891672095E+02 -0.88025569946E+01  0.43243320129E+02  0.25001050308E+00 0.  0.
        -13    1    4    4    0    0 -0.11263276039E+02  0.24940366359E+02  0.32712094017E+01  0.27560752842E+02  0.10500000000E+00 0. -1.
         13    1    4    4    0    0 -0.51520038859E+01  0.11249050678E+02  0.14519400709E+01  0.12458067273E+02  0.10500000000E+00 0.  1.
    3000001    1    5    5    0    0  0.10990577518E+02 -0.15604337370E+02  0.23519644731E+01  0.19256683926E+02  0.10000000000E+01 0. -1.
        -13    1    6    6    0    0  0.61622262739E+01 -0.10902082851E+02 -0.25635033383E+01  0.12783231888E+02  0.10500000000E+00 0.  1.
         13    1    6    6    0    0  0.14608949690E+02 -0.25989589244E+02 -0.62390536563E+01  0.30460088241E+02  0.10500000000E+00 0. -1.
</event>
<event>
11    0  0.3476221E-009  0.9118800E+02  0.7816531E-02  0.1126479E+00
         25   -1    0    0    0    0  0.00000000000E+00  0.00000000000E+00  0.99999998245E-14  0.12500000000E+03  0.12500000000E+03 0.  0.
    3000001    1    3    3    0    0  0.73989935619E+01  0.12727217953E+01 -0.41647035187E+02  0.42330136621E+02  0.10000000000E+01 0. -1.
    1000022    2    1    0    0    0  0.13738864123E+02  0.78355936972E+01 -0.59633020024E+02  0.62500000229E+02  0.10000001774E+02 0.  0.
    3000022    2    3    3    0    0  0.63398705606E+01  0.65628719019E+01 -0.17985984837E+02  0.20169863608E+02  0.25000215953E+00 0.  0.
    1000022    2    1    0    0    0 -0.13738864123E+02 -0.78355936972E+01  0.59633020024E+02  0.62499999771E+02  0.99999989140E+01 0.  0.
    3000022    2    5    5    0    0 -0.14111744260E+02 -0.43783834443E+01  0.42701374788E+02  0.45186076105E+02  0.24999464708E+00 0.  0.
        -13    1    4    4    0    0  0.16517600495E+01  0.17564126483E+01 -0.47751326351E+01  0.53503470294E+01  0.10500000000E+00 0. -1.
         13    1    4    4    0    0  0.46881105111E+01  0.48064592535E+01 -0.13210852202E+02  0.14819516579E+02  0.10500000000E+00 0.  1.
    3000001    1    5    5    0    0  0.37288013784E+00 -0.34572102529E+01  0.16931645236E+02  0.17313923666E+02  0.10000000000E+01 0. -1.
        -13    1    6    6    0    0 -0.56774565598E+01 -0.17313474627E+01  0.17327078503E+02  0.18315833355E+02  0.10500000000E+00 0.  1.
         13    1    6    6    0    0 -0.84342877006E+01 -0.26470359816E+01  0.25374296285E+02  0.26870242750E+02  0.10500000000E+00 0. -1.
</event>
<event>
11    0  0.3476221E-009  0.9118800E+02  0.7816531E-02  0.1126479E+00
         25   -1    0    0    0    0  0.00000000000E+00  0.00000000000E+00  0.99999998245E-14  0.12500000000E+03  0.12500000000E+03 0.  0.
    3000001    1    3    3    0    0  0.11081465112E+02  0.15502771444E+02  0.43559019205E+02  0.47555472299E+02  0.10000000000E+01 0. -1.
    1000022    2    1    0    0    0  0.10841550248E+02  0.16427639283E+02  0.58470876629E+02  0.62500000666E+02  0.10000006270E+02 0.  0.
    3000022    2    3    3    0    0 -0.23991486429E+00  0.92486783867E+00  0.14911857424E+02  0.14944528368E+02  0.24999327871E+00 0.  0.
    1000022    2    1    0    0    0 -0.10841550248E+02 -0.16427639283E+02 -0.58470876629E+02  0.62499999334E+02  0.99999979397E+01 0.  0.
    3000022    2    5    5    0    0 -0.80374448298E+01 -0.12521916152E+02 -0.53424487151E+02  0.55458427980E+02  0.25000624728E+00 0.  0.
        -13    1    4    4    0    0 -0.16357788600E+00  0.70602649992E+00  0.10781139349E+02  0.10805980835E+02  0.10500000000E+00 0. -1.
         13    1    4    4    0    0 -0.76336978289E-01  0.21884133876E+00  0.41307180747E+01  0.41385475324E+01  0.10500000000E+00 0.  1.
    3000001    1    5    5    0    0 -0.28041054180E+01 -0.39057231312E+01 -0.50463894777E+01  0.70415713540E+01  0.10000000000E+01 0.  1.
        -13    1    6    6    0    0 -0.21264347505E+01 -0.33092594165E+01 -0.14252067311E+02  0.14785309272E+02  0.10500000000E+00 0. -1.
         13    1    6    6    0    0 -0.59110100793E+01 -0.92126567351E+01 -0.39172419840E+02  0.40673118707E+02  0.10500000000E+00 0.  1.
</event>
<event>
11    0  0.3476221E-009  0.9118800E+02  0.7816531E-02  0.1126479E+00
         25   -1    0    0    0    0  0.00000000000E+00  0.00000000000E+00  0.99999998245E-14  0.12500000000E+03  0.12500000000E+03 0.  0.
    3000001    1    3    3    0    0  0.14698444369E+01 -0.13646952206E+01  0.18536983081E+01  0.29084417015E+01  0.10000000000E+01 0. -1.
    1000022    2    1    0    0    0  0.42457613769E+02 -0.44547285731E+02  0.43750027339E+01  0.62499991765E+02  0.99999344404E+01 0.  0.
    3000022    2    3    3    0    0  0.40987769332E+02 -0.43182590510E+02  0.25213044258E+01  0.59591550064E+02  0.25001002210E+00 0.  0.
    1000022    2    1    0    0    0 -0.42457613769E+02  0.44547285731E+02 -0.43750027339E+01  0.62500008235E+02  0.10000037377E+02 0.  0.
    3000022    2    5    5    0    0 -0.20487981968E+02  0.28502595949E+02 -0.16662723038E+01  0.35142486194E+02  0.24998316603E+00 0.  0.
        -13    1    4    4    0    0  0.19242664750E+02 -0.20325929461E+02  0.11285014846E+01  0.28012641713E+02  0.10500000000E+00 0.  1.
         13    1    4    4    0    0  0.21745104582E+02 -0.22856661049E+02  0.13928029412E+01  0.31578908350E+02  0.10500000000E+00 0. -1.
    3000001    1    5    5    0    0 -0.21969631801E+02  0.16044689781E+02 -0.27087304301E+01  0.27357522040E+02  0.10000000000E+01 0.  1.
        -13    1    6    6    0    0 -0.53718242028E+01  0.74735212330E+01 -0.46957823388E+00  0.92163736688E+01  0.10500000000E+00 0.  1.
         13    1    6    6    0    0 -0.15116157765E+02  0.21029074716E+02 -0.11966940699E+01  0.25926112526E+02  0.10500000000E+00 0. -1.
</event>
<event>
11    0  0.3476221E-009  0.9118800E+02  0.7816531E-02  0.1126479E+00
         25   -1    0    0    0    0  0.00000000000E+00  0.00000000000E+00  0.99999998245E-14  0.12500000000E+03  0.12500000000E+03 0.  0.
    3000001    1    3    3    0    0  0.10925504609E+01 -0.61419113014E+01 -0.33092178611E+01  0.71321570227E+01  0.10000000000E+01 0. -1.
    1000022    2    1    0    0    0 -0.15623790490E+02 -0.55964278423E+02 -0.20739976208E+02  0.62500001074E+02  0.10000011623E+02 0.  0.
    3000022    2    3    3    0    0 -0.16716340951E+02 -0.49822367121E+02 -0.17430758347E+02  0.55367844051E+02  0.24999591724E+00 0.  0.
    1000022    2    1    0    0    0  0.15623790490E+02  0.55964278423E+02  0.20739976208E+02  0.62499998926E+02  0.99999981984E+01 0.  0.
    3000022    2    5    5    0    0  0.42595911515E+01  0.32304716236E+02  0.13349261068E+02  0.35213691375E+02  0.24996266911E+00 0.  0.
        -13    1    4    4    0    0 -0.12161923390E+02 -0.36312998271E+02 -0.12670328425E+02  0.40337259096E+02  0.10500000000E+00 0. -1.
         13    1    4    4    0    0 -0.45544175610E+01 -0.13509368850E+02 -0.47604299224E+01  0.15030584955E+02  0.10500000000E+00 0.  1.
    3000001    1    5    5    0    0  0.11364199338E+02  0.23659562187E+02  0.73907151400E+01  0.27286307551E+02  0.10000000000E+01 0. -1.
        -13    1    6    6    0    0  0.11772999589E+01  0.91750942378E+01  0.37625247493E+01  0.99867916247E+01  0.10500000000E+00 0. -1.
         13    1    6    6    0    0  0.30822911926E+01  0.23129621998E+02  0.95867363189E+01  0.25226899750E+02  0.10500000000E+00 0.  1.
</event>
<event>
11    0  0.3476221E-009  0.9118800E+02  0.7816531E-02  0.1126479E+00
         25   -1    0    0    0    0  0.00000000000E+00  0.00000000000E+00  0.99999998245E-14  0.12500000000E+03  0.12500000000E+03 0.  0.
    3000001    1    3    3    0    0  0.55102037546E+02 -0.14303557417E+02 -0.52118411234E+01  0.57175078350E+02  0.10000000000E+01 0. -1.
    1000022    2    1    0    0    0  0.58790442763E+02 -0.18103320387E+02 -0.47120793955E+01  0.62500000124E+02  0.99999976972E+01 0.  0.
    3000022    2    3    3    0    0  0.36884052174E+01 -0.37997629703E+01  0.49976172788E+00  0.53249217737E+01  0.24999686631E+00 0.  0.
    1000022    2    1    0    0    0 -0.58790442763E+02  0.18103320387E+02  0.47120793955E+01  0.62499999876E+02  0.99999961460E+01 0.  0.
    3000022    2    5    5    0    0 -0.20462191029E+01  0.91427843094E+00 -0.17437497974E+01  0.28506259249E+01  0.24997428067E+00 0.  0.
        -13    1    4    4    0    0  0.27899188651E+01 -0.28386460185E+01  0.36891924858E+00  0.39985853629E+01  0.10500000000E+00 0.  1.
         13    1    4    4    0    0  0.89848635233E+00 -0.96111695172E+00  0.13084247930E+00  0.13263364108E+01  0.10500000000E+00 0. -1.
    3000001    1    5    5    0    0 -0.56744223660E+02  0.17189041956E+02  0.64558291930E+01  0.59649373951E+02  0.10000000000E+01 0. -1.
        -13    1    6    6    0    0 -0.99789261209E+00  0.40811874359E+00 -0.91236971259E+00  0.14162605928E+01  0.10500000000E+00 0.  1.
         13    1    6    6    0    0 -0.10483264909E+01  0.50615968735E+00 -0.83138008483E+00  0.14343653321E+01  0.10500000000E+00 0. -1.
</event>
<event>
11    0  0.3476221E-009  0.9118800E+02  0.7816531E-02  0.1126479E+00
         25   -1    0    0    0    0  0.00000000000E+00  0.00000000000E+00  0.99999998245E-14  0.12500000000E+03  0.12500000000E+03 0.  0.
    3000001    1    3    3    0    0  0.31387386899E+01 -0.19063770776E+02 -0.34504507907E+02  0.39558059895E+02  0.10000000000E+01 0.  1.
    1000022    2    1    0    0    0 -0.13222230405E+01 -0.33368772640E+02 -0.51875092526E+02  0.62500007619E+02  0.10000123330E+02 0.  0.
    3000022    2    3    3    0    0 -0.44609617304E+01 -0.14305001864E+02 -0.17370584618E+02  0.22941947724E+02  0.24999499742E+00 0.  0.
    1000022    2    1    0    0    0  0.13222230405E+01  0.33368772640E+02  0.51875092526E+02  0.62499992381E+02  0.10000028091E+02 0.  0.
    3000022    2    5    5    0    0 -0.10650095008E+01  0.75628613183E+01  0.19977816613E+02  0.21389407990E+02  0.25000194922E+00 0.  0.
        -13    1    4    4    0    0 -0.22514989302E+01 -0.71620835870E+01 -0.88035652785E+01  0.11570586647E+02  0.10500000000E+00 0.  1.
         13    1    4    4    0    0 -0.22094628002E+01 -0.71429182769E+01 -0.85670193400E+01  0.11371361077E+02  0.10500000000E+00 0. -1.
    3000001    1    5    5    0    0  0.23872325413E+01  0.25805911321E+02  0.31897275913E+02  0.41110584391E+02  0.10000000000E+01 0.  1.
        -13    1    6    6    0    0 -0.38770311938E+00  0.27520814078E+01  0.71085189600E+01  0.76332386697E+01  0.10500000000E+00 0. -1.
         13    1    6    6    0    0 -0.67730638140E+00  0.48107799104E+01  0.12869297653E+02  0.13756169320E+02  0.10500000000E+00 0.  1.
</event>
<event>
11    0  0.3476221E-009  0.9118800E+02  0.7816531E-02  0.1126479E+00
         25   -1    0    0    0    0  0.00000000000E+00  0.00000000000E+00  0.99999998245E-14  0.12500000000E+03  0.12500000000E+03 0.  0.
    3000001    1    3    3    0    0  0.38401484004E+02 -0.51568430287E+01 -0.44834683718E+02  0.59265638171E+02  0.10000000000E+01 0.  1.
    1000022    2    1    0    0    0  0.40696092937E+02 -0.33838459317E+01 -0.46245299276E+02  0.62499998703E+02  0.99999869547E+01 0.  0.
    3000022    2    3    3    0    0  0.22946089332E+01  0.17729970970E+01 -0.14106155576E+01  0.32343605315E+01  0.25000586843E+00 0.  0.
    1000022    2    1    0    0    0 -0.40696092937E+02  0.33838459317E+01  0.46245299276E+02  0.62500001297E+02  0.10000003169E+02 0.  0.
    3000022    2    5    5    0    0 -0.29420502008E+02  0.31188156798E+01  0.39388821376E+02  0.49262913966E+02  0.24998663193E+00 0.  0.
        -13    1    4    4    0    0  0.15429894242E+01  0.12323591542E+01 -0.10025314741E+01  0.22171197092E+01  0.10500000000E+00 0. -1.
         13    1    4    4    0    0  0.75161950896E+00  0.54063794286E+00 -0.40808408347E+00  0.10172408224E+01  0.10500000000E+00 0.  1.
    3000001    1    5    5    0    0 -0.11275590929E+02  0.26503025188E+00  0.68564778996E+01  0.13237087332E+02  0.10000000000E+01 0. -1.
        -13    1    6    6    0    0 -0.76200301192E+01  0.77679275019E+00  0.10204812869E+02  0.12759995951E+02  0.10500000000E+00 0.  1.
         13    1    6    6    0    0 -0.21800471889E+02  0.23420229296E+01  0.29184008508E+02  0.36502918014E+02  0.10500000000E+00 0. -1.
</event>
<event>
11    0  0.3476221E-009  0.9118800E+02  0.7816531E-02  0.1126479E+00
         25   -1    0    0    0    0  0.00000000000E+00  0.00000000000E+00  0.99999998245E-14  0.12500000000E+03  0.12500000000E+03 0.  0.
    3000001    1    3    3    0    0  0.34880817729E+02 -0.34749010044E+02  0.34897008832E+02  0.60356991061E+02  0.10000000000E+01 0. -1.
    1000022    2    1    0    0    0  0.34550977729E+02 -0.35357523452E+02  0.36909694217E+02  0.62499999556E+02  0.99999945281E+01 0.  0.
    3000022    2    3    3    0    0 -0.32984000000E+00 -0.60851340763E+00  0.20126853850E+01  0.21430084946E+01  0.24999991231E+00 0.  0.
    1000022    2    1    0    0    0 -0.34550977729E+02  0.35357523452E+02 -0.36909694217E+02  0.62500000444E+02  0.10000000084E+02 0.  0.
    3000022    2    5    5    0    0 -0.21651956862E+02  0.27369670001E+02 -0.28913714258E+02  0.45320761881E+02  0.25002686970E+00 0.  0.
        -13    1    4    4    0    0 -0.14151527830E+00 -0.39144241875E+00  0.12204514375E+01  0.12937466725E+01  0.10500000000E+00 0.  1.
         13    1    4    4    0    0 -0.18832472170E+00 -0.21707098888E+00  0.79223394745E+00  0.84926182212E+00  0.10500000000E+00 0. -1.
    3000001    1    5    5    0    0 -0.12899020868E+02  0.79878534508E+01 -0.79959799593E+01  0.17179238563E+02  0.10000000000E+01 0.  1.
        -13    1    6    6    0    0 -0.10063729741E+02  0.12637187941E+02 -0.13439372516E+02  0.21014398254E+02  0.10500000000E+00 0.  1.
         13    1    6    6    0    0 -0.11588227121E+02  0.14732482059E+02 -0.15474341742E+02  0.24306363627E+02  0.10500000000E+00 0. -1.
</event>
<event>
11    0  0.3476221E-009  0.9118800E+02  0.7816531E-02  0.1126479E+00
         25   -1    0    0    0    0  0.00000000000E+00  0.00000000000E+00  0.99999998245E-14  0.12500000000E+03  0.12500000000E+03 0.  0.
    3000001    1    3    3    0    0  0.29749128746E+01 -0.22178814969E+01 -0.20889496563E+01  0.43741074075E+01  0.10000000000E+01 0.  1.
    1000022    2    1    0    0    0  0.18292472487E+02 -0.54195125027E+02 -0.23119771881E+02  0.62500000588E+02  0.10000004769E+02 0.  0.
    3000022    2    3    3    0    0  0.15317559612E+02 -0.51977243530E+02 -0.21030822225E+02  0.58125893181E+02  0.24999441152E+00 0.  0.
    1000022    2    1    0    0    0 -0.18292472487E+02  0.54195125027E+02  0.23119771881E+02  0.62499999412E+02  0.99999974132E+01 0.  0.
    3000022    2    5    5    0    0 -0.11963470307E+02  0.26351175294E+02  0.73261585007E+01  0.29853712810E+02  0.25001791868E+00 0.  0.
        -13    1    4    4    0    0  0.10897390281E+02 -0.37038257746E+02 -0.15025633188E+02  0.41429051757E+02  0.10500000000E+00 0. -1.
         13    1    4    4    0    0  0.44201693312E+01 -0.14938985784E+02 -0.60051890372E+01  0.16696841424E+02  0.10500000000E+00 0.  1.
    3000001    1    5    5    0    0 -0.63290021802E+01  0.27843949732E+02  0.15793613381E+02  0.32646286602E+02  0.10000000000E+01 0. -1.
        -13    1    6    6    0    0 -0.67377417152E+01  0.14786543930E+02  0.40493882955E+01  0.16746570258E+02  0.10500000000E+00 0. -1.
         13    1    6    6    0    0 -0.52257285914E+01  0.11564631364E+02  0.32767702052E+01  0.13107142552E+02  0.10500000000E+00 0.  1.
</event>
<event>
11    0  0.3476221E-009  0.9118800E+02  0.7816531E-02  0.1126479E+00
         25   -1    0    0    0    0  0.00000000000E+00  0.00000000000E+00  0.99999998245E-14  0.12500000000E+03  0.12500000000E+03 0.  0.
    3000001    1    3    3    0    0  0.14469744612E+01 -0.80520185933E+01  0.40666532059E+00  0.82519158504E+01  0.10000000000E+01 0.  1.
    1000022    2    1    0    0    0 -0.10533056751E+02 -0.58921367135E+02  0.14952482713E+02  0.62500004041E+02  0.10000048812E+02 0.  0.
    3000022    2    3    3    0    0 -0.11980031212E+02 -0.50869348541E+02  0.14545817393E+02  0.54248088190E+02  0.24999962091E+00 0.  0.
    1000022    2    1    0    0    0  0.10533056751E+02  0.58921367135E+02 -0.14952482713E+02  0.62499995959E+02  0.99999983035E+01 0.  0.
    3000022    2    5    5    0    0  0.12455734066E+01  0.31452244925E+01  0.13396362311E+01  0.36470557216E+01  0.24999997115E+00 0.  0.
        -13    1    4    4    0    0 -0.31865806551E+01 -0.13663034245E+02  0.39238232470E+01  0.14568466457E+02  0.10500000000E+00 0.  1.
         13    1    4    4    0    0 -0.87934505571E+01 -0.37206314297E+02  0.10621994146E+02  0.39679621733E+02  0.10500000000E+00 0. -1.
    3000001    1    5    5    0    0  0.92874833443E+01  0.55776142642E+02 -0.16292118944E+02  0.58852940238E+02  0.10000000000E+01 0. -1.
        -13    1    6    6    0    0  0.92357247782E+00  0.22384497134E+01  0.98170454131E+00  0.26150357641E+01  0.10500000000E+00 0.  1.
         13    1    6    6    0    0  0.32200092879E+00  0.90677477908E+00  0.35793168975E+00  0.10320199575E+01  0.10500000000E+00 0. -1.
</event>
<event>
11    0  0.3476221E-009  0.9118800E+02  0.7816531E-02  0.1126479E+00
         25   -1    0    0    0    0  0.00000000000E+00  0.00000000000E+00  0.99999998245E-14  0.12500000000E+03  0.12500000000E+03 0.  0.
    3000001    1    3    3    0    0  0.26064093306E+01 -0.16741559937E+01 -0.52553553806E+00  0.32973255059E+01  0.10000000000E+01 0. -1.
    1000022    2    1    0    0    0  0.34790576789E+02 -0.24819695666E+02 -0.44495492785E+02  0.62499996742E+02  0.99999594136E+01 0.  0.
    3000022    2    3    3    0    0  0.32184167459E+02 -0.23145539673E+02 -0.43969957247E+02  0.59202671236E+02  0.24999890161E+00 0.  0.
    1000022    2    1    0    0    0 -0.34790576789E+02  0.24819695666E+02  0.44495492785E+02  0.62500003258E+02  0.10000000136E+02 0.  0.
    3000022    2    5    5    0    0 -0.40326996178E+01  0.52443354134E+01  0.11739757493E+02  0.13477764104E+02  0.24999821460E+00 0.  0.
        -13    1    4    4    0    0  0.15041296182E+02 -0.10898272464E+02 -0.20581240687E+02  0.27723842208E+02  0.10500000000E+00 0. -1.
         13    1    4    4    0    0  0.17142871277E+02 -0.12247267209E+02 -0.23388716560E+02  0.31478829028E+02  0.10500000000E+00 0.  1.
    3000001    1    5    5    0    0 -0.30757877171E+02  0.19575360253E+02  0.32755735292E+02  0.49022239154E+02  0.10000000000E+01 0.  1.
        -13    1    6    6    0    0 -0.17653695798E+01  0.23995232588E+01  0.52430343118E+01  0.60311421321E+01  0.10500000000E+00 0.  1.
         13    1    6    6    0    0 -0.22673300381E+01  0.28448121546E+01  0.64967231815E+01  0.74466219720E+01  0.10500000000E+00 0. -1.
</event>
<event>
11    0  0.3476221E-009  0.9118800E+02  0.7816531E-02  0.1126479E+00
         25   -1    0    0    0    0  0.00000000000E+00  0.00000000000E+00  0.99999998245E-14  0.12500000000E+03  0.12500000000E+03 0.  0.
    3000001    1    3    3    0    0  0.43300204877E+02 -0.24530714624E+02  0.46109717555E+01  0.49989246473E+02  0.10000000000E+01 0. -1.
    1000022    2    1    0    0    0  0.50941837803E+02 -0.34418546820E+02  0.51519446016E+01  0.62499998559E+02  0.10000004135E+02 0.  0.
    3000022    2    3    3    0    0  0.76416329259E+01 -0.98878321959E+01  0.54097284607E+00  0.12510752086E+02  0.24997365569E+00 0.  0.
    1000022    2    1    0    0    0 -0.50941837803E+02  0.34418546820E+02 -0.51519446016E+01  0.62500001441E+02  0.10000022152E+02 0.  0.
    3000022    2    5    5    0    0 -0.41376191086E+02  0.23163500772E+02 -0.27239282706E+01  0.47497570906E+02  0.24999993084E+00 0.  0.
        -13    1    4    4    0    0  0.26087195367E+01 -0.34453060359E+01  0.22306740296E+00  0.43285488756E+01  0.10500000000E+00 0. -1.
         13    1    4    4    0    0  0.50329133892E+01 -0.64425261600E+01  0.31790544311E+00  0.81822032104E+01  0.10500000000E+00 0.  1.
    3000001    1    5    5    0    0 -0.95656467174E+01  0.11255046048E+02 -0.24280163310E+01  0.15002430535E+02  0.10000000000E+01 0.  1.
        -13    1    6    6    0    0 -0.18159106354E+02  0.10102866475E+02 -0.11571618613E+01  0.20812762987E+02  0.10500000000E+00 0. -1.
         13    1    6    6    0    0 -0.23217084732E+02  0.13060634296E+02 -0.15667664093E+01  0.26684807919E+02  0.10500000000E+00 0.  1.
</event>
<event>
11    0  0.3476221E-009  0.9118800E+02  0.7816531E-02  0.1126479E+00
         25   -1    0    0    0    0  0.00000000000E+00  0.00000000000E+00  0.99999998245E-14  0.12500000000E+03  0.12500000000E+03 0.  0.
    3000001    1    3    3    0    0 -0.14820722379E+02  0.14748263384E+02 -0.13134276341E+02  0.24711825098E+02  0.10000000000E+01 0. -1.
    1000022    2    1    0    0    0 -0.27644442192E+02  0.37514082906E+02 -0.40431773884E+02  0.62500000498E+02  0.10000006121E+02 0.  0.
    3000022    2    3    3    0    0 -0.12823719814E+02  0.22765819522E+02 -0.27297497543E+02  0.37788175400E+02  0.24999914429E+00 0.  0.
    1000022    2    1    0    0    0  0.27644442192E+02 -0.37514082906E+02  0.40431773884E+02  0.62499999502E+02  0.99999998968E+01 0.  0.
    3000022    2    5    5    0    0  0.22125200819E+02 -0.30157756597E+02  0.26753720823E+02  0.45987377129E+02  0.24996610333E+00 0.  0.
        -13    1    4    4    0    0 -0.54576898912E+01  0.97768084439E+01 -0.11626576105E+02  0.16141891439E+02  0.10500000000E+00 0.  1.
         13    1    4    4    0    0 -0.73660299225E+01  0.12989011078E+02 -0.15670921438E+02  0.21646283961E+02  0.10500000000E+00 0. -1.
    3000001    1    5    5    0    0  0.55192413731E+01 -0.73563263086E+01  0.13678053061E+02  0.16512622373E+02  0.10000000000E+01 0. -1.
        -13    1    6    6    0    0  0.13653929153E+02 -0.18713797457E+02  0.16566045497E+02  0.28479481824E+02  0.10500000000E+00 0. -1.
         13    1    6    6    0    0  0.84712716666E+01 -0.11443959140E+02  0.10187675326E+02  0.17507895305E+02  0.10500000000E+00 0.  1.
</event>
<event>
11    0  0.3476221E-009  0.9118800E+02  0.7816531E-02  0.1126479E+00
         25   -1    0    0    0    0  0.00000000000E+00  0.00000000000E+00  0.99999998245E-14  0.12500000000E+03  0.12500000000E+03 0.  0.
    3000001    1    3    3    0    0 -0.18782503121E+02  0.16526809452E+02 -0.60641380389E+01  0.25762213110E+02  0.10000000000E+01 0.  1.
    1000022    2    1    0    0    0 -0.43682265774E+02  0.35419092841E+02 -0.25369217279E+02  0.62500002113E+02  0.10000029896E+02 0.  0.
    3000022    2    3    3    0    0 -0.24899762653E+02  0.18892283388E+02 -0.19305079240E+02  0.36737789003E+02  0.25000906914E+00 0.  0.
    1000022    2    1    0    0    0  0.43682265774E+02 -0.35419092841E+02  0.25369217279E+02  0.62499997887E+02  0.10000003487E+02 0.  0.
    3000022    2    5    5    0    0  0.26001319711E+02 -0.18859179447E+02  0.94032857680E+01  0.33469711042E+02  0.24999577249E+00 0.  0.
        -13    1    4    4    0    0 -0.14906162321E+02  0.11328333721E+02 -0.11491545429E+02  0.21967964434E+02  0.10500000000E+00 0. -1.
         13    1    4    4    0    0 -0.99936003313E+01  0.75639496669E+01 -0.78135338117E+01  0.14769824568E+02  0.10500000000E+00 0.  1.
    3000001    1    5    5    0    0  0.17680946063E+02 -0.16559913394E+02  0.15965931511E+02  0.29030286845E+02  0.10000000000E+01 0.  1.
        -13    1    6    6    0    0  0.13908284959E+02 -0.10004785788E+02  0.50172781479E+01  0.17852737442E+02  0.10500000000E+00 0.  1.
         13    1    6    6    0    0  0.12093034752E+02 -0.88543936589E+01  0.43860076201E+01  0.15616973600E+02  0.10500000000E+00 0. -1.
</event>
<event>
11    0  0.3476221E-009  0.9118800E+02  0.7816531E-02  0.1126479E+00
         25   -1    0    0    0    0  0.00000000000E+00  0.00000000000E+00  0.99999998245E-14  0.12500000000E+03  0.12500000000E+03 0.  0.
    3000001    1    3    3    0    0 -0.17008154476E+02  0.29376159949E+02 -0.40878811910E+02  0.53144269261E+02  0.10000000000E+01 0. -1.
    1000022    2    1    0    0    0 -0.19959420641E+02  0.30696930401E+02 -0.49654503868E+02  0.62499998945E+02  0.10000005268E+02 0.  0.
    3000022    2    3    3    0    0 -0.29512661643E+01  0.13207704519E+01 -0.87756919578E+01  0.93557296842E+01  0.25000405328E+00 0.  0.
    1000022    2    1    0    0    0  0.19959420641E+02 -0.30696930401E+02  0.49654503868E+02  0.62500001055E+02  0.10000018454E+02 0.  0.
    3000022    2    5    5    0    0  0.19902680672E+02 -0.23979226078E+02  0.40641929922E+02  0.51214733671E+02  0.24999183054E+00 0.  0.
        -13    1    4    4    0    0 -0.19199378154E+01  0.91322513635E+00 -0.58332050546E+01  0.62094643548E+01  0.10500000000E+00 0. -1.
         13    1    4    4    0    0 -0.10313283489E+01  0.40754531558E+00 -0.29424869032E+01  0.31462653294E+01  0.10500000000E+00 0.  1.
    3000001    1    5    5    0    0  0.56739968419E-01 -0.67177043234E+01  0.90125739458E+01  0.11285267384E+02  0.10000000000E+01 0. -1.
        -13    1    6    6    0    0  0.86266249485E+01 -0.10489168626E+02  0.17671269538E+02  0.22287353108E+02  0.10500000000E+00 0.  1.
         13    1    6    6    0    0  0.11276055724E+02 -0.13490057452E+02  0.22970660384E+02  0.28927380563E+02  0.10500000000E+00 0. -1.
</event>
<event>
11    0  0.3476221E-009  0.9118800E+02  0.7816531E-02  0.1126479E+00
         25   -1    0    0    0    0  0.00000000000E+00  0.00000000000E+00  0.99999998245E-14  0.12500000000E+03  0.12500000000E+03 0.  0.
    3000001    1    3    3    0    0 -0.95935431991E+01  0.14725106130E+02  0.26006688935E+01  0.17794052387E+02  0.10000000000E+01 0.  1.
    1000022    2    1    0    0    0 -0.20697219158E+02  0.55659246843E+02  0.16730910883E+02  0.62499999832E+02  0.99999979985E+01 0.  0.
    3000022    2    3    3    0    0 -0.11103675959E+02  0.40934140713E+02  0.14130241990E+02  0.44705947444E+02  0.25000507899E+00 0.  0.
    1000022    2    1    0    0    0  0.20697219158E+02 -0.55659246843E+02 -0.16730910883E+02  0.62500000168E+02  0.10000000102E+02 0.  0.
    3000022    2    5    5    0    0  0.55378800353E+01 -0.12650566969E+02  0.28931049593E+00  0.13814889067E+02  0.24999889252E+00 0.  0.
        -13    1    4    4    0    0 -0.28356867705E+01  0.10507443665E+02  0.36538761273E+01  0.11480824343E+02  0.10500000000E+00 0. -1.
         13    1    4    4    0    0 -0.82679891885E+01  0.30426697048E+02  0.10476365862E+02  0.33225123102E+02  0.10500000000E+00 0.  1.
    3000001    1    5    5    0    0  0.15159339123E+02 -0.43008679874E+02 -0.17020221379E+02  0.48685111101E+02  0.10000000000E+01 0. -1.
        -13    1    6    6    0    0  0.40699935958E+01 -0.93685401202E+01  0.19993687863E+00  0.10216916933E+02  0.10500000000E+00 0.  1.
         13    1    6    6    0    0  0.14678864396E+01 -0.32820268491E+01  0.89373617298E-01  0.35979721346E+01  0.10500000000E+00 0. -1.
</event>
<event>
11    0  0.3476221E-009  0.9118800E+02  0.7816531E-02  0.1126479E+00
         25   -1    0    0    0    0  0.00000000000E+00  0.00000000000E+00  0.99999998245E-14  0.12500000000E+03  0.12500000000E+03 0.  0.
    3000001    1    3    3    0    0  0.85377325699E+01 -0.72893863395E+01  0.15753191749E+01  0.11380231155E+02  0.10000000000E+01 0.  1.
    1000022    2    1    0    0    0  0.51701881348E+02 -0.32209757456E+02 -0.97824823143E+01  0.62500000197E+02  0.10000002706E+02 0.  0.
    3000022    2    3    3    0    0  0.43164148778E+02 -0.24920371116E+02 -0.11357801489E+02  0.51119769042E+02  0.24999183207E+00 0.  0.
    1000022    2    1    0    0    0 -0.51701881348E+02  0.32209757456E+02  0.97824823143E+01  0.62499999803E+02  0.10000000242E+02 0.  0.
    3000022    2    5    5    0    0 -0.33441739952E+02  0.22738052965E+02  0.10872026883E+02  0.41876395434E+02  0.25000478914E+00 0.  0.
        -13    1    4    4    0    0  0.24005899111E+02 -0.13931064731E+02 -0.63005077438E+01  0.28461644006E+02  0.10500000000E+00 0. -1.
         13    1    4    4    0    0  0.19158249667E+02 -0.10989306385E+02 -0.50572937454E+01  0.22658125036E+02  0.10500000000E+00 0.  1.
    3000001    1    5    5    0    0 -0.18260141396E+02  0.94717044911E+01 -0.10895445690E+01  0.20623604369E+02  0.10000000000E+01 0. -1.
        -13    1    6    6    0    0 -0.16445898287E+02  0.11133000291E+02  0.53954426342E+01  0.20579919634E+02  0.10500000000E+00 0. -1.
         13    1    6    6    0    0 -0.16995841665E+02  0.11605052674E+02  0.54765842490E+01  0.21296475800E+02  0.10500000000E+00 0.  1.
</event>
<event>
11    0  0.3476221E-009  0.9118800E+02  0.7816531E-02  0.1126479E+00
         25   -1    0    0    0    0  0.00000000000E+00  0.00000000000E+00  0.99999998245E-14  0.12500000000E+03  0.12500000000E+03 0.  0.
    3000001    1    3    3    0    0 -0.18678946105E+01 -0.18970585172E+01  0.19145294133E+00  0.28503535785E+01  0.10000000000E+01 0.  1.
    1000022    2    1    0    0    0 -0.57632062710E+01 -0.61372579181E+02  0.25381143758E+01  0.62500000106E+02  0.99999983411E+01 0.  0.
    3000022    2    3    3    0    0 -0.38953116604E+01 -0.59475520664E+02  0.23466614345E+01  0.59649646527E+02  0.24999962036E+00 0.  0.
    1000022    2    1    0    0    0  0.57632062710E+01  0.61372579181E+02 -0.25381143758E+01  0.62499999894E+02  0.99999970190E+01 0.  0.
    3000022    2    5    5    0    0  0.70483043914E+01  0.47828739932E+02 -0.51205129214E+01  0.48616346160E+02  0.25000611353E+00 0.  0.
        -13    1    4    4    0    0 -0.18061495059E+01 -0.26566964547E+02  0.10403926778E+01  0.26648812792E+02  0.10500000000E+00 0.  1.
         13    1    4    4    0    0 -0.20891621545E+01 -0.32908556117E+02  0.13062687567E+01  0.33000833736E+02  0.10500000000E+00 0. -1.
    3000001    1    5    5    0    0 -0.12850981205E+01  0.13543839249E+02  0.25823985456E+01  0.13883653734E+02  0.10000000000E+01 0.  1.
        -13    1    6    6    0    0  0.52349747637E+01  0.35310652566E+02 -0.37715575161E+01  0.35895442838E+02  0.10500000000E+00 0.  1.
         13    1    6    6    0    0  0.18133296277E+01  0.12518087366E+02 -0.13489554053E+01  0.12720903322E+02  0.10500000000E+00 0. -1.
</event>
<event>
11    0  0.3476221E-009  0.9118800E+02  0.7816531E-02  0.1126479E+00
         25   -1    0    0    0    0  0.00000000000E+00  0.00000000000E+00  0.99999998245E-14  0.12500000000E+03  0.12500000000E+03 0.  0.
    3000001    1    3    3    0    0  0.10755184276E+01  0.77873027704E-01  0.13624820665E+01  0.20047846463E+01  0.10000000000E+01 0. -1.
    1000022    2    1    0    0    0  0.61122639941E+02  0.54600161600E+01  0.63609096307E+01  0.62499999744E+02  0.99999953447E+01 0.  0.
    3000022    2    3    3    0    0  0.60047121513E+02  0.53821431323E+01  0.49984275641E+01  0.60495215098E+02  0.25000980630E+00 0.  0.
    1000022    2    1    0    0    0 -0.61122639941E+02 -0.54600161600E+01 -0.63609096307E+01  0.62500000256E+02  0.99999985435E+01 0.  0.
    3000022    2    5    5    0    0 -0.66112214045E+01 -0.29549668876E+01  0.13786606064E+01  0.73758588101E+01  0.25002070363E+00 0.  0.
        -13    1    4    4    0    0  0.21128583377E+02  0.18906031057E+01  0.18157044093E+01  0.21290824858E+02  0.10500000000E+00 0.  1.
         13    1    4    4    0    0  0.38918538136E+02  0.34915400266E+01  0.31827231549E+01  0.39204390240E+02  0.10500000000E+00 0. -1.
    3000001    1    5    5    0    0 -0.54511418536E+02 -0.25050492724E+01 -0.77395702371E+01  0.55124141446E+02  0.10000000000E+01 0.  1.
        -13    1    6    6    0    0 -0.33708150979E+01 -0.14453839312E+01  0.73723817518E+00  0.37424690059E+01  0.10500000000E+00 0.  1.
         13    1    6    6    0    0 -0.32404063066E+01 -0.15095829564E+01  0.64142243120E+00  0.36333898042E+01  0.10500000000E+00 0. -1.
</event>
<event>
11    0  0.3476221E-009  0.9118800E+02  0.7816531E-02  0.1126479E+00
         25   -1    0    0    0    0  0.00000000000E+00  0.00000000000E+00  0.99999998245E-14  0.12500000000E+03  0.12500000000E+03 0.  0.
    3000001    1    3    3    0    0  0.34947159129E+01 -0.11756718595E+02 -0.13024402194E+01  0.12374563506E+02  0.10000000000E+01 0.  1.
    1000022    2    1    0    0    0 -0.16285063868E+01 -0.61557712316E+02 -0.37743895037E+01  0.62500000319E+02  0.10000002257E+02 0.  0.
    3000022    2    3    3    0    0 -0.51232222997E+01 -0.49800993721E+02 -0.24719492843E+01  0.50125436814E+02  0.25000026391E+00 0.  0.
    1000022    2    1    0    0    0  0.16285063868E+01  0.61557712316E+02  0.37743895037E+01  0.62499999681E+02  0.99999982651E+01 0.  0.
    3000022    2    5    5    0    0 -0.10233959846E+01  0.40349714196E+01 -0.19881427972E+01  0.46199073780E+01  0.24999740278E+00 0.  0.
        -13    1    4    4    0    0 -0.31626163552E+01 -0.31095317111E+02 -0.15916193182E+01  0.31296408189E+02  0.10500000000E+00 0.  1.
         13    1    4    4    0    0 -0.19606059446E+01 -0.18705676610E+02 -0.88032996607E+00  0.18829028625E+02  0.10500000000E+00 0. -1.
    3000001    1    5    5    0    0  0.26519023714E+01  0.57522740897E+02  0.57625323009E+01  0.57880092303E+02  0.10000000000E+01 0. -1.
        -13    1    6    6    0    0 -0.50073838638E+00  0.18698676809E+01 -0.85582761685E+00  0.21191059401E+01  0.10500000000E+00 0.  1.
         13    1    6    6    0    0 -0.52265759817E+00  0.21651037386E+01 -0.11323151803E+01  0.25008014379E+01  0.10500000000E+00 0. -1.
</event>
<event>
11    0  0.3476221E-009  0.9118800E+02  0.7816531E-02  0.1126479E+00
         25   -1    0    0    0    0  0.00000000000E+00  0.00000000000E+00  0.99999998245E-14  0.12500000000E+03  0.12500000000E+03 0.  0.
    3000001    1    3    3    0    0 -0.23642536151E+02 -0.27013521450E+02  0.45747777849E+02  0.58159771620E+02  0.10000000000E+01 0.  1.
    1000022    2    1    0    0    0 -0.22829896741E+02 -0.28457811404E+02  0.49751368067E+02  0.62500000800E+02  0.10000013017E+02 0.  0.
    3000022    2    3    3    0    0  0.81263941073E+00 -0.14442899540E+01  0.40035902175E+01  0.43402291792E+01  0.24999683034E+00 0.  0.
    1000022    2    1    0    0    0  0.22829896741E+02  0.28457811404E+02 -0.49751368067E+02  0.62499999200E+02  0.10000003022E+02 0.  0.
    3000022    2    5    5    0    0  0.19586001744E+02  0.21218790683E+02 -0.32438154636E+02  0.43429770175E+02  0.25003795397E+00 0.  0.
        -13    1    4    4    0    0  0.27777909226E+00 -0.52458230321E+00  0.13011065173E+01  0.14339633838E+01  0.10500000000E+00 0.  1.
         13    1    4    4    0    0  0.53486031847E+00 -0.91970765084E+00  0.27024837002E+01  0.29062657954E+01  0.10500000000E+00 0. -1.
    3000001    1    5    5    0    0  0.32438949971E+01  0.72390207211E+01 -0.17313213431E+02  0.19070229025E+02  0.10000000000E+01 0.  1.
        -13    1    6    6    0    0  0.10404764098E+02  0.11366391887E+02 -0.17341837819E+02  0.23199231548E+02  0.10500000000E+00 0.  1.
         13    1    6    6    0    0  0.91812376456E+01  0.98523987956E+01 -0.15096316816E+02  0.20230538627E+02  0.10500000000E+00 0. -1.
</event>
<event>
11    0  0.3476221E-009  0.9118800E+02  0.7816531E-02  0.1126479E+00
         25   -1    0    0    0    0  0.00000000000E+00  0.00000000000E+00  0.99999998245E-14  0.12500000000E+03  0.12500000000E+03 0.  0.
    3000001    1    3    3    0    0 -0.68587459014E+01 -0.42263606848E+01  0.26574497414E+01  0.85420465409E+01  0.10000000000E+01 0. -1.
    1000022    2    1    0    0    0 -0.33622081184E+02 -0.37244065496E+02  0.35898275578E+02  0.62499992805E+02  0.99999076688E+01 0.  0.
    3000022    2    3    3    0    0 -0.26763335282E+02 -0.33017704811E+02  0.33240825836E+02  0.53957946264E+02  0.25003267490E+00 0.  0.
    1000022    2    1    0    0    0  0.33622081184E+02  0.37244065496E+02 -0.35898275578E+02  0.62500007195E+02  0.99999976044E+01 0.  0.
    3000022    2    5    5    0    0  0.14868332876E+02  0.17432682558E+02 -0.10466068903E+02  0.25190610177E+02  0.24999821453E+00 0.  0.
        -13    1    4    4    0    0 -0.92641289976E+01 -0.11355434949E+02  0.11500833149E+02  0.18629282785E+02  0.10500000000E+00 0. -1.
         13    1    4    4    0    0 -0.17499206285E+02 -0.21662269862E+02  0.21739992687E+02  0.35328663479E+02  0.10500000000E+00 0.  1.
    3000001    1    5    5    0    0  0.18753748308E+02  0.19811382938E+02 -0.25432206675E+02  0.37309397018E+02  0.10000000000E+01 0. -1.
        -13    1    6    6    0    0  0.67913949752E+01  0.80660830803E+01 -0.48175939965E+01  0.11593316130E+02  0.10500000000E+00 0. -1.
         13    1    6    6    0    0  0.80769379011E+01  0.93665994780E+01 -0.56484749065E+01  0.13597294047E+02  0.10500000000E+00 0.  1.
</event>
<event>
11    0  0.3476221E-009  0.9118800E+02  0.7816531E-02  0.1126479E+00
         25   -1    0    0    0    0  0.00000000000E+00  0.00000000000E+00  0.99999998245E-14  0.12500000000E+03  0.12500000000E+03 0.  0.
    3000001    1    3    3    0    0 -0.87755333883E+01  0.45477736199E+01 -0.17493587240E+02  0.20117599898E+02  0.10000000000E+01 0.  1.
    1000022    2    1    0    0    0 -0.20971991931E+02  0.18374196200E+01 -0.57991811390E+02  0.62500005219E+02  0.99999953809E+01 0.  0.
    3000022    2    3    3    0    0 -0.12196458543E+02 -0.27103539999E+01 -0.40498224150E+02  0.42382405321E+02  0.25000327322E+00 0.  0.
    1000022    2    1    0    0    0  0.20971991931E+02 -0.18374196200E+01  0.57991811390E+02  0.62499994781E+02  0.99999301444E+01 0.  0.
    3000022    2    5    5    0    0  0.16917510542E+02  0.27050212275E+01  0.42264260167E+02  0.45605366769E+02  0.24997576676E+00 0.  0.
        -13    1    4    4    0    0 -0.54449881173E+01 -0.12471406481E+01 -0.18296187286E+02  0.19130205163E+02  0.10500000000E+00 0.  1.
         13    1    4    4    0    0 -0.67514704258E+01 -0.14632133518E+01 -0.22202036864E+02  0.23252200157E+02  0.10500000000E+00 0. -1.
    3000001    1    5    5    0    0  0.40544813890E+01 -0.45424408475E+01  0.15727551223E+02  0.16894628012E+02  0.10000000000E+01 0.  1.
        -13    1    6    6    0    0  0.52616061849E+01  0.88721622599E+00  0.13116786258E+02  0.14160958973E+02  0.10500000000E+00 0.  1.
         13    1    6    6    0    0  0.11655904357E+02  0.18178050016E+01  0.29147473909E+02  0.31444407797E+02  0.10500000000E+00 0. -1.
</event>
<event>
11    0  0.3476221E-009  0.9118800E+02  0.7816531E-02  0.1126479E+00
         25   -1    0    0    0    0  0.00000000000E+00  0.00000000000E+00  0.99999998245E-14  0.12500000000E+03  0.12500000000E+03 0.  0.
    3000001    1    3    3    0    0 -0.19206699187E+02 -0.32521280856E+02 -0.29684453988E+02  0.48048910609E+02  0.10000000000E+01 0. -1.
    1000022    2    1    0    0    0 -0.29471739143E+02 -0.39988688243E+02 -0.36586496442E+02  0.62499997430E+02  0.99999680647E+01 0.  0.
    3000022    2    3    3    0    0 -0.10265039956E+02 -0.74674073873E+01 -0.69020424539E+01  0.14451086820E+02  0.25000374239E+00 0.  0.
    1000022    2    1    0    0    0  0.29471739143E+02  0.39988688243E+02  0.36586496442E+02  0.62500002570E+02  0.10000000195E+02 0.  0.
    3000022    2    5    5    0    0  0.38178513920E+01  0.44094061936E+01  0.88202808038E+01  0.10577271529E+02  0.24993462669E+00 0.  0.
        -13    1    4    4    0    0 -0.63139315982E+01 -0.45776716343E+01 -0.43086778604E+01  0.89104735970E+01  0.10500000000E+00 0.  1.
         13    1    4    4    0    0 -0.39511083577E+01 -0.28897357530E+01 -0.25933645935E+01  0.55406132234E+01  0.10500000000E+00 0. -1.
    3000001    1    5    5    0    0  0.25653887751E+02  0.35579282050E+02  0.27766215638E+02  0.51922731041E+02  0.10000000000E+01 0. -1.
        -13    1    6    6    0    0  0.16030219058E+01  0.19500319865E+01  0.37957590626E+01  0.45597276059E+01  0.10500000000E+00 0.  1.
         13    1    6    6    0    0  0.22148294862E+01  0.24593742071E+01  0.50245217412E+01  0.60175439235E+01  0.10500000000E+00 0. -1.
</event>
<event>
11    0  0.3476221E-009  0.9118800E+02  0.7816531E-02  0.1126479E+00
         25   -1    0    0    0    0  0.00000000000E+00  0.00000000000E+00  0.99999998245E-14  0.12500000000E+03  0.12500000000E+03 0.  0.
    3000001    1    3    3    0    0 -0.44717332549E+02  0.54468275410E+01  0.12065969089E+02  0.46646493659E+02  0.10000000000E+01 0.  1.
    1000022    2    1    0    0    0 -0.59358729955E+02  0.15703845326E+01  0.16742918942E+02  0.62500000924E+02  0.99999925689E+01 0.  0.
    3000022    2    3    3    0    0 -0.14641397405E+02 -0.38764430084E+01  0.46769498534E+01  0.15853507265E+02  0.25000860571E+00 0.  0.
    1000022    2    1    0    0    0  0.59358729955E+02 -0.15703845326E+01 -0.16742918942E+02  0.62499999076E+02  0.99999810203E+01 0.  0.
    3000022    2    5    5    0    0  0.48440628990E+02  0.84928775382E+00 -0.10219451525E+02  0.49514800972E+02  0.24999849169E+00 0.  0.
        -13    1    4    4    0    0 -0.84237822986E+01 -0.22880759360E+01  0.26603636745E+01  0.91260045795E+01  0.10500000000E+00 0. -1.
         13    1    4    4    0    0 -0.62176151066E+01 -0.15883670725E+01  0.20165861788E+01  0.67275026858E+01  0.10500000000E+00 0.  1.
    3000001    1    5    5    0    0  0.10918100965E+02 -0.24196722864E+01 -0.65234674171E+01  0.12985198104E+02  0.10000000000E+01 0. -1.
        -13    1    6    6    0    0  0.18149696098E+02  0.28200638972E+00 -0.38780120650E+01  0.18561815607E+02  0.10500000000E+00 0.  1.
         13    1    6    6    0    0  0.30290932892E+02  0.56728136410E+00 -0.63414394600E+01  0.30952985365E+02  0.10500000000E+00 0. -1.
</event>
<event>
11    0  0.3476221E-009  0.9118800E+02  0.7816531E-02  0.1126479E+00
         25   -1    0    0    0    0  0.00000000000E+00  0.00000000000E+00  0.99999998245E-14  0.12500000000E+03  0.12500000000E+03 0.  0.
    3000001    1    3    3    0    0  0.51890337587E+02  0.74730172357E+01 -0.54224908173E+01  0.52714860601E+02  0.10000000000E+01 0. -1.
    1000022    2    1    0    0    0  0.60915432899E+02  0.50888271557E+01 -0.83464843394E+01  0.62499999570E+02  0.10000000917E+02 0.  0.
    3000022    2    3    3    0    0  0.90250953114E+01 -0.23841900800E+01 -0.29239935221E+01  0.97851389687E+01  0.24999760329E+00 0.  0.
    1000022    2    1    0    0    0 -0.60915432899E+02 -0.50888271557E+01  0.83464843394E+01  0.62500000430E+02  0.10000006292E+02 0.  0.
    3000022    2    5    5    0    0 -0.74933972821E+01  0.24307209556E+01  0.22631894943E+01  0.82002401228E+01  0.25000838830E+00 0.  0.
        -13    1    4    4    0    0  0.21741731541E+01 -0.58152797753E+00 -0.72554547539E+00  0.23669906906E+01  0.10500000000E+00 0. -1.
         13    1    4    4    0    0  0.68509221574E+01 -0.18026621025E+01 -0.21984480467E+01  0.74181482781E+01  0.10500000000E+00 0.  1.
    3000001    1    5    5    0    0 -0.53422035617E+02 -0.75195481113E+01  0.60832948451E+01  0.54299760307E+02  0.10000000000E+01 0.  1.
        -13    1    6    6    0    0 -0.22023059018E+01  0.67040094809E+00  0.64883234809E+00  0.23940754233E+01  0.10500000000E+00 0. -1.
         13    1    6    6    0    0 -0.52910913803E+01  0.17603200075E+01  0.16143571462E+01  0.58061646996E+01  0.10500000000E+00 0.  1.
</event>
<event>
11    0  0.3476221E-009  0.9118800E+02  0.7816531E-02  0.1126479E+00
         25   -1    0    0    0    0  0.00000000000E+00  0.00000000000E+00  0.99999998245E-14  0.12500000000E+03  0.12500000000E+03 0.  0.
    3000001    1    3    3    0    0 -0.13533706405E+02 -0.48337138888E+02 -0.21704748722E+01  0.50252872218E+02  0.10000000000E+01 0. -1.
    1000022    2    1    0    0    0 -0.19440425495E+02 -0.58540859310E+02  0.11347411452E+01  0.62499999859E+02  0.99999996356E+01 0.  0.
    3000022    2    3    3    0    0 -0.59067190901E+01 -0.10203720422E+02  0.33052160174E+01  0.12247127642E+02  0.24988334332E+00 0.  0.
    1000022    2    1    0    0    0  0.19440425495E+02  0.58540859310E+02 -0.11347411452E+01  0.62500000141E+02  0.10000001394E+02 0.  0.
    3000022    2    5    5    0    0  0.11131431024E+02  0.18915400465E+02 -0.14798464444E+01  0.21998944901E+02  0.24999976728E+00 0.  0.
        -13    1    4    4    0    0 -0.20106242378E+01 -0.35513697415E+01  0.11029940540E+01  0.42287655113E+01  0.10500000000E+00 0.  1.
         13    1    4    4    0    0 -0.38960948523E+01 -0.66523506808E+01  0.22022219634E+01  0.80183621304E+01  0.10500000000E+00 0. -1.
    3000001    1    5    5    0    0  0.83089944719E+01  0.39625458846E+02  0.34510529922E+00  0.40501055240E+02  0.10000000000E+01 0.  1.
        -13    1    6    6    0    0  0.85777603619E+01  0.14563434566E+02 -0.11388929403E+01  0.16940475239E+02  0.10500000000E+00 0.  1.
         13    1    6    6    0    0  0.25536706617E+01  0.43519658990E+01 -0.34095350410E+00  0.50584696625E+01  0.10500000000E+00 0. -1.
</event>
<event>
11    0  0.3476221E-009  0.9118800E+02  0.7816531E-02  0.1126479E+00
         25   -1    0    0    0    0  0.00000000000E+00  0.00000000000E+00  0.99999998245E-14  0.12500000000E+03  0.12500000000E+03 0.  0.
    3000001    1    3    3    0    0 -0.10719489798E+02  0.11331213004E+02 -0.33900693758E+01  0.15993636861E+02  0.10000000000E+01 0. -1.
    1000022    2    1    0    0    0 -0.27756285061E+02  0.52540307707E+02 -0.16593788320E+02  0.62500008242E+02  0.10000096254E+02 0.  0.
    3000022    2    3    3    0    0 -0.17036795263E+02  0.41209094703E+02 -0.13203718944E+02  0.46506371381E+02  0.25001192878E+00 0.  0.
    1000022    2    1    0    0    0  0.27756285061E+02 -0.52540307707E+02  0.16593788320E+02  0.62499991758E+02  0.99999932312E+01 0.  0.
    3000022    2    5    5    0    0  0.16362784711E+02 -0.37299703510E+02  0.14894359862E+02  0.43369494546E+02  0.24999201492E+00 0.  0.
        -13    1    4    4    0    0 -0.73456838694E+01  0.17940079626E+02 -0.57435026837E+01  0.20218911360E+02  0.10500000000E+00 0. -1.
         13    1    4    4    0    0 -0.96911113937E+01  0.23269015077E+02 -0.74602162603E+01  0.26287460021E+02  0.10500000000E+00 0.  1.
    3000001    1    5    5    0    0  0.11393500350E+02 -0.15240604197E+02  0.16994284576E+01  0.19130497212E+02  0.10000000000E+01 0.  1.
        -13    1    6    6    0    0  0.53606296882E+01 -0.12305929497E+02  0.49509003111E+01  0.14307155214E+02  0.10500000000E+00 0.  1.
         13    1    6    6    0    0  0.11002155023E+02 -0.24993774013E+02  0.99434595510E+01  0.29062339331E+02  0.10500000000E+00 0. -1.
</event>
<event>
11    0  0.3476221E-009  0.9118800E+02  0.7816531E-02  0.1126479E+00
         25   -1    0    0    0    0  0.00000000000E+00  0.00000000000E+00  0.99999998245E-14  0.12500000000E+03  0.12500000000E+03 0.  0.
    3000001    1    3    3    0    0 -0.32852573850E+00 -0.44141814380E+01  0.11483766302E+02  0.12347866837E+02  0.10000000000E+01 0. -1.
    1000022    2    1    0    0    0  0.15784701078E+02 -0.13350107364E+02  0.58128029166E+02  0.62500001473E+02  0.10000012737E+02 0.  0.
    3000022    2    3    3    0    0  0.16113226816E+02 -0.89359259262E+01  0.46644262863E+02  0.50152134637E+02  0.24999993308E+00 0.  0.
    1000022    2    1    0    0    0 -0.15784701078E+02  0.13350107364E+02 -0.58128029166E+02  0.62499998527E+02  0.99999943200E+01 0.  0.
    3000022    2    5    5    0    0 -0.63133606082E+01  0.94282645313E+01 -0.40729795160E+02  0.42281549328E+02  0.25001105632E+00 0.  0.
        -13    1    4    4    0    0  0.78867860485E+01 -0.43433499401E+01  0.22623639360E+02  0.24349664593E+02  0.10500000000E+00 0.  1.
         13    1    4    4    0    0  0.82264407679E+01 -0.45925759861E+01  0.24020623503E+02  0.25802470044E+02  0.10500000000E+00 0. -1.
    3000001    1    5    5    0    0 -0.94713404696E+01  0.39218428328E+01 -0.17398234005E+02  0.20218449199E+02  0.10000000000E+01 0.  1.
        -13    1    6    6    0    0 -0.33664858770E+01  0.49266570461E+01 -0.21277181194E+02  0.22098294988E+02  0.10500000000E+00 0.  1.
         13    1    6    6    0    0 -0.29468747312E+01  0.45016074851E+01 -0.19452613966E+02  0.20183254340E+02  0.10500000000E+00 0. -1.
</event>
<event>
11    0  0.3476221E-009  0.9118800E+02  0.7816531E-02  0.1126479E+00
         25   -1    0    0    0    0  0.00000000000E+00  0.00000000000E+00  0.99999998245E-14  0.12500000000E+03  0.12500000000E+03 0.  0.
    3000001    1    3    3    0    0  0.19039100425E+01 -0.27416840227E+01 -0.14493104044E+02  0.14906098401E+02  0.10000000000E+01 0. -1.
    1000022    2    1    0    0    0  0.17901386928E+02 -0.24138002471E+02 -0.53880859653E+02  0.62500000328E+02  0.10000009344E+02 0.  0.
    3000022    2    3    3    0    0  0.15997476885E+02 -0.21396318448E+02 -0.39387755609E+02  0.47593901927E+02  0.24999772373E+00 0.  0.
    1000022    2    1    0    0    0 -0.17901386928E+02  0.24138002471E+02  0.53880859653E+02  0.62499999672E+02  0.10000005242E+02 0.  0.
    3000022    2    5    5    0    0 -0.10015856462E+02  0.13072405046E+02  0.38939113826E+02  0.42279099458E+02  0.25002220713E+00 0.  0.
        -13    1    4    4    0    0  0.97021612389E+01 -0.12871746213E+02 -0.23762125866E+02  0.28713471297E+02  0.10500000000E+00 0. -1.
         13    1    4    4    0    0  0.62953156463E+01 -0.85245722352E+01 -0.15625629743E+02  0.18880430629E+02  0.10500000000E+00 0.  1.
    3000001    1    5    5    0    0 -0.78855304659E+01  0.11065597425E+02  0.14941745827E+02  0.20220900214E+02  0.10000000000E+01 0. -1.
        -13    1    6    6    0    0 -0.40228007665E+01  0.53410124531E+01  0.15728624250E+02  0.17091225404E+02  0.10500000000E+00 0.  1.
         13    1    6    6    0    0 -0.59930556953E+01  0.77313925930E+01  0.23210489576E+02  0.25187874054E+02  0.10500000000E+00 0. -1.
</event>
<event>
11    0  0.3476221E-009  0.9118800E+02  0.7816531E-02  0.1126479E+00
         25   -1    0    0    0    0  0.00000000000E+00  0.00000000000E+00  0.99999998245E-14  0.12500000000E+03  0.12500000000E+03 0.  0.
    3000001    1    3    3    0    0  0.25862465706E+02 -0.38416830755E+02  0.32256826959E+02  0.56446637660E+02  0.10000000000E+01 0.  1.
    1000022    2    1    0    0    0  0.25467794678E+02 -0.42855465193E+02  0.36346260401E+02  0.62500001031E+02  0.10000001056E+02 0.  0.
    3000022    2    3    3    0    0 -0.39467102801E+00 -0.44386344374E+01  0.40894334427E+01  0.60533633714E+01  0.25000266957E+00 0.  0.
    1000022    2    1    0    0    0 -0.25467794678E+02  0.42855465193E+02 -0.36346260401E+02  0.62499998969E+02  0.99999881650E+01 0.  0.
    3000022    2    5    5    0    0 -0.95055701654E+01  0.14824413080E+02 -0.18819459316E+02  0.25775058531E+02  0.25001189782E+00 0.  0.
        -13    1    4    4    0    0 -0.19714419167E+00 -0.26321300139E+01  0.23501448897E+01  0.35357008139E+01  0.10500000000E+00 0. -1.
         13    1    4    4    0    0 -0.19752683634E+00 -0.18065044235E+01  0.17392885530E+01  0.25176625576E+01  0.10500000000E+00 0.  1.
    3000001    1    5    5    0    0 -0.15962224512E+02  0.28031052113E+02 -0.17526801085E+02  0.36724940438E+02  0.10000000000E+01 0. -1.
        -13    1    6    6    0    0 -0.56549078348E+01  0.89153198241E+01 -0.11334437386E+02  0.15490042158E+02  0.10500000000E+00 0.  1.
         13    1    6    6    0    0 -0.38506623306E+01  0.59090932561E+01 -0.74850219303E+01  0.10285016373E+02  0.10500000000E+00 0. -1.
</event>
<event>
11    0  0.3476221E-009  0.9118800E+02  0.7816531E-02  0.1126479E+00
         25   -1    0    0    0    0  0.00000000000E+00  0.00000000000E+00  0.99999998245E-14  0.12500000000E+03  0.12500000000E+03 0.  0.
    3000001    1    3    3    0    0  0.23465622667E+01 -0.62695936926E+01  0.51781102984E+01  0.85221467838E+01  0.10000000000E+01 0.  1.
    1000022    2    1    0    0    0  0.33494594807E+02 -0.28796070609E+02  0.43071435424E+02  0.62500000361E+02  0.99999965932E+01 0.  0.
    3000022    2    3    3    0    0  0.31148032541E+02 -0.22526476916E+02  0.37893325125E+02  0.53977853577E+02  0.24998871050E+00 0.  0.
    1000022    2    1    0    0    0 -0.33494594807E+02  0.28796070609E+02 -0.43071435424E+02  0.62499999639E+02  0.99999920807E+01 0.  0.
    3000022    2    5    5    0    0 -0.22596793716E+02  0.20523745290E+02 -0.35538027545E+02  0.46849259430E+02  0.25000084544E+00 0.  0.
        -13    1    4    4    0    0  0.16244982433E+02 -0.11698128321E+02  0.19658103507E+02  0.28057044016E+02  0.10500000000E+00 0.  1.
         13    1    4    4    0    0  0.14903050107E+02 -0.10828348595E+02  0.18235221619E+02  0.25920809561E+02  0.10500000000E+00 0. -1.
    3000001    1    5    5    0    0 -0.10897801092E+02  0.82723253190E+01 -0.75334078785E+01  0.15650740209E+02  0.10000000000E+01 0.  1.
        -13    1    6    6    0    0 -0.13047185002E+02  0.11920933567E+02 -0.20633353163E+02  0.27167701069E+02  0.10500000000E+00 0.  1.
         13    1    6    6    0    0 -0.95496087138E+01  0.86028117224E+01 -0.14904674382E+02  0.19681558362E+02  0.10500000000E+00 0. -1.
</event>
<event>
11    0  0.3476221E-009  0.9118800E+02  0.7816531E-02  0.1126479E+00
         25   -1    0    0    0    0  0.00000000000E+00  0.00000000000E+00  0.99999998245E-14  0.12500000000E+03  0.12500000000E+03 0.  0.
    3000001    1    3    3    0    0 -0.22820514826E+02 -0.37297660063E+02  0.19431420432E+01  0.43779757241E+02  0.10000000000E+01 0. -1.
    1000022    2    1    0    0    0 -0.27252355568E+02 -0.55020985828E+02  0.60208193303E+01  0.62499998745E+02  0.99999906100E+01 0.  0.
    3000022    2    3    3    0    0 -0.44318407424E+01 -0.17723325765E+02  0.40776772871E+01  0.18720241504E+02  0.25000272421E+00 0.  0.
    1000022    2    1    0    0    0  0.27252355568E+02  0.55020985828E+02 -0.60208193303E+01  0.62500001255E+02  0.10000006298E+02 0.  0.
    3000022    2    5    5    0    0  0.38407404649E+01  0.17570817512E+02 -0.28191520704E+01  0.18207005174E+02  0.25000725052E+00 0.  0.
        -13    1    4    4    0    0 -0.27426488362E+01 -0.11212458727E+02  0.25768951263E+01  0.11827627270E+02  0.10500000000E+00 0.  1.
         13    1    4    4    0    0 -0.16891919061E+01 -0.65108670378E+01  0.15007821608E+01  0.68926142336E+01  0.10500000000E+00 0. -1.
    3000001    1    5    5    0    0  0.23411615103E+02  0.37450168316E+02 -0.32016672599E+01  0.44292996081E+02  0.10000000000E+01 0.  1.
        -13    1    6    6    0    0  0.26103634130E+01  0.11936807549E+02 -0.19666478516E+01  0.12376594862E+02  0.10500000000E+00 0.  1.
         13    1    6    6    0    0  0.12303770519E+01  0.56340099637E+01 -0.85250421878E+00  0.58304103118E+01  0.10500000000E+00 0. -1.
</event>
<event>
11    0  0.3476221E-009  0.9118800E+02  0.7816531E-02  0.1126479E+00
         25   -1    0    0    0    0  0.00000000000E+00  0.00000000000E+00  0.99999998245E-14  0.12500000000E+03  0.12500000000E+03 0.  0.
    3000001    1    3    3    0    0  0.39169416096E+01  0.34742024117E+01 -0.35230287986E+02  0.35631246197E+02  0.10000000000E+01 0.  1.
    1000022    2    1    0    0    0  0.14503187119E+02  0.91448362672E+01 -0.59264487574E+02  0.62500000013E+02  0.10000002361E+02 0.  0.
    3000022    2    3    3    0    0  0.10586245510E+02  0.56706338555E+01 -0.24034199588E+02  0.26868753816E+02  0.24999894444E+00 0.  0.
    1000022    2    1    0    0    0 -0.14503187119E+02 -0.91448362672E+01  0.59264487574E+02  0.62499999987E+02  0.10000002198E+02 0.  0.
    3000022    2    5    5    0    0 -0.81058302035E+01 -0.96896395083E+01  0.30558860496E+02  0.33068112314E+02  0.25000012953E+00 0.  0.
        -13    1    4    4    0    0  0.66091554748E+01  0.34857553926E+01 -0.14869687861E+02  0.16641816873E+02  0.10500000000E+00 0.  1.
         13    1    4    4    0    0  0.39770900349E+01  0.21848784630E+01 -0.91645117270E+01  0.10226936943E+02  0.10500000000E+00 0. -1.
    3000001    1    5    5    0    0 -0.63973569159E+01  0.54480324111E+00  0.28705627078E+02  0.29431887673E+02  0.10000000000E+01 0. -1.
        -13    1    6    6    0    0 -0.19777339133E+01 -0.23833795460E+01  0.75464416470E+01  0.81579247375E+01  0.10500000000E+00 0.  1.
         13    1    6    6    0    0 -0.61280962902E+01 -0.73062599624E+01  0.23012418849E+02  0.24910187576E+02  0.10500000000E+00 0. -1.
</event>
<event>
11    0  0.3476221E-009  0.9118800E+02  0.7816531E-02  0.1126479E+00
         25   -1    0    0    0    0  0.00000000000E+00  0.00000000000E+00  0.99999998245E-14  0.12500000000E+03  0.12500000000E+03 0.  0.
    3000001    1    3    3    0    0 -0.26166412082E+00  0.39681608082E+01 -0.84712880886E+01  0.94115615172E+01  0.10000000000E+01 0.  1.
    1000022    2    1    0    0    0 -0.14933756042E+02  0.40571226241E+02 -0.44013729608E+02  0.62500000266E+02  0.10000008553E+02 0.  0.
    3000022    2    3    3    0    0 -0.14672091921E+02  0.36603065433E+02 -0.35542441519E+02  0.53088438749E+02  0.24999848347E+00 0.  0.
    1000022    2    1    0    0    0  0.14933756042E+02 -0.40571226241E+02  0.44013729608E+02  0.62499999734E+02  0.10000005224E+02 0.  0.
    3000022    2    5    5    0    0  0.14643037714E+02 -0.26671572216E+02  0.30713956307E+02  0.43234256327E+02  0.24998025871E+00 0.  0.
        -13    1    4    4    0    0 -0.92426457666E+01  0.23103388183E+02 -0.22350996882E+02  0.33448036309E+02  0.10500000000E+00 0.  1.
         13    1    4    4    0    0 -0.54294461541E+01  0.13499677250E+02 -0.13191444638E+02  0.19640402440E+02  0.10500000000E+00 0. -1.
    3000001    1    5    5    0    0  0.29071832763E+00 -0.13899654025E+02  0.13299773301E+02  0.19265743407E+02  0.10000000000E+01 0.  1.
        -13    1    6    6    0    0  0.68224112426E+01 -0.12564198448E+02  0.14413791152E+02  0.20302038769E+02  0.10500000000E+00 0. -1.
         13    1    6    6    0    0  0.78206264713E+01 -0.14107373768E+02  0.16300165155E+02  0.22932217558E+02  0.10500000000E+00 0.  1.
</event>
<event>
11    0  0.3476221E-009  0.9118800E+02  0.7816531E-02  0.1126479E+00
         25   -1    0    0    0    0  0.00000000000E+00  0.00000000000E+00  0.99999998245E-14  0.12500000000E+03  0.12500000000E+03 0.  0.
    3000001    1    3    3    0    0  0.78207381316E+00 -0.22178221809E+02 -0.26026424691E+02  0.34217830794E+02  0.10000000000E+01 0. -1.
    1000022    2    1    0    0    0  0.40115814236E+00 -0.32878971331E+02 -0.52202130407E+02  0.62500001949E+02  0.10000007048E+02 0.  0.
    3000022    2    3    3    0    0 -0.38091567079E+00 -0.10700749522E+02 -0.26175705716E+02  0.28282171155E+02  0.24999682949E+00 0.  0.
    1000022    2    1    0    0    0 -0.40115814236E+00  0.32878971331E+02  0.52202130407E+02  0.62499998051E+02  0.99999826856E+01 0.  0.
    3000022    2    5    5    0    0 -0.46419289955E+01  0.14747224392E+02  0.27505146740E+02  0.31553505733E+02  0.24998968017E+00 0.  0.
        -13    1    4    4    0    0 -0.72406878404E-01 -0.34492388952E+01 -0.84605421212E+01  0.91375209820E+01  0.10500000000E+00 0. -1.
         13    1    4    4    0    0 -0.30850879239E+00 -0.72515106265E+01 -0.17715163595E+02  0.19144650173E+02  0.10500000000E+00 0.  1.
    3000001    1    5    5    0    0  0.42407708532E+01  0.18131746939E+02  0.24696983667E+02  0.30946492318E+02  0.10000000000E+01 0. -1.
        -13    1    6    6    0    0 -0.34236338874E+01  0.10972334164E+02  0.20429396582E+02  0.23441089047E+02  0.10500000000E+00 0.  1.
         13    1    6    6    0    0 -0.12182951081E+01  0.37748902279E+01  0.70757501578E+01  0.81124166868E+01  0.10500000000E+00 0. -1.
</event>
<event>
11    0  0.3476221E-009  0.9118800E+02  0.7816531E-02  0.1126479E+00
         25   -1    0    0    0    0  0.00000000000E+00  0.00000000000E+00  0.99999998245E-14  0.12500000000E+03  0.12500000000E+03 0.  0.
    3000001    1    3    3    0    0  0.45784883995E+02  0.34484558162E+02  0.20762019875E+01  0.57365067496E+02  0.10000000000E+01 0.  1.
    1000022    2    1    0    0    0  0.47503816970E+02  0.39315756700E+02  0.19770596428E+01  0.62499998311E+02  0.99999836223E+01 0.  0.
    3000022    2    3    3    0    0  0.17189329747E+01  0.48311985373E+01 -0.99142344721E-01  0.51349308151E+01  0.24995077982E+00 0.  0.
    1000022    2    1    0    0    0 -0.47503816970E+02 -0.39315756700E+02 -0.19770596428E+01  0.62500001689E+02  0.10000004735E+02 0.  0.
    3000022    2    5    5    0    0 -0.38339022901E+02 -0.33508625836E+02 -0.50774298851E+01  0.51171784052E+02  0.25001275421E+00 0.  0.
        -13    1    4    4    0    0  0.93213828398E+00  0.27818216354E+01 -0.20323909201E-01  0.29357880464E+01  0.10500000000E+00 0. -1.
         13    1    4    4    0    0  0.78679469077E+00  0.20493769019E+01 -0.78818435521E-01  0.21991427687E+01  0.10500000000E+00 0.  1.
    3000001    1    5    5    0    0 -0.91647940694E+01 -0.58071308635E+01  0.31003702423E+01  0.11328217637E+02  0.10000000000E+01 0. -1.
        -13    1    6    6    0    0 -0.92165766960E+01 -0.80525103087E+01 -0.12401181306E+01  0.12301915552E+02  0.10500000000E+00 0.  1.
         13    1    6    6    0    0 -0.29122446205E+02 -0.25456115528E+02 -0.38373117545E+01  0.38869868500E+02  0.10500000000E+00 0. -1.
</event>
<event>
11    0  0.3476221E-009  0.9118800E+02  0.7816531E-02  0.1126479E+00
         25   -1    0    0    0    0  0.00000000000E+00  0.00000000000E+00  0.99999998245E-14  0.12500000000E+03  0.12500000000E+03 0.  0.
    3000001    1    3    3    0    0 -0.16638220272E+02 -0.22764101012E+02 -0.18799024760E+02  0.33903362674E+02  0.10000000000E+01 0. -1.
    1000022    2    1    0    0    0 -0.27032585683E+02 -0.36977077306E+02 -0.41330195952E+02  0.62500000613E+02  0.10000002220E+02 0.  0.
    3000022    2    3    3    0    0 -0.10394365411E+02 -0.14212976294E+02 -0.22531171192E+02  0.28596637938E+02  0.24999737543E+00 0.  0.
    1000022    2    1    0    0    0  0.27032585683E+02  0.36977077306E+02  0.41330195952E+02  0.62499999387E+02  0.99999945617E+01 0.  0.
    3000022    2    5    5    0    0  0.16720238761E+02  0.14600964647E+02  0.18549192822E+02  0.28929044377E+02  0.25000266933E+00 0.  0.
        -13    1    4    4    0    0 -0.65473857631E+01 -0.88873947050E+01 -0.14049755951E+02  0.17867868151E+02  0.10500000000E+00 0.  1.
         13    1    4    4    0    0 -0.38469796477E+01 -0.53255815889E+01 -0.84814152403E+01  0.10728769787E+02  0.10500000000E+00 0. -1.
    3000001    1    5    5    0    0  0.10312346922E+02  0.22376112658E+02  0.22781003130E+02  0.33570955011E+02  0.10000000000E+01 0. -1.
        -13    1    6    6    0    0  0.67342622350E+01  0.58069555852E+01  0.74696253989E+01  0.11613670807E+02  0.10500000000E+00 0. -1.
         13    1    6    6    0    0  0.99859765260E+01  0.87940090620E+01  0.11079567423E+02  0.17315373569E+02  0.10500000000E+00 0.  1.
</event>
<event>
11    0  0.3476221E-009  0.9118800E+02  0.7816531E-02  0.1126479E+00
         25   -1    0    0    0    0  0.00000000000E+00  0.00000000000E+00  0.99999998245E-14  0.12500000000E+03  0.12500000000E+03 0.  0.
    3000001    1    3    3    0    0 -0.47479404141E+01 -0.94082648883E+01  0.15165409509E+02  0.18494540599E+02  0.10000000000E+01 0. -1.
    1000022    2    1    0    0    0 -0.18550593992E+02 -0.17664887621E+02  0.56125547700E+02  0.62500000331E+02  0.10000007235E+02 0.  0.
    3000022    2    3    3    0    0 -0.13802653577E+02 -0.82566227329E+01  0.40960138191E+02  0.44005459732E+02  0.25000186091E+00 0.  0.
    1000022    2    1    0    0    0  0.18550593992E+02  0.17664887621E+02 -0.56125547700E+02  0.62499999669E+02  0.10000003092E+02 0.  0.
    3000022    2    5    5    0    0  0.53576520156E+01  0.16136330496E+01 -0.58891758040E+01  0.81273084296E+01  0.25000784091E+00 0.  0.
        -13    1    4    4    0    0 -0.51486430662E+01 -0.30115755992E+01  0.15221170135E+02  0.16348491009E+02  0.10500000000E+00 0. -1.
         13    1    4    4    0    0 -0.86540105113E+01 -0.52450471336E+01  0.25738968056E+02  0.27656968723E+02  0.10500000000E+00 0.  1.
    3000001    1    5    5    0    0  0.13192941976E+02  0.16051254572E+02 -0.50236371896E+02  0.54372691239E+02  0.10000000000E+01 0.  1.
        -13    1    6    6    0    0  0.20243306905E+01  0.67118085083E+00 -0.22222081750E+01  0.30818229430E+01  0.10500000000E+00 0. -1.
         13    1    6    6    0    0  0.33333213251E+01  0.94245219875E+00 -0.36669676290E+01  0.50454854865E+01  0.10500000000E+00 0. -1.
</event>
<event>
11    0  0.3476221E-009  0.9118800E+02  0.7816531E-02  0.1126479E+00
         25   -1    0    0    0    0  0.00000000000E+00  0.00000000000E+00  0.99999998245E-14  0.12500000000E+03  0.12500000000E+03 0.  0.
    3000001    1    3    3    0    0 -0.37335423105E+02  0.17163560143E+02  0.24725927137E+02  0.47967625416E+02  0.10000000000E+01 0. -1.
    1000022    2    1    0    0    0 -0.51191717419E+02  0.19115799538E+02  0.28639908883E+02  0.62499999073E+02  0.99999889539E+01 0.  0.
    3000022    2    3    3    0    0 -0.13856294313E+02  0.19522393944E+01  0.39139817462E+01  0.14532373657E+02  0.25000051919E+00 0.  0.
    1000022    2    1    0    0    0  0.51191717419E+02 -0.19115799538E+02 -0.28639908883E+02  0.62500000927E+02  0.10000000540E+02 0.  0.
    3000022    2    5    5    0    0  0.39016715841E+01 -0.26703683370E+01 -0.57226072220E+01  0.74272911894E+01  0.25002557624E+00 0.  0.
        -13    1    4    4    0    0 -0.96392287391E+01  0.13242221263E+01  0.26869129790E+01  0.10094494603E+02  0.10500000000E+00 0.  1.
         13    1    4    4    0    0 -0.42170655742E+01  0.62801726809E+00  0.12270687672E+01  0.44378790549E+01  0.10500000000E+00 0. -1.
    3000001    1    5    5    0    0  0.47290045835E+02 -0.16445431201E+02 -0.22917301661E+02  0.55072709737E+02  0.10000000000E+01 0. -1.
        -13    1    6    6    0    0  0.22210840632E+01 -0.15899972660E+01 -0.32569977874E+01  0.42521012816E+01  0.10500000000E+00 0.  1.
         13    1    6    6    0    0  0.16805875209E+01 -0.10803710710E+01 -0.24656094346E+01  0.31751899078E+01  0.10500000000E+00 0. -1.
</event>
<event>
11    0  0.3476221E-009  0.9118800E+02  0.7816531E-02  0.1126479E+00
         25   -1    0    0    0    0  0.00000000000E+00  0.00000000000E+00  0.99999998245E-14  0.12500000000E+03  0.12500000000E+03 0.  0.
    3000001    1    3    3    0    0 -0.63724054434E+01  0.25153355169E+02 -0.21498076490E+01  0.26056102938E+02  0.10000000000E+01 0.  1.
    1000022    2    1    0    0    0 -0.39588971177E+01  0.61513940084E+02 -0.25714926685E+01  0.62499997786E+02  0.99999728808E+01 0.  0.
    3000022    2    3    3    0    0  0.24135083257E+01  0.36360584915E+02 -0.42168501949E+00  0.36443894848E+02  0.24999121055E+00 0.  0.
    1000022    2    1    0    0    0  0.39588971177E+01 -0.61513940084E+02  0.25714926685E+01  0.62500002214E+02  0.10000000556E+02 0.  0.
    3000022    2    5    5    0    0  0.42768356249E+01 -0.51165036451E+02 -0.14064834319E+01  0.51363342698E+02  0.24999909537E+00 0.  0.
        -13    1    4    4    0    0  0.63390417439E+00  0.91676139775E+01 -0.11726516361E+00  0.91908517920E+01  0.10500000000E+00 0.  1.
         13    1    4    4    0    0  0.17796041513E+01  0.27192970938E+02 -0.30441985588E+00  0.27253043056E+02  0.10500000000E+00 0. -1.
    3000001    1    5    5    0    0 -0.31793850713E+00 -0.10348903634E+02  0.39779761004E+01  0.11136659516E+02  0.10000000000E+01 0. -1.
        -13    1    6    6    0    0  0.27246408710E+01 -0.32683520250E+02 -0.84058275341E+00  0.32807830897E+02  0.10500000000E+00 0.  1.
         13    1    6    6    0    0  0.15521947538E+01 -0.18481516201E+02 -0.56590067846E+00  0.18555511801E+02  0.10500000000E+00 0. -1.
</event>
<event>
11    0  0.3476221E-009  0.9118800E+02  0.7816531E-02  0.1126479E+00
         25   -1    0    0    0    0  0.00000000000E+00  0.00000000000E+00  0.99999998245E-14  0.12500000000E+03  0.12500000000E+03 0.  0.
    3000001    1    3    3    0    0 -0.94727122933E+01 -0.46625995001E+02  0.93317830930E+01  0.48495338577E+02  0.10000000000E+01 0.  1.
    1000022    2    1    0    0    0 -0.13253118056E+02 -0.59869211121E+02  0.68031620329E+01  0.62500002081E+02  0.99999834040E+01 0.  0.
    3000022    2    3    3    0    0 -0.37804057629E+01 -0.13243216120E+02 -0.25286210601E+01  0.14004663504E+02  0.24986890511E+00 0.  0.
    1000022    2    1    0    0    0  0.13253118056E+02  0.59869211121E+02 -0.68031620329E+01  0.62499997919E+02  0.99999573881E+01 0.  0.
    3000022    2    5    5    0    0  0.76069875578E+01  0.46766535504E+02 -0.20415614673E+01  0.47425790216E+02  0.25000324883E+00 0.  0.
        -13    1    4    4    0    0 -0.10038997324E+01 -0.36416739206E+01 -0.70908027893E+00  0.38449217754E+01  0.10500000000E+00 0. -1.
         13    1    4    4    0    0 -0.27765060304E+01 -0.96015421990E+01 -0.18195407811E+01  0.10159741729E+02  0.10500000000E+00 0.  1.
    3000001    1    5    5    0    0  0.56461304984E+01  0.13102675617E+02 -0.47616005657E+01  0.15074207703E+02  0.10000000000E+01 0. -1.
        -13    1    6    6    0    0  0.44996453375E+01  0.27301711474E+02 -0.11640486762E+01  0.27694697902E+02  0.10500000000E+00 0. -1.
         13    1    6    6    0    0  0.31073422203E+01  0.19464824030E+02 -0.87751279105E+00  0.19731092314E+02  0.10500000000E+00 0.  1.
</event>
<event>
11    0  0.3476221E-009  0.9118800E+02  0.7816531E-02  0.1126479E+00
         25   -1    0    0    0    0  0.00000000000E+00  0.00000000000E+00  0.99999998245E-14  0.12500000000E+03  0.12500000000E+03 0.  0.
    3000001    1    3    3    0    0  0.38163130640E+02  0.42298862444E+02 -0.13221011522E+02  0.58492849563E+02  0.10000000000E+01 0.  1.
    1000022    2    1    0    0    0  0.40011381279E+02  0.45488080236E+02 -0.11669360903E+02  0.62499999826E+02  0.99999959456E+01 0.  0.
    3000022    2    3    3    0    0  0.18482506389E+01  0.31892177923E+01  0.15516506189E+01  0.40071502631E+01  0.24998607377E+00 0.  0.
    1000022    2    1    0    0    0 -0.40011381279E+02 -0.45488080236E+02  0.11669360903E+02  0.62500000174E+02  0.99999981211E+01 0.  0.
    3000022    2    5    5    0    0 -0.18704287639E+01 -0.18944684596E+01 -0.15334031774E+01  0.30824251153E+01  0.25000956274E+00 0.  0.
        -13    1    4    4    0    0  0.91672766743E+00  0.17139188970E+01  0.83155313071E+00  0.21166986585E+01  0.10500000000E+00 0. -1.
         13    1    4    4    0    0  0.93152297143E+00  0.14752988953E+01  0.72009748818E+00  0.18904516046E+01  0.10500000000E+00 0.  1.
    3000001    1    5    5    0    0 -0.38140952515E+02 -0.43593611777E+02  0.13202764080E+02  0.59417575059E+02  0.10000000000E+01 0.  1.
        -13    1    6    6    0    0 -0.13457563420E+01 -0.13352494158E+01 -0.11326750413E+01  0.22108660936E+01  0.10500000000E+00 0. -1.
         13    1    6    6    0    0 -0.52467242193E+00 -0.55921904377E+00 -0.40072813601E+00  0.87155902166E+00  0.10500000000E+00 0.  1.
</event>
<event>
11    0  0.3476221E-009  0.9118800E+02  0.7816531E-02  0.1126479E+00
         25   -1    0    0    0    0  0.00000000000E+00  0.00000000000E+00  0.99999998245E-14  0.12500000000E+03  0.12500000000E+03 0.  0.
    3000001    1    3    3    0    0 -0.95129864207E+00  0.48481256059E+02 -0.25241884061E+02  0.54676227642E+02  0.10000000000E+01 0.  1.
    1000022    2    1    0    0    0  0.11423711960E+01  0.53317592185E+02 -0.31019020696E+02  0.62499999181E+02  0.99999802210E+01 0.  0.
    3000022    2    3    3    0    0  0.20936698381E+01  0.48363361256E+01 -0.57771366348E+01  0.78237715396E+01  0.24998579426E+00 0.  0.
    1000022    2    1    0    0    0 -0.11423711960E+01 -0.53317592185E+02  0.31019020696E+02  0.62500000819E+02  0.99999904528E+01 0.  0.
    3000022    2    5    5    0    0 -0.13899796872E+01 -0.25266276584E+02  0.91235684544E+01  0.26900163098E+02  0.24999477452E+00 0.  0.
        -13    1    4    4    0    0  0.12600728765E+01  0.28827209096E+01 -0.33550505768E+01  0.46005709287E+01  0.10500000000E+00 0.  1.
         13    1    4    4    0    0  0.83359696154E+00  0.19536152159E+01 -0.24220860579E+01  0.32232006109E+01  0.10500000000E+00 0. -1.
    3000001    1    5    5    0    0  0.24760849114E+00 -0.28051315601E+02  0.21895452241E+02  0.35599837721E+02  0.10000000000E+01 0.  1.
        -13    1    6    6    0    0 -0.91610578285E+00 -0.15539242307E+02  0.56063150611E+01  0.16545364754E+02  0.10500000000E+00 0.  1.
         13    1    6    6    0    0 -0.47387390430E+00 -0.97270342765E+01  0.35172533933E+01  0.10354798343E+02  0.10500000000E+00 0. -1.
</event>
<event>
11    0  0.3476221E-009  0.9118800E+02  0.7816531E-02  0.1126479E+00
         25   -1    0    0    0    0  0.00000000000E+00  0.00000000000E+00  0.99999998245E-14  0.12500000000E+03  0.12500000000E+03 0.  0.
    3000001    1    3    3    0    0  0.77381069521E+01  0.37673411734E+02  0.15559637395E+02  0.41500199599E+02  0.10000000000E+01 0. -1.
    1000022    2    1    0    0    0  0.11363275086E+02  0.58331792412E+02  0.16568886698E+02  0.62500000138E+02  0.99999992073E+01 0.  0.
    3000022    2    3    3    0    0  0.36251681344E+01  0.20658380678E+02  0.10092493025E+01  0.20999800539E+02  0.25000455950E+00 0.  0.
    1000022    2    1    0    0    0 -0.11363275086E+02 -0.58331792412E+02 -0.16568886698E+02  0.62499999862E+02  0.99999974846E+01 0.  0.
    3000022    2    5    5    0    0  0.55253689950E+00 -0.21220933847E+00  0.43362166595E+00  0.77514423193E+00  0.24998200430E+00 0.  0.
        -13    1    4    4    0    0  0.18910991941E+01  0.10720221271E+02  0.59084022355E+00  0.10902271205E+02  0.10500000000E+00 0. -1.
         13    1    4    4    0    0  0.17340689403E+01  0.99381594077E+01  0.41840907899E+00  0.10097529334E+02  0.10500000000E+00 0.  1.
    3000001    1    5    5    0    0 -0.11915811986E+02 -0.58119583073E+02 -0.17002508364E+02  0.61724855630E+02  0.10000000000E+01 0. -1.
        -13    1    6    6    0    0  0.33108517236E+00 -0.57694082740E-01  0.21995247000E+00  0.41515068059E+00  0.10500000000E+00 0. -1.
         13    1    6    6    0    0  0.22145172714E+00 -0.15451525573E+00  0.21366919595E+00  0.35999355134E+00  0.10500000000E+00 0.  1.
</event>
<event>
11    0  0.3476221E-009  0.9118800E+02  0.7816531E-02  0.1126479E+00
         25   -1    0    0    0    0  0.00000000000E+00  0.00000000000E+00  0.99999998245E-14  0.12500000000E+03  0.12500000000E+03 0.  0.
    3000001    1    3    3    0    0  0.37221704824E+02  0.33723187541E+02 -0.19401958580E+01  0.50273979829E+02  0.10000000000E+01 0. -1.
    1000022    2    1    0    0    0  0.47470608662E+02  0.39373466577E+02  0.15878899410E+01  0.62499999903E+02  0.10000001825E+02 0.  0.
    3000022    2    3    3    0    0  0.10248903838E+02  0.56502790358E+01  0.35280857990E+01  0.12226020074E+02  0.24998878014E+00 0.  0.
    1000022    2    1    0    0    0 -0.47470608662E+02 -0.39373466577E+02 -0.15878899410E+01  0.62500000097E+02  0.10000003032E+02 0.  0.
    3000022    2    5    5    0    0 -0.17707006133E+02 -0.18543001520E+02 -0.45331990094E+01  0.26038305738E+02  0.25000180480E+00 0.  0.
        -13    1    4    4    0    0  0.31102054368E+01  0.16992787173E+01  0.11153080420E+01  0.37169696053E+01  0.10500000000E+00 0.  1.
         13    1    4    4    0    0  0.71386984009E+01  0.39510003185E+01  0.24127777570E+01  0.85090504688E+01  0.10500000000E+00 0. -1.
    3000001    1    5    5    0    0 -0.29763602529E+02 -0.20830465056E+02  0.29453090684E+01  0.36461694358E+02  0.10000000000E+01 0.  1.
        -13    1    6    6    0    0 -0.12057543002E+02 -0.12697628584E+02 -0.30848775628E+01  0.17780371467E+02  0.10500000000E+00 0.  1.
         13    1    6    6    0    0 -0.56494631308E+01 -0.58453729358E+01 -0.14483214467E+01  0.82579342718E+01  0.10500000000E+00 0. -1.
</event>
<event>
11    0  0.3476221E-009  0.9118800E+02  0.7816531E-02  0.1126479E+00
         25   -1    0    0    0    0  0.00000000000E+00  0.00000000000E+00  0.99999998245E-14  0.12500000000E+03  0.12500000000E+03 0.  0.
    3000001    1    3    3    0    0  0.12775611689E+02  0.23456331292E+01 -0.25585677546E+02  0.28711411395E+02  0.10000000000E+01 0. -1.
    1000022    2    1    0    0    0  0.34211661333E+02 -0.22826420858E+01 -0.51289392269E+02  0.62499998291E+02  0.99999900502E+01 0.  0.
    3000022    2    3    3    0    0  0.21436049644E+02 -0.46282752150E+01 -0.25703714722E+02  0.33788586896E+02  0.24999612341E+00 0.  0.
    1000022    2    1    0    0    0 -0.34211661333E+02  0.22826420858E+01  0.51289392269E+02  0.62500001709E+02  0.10000011413E+02 0.  0.
    3000022    2    5    5    0    0 -0.15506419221E+02  0.55982382895E+01  0.27171151662E+02  0.31782436854E+02  0.25000147020E+00 0.  0.
        -13    1    4    4    0    0  0.88759300727E+01 -0.18770049770E+01 -0.10712880073E+02  0.14038593477E+02  0.10500000000E+00 0.  1.
         13    1    4    4    0    0  0.12560119572E+02 -0.27512702380E+01 -0.14990834649E+02  0.19749993419E+02  0.10500000000E+00 0. -1.
    3000001    1    5    5    0    0 -0.18705242112E+02 -0.33155962037E+01  0.24118240606E+02  0.30717564855E+02  0.10000000000E+01 0.  1.
        -13    1    6    6    0    0 -0.45744057867E+01  0.16380373560E+01  0.80912111763E+01  0.94385951274E+01  0.10500000000E+00 0.  1.
         13    1    6    6    0    0 -0.10932013435E+02  0.39602009335E+01  0.19079940486E+02  0.22343841727E+02  0.10500000000E+00 0. -1.
</event>
<event>
11    0  0.3476221E-009  0.9118800E+02  0.7816531E-02  0.1126479E+00
         25   -1    0    0    0    0  0.00000000000E+00  0.00000000000E+00  0.99999998245E-14  0.12500000000E+03  0.12500000000E+03 0.  0.
    3000001    1    3    3    0    0  0.39581727831E+02 -0.52966736976E+01  0.34428823270E+02  0.52736247516E+02  0.10000000000E+01 0. -1.
    1000022    2    1    0    0    0  0.48824636521E+02 -0.70063456721E+01  0.37058277346E+02  0.62500000452E+02  0.10000006276E+02 0.  0.
    3000022    2    3    3    0    0  0.92429086903E+01 -0.17096719745E+01  0.26294540769E+01  0.97637529361E+01  0.25000667614E+00 0.  0.
    1000022    2    1    0    0    0 -0.48824636521E+02  0.70063456721E+01 -0.37058277346E+02  0.62499999548E+02  0.10000000622E+02 0.  0.
    3000022    2    5    5    0    0 -0.43646419811E+02  0.64336275161E+01 -0.36316968109E+02  0.57143557279E+02  0.24988112608E+00 0.  0.
        -13    1    4    4    0    0  0.51547101394E+01 -0.98943705502E+00  0.14099907372E+01  0.54359103365E+01  0.10500000000E+00 0. -1.
         13    1    4    4    0    0  0.40881985508E+01 -0.72023491952E+00  0.12194633397E+01  0.43278425997E+01  0.10500000000E+00 0.  1.
    3000001    1    5    5    0    0 -0.51782167106E+01  0.57271815601E+00 -0.74130923723E+00  0.53564422682E+01  0.10000000000E+01 0. -1.
        -13    1    6    6    0    0 -0.19218220659E+02  0.28100628230E+01 -0.16068698920E+02  0.25208144881E+02  0.10500000000E+00 0.  1.
         13    1    6    6    0    0 -0.24428199152E+02  0.36235646931E+01 -0.20248269189E+02  0.31935412398E+02  0.10500000000E+00 0. -1.
</event>
<event>
11    0  0.3476221E-009  0.9118800E+02  0.7816531E-02  0.1126479E+00
         25   -1    0    0    0    0  0.00000000000E+00  0.00000000000E+00  0.99999998245E-14  0.12500000000E+03  0.12500000000E+03 0.  0.
    3000001    1    3    3    0    0 -0.12613403559E+02 -0.44301332874E+02  0.32347978717E+02  0.56294740170E+02  0.10000000000E+01 0. -1.
    1000022    2    1    0    0    0 -0.16407878014E+02 -0.47000096662E+02  0.36442044374E+02  0.62499999048E+02  0.99999867864E+01 0.  0.
    3000022    2    3    3    0    0 -0.37944744549E+01 -0.26987637880E+01  0.40940656573E+01  0.62052588783E+01  0.25000353716E+00 0.  0.
    1000022    2    1    0    0    0  0.16407878014E+02  0.47000096662E+02 -0.36442044374E+02  0.62500000952E+02  0.99999986849E+01 0.  0.
    3000022    2    5    5    0    0  0.36613019189E+01  0.94821649356E+01 -0.28929968519E+01  0.10571116959E+02  0.24999871987E+00 0.  0.
        -13    1    4    4    0    0 -0.14051804680E+01 -0.97110763144E+00  0.15757003027E+01  0.23262499056E+01  0.10500000000E+00 0. -1.
         13    1    4    4    0    0 -0.23892939869E+01 -0.17276561566E+01  0.25183653546E+01  0.38790089727E+01  0.10500000000E+00 0.  1.
    3000001    1    5    5    0    0  0.12746576095E+02  0.37517931726E+02 -0.33549047522E+02  0.51928883993E+02  0.10000000000E+01 0. -1.
        -13    1    6    6    0    0  0.27475156215E+01  0.71485398870E+01 -0.21572813838E+01  0.79570944807E+01  0.10500000000E+00 0. -1.
         13    1    6    6    0    0  0.91378629747E+00  0.23336250486E+01 -0.73571546809E+00  0.26140224779E+01  0.10500000000E+00 0.  1.
</event>
<event>
11    0  0.3476221E-009  0.9118800E+02  0.7816531E-02  0.1126479E+00
         25   -1    0    0    0    0  0.00000000000E+00  0.00000000000E+00  0.99999998245E-14  0.12500000000E+03  0.12500000000E+03 0.  0.
    3000001    1    3    3    0    0 -0.52377525555E+02  0.13860152039E+02  0.24667057506E+02  0.59539673528E+02  0.10000000000E+01 0. -1.
    1000022    2    1    0    0    0 -0.53333349121E+02  0.15763049934E+02  0.26708242341E+02  0.62500000838E+02  0.10000001208E+02 0.  0.
    3000022    2    3    3    0    0 -0.95582356601E+00  0.19028978947E+01  0.20411848353E+01  0.29603273104E+01  0.24996632942E+00 0.  0.
    1000022    2    1    0    0    0  0.53333349121E+02 -0.15763049934E+02 -0.26708242341E+02  0.62499999162E+02  0.99999907339E+01 0.  0.
    3000022    2    5    5    0    0  0.25841676740E+01 -0.14570921750E+01 -0.42302520476E+01  0.51728686520E+01  0.24999506080E+00 0.  0.
        -13    1    4    4    0    0 -0.42926225035E+00  0.82638855981E+00  0.80487608976E+00  0.12353277505E+01  0.10500000000E+00 0. -1.
         13    1    4    4    0    0 -0.52656131566E+00  0.10765093349E+01  0.12363087455E+01  0.17249995598E+01  0.10500000000E+00 0.  1.
    3000001    1    5    5    0    0  0.50749181447E+02 -0.14305957758E+02 -0.22477990293E+02  0.57327130510E+02  0.10000000000E+01 0. -1.
        -13    1    6    6    0    0  0.13389975370E+01 -0.70886974557E+00 -0.22541202471E+01  0.27179944461E+01  0.10500000000E+00 0. -1.
         13    1    6    6    0    0  0.12451701370E+01 -0.74822242946E+00 -0.19761318004E+01  0.24548742059E+01  0.10500000000E+00 0.  1.
</event>
<event>
11    0  0.3476221E-009  0.9118800E+02  0.7816531E-02  0.1126479E+00
         25   -1    0    0    0    0  0.00000000000E+00  0.00000000000E+00  0.99999998245E-14  0.12500000000E+03  0.12500000000E+03 0.  0.
    3000001    1    3    3    0    0 -0.16335160753E+02 -0.33192128015E+02 -0.18205239827E+02  0.41243006633E+02  0.10000000000E+01 0. -1.
    1000022    2    1    0    0    0 -0.17855314487E+02 -0.52007534081E+02 -0.27975955900E+02  0.62499999990E+02  0.10000001684E+02 0.  0.
    3000022    2    3    3    0    0 -0.15201537332E+01 -0.18815406066E+02 -0.97707160735E+01  0.21256993357E+02  0.25000240088E+00 0.  0.
    1000022    2    1    0    0    0  0.17855314487E+02  0.52007534081E+02  0.27975955900E+02  0.62500000010E+02  0.10000001805E+02 0.  0.
    3000022    2    5    5    0    0  0.21495473398E+01  0.27259421826E+01 -0.38653258361E+00  0.35018883901E+01  0.25000061888E+00 0.  0.
        -13    1    4    4    0    0 -0.56777725342E+00 -0.76567200711E+01 -0.39306696319E+01  0.86260606311E+01  0.10500000000E+00 0.  1.
         13    1    4    4    0    0 -0.95237647982E+00 -0.11158685995E+02 -0.58400464416E+01  0.12630932726E+02  0.10500000000E+00 0. -1.
    3000001    1    5    5    0    0  0.15705767147E+02  0.49281591898E+02  0.28362488484E+02  0.58998111620E+02  0.10000000000E+01 0. -1.
        -13    1    6    6    0    0  0.11014653328E+01  0.13333854963E+01 -0.13689324514E+00  0.17380758101E+01  0.10500000000E+00 0. -1.
         13    1    6    6    0    0  0.10480820070E+01  0.13925566863E+01 -0.24963933846E+00  0.17638125800E+01  0.10500000000E+00 0.  1.
</event>
<event>
11    0  0.3476221E-009  0.9118800E+02  0.7816531E-02  0.1126479E+00
         25   -1    0    0    0    0  0.00000000000E+00  0.00000000000E+00  0.99999998245E-14  0.12500000000E+03  0.12500000000E+03 0.  0.
    3000001    1    3    3    0    0 -0.15733162850E+02  0.15902881198E+02 -0.28213733497E+02  0.36020116623E+02  0.10000000000E+01 0. -1.
    1000022    2    1    0    0    0 -0.31551171597E+02  0.20241922622E+02 -0.49000391017E+02  0.62500001722E+02  0.10000001739E+02 0.  0.
    3000022    2    3    3    0    0 -0.15818008747E+02  0.43390414244E+01 -0.20786657521E+02  0.26479885100E+02  0.25000560213E+00 0.  0.
    1000022    2    1    0    0    0  0.31551171597E+02 -0.20241922622E+02  0.49000391017E+02  0.62499998278E+02  0.99999802137E+01 0.  0.
    3000022    2    5    5    0    0  0.29343414380E+02 -0.14877811568E+02  0.41039933193E+02  0.52599656460E+02  0.24999743133E+00 0.  0.
        -13    1    4    4    0    0 -0.99072135670E+01  0.27779733024E+01 -0.13015764834E+02  0.16591900902E+02  0.10500000000E+00 0. -1.
         13    1    4    4    0    0 -0.59107951798E+01  0.15610681221E+01 -0.77708926864E+01  0.98879841972E+01  0.10500000000E+00 0.  1.
    3000001    1    5    5    0    0  0.22077572174E+01 -0.53641110545E+01  0.79604578247E+01  0.99003418181E+01  0.10000000000E+01 0.  1.
        -13    1    6    6    0    0  0.10711198411E+02 -0.54843491143E+01  0.14956000546E+02  0.19196375541E+02  0.10500000000E+00 0.  1.
         13    1    6    6    0    0  0.18632215969E+02 -0.93934624536E+01  0.26083932647E+02  0.33403280918E+02  0.10500000000E+00 0. -1.
</event>
<event>
11    0  0.3476221E-009  0.9118800E+02  0.7816531E-02  0.1126479E+00
         25   -1    0    0    0    0  0.00000000000E+00  0.00000000000E+00  0.99999998245E-14  0.12500000000E+03  0.12500000000E+03 0.  0.
    3000001    1    3    3    0    0  0.30099629245E+02  0.12246767580E+02 -0.19562945087E+02  0.37943112910E+02  0.10000000000E+01 0.  1.
    1000022    2    1    0    0    0  0.52845698820E+02  0.19758617403E+02 -0.24963557681E+02  0.62499999666E+02  0.99999950293E+01 0.  0.
    3000022    2    3    3    0    0  0.22746069575E+02  0.75118498233E+01 -0.54006125941E+01  0.24556886755E+02  0.25000363965E+00 0.  0.
    1000022    2    1    0    0    0 -0.52845698820E+02 -0.19758617403E+02  0.24963557681E+02  0.62500000334E+02  0.99999992087E+01 0.  0.
    3000022    2    5    5    0    0 -0.34644912712E+02 -0.16636068646E+02  0.13466930790E+02  0.40724065094E+02  0.24999211921E+00 0.  0.
        -13    1    4    4    0    0  0.12392128313E+02  0.40253563465E+01 -0.29584449242E+01  0.13361577721E+02  0.10500000000E+00 0. -1.
         13    1    4    4    0    0  0.10353941263E+02  0.34864934768E+01 -0.24421676699E+01  0.11195309034E+02  0.10500000000E+00 0.  1.
    3000001    1    5    5    0    0 -0.18200786109E+02 -0.31225487568E+01  0.11496626892E+02  0.21775935241E+02  0.10000000000E+01 0.  1.
        -13    1    6    6    0    0 -0.26064354578E+02 -0.12541257199E+02  0.10125568737E+02  0.30645911293E+02  0.10500000000E+00 0.  1.
         13    1    6    6    0    0 -0.85805581335E+01 -0.40948114477E+01  0.33413620524E+01  0.10078153801E+02  0.10500000000E+00 0. -1.
</event>
<event>
11    0  0.3476221E-009  0.9118800E+02  0.7816531E-02  0.1126479E+00
         25   -1    0    0    0    0  0.00000000000E+00  0.00000000000E+00  0.99999998245E-14  0.12500000000E+03  0.12500000000E+03 0.  0.
    3000001    1    3    3    0    0 -0.40962328846E+01  0.86917285820E+00  0.11420679013E+01  0.44540885031E+01  0.10000000000E+01 0. -1.
    1000022    2    1    0    0    0 -0.39362977565E+02  0.20226628393E+02  0.42984760089E+02  0.62499999132E+02  0.99999896372E+01 0.  0.
    3000022    2    3    3    0    0 -0.35266744680E+02  0.19357455535E+02  0.41842692188E+02  0.58045910629E+02  0.24997232862E+00 0.  0.
    1000022    2    1    0    0    0  0.39362977565E+02 -0.20226628393E+02 -0.42984760089E+02  0.62500000868E+02  0.10000000483E+02 0.  0.
    3000022    2    5    5    0    0  0.67436135979E+01 -0.29959594856E+01 -0.12998213697E+02  0.14948851343E+02  0.24999913602E+00 0.  0.
        -13    1    4    4    0    0 -0.20872782371E+02  0.11453687655E+02  0.24671121407E+02  0.34286079701E+02  0.10500000000E+00 0.  1.
         13    1    4    4    0    0 -0.14393962309E+02  0.79037678795E+01  0.17171570781E+02  0.23759830928E+02  0.10500000000E+00 0. -1.
    3000001    1    5    5    0    0  0.32619363967E+02 -0.17230668907E+02 -0.29986546392E+02  0.47551149524E+02  0.10000000000E+01 0.  1.
        -13    1    6    6    0    0  0.44647854512E+01 -0.20329990709E+01 -0.86981769370E+01  0.99868263915E+01  0.10500000000E+00 0. -1.
         13    1    6    6    0    0  0.22788281467E+01 -0.96296041473E+00 -0.43000367601E+01  0.49620249516E+01  0.10500000000E+00 0.  1.
</event>
<event>
11    0  0.3476221E-009  0.9118800E+02  0.7816531E-02  0.1126479E+00
         25   -1    0    0    0    0  0.00000000000E+00  0.00000000000E+00  0.99999998245E-14  0.12500000000E+03  0.12500000000E+03 0.  0.
    3000001    1    3    3    0    0  0.48083600738E+00  0.59391462163E+01 -0.43002206582E+01  0.74159664746E+01  0.10000000000E+01 0. -1.
    1000022    2    1    0    0    0 -0.80682427181E+00  0.60349468454E+02 -0.12788287527E+02  0.62500002419E+02  0.10000034819E+02 0.  0.
    3000022    2    3    3    0    0 -0.12876602792E+01  0.54410322237E+02 -0.84880668692E+01  0.55084035944E+02  0.25000342822E+00 0.  0.
    1000022    2    1    0    0    0  0.80682427181E+00 -0.60349468454E+02  0.12788287527E+02  0.62499997581E+02  0.10000004587E+02 0.  0.
    3000022    2    5    5    0    0 -0.30387242711E+01 -0.80057047370E+01  0.46907234767E+00  0.85794921473E+01  0.25000621345E+00 0.  0.
        -13    1    4    4    0    0 -0.36920339452E+00  0.17348034450E+02 -0.27355217057E+01  0.17566579475E+02  0.10500000000E+00 0. -1.
         13    1    4    4    0    0 -0.91845688467E+00  0.37062287787E+02 -0.57525451635E+01  0.37517456469E+02  0.10500000000E+00 0.  1.
    3000001    1    5    5    0    0  0.38455485429E+01 -0.52343763717E+02  0.12319215180E+02  0.53920505434E+02  0.10000000000E+01 0.  1.
        -13    1    6    6    0    0 -0.99502653646E+00 -0.27680409013E+01  0.14204574524E+00  0.29467490957E+01  0.10500000000E+00 0.  1.
         13    1    6    6    0    0 -0.20436977346E+01 -0.52376638358E+01  0.32702660243E+00  0.56327430516E+01  0.10500000000E+00 0. -1.
</event>
<event>
11    0  0.3476221E-009  0.9118800E+02  0.7816531E-02  0.1126479E+00
         25   -1    0    0    0    0  0.00000000000E+00  0.00000000000E+00  0.99999998245E-14  0.12500000000E+03  0.12500000000E+03 0.  0.
    3000001    1    3    3    0    0 -0.45378442020E+02  0.13769709272E+02  0.32148431042E+02  0.57300344781E+02  0.10000000000E+01 0. -1.
    1000022    2    1    0    0    0 -0.50546243094E+02  0.13624471861E+02  0.32645075134E+02  0.62500000447E+02  0.10000010052E+02 0.  0.
    3000022    2    3    3    0    0 -0.51678010739E+01 -0.14523741083E+00  0.49664409169E+00  0.51996556661E+01  0.25000369461E+00 0.  0.
    1000022    2    1    0    0    0  0.50546243094E+02 -0.13624471861E+02 -0.32645075134E+02  0.62499999553E+02  0.10000004460E+02 0.  0.
    3000022    2    5    5    0    0  0.95566748610E+01 -0.65485549256E+01 -0.55557089737E+01  0.12850759243E+02  0.25000981303E+00 0.  0.
        -13    1    4    4    0    0 -0.35543298769E+01 -0.14585048749E+00  0.35845662083E+00  0.35768770439E+01  0.10500000000E+00 0.  1.
         13    1    4    4    0    0 -0.16134711970E+01  0.61307665974E-03  0.13818747086E+00  0.16227786222E+01  0.10500000000E+00 0. -1.
    3000001    1    5    5    0    0  0.40989568233E+02 -0.70759169358E+01 -0.27089366160E+02  0.49649240310E+02  0.10000000000E+01 0.  1.
        -13    1    6    6    0    0  0.47113504070E+01 -0.32326434021E+01 -0.26649858256E+01  0.63055515598E+01  0.10500000000E+00 0. -1.
         13    1    6    6    0    0  0.48453244540E+01 -0.33159115235E+01 -0.28907231481E+01  0.65452076831E+01  0.10500000000E+00 0.  1.
</event>
<event>
11    0  0.3476221E-009  0.9118800E+02  0.7816531E-02  0.1126479E+00
         25   -1    0    0    0    0  0.00000000000E+00  0.00000000000E+00  0.99999998245E-14  0.12500000000E+03  0.12500000000E+03 0.  0.
    3000001    1    3    3    0    0 -0.31297230785E+01  0.21218902126E+02  0.22713441565E+02  0.31255997852E+02  0.10000000000E+01 0.  1.
    1000022    2    1    0    0    0 -0.88591457737E+01  0.48031810025E+02  0.37692317704E+02  0.62499998302E+02  0.99999867846E+01 0.  0.
    3000022    2    3    3    0    0 -0.57294226952E+01  0.26812907900E+02  0.14978876139E+02  0.31244000450E+02  0.25003859399E+00 0.  0.
    1000022    2    1    0    0    0  0.88591457737E+01 -0.48031810025E+02 -0.37692317704E+02  0.62500001698E+02  0.10000008009E+02 0.  0.
    3000022    2    5    5    0    0  0.42750100526E+01 -0.52234741479E+01 -0.43163204790E+01  0.80158286596E+01  0.24998699635E+00 0.  0.
        -13    1    4    4    0    0 -0.43303213815E+01  0.20223157225E+02  0.11273178953E+02  0.23554688708E+02  0.10500000000E+00 0.  1.
         13    1    4    4    0    0 -0.13991013137E+01  0.65897506747E+01  0.37056971859E+01  0.76893117426E+01  0.10500000000E+00 0. -1.
    3000001    1    5    5    0    0  0.45841357211E+01 -0.42808335877E+02 -0.33375997225E+02  0.54484173038E+02  0.10000000000E+01 0. -1.
        -13    1    6    6    0    0  0.26137652799E+01 -0.31749960824E+01 -0.25568210882E+01  0.48436275805E+01  0.10500000000E+00 0.  1.
         13    1    6    6    0    0  0.16612447727E+01 -0.20484780656E+01 -0.17594993908E+01  0.31722010791E+01  0.10500000000E+00 0. -1.
</event>
<event>
11    0  0.3476221E-009  0.9118800E+02  0.7816531E-02  0.1126479E+00
         25   -1    0    0    0    0  0.00000000000E+00  0.00000000000E+00  0.99999998245E-14  0.12500000000E+03  0.12500000000E+03 0.  0.
    3000001    1    3    3    0    0 -0.79012971625E+00  0.83194893790E+00  0.88500843272E+00  0.17605919260E+01  0.10000000000E+01 0. -1.
    1000022    2    1    0    0    0 -0.60545694810E+02  0.16073918430E+01  0.11742454033E+02  0.62499998196E+02  0.99999839620E+01 0.  0.
    3000022    2    3    3    0    0 -0.59755565094E+02  0.77544290507E+00  0.10857445600E+02  0.60739406270E+02  0.24995543915E+00 0.  0.
    1000022    2    1    0    0    0  0.60545694810E+02 -0.16073918430E+01 -0.11742454033E+02  0.62500001804E+02  0.10000006511E+02 0.  0.
    3000022    2    5    5    0    0  0.41538394029E+02  0.29601539701E+00 -0.35521656227E+01  0.41691799903E+02  0.24998987552E+00 0.  0.
        -13    1    4    4    0    0 -0.31071107405E+02  0.47076696135E+00  0.56432306594E+01  0.31583103302E+02  0.10500000000E+00 0.  1.
         13    1    4    4    0    0 -0.28684457689E+02  0.30467594372E+00  0.52142149409E+01  0.29156302969E+02  0.10500000000E+00 0. -1.
    3000001    1    5    5    0    0  0.19007300781E+02 -0.19034072400E+01 -0.81902884103E+01  0.20808201901E+02  0.10000000000E+01 0.  1.
        -13    1    6    6    0    0  0.16670056456E+02  0.12206320807E+00 -0.14888719404E+01  0.16737187528E+02  0.10500000000E+00 0. -1.
         13    1    6    6    0    0  0.24868337573E+02  0.17395218894E+00 -0.20632936823E+01  0.24954612375E+02  0.10500000000E+00 0.  1.
</event>
<event>
11    0  0.3476221E-009  0.9118800E+02  0.7816531E-02  0.1126479E+00
         25   -1    0    0    0    0  0.00000000000E+00  0.00000000000E+00  0.99999998245E-14  0.12500000000E+03  0.12500000000E+03 0.  0.
    3000001    1    3    3    0    0  0.24842123691E+01 -0.11504320278E+01  0.49620563677E+01  0.57547205268E+01  0.10000000000E+01 0.  1.
    1000022    2    1    0    0    0  0.20295373933E+02 -0.39254534410E+02  0.43051476033E+02  0.62499997717E+02  0.99999725624E+01 0.  0.
    3000022    2    3    3    0    0  0.17811161564E+02 -0.38104102382E+02  0.38089419665E+02  0.56745277190E+02  0.24999682154E+00 0.  0.
    1000022    2    1    0    0    0 -0.20295373933E+02  0.39254534410E+02 -0.43051476033E+02  0.62500002283E+02  0.10000001097E+02 0.  0.
    3000022    2    5    5    0    0 -0.80847404049E+01  0.15271022622E+02 -0.10377687227E+02  0.20157530888E+02  0.25000002726E+00 0.  0.
        -13    1    4    4    0    0  0.65351997315E+01 -0.14118331301E+02  0.14105498942E+02  0.21000291418E+02  0.10500000000E+00 0.  1.
         13    1    4    4    0    0  0.11275961833E+02 -0.23985771081E+02  0.23983920723E+02  0.35744985772E+02  0.10500000000E+00 0. -1.
    3000001    1    5    5    0    0 -0.12210633528E+02  0.23983511788E+02 -0.32673788806E+02  0.42342471394E+02  0.10000000000E+01 0. -1.
        -13    1    6    6    0    0 -0.39851958489E+01  0.74726444256E+01 -0.50131801576E+01  0.98420120381E+01  0.10500000000E+00 0. -1.
         13    1    6    6    0    0 -0.40995445560E+01  0.77983781961E+01 -0.53645070692E+01  0.10315518850E+02  0.10500000000E+00 0.  1.
</event>
<event>
11    0  0.3476221E-009  0.9118800E+02  0.7816531E-02  0.1126479E+00
         25   -1    0    0    0    0  0.00000000000E+00  0.00000000000E+00  0.99999998245E-14  0.12500000000E+03  0.12500000000E+03 0.  0.
    3000001    1    3    3    0    0 -0.20753450060E+01 -0.12582124914E+02 -0.53067753157E+01  0.13848421877E+02  0.10000000000E+01 0.  1.
    1000022    2    1    0    0    0 -0.24523378721E+02 -0.54888990092E+02 -0.13858300318E+02  0.62500001081E+02  0.10000015511E+02 0.  0.
    3000022    2    3    3    0    0 -0.22448033715E+02 -0.42306865178E+02 -0.85515250026E+01  0.48651579203E+02  0.25004055249E+00 0.  0.
    1000022    2    1    0    0    0  0.24523378721E+02  0.54888990092E+02  0.13858300318E+02  0.62499998919E+02  0.10000002001E+02 0.  0.
    3000022    2    5    5    0    0  0.12009124717E+02  0.32888818991E+02  0.12339603321E+02  0.37124409817E+02  0.25000606308E+00 0.  0.
        -13    1    4    4    0    0 -0.14116836856E+02 -0.26732062605E+02 -0.53999507636E+01  0.30709261586E+02  0.10500000000E+00 0.  1.
         13    1    4    4    0    0 -0.83311968592E+01 -0.15574802573E+02 -0.31515742390E+01  0.17942317617E+02  0.10500000000E+00 0. -1.
    3000001    1    5    5    0    0  0.12514254004E+02  0.22000171100E+02  0.15186969976E+01  0.25375589102E+02  0.10000000000E+01 0.  1.
        -13    1    6    6    0    0  0.82638296422E+01  0.22506495914E+02  0.84760828112E+01  0.25430065740E+02  0.10500000000E+00 0.  1.
         13    1    6    6    0    0  0.37452950745E+01  0.10382323077E+02  0.38635205095E+01  0.11694344077E+02  0.10500000000E+00 0. -1.
</event>
<event>
11    0  0.3476221E-009  0.9118800E+02  0.7816531E-02  0.1126479E+00
         25   -1    0    0    0    0  0.00000000000E+00  0.00000000000E+00  0.99999998245E-14  0.12500000000E+03  0.12500000000E+03 0.  0.
    3000001    1    3    3    0    0  0.50802307017E+02  0.30676467061E+02 -0.84236825635E+01  0.59948965442E+02  0.10000000000E+01 0.  1.
    1000022    2    1    0    0    0  0.51719587925E+02  0.32811107643E+02 -0.74003541865E+01  0.62500001814E+02  0.10000021238E+02 0.  0.
    3000022    2    3    3    0    0  0.91728090786E+00  0.21346405822E+01  0.10233283769E+01  0.25510363723E+01  0.24998185268E+00 0.  0.
    1000022    2    1    0    0    0 -0.51719587925E+02 -0.32811107643E+02  0.74003541865E+01  0.62499998186E+02  0.99999985636E+01 0.  0.
    3000022    2    5    5    0    0 -0.18325592507E+02 -0.11821118782E+02  0.74443174704E+01  0.23044447307E+02  0.24999822597E+00 0.  0.
        -13    1    4    4    0    0  0.51802987037E+00  0.12376743431E+01  0.65963292387E+00  0.14987772751E+01  0.10500000000E+00 0.  1.
         13    1    4    4    0    0  0.39925103749E+00  0.89696623908E+00  0.36369545305E+00  0.10522590972E+01  0.10500000000E+00 0. -1.
    3000001    1    5    5    0    0 -0.33393995418E+02 -0.20989988862E+02 -0.43963283879E-01  0.39455550879E+02  0.10000000000E+01 0.  1.
        -13    1    6    6    0    0 -0.12791869010E+02 -0.83012712560E+01  0.52257491144E+01  0.16120251116E+02  0.10500000000E+00 0.  1.
         13    1    6    6    0    0 -0.55337234965E+01 -0.35198475257E+01  0.22185683561E+01  0.69241961909E+01  0.10500000000E+00 0. -1.
</event>
<event>
11    0  0.3476221E-009  0.9118800E+02  0.7816531E-02  0.1126479E+00
         25   -1    0    0    0    0  0.00000000000E+00  0.00000000000E+00  0.99999998245E-14  0.12500000000E+03  0.12500000000E+03 0.  0.
    3000001    1    3    3    0    0 -0.11533600110E+02 -0.29263862337E+01 -0.19219403291E+02  0.22626823258E+02  0.10000000000E+01 0.  1.
    1000022    2    1    0    0    0 -0.40443449817E+02 -0.13239710289E+02 -0.44668644820E+02  0.62500003350E+02  0.10000001354E+02 0.  0.
    3000022    2    3    3    0    0 -0.28909849706E+02 -0.10313324055E+02 -0.25449241530E+02  0.39873180092E+02  0.25006623338E+00 0.  0.
    1000022    2    1    0    0    0  0.40443449817E+02  0.13239710289E+02  0.44668644820E+02  0.62499996650E+02  0.99999594780E+01 0.  0.
    3000022    2    5    5    0    0  0.26487994066E+02  0.67214086386E+01  0.34516374394E+02  0.44025376317E+02  0.24998976493E+00 0.  0.
        -13    1    4    4    0    0 -0.98598356393E+01 -0.35612145989E+01 -0.87395238635E+01  0.13648769564E+02  0.10500000000E+00 0.  1.
         13    1    4    4    0    0 -0.19050014067E+02 -0.67521094563E+01 -0.16709717666E+02  0.26224410528E+02  0.10500000000E+00 0. -1.
    3000001    1    5    5    0    0  0.13955455751E+02  0.65183016503E+01  0.10152270426E+02  0.18474620333E+02  0.10000000000E+01 0.  1.
        -13    1    6    6    0    0  0.15211156862E+02  0.39194612152E+01  0.19791185983E+02  0.25267440252E+02  0.10500000000E+00 0.  1.
         13    1    6    6    0    0  0.11276837204E+02  0.28019474234E+01  0.14725188411E+02  0.18757936065E+02  0.10500000000E+00 0. -1.
</event>
<event>
11    0  0.3476221E-009  0.9118800E+02  0.7816531E-02  0.1126479E+00
         25   -1    0    0    0    0  0.00000000000E+00  0.00000000000E+00  0.99999998245E-14  0.12500000000E+03  0.12500000000E+03 0.  0.
    3000001    1    3    3    0    0  0.39200244743E+02  0.17115581418E+02 -0.14045841714E+02  0.45032077285E+02  0.10000000000E+01 0.  1.
    1000022    2    1    0    0    0  0.51188354729E+02  0.28958497672E+02 -0.18638899733E+02  0.62499994335E+02  0.99999230637E+01 0.  0.
    3000022    2    3    3    0    0  0.11988109987E+02  0.11842916254E+02 -0.45930580189E+01  0.17467917049E+02  0.24999527504E+00 0.  0.
    1000022    2    1    0    0    0 -0.51188354729E+02 -0.28958497672E+02  0.18638899733E+02  0.62500005665E+02  0.99999938826E+01 0.  0.
    3000022    2    5    5    0    0 -0.62111995627E+01 -0.75032563186E+01  0.19434134459E+01  0.99356533842E+01  0.24999391975E+00 0.  0.
        -13    1    4    4    0    0  0.33132901227E+01  0.33135812279E+01 -0.13047263225E+01  0.48652901011E+01  0.10500000000E+00 0. -1.
         13    1    4    4    0    0  0.86748198638E+01  0.85293350258E+01 -0.32883316963E+01  0.12602626948E+02  0.10500000000E+00 0.  1.
    3000001    1    5    5    0    0 -0.44977155167E+02 -0.21455241353E+02  0.16695486287E+02  0.52564352281E+02  0.10000000000E+01 0.  1.
        -13    1    6    6    0    0 -0.31990774058E+01 -0.38582853895E+01  0.10689068669E+01  0.51258218156E+01  0.10500000000E+00 0.  1.
         13    1    6    6    0    0 -0.30121221569E+01 -0.36449709290E+01  0.87450657891E+00  0.48098315686E+01  0.10500000000E+00 0. -1.
</event>
<event>
11    0  0.3476221E-009  0.9118800E+02  0.7816531E-02  0.1126479E+00
         25   -1    0    0    0    0  0.00000000000E+00  0.00000000000E+00  0.99999998245E-14  0.12500000000E+03  0.12500000000E+03 0.  0.
    3000001    1    3    3    0    0  0.42674640097E+02  0.66949527166E+00 -0.22596383189E+02  0.48302894991E+02  0.10000000000E+01 0.  1.
    1000022    2    1    0    0    0  0.56414886017E+02 -0.20606751798E+01 -0.24887031927E+02  0.62499998791E+02  0.99999872150E+01 0.  0.
    3000022    2    3    3    0    0  0.13740245920E+02 -0.27301704515E+01 -0.22906487382E+01  0.14197103800E+02  0.24999207284E+00 0.  0.
    1000022    2    1    0    0    0 -0.56414886017E+02  0.20606751798E+01  0.24887031927E+02  0.62500001209E+02  0.10000002324E+02 0.  0.
    3000022    2    5    5    0    0 -0.46798701210E+02  0.34975467270E+01  0.16908935261E+02  0.49883122178E+02  0.25003690221E+00 0.  0.
        -13    1    4    4    0    0  0.54679049874E+01 -0.11074253595E+01 -0.85210351385E+00  0.56445975300E+01  0.10500000000E+00 0. -1.
         13    1    4    4    0    0  0.82723409327E+01 -0.16227450919E+01 -0.14385452244E+01  0.85525062703E+01  0.10500000000E+00 0.  1.
    3000001    1    5    5    0    0 -0.96161848064E+01 -0.14368715473E+01  0.79780966655E+01  0.12616879031E+02  0.10000000000E+01 0. -1.
        -13    1    6    6    0    0 -0.18429167655E+02  0.13591778549E+01  0.65947196336E+01  0.19620982058E+02  0.10500000000E+00 0. -1.
         13    1    6    6    0    0 -0.28369533556E+02  0.21383688722E+01  0.10314215628E+02  0.30262140120E+02  0.10500000000E+00 0.  1.
</event>
<event>
11    0  0.3476221E-009  0.9118800E+02  0.7816531E-02  0.1126479E+00
         25   -1    0    0    0    0  0.00000000000E+00  0.00000000000E+00  0.99999998245E-14  0.12500000000E+03  0.12500000000E+03 0.  0.
    3000001    1    3    3    0    0  0.80322884886E+01 -0.24372486758E+01 -0.10970215084E+02  0.13849312563E+02  0.10000000000E+01 0. -1.
    1000022    2    1    0    0    0  0.22227201208E+02 -0.22210080313E+02 -0.53093444765E+02  0.62500000211E+02  0.10000000418E+02 0.  0.
    3000022    2    3    3    0    0  0.14194912720E+02 -0.19772831637E+02 -0.42123229681E+02  0.48650687648E+02  0.25002371992E+00 0.  0.
    1000022    2    1    0    0    0 -0.22227201208E+02  0.22210080313E+02  0.53093444765E+02  0.62499999789E+02  0.99999977804E+01 0.  0.
    3000022    2    5    5    0    0 -0.72149955936E+01  0.12516841784E+02  0.17789092082E+02  0.22918154090E+02  0.25000027755E+00 0.  0.
        -13    1    4    4    0    0  0.49440021108E+01 -0.68570096295E+01 -0.14736720949E+02  0.16989517570E+02  0.10500000000E+00 0.  1.
         13    1    4    4    0    0  0.92509106088E+01 -0.12915822007E+02 -0.27386508732E+02  0.31661170078E+02  0.10500000000E+00 0. -1.
    3000001    1    5    5    0    0 -0.15012205615E+02  0.96932385288E+01  0.35304352683E+02  0.39581845699E+02  0.10000000000E+01 0. -1.
        -13    1    6    6    0    0 -0.40120366711E+01  0.70600817187E+01  0.99295144257E+01  0.12827605928E+02  0.10500000000E+00 0. -1.
         13    1    6    6    0    0 -0.32029589225E+01  0.54567600652E+01  0.78595776562E+01  0.10090548162E+02  0.10500000000E+00 0.  1.
</event>
<event>
11    0  0.3476221E-009  0.9118800E+02  0.7816531E-02  0.1126479E+00
         25   -1    0    0    0    0  0.00000000000E+00  0.00000000000E+00  0.99999998245E-14  0.12500000000E+03  0.12500000000E+03 0.  0.
    3000001    1    3    3    0    0  0.96736890725E+01  0.77188593553E+01 -0.19188180278E+02  0.22854918780E+02  0.10000000000E+01 0.  1.
    1000022    2    1    0    0    0  0.36727693168E+02  0.21721361132E+02 -0.44559049639E+02  0.62500002834E+02  0.10000023728E+02 0.  0.
    3000022    2    3    3    0    0  0.27054004096E+02  0.14002501777E+02 -0.25370869361E+02  0.39645084054E+02  0.24996781950E+00 0.  0.
    1000022    2    1    0    0    0 -0.36727693168E+02 -0.21721361132E+02  0.44559049639E+02  0.62499997166E+02  0.99999883068E+01 0.  0.
    3000022    2    5    5    0    0 -0.36666075284E+02 -0.21377221129E+02  0.41915003100E+02  0.59651627245E+02  0.24997637617E+00 0.  0.
        -13    1    4    4    0    0  0.67105317500E+01  0.34452581869E+01 -0.62823982362E+01  0.98173618116E+01  0.10500000000E+00 0.  1.
         13    1    4    4    0    0  0.20343472346E+02  0.10557243590E+02 -0.19088471124E+02  0.29827722243E+02  0.10500000000E+00 0. -1.
    3000001    1    5    5    0    0 -0.61617884148E-01 -0.34414000301E+00  0.26440465392E+01  0.28483699210E+01  0.10000000000E+01 0. -1.
        -13    1    6    6    0    0 -0.22368395918E+02 -0.13007918028E+02  0.25476622533E+02  0.36312813001E+02  0.10500000000E+00 0.  1.
         13    1    6    6    0    0 -0.14297679366E+02 -0.83693031013E+01  0.16438380567E+02  0.23338814244E+02  0.10500000000E+00 0. -1.
</event>
<event>
11    0  0.3476221E-009  0.9118800E+02  0.7816531E-02  0.1126479E+00
         25   -1    0    0    0    0  0.00000000000E+00  0.00000000000E+00  0.99999998245E-14  0.12500000000E+03  0.12500000000E+03 0.  0.
    3000001    1    3    3    0    0  0.21715407261E+01  0.82561611053E+00 -0.52616153474E+01  0.58379642986E+01  0.10000000000E+01 0. -1.
    1000022    2    1    0    0    0 -0.52191350725E+01  0.15608510642E+02 -0.59459106118E+02  0.62500002421E+02  0.10000001343E+02 0.  0.
    3000022    2    3    3    0    0 -0.73906757986E+01  0.14782894531E+02 -0.54197490771E+02  0.56662038122E+02  0.24999766381E+00 0.  0.
    1000022    2    1    0    0    0  0.52191350725E+01 -0.15608510642E+02  0.59459106118E+02  0.62499997579E+02  0.99999710845E+01 0.  0.
    3000022    2    5    5    0    0 -0.22369656487E+01 -0.88397428716E+01  0.26908252089E+02  0.28412349478E+02  0.25000598983E+00 0.  0.
        -13    1    4    4    0    0 -0.44558619818E+01  0.90410491324E+01 -0.32970740797E+02  0.34477181572E+02  0.10500000000E+00 0. -1.
         13    1    4    4    0    0 -0.29348138168E+01  0.57418453989E+01 -0.21226749974E+02  0.22184856551E+02  0.10500000000E+00 0.  1.
    3000001    1    5    5    0    0  0.74561007213E+01 -0.67687677703E+01  0.32550854029E+02  0.34087648102E+02  0.10000000000E+01 0. -1.
        -13    1    6    6    0    0 -0.10164429029E+01 -0.39072842049E+01  0.12103854902E+02  0.12759872826E+02  0.10500000000E+00 0.  1.
         13    1    6    6    0    0 -0.12205227459E+01 -0.49324586667E+01  0.14804397187E+02  0.15652476652E+02  0.10500000000E+00 0. -1.
</event>
<event>
11    0  0.3476221E-009  0.9118800E+02  0.7816531E-02  0.1126479E+00
         25   -1    0    0    0    0  0.00000000000E+00  0.00000000000E+00  0.99999998245E-14  0.12500000000E+03  0.12500000000E+03 0.  0.
    3000001    1    3    3    0    0  0.12402053571E+02 -0.32742624434E+02 -0.27200095834E+02  0.44347892858E+02  0.10000000000E+01 0.  1.
    1000022    2    1    0    0    0  0.11791136829E+02 -0.44763232792E+02 -0.40785684939E+02  0.62499999515E+02  0.99999962887E+01 0.  0.
    3000022    2    3    3    0    0 -0.61091674136E+00 -0.12020608358E+02 -0.13585589104E+02  0.18152106657E+02  0.25000040916E+00 0.  0.
    1000022    2    1    0    0    0 -0.11791136829E+02  0.44763232792E+02  0.40785684939E+02  0.62500000485E+02  0.10000002350E+02 0.  0.
    3000022    2    5    5    0    0 -0.13177761005E+02  0.41836778538E+02  0.36703346874E+02  0.57194122124E+02  0.25002053705E+00 0.  0.
        -13    1    4    4    0    0 -0.48420240966E+00 -0.90272143244E+01 -0.10196226520E+02  0.13627146094E+02  0.10500000000E+00 0.  1.
         13    1    4    4    0    0 -0.12671433170E+00 -0.29933940334E+01 -0.33893625843E+01  0.45249605622E+01  0.10500000000E+00 0. -1.
    3000001    1    5    5    0    0  0.13866241756E+01  0.29264542535E+01  0.40823380648E+01  0.53058783606E+01  0.10000000000E+01 0.  1.
        -13    1    6    6    0    0 -0.10069289459E+02  0.31925709496E+02  0.28025163704E+02  0.43658473894E+02  0.10500000000E+00 0. -1.
         13    1    6    6    0    0 -0.31084715458E+01  0.99110690418E+01  0.86781831696E+01  0.13535648231E+02  0.10500000000E+00 0.  1.
</event>
<event>
11    0  0.3476221E-009  0.9118800E+02  0.7816531E-02  0.1126479E+00
         25   -1    0    0    0    0  0.00000000000E+00  0.00000000000E+00  0.99999998245E-14  0.12500000000E+03  0.12500000000E+03 0.  0.
    3000001    1    3    3    0    0 -0.16479107266E+02 -0.16487663228E+02  0.13873009267E+02  0.27145246382E+02  0.10000000000E+01 0. -1.
    1000022    2    1    0    0    0 -0.28252790996E+02 -0.43555382668E+02  0.33331040963E+02  0.62499999411E+02  0.10000003815E+02 0.  0.
    3000022    2    3    3    0    0 -0.11773683729E+02 -0.27067719440E+02  0.19458031696E+02  0.35354753029E+02  0.25000004294E+00 0.  0.
    1000022    2    1    0    0    0  0.28252790996E+02  0.43555382668E+02 -0.33331040963E+02  0.62500000589E+02  0.10000011176E+02 0.  0.
    3000022    2    5    5    0    0  0.10086455338E+02  0.15219943467E+02 -0.17494204710E+02  0.25288198046E+02  0.25000315525E+00 0.  0.
        -13    1    4    4    0    0 -0.78061569806E+01 -0.17856086784E+02  0.12796845140E+02  0.23314077133E+02  0.10500000000E+00 0. -1.
         13    1    4    4    0    0 -0.39675267488E+01 -0.92116326563E+01  0.66611865557E+01  0.12040675896E+02  0.10500000000E+00 0.  1.
    3000001    1    5    5    0    0  0.18166335658E+02  0.28335439201E+02 -0.15836836253E+02  0.37211802543E+02  0.10000000000E+01 0. -1.
        -13    1    6    6    0    0  0.42710489158E+01  0.65154914924E+01 -0.73920413889E+01  0.10739962250E+02  0.10500000000E+00 0.  1.
         13    1    6    6    0    0  0.58154064224E+01  0.87044519742E+01 -0.10102163321E+02  0.14548235796E+02  0.10500000000E+00 0. -1.
</event>
<event>
11    0  0.3476221E-009  0.9118800E+02  0.7816531E-02  0.1126479E+00
         25   -1    0    0    0    0  0.00000000000E+00  0.00000000000E+00  0.99999998245E-14  0.12500000000E+03  0.12500000000E+03 0.  0.
    3000001    1    3    3    0    0 -0.55997434739E+01 -0.20149436993E+02 -0.69506886395E+01  0.22060575937E+02  0.10000000000E+01 0.  1.
    1000022    2    1    0    0    0 -0.42664064775E+01 -0.55720902646E+02 -0.26138635120E+02  0.62499996530E+02  0.10000005219E+02 0.  0.
    3000022    2    3    3    0    0  0.13333369964E+01 -0.35571465653E+02 -0.19187946480E+02  0.40439420593E+02  0.24998301213E+00 0.  0.
    1000022    2    1    0    0    0  0.42664064775E+01  0.55720902646E+02  0.26138635120E+02  0.62500003470E+02  0.10000048595E+02 0.  0.
    3000022    2    5    5    0    0 -0.12325039571E+01  0.32429312774E+02  0.18512625817E+02  0.37362537555E+02  0.25000982218E+00 0.  0.
        -13    1    4    4    0    0  0.55514884364E+00 -0.16604219249E+02 -0.89596805492E+01  0.18875783100E+02  0.10500000000E+00 0.  1.
         13    1    4    4    0    0  0.77818815279E+00 -0.18967246404E+02 -0.10228265931E+02  0.21563637493E+02  0.10500000000E+00 0. -1.
    3000001    1    5    5    0    0  0.54989104346E+01  0.23291589872E+02  0.76260093023E+01  0.25137465915E+02  0.10000000000E+01 0. -1.
        -13    1    6    6    0    0 -0.64378224457E+00  0.17848990284E+02  0.10254101318E+02  0.20595109337E+02  0.10500000000E+00 0. -1.
         13    1    6    6    0    0 -0.58872171255E+00  0.14580322490E+02  0.82585244996E+01  0.16767428219E+02  0.10500000000E+00 0.  1.
</event>
<event>
11    0  0.3476221E-009  0.9118800E+02  0.7816531E-02  0.1126479E+00
         25   -1    0    0    0    0  0.00000000000E+00  0.00000000000E+00  0.99999998245E-14  0.12500000000E+03  0.12500000000E+03 0.  0.
    3000001    1    3    3    0    0  0.53190169730E+00  0.25503726680E+00 -0.18513427310E+02  0.18549796608E+02  0.10000000000E+01 0. -1.
    1000022    2    1    0    0    0 -0.12677613331E+02 -0.30212369118E+01 -0.60302572457E+02  0.62500000383E+02  0.10000002531E+02 0.  0.
    3000022    2    3    3    0    0 -0.13209515028E+02 -0.32762741786E+01 -0.41789145147E+02  0.43950203775E+02  0.24999988857E+00 0.  0.
    1000022    2    1    0    0    0  0.12677613331E+02  0.30212369118E+01  0.60302572457E+02  0.62499999617E+02  0.99999977477E+01 0.  0.
    3000022    2    5    5    0    0  0.17228638354E+01  0.16071964520E+01  0.18541093081E+01  0.30085809804E+01  0.24999591765E+00 0.  0.
        -13    1    4    4    0    0 -0.75568884173E+01 -0.19411061370E+01 -0.23930309312E+02  0.25170323485E+02  0.10500000000E+00 0.  1.
         13    1    4    4    0    0 -0.56526266107E+01 -0.13351680416E+01 -0.17858835835E+02  0.18779880290E+02  0.10500000000E+00 0. -1.
    3000001    1    5    5    0    0  0.10954749495E+02  0.14140404598E+01  0.58448463149E+02  0.59491418637E+02  0.10000000000E+01 0.  1.
        -13    1    6    6    0    0  0.12977982223E+01  0.12026593732E+01  0.13542469505E+01  0.22306231409E+01  0.10500000000E+00 0. -1.
         13    1    6    6    0    0  0.42506561304E+00  0.40453707873E+00  0.49986235760E+00  0.77795783948E+00  0.10500000000E+00 0.  1.
</event>
<event>
11    0  0.3476221E-009  0.9118800E+02  0.7816531E-02  0.1126479E+00
         25   -1    0    0    0    0  0.00000000000E+00  0.00000000000E+00  0.99999998245E-14  0.12500000000E+03  0.12500000000E+03 0.  0.
    3000001    1    3    3    0    0 -0.28351691466E+02 -0.36325026204E+02  0.98502809730E+01  0.47131242005E+02  0.10000000000E+01 0.  1.
    1000022    2    1    0    0    0 -0.35401156209E+02 -0.47142394467E+02  0.18182492635E+02  0.62499998013E+02  0.99999748075E+01 0.  0.
    3000022    2    3    3    0    0 -0.70494647430E+01 -0.10817368263E+02  0.83322116623E+01  0.15368756007E+02  0.25000147141E+00 0.  0.
    1000022    2    1    0    0    0  0.35401156209E+02  0.47142394467E+02 -0.18182492635E+02  0.62500001987E+02  0.99999996499E+01 0.  0.
    3000022    2    5    5    0    0  0.28784843993E+02  0.33957181095E+02 -0.10095232560E+02  0.45646835682E+02  0.24999139938E+00 0.  0.
        -13    1    4    4    0    0 -0.22135416385E+01 -0.33289555503E+01  0.25432718834E+01  0.47393004245E+01  0.10500000000E+00 0. -1.
         13    1    4    4    0    0 -0.48359231045E+01 -0.74884127126E+01  0.57889397789E+01  0.10629455583E+02  0.10500000000E+00 0.  1.
    3000001    1    5    5    0    0  0.66163122155E+01  0.13185213371E+02 -0.80872600750E+01  0.16853166305E+02  0.10000000000E+01 0.  1.
        -13    1    6    6    0    0  0.13614766255E+02  0.15974431156E+02 -0.47982525899E+01  0.21530874665E+02  0.10500000000E+00 0. -1.
         13    1    6    6    0    0  0.15170077739E+02  0.17982749939E+02 -0.52969799704E+01  0.24115961017E+02  0.10500000000E+00 0.  1.
</event>
<event>
11    0  0.3476221E-009  0.9118800E+02  0.7816531E-02  0.1126479E+00
         25   -1    0    0    0    0  0.00000000000E+00  0.00000000000E+00  0.99999998245E-14  0.12500000000E+03  0.12500000000E+03 0.  0.
    3000001    1    3    3    0    0  0.44762449068E+01 -0.21000453143E+02  0.91347132830E+00  0.21514883930E+02  0.10000000000E+01 0.  1.
    1000022    2    1    0    0    0  0.13511084723E+02 -0.59218210618E+02 -0.10812223055E+02  0.62499999646E+02  0.99999954615E+01 0.  0.
    3000022    2    3    3    0    0  0.90348398158E+01 -0.38217757475E+02 -0.11725694384E+02  0.40985115716E+02  0.24996910283E+00 0.  0.
    1000022    2    1    0    0    0 -0.13511084723E+02  0.59218210618E+02  0.10812223055E+02  0.62500000354E+02  0.99999998829E+01 0.  0.
    3000022    2    5    5    0    0 -0.10245544778E+02  0.46951128275E+02  0.12498116714E+02  0.49655262218E+02  0.25002100058E+00 0.  0.
        -13    1    4    4    0    0  0.67977269289E+01 -0.28855388228E+02 -0.88514472245E+01  0.30938675863E+02  0.10500000000E+00 0.  1.
         13    1    4    4    0    0  0.22371128869E+01 -0.93623692466E+01 -0.28742471593E+01  0.10046439853E+02  0.10500000000E+00 0. -1.
    3000001    1    5    5    0    0 -0.32655399445E+01  0.12267082343E+02 -0.16858936584E+01  0.12844738135E+02  0.10000000000E+01 0. -1.
        -13    1    6    6    0    0 -0.26513211972E+01  0.12096805717E+02  0.32501310619E+01  0.12803772474E+02  0.10500000000E+00 0.  1.
         13    1    6    6    0    0 -0.75942235809E+01  0.34854322558E+02  0.92479856520E+01  0.36851489744E+02  0.10500000000E+00 0. -1.
</event>
<event>
11    0  0.3476221E-009  0.9118800E+02  0.7816531E-02  0.1126479E+00
         25   -1    0    0    0    0  0.00000000000E+00  0.00000000000E+00  0.99999998245E-14  0.12500000000E+03  0.12500000000E+03 0.  0.
    3000001    1    3    3    0    0 -0.11420248344E+02  0.10210020959E+02  0.88169155628E+01  0.17703237000E+02  0.10000000000E+01 0.  1.
    1000022    2    1    0    0    0 -0.46516626582E+02  0.22008563675E+02  0.34030524596E+02  0.62499999766E+02  0.99999971482E+01 0.  0.
    3000022    2    3    3    0    0 -0.35096378237E+02  0.11798542716E+02  0.25213609033E+02  0.44796762766E+02  0.24999658960E+00 0.  0.
    1000022    2    1    0    0    0  0.46516626582E+02 -0.22008563675E+02 -0.34030524596E+02  0.62500000234E+02  0.10000000069E+02 0.  0.
    3000022    2    5    5    0    0  0.40019263969E+02 -0.21148153083E+02 -0.32421354840E+02  0.55677577306E+02  0.24999503591E+00 0.  0.
        -13    1    4    4    0    0 -0.13047837358E+02  0.44244228183E+01  0.93243945462E+01  0.16636614309E+02  0.10500000000E+00 0. -1.
         13    1    4    4    0    0 -0.22048540879E+02  0.73741198976E+01  0.15889214487E+02  0.28160148458E+02  0.10500000000E+00 0.  1.
    3000001    1    5    5    0    0  0.64973626124E+01 -0.86041059223E+00 -0.16091697552E+01  0.68224229277E+01  0.10000000000E+01 0.  1.
        -13    1    6    6    0    0  0.10973120230E+02 -0.57668772707E+01 -0.89097476889E+01  0.15266331252E+02  0.10500000000E+00 0.  1.
         13    1    6    6    0    0  0.29046143740E+02 -0.15381275812E+02 -0.23511607151E+02  0.40411246054E+02  0.10500000000E+00 0. -1.
</event>
<event>
11    0  0.3476221E-009  0.9118800E+02  0.7816531E-02  0.1126479E+00
         25   -1    0    0    0    0  0.00000000000E+00  0.00000000000E+00  0.99999998245E-14  0.12500000000E+03  0.12500000000E+03 0.  0.
    3000001    1    3    3    0    0 -0.94595282988E+01 -0.22462174670E+02  0.63488989258E+01  0.25205961281E+02  0.10000000000E+01 0. -1.
    1000022    2    1    0    0    0 -0.25487387814E+02 -0.49804251005E+02  0.26003453794E+02  0.62500001592E+02  0.10000011698E+02 0.  0.
    3000022    2    3    3    0    0 -0.16027859515E+02 -0.27342076335E+02  0.19654554869E+02  0.37294040311E+02  0.24999327813E+00 0.  0.
    1000022    2    1    0    0    0  0.25487387814E+02  0.49804251005E+02 -0.26003453794E+02  0.62499998408E+02  0.99999917992E+01 0.  0.
    3000022    2    5    5    0    0  0.20507873894E+02  0.41881245153E+02 -0.25320450477E+02  0.53064105544E+02  0.24999518722E+00 0.  0.
        -13    1    4    4    0    0 -0.94496648986E+01 -0.16053134995E+02  0.11487783015E+02  0.21885600139E+02  0.10500000000E+00 0. -1.
         13    1    4    4    0    0 -0.65781946167E+01 -0.11288941340E+02  0.81667718538E+01  0.15408440171E+02  0.10500000000E+00 0.  1.
    3000001    1    5    5    0    0  0.49795139201E+01  0.79230058519E+01 -0.68300331775E+00  0.94358928640E+01  0.10000000000E+01 0.  1.
        -13    1    6    6    0    0  0.13339028871E+02  0.27326546228E+02 -0.16558346947E+02  0.34624553406E+02  0.10500000000E+00 0. -1.
         13    1    6    6    0    0  0.71688450234E+01  0.14554698925E+02 -0.87621035300E+01  0.18439552138E+02  0.10500000000E+00 0.  1.
</event>
<event>
11    0  0.3476221E-009  0.9118800E+02  0.7816531E-02  0.1126479E+00
         25   -1    0    0    0    0  0.00000000000E+00  0.00000000000E+00  0.99999998245E-14  0.12500000000E+03  0.12500000000E+03 0.  0.
    3000001    1    3    3    0    0  0.18305288788E+02  0.22638021493E+02 -0.10920124275E+02  0.31109688666E+02  0.10000000000E+01 0.  1.
    1000022    2    1    0    0    0  0.31464735680E+02  0.50777981704E+02 -0.15421318303E+02  0.62500000100E+02  0.99999968485E+01 0.  0.
    3000022    2    3    3    0    0  0.13159446893E+02  0.28139960211E+02 -0.45011940278E+01  0.31390311434E+02  0.25000212794E+00 0.  0.
    1000022    2    1    0    0    0 -0.31464735680E+02 -0.50777981704E+02  0.15421318303E+02  0.62499999900E+02  0.99999955945E+01 0.  0.
    3000022    2    5    5    0    0 -0.17575138723E+02 -0.36094413696E+02  0.79380819944E+01  0.40923927534E+02  0.24999572926E+00 0.  0.
        -13    1    4    4    0    0  0.43463844634E+01  0.94208548190E+01 -0.15043495916E+01  0.10484162156E+02  0.10500000000E+00 0. -1.
         13    1    4    4    0    0  0.88130624292E+01  0.18719105392E+02 -0.29968444362E+01  0.20906149278E+02  0.10500000000E+00 0.  1.
    3000001    1    5    5    0    0 -0.13889596957E+02 -0.14683568008E+02  0.74832363082E+01  0.21576072365E+02  0.10000000000E+01 0. -1.
        -13    1    6    6    0    0 -0.43530686799E+01 -0.89636098885E+01  0.19469302848E+01  0.10153672818E+02  0.10500000000E+00 0.  1.
         13    1    6    6    0    0 -0.13222070043E+02 -0.27130803808E+02  0.59911517095E+01  0.30770254716E+02  0.10500000000E+00 0. -1.
</event>
<event>
11    0  0.3476221E-009  0.9118800E+02  0.7816531E-02  0.1126479E+00
         25   -1    0    0    0    0  0.00000000000E+00  0.00000000000E+00  0.99999998245E-14  0.12500000000E+03  0.12500000000E+03 0.  0.
    3000001    1    3    3    0    0  0.14041161116E+02 -0.63731963719E+01  0.52087819010E+01  0.16306539987E+02  0.10000000000E+01 0.  1.
    1000022    2    1    0    0    0  0.56453791505E+02 -0.85047582906E+01  0.23385646445E+02  0.62499999232E+02  0.99999977738E+01 0.  0.
    3000022    2    3    3    0    0  0.42412630389E+02 -0.21315619187E+01  0.18176864544E+02  0.46193459244E+02  0.24999913633E+00 0.  0.
    1000022    2    1    0    0    0 -0.56453791505E+02  0.85047582906E+01 -0.23385646445E+02  0.62500000768E+02  0.10000007377E+02 0.  0.
    3000022    2    5    5    0    0 -0.50913160067E+02  0.10394828056E+02 -0.21810888946E+02  0.56355831041E+02  0.24999497343E+00 0.  0.
        -13    1    4    4    0    0  0.20132240461E+02 -0.99126100074E+00  0.85577086266E+01  0.21898290031E+02  0.10500000000E+00 0.  1.
         13    1    4    4    0    0  0.22280389928E+02 -0.11403009179E+01  0.96191559174E+01  0.24295169213E+02  0.10500000000E+00 0. -1.
    3000001    1    5    5    0    0 -0.55406314382E+01 -0.18900697652E+01 -0.15747574991E+01  0.61441697268E+01  0.10000000000E+01 0.  1.
        -13    1    6    6    0    0 -0.28401059790E+02  0.58658713071E+01 -0.12179474108E+02  0.31454399660E+02  0.10500000000E+00 0. -1.
         13    1    6    6    0    0 -0.22512100276E+02  0.45289567486E+01 -0.96314148382E+01  0.24901431382E+02  0.10500000000E+00 0.  1.
</event>
<event>
11    0  0.3476221E-009  0.9118800E+02  0.7816531E-02  0.1126479E+00
         25   -1    0    0    0    0  0.00000000000E+00  0.00000000000E+00  0.99999998245E-14  0.12500000000E+03  0.12500000000E+03 0.  0.
    3000001    1    3    3    0    0  0.10778907280E+02  0.20512543432E+02  0.29204628320E+02  0.37294230056E+02  0.10000000000E+01 0.  1.
    1000022    2    1    0    0    0  0.10193352793E+02  0.33451646632E+02  0.50826495021E+02  0.62500001018E+02  0.10000021381E+02 0.  0.
    3000022    2    3    3    0    0 -0.58555448695E+00  0.12939103200E+02  0.21621866702E+02  0.25205770962E+02  0.25000893011E+00 0.  0.
    1000022    2    1    0    0    0 -0.10193352793E+02 -0.33451646632E+02 -0.50826495021E+02  0.62499998982E+02  0.10000008652E+02 0.  0.
    3000022    2    5    5    0    0 -0.10047276432E+02 -0.19027728276E+02 -0.34790830693E+02  0.40908026180E+02  0.24999712336E+00 0.  0.
        -13    1    4    4    0    0 -0.19934745323E+00  0.54091921461E+01  0.91258172226E+01  0.10610874802E+02  0.10500000000E+00 0.  1.
         13    1    4    4    0    0 -0.38620703372E+00  0.75299110535E+01  0.12496049479E+02  0.14594896160E+02  0.10500000000E+00 0. -1.
    3000001    1    5    5    0    0 -0.14607636107E+00 -0.14423918356E+02 -0.16035664328E+02  0.21591972802E+02  0.10000000000E+01 0. -1.
        -13    1    6    6    0    0 -0.60748132252E+01 -0.11391737805E+02 -0.20807704388E+02  0.24487683288E+02  0.10500000000E+00 0. -1.
         13    1    6    6    0    0 -0.39724632071E+01 -0.76359904707E+01 -0.13983126305E+02  0.16420342891E+02  0.10500000000E+00 0.  1.
</event>
<event>
11    0  0.3476221E-009  0.9118800E+02  0.7816531E-02  0.1126479E+00
         25   -1    0    0    0    0  0.00000000000E+00  0.00000000000E+00  0.99999998245E-14  0.12500000000E+03  0.12500000000E+03 0.  0.
    3000001    1    3    3    0    0 -0.77858159743E+01 -0.13072758295E+02 -0.13058450125E+01  0.15304286034E+02  0.10000000000E+01 0. -1.
    1000022    2    1    0    0    0 -0.17638354479E+02 -0.57381912415E+02 -0.14228659678E+02  0.62499998653E+02  0.99999827156E+01 0.  0.
    3000022    2    3    3    0    0 -0.98525385047E+01 -0.44309154120E+02 -0.12922814665E+02  0.47195712619E+02  0.24999384664E+00 0.  0.
    1000022    2    1    0    0    0  0.17638354479E+02  0.57381912415E+02  0.14228659678E+02  0.62500001347E+02  0.99999995477E+01 0.  0.
    3000022    2    5    5    0    0  0.10266626439E+02  0.39095297940E+02  0.50742124304E+01  0.40738876659E+02  0.25000041195E+00 0.  0.
        -13    1    4    4    0    0 -0.37861919405E+01 -0.17258074003E+02 -0.49923582055E+01  0.18360583683E+02  0.10500000000E+00 0. -1.
         13    1    4    4    0    0 -0.60663465642E+01 -0.27051080117E+02 -0.79304564597E+01  0.28835128936E+02  0.10500000000E+00 0.  1.
    3000001    1    5    5    0    0  0.73717280403E+01  0.18286614475E+02  0.91544472472E+01  0.21761124688E+02  0.10000000000E+01 0. -1.
        -13    1    6    6    0    0  0.46383198505E+01  0.17478067314E+02  0.22224841636E+01  0.18219421201E+02  0.10500000000E+00 0.  1.
         13    1    6    6    0    0  0.56283065881E+01  0.21617230626E+02  0.28517282668E+01  0.22519455457E+02  0.10500000000E+00 0. -1.
</event>
<event>
11    0  0.3476221E-009  0.9118800E+02  0.7816531E-02  0.1126479E+00
         25   -1    0    0    0    0  0.00000000000E+00  0.00000000000E+00  0.99999998245E-14  0.12500000000E+03  0.12500000000E+03 0.  0.
    3000001    1    3    3    0    0  0.52724416331E+00 -0.16363017969E+02 -0.49488232113E+00  0.16409486646E+02  0.10000000000E+01 0.  1.
    1000022    2    1    0    0    0  0.17786768198E+02 -0.58871973872E+02 -0.48960613168E+01  0.62499999566E+02  0.10000004941E+02 0.  0.
    3000022    2    3    3    0    0  0.17259524035E+02 -0.42508955903E+02 -0.44011789957E+01  0.46090512920E+02  0.25000567935E+00 0.  0.
    1000022    2    1    0    0    0 -0.17786768198E+02  0.58871973872E+02  0.48960613168E+01  0.62500000434E+02  0.10000010365E+02 0.  0.
    3000022    2    5    5    0    0 -0.48136855578E+01  0.54461159369E+01  0.13602603615E+01  0.73989563631E+01  0.24999913138E+00 0.  0.
        -13    1    4    4    0    0  0.13292745556E+02 -0.32727161448E+02 -0.33833614920E+01  0.35485522975E+02  0.10500000000E+00 0. -1.
         13    1    4    4    0    0  0.39667784786E+01 -0.97817944552E+01 -0.10178175037E+01  0.10604989945E+02  0.10500000000E+00 0.  1.
    3000001    1    5    5    0    0 -0.12973082640E+02  0.53425857935E+02  0.35358009553E+01  0.55101044071E+02  0.10000000000E+01 0. -1.
        -13    1    6    6    0    0 -0.31274271380E+01  0.35144573232E+01  0.93586643271E+00  0.47978205218E+01  0.10500000000E+00 0.  1.
         13    1    6    6    0    0 -0.16862584198E+01  0.19316586137E+01  0.42439392876E+00  0.26011358413E+01  0.10500000000E+00 0. -1.
</event>
<event>
11    0  0.3476221E-009  0.9118800E+02  0.7816531E-02  0.1126479E+00
         25   -1    0    0    0    0  0.00000000000E+00  0.00000000000E+00  0.99999998245E-14  0.12500000000E+03  0.12500000000E+03 0.  0.
    3000001    1    3    3    0    0 -0.18884843331E+02  0.25532435173E+02  0.39935029408E+02  0.51032824019E+02  0.10000000000E+01 0.  1.
    1000022    2    1    0    0    0 -0.22434781699E+02  0.26992784967E+02  0.50737758283E+02  0.62500000523E+02  0.10000003983E+02 0.  0.
    3000022    2    3    3    0    0 -0.35499383673E+01  0.14603497938E+01  0.10802728875E+02  0.11467176504E+02  0.25000380332E+00 0.  0.
    1000022    2    1    0    0    0  0.22434781699E+02 -0.26992784967E+02 -0.50737758283E+02  0.62499999477E+02  0.99999974470E+01 0.  0.
    3000022    2    5    5    0    0 -0.38480546106E+00  0.42171776809E-02  0.19136042779E+00  0.49720264043E+00  0.24999724974E+00 0.  0.
        -13    1    4    4    0    0 -0.15710518458E+01  0.58878991071E+00  0.48385514681E+01  0.51222536808E+01  0.10500000000E+00 0.  1.
         13    1    4    4    0    0 -0.19788865215E+01  0.87155988304E+00  0.59641774067E+01  0.63449228233E+01  0.10500000000E+00 0. -1.
    3000001    1    5    5    0    0  0.22819587160E+02 -0.26997002145E+02 -0.50929118711E+02  0.62002796837E+02  0.10000000000E+01 0.  1.
        -13    1    6    6    0    0 -0.20838707342E+00  0.27036438233E-01  0.33628257412E-01  0.23730149822E+00  0.10500000000E+00 0.  1.
         13    1    6    6    0    0 -0.17641838764E+00 -0.22819260552E-01  0.15773217038E+00  0.25990114221E+00  0.10500000000E+00 0. -1.
</event>
<event>
11    0  0.3476221E-009  0.9118800E+02  0.7816531E-02  0.1126479E+00
         25   -1    0    0    0    0  0.00000000000E+00  0.00000000000E+00  0.99999998245E-14  0.12500000000E+03  0.12500000000E+03 0.  0.
    3000001    1    3    3    0    0 -0.30867887153E+02 -0.80849129983E+00 -0.47853221739E+01  0.31263068048E+02  0.10000000000E+01 0.  1.
    1000022    2    1    0    0    0 -0.59574575063E+02 -0.11051637615E+02 -0.11618147900E+02  0.62500000772E+02  0.10000002398E+02 0.  0.
    3000022    2    3    3    0    0 -0.28706687910E+02 -0.10243146315E+02 -0.68328257258E+01  0.31236932724E+02  0.24996279595E+00 0.  0.
    1000022    2    1    0    0    0  0.59574575063E+02  0.11051637615E+02  0.11618147900E+02  0.62499999228E+02  0.99999927529E+01 0.  0.
    3000022    2    5    5    0    0  0.84380258078E+01 -0.63680998814E+00 -0.10409143267E+01  0.85294671435E+01  0.25000124659E+00 0.  0.
        -13    1    4    4    0    0 -0.14310022831E+02 -0.50362488161E+01 -0.34175218833E+01  0.15550917541E+02  0.10500000000E+00 0.  1.
         13    1    4    4    0    0 -0.14396665079E+02 -0.52068974992E+01 -0.34153038425E+01  0.15686015182E+02  0.10500000000E+00 0. -1.
    3000001    1    5    5    0    0  0.51136549255E+02  0.11688447603E+02  0.12659062226E+02  0.53970532085E+02  0.10000000000E+01 0.  1.
        -13    1    6    6    0    0  0.40745931463E+01 -0.31192922249E+00 -0.57075289115E+00  0.41275165670E+01  0.10500000000E+00 0.  1.
         13    1    6    6    0    0  0.43634326614E+01 -0.32488076565E+00 -0.47016143556E+00  0.44019505765E+01  0.10500000000E+00 0. -1.
</event>
<event>
11    0  0.3476221E-009  0.9118800E+02  0.7816531E-02  0.1126479E+00
         25   -1    0    0    0    0  0.00000000000E+00  0.00000000000E+00  0.99999998245E-14  0.12500000000E+03  0.12500000000E+03 0.  0.
    3000001    1    3    3    0    0 -0.16429274980E+02 -0.39053367540E+02  0.10734569656E+02  0.43718618211E+02  0.10000000000E+01 0. -1.
    1000022    2    1    0    0    0 -0.22707736315E+02 -0.56661912462E+02  0.89463041397E+01  0.62500000662E+02  0.10000005626E+02 0.  0.
    3000022    2    3    3    0    0 -0.62784613357E+01 -0.17608544923E+02 -0.17882655159E+01  0.18781382451E+02  0.25000438605E+00 0.  0.
    1000022    2    1    0    0    0  0.22707736315E+02  0.56661912462E+02 -0.89463041397E+01  0.62499999338E+02  0.99999973515E+01 0.  0.
    3000022    2    5    5    0    0  0.26668160106E+01  0.21008662024E+01  0.93992324724E+00  0.35315014125E+01  0.25000016175E+00 0.  0.
        -13    1    4    4    0    0 -0.40782652300E+01 -0.11306081566E+02 -0.11125634785E+01  0.12070979669E+02  0.10500000000E+00 0.  1.
         13    1    4    4    0    0 -0.22001961056E+01 -0.63024633561E+01 -0.67570203738E+00  0.67104027824E+01  0.10500000000E+00 0. -1.
    3000001    1    5    5    0    0  0.20040920305E+02  0.54561046260E+02 -0.98862273870E+01  0.58968497926E+02  0.10000000000E+01 0.  1.
        -13    1    6    6    0    0  0.16419828834E+01  0.12135399032E+01  0.56875910588E+00  0.21220977373E+01  0.10500000000E+00 0. -1.
         13    1    6    6    0    0  0.10248331273E+01  0.88732629915E+00  0.37116414135E+00  0.14094036752E+01  0.10500000000E+00 0. -1.
</event>
<event>
11    0  0.3476221E-009  0.9118800E+02  0.7816531E-02  0.1126479E+00
         25   -1    0    0    0    0  0.00000000000E+00  0.00000000000E+00  0.99999998245E-14  0.12500000000E+03  0.12500000000E+03 0.  0.
    3000001    1    3    3    0    0 -0.33255033483E+02  0.90089678315E+01 -0.23599337271E+02  0.41773047207E+02  0.10000000000E+01 0. -1.
    1000022    2    1    0    0    0 -0.45090077430E+02  0.12121683833E+02 -0.40326166105E+02  0.62499999856E+02  0.10000000384E+02 0.  0.
    3000022    2    3    3    0    0 -0.11835043947E+02  0.31127160016E+01 -0.16726828834E+02  0.20726952649E+02  0.24999427498E+00 0.  0.
    1000022    2    1    0    0    0  0.45090077430E+02 -0.12121683833E+02  0.40326166105E+02  0.62500000144E+02  0.10000002183E+02 0.  0.
    3000022    2    5    5    0    0  0.12420462838E+02 -0.67951903807E+01  0.16268512954E+02  0.21567788803E+02  0.24998142840E+00 0.  0.
        -13    1    4    4    0    0 -0.77853093703E+01  0.21025616843E+01 -0.10997532977E+02  0.13637762434E+02  0.10500000000E+00 0. -1.
         13    1    4    4    0    0 -0.40497345770E+01  0.10101543173E+01 -0.57292958567E+01  0.70891902149E+01  0.10500000000E+00 0.  1.
    3000001    1    5    5    0    0  0.32669614592E+02 -0.53264934524E+01  0.24057653151E+02  0.40932211340E+02  0.10000000000E+01 0.  1.
        -13    1    6    6    0    0  0.58290479172E+01 -0.31188858673E+01  0.75550035377E+01  0.10039639044E+02  0.10500000000E+00 0. -1.
         13    1    6    6    0    0  0.65914149209E+01 -0.36763045134E+01  0.87135094164E+01  0.11528149760E+02  0.10500000000E+00 0.  1.
</event>
<event>
11    0  0.3476221E-009  0.9118800E+02  0.7816531E-02  0.1126479E+00
         25   -1    0    0    0    0  0.00000000000E+00  0.00000000000E+00  0.99999998245E-14  0.12500000000E+03  0.12500000000E+03 0.  0.
    3000001    1    3    3    0    0 -0.27201284964E+02  0.22234757365E+02 -0.19934833648E+01  0.35203242957E+02  0.10000000000E+01 0.  1.
    1000022    2    1    0    0    0 -0.45228781439E+02  0.41738092750E+02  0.43057010663E+01  0.62500000334E+02  0.99999961554E+01 0.  0.
    3000022    2    3    3    0    0 -0.18027496475E+02  0.19503335385E+02  0.62991844311E+01  0.27296757376E+02  0.25003689748E+00 0.  0.
    1000022    2    1    0    0    0  0.45228781439E+02 -0.41738092750E+02 -0.43057010663E+01  0.62499999666E+02  0.99999919857E+01 0.  0.
    3000022    2    5    5    0    0  0.35185554581E+01 -0.68164443622E+01  0.13702560933E+01  0.77964260425E+01  0.25002204052E+00 0.  0.
        -13    1    4    4    0    0 -0.92109931440E+01  0.10053855084E+02  0.32021167681E+01  0.14006676035E+02  0.10500000000E+00 0. -1.
         13    1    4    4    0    0 -0.88165033311E+01  0.94494803018E+01  0.30970676631E+01  0.13290081342E+02  0.10500000000E+00 0.  1.
    3000001    1    5    5    0    0  0.41710225981E+02 -0.34921648388E+02 -0.56759571596E+01  0.54703573624E+02  0.10000000000E+01 0.  1.
        -13    1    6    6    0    0  0.25554718967E+01 -0.49231532983E+01  0.10276231041E+01  0.56422432823E+01  0.10500000000E+00 0. -1.
         13    1    6    6    0    0  0.96308356137E+00 -0.18932910639E+01  0.34263298922E+00  0.21541827602E+01  0.10500000000E+00 0.  1.
</event>
<event>
11    0  0.3476221E-009  0.9118800E+02  0.7816531E-02  0.1126479E+00
         25   -1    0    0    0    0  0.00000000000E+00  0.00000000000E+00  0.99999998245E-14  0.12500000000E+03  0.12500000000E+03 0.  0.
    3000001    1    3    3    0    0 -0.57540878922E+01 -0.39964854187E+01  0.18431626531E+02  0.19743512346E+02  0.10000000000E+01 0. -1.
    1000022    2    1    0    0    0 -0.38621147072E+01 -0.13048342635E+02  0.60175361955E+02  0.62500004791E+02  0.10000061842E+02 0.  0.
    3000022    2    3    3    0    0  0.18919731850E+01 -0.90518572158E+01  0.41743735424E+02  0.42756492445E+02  0.25003482258E+00 0.  0.
    1000022    2    1    0    0    0  0.38621147072E+01  0.13048342635E+02 -0.60175361955E+02  0.62499995209E+02  0.10000001960E+02 0.  0.
    3000022    2    5    5    0    0 -0.27576260037E+01  0.59796938226E+01 -0.32520813531E+02  0.33181727668E+02  0.24999779207E+00 0.  0.
        -13    1    4    4    0    0  0.72548948115E+00 -0.36338576153E+01  0.16481612383E+02  0.16893366387E+02  0.10500000000E+00 0.  1.
         13    1    4    4    0    0  0.11664837039E+01 -0.54179996005E+01  0.25262123041E+02  0.25863126057E+02  0.10500000000E+00 0. -1.
    3000001    1    5    5    0    0  0.66197407108E+01  0.70686488119E+01 -0.27654548424E+02  0.29318267542E+02  0.10000000000E+01 0.  1.
        -13    1    6    6    0    0 -0.10098906983E+01  0.22195202313E+01 -0.12342172299E+02  0.12581191968E+02  0.10500000000E+00 0. -1.
         13    1    6    6    0    0 -0.17477353054E+01  0.37601735913E+01 -0.20178641232E+02  0.20600535700E+02  0.10500000000E+00 0.  1.
</event>
<event>
11    0  0.3476221E-009  0.9118800E+02  0.7816531E-02  0.1126479E+00
         25   -1    0    0    0    0  0.00000000000E+00  0.00000000000E+00  0.99999998245E-14  0.12500000000E+03  0.12500000000E+03 0.  0.
    3000001    1    3    3    0    0  0.42190733901E+02 -0.28235823869E+02  0.17919826063E+02  0.53846447820E+02  0.10000000000E+01 0.  1.
    1000022    2    1    0    0    0  0.50313600280E+02 -0.29030653654E+02  0.20784917075E+02  0.62499999688E+02  0.99999979272E+01 0.  0.
    3000022    2    3    3    0    0  0.81228663796E+01 -0.79482978407E+00  0.28650910114E+01  0.86535518687E+01  0.25000167017E+00 0.  0.
    1000022    2    1    0    0    0 -0.50313600280E+02  0.29030653654E+02 -0.20784917075E+02  0.62500000312E+02  0.10000001821E+02 0.  0.
    3000022    2    5    5    0    0 -0.45489586588E+02  0.29124630722E+02 -0.19102062271E+02  0.57293087590E+02  0.24999998892E+00 0.  0.
        -13    1    4    4    0    0  0.47303071514E+01 -0.44905900815E+00  0.16008379482E+01  0.50150939050E+01  0.10500000000E+00 0.  1.
         13    1    4    4    0    0  0.33925592282E+01 -0.34577077591E+00  0.12642530631E+01  0.36384579637E+01  0.10500000000E+00 0. -1.
    3000001    1    5    5    0    0 -0.48240136927E+01 -0.93977068773E-01 -0.16828548033E+01  0.52069127211E+01  0.10000000000E+01 0.  1.
        -13    1    6    6    0    0 -0.28470832213E+02  0.18258249274E+02 -0.12018994873E+02  0.35894556916E+02  0.10500000000E+00 0.  1.
         13    1    6    6    0    0 -0.17018754374E+02  0.10866381449E+02 -0.70830673982E+01  0.21398530674E+02  0.10500000000E+00 0. -1.
</event>
<event>
11    0  0.3476221E-009  0.9118800E+02  0.7816531E-02  0.1126479E+00
         25   -1    0    0    0    0  0.00000000000E+00  0.00000000000E+00  0.99999998245E-14  0.12500000000E+03  0.12500000000E+03 0.  0.
    3000001    1    3    3    0    0  0.25175502759E+01 -0.26285349831E+01  0.12453384919E+01  0.39746853345E+01  0.10000000000E+01 0.  1.
    1000022    2    1    0    0    0  0.55949724385E+02 -0.25037278118E+02 -0.70009297377E+01  0.62499999816E+02  0.10000000274E+02 0.  0.
    3000022    2    3    3    0    0  0.53432174109E+02 -0.22408743135E+02 -0.82462682297E+01  0.58525314481E+02  0.24999302089E+00 0.  0.
    1000022    2    1    0    0    0 -0.55949724385E+02  0.25037278118E+02  0.70009297377E+01  0.62500000184E+02  0.10000002577E+02 0.  0.
    3000022    2    5    5    0    0 -0.18429079356E+02  0.53288477968E+01 -0.15657630504E+01  0.19249459674E+02  0.24999811740E+00 0.  0.
        -13    1    4    4    0    0  0.35450526174E+02 -0.14899080273E+02 -0.54268300664E+01  0.38835343549E+02  0.10500000000E+00 0. -1.
         13    1    4    4    0    0  0.17981647935E+02 -0.75096628611E+01 -0.28194381633E+01  0.19689970932E+02  0.10500000000E+00 0.  1.
    3000001    1    5    5    0    0 -0.37520645029E+02  0.19708430321E+02  0.85666927881E+01  0.43250540510E+02  0.10000000000E+01 0. -1.
        -13    1    6    6    0    0 -0.90968578282E+01  0.25642220407E+01 -0.79502834278E+00  0.94853124401E+01  0.10500000000E+00 0.  1.
         13    1    6    6    0    0 -0.93322215280E+01  0.27646257561E+01 -0.77073470758E+00  0.97641472341E+01  0.10500000000E+00 0. -1.
</event>
<event>
11    0  0.3476221E-009  0.9118800E+02  0.7816531E-02  0.1126479E+00
         25   -1    0    0    0    0  0.00000000000E+00  0.00000000000E+00  0.99999998245E-14  0.12500000000E+03  0.12500000000E+03 0.  0.
    3000001    1    3    3    0    0  0.14473804549E+02  0.23777912482E+01 -0.55489726886E+00  0.14712335652E+02  0.10000000000E+01 0.  1.
    1000022    2    1    0    0    0  0.55817834069E+02  0.26199152970E+02  0.20551023545E+01  0.62499997721E+02  0.10000002649E+02 0.  0.
    3000022    2    3    3    0    0  0.41344029519E+02  0.23821361722E+02  0.26099996234E+01  0.47787662069E+02  0.24999364564E+00 0.  0.
    1000022    2    1    0    0    0 -0.55817834069E+02 -0.26199152970E+02 -0.20551023545E+01  0.62500002279E+02  0.10000031131E+02 0.  0.
    3000022    2    5    5    0    0 -0.30411225277E+02 -0.12224502037E+02  0.34860598764E+01  0.32962041654E+02  0.25000720565E+00 0.  0.
        -13    1    4    4    0    0  0.17130225048E+02  0.99397858668E+01  0.10611228544E+01  0.19833833719E+02  0.10500000000E+00 0. -1.
         13    1    4    4    0    0  0.24213804471E+02  0.13881575855E+02  0.15488767690E+01  0.27953828351E+02  0.10500000000E+00 0.  1.
    3000001    1    5    5    0    0 -0.25406608792E+02 -0.13974650934E+02 -0.55411622309E+01  0.29537960625E+02  0.10000000000E+01 0. -1.
        -13    1    6    6    0    0 -0.18429255964E+02 -0.74670625561E+01  0.20848142204E+01  0.19993798387E+02  0.10500000000E+00 0. -1.
         13    1    6    6    0    0 -0.11981969314E+02 -0.47574394808E+01  0.14012456560E+01  0.12968243267E+02  0.10500000000E+00 0.  1.
</event>
<event>
11    0  0.3476221E-009  0.9118800E+02  0.7816531E-02  0.1126479E+00
         25   -1    0    0    0    0  0.00000000000E+00  0.00000000000E+00  0.99999998245E-14  0.12500000000E+03  0.12500000000E+03 0.  0.
    3000001    1    3    3    0    0  0.99211186532E+01 -0.17115090065E+02  0.12484432643E+01  0.19847254567E+02  0.10000000000E+01 0.  1.
    1000022    2    1    0    0    0  0.22222581194E+02 -0.57145570186E+02 -0.68403717136E+01  0.62500000635E+02  0.10000004368E+02 0.  0.
    3000022    2    3    3    0    0  0.12301462541E+02 -0.40030480121E+02 -0.80888149778E+01  0.42652746068E+02  0.25000003547E+00 0.  0.
    1000022    2    1    0    0    0 -0.22222581194E+02  0.57145570186E+02  0.68403717136E+01  0.62499999365E+02  0.99999964304E+01 0.  0.
    3000022    2    5    5    0    0 -0.18949229308E+02  0.39260764834E+02  0.19195837160E+01  0.43637463757E+02  0.24998951622E+00 0.  0.
        -13    1    4    4    0    0  0.88254011267E+01 -0.28660776499E+02 -0.58302961983E+01  0.30550469609E+02  0.10500000000E+00 0.  1.
         13    1    4    4    0    0  0.34760614141E+01 -0.11369703622E+02 -0.22585187796E+01  0.12102276459E+02  0.10500000000E+00 0. -1.
    3000001    1    5    5    0    0 -0.32733518860E+01  0.17884805352E+02  0.49207879976E+01  0.18862535608E+02  0.10000000000E+01 0.  1.
        -13    1    6    6    0    0 -0.13394324958E+02  0.27832416836E+02  0.13345871783E+01  0.30916719036E+02  0.10500000000E+00 0. -1.
         13    1    6    6    0    0 -0.55549043496E+01  0.11428347999E+02  0.58499653776E+00  0.12720744721E+02  0.10500000000E+00 0.  1.
</event>
<event>
11    0  0.3476221E-009  0.9118800E+02  0.7816531E-02  0.1126479E+00
         25   -1    0    0    0    0  0.00000000000E+00  0.00000000000E+00  0.99999998245E-14  0.12500000000E+03  0.12500000000E+03 0.  0.
    3000001    1    3    3    0    0  0.45240009990E+01 -0.12099135331E+02  0.94246672574E+01  0.16021236335E+02  0.10000000000E+01 0. -1.
    1000022    2    1    0    0    0  0.26312617864E+01 -0.52691202301E+02  0.31983806657E+02  0.62500001690E+02  0.99999992264E+01 0.  0.
    3000022    2    3    3    0    0 -0.18927392126E+01 -0.40592066969E+02  0.22559139399E+02  0.46478765354E+02  0.24999176080E+00 0.  0.
    1000022    2    1    0    0    0 -0.26312617864E+01  0.52691202301E+02 -0.31983806657E+02  0.62499998310E+02  0.99999781024E+01 0.  0.
    3000022    2    5    5    0    0 -0.26813706282E+01  0.52307009920E+02 -0.32085497522E+02  0.61422753810E+02  0.24999826341E+00 0.  0.
        -13    1    4    4    0    0 -0.50191981899E+00 -0.11668729198E+02  0.64841585241E+01  0.13359135502E+02  0.10500000000E+00 0. -1.
         13    1    4    4    0    0 -0.13908193936E+01 -0.28923337772E+02  0.16074980875E+02  0.33119629853E+02  0.10500000000E+00 0.  1.
    3000001    1    5    5    0    0  0.50108841847E-01  0.38419238023E+00  0.10169086509E+00  0.10772445002E+01  0.10000000000E+01 0. -1.
        -13    1    6    6    0    0 -0.13518945898E+01  0.26245512676E+02 -0.16020219423E+02  0.30778450415E+02  0.10500000000E+00 0. -1.
         13    1    6    6    0    0 -0.13294760384E+01  0.26061497245E+02 -0.16065278099E+02  0.30644303395E+02  0.10500000000E+00 0.  1.
</event>
<event>
11    0  0.3476221E-009  0.9118800E+02  0.7816531E-02  0.1126479E+00
         25   -1    0    0    0    0  0.00000000000E+00  0.00000000000E+00  0.99999998245E-14  0.12500000000E+03  0.12500000000E+03 0.  0.
    3000001    1    3    3    0    0  0.50127604957E+01  0.16182112897E+00  0.11905442850E+02  0.12957373318E+02  0.10000000000E+01 0.  1.
    1000022    2    1    0    0    0  0.30411647242E+02 -0.16130085886E+02  0.51197676955E+02  0.62499999745E+02  0.99999941947E+01 0.  0.
    3000022    2    3    3    0    0  0.25398886746E+02 -0.16291907015E+02  0.39292234105E+02  0.49542626427E+02  0.24998027605E+00 0.  0.
    1000022    2    1    0    0    0 -0.30411647242E+02  0.16130085886E+02 -0.51197676955E+02  0.62500000255E+02  0.99999973824E+01 0.  0.
    3000022    2    5    5    0    0 -0.14607344584E+02  0.78285840299E+01 -0.33323763431E+02  0.37218234094E+02  0.24999231116E+00 0.  0.
        -13    1    4    4    0    0  0.13195429927E+02 -0.85222433496E+01  0.20377649005E+02  0.25729508480E+02  0.10500000000E+00 0.  1.
         13    1    4    4    0    0  0.12203456819E+02 -0.77696636653E+01  0.18914585101E+02  0.23813117946E+02  0.10500000000E+00 0. -1.
    3000001    1    5    5    0    0 -0.15804302658E+02  0.83015018561E+01 -0.17873913524E+02  0.25281766161E+02  0.10000000000E+01 0.  1.
        -13    1    6    6    0    0 -0.81265960396E+01  0.44144760384E+01 -0.18503182374E+02  0.20685935919E+02  0.10500000000E+00 0. -1.
         13    1    6    6    0    0 -0.64807485444E+01  0.34141079915E+01 -0.14820581057E+02  0.16532298175E+02  0.10500000000E+00 0.  1.
</event>
<event>
11    0  0.3476221E-009  0.9118800E+02  0.7816531E-02  0.1126479E+00
         25   -1    0    0    0    0  0.00000000000E+00  0.00000000000E+00  0.99999998245E-14  0.12500000000E+03  0.12500000000E+03 0.  0.
    3000001    1    3    3    0    0  0.18307282021E+01 -0.15217538492E+02  0.77383202288E+01  0.17199030306E+02  0.10000000000E+01 0. -1.
    1000022    2    1    0    0    0  0.21202834222E+02 -0.49272149159E+02  0.30478599119E+02  0.62499999275E+02  0.10000002166E+02 0.  0.
    3000022    2    3    3    0    0  0.19372106020E+02 -0.34054610667E+02  0.22740278890E+02  0.45300968969E+02  0.25001236745E+00 0.  0.
    1000022    2    1    0    0    0 -0.21202834222E+02  0.49272149159E+02 -0.30478599119E+02  0.62500000725E+02  0.10000011228E+02 0.  0.
    3000022    2    5    5    0    0 -0.10482837391E+02  0.12874872249E+02 -0.96129473004E+01  0.19186544105E+02  0.25000741163E+00 0.  0.
        -13    1    4    4    0    0  0.68579413194E+01 -0.12136019635E+02  0.81389829817E+01  0.16142131231E+02  0.10500000000E+00 0. -1.
         13    1    4    4    0    0  0.12514164701E+02 -0.21918591033E+02  0.14601295908E+02  0.29158837738E+02  0.10500000000E+00 0.  1.
    3000001    1    5    5    0    0 -0.10719996831E+02  0.36397276911E+02 -0.20865651818E+02  0.43313456620E+02  0.10000000000E+01 0.  1.
        -13    1    6    6    0    0 -0.50696636073E+01  0.63107103160E+01 -0.46382893401E+01  0.93301289802E+01  0.10500000000E+00 0. -1.
         13    1    6    6    0    0 -0.54131737840E+01  0.65641619327E+01 -0.49746579603E+01  0.98564151249E+01  0.10500000000E+00 0.  1.
</event>
<event>
11    0  0.3476221E-009  0.9118800E+02  0.7816531E-02  0.1126479E+00
         25   -1    0    0    0    0  0.00000000000E+00  0.00000000000E+00  0.99999998245E-14  0.12500000000E+03  0.12500000000E+03 0.  0.
    3000001    1    3    3    0    0  0.10847034654E+02 -0.25960151336E+02 -0.47192385098E+02  0.54951877396E+02  0.10000000000E+01 0.  1.
    1000022    2    1    0    0    0  0.13983704636E+02 -0.31588157425E+02 -0.51116477675E+02  0.62500000241E+02  0.10000002766E+02 0.  0.
    3000022    2    3    3    0    0  0.31366699819E+01 -0.56280060892E+01 -0.39240925771E+01  0.75481228441E+01  0.25000960296E+00 0.  0.
    1000022    2    1    0    0    0 -0.13983704636E+02  0.31588157425E+02  0.51116477675E+02  0.62499999759E+02  0.99999997594E+01 0.  0.
    3000022    2    5    5    0    0 -0.18938924499E-01  0.11347122711E+02  0.15820214720E+02  0.19470470988E+02  0.24998844825E+00 0.  0.
        -13    1    4    4    0    0  0.14325475421E+01 -0.26271903974E+01 -0.18943635116E+01  0.35431567787E+01  0.10500000000E+00 0. -1.
         13    1    4    4    0    0  0.17041224398E+01 -0.30008156918E+01 -0.20297290655E+01  0.40049660655E+01  0.10500000000E+00 0.  1.
    3000001    1    5    5    0    0 -0.13964765711E+02  0.20241034714E+02  0.35296262955E+02  0.43029528771E+02  0.10000000000E+01 0.  1.
        -13    1    6    6    0    0  0.38885553689E-01  0.73771820712E+01  0.10243096814E+02  0.12623643877E+02  0.10500000000E+00 0.  1.
         13    1    6    6    0    0 -0.57824478188E-01  0.39699406401E+01  0.55771179057E+01  0.68468271112E+01  0.10500000000E+00 0. -1.
</event>
<event>
11    0  0.3476221E-009  0.9118800E+02  0.7816531E-02  0.1126479E+00
         25   -1    0    0    0    0  0.00000000000E+00  0.00000000000E+00  0.99999998245E-14  0.12500000000E+03  0.12500000000E+03 0.  0.
    3000001    1    3    3    0    0 -0.47380361675E+01  0.21269350471E+01  0.11945827132E+02  0.13064288167E+02  0.10000000000E+01 0.  1.
    1000022    2    1    0    0    0 -0.28146354877E+02 -0.77725261988E+01  0.54347222309E+02  0.62499999202E+02  0.99999935580E+01 0.  0.
    3000022    2    3    3    0    0 -0.23408318710E+02 -0.98994612458E+01  0.42401395176E+02  0.49435711035E+02  0.24998978463E+00 0.  0.
    1000022    2    1    0    0    0  0.28146354877E+02  0.77725261988E+01 -0.54347222309E+02  0.62500000798E+02  0.10000003535E+02 0.  0.
    3000022    2    5    5    0    0  0.18867222053E+02  0.32149199295E+01 -0.25820774589E+02  0.32141603272E+02  0.24996468821E+00 0.  0.
        -13    1    4    4    0    0 -0.11711584802E+02 -0.49452969021E+01  0.21078026742E+02  0.24615267952E+02  0.10500000000E+00 0. -1.
         13    1    4    4    0    0 -0.11696733907E+02 -0.49541643438E+01  0.21323368435E+02  0.24820443083E+02  0.10500000000E+00 0.  1.
    3000001    1    5    5    0    0  0.92791328243E+01  0.45576062693E+01 -0.28526447720E+02  0.30358397526E+02  0.10000000000E+01 0. -1.
        -13    1    6    6    0    0  0.81901191995E+01  0.13573292562E+01 -0.11290660508E+02  0.14014650724E+02  0.10500000000E+00 0. -1.
         13    1    6    6    0    0  0.10677102853E+02  0.18575906733E+01 -0.14530114081E+02  0.18126952548E+02  0.10500000000E+00 0.  1.
</event>
<event>
11    0  0.3476221E-009  0.9118800E+02  0.7816531E-02  0.1126479E+00
         25   -1    0    0    0    0  0.00000000000E+00  0.00000000000E+00  0.99999998245E-14  0.12500000000E+03  0.12500000000E+03 0.  0.
    3000001    1    3    3    0    0  0.10881784496E+02  0.10304242861E+02 -0.11755545606E+02  0.19073109533E+02  0.10000000000E+01 0. -1.
    1000022    2    1    0    0    0  0.22496946559E+02  0.35549871451E+02 -0.45125870044E+02  0.62499999856E+02  0.99999935086E+01 0.  0.
    3000022    2    3    3    0    0  0.11615162064E+02  0.25245628589E+02 -0.33370324438E+02  0.43426890324E+02  0.24999489170E+00 0.  0.
    1000022    2    1    0    0    0 -0.22496946559E+02 -0.35549871451E+02  0.45125870044E+02  0.62500000144E+02  0.99999953024E+01 0.  0.
    3000022    2    5    5    0    0 -0.15627622075E+01 -0.22957638607E+00  0.43116599874E+01  0.45986783928E+01  0.25000015838E+00 0.  0.
        -13    1    4    4    0    0  0.30321742744E+01  0.66536130478E+01 -0.88120580628E+01  0.11451115217E+02  0.10500000000E+00 0.  1.
         13    1    4    4    0    0  0.85829877892E+01  0.18592015541E+02 -0.24558266375E+02  0.31975775106E+02  0.10500000000E+00 0. -1.
    3000001    1    5    5    0    0 -0.20934184352E+02 -0.35320295065E+02  0.40814210057E+02  0.57901321751E+02  0.10000000000E+01 0.  1.
        -13    1    6    6    0    0 -0.62840194455E+00 -0.56856975033E-01  0.15796776159E+01  0.17042676109E+01  0.10500000000E+00 0. -1.
         13    1    6    6    0    0 -0.93436026292E+00 -0.17271941104E+00  0.27319823716E+01  0.28944107819E+01  0.10500000000E+00 0.  1.
</event>
<event>
11    0  0.3476221E-009  0.9118800E+02  0.7816531E-02  0.1126479E+00
         25   -1    0    0    0    0  0.00000000000E+00  0.00000000000E+00  0.99999998245E-14  0.12500000000E+03  0.12500000000E+03 0.  0.
    3000001    1    3    3    0    0 -0.34145365523E+02  0.85862600753E+01 -0.10865274718E+02  0.36860331571E+02  0.10000000000E+01 0.  1.
    1000022    2    1    0    0    0 -0.53821901034E+02  0.20970917233E+02 -0.21671954948E+02  0.62500000399E+02  0.10000000903E+02 0.  0.
    3000022    2    3    3    0    0 -0.19676535511E+02  0.12384657158E+02 -0.10806680231E+02  0.25639668828E+02  0.24999479322E+00 0.  0.
    1000022    2    1    0    0    0  0.53821901034E+02 -0.20970917233E+02  0.21671954948E+02  0.62499999601E+02  0.99999959188E+01 0.  0.
    3000022    2    5    5    0    0  0.12766783632E+02 -0.43932269023E+01  0.76336951632E+00  0.13525399794E+02  0.24999925381E+00 0.  0.
        -13    1    4    4    0    0 -0.14974134776E+02  0.94235825687E+01 -0.82030051555E+01  0.19502023979E+02  0.10500000000E+00 0. -1.
         13    1    4    4    0    0 -0.47024007349E+01  0.29610745889E+01 -0.26036750751E+01  0.61376448487E+01  0.10500000000E+00 0.  1.
    3000001    1    5    5    0    0  0.41055117402E+02 -0.16577690331E+02  0.20908585432E+02  0.48974599808E+02  0.10000000000E+01 0. -1.
        -13    1    6    6    0    0  0.51066404319E+01 -0.17313287563E+01  0.24678513889E+00  0.53988150244E+01  0.10500000000E+00 0.  1.
         13    1    6    6    0    0  0.76601432005E+01 -0.26618981459E+01  0.51658437744E+00  0.81265847691E+01  0.10500000000E+00 0. -1.
</event>
<event>
11    0  0.3476221E-009  0.9118800E+02  0.7816531E-02  0.1126479E+00
         25   -1    0    0    0    0  0.00000000000E+00  0.00000000000E+00  0.99999998245E-14  0.12500000000E+03  0.12500000000E+03 0.  0.
    3000001    1    3    3    0    0 -0.20353260973E+02  0.43356646031E+02 -0.26446393841E+02  0.54721711729E+02  0.10000000000E+01 0.  1.
    1000022    2    1    0    0    0 -0.21408516477E+02  0.47627842447E+02 -0.32855960104E+02  0.62499999972E+02  0.99999964075E+01 0.  0.
    3000022    2    3    3    0    0 -0.10552555043E+01  0.42711964157E+01 -0.64095662633E+01  0.77782882429E+01  0.25009059300E+00 0.  0.
    1000022    2    1    0    0    0  0.21408516477E+02 -0.47627842447E+02  0.32855960104E+02  0.62500000028E+02  0.99999967631E+01 0.  0.
    3000022    2    5    5    0    0  0.13292250447E+02 -0.36141618558E+02  0.19879793757E+02  0.43337849664E+02  0.24999955145E+00 0.  0.
        -13    1    4    4    0    0 -0.47413484429E+00  0.16645717001E+01 -0.25453349371E+01  0.30798307969E+01  0.10500000000E+00 0. -1.
         13    1    4    4    0    0 -0.58112065996E+00  0.26066247156E+01 -0.38642313262E+01  0.46984574460E+01  0.10500000000E+00 0.  1.
    3000001    1    5    5    0    0  0.81162660301E+01 -0.11486223889E+02  0.12976166347E+02  0.19162150364E+02  0.10000000000E+01 0.  1.
        -13    1    6    6    0    0  0.54697166220E+01 -0.15041981439E+02  0.82929949737E+01  0.18026752236E+02  0.10500000000E+00 0. -1.
         13    1    6    6    0    0  0.78225338251E+01 -0.21099637119E+02  0.11586798783E+02  0.25311097429E+02  0.10500000000E+00 0.  1.
</event>
<event>
11    0  0.3476221E-009  0.9118800E+02  0.7816531E-02  0.1126479E+00
         25   -1    0    0    0    0  0.00000000000E+00  0.00000000000E+00  0.99999998245E-14  0.12500000000E+03  0.12500000000E+03 0.  0.
    3000001    1    3    3    0    0  0.35603923059E+02  0.11852408231E+02  0.33851185545E+02  0.50547222286E+02  0.10000000000E+01 0.  1.
    1000022    2    1    0    0    0  0.41155717346E+02  0.11754443236E+02  0.44432982307E+02  0.62500001642E+02  0.10000014124E+02 0.  0.
    3000022    2    3    3    0    0  0.55517942873E+01 -0.97964995015E-01  0.10581796762E+02  0.11952779356E+02  0.24998932427E+00 0.  0.
    1000022    2    1    0    0    0 -0.41155717346E+02 -0.11754443236E+02 -0.44432982307E+02  0.62499998358E+02  0.99999936030E+01 0.  0.
    3000022    2    5    5    0    0 -0.60514109860E+01 -0.54791260051E+01 -0.66088157967E+01  0.10506157343E+02  0.24999835063E+00 0.  0.
        -13    1    4    4    0    0  0.34405911320E+01 -0.10553952892E+00  0.66452537861E+01  0.74845994423E+01  0.10500000000E+00 0. -1.
         13    1    4    4    0    0  0.21112031553E+01  0.75745339083E-02  0.39365429759E+01  0.44681799133E+01  0.10500000000E+00 0.  1.
    3000001    1    5    5    0    0 -0.35104306360E+02 -0.62753172310E+01 -0.37824166510E+02  0.51993841016E+02  0.10000000000E+01 0.  1.
        -13    1    6    6    0    0 -0.33377697710E+01 -0.30194508898E+01 -0.35578194907E+01  0.57381961668E+01  0.10500000000E+00 0. -1.
         13    1    6    6    0    0 -0.27136412150E+01 -0.24596751153E+01 -0.30509963060E+01  0.47679611760E+01  0.10500000000E+00 0.  1.
</event>
<event>
11    0  0.3476221E-009  0.9118800E+02  0.7816531E-02  0.1126479E+00
         25   -1    0    0    0    0  0.00000000000E+00  0.00000000000E+00  0.99999998245E-14  0.12500000000E+03  0.12500000000E+03 0.  0.
    3000001    1    3    3    0    0 -0.44178284153E+02 -0.86537979414E+01  0.32199452058E+02  0.55357146986E+02  0.10000000000E+01 0. -1.
    1000022    2    1    0    0    0 -0.47870023570E+02 -0.12678478562E+02  0.36796286667E+02  0.62500002384E+02  0.10000030512E+02 0.  0.
    3000022    2    3    3    0    0 -0.36917394172E+01 -0.40246806207E+01  0.45968346090E+01  0.71428553985E+01  0.25000159803E+00 0.  0.
    1000022    2    1    0    0    0  0.47870023570E+02  0.12678478562E+02 -0.36796286667E+02  0.62499997616E+02  0.10000000709E+02 0.  0.
    3000022    2    5    5    0    0  0.98744642276E+01  0.61110519717E+01 -0.56162938661E+01  0.12901755985E+02  0.25010141883E+00 0.  0.
        -13    1    4    4    0    0 -0.17032937478E+01 -0.17749593738E+01  0.20220378475E+01  0.31861187088E+01  0.10500000000E+00 0.  1.
         13    1    4    4    0    0 -0.19884456694E+01 -0.22497212469E+01  0.25747967614E+01  0.39567366897E+01  0.10500000000E+00 0. -1.
    3000001    1    5    5    0    0  0.37995559343E+02  0.65674265904E+01 -0.31179992801E+02  0.49598241631E+02  0.10000000000E+01 0.  1.
        -13    1    6    6    0    0  0.24920777509E+01  0.15738628705E+01 -0.14148743966E+01  0.32711451221E+01  0.10500000000E+00 0.  1.
         13    1    6    6    0    0  0.73823864767E+01  0.45371891013E+01 -0.42014194695E+01  0.96306108628E+01  0.10500000000E+00 0. -1.
</event>
<event>
11    0  0.3476221E-009  0.9118800E+02  0.7816531E-02  0.1126479E+00
         25   -1    0    0    0    0  0.00000000000E+00  0.00000000000E+00  0.99999998245E-14  0.12500000000E+03  0.12500000000E+03 0.  0.
    3000001    1    3    3    0    0  0.19120817114E+01  0.10395823353E+01  0.18666704946E+01  0.30366505624E+01  0.10000000000E+01 0.  1.
    1000022    2    1    0    0    0  0.55535491138E+02 -0.11627089507E+02  0.24225397028E+02  0.62499998632E+02  0.99999990762E+01 0.  0.
    3000022    2    3    3    0    0  0.53623409426E+02 -0.12666671842E+02  0.22358726534E+02  0.59463348070E+02  0.24999476937E+00 0.  0.
    1000022    2    1    0    0    0 -0.55535491138E+02  0.11627089507E+02 -0.24225397028E+02  0.62500001368E+02  0.10000016175E+02 0.  0.
    3000022    2    5    5    0    0 -0.21319233804E+02  0.92256925016E+01 -0.11273941619E+02  0.25822226480E+02  0.24997726079E+00 0.  0.
        -13    1    4    4    0    0  0.39131069009E+02 -0.92728113415E+01  0.16342203584E+02  0.43408573288E+02  0.10500000000E+00 0.  1.
         13    1    4    4    0    0  0.14492340417E+02 -0.33938605005E+01  0.60165229501E+01  0.16054774781E+02  0.10500000000E+00 0. -1.
    3000001    1    5    5    0    0 -0.34216257334E+02  0.24013970051E+01 -0.12951455409E+02  0.36677774888E+02  0.10000000000E+01 0. -1.
        -13    1    6    6    0    0 -0.10231763466E+02  0.43560793482E+01 -0.53794077983E+01  0.12353682211E+02  0.10500000000E+00 0.  1.
         13    1    6    6    0    0 -0.11087470338E+02  0.48696131534E+01 -0.58945338210E+01  0.13468544269E+02  0.10500000000E+00 0. -1.
</event>
<event>
11    0  0.3476221E-009  0.9118800E+02  0.7816531E-02  0.1126479E+00
         25   -1    0    0    0    0  0.00000000000E+00  0.00000000000E+00  0.99999998245E-14  0.12500000000E+03  0.12500000000E+03 0.  0.
    3000001    1    3    3    0    0 -0.25375463896E+02 -0.40992903417E+02  0.93385032986E+01  0.49117613362E+02  0.10000000000E+01 0. -1.
    1000022    2    1    0    0    0 -0.35762659393E+02 -0.49425511135E+02  0.91869843339E+01  0.62499996946E+02  0.99999989634E+01 0.  0.
    3000022    2    3    3    0    0 -0.10387195497E+02 -0.84326077177E+01 -0.15151896463E+00  0.13382383584E+02  0.25005834818E+00 0.  0.
    1000022    2    1    0    0    0  0.35762659393E+02  0.49425511135E+02 -0.91869843339E+01  0.62500003054E+02  0.10000037141E+02 0.  0.
    3000022    2    5    5    0    0  0.16310141049E+02  0.29087143105E+02 -0.80972551943E+01  0.34317788918E+02  0.24999892301E+00 0.  0.
        -13    1    4    4    0    0 -0.47783624189E+01 -0.38058121544E+01 -0.33926590769E-01  0.61097569162E+01  0.10500000000E+00 0.  1.
         13    1    4    4    0    0 -0.56088330781E+01 -0.46267955633E+01 -0.11759237387E+00  0.72726266678E+01  0.10500000000E+00 0. -1.
    3000001    1    5    5    0    0  0.19452518344E+02  0.20338368029E+02 -0.10897291396E+01  0.28182214136E+02  0.10000000000E+01 0. -1.
        -13    1    6    6    0    0  0.80853244213E+01  0.14454302483E+02 -0.40889528131E+01  0.17059598218E+02  0.10500000000E+00 0.  1.
         13    1    6    6    0    0  0.82248166276E+01  0.14632840622E+02 -0.40083023812E+01  0.17258190699E+02  0.10500000000E+00 0. -1.
</event>
<event>
11    0  0.3476221E-009  0.9118800E+02  0.7816531E-02  0.1126479E+00
         25   -1    0    0    0    0  0.00000000000E+00  0.00000000000E+00  0.99999998245E-14  0.12500000000E+03  0.12500000000E+03 0.  0.
    3000001    1    3    3    0    0  0.45339020979E+01  0.89637228153E+01  0.88822784286E+01  0.13446169158E+02  0.10000000000E+01 0.  1.
    1000022    2    1    0    0    0  0.16664756503E+02  0.52879443668E+02  0.27061047704E+02  0.62500000033E+02  0.10000001469E+02 0.  0.
    3000022    2    3    3    0    0  0.12130854405E+02  0.43915720853E+02  0.18178769275E+02  0.49053830875E+02  0.25000911947E+00 0.  0.
    1000022    2    1    0    0    0 -0.16664756503E+02 -0.52879443668E+02 -0.27061047704E+02  0.62499999967E+02  0.10000001054E+02 0.  0.
    3000022    2    5    5    0    0 -0.17454359436E+02 -0.49312518838E+02 -0.26596258604E+02  0.58683921556E+02  0.24999986227E+00 0.  0.
        -13    1    4    4    0    0  0.53432300201E+01  0.19588371526E+02  0.80876957874E+01  0.21855805962E+02  0.10500000000E+00 0.  1.
         13    1    4    4    0    0  0.67876243850E+01  0.24327349326E+02  0.10091073488E+02  0.27198024913E+02  0.10500000000E+00 0. -1.
    3000001    1    5    5    0    0  0.78960293285E+00 -0.35669248296E+01 -0.46478909963E+00  0.38160784110E+01  0.10000000000E+01 0. -1.
        -13    1    6    6    0    0 -0.41739411957E+01 -0.11763055981E+02 -0.63290426541E+01  0.13994966132E+02  0.10500000000E+00 0. -1.
         13    1    6    6    0    0 -0.13280418240E+02 -0.37549462857E+02 -0.20267215950E+02  0.44688955424E+02  0.10500000000E+00 0.  1.
</event>
<event>
11    0  0.3476221E-009  0.9118800E+02  0.7816531E-02  0.1126479E+00
         25   -1    0    0    0    0  0.00000000000E+00  0.00000000000E+00  0.99999998245E-14  0.12500000000E+03  0.12500000000E+03 0.  0.
    3000001    1    3    3    0    0  0.58879894468E+01 -0.72715762022E+01 -0.15736672420E+02  0.18335405615E+02  0.10000000000E+01 0.  1.
    1000022    2    1    0    0    0  0.60928759903E+01 -0.20429080404E+02 -0.57894555076E+02  0.62500000733E+02  0.10000006007E+02 0.  0.
    3000022    2    3    3    0    0  0.20488654350E+00 -0.13157504202E+02 -0.42157882656E+02  0.44164595118E+02  0.24999320454E+00 0.  0.
    1000022    2    1    0    0    0 -0.60928759903E+01  0.20429080404E+02  0.57894555076E+02  0.62499999267E+02  0.99999968461E+01 0.  0.
    3000022    2    5    5    0    0 -0.78504062067E+01  0.98180723460E+01  0.27349202273E+02  0.30100910046E+02  0.24999687211E+00 0.  0.
        -13    1    4    4    0    0  0.10200218578E+00 -0.88692197823E+01 -0.28539074445E+02  0.29885837100E+02  0.10500000000E+00 0.  1.
         13    1    4    4    0    0  0.10288435771E+00 -0.42882844194E+01 -0.13618808211E+02  0.14278758018E+02  0.10500000000E+00 0. -1.
    3000001    1    5    5    0    0  0.17575302165E+01  0.10611008058E+02  0.30545352804E+02  0.32399089221E+02  0.10000000000E+01 0.  1.
        -13    1    6    6    0    0 -0.31987779582E+01  0.40902808923E+01  0.11372500331E+02  0.12502294468E+02  0.10500000000E+00 0. -1.
         13    1    6    6    0    0 -0.46516282485E+01  0.57277914538E+01  0.15976701942E+02  0.17598615578E+02  0.10500000000E+00 0.  1.
</event>
<event>
11    0  0.3476221E-009  0.9118800E+02  0.7816531E-02  0.1126479E+00
         25   -1    0    0    0    0  0.00000000000E+00  0.00000000000E+00  0.99999998245E-14  0.12500000000E+03  0.12500000000E+03 0.  0.
    3000001    1    3    3    0    0 -0.25559256422E+02 -0.19332253032E+01 -0.21707852424E+02  0.33604223035E+02  0.10000000000E+01 0.  1.
    1000022    2    1    0    0    0 -0.41520524061E+02 -0.89822016234E+01 -0.44739424098E+02  0.62500000043E+02  0.10000003623E+02 0.  0.
    3000022    2    3    3    0    0 -0.15961267639E+02 -0.70489763202E+01 -0.23031571675E+02  0.28895777008E+02  0.25000663640E+00 0.  0.
    1000022    2    1    0    0    0  0.41520524061E+02  0.89822016234E+01  0.44739424098E+02  0.62499999957E+02  0.10000003083E+02 0.  0.
    3000022    2    5    5    0    0  0.27107758620E+02  0.65872920192E+01  0.35633765256E+02  0.45255394347E+02  0.24999535354E+00 0.  0.
        -13    1    4    4    0    0 -0.54078683111E+01 -0.24241958908E+01 -0.78957344210E+01  0.98729637108E+01  0.10500000000E+00 0. -1.
         13    1    4    4    0    0 -0.10553399328E+02 -0.46247804294E+01 -0.15135837254E+02  0.19022813298E+02  0.10500000000E+00 0.  1.
    3000001    1    5    5    0    0  0.14412765441E+02  0.23949096041E+01  0.91056588420E+01  0.17244605610E+02  0.10000000000E+01 0. -1.
        -13    1    6    6    0    0  0.94611745242E+01  0.22412560558E+01  0.12423893693E+02  0.15776603297E+02  0.10500000000E+00 0.  1.
         13    1    6    6    0    0  0.17646584095E+02  0.43460359635E+01  0.23209871563E+02  0.29478791051E+02  0.10500000000E+00 0. -1.
</event>
<event>
11    0  0.3476221E-009  0.9118800E+02  0.7816531E-02  0.1126479E+00
         25   -1    0    0    0    0  0.00000000000E+00  0.00000000000E+00  0.99999998245E-14  0.12500000000E+03  0.12500000000E+03 0.  0.
    3000001    1    3    3    0    0  0.86082102996E+00 -0.17031115848E+02  0.44287174382E+01  0.17646910722E+02  0.10000000000E+01 0.  1.
    1000022    2    1    0    0    0 -0.29394801536E+01 -0.61611389225E+02  0.12833198028E+01  0.62499994142E+02  0.99999266158E+01 0.  0.
    3000022    2    3    3    0    0 -0.38003011835E+01 -0.44580273376E+02 -0.31453976354E+01  0.44853083420E+02  0.25000527386E+00 0.  0.
    1000022    2    1    0    0    0  0.29394801536E+01  0.61611389225E+02 -0.12833198028E+01  0.62500005858E+02  0.99999998372E+01 0.  0.
    3000022    2    5    5    0    0 -0.88391155043E+00  0.46497672408E+02  0.19476754435E+01  0.46547511056E+02  0.25001367014E+00 0.  0.
        -13    1    4    4    0    0 -0.21008774614E+01 -0.25365288393E+02 -0.17655877216E+01  0.25513523206E+02  0.10500000000E+00 0. -1.
         13    1    4    4    0    0 -0.16994237221E+01 -0.19214984983E+02 -0.13798099138E+01  0.19339560214E+02  0.10500000000E+00 0.  1.
    3000001    1    5    5    0    0  0.38233917040E+01  0.15113716816E+02 -0.32309952463E+01  0.15952494802E+02  0.10000000000E+01 0. -1.
        -13    1    6    6    0    0 -0.37582337266E+00  0.20699544133E+02  0.80294295049E+00  0.20718786473E+02  0.10500000000E+00 0.  1.
         13    1    6    6    0    0 -0.50808817778E+00  0.25798128276E+02  0.11447324930E+01  0.25828724583E+02  0.10500000000E+00 0. -1.
</event>
<event>
11    0  0.3476221E-009  0.9118800E+02  0.7816531E-02  0.1126479E+00
         25   -1    0    0    0    0  0.00000000000E+00  0.00000000000E+00  0.99999998245E-14  0.12500000000E+03  0.12500000000E+03 0.  0.
    3000001    1    3    3    0    0 -0.13984080414E+01  0.52182723918E+00  0.29132809924E+01  0.34227262319E+01  0.10000000000E+01 0.  1.
    1000022    2    1    0    0    0  0.88335716046E+01  0.24386826349E+02  0.55977678770E+02  0.62500001164E+02  0.10000016921E+02 0.  0.
    3000022    2    3    3    0    0  0.10231979646E+02  0.23864999109E+02  0.53064397778E+02  0.59077274932E+02  0.25002395659E+00 0.  0.
    1000022    2    1    0    0    0 -0.88335716046E+01 -0.24386826349E+02 -0.55977678770E+02  0.62499998836E+02  0.10000002366E+02 0.  0.
    3000022    2    5    5    0    0 -0.11876900858E+01 -0.12723419855E+02 -0.18383920430E+02  0.22390333899E+02  0.25000234810E+00 0.  0.
        -13    1    4    4    0    0  0.31497275192E+01  0.72291603117E+01  0.16098103292E+02  0.17926000581E+02  0.10500000000E+00 0.  1.
         13    1    4    4    0    0  0.70822521268E+01  0.16635838798E+02  0.36966294486E+02  0.41151274351E+02  0.10500000000E+00 0. -1.
    3000001    1    5    5    0    0 -0.76458815188E+01 -0.11663406494E+02 -0.37593758340E+02  0.40109664937E+02  0.10000000000E+01 0. -1.
        -13    1    6    6    0    0 -0.33786403608E+00 -0.41394006853E+01 -0.59428821589E+01  0.72510456828E+01  0.10500000000E+00 0.  1.
         13    1    6    6    0    0 -0.84982604973E+00 -0.85840191693E+01 -0.12441038272E+02  0.15139288216E+02  0.10500000000E+00 0. -1.
</event>
<event>
11    0  0.3476221E-009  0.9118800E+02  0.7816531E-02  0.1126479E+00
         25   -1    0    0    0    0  0.00000000000E+00  0.00000000000E+00  0.99999998245E-14  0.12500000000E+03  0.12500000000E+03 0.  0.
    3000001    1    3    3    0    0  0.67573922751E+01 -0.88730170805E+01 -0.11731603648E+02  0.16217993299E+02  0.10000000000E+01 0. -1.
    1000022    2    1    0    0    0  0.26002064773E+02 -0.45257477504E+02 -0.32892301497E+02  0.62499998617E+02  0.99999843433E+01 0.  0.
    3000022    2    3    3    0    0  0.19244672498E+02 -0.36384460424E+02 -0.21160697849E+02  0.46282005319E+02  0.25000597011E+00 0.  0.
    1000022    2    1    0    0    0 -0.26002064773E+02  0.45257477504E+02  0.32892301497E+02  0.62500001383E+02  0.10000001628E+02 0.  0.
    3000022    2    5    5    0    0 -0.16427047491E+02  0.20396076951E+02  0.19586116501E+02  0.32703613136E+02  0.25001655475E+00 0.  0.
        -13    1    4    4    0    0  0.59860451342E+01 -0.11318475907E+02 -0.66374099472E+01  0.14422443240E+02  0.10500000000E+00 0.  1.
         13    1    4    4    0    0  0.13258627364E+02 -0.25065984517E+02 -0.14523287902E+02  0.31859562079E+02  0.10500000000E+00 0. -1.
    3000001    1    5    5    0    0 -0.95750172822E+01  0.24861400553E+02  0.13306184996E+02  0.29796388247E+02  0.10000000000E+01 0. -1.
        -13    1    6    6    0    0 -0.74115827254E+01  0.92964070552E+01  0.89310197911E+01  0.14870402891E+02  0.10500000000E+00 0.  1.
         13    1    6    6    0    0 -0.90154647653E+01  0.11099669896E+02  0.10655096710E+02  0.17833210245E+02  0.10500000000E+00 0. -1.
</event>
<event>
11    0  0.3476221E-009  0.9118800E+02  0.7816531E-02  0.1126479E+00
         25   -1    0    0    0    0  0.00000000000E+00  0.00000000000E+00  0.99999998245E-14  0.12500000000E+03  0.12500000000E+03 0.  0.
    3000001    1    3    3    0    0  0.23329172766E+01 -0.58664996687E+01  0.36782212136E+02  0.37333489670E+02  0.10000000000E+01 0.  1.
    1000022    2    1    0    0    0  0.59070272106E+00 -0.16902439345E+02  0.59331346190E+02  0.62499999616E+02  0.99999962883E+01 0.  0.
    3000022    2    3    3    0    0 -0.17422145555E+01 -0.11035939676E+02  0.22549134055E+02  0.25166509946E+02  0.25000028881E+00 0.  0.
    1000022    2    1    0    0    0 -0.59070272106E+00  0.16902439345E+02 -0.59331346190E+02  0.62500000384E+02  0.10000001086E+02 0.  0.
    3000022    2    5    5    0    0 -0.51167626755E+01  0.11032464005E+02 -0.36075254756E+02  0.38070763433E+02  0.25000072771E+00 0.  0.
        -13    1    4    4    0    0 -0.10339698827E+01 -0.63173882498E+01  0.12796246966E+02  0.14308509686E+02  0.10500000000E+00 0. -1.
         13    1    4    4    0    0 -0.70824467280E+00 -0.47185514263E+01  0.97528870891E+01  0.10858000260E+02  0.10500000000E+00 0.  1.
    3000001    1    5    5    0    0  0.45260599544E+01  0.58699753396E+01 -0.23256091434E+02  0.24429236951E+02  0.10000000000E+01 0.  1.
        -13    1    6    6    0    0 -0.32811326483E+01  0.72065861226E+01 -0.23456660243E+02  0.24757355468E+02  0.10500000000E+00 0. -1.
         13    1    6    6    0    0 -0.18356300272E+01  0.38258778826E+01 -0.12618594513E+02  0.13313407965E+02  0.10500000000E+00 0.  1.
</event>
<event>
11    0  0.3476221E-009  0.9118800E+02  0.7816531E-02  0.1126479E+00
         25   -1    0    0    0    0  0.00000000000E+00  0.00000000000E+00  0.99999998245E-14  0.12500000000E+03  0.12500000000E+03 0.  0.
    3000001    1    3    3    0    0 -0.40141019353E+02  0.19191889855E+01 -0.35226076119E+02  0.53449613280E+02  0.10000000000E+01 0. -1.
    1000022    2    1    0    0    0 -0.45898411218E+02  0.61680635606E+01 -0.40762004000E+02  0.62499999861E+02  0.99999926048E+01 0.  0.
    3000022    2    3    3    0    0 -0.57573918647E+01  0.42488745751E+01 -0.55359278808E+01  0.90503865804E+01  0.25000702854E+00 0.  0.
    1000022    2    1    0    0    0  0.45898411218E+02 -0.61680635606E+01  0.40762004000E+02  0.62500000139E+02  0.99999943476E+01 0.  0.
    3000022    2    5    5    0    0  0.32184600981E+01 -0.61551861908E+00  0.10937306578E+00  0.32881315255E+01  0.24999577543E+00 0.  0.
        -13    1    4    4    0    0 -0.16052854089E+01  0.11383702586E+01 -0.15147025931E+01  0.24855938999E+01  0.10500000000E+00 0.  1.
         13    1    4    4    0    0 -0.41521064558E+01  0.31105043165E+01 -0.40212252877E+01  0.65647926805E+01  0.10500000000E+00 0. -1.
    3000001    1    5    5    0    0  0.42679951119E+02 -0.55525449415E+01  0.40652630934E+02  0.59211868614E+02  0.10000000000E+01 0. -1.
        -13    1    6    6    0    0  0.92139004182E+00 -0.21952836939E+00  0.27603726262E-01  0.95338307088E+00  0.10500000000E+00 0. -1.
         13    1    6    6    0    0  0.22970700563E+01 -0.39599024969E+00  0.81769339520E-01  0.23347484546E+01  0.10500000000E+00 0.  1.
</event>
<event>
11    0  0.3476221E-009  0.9118800E+02  0.7816531E-02  0.1126479E+00
         25   -1    0    0    0    0  0.00000000000E+00  0.00000000000E+00  0.99999998245E-14  0.12500000000E+03  0.12500000000E+03 0.  0.
    3000001    1    3    3    0    0 -0.36811182239E+02  0.36670864011E+02 -0.13532419410E+02  0.53702344271E+02  0.10000000000E+01 0. -1.
    1000022    2    1    0    0    0 -0.41775710293E+02  0.43773893565E+02 -0.12036872481E+02  0.62499999200E+02  0.99999936279E+01 0.  0.
    3000022    2    3    3    0    0 -0.49645280543E+01  0.71030295548E+01  0.14955469295E+01  0.87976549294E+01  0.25000795970E+00 0.  0.
    1000022    2    1    0    0    0  0.41775710293E+02 -0.43773893565E+02  0.12036872481E+02  0.62500000800E+02  0.10000003623E+02 0.  0.
    3000022    2    5    5    0    0  0.40579957119E+02 -0.39979958801E+02  0.12645961043E+02  0.58353344854E+02  0.24999906439E+00 0.  0.
        -13    1    4    4    0    0 -0.34563564719E+01  0.49385762882E+01  0.10876057827E+01  0.61261608821E+01  0.10500000000E+00 0. -1.
         13    1    4    4    0    0 -0.15081715824E+01  0.21644532666E+01  0.40794114681E+00  0.26714940473E+01  0.10500000000E+00 0.  1.
    3000001    1    5    5    0    0  0.11957531745E+01 -0.37939347646E+01 -0.60908856173E+00  0.41466559453E+01  0.10000000000E+01 0. -1.
        -13    1    6    6    0    0  0.13460055626E+02 -0.13287771214E+02  0.42497203353E+01  0.19385796584E+02  0.10500000000E+00 0. -1.
         13    1    6    6    0    0  0.27119901493E+02 -0.26692187587E+02  0.83962407074E+01  0.38967548270E+02  0.10500000000E+00 0.  1.
</event>
<event>
11    0  0.3476221E-009  0.9118800E+02  0.7816531E-02  0.1126479E+00
         25   -1    0    0    0    0  0.00000000000E+00  0.00000000000E+00  0.99999998245E-14  0.12500000000E+03  0.12500000000E+03 0.  0.
    3000001    1    3    3    0    0  0.70890438373E+01 -0.38052370476E+01 -0.54699345165E+02  0.55296950485E+02  0.10000000000E+01 0. -1.
    1000022    2    1    0    0    0  0.56347490292E+01 -0.16576876757E+01 -0.61414588050E+02  0.62500000339E+02  0.10000004599E+02 0.  0.
    3000022    2    3    3    0    0 -0.14542948081E+01  0.21475493719E+01 -0.67152428848E+01  0.72030498534E+01  0.24999698978E+00 0.  0.
    1000022    2    1    0    0    0 -0.56347490292E+01  0.16576876757E+01  0.61414588050E+02  0.62499999661E+02  0.10000000366E+02 0.  0.
    3000022    2    5    5    0    0  0.81224059295E+00  0.23182252882E+01  0.40642838960E+02  0.40717769624E+02  0.25000243902E+00 0.  0.
        -13    1    4    4    0    0 -0.96452782477E+00  0.13399262803E+01 -0.43605783317E+01  0.46638379848E+01  0.10500000000E+00 0. -1.
         13    1    4    4    0    0 -0.48976698336E+00  0.80762309157E+00 -0.23546645530E+01  0.25392118685E+01  0.10500000000E+00 0.  1.
    3000001    1    5    5    0    0 -0.64469896221E+01 -0.66053761248E+00  0.20771749090E+02  0.21782230037E+02  0.10000000000E+01 0. -1.
        -13    1    6    6    0    0  0.31422996662E+00  0.97701522654E+00  0.17982131459E+02  0.18011701086E+02  0.10500000000E+00 0. -1.
         13    1    6    6    0    0  0.49801062633E+00  0.13412100617E+01  0.22660707501E+02  0.22706068538E+02  0.10500000000E+00 0.  1.
</event>
<event>
11    0  0.3476221E-009  0.9118800E+02  0.7816531E-02  0.1126479E+00
         25   -1    0    0    0    0  0.00000000000E+00  0.00000000000E+00  0.99999998245E-14  0.12500000000E+03  0.12500000000E+03 0.  0.
    3000001    1    3    3    0    0  0.46765803057E+02  0.84439553346E+01 -0.17963733823E+02  0.50813742729E+02  0.10000000000E+01 0. -1.
    1000022    2    1    0    0    0  0.55341495835E+02  0.85354392479E+01 -0.25898167510E+02  0.62500000214E+02  0.10000003094E+02 0.  0.
    3000022    2    3    3    0    0  0.85756927781E+01  0.91483913320E-01 -0.79344336864E+01  0.11686257484E+02  0.25000026976E+00 0.  0.
    1000022    2    1    0    0    0 -0.55341495835E+02 -0.85354392479E+01  0.25898167510E+02  0.62499999786E+02  0.10000000423E+02 0.  0.
    3000022    2    5    5    0    0 -0.42719833691E+02 -0.75242553110E+01  0.24237926047E+02  0.49690423292E+02  0.24999866737E+00 0.  0.
        -13    1    4    4    0    0  0.47242984702E+01  0.88188461414E-01 -0.42963346417E+01  0.63871973192E+01  0.10500000000E+00 0. -1.
         13    1    4    4    0    0  0.38513943079E+01  0.32954519067E-02 -0.36380990446E+01  0.52990601651E+01  0.10500000000E+00 0.  1.
    3000001    1    5    5    0    0 -0.12621662145E+02 -0.10111839369E+01  0.16602414629E+01  0.12809576494E+02  0.10000000000E+01 0. -1.
        -13    1    6    6    0    0 -0.24358108677E+02 -0.42829415193E+01  0.13893886171E+02  0.28367448675E+02  0.10500000000E+00 0. -1.
         13    1    6    6    0    0 -0.18361725013E+02 -0.32413137917E+01  0.10344039876E+02  0.21322974617E+02  0.10500000000E+00 0.  1.
</event>
<event>
11    0  0.3476221E-009  0.9118800E+02  0.7816531E-02  0.1126479E+00
         25   -1    0    0    0    0  0.00000000000E+00  0.00000000000E+00  0.99999998245E-14  0.12500000000E+03  0.12500000000E+03 0.  0.
    3000001    1    3    3    0    0  0.28876170567E+02 -0.45154820951E+01  0.10153603950E+02  0.30956719438E+02  0.10000000000E+01 0. -1.
    1000022    2    1    0    0    0  0.55847408766E+02 -0.12825545711E+01  0.26185337584E+02  0.62499999029E+02  0.99999981036E+01 0.  0.
    3000022    2    3    3    0    0  0.26971238199E+02  0.32329275240E+01  0.16031733634E+02  0.31543279591E+02  0.24998736000E+00 0.  0.
    1000022    2    1    0    0    0 -0.55847408766E+02  0.12825545711E+01 -0.26185337584E+02  0.62500000971E+02  0.10000010244E+02 0.  0.
    3000022    2    5    5    0    0 -0.17521043761E+02  0.12587097613E+01 -0.33785173011E+01  0.17889891416E+02  0.25002198202E+00 0.  0.
        -13    1    4    4    0    0  0.93325114570E+01  0.11685839284E+01  0.55808638792E+01  0.10937020853E+02  0.10500000000E+00 0.  1.
         13    1    4    4    0    0  0.17638726742E+02  0.20643435956E+01  0.10450869754E+02  0.20606258738E+02  0.10500000000E+00 0. -1.
    3000001    1    5    5    0    0 -0.38326365005E+02  0.23844809821E-01 -0.22806820283E+02  0.44610109555E+02  0.10000000000E+01 0. -1.
        -13    1    6    6    0    0 -0.57667410400E+01  0.46664123128E+00 -0.11203837740E+01  0.58940089126E+01  0.10500000000E+00 0. -1.
         13    1    6    6    0    0 -0.11754302721E+02  0.79206853001E+00 -0.22581335271E+01  0.11995882504E+02  0.10500000000E+00 0.  1.
</event>
<event>
11    0  0.3476221E-009  0.9118800E+02  0.7816531E-02  0.1126479E+00
         25   -1    0    0    0    0  0.00000000000E+00  0.00000000000E+00  0.99999998245E-14  0.12500000000E+03  0.12500000000E+03 0.  0.
    3000001    1    3    3    0    0 -0.14456473479E+02 -0.27955334512E+01 -0.36791921905E+00  0.14762790972E+02  0.10000000000E+01 0. -1.
    1000022    2    1    0    0    0 -0.61110854114E+02  0.29779959569E+01  0.79274726520E+01  0.62499997611E+02  0.99999964133E+01 0.  0.
    3000022    2    3    3    0    0 -0.46654380635E+02  0.57735294081E+01  0.82953918711E+01  0.47737206639E+02  0.24999431622E+00 0.  0.
    1000022    2    1    0    0    0  0.61110854114E+02 -0.29779959569E+01 -0.79274726520E+01  0.62500002389E+02  0.10000026274E+02 0.  0.
    3000022    2    5    5    0    0  0.94868840707E+00 -0.72330505644E+00 -0.15184903034E+01  0.19471753007E+01  0.24999790375E+00 0.  0.
        -13    1    4    4    0    0 -0.16754170253E+02  0.20513385278E+01  0.29240330875E+01  0.17131001288E+02  0.10500000000E+00 0.  1.
         13    1    4    4    0    0 -0.29900210382E+02  0.37221908803E+01  0.53713587836E+01  0.30606205352E+02  0.10500000000E+00 0. -1.
    3000001    1    5    5    0    0  0.60162165707E+02 -0.22546909005E+01 -0.64089823486E+01  0.60552827088E+02  0.10000000000E+01 0.  1.
        -13    1    6    6    0    0  0.29020323277E+00 -0.18032247094E+00 -0.40216999966E+00  0.53805187340E+00  0.10500000000E+00 0.  1.
         13    1    6    6    0    0  0.65848517429E+00 -0.54298258550E+00 -0.11163203037E+01  0.14091234273E+01  0.10500000000E+00 0. -1.
</event>
<event>
11    0  0.3476221E-009  0.9118800E+02  0.7816531E-02  0.1126479E+00
         25   -1    0    0    0    0  0.00000000000E+00  0.00000000000E+00  0.99999998245E-14  0.12500000000E+03  0.12500000000E+03 0.  0.
    3000001    1    3    3    0    0  0.59263898467E+01 -0.31556365858E+00  0.29184540408E+00  0.60255166399E+01  0.10000000000E+01 0.  1.
    1000022    2    1    0    0    0  0.56529016163E+02  0.24370068753E+02 -0.41012308832E+01  0.62500005158E+02  0.10000031533E+02 0.  0.
    3000022    2    3    3    0    0  0.50602626316E+02  0.24685632411E+02 -0.43930762872E+01  0.56474488518E+02  0.24999298906E+00 0.  0.
    1000022    2    1    0    0    0 -0.56529016163E+02 -0.24370068753E+02  0.41012308832E+01  0.62499994842E+02  0.99999670551E+01 0.  0.
    3000022    2    5    5    0    0 -0.28315193184E+02 -0.79662507333E+01  0.49943900631E+01  0.29836516980E+02  0.24999520811E+00 0.  0.
        -13    1    4    4    0    0  0.21547289392E+02  0.10557174260E+02 -0.18213341089E+01  0.24063829525E+02  0.10500000000E+00 0.  1.
         13    1    4    4    0    0  0.29055336925E+02  0.14128458151E+02 -0.25717421783E+01  0.32410658993E+02  0.10500000000E+00 0. -1.
    3000001    1    5    5    0    0 -0.28213822979E+02 -0.16403818020E+02 -0.89315917994E+00  0.32663477862E+02  0.10000000000E+01 0. -1.
        -13    1    6    6    0    0 -0.13864548341E+02 -0.38483036970E+01  0.23971745535E+01  0.14587412824E+02  0.10500000000E+00 0.  1.
         13    1    6    6    0    0 -0.14450644843E+02 -0.41179470363E+01  0.25972155096E+01  0.15249104157E+02  0.10500000000E+00 0. -1.
</event>
<event>
11    0  0.3476221E-009  0.9118800E+02  0.7816531E-02  0.1126479E+00
         25   -1    0    0    0    0  0.00000000000E+00  0.00000000000E+00  0.99999998245E-14  0.12500000000E+03  0.12500000000E+03 0.  0.
    3000001    1    3    3    0    0  0.12223337213E+02  0.22627814612E+02 -0.14599184249E+02  0.29589933212E+02  0.10000000000E+01 0. -1.
    1000022    2    1    0    0    0  0.16845828717E+02  0.52310801505E+02 -0.28036567076E+02  0.62500006084E+02  0.99999883875E+01 0.  0.
    3000022    2    3    3    0    0  0.46224915046E+01  0.29682986893E+02 -0.13437382827E+02  0.32910072872E+02  0.25000117833E+00 0.  0.
    1000022    2    1    0    0    0 -0.16845828717E+02 -0.52310801505E+02  0.28036567076E+02  0.62499993916E+02  0.99999123431E+01 0.  0.
    3000022    2    5    5    0    0 -0.11647516619E+02 -0.43254952342E+02  0.26062292635E+02  0.51826259223E+02  0.25000433353E+00 0.  0.
        -13    1    4    4    0    0  0.30335551288E+01  0.19821172273E+02 -0.89589460784E+01  0.21962583337E+02  0.10500000000E+00 0.  1.
         13    1    4    4    0    0  0.15889363758E+01  0.98618146195E+01 -0.44784367486E+01  0.10947489534E+02  0.10500000000E+00 0. -1.
    3000001    1    5    5    0    0 -0.51983120981E+01 -0.90558491632E+01  0.19742744410E+01  0.10673734693E+02  0.10000000000E+01 0.  1.
        -13    1    6    6    0    0 -0.64366299206E+01 -0.24153073741E+02  0.14527221128E+02  0.28911111265E+02  0.10500000000E+00 0. -1.
         13    1    6    6    0    0 -0.52108866985E+01 -0.19101878601E+02  0.11535071508E+02  0.22915147958E+02  0.10500000000E+00 0.  1.
</event>
<event>
11    0  0.3476221E-009  0.9118800E+02  0.7816531E-02  0.1126479E+00
         25   -1    0    0    0    0  0.00000000000E+00  0.00000000000E+00  0.99999998245E-14  0.12500000000E+03  0.12500000000E+03 0.  0.
    3000001    1    3    3    0    0 -0.13348047951E+02  0.11175826988E+02 -0.29638903656E+02  0.34387993586E+02  0.10000000000E+01 0.  1.
    1000022    2    1    0    0    0 -0.15629010428E+02  0.20010857732E+02 -0.56227658218E+02  0.62500000148E+02  0.10000003785E+02 0.  0.
    3000022    2    3    3    0    0 -0.22809624771E+01  0.88350307442E+01 -0.26588754562E+02  0.28112006562E+02  0.24997139712E+00 0.  0.
    1000022    2    1    0    0    0  0.15629010428E+02 -0.20010857732E+02  0.56227658218E+02  0.62499999852E+02  0.10000001933E+02 0.  0.
    3000022    2    5    5    0    0  0.32204731727E+01  0.45380822100E+00  0.83511279887E+01  0.89655577030E+01  0.24999376884E+00 0.  0.
        -13    1    4    4    0    0 -0.13408144219E+01  0.54280506027E+01 -0.16230367289E+02  0.17166751702E+02  0.10500000000E+00 0. -1.
         13    1    4    4    0    0 -0.94014805522E+00  0.34069801415E+01 -0.10358387273E+02  0.10945254860E+02  0.10500000000E+00 0.  1.
    3000001    1    5    5    0    0  0.12408537255E+02 -0.20464665953E+02  0.47876530229E+02  0.53534442149E+02  0.10000000000E+01 0.  1.
        -13    1    6    6    0    0  0.20244669212E+01  0.22505025594E+00  0.52424992588E+01  0.56252944289E+01  0.10500000000E+00 0. -1.
         13    1    6    6    0    0  0.11960062515E+01  0.22875796506E+00  0.31086287299E+01  0.33402632741E+01  0.10500000000E+00 0.  1.
</event>
<event>
11    0  0.3476221E-009  0.9118800E+02  0.7816531E-02  0.1126479E+00
         25   -1    0    0    0    0  0.00000000000E+00  0.00000000000E+00  0.99999998245E-14  0.12500000000E+03  0.12500000000E+03 0.  0.
    3000001    1    3    3    0    0  0.23899338366E+02  0.29052073700E+02  0.17593482594E+02  0.41541930509E+02  0.10000000000E+01 0. -1.
    1000022    2    1    0    0    0  0.40527647525E+02  0.38353471558E+02  0.26320538429E+02  0.62499999863E+02  0.10000012264E+02 0.  0.
    3000022    2    3    3    0    0  0.16628309158E+02  0.93013978583E+01  0.87270558351E+01  0.20958069355E+02  0.24999987957E+00 0.  0.
    1000022    2    1    0    0    0 -0.40527647525E+02 -0.38353471558E+02 -0.26320538429E+02  0.62500000137E+02  0.10000013971E+02 0.  0.
    3000022    2    5    5    0    0 -0.12788349347E+01  0.53134828082E+00 -0.39212309148E+00  0.14608223443E+01  0.24998323345E+00 0.  0.
        -13    1    4    4    0    0  0.91985361759E+01  0.51571057346E+01  0.49024824660E+01  0.11629882487E+02  0.10500000000E+00 0. -1.
         13    1    4    4    0    0  0.74297729826E+01  0.41442921237E+01  0.38245733691E+01  0.93281868675E+01  0.10500000000E+00 0.  1.
    3000001    1    5    5    0    0 -0.39248812590E+02 -0.38884819839E+02 -0.25928415338E+02  0.61039177792E+02  0.10000000000E+01 0. -1.
        -13    1    6    6    0    0 -0.81080497988E+00  0.27028856034E+00 -0.24279345572E+00  0.89466992986E+00  0.10500000000E+00 0.  1.
         13    1    6    6    0    0 -0.46802995478E+00  0.26105972048E+00 -0.14932963577E+00  0.56615241442E+00  0.10500000000E+00 0. -1.
</event>
<event>
11    0  0.3476221E-009  0.9118800E+02  0.7816531E-02  0.1126479E+00
         25   -1    0    0    0    0  0.00000000000E+00  0.00000000000E+00  0.99999998245E-14  0.12500000000E+03  0.12500000000E+03 0.  0.
    3000001    1    3    3    0    0  0.10526131906E+01  0.17086098809E+01 -0.22674760844E+02  0.22785348837E+02  0.10000000000E+01 0.  1.
    1000022    2    1    0    0    0  0.14418405975E+02 -0.92249525703E+00 -0.59979235317E+02  0.62499999102E+02  0.99999895122E+01 0.  0.
    3000022    2    3    3    0    0  0.13365792785E+02 -0.26311051379E+01 -0.37304474472E+02  0.39714650266E+02  0.24999812468E+00 0.  0.
    1000022    2    1    0    0    0 -0.14418405975E+02  0.92249525703E+00  0.59979235317E+02  0.62500000898E+02  0.10000000736E+02 0.  0.
    3000022    2    5    5    0    0 -0.14021639564E+02  0.24599665385E+01  0.58192267442E+02  0.59908766499E+02  0.25000383918E+00 0.  0.
        -13    1    4    4    0    0  0.38406833535E+01 -0.79916890583E+00 -0.10741907330E+02  0.11436306993E+02  0.10500000000E+00 0.  1.
         13    1    4    4    0    0  0.95251094312E+01 -0.18319362321E+01 -0.26562567142E+02  0.28278343272E+02  0.10500000000E+00 0. -1.
    3000001    1    5    5    0    0 -0.39676641121E+00 -0.15374712815E+01  0.17869678742E+01  0.25912343988E+01  0.10000000000E+01 0.  1.
        -13    1    6    6    0    0 -0.72407301802E+01  0.12886077916E+01  0.30337510860E+02  0.31216410328E+02  0.10500000000E+00 0. -1.
         13    1    6    6    0    0 -0.67809093840E+01  0.11713587469E+01  0.27854756582E+02  0.28692356171E+02  0.10500000000E+00 0.  1.
</event>
<event>
11    0  0.3476221E-009  0.9118800E+02  0.7816531E-02  0.1126479E+00
         25   -1    0    0    0    0  0.00000000000E+00  0.00000000000E+00  0.99999998245E-14  0.12500000000E+03  0.12500000000E+03 0.  0.
    3000001    1    3    3    0    0  0.42260638259E+01 -0.11720189690E+02 -0.16628303508E+02  0.20801993640E+02  0.10000000000E+01 0.  1.
    1000022    2    1    0    0    0  0.22679687966E+02 -0.25587962966E+02 -0.51353073565E+02  0.62499997622E+02  0.99999721557E+01 0.  0.
    3000022    2    3    3    0    0  0.18453624140E+02 -0.13867773276E+02 -0.34724770057E+02  0.41698003981E+02  0.25000201350E+00 0.  0.
    1000022    2    1    0    0    0 -0.22679687966E+02  0.25587962966E+02  0.51353073565E+02  0.62500002378E+02  0.10000001885E+02 0.  0.
    3000022    2    5    5    0    0 -0.24411483669E+01  0.65733576424E+01  0.56329680625E+01  0.89978365539E+01  0.24999482638E+00 0.  0.
        -13    1    4    4    0    0  0.59583559251E+01 -0.45403571028E+01 -0.11246276581E+02  0.13513201319E+02  0.10500000000E+00 0. -1.
         13    1    4    4    0    0  0.12495268215E+02 -0.93274161732E+01 -0.23478493476E+02  0.28184802662E+02  0.10500000000E+00 0.  1.
    3000001    1    5    5    0    0 -0.20238539599E+02  0.19014605324E+02  0.45720105503E+02  0.53502165824E+02  0.10000000000E+01 0. -1.
        -13    1    6    6    0    0 -0.12462635516E+01  0.33740842486E+01  0.29758874634E+01  0.46695340829E+01  0.10500000000E+00 0. -1.
         13    1    6    6    0    0 -0.11948848153E+01  0.31992733938E+01  0.26570805992E+01  0.43283024710E+01  0.10500000000E+00 0.  1.
</event>
<event>
11    0  0.3476221E-009  0.9118800E+02  0.7816531E-02  0.1126479E+00
         25   -1    0    0    0    0  0.00000000000E+00  0.00000000000E+00  0.99999998245E-14  0.12500000000E+03  0.12500000000E+03 0.  0.
    3000001    1    3    3    0    0 -0.99482781575E+00  0.11002777707E+02 -0.26030479104E+02  0.28295523357E+02  0.10000000000E+01 0.  1.
    1000022    2    1    0    0    0 -0.10244298553E+01  0.33485713699E+02 -0.51806443759E+02  0.62499998779E+02  0.99999876973E+01 0.  0.
    3000022    2    3    3    0    0 -0.29602039496E-01  0.22482935992E+02 -0.25775964655E+02  0.34204475422E+02  0.24999578132E+00 0.  0.
    1000022    2    1    0    0    0  0.10244298553E+01 -0.33485713699E+02  0.51806443759E+02  0.62500001221E+02  0.10000002961E+02 0.  0.
    3000022    2    5    5    0    0  0.45343064214E+01 -0.21059744629E+02  0.27248109202E+02  0.34736072517E+02  0.25000060094E+00 0.  0.
        -13    1    4    4    0    0 -0.43587925687E-01  0.60781799240E+01 -0.69785336543E+01  0.92551136168E+01  0.10500000000E+00 0.  1.
         13    1    4    4    0    0  0.13985886191E-01  0.16404756068E+02 -0.18797431000E+02  0.24949361805E+02  0.10500000000E+00 0. -1.
    3000001    1    5    5    0    0 -0.35098765661E+01 -0.12425969070E+02  0.24558334557E+02  0.27763928704E+02  0.10000000000E+01 0. -1.
        -13    1    6    6    0    0  0.11991840971E+01 -0.55683195989E+01  0.71512646528E+01  0.91430758932E+01  0.10500000000E+00 0.  1.
         13    1    6    6    0    0  0.33351223243E+01 -0.15491425030E+02  0.20096844549E+02  0.25592996624E+02  0.10500000000E+00 0. -1.
</event>
<event>
11    0  0.3476221E-009  0.9118800E+02  0.7816531E-02  0.1126479E+00
         25   -1    0    0    0    0  0.00000000000E+00  0.00000000000E+00  0.99999998245E-14  0.12500000000E+03  0.12500000000E+03 0.  0.
    3000001    1    3    3    0    0 -0.73344596337E+01  0.27310138585E+02 -0.29242195970E+02  0.40690834261E+02  0.10000000000E+01 0.  1.
    1000022    2    1    0    0    0 -0.72317071977E+01  0.46013107322E+02 -0.40456726838E+02  0.62500001773E+02  0.99999920400E+01 0.  0.
    3000022    2    3    3    0    0  0.10275243598E+00  0.18702968737E+02 -0.11214530868E+02  0.21809167513E+02  0.24997476420E+00 0.  0.
    1000022    2    1    0    0    0  0.72317071977E+01 -0.46013107322E+02  0.40456726838E+02  0.62499998227E+02  0.99999698742E+01 0.  0.
    3000022    2    5    5    0    0 -0.12657990184E+01 -0.22555105549E+02  0.21001470169E+02  0.30845733567E+02  0.24999312798E+00 0.  0.
        -13    1    4    4    0    0  0.10644605148E+00  0.13892475264E+02 -0.83326448973E+01  0.16200499860E+02  0.10500000000E+00 0. -1.
         13    1    4    4    0    0 -0.36936154943E-02  0.48104934723E+01 -0.28818859707E+01  0.56086676526E+01  0.10500000000E+00 0.  1.
    3000001    1    5    5    0    0  0.84975062161E+01 -0.23458001773E+02  0.19455256669E+02  0.31654264660E+02  0.10000000000E+01 0.  1.
        -13    1    6    6    0    0 -0.48664326392E+00 -0.93381222062E+01  0.87646454765E+01  0.12816683788E+02  0.10500000000E+00 0.  1.
         13    1    6    6    0    0 -0.77915575446E+00 -0.13216983342E+02  0.12236824693E+02  0.18029049779E+02  0.10500000000E+00 0. -1.
</event>
<event>
11    0  0.3476221E-009  0.9118800E+02  0.7816531E-02  0.1126479E+00
         25   -1    0    0    0    0  0.00000000000E+00  0.00000000000E+00  0.99999998245E-14  0.12500000000E+03  0.12500000000E+03 0.  0.
    3000001    1    3    3    0    0  0.66518677628E+01  0.14127683651E+02 -0.87197181753E+01  0.17912908059E+02  0.10000000000E+01 0. -1.
    1000022    2    1    0    0    0  0.20977081033E+02  0.55633449556E+02 -0.16466068029E+02  0.62500000070E+02  0.99999987113E+01 0.  0.
    3000022    2    3    3    0    0  0.14325213271E+02  0.41505765905E+02 -0.77463498537E+01  0.44587092011E+02  0.24999863805E+00 0.  0.
    1000022    2    1    0    0    0 -0.20977081033E+02 -0.55633449556E+02  0.16466068029E+02  0.62499999930E+02  0.99999978357E+01 0.  0.
    3000022    2    5    5    0    0 -0.11205226536E+02 -0.41059055300E+02  0.13674252765E+02  0.44704035760E+02  0.25000148646E+00 0.  0.
        -13    1    4    4    0    0  0.71070591144E+01  0.20721697411E+02 -0.39185824093E+01  0.22254557869E+02  0.10500000000E+00 0.  1.
         13    1    4    4    0    0  0.72181541561E+01  0.20784068495E+02 -0.38277674444E+01  0.22332534142E+02  0.10500000000E+00 0. -1.
    3000001    1    5    5    0    0 -0.97718544977E+01 -0.14574394256E+02  0.27918152644E+01  0.17795964170E+02  0.10000000000E+01 0. -1.
        -13    1    6    6    0    0 -0.60562370706E+01 -0.21952610971E+02  0.72917150189E+01  0.23911822783E+02  0.10500000000E+00 0. -1.
         13    1    6    6    0    0 -0.51489894651E+01 -0.19106444329E+02  0.63825377457E+01  0.20792212977E+02  0.10500000000E+00 0.  1.
</event>
<event>
11    0  0.3476221E-009  0.9118800E+02  0.7816531E-02  0.1126479E+00
         25   -1    0    0    0    0  0.00000000000E+00  0.00000000000E+00  0.99999998245E-14  0.12500000000E+03  0.12500000000E+03 0.  0.
    3000001    1    3    3    0    0  0.11674023784E+02 -0.65543257240E+01 -0.24272185708E+02  0.27737718293E+02  0.10000000000E+01 0. -1.
    1000022    2    1    0    0    0  0.33422149407E+02 -0.19841535547E+02 -0.47911619213E+02  0.62500000051E+02  0.10000007345E+02 0.  0.
    3000022    2    3    3    0    0  0.21748125623E+02 -0.13287209823E+02 -0.23639433504E+02  0.34762281758E+02  0.25000729218E+00 0.  0.
    1000022    2    1    0    0    0 -0.33422149407E+02  0.19841535547E+02  0.47911619213E+02  0.62499999949E+02  0.10000006711E+02 0.  0.
    3000022    2    5    5    0    0 -0.75157322629E+01  0.20355465318E+00  0.74519722765E+01  0.10588770210E+02  0.24999561732E+00 0.  0.
        -13    1    4    4    0    0  0.74033345932E+01 -0.45698140561E+01 -0.80183128710E+01  0.11832029830E+02  0.10500000000E+00 0. -1.
         13    1    4    4    0    0  0.14344791030E+02 -0.87173957666E+01 -0.15621120633E+02  0.22930251928E+02  0.10500000000E+00 0.  1.
    3000001    1    5    5    0    0 -0.25906417145E+02  0.19637980894E+02  0.40459646936E+02  0.51911229739E+02  0.10000000000E+01 0. -1.
        -13    1    6    6    0    0 -0.48500839107E+01  0.18571138168E+00  0.48345907073E+01  0.68514301401E+01  0.10500000000E+00 0. -1.
         13    1    6    6    0    0 -0.26656483522E+01  0.17843271503E-01  0.26173815692E+01  0.37373400700E+01  0.10500000000E+00 0.  1.
</event>
<event>
11    0  0.3476221E-009  0.9118800E+02  0.7816531E-02  0.1126479E+00
         25   -1    0    0    0    0  0.00000000000E+00  0.00000000000E+00  0.99999998245E-14  0.12500000000E+03  0.12500000000E+03 0.  0.
    3000001    1    3    3    0    0 -0.38505685473E+02  0.38047720658E+02 -0.11688567097E+02  0.55388983217E+02  0.10000000000E+01 0.  1.
    1000022    2    1    0    0    0 -0.40864758876E+02  0.43524576939E+02 -0.15554173974E+02  0.62500003546E+02  0.10000039974E+02 0.  0.
    3000022    2    3    3    0    0 -0.23590734031E+01  0.54768562817E+01 -0.38656068777E+01  0.71110203295E+01  0.25002308258E+00 0.  0.
    1000022    2    1    0    0    0  0.40864758876E+02 -0.43524576939E+02  0.15554173974E+02  0.62499996454E+02  0.99999956481E+01 0.  0.
    3000022    2    5    5    0    0  0.39591671772E+02 -0.43566618795E+02  0.15517077843E+02  0.60880152506E+02  0.25003497120E+00 0.  0.
        -13    1    4    4    0    0 -0.10537552389E+01  0.26169025605E+01 -0.18318121083E+01  0.33652844924E+01  0.10500000000E+00 0. -1.
         13    1    4    4    0    0 -0.13053181642E+01  0.28599537212E+01 -0.20337947694E+01  0.37457358371E+01  0.10500000000E+00 0.  1.
    3000001    1    5    5    0    0  0.12730871043E+01  0.42041855212E-01  0.37096131379E-01  0.16198439479E+01  0.10000000000E+01 0. -1.
        -13    1    6    6    0    0  0.28681466248E+02 -0.31544999377E+02  0.11199949983E+02  0.44081327073E+02  0.10500000000E+00 0. -1.
         13    1    6    6    0    0  0.10910205523E+02 -0.12021619417E+02  0.43171278604E+01  0.16798825434E+02  0.10500000000E+00 0.  1.
</event>
<event>
11    0  0.3476221E-009  0.9118800E+02  0.7816531E-02  0.1126479E+00
         25   -1    0    0    0    0  0.00000000000E+00  0.00000000000E+00  0.99999998245E-14  0.12500000000E+03  0.12500000000E+03 0.  0.
    3000001    1    3    3    0    0  0.24511167667E+02 -0.16157721967E+02 -0.35785901837E+02  0.46297949089E+02  0.10000000000E+01 0. -1.
    1000022    2    1    0    0    0  0.28303750778E+02 -0.19865292489E+02 -0.51093226500E+02  0.62499999989E+02  0.10000002538E+02 0.  0.
    3000022    2    3    3    0    0  0.37925831102E+01 -0.37075705217E+01 -0.15307324663E+02  0.16202050900E+02  0.24999842656E+00 0.  0.
    1000022    2    1    0    0    0 -0.28303750778E+02  0.19865292489E+02  0.51093226500E+02  0.62500000011E+02  0.10000002670E+02 0.  0.
    3000022    2    5    5    0    0 -0.20896255813E+02  0.89959396612E+01  0.33957168664E+02  0.40874591559E+02  0.24998808914E+00 0.  0.
        -13    1    4    4    0    0  0.22234700872E+01 -0.20834917101E+01 -0.88203572725E+01  0.93324425714E+01  0.10500000000E+00 0. -1.
         13    1    4    4    0    0  0.15691130230E+01 -0.16240788116E+01 -0.64869673905E+01  0.68696083288E+01  0.10500000000E+00 0.  1.
    3000001    1    5    5    0    0 -0.74074949647E+01  0.10869352827E+02  0.17136057836E+02  0.21625408452E+02  0.10000000000E+01 0.  1.
        -13    1    6    6    0    0 -0.67404939781E+01  0.28514067566E+01  0.10885654503E+02  0.13117670469E+02  0.10500000000E+00 0. -1.
         13    1    6    6    0    0 -0.14155761835E+02  0.61445329047E+01  0.23071514161E+02  0.27756921090E+02  0.10500000000E+00 0.  1.
</event>
<event>
11    0  0.3476221E-009  0.9118800E+02  0.7816531E-02  0.1126479E+00
         25   -1    0    0    0    0  0.00000000000E+00  0.00000000000E+00  0.99999998245E-14  0.12500000000E+03  0.12500000000E+03 0.  0.
    3000001    1    3    3    0    0  0.41537207257E+01 -0.31314513927E+01 -0.56542757726E+01  0.77479170237E+01  0.10000000000E+01 0.  1.
    1000022    2    1    0    0    0  0.34175297757E+02 -0.44839882009E+00 -0.51362418997E+02  0.62500001124E+02  0.10000000849E+02 0.  0.
    3000022    2    3    3    0    0  0.30021577032E+02  0.26830525726E+01 -0.45708143224E+02  0.54752084100E+02  0.24999550642E+00 0.  0.
    1000022    2    1    0    0    0 -0.34175297757E+02  0.44839882009E+00  0.51362418997E+02  0.62499998876E+02  0.99999868028E+01 0.  0.
    3000022    2    5    5    0    0 -0.32829216381E+02  0.25335808283E+01  0.47153947674E+02  0.57512900527E+02  0.24993139598E+00 0.  0.
        -13    1    4    4    0    0  0.22736519337E+02  0.20223290556E+01 -0.34579548329E+02  0.41434228773E+02  0.10500000000E+00 0.  1.
         13    1    4    4    0    0  0.72850576948E+01  0.66072351709E+00 -0.11128594895E+02  0.13317855328E+02  0.10500000000E+00 0. -1.
    3000001    1    5    5    0    0 -0.13460813760E+01 -0.20851820082E+01  0.42084713222E+01  0.49870983495E+01  0.10000000000E+01 0.  1.
        -13    1    6    6    0    0 -0.11688921847E+02  0.91858054137E+00  0.16695381611E+02  0.20401506716E+02  0.10500000000E+00 0.  1.
         13    1    6    6    0    0 -0.21140294534E+02  0.16150002869E+01  0.30458566063E+02  0.37111393810E+02  0.10500000000E+00 0. -1.
</event>
<event>
11    0  0.3476221E-009  0.9118800E+02  0.7816531E-02  0.1126479E+00
         25   -1    0    0    0    0  0.00000000000E+00  0.00000000000E+00  0.99999998245E-14  0.12500000000E+03  0.12500000000E+03 0.  0.
    3000001    1    3    3    0    0 -0.12039575319E+01  0.10489427190E+02 -0.59887861933E+02  0.60819681053E+02  0.10000000000E+01 0. -1.
    1000022    2    1    0    0    0 -0.12928568743E+01  0.12033150656E+02 -0.60496129695E+02  0.62500000528E+02  0.10000008212E+02 0.  0.
    3000022    2    3    3    0    0 -0.88899342367E-01  0.15437234658E+01 -0.60826776198E+00  0.16803194740E+01  0.24999726537E+00 0.  0.
    1000022    2    1    0    0    0  0.12928568743E+01 -0.12033150656E+02  0.60496129695E+02  0.62499999472E+02  0.10000001618E+02 0.  0.
    3000022    2    5    5    0    0 -0.27891014915E+01 -0.69886822654E+00  0.20940731092E+02  0.21138690246E+02  0.25000542408E+00 0.  0.
        -13    1    4    4    0    0 -0.74848165116E-01  0.66925132347E+00 -0.20650697079E+00  0.71215848712E+00  0.10500000000E+00 0.  1.
         13    1    4    4    0    0 -0.14051177251E-01  0.87447214228E+00 -0.40176079119E+00  0.96816098689E+00  0.10500000000E+00 0. -1.
    3000001    1    5    5    0    0  0.40819583658E+01 -0.11334282429E+02  0.39555398603E+02  0.41361309227E+02  0.10000000000E+01 0. -1.
        -13    1    6    6    0    0 -0.11970120618E+01 -0.25420831796E+00  0.85677599071E+01  0.86553448556E+01  0.10500000000E+00 0. -1.
         13    1    6    6    0    0 -0.15920894297E+01 -0.44465990858E+00  0.12372971185E+02  0.12483345390E+02  0.10500000000E+00 0.  1.
</event>
<event>
11    0  0.3476221E-009  0.9118800E+02  0.7816531E-02  0.1126479E+00
         25   -1    0    0    0    0  0.00000000000E+00  0.00000000000E+00  0.99999998245E-14  0.12500000000E+03  0.12500000000E+03 0.  0.
    3000001    1    3    3    0    0  0.87802996248E+01  0.32715411550E+01  0.48797207335E+01  0.10611706624E+02  0.10000000000E+01 0.  1.
    1000022    2    1    0    0    0  0.52085946384E+02 -0.17400001096E+01  0.33019336668E+02  0.62500000903E+02  0.10000005384E+02 0.  0.
    3000022    2    3    3    0    0  0.43305646760E+02 -0.50115412647E+01  0.28139615935E+02  0.51888294279E+02  0.25002220356E+00 0.  0.
    1000022    2    1    0    0    0 -0.52085946384E+02  0.17400001096E+01 -0.33019336668E+02  0.62499999097E+02  0.99999941008E+01 0.  0.
    3000022    2    5    5    0    0 -0.25367410655E+02  0.46866025991E+01 -0.19846102605E+02  0.32548426294E+02  0.24999660302E+00 0.  0.
        -13    1    4    4    0    0  0.10622446502E+02 -0.12065591238E+01  0.68937798276E+01  0.12721139097E+02  0.10500000000E+00 0.  1.
         13    1    4    4    0    0  0.32683200257E+02 -0.38049821409E+01  0.21245836107E+02  0.39167155182E+02  0.10500000000E+00 0. -1.
    3000001    1    5    5    0    0 -0.26718535729E+02 -0.29466024895E+01 -0.13173234063E+02  0.29951572804E+02  0.10000000000E+01 0. -1.
        -13    1    6    6    0    0 -0.15879257274E+02  0.29059582119E+01 -0.12351403787E+02  0.20326426277E+02  0.10500000000E+00 0. -1.
         13    1    6    6    0    0 -0.94881533813E+01  0.17806443873E+01 -0.74946988182E+01  0.12222000016E+02  0.10500000000E+00 0.  1.
</event>
<event>
11    0  0.3476221E-009  0.9118800E+02  0.7816531E-02  0.1126479E+00
         25   -1    0    0    0    0  0.00000000000E+00  0.00000000000E+00  0.99999998245E-14  0.12500000000E+03  0.12500000000E+03 0.  0.
    3000001    1    3    3    0    0  0.25598381822E+02  0.11739967851E+02  0.43565697821E+02  0.51885200430E+02  0.10000000000E+01 0. -1.
    1000022    2    1    0    0    0  0.29581217038E+02  0.18186708439E+02  0.50994560919E+02  0.62499999326E+02  0.99999953569E+01 0.  0.
    3000022    2    3    3    0    0  0.39828352160E+01  0.64467405882E+01  0.74288630975E+01  0.10614798896E+02  0.25001620230E+00 0.  0.
    1000022    2    1    0    0    0 -0.29581217038E+02 -0.18186708439E+02 -0.50994560919E+02  0.62500000674E+02  0.10000003785E+02 0.  0.
    3000022    2    5    5    0    0 -0.25021627586E+02 -0.18828152326E+02 -0.45852314256E+02  0.55525475101E+02  0.24999103663E+00 0.  0.
        -13    1    4    4    0    0  0.29191425312E+01  0.47855102147E+01  0.54910144008E+01  0.78475961467E+01  0.10500000000E+00 0.  1.
         13    1    4    4    0    0  0.10636926848E+01  0.16612303735E+01  0.19378486968E+01  0.27672027489E+01  0.10500000000E+00 0. -1.
    3000001    1    5    5    0    0 -0.45595894523E+01  0.64144388658E+00 -0.51422466622E+01  0.69745255730E+01  0.10000000000E+01 0.  1.
        -13    1    6    6    0    0 -0.11300611047E+02 -0.84410405494E+01 -0.20732172881E+02  0.25075665354E+02  0.10500000000E+00 0.  1.
         13    1    6    6    0    0 -0.13721016539E+02 -0.10387111776E+02 -0.25120141375E+02  0.30449809747E+02  0.10500000000E+00 0. -1.
</event>
<event>
11    0  0.3476221E-009  0.9118800E+02  0.7816531E-02  0.1126479E+00
         25   -1    0    0    0    0  0.00000000000E+00  0.00000000000E+00  0.99999998245E-14  0.12500000000E+03  0.12500000000E+03 0.  0.
    3000001    1    3    3    0    0 -0.19728389837E+01 -0.40296544920E+01  0.18485882247E+01  0.49545420984E+01  0.10000000000E+01 0. -1.
    1000022    2    1    0    0    0 -0.48773045374E+02 -0.29770804509E+02  0.23262401786E+02  0.62500002650E+02  0.10000011907E+02 0.  0.
    3000022    2    3    3    0    0 -0.46800206390E+02 -0.25741150017E+02  0.21413813562E+02  0.57545460551E+02  0.24999280420E+00 0.  0.
    1000022    2    1    0    0    0  0.48773045374E+02  0.29770804509E+02 -0.23262401786E+02  0.62499997350E+02  0.99999787868E+01 0.  0.
    3000022    2    5    5    0    0  0.21909830194E+02  0.81400439500E+01 -0.73431168380E+01  0.24500710970E+02  0.24999695356E+00 0.  0.
        -13    1    4    4    0    0 -0.12534706932E+02 -0.68547797553E+01  0.57233666151E+01  0.15390738572E+02  0.10500000000E+00 0. -1.
         13    1    4    4    0    0 -0.34265499458E+02 -0.18886370262E+02  0.15690446947E+02  0.42154721980E+02  0.10500000000E+00 0.  1.
    3000001    1    5    5    0    0  0.26863215180E+02  0.21630760559E+02 -0.15919284948E+02  0.37999286381E+02  0.10000000000E+01 0.  1.
        -13    1    6    6    0    0  0.12624249484E+02  0.46963799487E+01 -0.42996000085E+01  0.14139492384E+02  0.10500000000E+00 0.  1.
         13    1    6    6    0    0  0.92855807107E+01  0.34436640014E+01 -0.30435168295E+01  0.10361218586E+02  0.10500000000E+00 0. -1.
</event>
<event>
11    0  0.3476221E-009  0.9118800E+02  0.7816531E-02  0.1126479E+00
         25   -1    0    0    0    0  0.00000000000E+00  0.00000000000E+00  0.99999998245E-14  0.12500000000E+03  0.12500000000E+03 0.  0.
    3000001    1    3    3    0    0 -0.15380949984E+02  0.16355091945E+02 -0.26255670215E+02  0.34560423513E+02  0.10000000000E+01 0.  1.
    1000022    2    1    0    0    0 -0.30248239052E+02  0.34980561350E+02 -0.40836918255E+02  0.62499995550E+02  0.99999956551E+01 0.  0.
    3000022    2    3    3    0    0 -0.14867289067E+02  0.18625469404E+02 -0.14581248041E+02  0.27939572037E+02  0.24999292245E+00 0.  0.
    1000022    2    1    0    0    0  0.30248239052E+02 -0.34980561350E+02  0.40836918255E+02  0.62500004450E+02  0.10000051277E+02 0.  0.
    3000022    2    5    5    0    0  0.51577695934E+01 -0.12704521194E+02  0.12912666027E+02  0.18836318334E+02  0.24999704379E+00 0.  0.
        -13    1    4    4    0    0 -0.98055175321E+01  0.12331473616E+02 -0.96930322442E+01  0.18498089488E+02  0.10500000000E+00 0.  1.
         13    1    4    4    0    0 -0.50617715353E+01  0.62939957887E+01 -0.48882157966E+01  0.94414825498E+01  0.10500000000E+00 0. -1.
    3000001    1    5    5    0    0  0.25090469458E+02 -0.22276040155E+02  0.27924252229E+02  0.43663686115E+02  0.10000000000E+01 0.  1.
        -13    1    6    6    0    0  0.35021138684E+01 -0.87563637630E+01  0.88774549037E+01  0.12952178908E+02  0.10500000000E+00 0. -1.
         13    1    6    6    0    0  0.16556557250E+01 -0.39481574315E+01  0.40352111229E+01  0.58841394264E+01  0.10500000000E+00 0.  1.
</event>
<event>
11    0  0.3476221E-009  0.9118800E+02  0.7816531E-02  0.1126479E+00
         25   -1    0    0    0    0  0.00000000000E+00  0.00000000000E+00  0.99999998245E-14  0.12500000000E+03  0.12500000000E+03 0.  0.
    3000001    1    3    3    0    0 -0.24789786679E+02 -0.80369010882E+01 -0.83895301151E+01  0.27395428783E+02  0.10000000000E+01 0.  1.
    1000022    2    1    0    0    0 -0.51896809411E+02 -0.28376354100E+02 -0.17542899195E+02  0.62499996776E+02  0.99999992833E+01 0.  0.
    3000022    2    3    3    0    0 -0.27107022733E+02 -0.20339453012E+02 -0.91533690801E+01  0.35104567992E+02  0.24999627124E+00 0.  0.
    1000022    2    1    0    0    0  0.51896809411E+02  0.28376354100E+02  0.17542899195E+02  0.62500003224E+02  0.10000039588E+02 0.  0.
    3000022    2    5    5    0    0  0.15825432691E+02  0.47025483677E+01  0.20146996319E+01  0.16633694478E+02  0.24999271557E+00 0.  0.
        -13    1    4    4    0    0 -0.72938765272E+01 -0.54587124516E+01 -0.24956202358E+01  0.94465507877E+01  0.10500000000E+00 0.  1.
         13    1    4    4    0    0 -0.19813146206E+02 -0.14880740561E+02 -0.66577488444E+01  0.25658017205E+02  0.10500000000E+00 0. -1.
    3000001    1    5    5    0    0  0.36071376720E+02  0.23673805733E+02  0.15528199563E+02  0.45866308747E+02  0.10000000000E+01 0.  1.
        -13    1    6    6    0    0  0.48967264348E+01  0.14615658175E+01  0.67195170332E+00  0.51552544562E+01  0.10500000000E+00 0.  1.
         13    1    6    6    0    0  0.10928706256E+02  0.32409825502E+01  0.13427479286E+01  0.11478440022E+02  0.10500000000E+00 0. -1.
</event>
<event>
11    0  0.3476221E-009  0.9118800E+02  0.7816531E-02  0.1126479E+00
         25   -1    0    0    0    0  0.00000000000E+00  0.00000000000E+00  0.99999998245E-14  0.12500000000E+03  0.12500000000E+03 0.  0.
    3000001    1    3    3    0    0 -0.33673203404E+02  0.42017933988E+02  0.40820190265E+01  0.54009761001E+02  0.10000000000E+01 0. -1.
    1000022    2    1    0    0    0 -0.40740096252E+02  0.45822618938E+02  0.68397449422E+01  0.62499999819E+02  0.10000000877E+02 0.  0.
    3000022    2    3    3    0    0 -0.70668928483E+01  0.38046849498E+01  0.27577259157E+01  0.84902388175E+01  0.25000171217E+00 0.  0.
    1000022    2    1    0    0    0  0.40740096252E+02 -0.45822618938E+02 -0.68397449422E+01  0.62500000181E+02  0.10000003143E+02 0.  0.
    3000022    2    5    5    0    0  0.13666319020E+02 -0.15393814977E+02  0.23931154814E+01  0.20725040748E+02  0.24999436252E+00 0.  0.
        -13    1    4    4    0    0 -0.21001247937E+01  0.11752852434E+01  0.80243723294E+00  0.25390451090E+01  0.10500000000E+00 0. -1.
         13    1    4    4    0    0 -0.49667680545E+01  0.26293997064E+01  0.19552886827E+01  0.59511937085E+01  0.10500000000E+00 0.  1.
    3000001    1    5    5    0    0  0.27073777232E+02 -0.30428803960E+02 -0.92328604236E+01  0.41774959434E+02  0.10000000000E+01 0. -1.
        -13    1    6    6    0    0  0.53601390456E+01 -0.61309472592E+01  0.93748380485E+00  0.81981403847E+01  0.10500000000E+00 0. -1.
         13    1    6    6    0    0  0.83061799743E+01 -0.92628677180E+01  0.14556316766E+01  0.12526900363E+02  0.10500000000E+00 0.  1.
</event>
<event>
11    0  0.3476221E-009  0.9118800E+02  0.7816531E-02  0.1126479E+00
         25   -1    0    0    0    0  0.00000000000E+00  0.00000000000E+00  0.99999998245E-14  0.12500000000E+03  0.12500000000E+03 0.  0.
    3000001    1    3    3    0    0 -0.30720116632E+02  0.36311778562E+00 -0.25876572757E+01  0.30847259045E+02  0.10000000000E+01 0.  1.
    1000022    2    1    0    0    0 -0.59941072338E+02  0.66243551911E+01 -0.13016777312E+02  0.62500006038E+02  0.10000001427E+02 0.  0.
    3000022    2    3    3    0    0 -0.29220955706E+02  0.62612374055E+01 -0.10429120036E+02  0.31652746993E+02  0.25000261512E+00 0.  0.
    1000022    2    1    0    0    0  0.59941072338E+02 -0.66243551911E+01  0.13016777312E+02  0.62499993962E+02  0.99999259461E+01 0.  0.
    3000022    2    5    5    0    0  0.10126006737E+02  0.16294476126E+01 -0.32104695099E+00  0.10264339686E+02  0.24997217330E+00 0.  0.
        -13    1    4    4    0    0 -0.20468995109E+02  0.43942128209E+01 -0.72583390052E+01  0.22158144714E+02  0.10500000000E+00 0.  1.
         13    1    4    4    0    0 -0.87519605970E+01  0.18670245846E+01 -0.31707810306E+01  0.94946022790E+01  0.10500000000E+00 0. -1.
    3000001    1    5    5    0    0  0.49815065600E+02 -0.82538028037E+01  0.13337824263E+02  0.52235654275E+02  0.10000000000E+01 0.  1.
        -13    1    6    6    0    0  0.64612612806E+01  0.10200455014E+01 -0.14962794679E+00  0.65438370765E+01  0.10500000000E+00 0. -1.
         13    1    6    6    0    0  0.36647454566E+01  0.60940211121E+00 -0.17141900420E+00  0.37205026099E+01  0.10500000000E+00 0.  1.
</event>
<event>
11    0  0.3476221E-009  0.9118800E+02  0.7816531E-02  0.1126479E+00
         25   -1    0    0    0    0  0.00000000000E+00  0.00000000000E+00  0.99999998245E-14  0.12500000000E+03  0.12500000000E+03 0.  0.
    3000001    1    3    3    0    0 -0.22926403372E+01 -0.22300885075E+01 -0.12442444723E+01  0.35745823216E+01  0.10000000000E+01 0.  1.
    1000022    2    1    0    0    0 -0.46626748942E+02 -0.37707240931E+02  0.14503804891E+02  0.62500002010E+02  0.10000007965E+02 0.  0.
    3000022    2    3    3    0    0 -0.44334108605E+02 -0.35477152424E+02  0.15748049364E+02  0.58925419688E+02  0.24999348509E+00 0.  0.
    1000022    2    1    0    0    0  0.46626748942E+02  0.37707240931E+02 -0.14503804891E+02  0.62499997990E+02  0.99999828420E+01 0.  0.
    3000022    2    5    5    0    0  0.82504653280E+01  0.22992755301E+01 -0.20996996868E+01  0.88220231416E+01  0.25001488821E+00 0.  0.
        -13    1    4    4    0    0 -0.11007646643E+02 -0.87768719070E+01  0.39088151508E+01  0.14611352640E+02  0.10500000000E+00 0.  1.
         13    1    4    4    0    0 -0.33326461962E+02 -0.26700280517E+02  0.11839234213E+02  0.44314067048E+02  0.10500000000E+00 0. -1.
    3000001    1    5    5    0    0  0.38376283614E+02  0.35407965401E+02 -0.12404105205E+02  0.53677974849E+02  0.10000000000E+01 0. -1.
        -13    1    6    6    0    0  0.26830688762E+01  0.69531642136E+00 -0.66897086293E+00  0.28532210808E+01  0.10500000000E+00 0.  1.
         13    1    6    6    0    0  0.55673964518E+01  0.16039591088E+01 -0.14307288239E+01  0.59688020608E+01  0.10500000000E+00 0. -1.
</event>
<event>
11    0  0.3476221E-009  0.9118800E+02  0.7816531E-02  0.1126479E+00
         25   -1    0    0    0    0  0.00000000000E+00  0.00000000000E+00  0.99999998245E-14  0.12500000000E+03  0.12500000000E+03 0.  0.
    3000001    1    3    3    0    0  0.15823816721E+02  0.30546903323E+02  0.19284169159E+02  0.39451053958E+02  0.10000000000E+01 0. -1.
    1000022    2    1    0    0    0  0.17727274578E+02  0.50065717162E+02  0.31391364074E+02  0.62500000018E+02  0.99999982433E+01 0.  0.
    3000022    2    3    3    0    0  0.19034578570E+01  0.19518813839E+02  0.12107194915E+02  0.23048946060E+02  0.25000050633E+00 0.  0.
    1000022    2    1    0    0    0 -0.17727274578E+02 -0.50065717162E+02 -0.31391364074E+02  0.62499999982E+02  0.99999980191E+01 0.  0.
    3000022    2    5    5    0    0 -0.10446325766E+02 -0.15519118759E+02 -0.10151233467E+02  0.21285647809E+02  0.24998536685E+00 0.  0.
        -13    1    4    4    0    0  0.13922436237E+01  0.14569563187E+02  0.90339448879E+01  0.17199816830E+02  0.10500000000E+00 0.  1.
         13    1    4    4    0    0  0.51121423320E+00  0.49492506520E+01  0.30732500273E+01  0.58491292291E+01  0.10500000000E+00 0. -1.
    3000001    1    5    5    0    0 -0.72809488124E+01 -0.34546598403E+02 -0.21240130607E+02  0.41214352173E+02  0.10000000000E+01 0. -1.
        -13    1    6    6    0    0 -0.24326167754E+01 -0.36328064266E+01 -0.23643670554E+01  0.49715353244E+01  0.10500000000E+00 0.  1.
         13    1    6    6    0    0 -0.80137089903E+01 -0.11886312332E+02 -0.77868664116E+01  0.16314112484E+02  0.10500000000E+00 0. -1.
</event>
<event>
11    0  0.3476221E-009  0.9118800E+02  0.7816531E-02  0.1126479E+00
         25   -1    0    0    0    0  0.00000000000E+00  0.00000000000E+00  0.99999998245E-14  0.12500000000E+03  0.12500000000E+03 0.  0.
    3000001    1    3    3    0    0 -0.18883814150E+02 -0.57005668941E+02 -0.16005269954E+01  0.60081664549E+02  0.10000000000E+01 0. -1.
    1000022    2    1    0    0    0 -0.19948466703E+02 -0.58380689622E+02  0.61305461393E-01  0.62500000443E+02  0.10000002626E+02 0.  0.
    3000022    2    3    3    0    0 -0.10646525530E+01 -0.13750206809E+01  0.16618324567E+01  0.24183358947E+01  0.24998890755E+00 0.  0.
    1000022    2    1    0    0    0  0.19948466703E+02  0.58380689622E+02 -0.61305461393E-01  0.62499999557E+02  0.99999970826E+01 0.  0.
    3000022    2    5    5    0    0  0.10107896401E+02  0.39153724485E+02 -0.35686239020E+01  0.40595335786E+02  0.25000066745E+00 0.  0.
        -13    1    4    4    0    0 -0.42208048894E+00 -0.65349347205E+00  0.74815228588E+00  0.10844180467E+01  0.10500000000E+00 0.  1.
         13    1    4    4    0    0 -0.64257206402E+00 -0.72152720880E+00  0.91368017087E+00  0.13339178480E+01  0.10500000000E+00 0. -1.
    3000001    1    5    5    0    0  0.98405703017E+01  0.19226965137E+02  0.35073184406E+01  0.21904663770E+02  0.10000000000E+01 0.  1.
        -13    1    6    6    0    0  0.63555179221E+01  0.24786331720E+02 -0.22162727817E+01  0.25684192380E+02  0.10500000000E+00 0.  1.
         13    1    6    6    0    0  0.37523784788E+01  0.14367392766E+02 -0.13523511203E+01  0.14911143406E+02  0.10500000000E+00 0. -1.
</event>
<event>
11    0  0.3476221E-009  0.9118800E+02  0.7816531E-02  0.1126479E+00
         25   -1    0    0    0    0  0.00000000000E+00  0.00000000000E+00  0.99999998245E-14  0.12500000000E+03  0.12500000000E+03 0.  0.
    3000001    1    3    3    0    0  0.83974147680E+01  0.10723129006E+02  0.10766723195E+01  0.13698952287E+02  0.10000000000E+01 0. -1.
    1000022    2    1    0    0    0  0.49311513014E+02  0.36892007418E+02 -0.36884156980E+01  0.62499999358E+02  0.99999991163E+01 0.  0.
    3000022    2    3    3    0    0  0.40914098246E+02  0.26168878412E+02 -0.47650880176E+01  0.48801047072E+02  0.24999765510E+00 0.  0.
    1000022    2    1    0    0    0 -0.49311513014E+02 -0.36892007418E+02  0.36884156980E+01  0.62500000642E+02  0.10000007138E+02 0.  0.
    3000022    2    5    5    0    0 -0.44991688372E+02 -0.29959824242E+02  0.19524110875E+01  0.54089901918E+02  0.24997867593E+00 0.  0.
        -13    1    4    4    0    0  0.29395797404E+02  0.18798030798E+02 -0.33830854250E+01  0.35056171481E+02  0.10500000000E+00 0. -1.
         13    1    4    4    0    0  0.11518300842E+02  0.73708476140E+01 -0.13820025926E+01  0.13744875591E+02  0.10500000000E+00 0.  1.
    3000001    1    5    5    0    0 -0.43198246427E+01 -0.69321831760E+01  0.17360046105E+01  0.84100987234E+01  0.10000000000E+01 0.  1.
        -13    1    6    6    0    0 -0.12587373143E+02 -0.84296463055E+01  0.54762871409E+00  0.15159545564E+02  0.10500000000E+00 0.  1.
         13    1    6    6    0    0 -0.32404315228E+02 -0.21530177936E+02  0.14047823734E+01  0.38930356355E+02  0.10500000000E+00 0. -1.
</event>
<event>
11    0  0.3476221E-009  0.9118800E+02  0.7816531E-02  0.1126479E+00
         25   -1    0    0    0    0  0.00000000000E+00  0.00000000000E+00  0.99999998245E-14  0.12500000000E+03  0.12500000000E+03 0.  0.
    3000001    1    3    3    0    0 -0.51831049923E+00  0.96772119817E+00 -0.78041087165E+00  0.16775491705E+01  0.10000000000E+01 0.  1.
    1000022    2    1    0    0    0 -0.44841680092E+02  0.40951491889E+02  0.10883428526E+02  0.62500001090E+02  0.10000007913E+02 0.  0.
    3000022    2    3    3    0    0 -0.44323369593E+02  0.39983770691E+02  0.11663839397E+02  0.60822451919E+02  0.24999437338E+00 0.  0.
    1000022    2    1    0    0    0  0.44841680092E+02 -0.40951491889E+02 -0.10883428526E+02  0.62499998910E+02  0.99999942940E+01 0.  0.
    3000022    2    5    5    0    0  0.17168626987E+02 -0.14890246244E+02 -0.89449552249E+01  0.24424494035E+02  0.24999816599E+00 0.  0.
        -13    1    4    4    0    0 -0.25800095155E+02  0.23323462625E+02  0.68500047840E+01  0.35448024055E+02  0.10500000000E+00 0. -1.
         13    1    4    4    0    0 -0.18523274438E+02  0.16660308066E+02  0.48138346132E+01  0.25374427864E+02  0.10500000000E+00 0.  1.
    3000001    1    5    5    0    0  0.27673053105E+02 -0.26061245646E+02 -0.19384733006E+01  0.38075504875E+02  0.10000000000E+01 0. -1.
        -13    1    6    6    0    0  0.54852178913E+01 -0.47674807097E+01 -0.28068009466E+01  0.77913826878E+01  0.10500000000E+00 0. -1.
         13    1    6    6    0    0  0.11683409096E+02 -0.10122765534E+02 -0.61381542783E+01  0.16633111347E+02  0.10500000000E+00 0.  1.
</event>
<event>
11    0  0.3476221E-009  0.9118800E+02  0.7816531E-02  0.1126479E+00
         25   -1    0    0    0    0  0.00000000000E+00  0.00000000000E+00  0.99999998245E-14  0.12500000000E+03  0.12500000000E+03 0.  0.
    3000001    1    3    3    0    0 -0.22245553195E+00 -0.11841548793E+02  0.24672747768E+01  0.12139160149E+02  0.10000000000E+01 0. -1.
    1000022    2    1    0    0    0 -0.18188186952E+02 -0.58887101631E+02  0.27837524888E+01  0.62500000143E+02  0.99999928426E+01 0.  0.
    3000022    2    3    3    0    0 -0.17965731421E+02 -0.47045552838E+02  0.31647771206E+00  0.50360839995E+02  0.24999907546E+00 0.  0.
    1000022    2    1    0    0    0  0.18188186952E+02  0.58887101631E+02 -0.27837524888E+01  0.62499999857E+02  0.99999910494E+01 0.  0.
    3000022    2    5    5    0    0  0.18361177599E+02  0.47925603811E+02 -0.89578067576E+00  0.51330899723E+02  0.24999972105E+00 0.  0.
        -13    1    4    4    0    0 -0.91093094458E+01 -0.23792636759E+02  0.22429713708E+00  0.25478037930E+02  0.10500000000E+00 0.  1.
         13    1    4    4    0    0 -0.88564219747E+01 -0.23252916079E+02  0.92180574975E-01  0.24882802065E+02  0.10500000000E+00 0. -1.
    3000001    1    5    5    0    0 -0.17299064668E+00  0.10961497820E+02 -0.18879718131E+01  0.11169100134E+02  0.10000000000E+01 0.  1.
        -13    1    6    6    0    0  0.84658779927E+01  0.21951727580E+02 -0.36845529346E+00  0.23530750482E+02  0.10500000000E+00 0. -1.
         13    1    6    6    0    0  0.98952996065E+01  0.25973876231E+02 -0.52732538230E+00  0.27800149241E+02  0.10500000000E+00 0.  1.
</event>
<event>
11    0  0.3476221E-009  0.9118800E+02  0.7816531E-02  0.1126479E+00
         25   -1    0    0    0    0  0.00000000000E+00  0.00000000000E+00  0.99999998245E-14  0.12500000000E+03  0.12500000000E+03 0.  0.
    3000001    1    3    3    0    0 -0.63184708177E+00 -0.21738026792E+02 -0.15896421022E+02  0.26956209690E+02  0.10000000000E+01 0.  1.
    1000022    2    1    0    0    0 -0.10733859756E+02 -0.52455597425E+02 -0.30650360500E+02  0.62500000119E+02  0.99999984805E+01 0.  0.
    3000022    2    3    3    0    0 -0.10102012675E+02 -0.30717570633E+02 -0.14753939478E+02  0.35543790429E+02  0.25000454330E+00 0.  0.
    1000022    2    1    0    0    0  0.10733859756E+02  0.52455597425E+02  0.30650360500E+02  0.62499999881E+02  0.99999969973E+01 0.  0.
    3000022    2    5    5    0    0 -0.58074835021E-01  0.10691132130E+02  0.25039750490E+01  0.10983444993E+02  0.24998793629E+00 0.  0.
        -13    1    4    4    0    0 -0.65173269788E+01 -0.19768694260E+02 -0.94362757772E+01  0.22854565173E+02  0.10500000000E+00 0. -1.
         13    1    4    4    0    0 -0.35846856958E+01 -0.10948876373E+02 -0.53176637012E+01  0.12689225256E+02  0.10500000000E+00 0.  1.
    3000001    1    5    5    0    0  0.10791934591E+02  0.41764465294E+02  0.28146385451E+02  0.51516554888E+02  0.10000000000E+01 0.  1.
        -13    1    6    6    0    0 -0.50962158153E-01  0.74576721415E+01  0.16998904861E+01  0.76498446766E+01  0.10500000000E+00 0. -1.
         13    1    6    6    0    0 -0.71126768678E-02  0.32334599886E+01  0.80408456287E+00  0.33336003168E+01  0.10500000000E+00 0.  1.
</event>
<event>
11    0  0.3476221E-009  0.9118800E+02  0.7816531E-02  0.1126479E+00
         25   -1    0    0    0    0  0.00000000000E+00  0.00000000000E+00  0.99999998245E-14  0.12500000000E+03  0.12500000000E+03 0.  0.
    3000001    1    3    3    0    0  0.59515452392E+01 -0.81143026976E+01 -0.75225378156E+01  0.12603625438E+02  0.10000000000E+01 0. -1.
    1000022    2    1    0    0    0  0.44569291335E+02 -0.31031362799E+02 -0.29272562636E+02  0.62499998482E+02  0.99999839834E+01 0.  0.
    3000022    2    3    3    0    0  0.38617746096E+02 -0.22917060102E+02 -0.21750024820E+02  0.49896373044E+02  0.25001196615E+00 0.  0.
    1000022    2    1    0    0    0 -0.44569291335E+02  0.31031362799E+02  0.29272562636E+02  0.62500001518E+02  0.10000002960E+02 0.  0.
    3000022    2    5    5    0    0 -0.24163171690E+02  0.22615313178E+02  0.16566629050E+02  0.37011173406E+02  0.25000521316E+00 0.  0.
        -13    1    4    4    0    0  0.25843896355E+02 -0.15392091372E+02 -0.14594640244E+02  0.33434084472E+02  0.10500000000E+00 0.  1.
         13    1    4    4    0    0  0.12773849741E+02 -0.75249687299E+01 -0.71553845764E+01  0.16462288572E+02  0.10500000000E+00 0. -1.
    3000001    1    5    5    0    0 -0.20406119645E+02  0.84160496214E+01  0.12705933586E+02  0.25488828112E+02  0.10000000000E+01 0. -1.
        -13    1    6    6    0    0 -0.14469108610E+02  0.13473078599E+02  0.99391926789E+01  0.22128658500E+02  0.10500000000E+00 0.  1.
         13    1    6    6    0    0 -0.96940630799E+01  0.91422345783E+01  0.66274363710E+01  0.14882514906E+02  0.10500000000E+00 0. -1.
</event>
<event>
11    0  0.3476221E-009  0.9118800E+02  0.7816531E-02  0.1126479E+00
         25   -1    0    0    0    0  0.00000000000E+00  0.00000000000E+00  0.99999998245E-14  0.12500000000E+03  0.12500000000E+03 0.  0.
    3000001    1    3    3    0    0 -0.51608152500E+01 -0.35325214024E+01 -0.18426724218E+01  0.65960717974E+01  0.10000000000E+01 0. -1.
    1000022    2    1    0    0    0 -0.30285261829E+02 -0.38729008972E+02 -0.37270854622E+02  0.62499999634E+02  0.10000006501E+02 0.  0.
    3000022    2    3    3    0    0 -0.25124446579E+02 -0.35196487570E+02 -0.35428182200E+02  0.55903927837E+02  0.25000085493E+00 0.  0.
    1000022    2    1    0    0    0  0.30285261829E+02  0.38729008972E+02  0.37270854622E+02  0.62500000366E+02  0.10000011076E+02 0.  0.
    3000022    2    5    5    0    0  0.14669421742E+02  0.18788519857E+02  0.24247059084E+02  0.34002687897E+02  0.24999461621E+00 0.  0.
        -13    1    4    4    0    0 -0.13817534244E+02 -0.19243566696E+02 -0.19423382761E+02  0.30635240078E+02  0.10500000000E+00 0.  1.
         13    1    4    4    0    0 -0.11306912335E+02 -0.15952920874E+02 -0.16004799439E+02  0.25268687758E+02  0.10500000000E+00 0. -1.
    3000001    1    5    5    0    0  0.15615840087E+02  0.19940489115E+02  0.13023795537E+02  0.28497312469E+02  0.10000000000E+01 0.  1.
        -13    1    6    6    0    0  0.63904125855E+01  0.81441641802E+01  0.10443480227E+02  0.14705172133E+02  0.10500000000E+00 0. -1.
         13    1    6    6    0    0  0.82790091563E+01  0.10644355677E+02  0.13803578857E+02  0.19297515764E+02  0.10500000000E+00 0.  1.
</event>
<event>
11    0  0.3476221E-009  0.9118800E+02  0.7816531E-02  0.1126479E+00
         25   -1    0    0    0    0  0.00000000000E+00  0.00000000000E+00  0.99999998245E-14  0.12500000000E+03  0.12500000000E+03 0.  0.
    3000001    1    3    3    0    0  0.94340703131E+01  0.56045494766E+01 -0.46580976019E+01  0.11962881374E+02  0.10000000000E+01 0. -1.
    1000022    2    1    0    0    0  0.35805406624E+02  0.44053553504E+02 -0.24155900973E+02  0.62499998412E+02  0.99999764906E+01 0.  0.
    3000022    2    3    3    0    0  0.26371336311E+02  0.38449004027E+02 -0.19497803371E+02  0.50537117037E+02  0.25014522749E+00 0.  0.
    1000022    2    1    0    0    0 -0.35805406624E+02 -0.44053553504E+02  0.24155900973E+02  0.62500001588E+02  0.99999963438E+01 0.  0.
    3000022    2    5    5    0    0 -0.32220893873E+02 -0.37756417865E+02  0.24116944516E+02  0.55185347357E+02  0.24991629296E+00 0.  0.
        -13    1    4    4    0    0  0.15660731968E+02  0.22752254640E+02 -0.11599299761E+02  0.29957943803E+02  0.10500000000E+00 0. -1.
         13    1    4    4    0    0  0.10710604343E+02  0.15696749387E+02 -0.78985036108E+01  0.20579173234E+02  0.10500000000E+00 0.  1.
    3000001    1    5    5    0    0 -0.35845127508E+01 -0.62971356389E+01  0.38956457165E-01  0.73146542311E+01  0.10000000000E+01 0. -1.
        -13    1    6    6    0    0 -0.81966060284E+01 -0.95636284480E+01  0.61304893813E+01  0.14008613940E+02  0.10500000000E+00 0. -1.
         13    1    6    6    0    0 -0.24024287845E+02 -0.28192789417E+02  0.17986455135E+02  0.41176733417E+02  0.10500000000E+00 0.  1.
</event>
<event>
11    0  0.3476221E-009  0.9118800E+02  0.7816531E-02  0.1126479E+00
         25   -1    0    0    0    0  0.00000000000E+00  0.00000000000E+00  0.99999998245E-14  0.12500000000E+03  0.12500000000E+03 0.  0.
    3000001    1    3    3    0    0 -0.87439150257E+01 -0.13465316440E+02 -0.58666807260E+01  0.17122755022E+02  0.10000000000E+01 0.  1.
    1000022    2    1    0    0    0 -0.20519667193E+02 -0.48215003141E+02 -0.32565421879E+02  0.62499999803E+02  0.10000000183E+02 0.  0.
    3000022    2    3    3    0    0 -0.11775752167E+02 -0.34749686700E+02 -0.26698741153E+02  0.45377244781E+02  0.24999970922E+00 0.  0.
    1000022    2    1    0    0    0  0.20519667193E+02  0.48215003141E+02  0.32565421879E+02  0.62500000197E+02  0.10000002646E+02 0.  0.
    3000022    2    5    5    0    0  0.11033246890E+02  0.23788135650E+02  0.21994691509E+02  0.34226260329E+02  0.25001381724E+00 0.  0.
        -13    1    4    4    0    0 -0.69035622890E+01 -0.20490530243E+02 -0.15797458729E+02  0.26778568469E+02  0.10500000000E+00 0.  1.
         13    1    4    4    0    0 -0.48721898780E+01 -0.14259156457E+02 -0.10901282424E+02  0.18598676312E+02  0.10500000000E+00 0. -1.
    3000001    1    5    5    0    0  0.94864203029E+01  0.24426867491E+02  0.10570730370E+02  0.28273739868E+02  0.10000000000E+01 0. -1.
        -13    1    6    6    0    0  0.50965569137E+01  0.10850534824E+02  0.10011405328E+02  0.15618843107E+02  0.10500000000E+00 0. -1.
         13    1    6    6    0    0  0.59366899762E+01  0.12937600826E+02  0.11983286180E+02  0.18607417222E+02  0.10500000000E+00 0.  1.
</event>
<event>
11    0  0.3476221E-009  0.9118800E+02  0.7816531E-02  0.1126479E+00
         25   -1    0    0    0    0  0.00000000000E+00  0.00000000000E+00  0.99999998245E-14  0.12500000000E+03  0.12500000000E+03 0.  0.
    3000001    1    3    3    0    0  0.16395769344E+01  0.11563396763E+01  0.17560993473E+00  0.22485935204E+01  0.10000000000E+01 0. -1.
    1000022    2    1    0    0    0  0.11727187417E+02  0.59946567852E+02  0.86678859357E+01  0.62500000719E+02  0.99999960679E+01 0.  0.
    3000022    2    3    3    0    0  0.10087610483E+02  0.58790228176E+02  0.84922760010E+01  0.60251407199E+02  0.25000712323E+00 0.  0.
    1000022    2    1    0    0    0 -0.11727187417E+02 -0.59946567852E+02 -0.86678859357E+01  0.62499999281E+02  0.99999870760E+01 0.  0.
    3000022    2    5    5    0    0 -0.10372995488E+02 -0.54516519579E+02 -0.10594521902E+02  0.56497400995E+02  0.24996499203E+00 0.  0.
        -13    1    4    4    0    0  0.58713637755E+01  0.33848576498E+02  0.49094560272E+01  0.34703210615E+02  0.10500000000E+00 0.  1.
         13    1    4    4    0    0  0.42162467070E+01  0.24941651678E+02  0.35828199737E+01  0.25548196584E+02  0.10500000000E+00 0. -1.
    3000001    1    5    5    0    0 -0.13541919293E+01 -0.54300482729E+01  0.19266359660E+01  0.60025982852E+01  0.10000000000E+01 0. -1.
        -13    1    6    6    0    0 -0.33950015064E+01 -0.17994277001E+02 -0.35413368422E+01  0.18651330560E+02  0.10500000000E+00 0. -1.
         13    1    6    6    0    0 -0.69779939812E+01 -0.36522242578E+02 -0.70531850595E+01  0.37846070436E+02  0.10500000000E+00 0.  1.
</event>
<event>
11    0  0.3476221E-009  0.9118800E+02  0.7816531E-02  0.1126479E+00
         25   -1    0    0    0    0  0.00000000000E+00  0.00000000000E+00  0.99999998245E-14  0.12500000000E+03  0.12500000000E+03 0.  0.
    3000001    1    3    3    0    0 -0.14128813238E+01  0.14935685691E+01  0.21967863937E+01  0.31706231509E+01  0.10000000000E+01 0. -1.
    1000022    2    1    0    0    0 -0.25374987071E+02  0.54500638996E+02  0.13857869271E+02  0.62500003589E+02  0.10000014406E+02 0.  0.
    3000022    2    3    3    0    0 -0.23962105747E+02  0.53007070427E+02  0.11661082877E+02  0.59329380439E+02  0.25000453360E+00 0.  0.
    1000022    2    1    0    0    0  0.25374987071E+02 -0.54500638996E+02 -0.13857869271E+02  0.62499996411E+02  0.99999695380E+01 0.  0.
    3000022    2    5    5    0    0  0.26036328184E+02 -0.52349030983E+02 -0.13562245835E+02  0.60019233962E+02  0.25000624571E+00 0.  0.
        -13    1    4    4    0    0 -0.16275785606E+02  0.35917615101E+02  0.78671746862E+01  0.40210443098E+02  0.10500000000E+00 0.  1.
         13    1    4    4    0    0 -0.76863201410E+01  0.17089455326E+02  0.37939081908E+01  0.19118937340E+02  0.10500000000E+00 0. -1.
    3000001    1    5    5    0    0 -0.66134111334E+00 -0.21516080129E+01 -0.29562343580E+00  0.24807624484E+01  0.10000000000E+01 0. -1.
        -13    1    6    6    0    0  0.10137420851E+02 -0.20372185392E+02 -0.53418333053E+01  0.23373905262E+02  0.10500000000E+00 0. -1.
         13    1    6    6    0    0  0.15898907334E+02 -0.31976845591E+02 -0.82204125296E+01  0.36645328700E+02  0.10500000000E+00 0.  1.
</event>
<event>
11    0  0.3476221E-009  0.9118800E+02  0.7816531E-02  0.1126479E+00
         25   -1    0    0    0    0  0.00000000000E+00  0.00000000000E+00  0.99999998245E-14  0.12500000000E+03  0.12500000000E+03 0.  0.
    3000001    1    3    3    0    0  0.10601972754E+02 -0.26831610372E+01  0.38546817698E+01  0.11638717754E+02  0.10000000000E+01 0.  1.
    1000022    2    1    0    0    0  0.46785769996E+02 -0.31483368829E+02  0.25022775803E+02  0.62499998314E+02  0.99999846722E+01 0.  0.
    3000022    2    3    3    0    0  0.36183797242E+02 -0.28800207792E+02  0.21168094033E+02  0.50861280560E+02  0.25000691455E+00 0.  0.
    1000022    2    1    0    0    0 -0.46785769996E+02  0.31483368829E+02 -0.25022775803E+02  0.62500001686E+02  0.10000005745E+02 0.  0.
    3000022    2    5    5    0    0 -0.23687434803E+02  0.12287738436E+02 -0.16041985991E+02  0.31136648860E+02  0.25000847438E+00 0.  0.
        -13    1    4    4    0    0  0.25916193978E+02 -0.20595470322E+02  0.15116389184E+02  0.36391465415E+02  0.10500000000E+00 0. -1.
         13    1    4    4    0    0  0.10267603265E+02 -0.82047374693E+01  0.60517048491E+01  0.14469815145E+02  0.10500000000E+00 0.  1.
    3000001    1    5    5    0    0 -0.23098335193E+02  0.19195630393E+02 -0.89807898120E+01  0.31363352826E+02  0.10000000000E+01 0. -1.
        -13    1    6    6    0    0 -0.65805968125E+01  0.34351149060E+01 -0.44230833706E+01  0.86416989261E+01  0.10500000000E+00 0.  1.
         13    1    6    6    0    0 -0.17106837991E+02  0.88526235300E+01 -0.11618902621E+02  0.22494949934E+02  0.10500000000E+00 0. -1.
</event>
<event>
11    0  0.3476221E-009  0.9118800E+02  0.7816531E-02  0.1126479E+00
         25   -1    0    0    0    0  0.00000000000E+00  0.00000000000E+00  0.99999998245E-14  0.12500000000E+03  0.12500000000E+03 0.  0.
    3000001    1    3    3    0    0 -0.71061027272E+01  0.14886190236E+02  0.25055572996E+02  0.30014614671E+02  0.10000000000E+01 0.  1.
    1000022    2    1    0    0    0 -0.17860401076E+02  0.37954542289E+02  0.45240566248E+02  0.62499999823E+02  0.99999968269E+01 0.  0.
    3000022    2    3    3    0    0 -0.10754298348E+02  0.23068352052E+02  0.20184993252E+02  0.32485385152E+02  0.24999299234E+00 0.  0.
    1000022    2    1    0    0    0  0.17860401076E+02 -0.37954542289E+02 -0.45240566248E+02  0.62500000177E+02  0.99999990383E+01 0.  0.
    3000022    2    5    5    0    0  0.13394032523E+02 -0.18147627247E+02 -0.27049685387E+02  0.35220511948E+02  0.25000086687E+00 0.  0.
        -13    1    4    4    0    0 -0.30538137133E+01  0.64603324277E+01  0.56521314990E+01  0.91114921255E+01  0.10500000000E+00 0. -1.
         13    1    4    4    0    0 -0.77004846350E+01  0.16608019625E+02  0.14532861753E+02  0.23373893026E+02  0.10500000000E+00 0.  1.
    3000001    1    5    5    0    0  0.44663685521E+01 -0.19806915042E+02 -0.18190880861E+02  0.27279488228E+02  0.10000000000E+01 0.  1.
        -13    1    6    6    0    0  0.85063211826E+01 -0.11605255015E+02 -0.17308572735E+02  0.22508601892E+02  0.10500000000E+00 0. -1.
         13    1    6    6    0    0  0.48877113409E+01 -0.65423722318E+01 -0.97411126522E+01  0.12711910056E+02  0.10500000000E+00 0.  1.
</event>
<event>
11    0  0.3476221E-009  0.9118800E+02  0.7816531E-02  0.1126479E+00
         25   -1    0    0    0    0  0.00000000000E+00  0.00000000000E+00  0.99999998245E-14  0.12500000000E+03  0.12500000000E+03 0.  0.
    3000001    1    3    3    0    0 -0.33408704261E+02 -0.20651906210E+02  0.25437480241E+02  0.46805001351E+02  0.10000000000E+01 0.  1.
    1000022    2    1    0    0    0 -0.44020166665E+02 -0.22630691943E+02  0.36828340668E+02  0.62499998277E+02  0.99999908619E+01 0.  0.
    3000022    2    3    3    0    0 -0.10611462404E+02 -0.19787857334E+01  0.11390860427E+02  0.15694996926E+02  0.24999979675E+00 0.  0.
    1000022    2    1    0    0    0  0.44020166665E+02  0.22630691943E+02 -0.36828340668E+02  0.62500001723E+02  0.10000012399E+02 0.  0.
    3000022    2    5    5    0    0  0.23900064607E+02  0.70638465986E+01 -0.16114260143E+02  0.29678997582E+02  0.25000112822E+00 0.  0.
        -13    1    4    4    0    0 -0.66943741136E+01 -0.11894933495E+01  0.71944345192E+01  0.98995177788E+01  0.10500000000E+00 0. -1.
         13    1    4    4    0    0 -0.39170882904E+01 -0.78929238396E+00  0.41964259081E+01  0.57954791471E+01  0.10500000000E+00 0.  1.
    3000001    1    5    5    0    0  0.20120102059E+02  0.15566845344E+02 -0.20714080525E+02  0.32821004141E+02  0.10000000000E+01 0. -1.
        -13    1    6    6    0    0  0.11553881938E+02  0.34615406846E+01 -0.77381527613E+01  0.14330543776E+02  0.10500000000E+00 0.  1.
         13    1    6    6    0    0  0.12346182668E+02  0.36023059141E+01 -0.83761073820E+01  0.15348453806E+02  0.10500000000E+00 0. -1.
</event>
<event>
11    0  0.3476221E-009  0.9118800E+02  0.7816531E-02  0.1126479E+00
         25   -1    0    0    0    0  0.00000000000E+00  0.00000000000E+00  0.99999998245E-14  0.12500000000E+03  0.12500000000E+03 0.  0.
    3000001    1    3    3    0    0  0.12618737773E+02 -0.80655688405E+01  0.75977738721E+01  0.16822963815E+02  0.10000000000E+01 0. -1.
    1000022    2    1    0    0    0  0.54273750284E+02 -0.16074354128E+02  0.24540276874E+02  0.62499999827E+02  0.99999979451E+01 0.  0.
    3000022    2    3    3    0    0  0.41655012510E+02 -0.80087852877E+01  0.16942503002E+02  0.45677036012E+02  0.25000378514E+00 0.  0.
    1000022    2    1    0    0    0 -0.54273750284E+02  0.16074354128E+02 -0.24540276874E+02  0.62500000173E+02  0.10000000102E+02 0.  0.
    3000022    2    5    5    0    0 -0.68410356818E+01  0.97377986392E+00  0.17050484472E+00  0.69166169474E+01  0.25000334585E+00 0.  0.
        -13    1    4    4    0    0  0.25729400583E+02 -0.48898715637E+01  0.10434110793E+02  0.28192101577E+02  0.10500000000E+00 0. -1.
         13    1    4    4    0    0  0.15925611927E+02 -0.31189137240E+01  0.65083922090E+01  0.17484934436E+02  0.10500000000E+00 0.  1.
    3000001    1    5    5    0    0 -0.47432714602E+02  0.15100574264E+02 -0.24710781718E+02  0.55583383225E+02  0.10000000000E+01 0.  1.
        -13    1    6    6    0    0 -0.21648731650E+01  0.35016776698E+00  0.26077459347E-01  0.21956771893E+01  0.10500000000E+00 0. -1.
         13    1    6    6    0    0 -0.46761625167E+01  0.62361209694E+00  0.14442738537E+00  0.47209397582E+01  0.10500000000E+00 0.  1.
</event>
<event>
11    0  0.3476221E-009  0.9118800E+02  0.7816531E-02  0.1126479E+00
         25   -1    0    0    0    0  0.00000000000E+00  0.00000000000E+00  0.99999998245E-14  0.12500000000E+03  0.12500000000E+03 0.  0.
    3000001    1    3    3    0    0 -0.17333126732E+02 -0.10482875405E+01 -0.61387649613E+01  0.18445070461E+02  0.10000000000E+01 0.  1.
    1000022    2    1    0    0    0 -0.60950381797E+02 -0.72369276837E+01 -0.62392071282E+01  0.62499999738E+02  0.10000004907E+02 0.  0.
    3000022    2    3    3    0    0 -0.43617255065E+02 -0.61886401433E+01 -0.10044216697E+00  0.44054929277E+02  0.24999738125E+00 0.  0.
    1000022    2    1    0    0    0  0.60950381797E+02  0.72369276837E+01  0.62392071282E+01  0.62500000262E+02  0.10000008188E+02 0.  0.
    3000022    2    5    5    0    0  0.20873850159E+02  0.71757755909E+01  0.30559458472E+01  0.22284763348E+02  0.24999334344E+00 0.  0.
        -13    1    4    4    0    0 -0.30489097744E+02 -0.42913342925E+01 -0.10106212007E+00  0.30789963784E+02  0.10500000000E+00 0.  1.
         13    1    4    4    0    0 -0.13128157321E+02 -0.18973058508E+01  0.61995309808E-03  0.13264965493E+02  0.10500000000E+00 0. -1.
    3000001    1    5    5    0    0  0.40076531638E+02  0.61152092869E-01  0.31832612810E+01  0.40215236914E+02  0.10000000000E+01 0.  1.
        -13    1    6    6    0    0  0.12750965883E+02  0.43468743993E+01  0.18131272622E+01  0.13593413974E+02  0.10500000000E+00 0. -1.
         13    1    6    6    0    0  0.81228842758E+01  0.28289011916E+01  0.12428185850E+01  0.86913493742E+01  0.10500000000E+00 0.  1.
</event>
<event>
11    0  0.3476221E-009  0.9118800E+02  0.7816531E-02  0.1126479E+00
         25   -1    0    0    0    0  0.00000000000E+00  0.00000000000E+00  0.99999998245E-14  0.12500000000E+03  0.12500000000E+03 0.  0.
    3000001    1    3    3    0    0  0.94563111826E+01  0.15165163325E+01  0.67098277209E+01  0.11736414743E+02  0.10000000000E+01 0.  1.
    1000022    2    1    0    0    0  0.57557739628E+02 -0.46190064213E+01  0.21726049369E+02  0.62499998798E+02  0.10000000859E+02 0.  0.
    3000022    2    3    3    0    0  0.48101428445E+02 -0.61355227538E+01  0.15016221649E+02  0.50763584055E+02  0.24999122812E+00 0.  0.
    1000022    2    1    0    0    0 -0.57557739628E+02  0.46190064213E+01 -0.21726049369E+02  0.62500001202E+02  0.10000015881E+02 0.  0.
    3000022    2    5    5    0    0 -0.17124476044E+02  0.37849310643E+01 -0.10793574354E+02  0.20594589908E+02  0.25000637503E+00 0.  0.
        -13    1    4    4    0    0  0.28183950669E+02 -0.35882438586E+01  0.87311447858E+01  0.29722962227E+02  0.10500000000E+00 0. -1.
         13    1    4    4    0    0  0.19917477777E+02 -0.25472788952E+01  0.62850768628E+01  0.21040621828E+02  0.10500000000E+00 0.  1.
    3000001    1    5    5    0    0 -0.40433263584E+02  0.83407535697E+00 -0.10932475015E+02  0.41905411294E+02  0.10000000000E+01 0.  1.
        -13    1    6    6    0    0 -0.96117152310E+01  0.20990842033E+01 -0.59828112196E+01  0.11515045778E+02  0.10500000000E+00 0.  1.
         13    1    6    6    0    0 -0.75127608127E+01  0.16858468611E+01 -0.48107631349E+01  0.90795441299E+01  0.10500000000E+00 0. -1.
</event>
<event>
11    0  0.3476221E-009  0.9118800E+02  0.7816531E-02  0.1126479E+00
         25   -1    0    0    0    0  0.00000000000E+00  0.00000000000E+00  0.99999998245E-14  0.12500000000E+03  0.12500000000E+03 0.  0.
    3000001    1    3    3    0    0  0.20464156069E+02 -0.12543246921E+02 -0.29101206964E+02  0.37735857930E+02  0.10000000000E+01 0.  1.
    1000022    2    1    0    0    0  0.35794300574E+02 -0.26375020102E+02 -0.42771208075E+02  0.62499999438E+02  0.10000002528E+02 0.  0.
    3000022    2    3    3    0    0  0.15330144504E+02 -0.13831773182E+02 -0.13670001111E+02  0.24764141508E+02  0.24998874386E+00 0.  0.
    1000022    2    1    0    0    0 -0.35794300574E+02  0.26375020102E+02  0.42771208075E+02  0.62500000562E+02  0.10000009558E+02 0.  0.
    3000022    2    5    5    0    0 -0.33588939310E+02  0.24639763606E+02  0.35832263933E+02  0.54948598096E+02  0.24999919858E+00 0.  0.
        -13    1    4    4    0    0  0.79775532221E+01 -0.71566446926E+01 -0.70229742067E+01  0.12813746930E+02  0.10500000000E+00 0.  1.
         13    1    4    4    0    0  0.73525912823E+01 -0.66751284891E+01 -0.66470269039E+01  0.11950394578E+02  0.10500000000E+00 0. -1.
    3000001    1    5    5    0    0 -0.22053612642E+01  0.17352564960E+01  0.69389441415E+01  0.75514024665E+01  0.10000000000E+01 0. -1.
        -13    1    6    6    0    0 -0.12266129023E+02  0.90707554866E+01  0.13113837740E+02  0.20117661185E+02  0.10500000000E+00 0. -1.
         13    1    6    6    0    0 -0.21322810287E+02  0.15569008120E+02  0.22718426193E+02  0.34830936911E+02  0.10500000000E+00 0.  1.
</event>
<event>
11    0  0.3476221E-009  0.9118800E+02  0.7816531E-02  0.1126479E+00
         25   -1    0    0    0    0  0.00000000000E+00  0.00000000000E+00  0.99999998245E-14  0.12500000000E+03  0.12500000000E+03 0.  0.
    3000001    1    3    3    0    0 -0.14693462454E+02 -0.47433257470E+02  0.11860210609E+02  0.51063454141E+02  0.10000000000E+01 0. -1.
    1000022    2    1    0    0    0 -0.22063139119E+02 -0.55732683086E+02  0.14606023387E+02  0.62500000221E+02  0.10000001838E+02 0.  0.
    3000022    2    3    3    0    0 -0.73696766643E+01 -0.82994256159E+01  0.27458127785E+01  0.11436546080E+02  0.24999749083E+00 0.  0.
    1000022    2    1    0    0    0  0.22063139119E+02  0.55732683086E+02 -0.14606023387E+02  0.62499999779E+02  0.99999990692E+01 0.  0.
    3000022    2    5    5    0    0  0.19429438130E+02  0.47739663462E+02 -0.89574953464E+01  0.52315177118E+02  0.25000088634E+00 0.  0.
        -13    1    4    4    0    0 -0.27736194056E+01 -0.31282519974E+01  0.97229779899E+00  0.42936363582E+01  0.10500000000E+00 0.  1.
         13    1    4    4    0    0 -0.45960572587E+01 -0.51711736185E+01  0.17735149795E+01  0.71429097222E+01  0.10500000000E+00 0. -1.
    3000001    1    5    5    0    0  0.26337009882E+01  0.79930196241E+01 -0.56485280406E+01  0.10184822661E+02  0.10000000000E+01 0.  1.
        -13    1    6    6    0    0  0.11300118090E+02  0.27673344525E+02 -0.52504323839E+01  0.30349377774E+02  0.10500000000E+00 0. -1.
         13    1    6    6    0    0  0.81293200402E+01  0.20066318937E+02 -0.37070629626E+01  0.21965799344E+02  0.10500000000E+00 0.  1.
</event>
<event>
11    0  0.3476221E-009  0.9118800E+02  0.7816531E-02  0.1126479E+00
         25   -1    0    0    0    0  0.00000000000E+00  0.00000000000E+00  0.99999998245E-14  0.12500000000E+03  0.12500000000E+03 0.  0.
    3000001    1    3    3    0    0 -0.93393773628E+01 -0.94566498223E+01  0.14829390603E+02  0.19938982448E+02  0.10000000000E+01 0. -1.
    1000022    2    1    0    0    0 -0.23301568093E+02 -0.18886251253E+02  0.53912859049E+02  0.62499999368E+02  0.99999994118E+01 0.  0.
    3000022    2    3    3    0    0 -0.13962190730E+02 -0.94296014306E+01  0.39083468445E+02  0.42561016920E+02  0.25000490588E+00 0.  0.
    1000022    2    1    0    0    0  0.23301568093E+02  0.18886251253E+02 -0.53912859049E+02  0.62500000632E+02  0.10000007310E+02 0.  0.
    3000022    2    5    5    0    0  0.22288827332E+02  0.18740429831E+02 -0.53651810591E+02  0.61045678098E+02  0.25000137507E+00 0.  0.
        -13    1    4    4    0    0 -0.76664588825E+01 -0.51397044445E+01  0.21261781213E+02  0.23178988738E+02  0.10500000000E+00 0.  1.
         13    1    4    4    0    0 -0.62957318475E+01 -0.42898969861E+01  0.17821687233E+02  0.19382028183E+02  0.10500000000E+00 0. -1.
    3000001    1    5    5    0    0  0.10127407604E+01  0.14582142175E+00 -0.26104845817E+00  0.14543225338E+01  0.10000000000E+01 0. -1.
        -13    1    6    6    0    0  0.82696592040E+01  0.68781463167E+01 -0.19785157398E+02  0.22520205114E+02  0.10500000000E+00 0.  1.
         13    1    6    6    0    0  0.14019168128E+02  0.11862283514E+02 -0.33866653192E+02  0.38525472984E+02  0.10500000000E+00 0. -1.
</event>
<event>
11    0  0.3476221E-009  0.9118800E+02  0.7816531E-02  0.1126479E+00
         25   -1    0    0    0    0  0.00000000000E+00  0.00000000000E+00  0.99999998245E-14  0.12500000000E+03  0.12500000000E+03 0.  0.
    3000001    1    3    3    0    0  0.16205948011E+02 -0.45589230052E+02 -0.38762352878E-02  0.48394324695E+02  0.10000000000E+01 0. -1.
    1000022    2    1    0    0    0  0.24972305045E+02 -0.56361276128E+02 -0.24577652693E+01  0.62499999577E+02  0.99999935484E+01 0.  0.
    3000022    2    3    3    0    0  0.87663570332E+01 -0.10772046076E+02 -0.24538890340E+01  0.14105674882E+02  0.25000035741E+00 0.  0.
    1000022    2    1    0    0    0 -0.24972305045E+02  0.56361276128E+02  0.24577652693E+01  0.62500000423E+02  0.99999988341E+01 0.  0.
    3000022    2    5    5    0    0 -0.18540350408E+02  0.48400533987E+02  0.44654553123E+01  0.52022678475E+02  0.25000218435E+00 0.  0.
        -13    1    4    4    0    0  0.60240683527E+01 -0.73480718051E+01 -0.16419549734E+01  0.96431633765E+01  0.10500000000E+00 0.  1.
         13    1    4    4    0    0  0.27422886805E+01 -0.34239742712E+01 -0.81193406062E+00  0.44625115054E+01  0.10500000000E+00 0. -1.
    3000001    1    5    5    0    0 -0.64319546369E+01  0.79607421414E+01 -0.20076900430E+01  0.10477321948E+02  0.10000000000E+01 0. -1.
        -13    1    6    6    0    0 -0.74958229984E+01  0.19706290513E+02  0.17761151615E+01  0.21158706441E+02  0.10500000000E+00 0.  1.
         13    1    6    6    0    0 -0.11044527409E+02  0.28694243474E+02  0.26893401508E+01  0.30863972034E+02  0.10500000000E+00 0. -1.
</event>
<event>
11    0  0.3476221E-009  0.9118800E+02  0.7816531E-02  0.1126479E+00
         25   -1    0    0    0    0  0.00000000000E+00  0.00000000000E+00  0.99999998245E-14  0.12500000000E+03  0.12500000000E+03 0.  0.
    3000001    1    3    3    0    0  0.32787094890E+02  0.92660339030E+01  0.12107748055E+02  0.36172510814E+02  0.10000000000E+01 0.  1.
    1000022    2    1    0    0    0  0.58889005566E+02  0.99535963890E+01  0.15468067737E+02  0.62500000805E+02  0.99999961764E+01 0.  0.
    3000022    2    3    3    0    0  0.26101910676E+02  0.68756248599E+00  0.33603196823E+01  0.26327489991E+02  0.24999555806E+00 0.  0.
    1000022    2    1    0    0    0 -0.58889005566E+02 -0.99535963890E+01 -0.15468067737E+02  0.62499999195E+02  0.99999861103E+01 0.  0.
    3000022    2    5    5    0    0 -0.42678741883E+02 -0.38922079930E+01 -0.14075559060E+02  0.45108847469E+02  0.24993056101E+00 0.  0.
        -13    1    4    4    0    0  0.79668989308E+01  0.18243249721E+00  0.98687507218E+00  0.80305483996E+01  0.10500000000E+00 0. -1.
         13    1    4    4    0    0  0.18135011745E+02  0.50512998879E+00  0.23734446101E+01  0.18296941592E+02  0.10500000000E+00 0.  1.
    3000001    1    5    5    0    0 -0.16210263682E+02 -0.60613883960E+01 -0.13925086770E+01  0.17391151726E+02  0.10000000000E+01 0.  1.
        -13    1    6    6    0    0 -0.25974357551E+02 -0.24288333008E+01 -0.85505622813E+01  0.27453408199E+02  0.10500000000E+00 0. -1.
         13    1    6    6    0    0 -0.16704384332E+02 -0.14633746922E+01 -0.55249967791E+01  0.17655439270E+02  0.10500000000E+00 0.  1.
</event>
<event>
11    0  0.3476221E-009  0.9118800E+02  0.7816531E-02  0.1126479E+00
         25   -1    0    0    0    0  0.00000000000E+00  0.00000000000E+00  0.99999998245E-14  0.12500000000E+03  0.12500000000E+03 0.  0.
    3000001    1    3    3    0    0  0.20602893969E+01 -0.14270730927E+01 -0.66961715488E+01  0.72194212664E+01  0.10000000000E+01 0. -1.
    1000022    2    1    0    0    0  0.37229055729E+02  0.32633185315E+01 -0.49087655857E+02  0.62499999583E+02  0.10000007605E+02 0.  0.
    3000022    2    3    3    0    0  0.35168766332E+02  0.46903916242E+01 -0.42391484308E+02  0.55280578317E+02  0.24999662425E+00 0.  0.
    1000022    2    1    0    0    0 -0.37229055729E+02 -0.32633185315E+01  0.49087655857E+02  0.62500000417E+02  0.10000012814E+02 0.  0.
    3000022    2    5    5    0    0 -0.26483072526E+02 -0.95235002115E+00  0.40990450536E+02  0.48811265469E+02  0.25000123660E+00 0.  0.
        -13    1    4    4    0    0  0.10269534481E+02  0.13477277132E+01 -0.12316834373E+02  0.16093326022E+02  0.10500000000E+00 0. -1.
         13    1    4    4    0    0  0.24899231850E+02  0.33426639110E+01 -0.30074649935E+02  0.39187252295E+02  0.10500000000E+00 0.  1.
    3000001    1    5    5    0    0 -0.10745983203E+02 -0.23109685103E+01  0.80972053213E+01  0.13688734947E+02  0.10000000000E+01 0. -1.
        -13    1    6    6    0    0 -0.12371172391E+02 -0.44390122110E+00  0.19024154632E+02  0.22697410405E+02  0.10500000000E+00 0.  1.
         13    1    6    6    0    0 -0.14111900135E+02 -0.50844880006E+00  0.21966295904E+02  0.26113855065E+02  0.10500000000E+00 0. -1.
</event>
<event>
11    0  0.3476221E-009  0.9118800E+02  0.7816531E-02  0.1126479E+00
         25   -1    0    0    0    0  0.00000000000E+00  0.00000000000E+00  0.99999998245E-14  0.12500000000E+03  0.12500000000E+03 0.  0.
    3000001    1    3    3    0    0  0.18540173149E+02  0.57253354034E+01  0.10539936984E+02  0.22104473699E+02  0.10000000000E+01 0. -1.
    1000022    2    1    0    0    0  0.54172847198E+02  0.29915801821E+01  0.29370106697E+02  0.62500001601E+02  0.10000005360E+02 0.  0.
    3000022    2    3    3    0    0  0.35632674049E+02 -0.27337552213E+01  0.18830169713E+02  0.40395527902E+02  0.25001114566E+00 0.  0.
    1000022    2    1    0    0    0 -0.54172847198E+02 -0.29915801821E+01 -0.29370106697E+02  0.62499998399E+02  0.99999853474E+01 0.  0.
    3000022    2    5    5    0    0 -0.22995523208E+02 -0.54994459825E+01 -0.98349445778E+01  0.25609112247E+02  0.25000301384E+00 0.  0.
        -13    1    4    4    0    0  0.26116383192E+02 -0.19725955895E+01  0.13781830471E+02  0.29595717266E+02  0.10500000000E+00 0. -1.
         13    1    4    4    0    0  0.95162908571E+01 -0.76115963181E+00  0.50483392417E+01  0.10799810635E+02  0.10500000000E+00 0.  1.
    3000001    1    5    5    0    0 -0.31177323990E+02  0.25078658005E+01 -0.19535162119E+02  0.36890886152E+02  0.10000000000E+01 0. -1.
        -13    1    6    6    0    0 -0.10171686166E+02 -0.24949114407E+01 -0.43272963835E+01  0.11332444642E+02  0.10500000000E+00 0. -1.
         13    1    6    6    0    0 -0.12823837042E+02 -0.30045345418E+01 -0.55076481943E+01  0.14276667606E+02  0.10500000000E+00 0.  1.
</event>
<event>
11    0  0.3476221E-009  0.9118800E+02  0.7816531E-02  0.1126479E+00
         25   -1    0    0    0    0  0.00000000000E+00  0.00000000000E+00  0.99999998245E-14  0.12500000000E+03  0.12500000000E+03 0.  0.
    3000001    1    3    3    0    0 -0.14458396309E+02  0.95574583056E+01  0.14799478823E+02  0.22812601924E+02  0.10000000000E+01 0.  1.
    1000022    2    1    0    0    0 -0.44858678897E+02  0.30449166536E+02  0.29441419330E+02  0.62500000151E+02  0.10000001576E+02 0.  0.
    3000022    2    3    3    0    0 -0.30400282588E+02  0.20891708231E+02  0.14641940507E+02  0.39687398227E+02  0.25000400253E+00 0.  0.
    1000022    2    1    0    0    0  0.44858678897E+02 -0.30449166536E+02 -0.29441419330E+02  0.62499999849E+02  0.99999996937E+01 0.  0.
    3000022    2    5    5    0    0  0.39726112369E+02 -0.22658497190E+02 -0.23895052192E+02  0.51600460572E+02  0.25002625990E+00 0.  0.
        -13    1    4    4    0    0 -0.13782552178E+02  0.94530418562E+01  0.65640970372E+01  0.17955977829E+02  0.10500000000E+00 0. -1.
         13    1    4    4    0    0 -0.16617730409E+02  0.11438666374E+02  0.80778434699E+01  0.21731420398E+02  0.10500000000E+00 0.  1.
    3000001    1    5    5    0    0  0.51325665283E+01 -0.77906693468E+01 -0.55463671375E+01  0.10899539278E+02  0.10000000000E+01 0.  1.
        -13    1    6    6    0    0  0.20357997175E+02 -0.11535081113E+02 -0.12210163934E+02  0.26393280841E+02  0.10500000000E+00 0. -1.
         13    1    6    6    0    0  0.19368115193E+02 -0.11123416076E+02 -0.11684888259E+02  0.25207179730E+02  0.10500000000E+00 0.  1.
</event>
<event>
11    0  0.3476221E-009  0.9118800E+02  0.7816531E-02  0.1126479E+00
         25   -1    0    0    0    0  0.00000000000E+00  0.00000000000E+00  0.99999998245E-14  0.12500000000E+03  0.12500000000E+03 0.  0.
    3000001    1    3    3    0    0  0.12915943445E+02  0.13116187753E+02 -0.64607535333E+01  0.19534515926E+02  0.10000000000E+01 0.  1.
    1000022    2    1    0    0    0  0.29818142794E+02  0.45671969071E+02 -0.28830532841E+02  0.62499999383E+02  0.99999950271E+01 0.  0.
    3000022    2    3    3    0    0  0.16902199349E+02  0.32555781318E+02 -0.22369779308E+02  0.42965483458E+02  0.25000480747E+00 0.  0.
    1000022    2    1    0    0    0 -0.29818142794E+02 -0.45671969071E+02  0.28830532841E+02  0.62500000617E+02  0.10000002735E+02 0.  0.
    3000022    2    5    5    0    0 -0.11298266138E+02 -0.14229524372E+02  0.14635798530E+02  0.23332365480E+02  0.24999746254E+00 0.  0.
        -13    1    4    4    0    0  0.46935397742E+01  0.89598697134E+01 -0.61578837009E+01  0.11842260661E+02  0.10500000000E+00 0. -1.
         13    1    4    4    0    0  0.12208659575E+02  0.23595911605E+02 -0.16211895607E+02  0.31123222796E+02  0.10500000000E+00 0.  1.
    3000001    1    5    5    0    0 -0.18519876656E+02 -0.31442444699E+02  0.14194734311E+02  0.39167635136E+02  0.10000000000E+01 0.  1.
        -13    1    6    6    0    0 -0.48597982907E+01 -0.60962792432E+01  0.63619975358E+01  0.10063215077E+02  0.10500000000E+00 0. -1.
         13    1    6    6    0    0 -0.64384678473E+01 -0.81332451285E+01  0.82738009939E+01  0.13269150403E+02  0.10500000000E+00 0.  1.
</event>
<event>
11    0  0.3476221E-009  0.9118800E+02  0.7816531E-02  0.1126479E+00
         25   -1    0    0    0    0  0.00000000000E+00  0.00000000000E+00  0.99999998245E-14  0.12500000000E+03  0.12500000000E+03 0.  0.
    3000001    1    3    3    0    0  0.31672196544E+02  0.74899306717E+01  0.20587349990E+02  0.38523578170E+02  0.10000000000E+01 0.  1.
    1000022    2    1    0    0    0  0.50422781785E+02  0.19113233896E+02  0.29974611975E+02  0.62500000196E+02  0.10000001425E+02 0.  0.
    3000022    2    3    3    0    0  0.18750585241E+02  0.11623303224E+02  0.93872619849E+01  0.23976422026E+02  0.25000171893E+00 0.  0.
    1000022    2    1    0    0    0 -0.50422781785E+02 -0.19113233896E+02 -0.29974611975E+02  0.62499999804E+02  0.99999989786E+01 0.  0.
    3000022    2    5    5    0    0 -0.28833871464E+02 -0.14598351507E+02 -0.13861198781E+02  0.35166736249E+02  0.24999281051E+00 0.  0.
        -13    1    4    4    0    0  0.10099247129E+02  0.63266926612E+01  0.51104639731E+01  0.12967254899E+02  0.10500000000E+00 0.  1.
         13    1    4    4    0    0  0.86513381118E+01  0.52966105632E+01  0.42767980118E+01  0.11009167126E+02  0.10500000000E+00 0. -1.
    3000001    1    5    5    0    0 -0.21588910321E+02 -0.45148823886E+01 -0.16113413194E+02  0.27333263555E+02  0.10000000000E+01 0. -1.
        -13    1    6    6    0    0 -0.84651748224E+01 -0.43276185041E+01 -0.40518831456E+01  0.10335194663E+02  0.10500000000E+00 0.  1.
         13    1    6    6    0    0 -0.20368696642E+02 -0.10270733003E+02 -0.98093156356E+01  0.24831541586E+02  0.10500000000E+00 0. -1.
</event>
<event>
11    0  0.3476221E-009  0.9118800E+02  0.7816531E-02  0.1126479E+00
         25   -1    0    0    0    0  0.00000000000E+00  0.00000000000E+00  0.99999998245E-14  0.12500000000E+03  0.12500000000E+03 0.  0.
    3000001    1    3    3    0    0  0.52414234266E+01  0.16709247747E+02  0.13668229006E+02  0.22237175270E+02  0.10000000000E+01 0.  1.
    1000022    2    1    0    0    0  0.10751046592E+02  0.53971418192E+02  0.27888196141E+02  0.62500002603E+02  0.99999928468E+01 0.  0.
    3000022    2    3    3    0    0  0.55096231650E+01  0.37262170445E+02  0.14219967135E+02  0.40262827334E+02  0.25001177833E+00 0.  0.
    1000022    2    1    0    0    0 -0.10751046592E+02 -0.53971418192E+02 -0.27888196141E+02  0.62499997397E+02  0.99999603067E+01 0.  0.
    3000022    2    5    5    0    0 -0.17471461490E+01 -0.72646699782E+00 -0.70203756501E+00  0.20336243539E+01  0.24999461008E+00 0.  0.
        -13    1    4    4    0    0  0.26891969746E+01  0.17849755770E+02  0.67651768254E+01  0.19277557000E+02  0.10500000000E+00 0. -1.
         13    1    4    4    0    0  0.28204261904E+01  0.19412414675E+02  0.74547903094E+01  0.20985270333E+02  0.10500000000E+00 0.  1.
    3000001    1    5    5    0    0 -0.90039004426E+01 -0.53244951194E+02 -0.27186158576E+02  0.60466373043E+02  0.10000000000E+01 0. -1.
        -13    1    6    6    0    0 -0.93616276659E+00 -0.46144557191E+00 -0.38580430087E+00  0.11176773685E+01  0.10500000000E+00 0. -1.
         13    1    6    6    0    0 -0.81098338243E+00 -0.26502142591E+00 -0.31623326414E+00  0.91594698543E+00  0.10500000000E+00 0.  1.
</event>
<event>
11    0  0.3476221E-009  0.9118800E+02  0.7816531E-02  0.1126479E+00
         25   -1    0    0    0    0  0.00000000000E+00  0.00000000000E+00  0.99999998245E-14  0.12500000000E+03  0.12500000000E+03 0.  0.
    3000001    1    3    3    0    0  0.31232342787E+02  0.21333817814E+02 -0.26766834128E+02  0.46347108083E+02  0.10000000000E+01 0. -1.
    1000022    2    1    0    0    0  0.45291611271E+02  0.24241897183E+02 -0.34165044683E+02  0.62500000111E+02  0.10000005251E+02 0.  0.
    3000022    2    3    3    0    0  0.14059268485E+02  0.29080793687E+01 -0.73982105557E+01  0.16152892027E+02  0.24989093164E+00 0.  0.
    1000022    2    1    0    0    0 -0.45291611271E+02 -0.24241897183E+02  0.34165044683E+02  0.62499999889E+02  0.10000003869E+02 0.  0.
    3000022    2    5    5    0    0 -0.42849856486E+02 -0.19895323589E+02  0.30546030605E+02  0.56258835629E+02  0.24999791423E+00 0.  0.
        -13    1    4    4    0    0  0.55049409408E+01  0.11612147885E+01 -0.28340903201E+01  0.63004672437E+01  0.10500000000E+00 0. -1.
         13    1    4    4    0    0  0.85543275438E+01  0.17468645801E+01 -0.45641202356E+01  0.98524247834E+01  0.10500000000E+00 0.  1.
    3000001    1    5    5    0    0 -0.24417547857E+01 -0.43465735933E+01  0.36190140781E+01  0.62411642610E+01  0.10000000000E+01 0.  1.
        -13    1    6    6    0    0 -0.20808043393E+02 -0.95887454699E+01  0.14794254747E+02  0.27272691617E+02  0.10500000000E+00 0.  1.
         13    1    6    6    0    0 -0.22041813093E+02 -0.10306578119E+02  0.15751775859E+02  0.28986144011E+02  0.10500000000E+00 0. -1.
</event>
<event>
11    0  0.3476221E-009  0.9118800E+02  0.7816531E-02  0.1126479E+00
         25   -1    0    0    0    0  0.00000000000E+00  0.00000000000E+00  0.99999998245E-14  0.12500000000E+03  0.12500000000E+03 0.  0.
    3000001    1    3    3    0    0  0.12065247852E+01  0.13197076634E+01  0.21870674864E+01  0.29967640155E+01  0.10000000000E+01 0. -1.
    1000022    2    1    0    0    0  0.55223478199E+02  0.15188213117E+02  0.22933289764E+02  0.62499998694E+02  0.99999847648E+01 0.  0.
    3000022    2    3    3    0    0  0.54016953414E+02  0.13868505453E+02  0.20746222277E+02  0.59503234678E+02  0.24999764940E+00 0.  0.
    1000022    2    1    0    0    0 -0.55223478199E+02 -0.15188213117E+02 -0.22933289764E+02  0.62500001306E+02  0.10000001092E+02 0.  0.
    3000022    2    5    5    0    0 -0.38276113924E+02 -0.12310434990E+02 -0.20428272561E+02  0.45099717573E+02  0.24999712492E+00 0.  0.
        -13    1    4    4    0    0  0.36987027237E+02  0.95185876487E+01  0.14255195891E+02  0.40765982504E+02  0.10500000000E+00 0.  1.
         13    1    4    4    0    0  0.17029926177E+02  0.43499178044E+01  0.64910263866E+01  0.18737252174E+02  0.10500000000E+00 0. -1.
    3000001    1    5    5    0    0 -0.16947364275E+02 -0.28777781263E+01 -0.25050172026E+01  0.17400283733E+02  0.10000000000E+01 0. -1.
        -13    1    6    6    0    0 -0.23095102881E+02 -0.74045023567E+01 -0.12256553087E+02  0.27174336253E+02  0.10500000000E+00 0. -1.
         13    1    6    6    0    0 -0.15181011043E+02 -0.49059326336E+01 -0.81717194745E+01  0.17925381320E+02  0.10500000000E+00 0.  1.
</event>
<event>
11    0  0.3476221E-009  0.9118800E+02  0.7816531E-02  0.1126479E+00
         25   -1    0    0    0    0  0.00000000000E+00  0.00000000000E+00  0.99999998245E-14  0.12500000000E+03  0.12500000000E+03 0.  0.
    3000001    1    3    3    0    0  0.87453312677E+01 -0.92031035786E+01  0.56599742517E+02  0.58014729056E+02  0.10000000000E+01 0.  1.
    1000022    2    1    0    0    0  0.67109779937E+01 -0.10022824152E+02  0.60504179256E+02  0.62500000500E+02  0.10000006274E+02 0.  0.
    3000022    2    3    3    0    0 -0.20343532740E+01 -0.81972057364E+00  0.39044367389E+01  0.44852714442E+01  0.24999723465E+00 0.  0.
    1000022    2    1    0    0    0 -0.67109779937E+01  0.10022824152E+02 -0.60504179256E+02  0.62499999500E+02  0.10000000023E+02 0.  0.
    3000022    2    5    5    0    0 -0.91481389638E+00  0.13095696945E+01 -0.67148225622E+00  0.17507776800E+01  0.24995362500E+00 0.  0.
        -13    1    4    4    0    0 -0.76433196356E+00 -0.24571462903E+00  0.14564508641E+01  0.16663892550E+01  0.10500000000E+00 0. -1.
         13    1    4    4    0    0 -0.12700213105E+01 -0.57400594461E+00  0.24479858748E+01  0.28188821892E+01  0.10500000000E+00 0.  1.
    3000001    1    5    5    0    0 -0.57961640973E+01  0.87132544577E+01 -0.59832697000E+02  0.60749221820E+02  0.10000000000E+01 0.  1.
        -13    1    6    6    0    0 -0.55119577799E+00  0.88152701970E+00 -0.45616827647E+00  0.11401847081E+01  0.10500000000E+00 0.  1.
         13    1    6    6    0    0 -0.36361811839E+00  0.42804267482E+00 -0.21531397975E+00  0.61059297193E+00  0.10500000000E+00 0. -1.
</event>
<event>
11    0  0.3476221E-009  0.9118800E+02  0.7816531E-02  0.1126479E+00
         25   -1    0    0    0    0  0.00000000000E+00  0.00000000000E+00  0.99999998245E-14  0.12500000000E+03  0.12500000000E+03 0.  0.
    3000001    1    3    3    0    0 -0.52135476593E+01 -0.51108824539E+02  0.62403504575E+01  0.51761327251E+02  0.10000000000E+01 0.  1.
    1000022    2    1    0    0    0 -0.39615658333E+01 -0.60536178911E+02  0.11221723062E+02  0.62499999338E+02  0.99999943886E+01 0.  0.
    3000022    2    3    3    0    0  0.12519818260E+01 -0.94273543724E+01  0.49813726049E+01  0.10738672087E+02  0.25007242340E+00 0.  0.
    1000022    2    1    0    0    0  0.39615658333E+01  0.60536178911E+02 -0.11221723062E+02  0.62500000662E+02  0.10000002662E+02 0.  0.
    3000022    2    5    5    0    0  0.67176579333E+01  0.35689374735E+02 -0.45079119772E+01  0.36595657769E+02  0.25000013288E+00 0.  0.
        -13    1    4    4    0    0  0.85011458281E+00 -0.59608443788E+01  0.31399303328E+01  0.67915055774E+01  0.10500000000E+00 0. -1.
         13    1    4    4    0    0  0.40186724323E+00 -0.34665099936E+01  0.18414422721E+01  0.39471665101E+01  0.10500000000E+00 0.  1.
    3000001    1    5    5    0    0 -0.27560921000E+01  0.24846804176E+02 -0.67138110852E+01  0.25904342893E+02  0.10000000000E+01 0.  1.
        -13    1    6    6    0    0  0.50327372476E+01  0.26586866586E+02 -0.33505653892E+01  0.27265862035E+02  0.10500000000E+00 0.  1.
         13    1    6    6    0    0  0.16849206857E+01  0.91025081493E+01 -0.11573465880E+01  0.93297957346E+01  0.10500000000E+00 0.  1.
</event>
<event>
11    0  0.3476221E-009  0.9118800E+02  0.7816531E-02  0.1126479E+00
         25   -1    0    0    0    0  0.00000000000E+00  0.00000000000E+00  0.99999998245E-14  0.12500000000E+03  0.12500000000E+03 0.  0.
    3000001    1    3    3    0    0 -0.13019339760E+02  0.30720530175E+02  0.22542494213E+02  0.40279253064E+02  0.10000000000E+01 0. -1.
    1000022    2    1    0    0    0 -0.25374203786E+02  0.47728511482E+02  0.29738676937E+02  0.62500001023E+02  0.10000009793E+02 0.  0.
    3000022    2    3    3    0    0 -0.12354864025E+02  0.17007981307E+02  0.71961827240E+01  0.22220747959E+02  0.25000169677E+00 0.  0.
    1000022    2    1    0    0    0  0.25374203786E+02 -0.47728511482E+02 -0.29738676937E+02  0.62499998977E+02  0.99999970010E+01 0.  0.
    3000022    2    5    5    0    0  0.15968934536E+02 -0.27646868777E+02 -0.22834732227E+02  0.39253581705E+02  0.24991477638E+00 0.  0.
        -13    1    4    4    0    0 -0.34418611001E+01  0.47934847499E+01  0.19957888257E+01  0.62304174753E+01  0.10500000000E+00 0.  1.
         13    1    4    4    0    0 -0.89130029250E+01  0.12214496557E+02  0.52003938983E+01  0.15990330484E+02  0.10500000000E+00 0. -1.
    3000001    1    5    5    0    0  0.94052692491E+01 -0.20081642706E+02 -0.69039447102E+01  0.23246417272E+02  0.10000000000E+01 0.  1.
        -13    1    6    6    0    0  0.82005077363E+01 -0.14257961959E+02 -0.11838110710E+02  0.20265480417E+02  0.10500000000E+00 0.  1.
         13    1    6    6    0    0  0.77684268002E+01 -0.13388906818E+02 -0.10996621517E+02  0.18988101288E+02  0.10500000000E+00 0. -1.
</event>
<event>
11    0  0.3476221E-009  0.9118800E+02  0.7816531E-02  0.1126479E+00
         25   -1    0    0    0    0  0.00000000000E+00  0.00000000000E+00  0.99999998245E-14  0.12500000000E+03  0.12500000000E+03 0.  0.
    3000001    1    3    3    0    0  0.97194633925E+01  0.47849787930E+01 -0.97996151604E+01  0.14642282881E+02  0.10000000000E+01 0.  1.
    1000022    2    1    0    0    0  0.33279051482E+02  0.79775297958E+01 -0.51333360134E+02  0.62499999457E+02  0.99999910167E+01 0.  0.
    3000022    2    3    3    0    0  0.23559588089E+02  0.31925510029E+01 -0.41533744974E+02  0.47857716576E+02  0.24998294977E+00 0.  0.
    1000022    2    1    0    0    0 -0.33279051482E+02 -0.79775297958E+01  0.51333360134E+02  0.62500000543E+02  0.99999978013E+01 0.  0.
    3000022    2    5    5    0    0 -0.10254684090E+02 -0.47607042197E+01  0.10141521665E+02  0.15189990851E+02  0.25001984163E+00 0.  0.
        -13    1    4    4    0    0  0.10636668718E+02  0.14096674571E+01 -0.18625972039E+02  0.21495668009E+02  0.10500000000E+00 0.  1.
         13    1    4    4    0    0  0.12922919371E+02  0.17828835458E+01 -0.22907772935E+02  0.26362048567E+02  0.10500000000E+00 0. -1.
    3000001    1    5    5    0    0 -0.23024367392E+02 -0.32168255761E+01  0.41191838469E+02  0.47310009691E+02  0.10000000000E+01 0. -1.
        -13    1    6    6    0    0 -0.76109018355E+01 -0.35663055818E+01  0.75415278158E+01  0.11292919421E+02  0.10500000000E+00 0. -1.
         13    1    6    6    0    0 -0.26437822543E+01 -0.11943986380E+01  0.25999938497E+01  0.38970714303E+01  0.10500000000E+00 0.  1.
</event>
<event>
11    0  0.3476221E-009  0.9118800E+02  0.7816531E-02  0.1126479E+00
         25   -1    0    0    0    0  0.00000000000E+00  0.00000000000E+00  0.99999998245E-14  0.12500000000E+03  0.12500000000E+03 0.  0.
    3000001    1    3    3    0    0  0.20097977528E+01  0.28425847412E+02  0.88987646037E+01  0.29870656163E+02  0.10000000000E+01 0.  1.
    1000022    2    1    0    0    0  0.68076577603E+01  0.60698890272E+02  0.86919720039E+01  0.62499999133E+02  0.10000001498E+02 0.  0.
    3000022    2    3    3    0    0  0.47978600075E+01  0.32273042859E+02 -0.20679259979E+00  0.32629342971E+02  0.25000694257E+00 0.  0.
    1000022    2    1    0    0    0 -0.68076577603E+01 -0.60698890272E+02 -0.86919720039E+01  0.62500000867E+02  0.10000012331E+02 0.  0.
    3000022    2    5    5    0    0 -0.19683382355E+00 -0.26807385538E+02 -0.78892137808E+01  0.27945963374E+02  0.25002383515E+00 0.  0.
        -13    1    4    4    0    0  0.37012715188E+01  0.24854893764E+02 -0.16019612567E+00  0.25129700410E+02  0.10500000000E+00 0. -1.
         13    1    4    4    0    0  0.10965884887E+01  0.74181490953E+01 -0.46596474123E-01  0.74996425611E+01  0.10500000000E+00 0.  1.
    3000001    1    5    5    0    0 -0.66108239368E+01 -0.33891504734E+02 -0.80275822312E+00  0.34554037492E+02  0.10000000000E+01 0.  1.
        -13    1    6    6    0    0 -0.80456113294E-01 -0.17911333332E+02 -0.52551666546E+01  0.18666819132E+02  0.10500000000E+00 0. -1.
         13    1    6    6    0    0 -0.11637771026E+00 -0.88960522053E+01 -0.26340471262E+01  0.92791442425E+01  0.10500000000E+00 0.  1.
</event>
<event>
11    0  0.3476221E-009  0.9118800E+02  0.7816531E-02  0.1126479E+00
         25   -1    0    0    0    0  0.00000000000E+00  0.00000000000E+00  0.99999998245E-14  0.12500000000E+03  0.12500000000E+03 0.  0.
    3000001    1    3    3    0    0 -0.42041355903E+02 -0.22887397560E+01  0.42388649493E+02  0.59753757552E+02  0.10000000000E+01 0. -1.
    1000022    2    1    0    0    0 -0.43327523090E+02 -0.43096382445E+01  0.43708152752E+02  0.62499999171E+02  0.10000002028E+02 0.  0.
    3000022    2    3    3    0    0 -0.12861671867E+01 -0.20208984885E+01  0.13195032593E+01  0.27462416189E+01  0.24999489029E+00 0.  0.
    1000022    2    1    0    0    0  0.43327523090E+02  0.43096382445E+01 -0.43708152752E+02  0.62500000829E+02  0.10000012386E+02 0.  0.
    3000022    2    5    5    0    0  0.74945546830E+01  0.20552027571E+01 -0.13450381204E+02  0.15536005649E+02  0.25001744171E+00 0.  0.
        -13    1    4    4    0    0 -0.82370411490E+00 -0.13171980494E+01  0.91692718576E+00  0.18070084766E+01  0.10500000000E+00 0.  1.
         13    1    4    4    0    0 -0.46246307179E+00 -0.70370043908E+00  0.40257607350E+00  0.93923314235E+00  0.10500000000E+00 0. -1.
    3000001    1    5    5    0    0  0.35832968407E+02  0.22544354875E+01 -0.30257771548E+02  0.46963995180E+02  0.10000000000E+01 0. -1.
        -13    1    6    6    0    0  0.34017118848E+01  0.98567044408E+00 -0.60430888406E+01  0.70052221740E+01  0.10500000000E+00 0. -1.
         13    1    6    6    0    0  0.40928427981E+01  0.10695323130E+01 -0.74072923631E+01  0.85307834746E+01  0.10500000000E+00 0.  1.
</event>
<event>
11    0  0.3476221E-009  0.9118800E+02  0.7816531E-02  0.1126479E+00
         25   -1    0    0    0    0  0.00000000000E+00  0.00000000000E+00  0.99999998245E-14  0.12500000000E+03  0.12500000000E+03 0.  0.
    3000001    1    3    3    0    0  0.50816344109E+01  0.13278604816E+02 -0.15114804126E+02  0.20775024859E+02  0.10000000000E+01 0. -1.
    1000022    2    1    0    0    0  0.22308236506E+01  0.36944927147E+02 -0.49359354310E+02  0.62500001250E+02  0.10000004112E+02 0.  0.
    3000022    2    3    3    0    0 -0.28508107602E+01  0.23666322331E+02 -0.34244550184E+02  0.41724976391E+02  0.25000555879E+00 0.  0.
    1000022    2    1    0    0    0 -0.22308236506E+01 -0.36944927147E+02  0.49359354310E+02  0.62499998750E+02  0.99999884883E+01 0.  0.
    3000022    2    5    5    0    0 -0.59549981829E+01 -0.26773943364E+02  0.36486901764E+02  0.45647152652E+02  0.24999648980E+00 0.  0.
        -13    1    4    4    0    0 -0.14070821298E+01  0.12190994729E+02 -0.17680997663E+02  0.21522753912E+02  0.10500000000E+00 0.  1.
         13    1    4    4    0    0 -0.14437286305E+01  0.11475327603E+02 -0.16563552521E+02  0.20202222478E+02  0.10500000000E+00 0. -1.
    3000001    1    5    5    0    0  0.37241745323E+01 -0.10170983783E+02  0.12872452546E+02  0.16852846098E+02  0.10000000000E+01 0. -1.
        -13    1    6    6    0    0 -0.15676089391E+01 -0.69292950221E+01  0.94805371423E+01  0.11847537162E+02  0.10500000000E+00 0.  1.
         13    1    6    6    0    0 -0.43873892438E+01 -0.19844648342E+02  0.27006364622E+02  0.33799615490E+02  0.10500000000E+00 0. -1.
</event>
<event>
11    0  0.3476221E-009  0.9118800E+02  0.7816531E-02  0.1126479E+00
         25   -1    0    0    0    0  0.00000000000E+00  0.00000000000E+00  0.99999998245E-14  0.12500000000E+03  0.12500000000E+03 0.  0.
    3000001    1    3    3    0    0  0.36894832313E+02  0.18097251354E+02 -0.38567868734E+02  0.56366831174E+02  0.10000000000E+01 0. -1.
    1000022    2    1    0    0    0  0.37960177494E+02  0.20464030990E+02 -0.44119141509E+02  0.62499998007E+02  0.99999731814E+01 0.  0.
    3000022    2    3    3    0    0  0.10653451814E+01  0.23667796363E+01 -0.55512727745E+01  0.61331668324E+01  0.24999954833E+00 0.  0.
    1000022    2    1    0    0    0 -0.37960177494E+02 -0.20464030990E+02  0.44119141509E+02  0.62500001993E+02  0.99999980976E+01 0.  0.
    3000022    2    5    5    0    0 -0.28301484263E+02 -0.14949931178E+02  0.26097216900E+02  0.41298930835E+02  0.25000889585E+00 0.  0.
        -13    1    4    4    0    0  0.67647112202E+00  0.13668598198E+01 -0.33301246344E+01  0.36642426266E+01  0.10500000000E+00 0. -1.
         13    1    4    4    0    0  0.38887405942E+00  0.99991981650E+00 -0.22211481401E+01  0.24689242057E+01  0.10500000000E+00 0.  1.
    3000001    1    5    5    0    0 -0.96586932311E+01 -0.55140998113E+01  0.18021924608E+02  0.21201071158E+02  0.10000000000E+01 0. -1.
        -13    1    6    6    0    0 -0.13400929060E+02 -0.71197620452E+01  0.12446390765E+02  0.19626501964E+02  0.10500000000E+00 0. -1.
         13    1    6    6    0    0 -0.14900555203E+02 -0.78301691332E+01  0.13650826136E+02  0.21672428871E+02  0.10500000000E+00 0.  1.
</event>
<event>
11    0  0.3476221E-009  0.9118800E+02  0.7816531E-02  0.1126479E+00
         25   -1    0    0    0    0  0.00000000000E+00  0.00000000000E+00  0.99999998245E-14  0.12500000000E+03  0.12500000000E+03 0.  0.
    3000001    1    3    3    0    0 -0.16256669058E+01  0.98940801072E+01  0.37474947377E+01  0.10750782802E+02  0.10000000000E+01 0. -1.
    1000022    2    1    0    0    0 -0.16176342891E+02  0.59512309874E+02  0.16913311893E+01  0.62499997336E+02  0.99999984966E+01 0.  0.
    3000022    2    3    3    0    0 -0.14550675985E+02  0.49618229767E+02 -0.20561635484E+01  0.51749214534E+02  0.24999895409E+00 0.  0.
    1000022    2    1    0    0    0  0.16176342891E+02 -0.59512309874E+02 -0.16913311893E+01  0.62500002664E+02  0.10000031796E+02 0.  0.
    3000022    2    5    5    0    0  0.10642177919E+02 -0.49977171932E+02 -0.37673111924E+01  0.51236986616E+02  0.24999744181E+00 0.  0.
        -13    1    4    4    0    0 -0.55368451314E+01  0.18776044519E+02 -0.83146850935E+00  0.19593337303E+02  0.10500000000E+00 0. -1.
         13    1    4    4    0    0 -0.90138308540E+01  0.30842185248E+02 -0.12246950390E+01  0.32155877231E+02  0.10500000000E+00 0.  1.
    3000001    1    5    5    0    0  0.55341649724E+01 -0.95351379419E+01  0.20759800031E+01  0.11263016048E+02  0.10000000000E+01 0. -1.
        -13    1    6    6    0    0  0.58392087618E+01 -0.27461919991E+02 -0.21362984917E+01  0.28157205202E+02  0.10500000000E+00 0.  1.
         13    1    6    6    0    0  0.48029691570E+01 -0.22515251941E+02 -0.16310127007E+01  0.23079781414E+02  0.10500000000E+00 0. -1.
</event>
<event>
11    0  0.3476221E-009  0.9118800E+02  0.7816531E-02  0.1126479E+00
         25   -1    0    0    0    0  0.00000000000E+00  0.00000000000E+00  0.99999998245E-14  0.12500000000E+03  0.12500000000E+03 0.  0.
    3000001    1    3    3    0    0  0.34139211304E+01 -0.77258557940E+00 -0.40289766221E+01  0.54299538289E+01  0.10000000000E+01 0.  1.
    1000022    2    1    0    0    0  0.12603559762E+02 -0.39898216158E+01 -0.60261774876E+02  0.62500000000E+02  0.10000004679E+02 0.  0.
    3000022    2    3    3    0    0  0.91896386317E+01 -0.32172360364E+01 -0.56232798254E+02  0.57070046171E+02  0.25000920804E+00 0.  0.
    1000022    2    1    0    0    0 -0.12603559762E+02  0.39898216158E+01  0.60261774876E+02  0.62500000000E+02  0.10000004678E+02 0.  0.
    3000022    2    5    5    0    0 -0.10350696560E+02  0.67655964846E+01  0.51863647911E+02  0.53318014634E+02  0.24998968381E+00 0.  0.
        -13    1    4    4    0    0  0.24407937060E+01 -0.82061513995E+00 -0.14941727088E+02  0.15162358540E+02  0.10500000000E+00 0.  1.
         13    1    4    4    0    0  0.67488449257E+01 -0.23966208965E+01 -0.41291071166E+02  0.41907687631E+02  0.10500000000E+00 0. -1.
    3000001    1    5    5    0    0 -0.22528632026E+01 -0.27757748687E+01  0.83981269654E+01  0.91819853658E+01  0.10000000000E+01 0. -1.
        -13    1    6    6    0    0 -0.51587289166E+01  0.32918251721E+01  0.25621604359E+02  0.26342479608E+02  0.10500000000E+00 0.  1.
         13    1    6    6    0    0 -0.51919676429E+01  0.34737713125E+01  0.26242043552E+02  0.26975535026E+02  0.10500000000E+00 0. -1.
</event>
<event>
11    0  0.3476221E-009  0.9118800E+02  0.7816531E-02  0.1126479E+00
         25   -1    0    0    0    0  0.00000000000E+00  0.00000000000E+00  0.99999998245E-14  0.12500000000E+03  0.12500000000E+03 0.  0.
    3000001    1    3    3    0    0  0.15700810093E+02 -0.52475404359E+01  0.70400049738E+01  0.18017041606E+02  0.10000000000E+01 0.  1.
    1000022    2    1    0    0    0  0.55655985041E+02 -0.29536974353E+01  0.26456323728E+02  0.62500000751E+02  0.10000001468E+02 0.  0.
    3000022    2    3    3    0    0  0.39955174948E+02  0.22938430006E+01  0.19416318754E+02  0.44482959145E+02  0.24999914602E+00 0.  0.
    1000022    2    1    0    0    0 -0.55655985041E+02  0.29536974353E+01 -0.26456323728E+02  0.62499999249E+02  0.99999920746E+01 0.  0.
    3000022    2    5    5    0    0 -0.10834455731E+02  0.10075714659E+01 -0.10560799721E+01  0.10935192657E+02  0.25000459603E+00 0.  0.
        -13    1    4    4    0    0  0.13577576926E+02  0.82459706918E+00  0.66340514780E+01  0.15134471234E+02  0.10500000000E+00 0.  1.
         13    1    4    4    0    0  0.26377598021E+02  0.14692459314E+01  0.12782267276E+02  0.29348487912E+02  0.10500000000E+00 0. -1.
    3000001    1    5    5    0    0 -0.44821529310E+02  0.19461259694E+01 -0.25400243756E+02  0.51564806591E+02  0.10000000000E+01 0.  1.
        -13    1    6    6    0    0 -0.50814234546E+01  0.40507293849E+00 -0.49956611005E+00  0.51230400846E+01  0.10500000000E+00 0.  1.
         13    1    6    6    0    0 -0.57530322764E+01  0.60249852743E+00 -0.55651386201E+00  0.58121525726E+01  0.10500000000E+00 0. -1.
</event>
<event>
11    0  0.3476221E-009  0.9118800E+02  0.7816531E-02  0.1126479E+00
         25   -1    0    0    0    0  0.00000000000E+00  0.00000000000E+00  0.99999998245E-14  0.12500000000E+03  0.12500000000E+03 0.  0.
    3000001    1    3    3    0    0  0.39192802297E+01 -0.10788132049E+02  0.29750455151E+02  0.31903512852E+02  0.10000000000E+01 0.  1.
    1000022    2    1    0    0    0 -0.14519739589E+01 -0.24026526375E+02  0.56805527957E+02  0.62499998322E+02  0.99999792873E+01 0.  0.
    3000022    2    3    3    0    0 -0.53712541886E+01 -0.13238394326E+02  0.27055072807E+02  0.30596485470E+02  0.25000533667E+00 0.  0.
    1000022    2    1    0    0    0  0.14519739589E+01  0.24026526375E+02 -0.56805527957E+02  0.62500001678E+02  0.10000000259E+02 0.  0.
    3000022    2    5    5    0    0  0.74297711881E+00  0.18910712671E+01 -0.15377560308E+02  0.15513221059E+02  0.25000212952E+00 0.  0.
        -13    1    4    4    0    0 -0.36708951514E+01 -0.90123686532E+01  0.18322727465E+02  0.20746846187E+02  0.10500000000E+00 0.  1.
         13    1    4    4    0    0 -0.17003590372E+01 -0.42260256732E+01  0.87323453419E+01  0.98496392836E+01  0.10500000000E+00 0. -1.
    3000001    1    5    5    0    0  0.70899684005E+00  0.22135455108E+02 -0.41427967650E+02  0.46986780619E+02  0.10000000000E+01 0. -1.
        -13    1    6    6    0    0  0.53382180151E+00  0.14212348161E+01 -0.11567362740E+02  0.11667038180E+02  0.10500000000E+00 0.  1.
         13    1    6    6    0    0  0.20915531731E+00  0.46983645100E+00 -0.38101975674E+01  0.38461828791E+01  0.10500000000E+00 0. -1.
</event>
<event>
11    0  0.3476221E-009  0.9118800E+02  0.7816531E-02  0.1126479E+00
         25   -1    0    0    0    0  0.00000000000E+00  0.00000000000E+00  0.99999998245E-14  0.12500000000E+03  0.12500000000E+03 0.  0.
    3000001    1    3    3    0    0  0.93977482981E+00  0.56650576877E+01  0.11058702241E+01  0.59328748755E+01  0.10000000000E+01 0.  1.
    1000022    2    1    0    0    0  0.25914830339E+02  0.54635141292E+02 -0.12234093382E+02  0.62499999695E+02  0.99999912754E+01 0.  0.
    3000022    2    3    3    0    0  0.24975055509E+02  0.48970083604E+02 -0.13339963607E+02  0.56567124819E+02  0.24999088103E+00 0.  0.
    1000022    2    1    0    0    0 -0.25914830339E+02 -0.54635141292E+02  0.12234093382E+02  0.62500000305E+02  0.99999950907E+01 0.  0.
    3000022    2    5    5    0    0 -0.19957472864E+02 -0.31841573357E+02  0.94962091941E+01  0.38761153301E+02  0.24999837130E+00 0.  0.
        -13    1    4    4    0    0  0.98723456392E+01  0.19264467493E+02 -0.52057677715E+01  0.22264185574E+02  0.10500000000E+00 0.  1.
         13    1    4    4    0    0  0.15102709870E+02  0.29705616111E+02 -0.81341958351E+01  0.34302939245E+02  0.10500000000E+00 0. -1.
    3000001    1    5    5    0    0 -0.59573574751E+01 -0.22793567934E+02  0.27378841883E+01  0.23738847004E+02  0.10000000000E+01 0. -1.
        -13    1    6    6    0    0 -0.88734003709E+01 -0.14077519505E+02  0.42577284222E+01  0.17177108775E+02  0.10500000000E+00 0.  1.
         13    1    6    6    0    0 -0.11084072493E+02 -0.17764053852E+02  0.52384807719E+01  0.21584044526E+02  0.10500000000E+00 0. -1.
</event>
<event>
11    0  0.3476221E-009  0.9118800E+02  0.7816531E-02  0.1126479E+00
         25   -1    0    0    0    0  0.00000000000E+00  0.00000000000E+00  0.99999998245E-14  0.12500000000E+03  0.12500000000E+03 0.  0.
    3000001    1    3    3    0    0  0.61536790719E+00 -0.21518121598E+01  0.12752733188E+01  0.27632038054E+01  0.10000000000E+01 0.  1.
    1000022    2    1    0    0    0 -0.22815574087E+02 -0.55954133871E+02  0.12443246920E+02  0.62500001442E+02  0.10000013405E+02 0.  0.
    3000022    2    3    3    0    0 -0.23430941995E+02 -0.53802321711E+02  0.11167973601E+02  0.59736797636E+02  0.24998642678E+00 0.  0.
    1000022    2    1    0    0    0  0.22815574087E+02  0.55954133871E+02 -0.12443246920E+02  0.62499998558E+02  0.99999953836E+01 0.  0.
    3000022    2    5    5    0    0  0.17648779132E+02  0.50704633763E+02 -0.12227023432E+02  0.55063616770E+02  0.24999988335E+00 0.  0.
        -13    1    4    4    0    0 -0.12155577534E+02 -0.28053192906E+02  0.57806085681E+01  0.31115368515E+02  0.10500000000E+00 0. -1.
         13    1    4    4    0    0 -0.11275364460E+02 -0.25749128805E+02  0.53873650332E+01  0.28621429121E+02  0.10500000000E+00 0.  1.
    3000001    1    5    5    0    0  0.51667949556E+01  0.52495001080E+01 -0.21622348772E+00  0.74363817878E+01  0.10000000000E+01 0.  1.
        -13    1    6    6    0    0  0.12455968397E+02  0.35656326032E+02 -0.86161048578E+01  0.38739811857E+02  0.10500000000E+00 0.  1.
         13    1    6    6    0    0  0.51928107350E+01  0.15048307731E+02 -0.36109185746E+01  0.16323804913E+02  0.10500000000E+00 0. -1.
</event>
<event>
11    0  0.3476221E-009  0.9118800E+02  0.7816531E-02  0.1126479E+00
         25   -1    0    0    0    0  0.00000000000E+00  0.00000000000E+00  0.99999998245E-14  0.12500000000E+03  0.12500000000E+03 0.  0.
    3000001    1    3    3    0    0  0.70294026049E+01 -0.25998914891E+01 -0.23210148228E+01  0.79094277002E+01  0.10000000000E+01 0. -1.
    1000022    2    1    0    0    0  0.47090760210E+02 -0.86759029736E+01 -0.38902945209E+02  0.62499998212E+02  0.99999820553E+01 0.  0.
    3000022    2    3    3    0    0  0.40061357605E+02 -0.60760114845E+01 -0.36581930386E+02  0.54590570512E+02  0.24993878152E+00 0.  0.
    1000022    2    1    0    0    0 -0.47090760210E+02  0.86759029736E+01  0.38902945209E+02  0.62500001788E+02  0.10000004400E+02 0.  0.
    3000022    2    5    5    0    0 -0.19962464302E+02  0.49320699955E+01  0.10720694074E+02  0.23190969705E+02  0.24999798510E+00 0.  0.
        -13    1    4    4    0    0  0.23727439051E+02 -0.36619280481E+01 -0.21658699326E+02  0.32334368131E+02  0.10500000000E+00 0.  1.
         13    1    4    4    0    0  0.16333918554E+02 -0.24140834364E+01 -0.14923231059E+02  0.22256202381E+02  0.10500000000E+00 0. -1.
    3000001    1    5    5    0    0 -0.27128295908E+02  0.37438329781E+01  0.28182251135E+02  0.39309032082E+02  0.10000000000E+01 0. -1.
        -13    1    6    6    0    0 -0.73967454442E+01  0.18031510441E+01  0.40311869131E+01  0.86153751969E+01  0.10500000000E+00 0. -1.
         13    1    6    6    0    0 -0.12565718858E+02  0.31289189514E+01  0.66895071609E+01  0.14575594508E+02  0.10500000000E+00 0.  1.
</event>
<event>
11    0  0.3476221E-009  0.9118800E+02  0.7816531E-02  0.1126479E+00
         25   -1    0    0    0    0  0.00000000000E+00  0.00000000000E+00  0.99999998245E-14  0.12500000000E+03  0.12500000000E+03 0.  0.
    3000001    1    3    3    0    0 -0.37025489024E+01 -0.36464780495E+02  0.41898693547E+02  0.55676652251E+02  0.10000000000E+01 0. -1.
    1000022    2    1    0    0    0 -0.63373519327E+01 -0.42136544107E+02  0.44616135986E+02  0.62500000590E+02  0.10000005228E+02 0.  0.
    3000022    2    3    3    0    0 -0.26348030303E+01 -0.56717636121E+01  0.27174424392E+01  0.68233483389E+01  0.24999932604E+00 0.  0.
    1000022    2    1    0    0    0  0.63373519327E+01  0.42136544107E+02 -0.44616135986E+02  0.62499999410E+02  0.99999978571E+01 0.  0.
    3000022    2    5    5    0    0  0.99972477944E+00  0.32160895416E+02 -0.30031934797E+02  0.44014795739E+02  0.24998545352E+00 0.  0.
        -13    1    4    4    0    0 -0.11300773006E+01 -0.24521765830E+01  0.11025163276E+01  0.29183577492E+01  0.10500000000E+00 0. -1.
         13    1    4    4    0    0 -0.15047257297E+01 -0.32195870291E+01  0.16149261117E+01  0.39049905897E+01  0.10500000000E+00 0.  1.
    3000001    1    5    5    0    0  0.53376271533E+01  0.99756486917E+01 -0.14584201189E+02  0.18485203671E+02  0.10000000000E+01 0. -1.
        -13    1    6    6    0    0  0.26069647575E+00  0.95625702569E+01 -0.88927867552E+01  0.13061523412E+02  0.10500000000E+00 0.  1.
         13    1    6    6    0    0  0.73902830369E+00  0.22598325159E+02 -0.21139148042E+02  0.30953272327E+02  0.10500000000E+00 0. -1.
</event>
<event>
11    0  0.3476221E-009  0.9118800E+02  0.7816531E-02  0.1126479E+00
         25   -1    0    0    0    0  0.00000000000E+00  0.00000000000E+00  0.99999998245E-14  0.12500000000E+03  0.12500000000E+03 0.  0.
    3000001    1    3    3    0    0  0.14116458383E+02  0.23628657109E+02 -0.21564615864E+01  0.27626765294E+02  0.10000000000E+01 0.  1.
    1000022    2    1    0    0    0  0.34964043012E+02  0.50543443463E+02  0.53968466754E+01  0.62499999534E+02  0.10000000345E+02 0.  0.
    3000022    2    3    3    0    0  0.20847584629E+02  0.26914786354E+02  0.75533082618E+01  0.34873234240E+02  0.24998261960E+00 0.  0.
    1000022    2    1    0    0    0 -0.34964043012E+02 -0.50543443463E+02 -0.53968466754E+01  0.62500000466E+02  0.10000006167E+02 0.  0.
    3000022    2    5    5    0    0 -0.19750370259E+02 -0.30188825298E+02 -0.79456078809E+01  0.36941000036E+02  0.25000166028E+00 0.  0.
        -13    1    4    4    0    0  0.12165115709E+02  0.15691331087E+02  0.44705469134E+01  0.20352020199E+02  0.10500000000E+00 0.  1.
         13    1    4    4    0    0  0.86824689202E+01  0.11223455268E+02  0.30827613484E+01  0.14521214041E+02  0.10500000000E+00 0. -1.
    3000001    1    5    5    0    0 -0.15213672753E+02 -0.20354618165E+02  0.25487612055E+01  0.25559000430E+02  0.10000000000E+01 0. -1.
        -13    1    6    6    0    0 -0.95817513350E+01 -0.14556769857E+02 -0.38863806152E+01  0.17855656991E+02  0.10500000000E+00 0.  1.
         13    1    6    6    0    0 -0.10168618924E+02 -0.15632055441E+02 -0.40592272657E+01  0.19085343044E+02  0.10500000000E+00 0. -1.
</event>
<event>
11    0  0.3476221E-009  0.9118800E+02  0.7816531E-02  0.1126479E+00
         25   -1    0    0    0    0  0.00000000000E+00  0.00000000000E+00  0.99999998245E-14  0.12500000000E+03  0.12500000000E+03 0.  0.
    3000001    1    3    3    0    0  0.28006043869E+01 -0.92087720549E+01 -0.23899471023E+01  0.99677838481E+01  0.10000000000E+01 0. -1.
    1000022    2    1    0    0    0  0.34641369452E+02 -0.50990681239E+02 -0.24851522337E+01  0.62500000776E+02  0.10000003232E+02 0.  0.
    3000022    2    3    3    0    0  0.31840765065E+02 -0.41781909184E+02 -0.95205131352E-01  0.52532216928E+02  0.24999267665E+00 0.  0.
    1000022    2    1    0    0    0 -0.34641369452E+02  0.50990681239E+02  0.24851522337E+01  0.62499999224E+02  0.99999935263E+01 0.  0.
    3000022    2    5    5    0    0 -0.21090878072E+02  0.22616956608E+02  0.26614674598E+01  0.31040260618E+02  0.25001220062E+00 0.  0.
        -13    1    4    4    0    0  0.18983807125E+02 -0.24922374746E+02  0.62251497482E-02  0.31329231713E+02  0.10500000000E+00 0.  1.
         13    1    4    4    0    0  0.12856957940E+02 -0.16859534438E+02 -0.10143028110E+00  0.21202985216E+02  0.10500000000E+00 0. -1.
    3000001    1    5    5    0    0 -0.13550491380E+02  0.28373724631E+02 -0.17631522614E+00  0.31459738606E+02  0.10000000000E+01 0.  1.
        -13    1    6    6    0    0 -0.85254820821E+01  0.92124572621E+01  0.11224013034E+01  0.12602540348E+02  0.10500000000E+00 0.  1.
         13    1    6    6    0    0 -0.12565395990E+02  0.13404499346E+02  0.15390661564E+01  0.18437720270E+02  0.10500000000E+00 0. -1.
</event>
<event>
11    0  0.3476221E-009  0.9118800E+02  0.7816531E-02  0.1126479E+00
         25   -1    0    0    0    0  0.00000000000E+00  0.00000000000E+00  0.99999998245E-14  0.12500000000E+03  0.12500000000E+03 0.  0.
    3000001    1    3    3    0    0  0.16685415469E+02 -0.34114447910E+02  0.11639063369E+02  0.39732435637E+02  0.10000000000E+01 0. -1.
    1000022    2    1    0    0    0  0.19075511439E+02 -0.55193554078E+02  0.19900915716E+02  0.62499999836E+02  0.99999992333E+01 0.  0.
    3000022    2    3    3    0    0  0.23900959703E+01 -0.21079106169E+02  0.82618523467E+01  0.22767564199E+02  0.24999943704E+00 0.  0.
    1000022    2    1    0    0    0 -0.19075511439E+02  0.55193554078E+02 -0.19900915716E+02  0.62500000164E+02  0.10000001285E+02 0.  0.
    3000022    2    5    5    0    0 -0.10047119152E+02  0.41377252798E+02 -0.16186010726E+02  0.45552948283E+02  0.25000343275E+00 0.  0.
        -13    1    4    4    0    0  0.18156527724E+01 -0.15774314106E+02  0.61788846719E+01  0.17038639068E+02  0.10500000000E+00 0.  1.
         13    1    4    4    0    0  0.57444319795E+00 -0.53047920631E+01  0.20829676748E+01  0.57289251308E+01  0.10500000000E+00 0. -1.
    3000001    1    5    5    0    0 -0.90283922875E+01  0.13816301280E+02 -0.37149049903E+01  0.16947051881E+02  0.10000000000E+01 0.  1.
        -13    1    6    6    0    0 -0.51004121879E+01  0.21112591598E+02 -0.81892605949E+01  0.23212728029E+02  0.10500000000E+00 0. -1.
         13    1    6    6    0    0 -0.49467069637E+01  0.20264661200E+02 -0.79967501309E+01  0.22340220254E+02  0.10500000000E+00 0.  1.
</event>
<event>
11    0  0.3476221E-009  0.9118800E+02  0.7816531E-02  0.1126479E+00
         25   -1    0    0    0    0  0.00000000000E+00  0.00000000000E+00  0.99999998245E-14  0.12500000000E+03  0.12500000000E+03 0.  0.
    3000001    1    3    3    0    0  0.62584389688E+01 -0.19553637102E+02 -0.17603024356E+02  0.27062506327E+02  0.10000000000E+01 0.  1.
    1000022    2    1    0    0    0  0.20040944766E+02 -0.49035744610E+02 -0.31624471738E+02  0.62499995173E+02  0.99999233663E+01 0.  0.
    3000022    2    3    3    0    0  0.13782505797E+02 -0.29482107508E+02 -0.14021447383E+02  0.35437488846E+02  0.24999966323E+00 0.  0.
    1000022    2    1    0    0    0 -0.20040944766E+02  0.49035744610E+02  0.31624471738E+02  0.62500004827E+02  0.99999837023E+01 0.  0.
    3000022    2    5    5    0    0 -0.33010868501E+01  0.21569670298E+01  0.11067151637E+01  0.41032917617E+01  0.25000733578E+00 0.  0.
        -13    1    4    4    0    0  0.10142335422E+02 -0.21640400101E+02 -0.10269287283E+02  0.26012365725E+02  0.10500000000E+00 0.  1.
         13    1    4    4    0    0  0.36401703745E+01 -0.78417074075E+01 -0.37521600998E+01  0.94251231204E+01  0.10500000000E+00 0. -1.
    3000001    1    5    5    0    0 -0.16739857915E+02  0.46878777580E+02  0.30517756575E+02  0.58396713065E+02  0.10000000000E+01 0.  1.
        -13    1    6    6    0    0 -0.10600055476E+01  0.74942178889E+00  0.38851522276E+00  0.13591224584E+01  0.10500000000E+00 0.  1.
         13    1    6    6    0    0 -0.22410813026E+01  0.14075452409E+01  0.71819994093E+00  0.27441693033E+01  0.10500000000E+00 0. -1.
</event>
<event>
11    0  0.3476221E-009  0.9118800E+02  0.7816531E-02  0.1126479E+00
         25   -1    0    0    0    0  0.00000000000E+00  0.00000000000E+00  0.99999998245E-14  0.12500000000E+03  0.12500000000E+03 0.  0.
    3000001    1    3    3    0    0 -0.35487822256E+02 -0.13410634892E+01  0.29499149874E+02  0.46177741641E+02  0.10000000000E+01 0. -1.
    1000022    2    1    0    0    0 -0.43970655290E+02 -0.47766943139E+01  0.43011795331E+02  0.62499999678E+02  0.10000004346E+02 0.  0.
    3000022    2    3    3    0    0 -0.84828330339E+01 -0.34356308247E+01  0.13512645458E+02  0.16322258037E+02  0.25000945864E+00 0.  0.
    1000022    2    1    0    0    0  0.43970655290E+02  0.47766943139E+01 -0.43011795331E+02  0.62500000322E+02  0.10000008372E+02 0.  0.
    3000022    2    5    5    0    0  0.37902844646E+02  0.46786681358E+01 -0.31737923670E+02  0.49657566075E+02  0.25000369524E+00 0.  0.
        -13    1    4    4    0    0 -0.51020163010E+01 -0.21131100509E+01  0.82329236417E+01  0.99140234573E+01  0.10500000000E+00 0. -1.
         13    1    4    4    0    0 -0.33808167329E+01 -0.13225207738E+01  0.52797218159E+01  0.64082345799E+01  0.10500000000E+00 0.  1.
    3000001    1    5    5    0    0  0.60678106435E+01  0.98026178083E-01 -0.11273871662E+02  0.12842434247E+02  0.10000000000E+01 0.  1.
        -13    1    6    6    0    0  0.15109303159E+02  0.19261231440E+01 -0.12636013082E+02  0.19790928324E+02  0.10500000000E+00 0. -1.
         13    1    6    6    0    0  0.22793541487E+02  0.27525449918E+01 -0.19101910588E+02  0.29866637751E+02  0.10500000000E+00 0.  1.
</event>
<event>
11    0  0.3476221E-009  0.9118800E+02  0.7816531E-02  0.1126479E+00
         25   -1    0    0    0    0  0.00000000000E+00  0.00000000000E+00  0.99999998245E-14  0.12500000000E+03  0.12500000000E+03 0.  0.
    3000001    1    3    3    0    0 -0.78406986335E+01 -0.11443031496E+02  0.11072523241E+02  0.17776959690E+02  0.10000000000E+01 0. -1.
    1000022    2    1    0    0    0 -0.39977192012E+02 -0.35479186609E+02  0.30810732465E+02  0.62500000362E+02  0.10000012332E+02 0.  0.
    3000022    2    3    3    0    0 -0.32136493378E+02 -0.24036155113E+02  0.19738209224E+02  0.44723040673E+02  0.25000872574E+00 0.  0.
    1000022    2    1    0    0    0  0.39977192012E+02  0.35479186609E+02 -0.30810732465E+02  0.62499999638E+02  0.10000007803E+02 0.  0.
    3000022    2    5    5    0    0  0.21156567294E+02  0.12312100640E+02 -0.14964432425E+02  0.28691198830E+02  0.24998135110E+00 0.  0.
        -13    1    4    4    0    0 -0.19541917349E+02 -0.14542388600E+02  0.11958678945E+02  0.27136481478E+02  0.10500000000E+00 0.  1.
         13    1    4    4    0    0 -0.12594576029E+02 -0.94937665132E+01  0.77795302793E+01  0.17586559195E+02  0.10500000000E+00 0. -1.
    3000001    1    5    5    0    0  0.18820624718E+02  0.23167085970E+02 -0.15846300040E+02  0.33808800808E+02  0.10000000000E+01 0.  1.
        -13    1    6    6    0    0  0.95633413050E+01  0.56182015901E+01 -0.67234841300E+01  0.12970657264E+02  0.10500000000E+00 0. -1.
         13    1    6    6    0    0  0.11593225989E+02  0.66938990496E+01 -0.82409482949E+01  0.15720541565E+02  0.10500000000E+00 0.  1.
</event>
<event>
11    0  0.3476221E-009  0.9118800E+02  0.7816531E-02  0.1126479E+00
         25   -1    0    0    0    0  0.00000000000E+00  0.00000000000E+00  0.99999998245E-14  0.12500000000E+03  0.12500000000E+03 0.  0.
    3000001    1    3    3    0    0  0.37153193907E+02  0.28475673270E+01 -0.68451353109E+01  0.37898869832E+02  0.10000000000E+01 0.  1.
    1000022    2    1    0    0    0  0.61007511966E+02  0.82059587396E+01 -0.41225884541E+01  0.62500000036E+02  0.99999996902E+01 0.  0.
    3000022    2    3    3    0    0  0.23854318059E+02  0.53583914127E+01  0.27225468569E+01  0.24601130203E+02  0.24999458656E+00 0.  0.
    1000022    2    1    0    0    0 -0.61007511966E+02 -0.82059587396E+01  0.41225884541E+01  0.62499999964E+02  0.99999992424E+01 0.  0.
    3000022    2    5    5    0    0 -0.22355268133E+02 -0.37799775894E+01  0.62644354638E+01  0.23523433016E+02  0.25001059191E+00 0.  0.
        -13    1    4    4    0    0  0.71020879728E+01  0.15591876244E+01  0.83803497185E+00  0.73201125152E+01  0.10500000000E+00 0. -1.
         13    1    4    4    0    0  0.16752230087E+02  0.37992037882E+01  0.18845118850E+01  0.17281017688E+02  0.10500000000E+00 0.  1.
    3000001    1    5    5    0    0 -0.38652243833E+02 -0.44259811502E+01 -0.21418470098E+01  0.38976566948E+02  0.10000000000E+01 0. -1.
        -13    1    6    6    0    0 -0.75046723608E+01 -0.13231345483E+01  0.21140866480E+01  0.79089303721E+01  0.10500000000E+00 0. -1.
         13    1    6    6    0    0 -0.14850595773E+02 -0.24568430411E+01  0.41503488159E+01  0.15614502644E+02  0.10500000000E+00 0.  1.
</event>
<event>
11    0  0.3476221E-009  0.9118800E+02  0.7816531E-02  0.1126479E+00
         25   -1    0    0    0    0  0.00000000000E+00  0.00000000000E+00  0.99999998245E-14  0.12500000000E+03  0.12500000000E+03 0.  0.
    3000001    1    3    3    0    0 -0.65460973561E+01  0.34975835441E+02  0.29303355067E+02  0.46106909173E+02  0.10000000000E+01 0. -1.
    1000022    2    1    0    0    0 -0.14350796121E+02  0.45192229692E+02  0.39471090557E+02  0.62499999679E+02  0.99999998154E+01 0.  0.
    3000022    2    3    3    0    0 -0.78046987654E+01  0.10216394251E+02  0.10167735491E+02  0.16393090506E+02  0.25007402030E+00 0.  0.
    1000022    2    1    0    0    0  0.14350796121E+02 -0.45192229692E+02 -0.39471090557E+02  0.62500000321E+02  0.10000003822E+02 0.  0.
    3000022    2    5    5    0    0  0.33178300343E+01 -0.14810632367E+02 -0.18614615485E+02  0.24019351299E+02  0.24999983754E+00 0.  0.
        -13    1    4    4    0    0 -0.36588593119E+01  0.47155371687E+01  0.47842647247E+01  0.76500821048E+01  0.10500000000E+00 0.  1.
         13    1    4    4    0    0 -0.41458394535E+01  0.55008570824E+01  0.53834707662E+01  0.87430084013E+01  0.10500000000E+00 0. -1.
    3000001    1    5    5    0    0  0.11032966087E+02 -0.30381597324E+02 -0.20856475072E+02  0.38480649021E+02  0.10000000000E+01 0.  1.
        -13    1    6    6    0    0  0.14080977546E+01 -0.60061204503E+01 -0.75942337286E+01  0.97846631559E+01  0.10500000000E+00 0.  1.
         13    1    6    6    0    0  0.19097322797E+01 -0.88045119170E+01 -0.11020381756E+02  0.14234688143E+02  0.10500000000E+00 0. -1.
</event>
<event>
11    0  0.3476221E-009  0.9118800E+02  0.7816531E-02  0.1126479E+00
         25   -1    0    0    0    0  0.00000000000E+00  0.00000000000E+00  0.99999998245E-14  0.12500000000E+03  0.12500000000E+03 0.  0.
    3000001    1    3    3    0    0  0.10245938829E+02  0.18258586966E+01  0.72884418591E+01  0.12744975763E+02  0.10000000000E+01 0. -1.
    1000022    2    1    0    0    0  0.39819771714E+02 -0.26385722796E+01  0.47049695183E+02  0.62500000627E+02  0.99999989274E+01 0.  0.
    3000022    2    3    3    0    0  0.29573832885E+02 -0.44644309762E+01  0.39761253324E+02  0.49755024864E+02  0.24999576595E+00 0.  0.
    1000022    2    1    0    0    0 -0.39819771714E+02  0.26385722796E+01 -0.47049695183E+02  0.62499999373E+02  0.99999910874E+01 0.  0.
    3000022    2    5    5    0    0 -0.23902743277E+02 -0.27589979457E+01 -0.30958472397E+02  0.39210237473E+02  0.25000739064E+00 0.  0.
        -13    1    4    4    0    0  0.17554311445E+02 -0.25879049694E+01  0.23617002409E+02  0.29540225629E+02  0.10500000000E+00 0.  1.
         13    1    4    4    0    0  0.12019521440E+02 -0.18765260068E+01  0.16144250915E+02  0.20214799235E+02  0.10500000000E+00 0. -1.
    3000001    1    5    5    0    0 -0.15917028437E+02  0.53975702254E+01 -0.16091222786E+02  0.23289761900E+02  0.10000000000E+01 0. -1.
        -13    1    6    6    0    0 -0.72771596111E+01 -0.83368706035E+00 -0.93490635085E+01  0.11877209252E+02  0.10500000000E+00 0. -1.
         13    1    6    6    0    0 -0.16625583666E+02 -0.19253108854E+01 -0.21609408888E+02  0.27333028221E+02  0.10500000000E+00 0.  1.
</event>
<event>
11    0  0.3476221E-009  0.9118800E+02  0.7816531E-02  0.1126479E+00
         25   -1    0    0    0    0  0.00000000000E+00  0.00000000000E+00  0.99999998245E-14  0.12500000000E+03  0.12500000000E+03 0.  0.
    3000001    1    3    3    0    0  0.70909935503E+01 -0.42749632420E+01  0.10788996464E+01  0.84096090693E+01  0.10000000000E+01 0.  1.
    1000022    2    1    0    0    0  0.46268275725E+02 -0.38092444586E+02 -0.14644534987E+02  0.62499999911E+02  0.99999955373E+01 0.  0.
    3000022    2    3    3    0    0  0.39177282175E+02 -0.33817481344E+02 -0.15723434634E+02  0.54090390842E+02  0.25000331334E+00 0.  0.
    1000022    2    1    0    0    0 -0.46268275725E+02  0.38092444586E+02  0.14644534987E+02  0.62500000089E+02  0.99999966523E+01 0.  0.
    3000022    2    5    5    0    0 -0.71416769259E+01  0.31868674310E+01  0.46838405530E+01  0.91192405992E+01  0.25002688601E+00 0.  0.
        -13    1    4    4    0    0  0.28260469388E+02 -0.24393846951E+02 -0.11300935028E+02  0.39005590069E+02  0.10500000000E+00 0. -1.
         13    1    4    4    0    0  0.10916812787E+02 -0.94236343931E+01 -0.44224996061E+01  0.15084800773E+02  0.10500000000E+00 0.  1.
    3000001    1    5    5    0    0 -0.39126598799E+02  0.34905577155E+02  0.99606944343E+01  0.53380759490E+02  0.10000000000E+01 0. -1.
        -13    1    6    6    0    0 -0.29389790965E+01  0.12644655118E+01  0.19716900345E+01  0.37596619199E+01  0.10500000000E+00 0.  1.
         13    1    6    6    0    0 -0.42026978293E+01  0.19224019193E+01  0.27121505185E+01  0.53595786792E+01  0.10500000000E+00 0. -1.
</event>
<event>
11    0  0.3476221E-009  0.9118800E+02  0.7816531E-02  0.1126479E+00
         25   -1    0    0    0    0  0.00000000000E+00  0.00000000000E+00  0.99999998245E-14  0.12500000000E+03  0.12500000000E+03 0.  0.
    3000001    1    3    3    0    0 -0.15451946969E+02  0.71550176424E+01  0.41174847765E+02  0.44568206505E+02  0.10000000000E+01 0.  1.
    1000022    2    1    0    0    0 -0.26392031819E+02  0.12447640731E+02  0.54357768118E+02  0.62499999640E+02  0.99999948465E+01 0.  0.
    3000022    2    3    3    0    0 -0.10940084850E+02  0.52926230885E+01  0.13182920353E+02  0.17931793135E+02  0.25000065276E+00 0.  0.
    1000022    2    1    0    0    0  0.26392031819E+02 -0.12447640731E+02 -0.54357768118E+02  0.62500000360E+02  0.99999993412E+01 0.  0.
    3000022    2    5    5    0    0  0.25688946757E+02 -0.90749640869E+01 -0.47437627678E+02  0.54705282914E+02  0.25000053167E+00 0.  0.
        -13    1    4    4    0    0 -0.74341629185E+01  0.36406626684E+01  0.90240736339E+01  0.12246066018E+02  0.10500000000E+00 0. -1.
         13    1    4    4    0    0 -0.35059219312E+01  0.16519604201E+01  0.41588467193E+01  0.56857271172E+01  0.10500000000E+00 0.  1.
    3000001    1    5    5    0    0  0.70308506212E+00 -0.33726766440E+01 -0.69201404401E+01  0.77947174458E+01  0.10000000000E+01 0.  1.
        -13    1    6    6    0    0  0.12738918306E+02 -0.45186299934E+01 -0.23666217727E+02  0.27254338061E+02  0.10500000000E+00 0.  1.
         13    1    6    6    0    0  0.12950028451E+02 -0.45563340935E+01 -0.23771409951E+02  0.27450944853E+02  0.10500000000E+00 0. -1.
</event>
<event>
11    0  0.3476221E-009  0.9118800E+02  0.7816531E-02  0.1126479E+00
         25   -1    0    0    0    0  0.00000000000E+00  0.00000000000E+00  0.99999998245E-14  0.12500000000E+03  0.12500000000E+03 0.  0.
    3000001    1    3    3    0    0 -0.81571312975E+01 -0.54509908643E+01  0.36920271128E+02  0.38214637412E+02  0.10000000000E+01 0.  1.
    1000022    2    1    0    0    0 -0.59710532870E+01 -0.11757544182E+02  0.60269043481E+02  0.62500008065E+02  0.10000004178E+02 0.  0.
    3000022    2    3    3    0    0  0.21860780105E+01 -0.63065533173E+01  0.23348772353E+02  0.24285370653E+02  0.25001111264E+00 0.  0.
    1000022    2    1    0    0    0  0.59710532870E+01  0.11757544182E+02 -0.60269043481E+02  0.62499991935E+02  0.99999033600E+01 0.  0.
    3000022    2    5    5    0    0  0.26890969463E+01  0.48047430471E+01 -0.45377226149E+02  0.45710742264E+02  0.25001455541E+00 0.  0.
        -13    1    4    4    0    0  0.13853174333E+01 -0.38308328677E+01  0.14354149260E+02  0.14921360891E+02  0.10500000000E+00 0. -1.
         13    1    4    4    0    0  0.80076057714E+00 -0.24757204496E+01  0.89946230928E+01  0.93640097622E+01  0.10500000000E+00 0.  1.
    3000001    1    5    5    0    0  0.32819563407E+01  0.69528011346E+01 -0.14891817332E+02  0.16789249670E+02  0.10000000000E+01 0.  1.
        -13    1    6    6    0    0  0.88186968040E+00  0.16260736000E+01 -0.15658049746E+02  0.15767287539E+02  0.10500000000E+00 0.  1.
         13    1    6    6    0    0  0.18072272659E+01  0.31786694471E+01 -0.29719176403E+02  0.29943454725E+02  0.10500000000E+00 0. -1.
</event>
<event>
11    0  0.3476221E-009  0.9118800E+02  0.7816531E-02  0.1126479E+00
         25   -1    0    0    0    0  0.00000000000E+00  0.00000000000E+00  0.99999998245E-14  0.12500000000E+03  0.12500000000E+03 0.  0.
    3000001    1    3    3    0    0  0.71193982811E+01  0.17191936122E+02  0.30968635578E+02  0.36142840081E+02  0.10000000000E+01 0.  1.
    1000022    2    1    0    0    0  0.46642065558E+01  0.26648477357E+02  0.55446856131E+02  0.62500000596E+02  0.10000002572E+02 0.  0.
    3000022    2    3    3    0    0 -0.24551917254E+01  0.94565412347E+01  0.24478220553E+02  0.26357160515E+02  0.24998094233E+00 0.  0.
    1000022    2    1    0    0    0 -0.46642065558E+01 -0.26648477357E+02 -0.55446856131E+02  0.62499999404E+02  0.99999951192E+01 0.  0.
    3000022    2    5    5    0    0 -0.31713314625E+01 -0.23012853041E+02 -0.52723762718E+02  0.57615157753E+02  0.24999888966E+00 0.  0.
        -13    1    4    4    0    0 -0.68701751764E+00  0.28235255948E+01  0.73014869291E+01  0.78592001012E+01  0.10500000000E+00 0. -1.
         13    1    4    4    0    0 -0.17681742077E+01  0.66330156399E+01  0.17176733624E+02  0.18497960414E+02  0.10500000000E+00 0.  1.
    3000001    1    5    5    0    0 -0.14928750932E+01 -0.36356243164E+01 -0.27230934129E+01  0.48848416504E+01  0.10000000000E+01 0. -1.
        -13    1    6    6    0    0 -0.14248699351E+01 -0.10679792218E+02 -0.24333200161E+02  0.26612100091E+02  0.10500000000E+00 0.  1.
         13    1    6    6    0    0 -0.17464615274E+01 -0.12333060822E+02 -0.28390562557E+02  0.31003057663E+02  0.10500000000E+00 0. -1.
</event>
<event>
11    0  0.3476221E-009  0.9118800E+02  0.7816531E-02  0.1126479E+00
         25   -1    0    0    0    0  0.00000000000E+00  0.00000000000E+00  0.99999998245E-14  0.12500000000E+03  0.12500000000E+03 0.  0.
    3000001    1    3    3    0    0 -0.10467651053E+02 -0.62505593009E+01 -0.25443847108E+01  0.12494602982E+02  0.10000000000E+01 0. -1.
    1000022    2    1    0    0    0 -0.42309895969E+02 -0.34127222691E+02 -0.29179706910E+02  0.62500000819E+02  0.10000009079E+02 0.  0.
    3000022    2    3    3    0    0 -0.31842244917E+02 -0.27876663390E+02 -0.26635322199E+02  0.50005397837E+02  0.25000223065E+00 0.  0.
    1000022    2    1    0    0    0  0.42309895969E+02  0.34127222691E+02  0.29179706910E+02  0.62499999181E+02  0.99999988384E+01 0.  0.
    3000022    2    5    5    0    0  0.18113759400E+02  0.15649595843E+02  0.74109398841E+01  0.25059981331E+02  0.25000936988E+00 0.  0.
        -13    1    4    4    0    0 -0.16949915047E+02 -0.14923080278E+02 -0.14185910419E+02  0.26669252418E+02  0.10500000000E+00 0. -1.
         13    1    4    4    0    0 -0.14892329870E+02 -0.12953583111E+02 -0.12449411780E+02  0.23336145419E+02  0.10500000000E+00 0.  1.
    3000001    1    5    5    0    0  0.24196136569E+02  0.18477626848E+02  0.21768767026E+02  0.37440017850E+02  0.10000000000E+01 0. -1.
        -13    1    6    6    0    0  0.78751643578E+01  0.67197959180E+01  0.32222851786E+01  0.10842878659E+02  0.10500000000E+00 0.  1.
         13    1    6    6    0    0  0.10238595042E+02  0.89297999250E+01  0.41886547055E+01  0.14217102672E+02  0.10500000000E+00 0. -1.
</event>
<event>
11    0  0.3476221E-009  0.9118800E+02  0.7816531E-02  0.1126479E+00
         25   -1    0    0    0    0  0.00000000000E+00  0.00000000000E+00  0.99999998245E-14  0.12500000000E+03  0.12500000000E+03 0.  0.
    3000001    1    3    3    0    0  0.14036890360E+02  0.32395395816E+02 -0.26332091576E+02  0.44055362986E+02  0.10000000000E+01 0. -1.
    1000022    2    1    0    0    0  0.13676821902E+02  0.47429677576E+02 -0.37008374612E+02  0.62500004732E+02  0.10000051391E+02 0.  0.
    3000022    2    3    3    0    0 -0.36006845762E+00  0.15034281759E+02 -0.10676283036E+02  0.18444641746E+02  0.25002472725E+00 0.  0.
    1000022    2    1    0    0    0 -0.13676821902E+02 -0.47429677576E+02  0.37008374612E+02  0.62499995268E+02  0.99999922367E+01 0.  0.
    3000022    2    5    5    0    0 -0.14192592461E+02 -0.37992355264E+02  0.27148525128E+02  0.48805262574E+02  0.24999810543E+00 0.  0.
        -13    1    4    4    0    0 -0.12394860241E+00  0.72757132137E+01 -0.52215190062E+01  0.89569331669E+01  0.10500000000E+00 0.  1.
         13    1    4    4    0    0 -0.23611985521E+00  0.77585685456E+01 -0.54547640298E+01  0.94877085792E+01  0.10500000000E+00 0. -1.
    3000001    1    5    5    0    0  0.51577055916E+00 -0.94373223117E+01  0.98598494846E+01  0.13694732693E+02  0.10000000000E+01 0. -1.
        -13    1    6    6    0    0 -0.78940054855E+01 -0.21166164609E+02  0.15043352319E+02  0.27141026526E+02  0.10500000000E+00 0.  1.
         13    1    6    6    0    0 -0.62985869759E+01 -0.16826190655E+02  0.12105172809E+02  0.21664236049E+02  0.10500000000E+00 0. -1.
</event>
<event>
11    0  0.3476221E-009  0.9118800E+02  0.7816531E-02  0.1126479E+00
         25   -1    0    0    0    0  0.00000000000E+00  0.00000000000E+00  0.99999998245E-14  0.12500000000E+03  0.12500000000E+03 0.  0.
    3000001    1    3    3    0    0 -0.10535157374E+02  0.18313709300E+02  0.55360434377E+02  0.59263472592E+02  0.10000000000E+01 0.  1.
    1000022    2    1    0    0    0 -0.11637825135E+02  0.17078830198E+02  0.58130238666E+02  0.62500001648E+02  0.10000007191E+02 0.  0.
    3000022    2    3    3    0    0 -0.11026677603E+01 -0.12348791016E+01  0.27698042888E+01  0.32365290561E+01  0.25000389482E+00 0.  0.
    1000022    2    1    0    0    0  0.11637825135E+02 -0.17078830198E+02 -0.58130238666E+02  0.62499998352E+02  0.99999865964E+01 0.  0.
    3000022    2    5    5    0    0  0.11648129528E+02 -0.90162021505E+01 -0.40220743926E+02  0.42833883356E+02  0.24999737685E+00 0.  0.
        -13    1    4    4    0    0 -0.42935477040E+00 -0.55707506053E+00  0.12572661189E+01  0.14444449577E+01  0.10500000000E+00 0. -1.
         13    1    4    4    0    0 -0.67331298991E+00 -0.67780404105E+00  0.15125381699E+01  0.17920840984E+01  0.10500000000E+00 0.  1.
    3000001    1    5    5    0    0 -0.10304393473E-01 -0.80626280478E+01 -0.17909494740E+02  0.19666114996E+02  0.10000000000E+01 0. -1.
        -13    1    6    6    0    0  0.80385330260E+01 -0.62093645858E+01 -0.27871175213E+02  0.29664585864E+02  0.10500000000E+00 0. -1.
         13    1    6    6    0    0  0.36095965022E+01 -0.28068375647E+01 -0.12349568713E+02  0.13169297492E+02  0.10500000000E+00 0.  1.
</event>
<event>
11    0  0.3476221E-009  0.9118800E+02  0.7816531E-02  0.1126479E+00
         25   -1    0    0    0    0  0.00000000000E+00  0.00000000000E+00  0.99999998245E-14  0.12500000000E+03  0.12500000000E+03 0.  0.
    3000001    1    3    3    0    0  0.40681469225E+02  0.86150195579E+01  0.16741978699E+01  0.41629357896E+02  0.10000000000E+01 0.  1.
    1000022    2    1    0    0    0  0.60164234415E+02  0.10307145245E+02  0.89597868425E+01  0.62500000741E+02  0.99999983280E+01 0.  0.
    3000022    2    3    3    0    0  0.19482765190E+02  0.16921256874E+01  0.72855889725E+01  0.20870642845E+02  0.24999466208E+00 0.  0.
    1000022    2    1    0    0    0 -0.60164234415E+02 -0.10307145245E+02 -0.89597868425E+01  0.62499999259E+02  0.99999890649E+01 0.  0.
    3000022    2    5    5    0    0 -0.39239829361E+02 -0.98759353284E+01 -0.23626533445E+01  0.40533232559E+02  0.25000799912E+00 0.  0.
        -13    1    4    4    0    0  0.11855427558E+02  0.10796539971E+01  0.43951651026E+01  0.12690363140E+02  0.10500000000E+00 0.  1.
         13    1    4    4    0    0  0.76273376314E+01  0.61247169035E+00  0.28904238700E+01  0.81802797057E+01  0.10500000000E+00 0. -1.
    3000001    1    5    5    0    0 -0.20924405054E+02 -0.43120991695E+00 -0.65971334980E+01  0.21966766700E+02  0.10000000000E+01 0.  1.
        -13    1    6    6    0    0 -0.20586518541E+02 -0.52091153586E+01 -0.13019300945E+01  0.21275471215E+02  0.10500000000E+00 0.  1.
         13    1    6    6    0    0 -0.18653310820E+02 -0.46668199698E+01 -0.10607232500E+01  0.19257761344E+02  0.10500000000E+00 0. -1.
</event>
<event>
11    0  0.3476221E-009  0.9118800E+02  0.7816531E-02  0.1126479E+00
         25   -1    0    0    0    0  0.00000000000E+00  0.00000000000E+00  0.99999998245E-14  0.12500000000E+03  0.12500000000E+03 0.  0.
    3000001    1    3    3    0    0  0.12958563919E+02 -0.18317670093E+02  0.17339598800E+02  0.28374691241E+02  0.10000000000E+01 0.  1.
    1000022    2    1    0    0    0  0.20785729821E+02 -0.46857457145E+02  0.34330484689E+02  0.62499999654E+02  0.99999961743E+01 0.  0.
    3000022    2    3    3    0    0  0.78271659021E+01 -0.28539787052E+02  0.16990885889E+02  0.34125308413E+02  0.24999991927E+00 0.  0.
    1000022    2    1    0    0    0 -0.20785729821E+02  0.46857457145E+02 -0.34330484689E+02  0.62500000346E+02  0.10000000503E+02 0.  0.
    3000022    2    5    5    0    0 -0.18823554781E+02  0.45584481601E+02 -0.34071072431E+02  0.59943070089E+02  0.24999538968E+00 0.  0.
        -13    1    4    4    0    0  0.45850154773E+01 -0.16547797445E+02  0.99122654554E+01  0.19827153065E+02  0.10500000000E+00 0.  1.
         13    1    4    4    0    0  0.32421504247E+01 -0.11991989607E+02  0.70786204335E+01  0.14298155348E+02  0.10500000000E+00 0. -1.
    3000001    1    5    5    0    0 -0.19621750395E+01  0.12729755436E+01 -0.25941225835E+00  0.25569302572E+01  0.10000000000E+01 0.  1.
        -13    1    6    6    0    0 -0.11745450834E+02  0.28586851051E+02 -0.21320890971E+02  0.37546705383E+02  0.10500000000E+00 0.  1.
         13    1    6    6    0    0 -0.70781039472E+01  0.16997630550E+02 -0.12750181459E+02  0.22396364706E+02  0.10500000000E+00 0. -1.
</event>
<event>
11    0  0.3476221E-009  0.9118800E+02  0.7816531E-02  0.1126479E+00
         25   -1    0    0    0    0  0.00000000000E+00  0.00000000000E+00  0.99999998245E-14  0.12500000000E+03  0.12500000000E+03 0.  0.
    3000001    1    3    3    0    0  0.39385581350E+02 -0.76692844273E+01  0.18138419815E+02  0.44045933017E+02  0.10000000000E+01 0.  1.
    1000022    2    1    0    0    0  0.52124977305E+02 -0.14052671827E+02  0.29862338985E+02  0.62500001027E+02  0.99999997045E+01 0.  0.
    3000022    2    3    3    0    0  0.12739395955E+02 -0.63833873997E+01  0.11723919170E+02  0.18454068010E+02  0.25000282307E+00 0.  0.
    1000022    2    1    0    0    0 -0.52124977305E+02  0.14052671827E+02 -0.29862338985E+02  0.62499998973E+02  0.99999868720E+01 0.  0.
    3000022    2    5    5    0    0 -0.10304000267E+02  0.31736165415E+00 -0.93761784984E+01  0.13937300969E+02  0.24999028039E+00 0.  0.
        -13    1    4    4    0    0  0.50264249985E+01 -0.25621500994E+01  0.45786337645E+01  0.72666686691E+01  0.10500000000E+00 0.  1.
         13    1    4    4    0    0  0.77129709567E+01 -0.38212373003E+01  0.71452854054E+01  0.11187399341E+02  0.10500000000E+00 0. -1.
    3000001    1    5    5    0    0 -0.41820977038E+02  0.13735310173E+02 -0.20486160487E+02  0.48562698004E+02  0.10000000000E+01 0.  1.
        -13    1    6    6    0    0 -0.44841153877E+01  0.18138448073E+00 -0.41490367906E+01  0.61127508071E+01  0.10500000000E+00 0.  1.
         13    1    6    6    0    0 -0.58198848795E+01  0.13597717342E+00 -0.52271417078E+01  0.78245501619E+01  0.10500000000E+00 0. -1.
</event>
<event>
11    0  0.3476221E-009  0.9118800E+02  0.7816531E-02  0.1126479E+00
         25   -1    0    0    0    0  0.00000000000E+00  0.00000000000E+00  0.99999998245E-14  0.12500000000E+03  0.12500000000E+03 0.  0.
    3000001    1    3    3    0    0 -0.15339900502E+01  0.50943266118E+02  0.27859646638E+02  0.58092421184E+02  0.10000000000E+01 0. -1.
    1000022    2    1    0    0    0 -0.40567299033E+01  0.54438640685E+02  0.28744175100E+02  0.62499997872E+02  0.99999737361E+01 0.  0.
    3000022    2    3    3    0    0 -0.25227398530E+01  0.34953745674E+01  0.88452846191E+00  0.44075766885E+01  0.24996386208E+00 0.  0.
    1000022    2    1    0    0    0  0.40567299033E+01 -0.54438640685E+02 -0.28744175100E+02  0.62500002128E+02  0.10000000333E+02 0.  0.
    3000022    2    5    5    0    0  0.73333094053E+01 -0.38327782125E+02 -0.20512528291E+02  0.44086535699E+02  0.25000700716E+00 0.  0.
        -13    1    4    4    0    0 -0.17422690373E+01  0.24725964882E+01  0.65043490057E+00  0.30956946477E+01  0.10500000000E+00 0. -1.
         13    1    4    4    0    0 -0.78047081570E+00  0.10227780792E+01  0.23409356134E+00  0.13118820408E+01  0.10500000000E+00 0.  1.
    3000001    1    5    5    0    0 -0.32765795020E+01 -0.16110858560E+02 -0.82316468084E+01  0.18413466429E+02  0.10000000000E+01 0. -1.
        -13    1    6    6    0    0  0.35443708053E+01 -0.18761969044E+02 -0.99790062460E+01  0.21544503649E+02  0.10500000000E+00 0.  1.
         13    1    6    6    0    0  0.37889385999E+01 -0.19565813081E+02 -0.10533522045E+02  0.22542032050E+02  0.10500000000E+00 0. -1.
</event>
<event>
11    0  0.3476221E-009  0.9118800E+02  0.7816531E-02  0.1126479E+00
         25   -1    0    0    0    0  0.00000000000E+00  0.00000000000E+00  0.99999998245E-14  0.12500000000E+03  0.12500000000E+03 0.  0.
    3000001    1    3    3    0    0  0.12107383799E+02  0.24202130073E+00 -0.16609353437E+02  0.20579551462E+02  0.10000000000E+01 0. -1.
    1000022    2    1    0    0    0  0.32080420337E+02  0.13971095543E+02 -0.50812454982E+02  0.62500003858E+02  0.10000001062E+02 0.  0.
    3000022    2    3    3    0    0  0.19973036538E+02  0.13729074242E+02 -0.34203101545E+02  0.41920452396E+02  0.25001137344E+00 0.  0.
    1000022    2    1    0    0    0 -0.32080420337E+02 -0.13971095543E+02  0.50812454982E+02  0.62499996142E+02  0.99999528358E+01 0.  0.
    3000022    2    5    5    0    0 -0.79364644458E+01 -0.67351273030E+01  0.94965876513E+01  0.14092447807E+02  0.25000098498E+00 0.  0.
        -13    1    4    4    0    0  0.82967868190E+01  0.56313300991E+01 -0.14194788663E+02  0.17379631768E+02  0.10500000000E+00 0. -1.
         13    1    4    4    0    0  0.11676249719E+02  0.80977441431E+01 -0.20008312881E+02  0.24540820628E+02  0.10500000000E+00 0.  1.
    3000001    1    5    5    0    0 -0.24143955892E+02 -0.72359682399E+01  0.41315867331E+02  0.48407548335E+02  0.10000000000E+01 0.  1.
        -13    1    6    6    0    0 -0.19132987366E+01 -0.16347420295E+01  0.22715433556E+01  0.33917588026E+01  0.10500000000E+00 0.  1.
         13    1    6    6    0    0 -0.60231657092E+01 -0.51003852735E+01  0.72250442957E+01  0.10700689005E+02  0.10500000000E+00 0. -1.
</event>
<event>
11    0  0.3476221E-009  0.9118800E+02  0.7816531E-02  0.1126479E+00
         25   -1    0    0    0    0  0.00000000000E+00  0.00000000000E+00  0.99999998245E-14  0.12500000000E+03  0.12500000000E+03 0.  0.
    3000001    1    3    3    0    0  0.45106865192E+01 -0.46613681831E+02 -0.85195833514E+00  0.46849839484E+02  0.10000000000E+01 0.  1.
    1000022    2    1    0    0    0  0.11295064359E+02 -0.60650019961E+02  0.49653586081E+00  0.62499999659E+02  0.10000000472E+02 0.  0.
    3000022    2    3    3    0    0  0.67843778400E+01 -0.14036338130E+02  0.13484941959E+01  0.15650160175E+02  0.25001226718E+00 0.  0.
    1000022    2    1    0    0    0 -0.11295064359E+02  0.60650019961E+02 -0.49653586081E+00  0.62500000341E+02  0.10000004731E+02 0.  0.
    3000022    2    5    5    0    0 -0.12399849926E+01  0.16082528593E+02 -0.41442474693E+01  0.16656007192E+02  0.24999951276E+00 0.  0.
        -13    1    4    4    0    0  0.49303959438E+01 -0.10120856566E+02  0.95590939327E+00  0.11298908335E+02  0.10500000000E+00 0.  1.
         13    1    4    4    0    0  0.18539818962E+01 -0.39154815643E+01  0.39258480268E+00  0.43512518405E+01  0.10500000000E+00 0. -1.
    3000001    1    5    5    0    0 -0.10055079367E+02  0.44567491368E+02  0.36477116085E+01  0.45843993149E+02  0.10000000000E+01 0.  1.
        -13    1    6    6    0    0 -0.43662909309E+00  0.63838632538E+01 -0.16137171276E+01  0.65999593162E+01  0.10500000000E+00 0. -1.
         13    1    6    6    0    0 -0.80335589952E+00  0.96986653392E+01 -0.25305303416E+01  0.10056047875E+02  0.10500000000E+00 0.  1.
</event>
<event>
11    0  0.3476221E-009  0.9118800E+02  0.7816531E-02  0.1126479E+00
         25   -1    0    0    0    0  0.00000000000E+00  0.00000000000E+00  0.99999998245E-14  0.12500000000E+03  0.12500000000E+03 0.  0.
    3000001    1    3    3    0    0 -0.74911354012E+01  0.29247500720E+01  0.10615001515E+01  0.81730077177E+01  0.10000000000E+01 0. -1.
    1000022    2    1    0    0    0 -0.44711411785E+02  0.33275585137E+02  0.26455150341E+02  0.62500000403E+02  0.10000008039E+02 0.  0.
    3000022    2    3    3    0    0 -0.37220276384E+02  0.30350835065E+02  0.25393650190E+02  0.54326992686E+02  0.25000207706E+00 0.  0.
    1000022    2    1    0    0    0  0.44711411785E+02 -0.33275585137E+02 -0.26455150341E+02  0.62499999597E+02  0.10000002997E+02 0.  0.
    3000022    2    5    5    0    0  0.36730062883E+01 -0.69156547997E+01 -0.39528426230E+01  0.87752333731E+01  0.24999889358E+00 0.  0.
        -13    1    4    4    0    0 -0.25947871451E+02  0.21218156744E+02  0.17730007656E+02  0.37919208917E+02  0.10500000000E+00 0. -1.
         13    1    4    4    0    0 -0.11272404933E+02  0.91326783212E+01  0.76636425339E+01  0.16407783768E+02  0.10500000000E+00 0.  1.
    3000001    1    5    5    0    0  0.41038405497E+02 -0.26359930337E+02 -0.22502307718E+02  0.53724766224E+02  0.10000000000E+01 0.  1.
        -13    1    6    6    0    0  0.20701759892E+01 -0.39604003052E+01 -0.21899675432E+01  0.49776884237E+01  0.10500000000E+00 0. -1.
         13    1    6    6    0    0  0.16028302992E+01 -0.29552544946E+01 -0.17628750797E+01  0.37975449494E+01  0.10500000000E+00 0.  1.
</event>
<event>
11    0  0.3476221E-009  0.9118800E+02  0.7816531E-02  0.1126479E+00
         25   -1    0    0    0    0  0.00000000000E+00  0.00000000000E+00  0.99999998245E-14  0.12500000000E+03  0.12500000000E+03 0.  0.
    3000001    1    3    3    0    0  0.18171480713E+02  0.17449077551E+02  0.10679570921E+02  0.27381129519E+02  0.10000000000E+01 0. -1.
    1000022    2    1    0    0    0  0.34879828308E+02  0.38471370796E+02  0.33310675823E+02  0.62500000431E+02  0.10000006820E+02 0.  0.
    3000022    2    3    3    0    0  0.16708347594E+02  0.21022293246E+02  0.22631104903E+02  0.35118870912E+02  0.24998481476E+00 0.  0.
    1000022    2    1    0    0    0 -0.34879828308E+02 -0.38471370796E+02 -0.33310675823E+02  0.62499999569E+02  0.10000001429E+02 0.  0.
    3000022    2    5    5    0    0 -0.26587128061E+02 -0.22580563247E+02 -0.23244631501E+02  0.41918165582E+02  0.24999416384E+00 0.  0.
        -13    1    4    4    0    0  0.87286480929E+01  0.10893419879E+02  0.11814984880E+02  0.18288269106E+02  0.10500000000E+00 0.  1.
         13    1    4    4    0    0  0.79796995012E+01  0.10128873367E+02  0.10816120022E+02  0.16830601806E+02  0.10500000000E+00 0. -1.
    3000001    1    5    5    0    0 -0.82927002464E+01 -0.15890807549E+02 -0.10066044322E+02  0.20581833987E+02  0.10000000000E+01 0. -1.
        -13    1    6    6    0    0 -0.14301887844E+02 -0.12146250892E+02 -0.12422960057E+02  0.22503696767E+02  0.10500000000E+00 0.  1.
         13    1    6    6    0    0 -0.12285240217E+02 -0.10434312355E+02 -0.10821671444E+02  0.19414468815E+02  0.10500000000E+00 0. -1.
</event>
<event>
11    0  0.3476221E-009  0.9118800E+02  0.7816531E-02  0.1126479E+00
         25   -1    0    0    0    0  0.00000000000E+00  0.00000000000E+00  0.99999998245E-14  0.12500000000E+03  0.12500000000E+03 0.  0.
    3000001    1    3    3    0    0  0.17114523206E+01  0.19729706351E+02 -0.84174524116E+01  0.21541677902E+02  0.10000000000E+01 0. -1.
    1000022    2    1    0    0    0  0.10389755875E+02  0.59578879417E+02 -0.12192628888E+02  0.62499998252E+02  0.99999841282E+01 0.  0.
    3000022    2    3    3    0    0  0.86783035543E+01  0.39849173066E+02 -0.37751764766E+01  0.40958320350E+02  0.25000363148E+00 0.  0.
    1000022    2    1    0    0    0 -0.10389755875E+02 -0.59578879417E+02  0.12192628888E+02  0.62500001748E+02  0.10000005978E+02 0.  0.
    3000022    2    5    5    0    0 -0.11356758684E+01 -0.21592688069E+01  0.25483500797E+01  0.35367776747E+01  0.25001346551E+00 0.  0.
        -13    1    4    4    0    0  0.45369826016E+01  0.21026246503E+02 -0.19373936501E+01  0.21597494584E+02  0.10500000000E+00 0. -1.
         13    1    4    4    0    0  0.41413209527E+01  0.18822926563E+02 -0.18377828265E+01  0.19360825766E+02  0.10500000000E+00 0.  1.
    3000001    1    5    5    0    0 -0.92540800065E+01 -0.57419610610E+02  0.96442788085E+01  0.58963224073E+02  0.10000000000E+01 0. -1.
        -13    1    6    6    0    0 -0.87846812542E+00 -0.16577028604E+01  0.19663582041E+01  0.27197931186E+01  0.10500000000E+00 0. -1.
         13    1    6    6    0    0 -0.25720774296E+00 -0.50156594656E+00  0.58199187556E+00  0.81698455616E+00  0.10500000000E+00 0.  1.
</event>
<event>
11    0  0.3476221E-009  0.9118800E+02  0.7816531E-02  0.1126479E+00
         25   -1    0    0    0    0  0.00000000000E+00  0.00000000000E+00  0.99999998245E-14  0.12500000000E+03  0.12500000000E+03 0.  0.
    3000001    1    3    3    0    0  0.26384061687E+02  0.20368448932E+02 -0.15557629545E+02  0.36797177339E+02  0.10000000000E+01 0.  1.
    1000022    2    1    0    0    0  0.43586516945E+02  0.29131993562E+02 -0.32523722850E+02  0.62499998281E+02  0.99999864403E+01 0.  0.
    3000022    2    3    3    0    0  0.17202455258E+02  0.87635446295E+01 -0.16966093305E+02  0.25702820942E+02  0.25000198711E+00 0.  0.
    1000022    2    1    0    0    0 -0.43586516945E+02 -0.29131993562E+02  0.32523722850E+02  0.62500001719E+02  0.10000007928E+02 0.  0.
    3000022    2    5    5    0    0 -0.17873907973E+02 -0.80730609459E+01  0.16296731659E+02  0.25500918674E+02  0.24998235842E+00 0.  0.
        -13    1    4    4    0    0  0.66460529743E+01  0.33523950025E+01 -0.64700824133E+01  0.98631416813E+01  0.10500000000E+00 0.  1.
         13    1    4    4    0    0  0.10556402284E+02  0.54111496270E+01 -0.10496010892E+02  0.15839679261E+02  0.10500000000E+00 0. -1.
    3000001    1    5    5    0    0 -0.25712608972E+02 -0.21058932616E+02  0.16226991191E+02  0.36999083045E+02  0.10000000000E+01 0. -1.
        -13    1    6    6    0    0 -0.74870132729E+01 -0.34015728061E+01  0.67526133312E+01  0.10641187768E+02  0.10500000000E+00 0.  1.
         13    1    6    6    0    0 -0.10386894701E+02 -0.46714881398E+01  0.95441183275E+01  0.14859730906E+02  0.10500000000E+00 0. -1.
</event>
<event>
11    0  0.3476221E-009  0.9118800E+02  0.7816531E-02  0.1126479E+00
         25   -1    0    0    0    0  0.00000000000E+00  0.00000000000E+00  0.99999998245E-14  0.12500000000E+03  0.12500000000E+03 0.  0.
    3000001    1    3    3    0    0  0.90073568759E+01 -0.18959049521E+02 -0.23630939732E+02  0.31622766313E+02  0.10000000000E+01 0. -1.
    1000022    2    1    0    0    0  0.11565388512E+02 -0.31760509726E+02 -0.51611644902E+02  0.62499995450E+02  0.99999676122E+01 0.  0.
    3000022    2    3    3    0    0  0.25580316365E+01 -0.12801460205E+02 -0.27980705170E+02  0.30877229137E+02  0.25001633369E+00 0.  0.
    1000022    2    1    0    0    0 -0.11565388512E+02  0.31760509726E+02  0.51611644902E+02  0.62500004550E+02  0.10000024489E+02 0.  0.
    3000022    2    5    5    0    0 -0.35284054499E+01  0.17136515202E+02  0.18848036274E+02  0.25718101895E+02  0.24999084236E+00 0.  0.
        -13    1    4    4    0    0  0.13749386036E+01 -0.67595042554E+01 -0.14635104377E+02  0.16179575367E+02  0.10500000000E+00 0. -1.
         13    1    4    4    0    0  0.11830930329E+01 -0.60419559494E+01 -0.13345600793E+02  0.14697653770E+02  0.10500000000E+00 0.  1.
    3000001    1    5    5    0    0 -0.80369830625E+01  0.14623994524E+02  0.32763608628E+02  0.36781902655E+02  0.10000000000E+01 0. -1.
        -13    1    6    6    0    0 -0.20029846071E+01  0.99173946789E+01  0.10976292974E+02  0.14928385613E+02  0.10500000000E+00 0. -1.
         13    1    6    6    0    0 -0.15254208428E+01  0.72191205233E+01  0.78717432998E+01  0.10789716282E+02  0.10500000000E+00 0.  1.
</event>
<event>
11    0  0.3476221E-009  0.9118800E+02  0.7816531E-02  0.1126479E+00
         25   -1    0    0    0    0  0.00000000000E+00  0.00000000000E+00  0.99999998245E-14  0.12500000000E+03  0.12500000000E+03 0.  0.
    3000001    1    3    3    0    0 -0.29584038310E+02  0.62856558238E+01 -0.22289438090E+02  0.37583824210E+02  0.10000000000E+01 0. -1.
    1000022    2    1    0    0    0 -0.51069089863E+02  0.15419819072E+02 -0.30990757816E+02  0.62500000515E+02  0.10000011734E+02 0.  0.
    3000022    2    3    3    0    0 -0.21485051554E+02  0.91341632479E+01 -0.87013197252E+01  0.24916176305E+02  0.24999639485E+00 0.  0.
    1000022    2    1    0    0    0  0.51069089863E+02 -0.15419819072E+02  0.30990757816E+02  0.62499999485E+02  0.10000005303E+02 0.  0.
    3000022    2    5    5    0    0  0.19331637461E+02 -0.46906350312E+01  0.62908571414E+01  0.20865081826E+02  0.24998427757E+00 0.  0.
        -13    1    4    4    0    0 -0.15128652025E+02  0.63881049814E+01 -0.61416968893E+01  0.17533267323E+02  0.10500000000E+00 0.  1.
         13    1    4    4    0    0 -0.63563995289E+01  0.27460582665E+01 -0.25596228359E+01  0.73829089820E+01  0.10500000000E+00 0. -1.
    3000001    1    5    5    0    0  0.31737452403E+02 -0.10729184041E+02  0.24699900674E+02  0.41634917659E+02  0.10000000000E+01 0. -1.
        -13    1    6    6    0    0  0.10131152765E+02 -0.24485030183E+01  0.32259638778E+01  0.10911154445E+02  0.10500000000E+00 0. -1.
         13    1    6    6    0    0  0.92004846958E+01 -0.22421320129E+01  0.30648932636E+01  0.99539273816E+01  0.10500000000E+00 0.  1.
</event>
<event>
11    0  0.3476221E-009  0.9118800E+02  0.7816531E-02  0.1126479E+00
         25   -1    0    0    0    0  0.00000000000E+00  0.00000000000E+00  0.99999998245E-14  0.12500000000E+03  0.12500000000E+03 0.  0.
    3000001    1    3    3    0    0  0.69677807040E+01  0.51174342197E+01 -0.15749800295E+02  0.17994285489E+02  0.10000000000E+01 0.  1.
    1000022    2    1    0    0    0  0.29546587225E+02  0.29106055064E+02 -0.45673697910E+02  0.62499999517E+02  0.10000000046E+02 0.  0.
    3000022    2    3    3    0    0  0.22578806521E+02  0.23988620844E+02 -0.29923897615E+02  0.44505714028E+02  0.24999761687E+00 0.  0.
    1000022    2    1    0    0    0 -0.29546587225E+02 -0.29106055064E+02  0.45673697910E+02  0.62500000483E+02  0.10000006078E+02 0.  0.
    3000022    2    5    5    0    0 -0.32510619607E+01 -0.16772835083E+01  0.88416182564E+01  0.95718014809E+01  0.24997271717E+00 0.  0.
        -13    1    4    4    0    0  0.12361325525E+02  0.13228303486E+02 -0.16464239860E+02  0.24471873673E+02  0.10500000000E+00 0. -1.
         13    1    4    4    0    0  0.10217480996E+02  0.10760317358E+02 -0.13459657754E+02  0.20033840356E+02  0.10500000000E+00 0.  1.
    3000001    1    5    5    0    0 -0.26295525264E+02 -0.27428771556E+02  0.36832079653E+02  0.52928199002E+02  0.10000000000E+01 0.  1.
        -13    1    6    6    0    0 -0.10109574705E+01 -0.57057997156E+00  0.28761891901E+01  0.31033990669E+01  0.10500000000E+00 0.  1.
         13    1    6    6    0    0 -0.22401044901E+01 -0.11067035368E+01  0.59654290663E+01  0.64684024140E+01  0.10500000000E+00 0. -1.
</event>
<event>
11    0  0.3476221E-009  0.9118800E+02  0.7816531E-02  0.1126479E+00
         25   -1    0    0    0    0  0.00000000000E+00  0.00000000000E+00  0.99999998245E-14  0.12500000000E+03  0.12500000000E+03 0.  0.
    3000001    1    3    3    0    0 -0.10787769534E+02 -0.12292304792E+02  0.11162284881E+02  0.19826077081E+02  0.10000000000E+01 0.  1.
    1000022    2    1    0    0    0 -0.31371682556E+02 -0.28400956455E+02  0.44893799839E+02  0.62500000452E+02  0.99999999241E+01 0.  0.
    3000022    2    3    3    0    0 -0.20583913022E+02 -0.16108651663E+02  0.33731514957E+02  0.42673923371E+02  0.25000169721E+00 0.  0.
    1000022    2    1    0    0    0  0.31371682556E+02  0.28400956455E+02 -0.44893799839E+02  0.62499999548E+02  0.99999942800E+01 0.  0.
    3000022    2    5    5    0    0  0.26696424653E+01  0.15799261858E+01 -0.80599289578E+01  0.86399140103E+01  0.25000331039E+00 0.  0.
        -13    1    4    4    0    0 -0.11329083328E+02 -0.87844169233E+01  0.18470701792E+02  0.23381444768E+02  0.10500000000E+00 0.  1.
         13    1    4    4    0    0 -0.92548296942E+01 -0.73242347399E+01  0.15260813165E+02  0.19292478603E+02  0.10500000000E+00 0. -1.
    3000001    1    5    5    0    0  0.28702040091E+02  0.26821030270E+02 -0.36833870881E+02  0.53860085538E+02  0.10000000000E+01 0.  1.
        -13    1    6    6    0    0  0.20487960570E+01  0.12159877032E+01 -0.61444534866E+01  0.65910185121E+01  0.10500000000E+00 0. -1.
         13    1    6    6    0    0  0.62084640833E+00  0.36393848262E+00 -0.19154754712E+01  0.20488954982E+01  0.10500000000E+00 0.  1.
</event>
<event>
11    0  0.3476221E-009  0.9118800E+02  0.7816531E-02  0.1126479E+00
         25   -1    0    0    0    0  0.00000000000E+00  0.00000000000E+00  0.99999998245E-14  0.12500000000E+03  0.12500000000E+03 0.  0.
    3000001    1    3    3    0    0  0.41373280486E+02 -0.94957340227E+01 -0.22215877488E+02  0.47921420215E+02  0.10000000000E+01 0.  1.
    1000022    2    1    0    0    0  0.54375696880E+02 -0.15639622084E+02 -0.24595446020E+02  0.62500001688E+02  0.10000002798E+02 0.  0.
    3000022    2    3    3    0    0  0.13002416393E+02 -0.61438880614E+01 -0.23795685322E+01  0.14578581473E+02  0.24999758400E+00 0.  0.
    1000022    2    1    0    0    0 -0.54375696880E+02  0.15639622084E+02  0.24595446020E+02  0.62499998312E+02  0.99999816972E+01 0.  0.
    3000022    2    5    5    0    0 -0.48914325925E+02  0.11573085077E+02  0.19409127417E+02  0.53882504674E+02  0.25000794013E+00 0.  0.
        -13    1    4    4    0    0  0.78053954691E+01 -0.36419939573E+01 -0.13771209089E+01  0.87232909737E+01  0.10500000000E+00 0. -1.
         13    1    4    4    0    0  0.51970209243E+01 -0.25018941042E+01 -0.10024476232E+01  0.58552904994E+01  0.10500000000E+00 0.  1.
    3000001    1    5    5    0    0 -0.54613709545E+01  0.40665370074E+01  0.51863186038E+01  0.86174936377E+01  0.10000000000E+01 0. -1.
        -13    1    6    6    0    0 -0.11662632141E+02  0.27512402192E+01  0.46098035830E+01  0.12839300030E+02  0.10500000000E+00 0.  1.
         13    1    6    6    0    0 -0.37251693785E+02  0.88218448575E+01  0.14799323834E+02  0.41043204644E+02  0.10500000000E+00 0. -1.
</event>
<event>
11    0  0.3476221E-009  0.9118800E+02  0.7816531E-02  0.1126479E+00
         25   -1    0    0    0    0  0.00000000000E+00  0.00000000000E+00  0.99999998245E-14  0.12500000000E+03  0.12500000000E+03 0.  0.
    3000001    1    3    3    0    0  0.13789231200E+02 -0.56113413425E+01  0.16539256919E+02  0.22275032394E+02  0.10000000000E+01 0. -1.
    1000022    2    1    0    0    0  0.42727153722E+02 -0.32967057148E+01  0.44382113927E+02  0.62500000807E+02  0.10000006522E+02 0.  0.
    3000022    2    3    3    0    0  0.28937922523E+02  0.23146356277E+01  0.27842857009E+02  0.40224968413E+02  0.24999878619E+00 0.  0.
    1000022    2    1    0    0    0 -0.42727153722E+02  0.32967057148E+01 -0.44382113927E+02  0.62499999193E+02  0.99999964328E+01 0.  0.
    3000022    2    5    5    0    0 -0.35624359143E+02  0.81440759158E+00 -0.31566399530E+02  0.47605233994E+02  0.25000053422E+00 0.  0.
        -13    1    4    4    0    0  0.17293571073E+02  0.14250033440E+01  0.16708164104E+02  0.24088835749E+02  0.10500000000E+00 0. -1.
         13    1    4    4    0    0  0.11644351449E+02  0.88963228361E+00  0.11134692905E+02  0.16136132664E+02  0.10500000000E+00 0.  1.
    3000001    1    5    5    0    0 -0.71027945795E+01  0.24822981233E+01 -0.12815714398E+02  0.14894765199E+02  0.10000000000E+01 0. -1.
        -13    1    6    6    0    0 -0.21945162204E+02  0.45517859729E+00 -0.19497666420E+02  0.29359280518E+02  0.10500000000E+00 0.  1.
         13    1    6    6    0    0 -0.13679196939E+02  0.35922899429E+00 -0.12068733110E+02  0.18245953476E+02  0.10500000000E+00 0. -1.
</event>
<event>
11    0  0.3476221E-009  0.9118800E+02  0.7816531E-02  0.1126479E+00
         25   -1    0    0    0    0  0.00000000000E+00  0.00000000000E+00  0.99999998245E-14  0.12500000000E+03  0.12500000000E+03 0.  0.
    3000001    1    3    3    0    0  0.18129244605E+02  0.56646918490E+01 -0.41780587267E+01  0.19473428523E+02  0.10000000000E+01 0.  1.
    1000022    2    1    0    0    0  0.56187124188E+02  0.25464794367E+02 -0.89518069793E+00  0.62500002231E+02  0.10000012686E+02 0.  0.
    3000022    2    3    3    0    0  0.38057879582E+02  0.19800102518E+02  0.32828780287E+01  0.43026573708E+02  0.24999775436E+00 0.  0.
    1000022    2    1    0    0    0 -0.56187124188E+02 -0.25464794367E+02  0.89518069793E+00  0.62499997769E+02  0.99999848026E+01 0.  0.
    3000022    2    5    5    0    0 -0.16149851242E+02 -0.31327129435E+01  0.23609365720E+01  0.16621315073E+02  0.25001549912E+00 0.  0.
        -13    1    4    4    0    0  0.17728214451E+02  0.92764783834E+01  0.14829548720E+01  0.20063718972E+02  0.10500000000E+00 0. -1.
         13    1    4    4    0    0  0.20329665131E+02  0.10523624134E+02  0.17999231567E+01  0.22962854736E+02  0.10500000000E+00 0.  1.
    3000001    1    5    5    0    0 -0.40037272946E+02 -0.22332081423E+02 -0.14657558740E+01  0.45878682696E+02  0.10000000000E+01 0. -1.
        -13    1    6    6    0    0 -0.10789302027E+02 -0.21298167445E+01  0.15389016716E+01  0.11105152001E+02  0.10500000000E+00 0. -1.
         13    1    6    6    0    0 -0.53605492143E+01 -0.10028961989E+01  0.82203490039E+00  0.55161630725E+01  0.10500000000E+00 0.  1.
</event>
<event>
11    0  0.3476221E-009  0.9118800E+02  0.7816531E-02  0.1126479E+00
         25   -1    0    0    0    0  0.00000000000E+00  0.00000000000E+00  0.99999998245E-14  0.12500000000E+03  0.12500000000E+03 0.  0.
    3000001    1    3    3    0    0  0.21564357041E+02  0.22891192928E+02 -0.10665942850E+02  0.33223343377E+02  0.10000000000E+01 0.  1.
    1000022    2    1    0    0    0  0.41801148187E+02  0.36683106353E+02 -0.26706999012E+02  0.62499999180E+02  0.99999909878E+01 0.  0.
    3000022    2    3    3    0    0  0.20236791146E+02  0.13791913426E+02 -0.16041056162E+02  0.29276655803E+02  0.25000076810E+00 0.  0.
    1000022    2    1    0    0    0 -0.41801148187E+02 -0.36683106353E+02  0.26706999012E+02  0.62500000820E+02  0.10000001241E+02 0.  0.
    3000022    2    5    5    0    0 -0.25324345617E+02 -0.27955986897E+02  0.19704027040E+02  0.42557853158E+02  0.24999903235E+00 0.  0.
        -13    1    4    4    0    0  0.14050580126E+02  0.96035690115E+01 -0.11098054257E+02  0.20318099639E+02  0.10500000000E+00 0. -1.
         13    1    4    4    0    0  0.61862110203E+01  0.41883444141E+01 -0.49430019050E+01  0.89585561644E+01  0.10500000000E+00 0.  1.
    3000001    1    5    5    0    0 -0.16476802570E+02 -0.87271194563E+01  0.70029719723E+01  0.19942147663E+02  0.10000000000E+01 0.  1.
        -13    1    6    6    0    0 -0.15106051041E+02 -0.16685687261E+02  0.11686142956E+02  0.25361031123E+02  0.10500000000E+00 0.  1.
         13    1    6    6    0    0 -0.10218294575E+02 -0.11270299636E+02  0.80178840836E+01  0.17196822034E+02  0.10500000000E+00 0. -1.
</event>
<event>
11    0  0.3476221E-009  0.9118800E+02  0.7816531E-02  0.1126479E+00
         25   -1    0    0    0    0  0.00000000000E+00  0.00000000000E+00  0.99999998245E-14  0.12500000000E+03  0.12500000000E+03 0.  0.
    3000001    1    3    3    0    0 -0.22901877959E+01  0.86812634974E+00 -0.79013395921E+01  0.83324528711E+01  0.10000000000E+01 0. -1.
    1000022    2    1    0    0    0  0.20959491631E+01  0.21580953334E+02 -0.57759151710E+02  0.62500001564E+02  0.10000001975E+02 0.  0.
    3000022    2    3    3    0    0  0.43861369590E+01  0.20712826985E+02 -0.49857812118E+02  0.54167548693E+02  0.25000615050E+00 0.  0.
    1000022    2    1    0    0    0 -0.20959491631E+01 -0.21580953334E+02  0.57759151710E+02  0.62499998436E+02  0.99999824253E+01 0.  0.
    3000022    2    5    5    0    0  0.72151822200E+00 -0.11588184850E+02  0.18205530340E+02  0.21594222463E+02  0.24998432279E+00 0.  0.
        -13    1    4    4    0    0  0.30237609074E+01  0.14476312857E+02 -0.34768627963E+02  0.37783267188E+02  0.10500000000E+00 0. -1.
         13    1    4    4    0    0  0.13623760516E+01  0.62365141272E+01 -0.15089184156E+02  0.16384281505E+02  0.10500000000E+00 0.  1.
    3000001    1    5    5    0    0 -0.28174673851E+01 -0.99927684843E+01  0.39553621370E+02  0.40905775973E+02  0.10000000000E+01 0.  1.
        -13    1    6    6    0    0  0.41094161664E+00 -0.55280791676E+01  0.87126115328E+01  0.10327107873E+02  0.10500000000E+00 0. -1.
         13    1    6    6    0    0  0.31057660536E+00 -0.60601056825E+01  0.94929188070E+01  0.11267114590E+02  0.10500000000E+00 0.  1.
</event>
<event>
11    0  0.3476221E-009  0.9118800E+02  0.7816531E-02  0.1126479E+00
         25   -1    0    0    0    0  0.00000000000E+00  0.00000000000E+00  0.99999998245E-14  0.12500000000E+03  0.12500000000E+03 0.  0.
    3000001    1    3    3    0    0 -0.23081334468E+02  0.44391641824E+02 -0.31046199381E+02  0.58891700270E+02  0.10000000000E+01 0.  1.
    1000022    2    1    0    0    0 -0.24138679737E+02  0.45170455661E+02 -0.34397738642E+02  0.62500002664E+02  0.99999992590E+01 0.  0.
    3000022    2    3    3    0    0 -0.10573452685E+01  0.77881383710E+00 -0.33515392619E+01  0.36083023941E+01  0.25000146699E+00 0.  0.
    1000022    2    1    0    0    0  0.24138679737E+02 -0.45170455661E+02  0.34397738642E+02  0.62499997336E+02  0.99999659614E+01 0.  0.
    3000022    2    5    5    0    0  0.21204440181E-01 -0.61982133205E+01  0.56434078495E+01  0.83862298911E+01  0.25000327286E+00 0.  0.
        -13    1    4    4    0    0 -0.36069239505E+00  0.20384725105E+00 -0.10828796821E+01  0.11641761514E+01  0.10500000000E+00 0. -1.
         13    1    4    4    0    0 -0.69665287343E+00  0.57496658605E+00 -0.22686595798E+01  0.24441262427E+01  0.10500000000E+00 0.  1.
    3000001    1    5    5    0    0  0.24117475296E+02 -0.38972242341E+02  0.28754330793E+02  0.54113767445E+02  0.10000000000E+01 0.  1.
        -13    1    6    6    0    0 -0.43324537808E-01 -0.26486814714E+01  0.23592826008E+01  0.35488913682E+01  0.10500000000E+00 0. -1.
         13    1    6    6    0    0  0.64528977989E-01 -0.35495318492E+01  0.32841252486E+01  0.48373385230E+01  0.10500000000E+00 0.  1.
</event>
<event>
11    0  0.3476221E-009  0.9118800E+02  0.7816531E-02  0.1126479E+00
         25   -1    0    0    0    0  0.00000000000E+00  0.00000000000E+00  0.99999998245E-14  0.12500000000E+03  0.12500000000E+03 0.  0.
    3000001    1    3    3    0    0  0.86543858144E+01 -0.91105763525E+01  0.94332564573E+01  0.15744437833E+02  0.10000000000E+01 0.  1.
    1000022    2    1    0    0    0  0.42802453764E+02 -0.38043622501E+02  0.22953924302E+02  0.62500000628E+02  0.10000008824E+02 0.  0.
    3000022    2    3    3    0    0  0.34148067950E+02 -0.28933046148E+02  0.13520667845E+02  0.46755562795E+02  0.24997841330E+00 0.  0.
    1000022    2    1    0    0    0 -0.42802453764E+02  0.38043622501E+02 -0.22953924302E+02  0.62499999372E+02  0.10000000969E+02 0.  0.
    3000022    2    5    5    0    0 -0.28962163805E+02  0.22123595999E+02 -0.18674979159E+02  0.40952140046E+02  0.24999115743E+00 0.  0.
        -13    1    4    4    0    0  0.12611279711E+02 -0.10611893703E+02  0.49992878742E+01  0.17223837208E+02  0.10500000000E+00 0.  1.
         13    1    4    4    0    0  0.21536788238E+02 -0.18321152445E+02  0.85213799707E+01  0.29531725587E+02  0.10500000000E+00 0. -1.
    3000001    1    5    5    0    0 -0.13840289959E+02  0.15920026502E+02 -0.42789451430E+01  0.21547859325E+02  0.10000000000E+01 0.  1.
        -13    1    6    6    0    0 -0.99486192705E+01  0.76440309833E+01 -0.63807977100E+01  0.14075931212E+02  0.10500000000E+00 0.  1.
         13    1    6    6    0    0 -0.19013544535E+02  0.14479565015E+02 -0.12294181449E+02  0.26876208835E+02  0.10500000000E+00 0. -1.
</event>
<event>
11    0  0.3476221E-009  0.9118800E+02  0.7816531E-02  0.1126479E+00
         25   -1    0    0    0    0  0.00000000000E+00  0.00000000000E+00  0.99999998245E-14  0.12500000000E+03  0.12500000000E+03 0.  0.
    3000001    1    3    3    0    0 -0.23084773211E+02  0.50395127569E+01  0.10541438030E+02  0.25892573429E+02  0.10000000000E+01 0.  1.
    1000022    2    1    0    0    0 -0.55250113492E+02  0.20979800974E+02  0.17706566337E+02  0.62499997105E+02  0.10000002843E+02 0.  0.
    3000022    2    3    3    0    0 -0.32165340281E+02  0.15940288217E+02  0.71651283069E+01  0.36607423676E+02  0.25000135896E+00 0.  0.
    1000022    2    1    0    0    0  0.55250113492E+02 -0.20979800974E+02 -0.17706566337E+02  0.62500002895E+02  0.10000039030E+02 0.  0.
    3000022    2    5    5    0    0  0.20517967590E+02 -0.30610953097E+01 -0.44468813940E+01  0.21217788608E+02  0.25000150053E+00 0.  0.
        -13    1    4    4    0    0 -0.16298720063E+02  0.80304427346E+01  0.35721852428E+01  0.18517770347E+02  0.10500000000E+00 0. -1.
         13    1    4    4    0    0 -0.15866620218E+02  0.79098454828E+01  0.35929430641E+01  0.18089653329E+02  0.10500000000E+00 0.  1.
    3000001    1    5    5    0    0  0.34732145902E+02 -0.17918705665E+02 -0.13259684943E+02  0.41282214287E+02  0.10000000000E+01 0.  1.
        -13    1    6    6    0    0  0.13589705489E+02 -0.20005079280E+01 -0.28958789199E+01  0.14038492332E+02  0.10500000000E+00 0.  1.
         13    1    6    6    0    0  0.69282621015E+01 -0.10605873818E+01 -0.15510024742E+01  0.71792962759E+01  0.10500000000E+00 0. -1.
</event>
<event>
11    0  0.3476221E-009  0.9118800E+02  0.7816531E-02  0.1126479E+00
         25   -1    0    0    0    0  0.00000000000E+00  0.00000000000E+00  0.99999998245E-14  0.12500000000E+03  0.12500000000E+03 0.  0.
    3000001    1    3    3    0    0  0.47675016255E+02 -0.45355119066E+01  0.91521366692E+01  0.48767198492E+02  0.10000000000E+01 0. -1.
    1000022    2    1    0    0    0  0.59053737237E+02 -0.69779706139E+01  0.16438180003E+02  0.62499999408E+02  0.10000010432E+02 0.  0.
    3000022    2    3    3    0    0  0.11378720982E+02 -0.24424587072E+01  0.72860433339E+01  0.13732800916E+02  0.24999561214E+00 0.  0.
    1000022    2    1    0    0    0 -0.59053737237E+02  0.69779706139E+01 -0.16438180003E+02  0.62500000592E+02  0.10000017829E+02 0.  0.
    3000022    2    5    5    0    0 -0.35742572567E+02  0.81869146412E+01 -0.71616485539E+01  0.37361862640E+02  0.25000975177E+00 0.  0.
        -13    1    4    4    0    0  0.70035038797E+01 -0.15131678490E+01  0.45568793101E+01  0.84920502576E+01  0.10500000000E+00 0. -1.
         13    1    4    4    0    0  0.43752171026E+01 -0.92929085823E+00  0.27291640239E+01  0.52407506584E+01  0.10500000000E+00 0.  1.
    3000001    1    5    5    0    0 -0.23311164670E+02 -0.12089440274E+01 -0.92765314492E+01  0.25138137951E+02  0.10000000000E+01 0.  1.
        -13    1    6    6    0    0 -0.13296958107E+02  0.30630531805E+01 -0.26066083470E+01  0.13892329601E+02  0.10500000000E+00 0. -1.
         13    1    6    6    0    0 -0.22445614461E+02  0.51238614608E+01 -0.45550402069E+01  0.23469533039E+02  0.10500000000E+00 0.  1.
</event>
<event>
11    0  0.3476221E-009  0.9118800E+02  0.7816531E-02  0.1126479E+00
         25   -1    0    0    0    0  0.00000000000E+00  0.00000000000E+00  0.99999998245E-14  0.12500000000E+03  0.12500000000E+03 0.  0.
    3000001    1    3    3    0    0  0.35891855377E+02  0.49115685177E+02 -0.11275895145E+02  0.61876664617E+02  0.10000000000E+01 0. -1.
    1000022    2    1    0    0    0  0.35348819846E+02  0.49271642820E+02 -0.11358554932E+02  0.62499994788E+02  0.99999363846E+01 0.  0.
    3000022    2    3    3    0    0 -0.54303553045E+00  0.15595764310E+00 -0.82659786403E-01  0.62333017145E+00  0.24999497710E+00 0.  0.
    1000022    2    1    0    0    0 -0.35348819846E+02 -0.49271642820E+02  0.11358554932E+02  0.62500005212E+02  0.10000001531E+02 0.  0.
    3000022    2    5    5    0    0 -0.24305568068E+02 -0.35403903496E+02  0.12442951286E+02  0.44711145798E+02  0.24999994531E+00 0.  0.
        -13    1    4    4    0    0 -0.36963938621E+00  0.14272702711E+00 -0.91481142509E-01  0.41999771373E+00  0.10500000000E+00 0. -1.
         13    1    4    4    0    0 -0.17339614424E+00  0.13230615994E-01  0.88213561062E-02  0.20333245772E+00  0.10500000000E+00 0.  1.
    3000001    1    5    5    0    0 -0.11043251778E+02 -0.13867739324E+02 -0.10843963545E+01  0.17788859414E+02  0.10000000000E+01 0.  1.
        -13    1    6    6    0    0 -0.11549499657E+02 -0.16708703621E+02  0.59049136636E+01  0.21153031683E+02  0.10500000000E+00 0.  1.
         13    1    6    6    0    0 -0.12756068411E+02 -0.18695199875E+02  0.65380376225E+01  0.23558114115E+02  0.10500000000E+00 0. -1.
</event>
<event>
11    0  0.3476221E-009  0.9118800E+02  0.7816531E-02  0.1126479E+00
         25   -1    0    0    0    0  0.00000000000E+00  0.00000000000E+00  0.99999998245E-14  0.12500000000E+03  0.12500000000E+03 0.  0.
    3000001    1    3    3    0    0  0.63427883910E+01 -0.24953593399E+02  0.14791921055E+02  0.29710498423E+02  0.10000000000E+01 0. -1.
    1000022    2    1    0    0    0  0.15883894242E+02 -0.55590532269E+02  0.21532409039E+02  0.62499999696E+02  0.99999974376E+01 0.  0.
    3000022    2    3    3    0    0  0.95411058508E+01 -0.30636938870E+02  0.67404879847E+01  0.32789501273E+02  0.24998249120E+00 0.  0.
    1000022    2    1    0    0    0 -0.15883894242E+02  0.55590532269E+02 -0.21532409039E+02  0.62500000304E+02  0.10000001237E+02 0.  0.
    3000022    2    5    5    0    0 -0.10755269411E+02  0.33043191033E+02 -0.78942053539E+01  0.35635786390E+02  0.24999940634E+00 0.  0.
        -13    1    4    4    0    0  0.26205578862E+01 -0.85459306408E+01  0.18742008755E+01  0.91336689273E+01  0.10500000000E+00 0.  1.
         13    1    4    4    0    0  0.69205479646E+01 -0.22091008230E+02  0.48662871092E+01  0.23655832345E+02  0.10500000000E+00 0. -1.
    3000001    1    5    5    0    0 -0.51286248303E+01  0.22547341236E+02 -0.13638203686E+02  0.26864213914E+02  0.10000000000E+01 0.  1.
        -13    1    6    6    0    0 -0.80035669076E+01  0.24531161787E+02 -0.58367398185E+01  0.26455879093E+02  0.10500000000E+00 0. -1.
         13    1    6    6    0    0 -0.27517025039E+01  0.85120292458E+01 -0.20574655353E+01  0.91799072970E+01  0.10500000000E+00 0.  1.
</event>
<event>
11    0  0.3476221E-009  0.9118800E+02  0.7816531E-02  0.1126479E+00
         25   -1    0    0    0    0  0.00000000000E+00  0.00000000000E+00  0.99999998245E-14  0.12500000000E+03  0.12500000000E+03 0.  0.
    3000001    1    3    3    0    0 -0.13559137870E+01  0.86735922121E+00  0.12961793161E+01  0.22958429902E+01  0.10000000000E+01 0. -1.
    1000022    2    1    0    0    0 -0.29579112099E+02 -0.16197135249E+02  0.51662160892E+02  0.62499999778E+02  0.10000002066E+02 0.  0.
    3000022    2    3    3    0    0 -0.28223198312E+02 -0.17064494471E+02  0.50365981576E+02  0.60204156788E+02  0.24999975960E+00 0.  0.
    1000022    2    1    0    0    0  0.29579112099E+02  0.16197135249E+02 -0.51662160892E+02  0.62500000222E+02  0.10000004840E+02 0.  0.
    3000022    2    5    5    0    0  0.29497284768E+02  0.16689347303E+02 -0.48688976738E+02  0.59323714273E+02  0.24999430423E+00 0.  0.
        -13    1    4    4    0    0 -0.13086147537E+02 -0.79854559520E+01  0.23455541499E+02  0.28021210112E+02  0.10500000000E+00 0.  1.
         13    1    4    4    0    0 -0.15137050775E+02 -0.90790385185E+01  0.26910440077E+02  0.32182946676E+02  0.10500000000E+00 0. -1.
    3000001    1    5    5    0    0  0.81827330990E-01 -0.49221205388E+00 -0.29731841540E+01  0.31762859493E+01  0.10000000000E+01 0.  1.
        -13    1    6    6    0    0  0.17365521464E+02  0.97519623330E+01 -0.28623833912E+02  0.34871148502E+02  0.10500000000E+00 0.  1.
         13    1    6    6    0    0  0.12131763304E+02  0.69373849702E+01 -0.20065142827E+02  0.24452565770E+02  0.10500000000E+00 0. -1.
</event>
<event>
11    0  0.3476221E-009  0.9118800E+02  0.7816531E-02  0.1126479E+00
         25   -1    0    0    0    0  0.00000000000E+00  0.00000000000E+00  0.99999998245E-14  0.12500000000E+03  0.12500000000E+03 0.  0.
    3000001    1    3    3    0    0 -0.10377014013E+02 -0.21500276836E+02 -0.31344102939E+02  0.39413159134E+02  0.10000000000E+01 0. -1.
    1000022    2    1    0    0    0 -0.23258377007E+02 -0.33288173886E+02 -0.46445616397E+02  0.62500000232E+02  0.10000006240E+02 0.  0.
    3000022    2    3    3    0    0 -0.12881362994E+02 -0.11787897050E+02 -0.15101513459E+02  0.23086841098E+02  0.24998744610E+00 0.  0.
    1000022    2    1    0    0    0  0.23258377007E+02  0.33288173886E+02  0.46445616397E+02  0.62499999768E+02  0.10000003342E+02 0.  0.
    3000022    2    5    5    0    0  0.80341490364E+01  0.44409408490E+01  0.98014358438E+01  0.13431313831E+02  0.25008049956E+00 0.  0.
        -13    1    4    4    0    0 -0.62596263397E+01 -0.57109933814E+01 -0.74163790173E+01  0.11261086539E+02  0.10500000000E+00 0. -1.
         13    1    4    4    0    0 -0.66217366539E+01 -0.60769036687E+01 -0.76851344412E+01  0.11825754559E+02  0.10500000000E+00 0.  1.
    3000001    1    5    5    0    0  0.15224227970E+02  0.28847233037E+02  0.36644180553E+02  0.49068685937E+02  0.10000000000E+01 0.  1.
        -13    1    6    6    0    0  0.24725498621E+01  0.14011666145E+01  0.29802112892E+01  0.41193998386E+01  0.10500000000E+00 0. -1.
         13    1    6    6    0    0  0.55615991743E+01  0.30397742345E+01  0.68212245546E+01  0.93119139921E+01  0.10500000000E+00 0.  1.
</event>
<event>
11    0  0.3476221E-009  0.9118800E+02  0.7816531E-02  0.1126479E+00
         25   -1    0    0    0    0  0.00000000000E+00  0.00000000000E+00  0.99999998245E-14  0.12500000000E+03  0.12500000000E+03 0.  0.
    3000001    1    3    3    0    0  0.45958923707E+01  0.93733422115E+01  0.28968946687E+02  0.30808791651E+02  0.10000000000E+01 0.  1.
    1000022    2    1    0    0    0  0.17025820837E+02  0.23694073169E+02  0.54359568272E+02  0.62499998821E+02  0.99999755672E+01 0.  0.
    3000022    2    3    3    0    0  0.12429928467E+02  0.14320730957E+02  0.25390621586E+02  0.31691207169E+02  0.24998101265E+00 0.  0.
    1000022    2    1    0    0    0 -0.17025820837E+02 -0.23694073169E+02 -0.54359568272E+02  0.62500001179E+02  0.99999903075E+01 0.  0.
    3000022    2    5    5    0    0 -0.72713972931E+01 -0.39810060567E+01 -0.20471390062E+02  0.22087596945E+02  0.24999976541E+00 0.  0.
        -13    1    4    4    0    0  0.48965966894E+01  0.56019138229E+01  0.10057336102E+02  0.12510760652E+02  0.10500000000E+00 0.  1.
         13    1    4    4    0    0  0.75333317772E+01  0.87188171342E+01  0.15333285484E+02  0.19180446517E+02  0.10500000000E+00 0. -1.
    3000001    1    5    5    0    0 -0.97544235442E+01 -0.19713067112E+02 -0.33888178210E+02  0.40412404235E+02  0.10000000000E+01 0.  1.
        -13    1    6    6    0    0 -0.48423567154E+01 -0.27106852530E+01 -0.13724084178E+02  0.14803977324E+02  0.10500000000E+00 0. -1.
         13    1    6    6    0    0 -0.24290405777E+01 -0.12703208037E+01 -0.67473058848E+01  0.72836196204E+01  0.10500000000E+00 0.  1.
</event>
<event>
11    0  0.3476221E-009  0.9118800E+02  0.7816531E-02  0.1126479E+00
         25   -1    0    0    0    0  0.00000000000E+00  0.00000000000E+00  0.99999998245E-14  0.12500000000E+03  0.12500000000E+03 0.  0.
    3000001    1    3    3    0    0  0.11317498764E+02  0.46130827048E+01 -0.11633112935E+02  0.16902533150E+02  0.10000000000E+01 0. -1.
    1000022    2    1    0    0    0  0.31019165360E+02  0.28843183738E+02 -0.44856796974E+02  0.62500001748E+02  0.10000005798E+02 0.  0.
    3000022    2    3    3    0    0  0.19701666596E+02  0.24230101033E+02 -0.33223684039E+02  0.45597468598E+02  0.24999745285E+00 0.  0.
    1000022    2    1    0    0    0 -0.31019165360E+02 -0.28843183738E+02  0.44856796974E+02  0.62499998252E+02  0.99999839471E+01 0.  0.
    3000022    2    5    5    0    0 -0.16819398370E+02 -0.14524671374E+02  0.30444723737E+02  0.37693526639E+02  0.25001404920E+00 0.  0.
        -13    1    4    4    0    0  0.13069497613E+02  0.15987072082E+02 -0.21968917153E+02  0.30150333124E+02  0.10500000000E+00 0.  1.
         13    1    4    4    0    0  0.66321689836E+01  0.82430289509E+01 -0.11254766886E+02  0.15447135474E+02  0.10500000000E+00 0. -1.
    3000001    1    5    5    0    0 -0.14199766990E+02 -0.14318512364E+02  0.14412073237E+02  0.24806471613E+02  0.10000000000E+01 0.  1.
        -13    1    6    6    0    0 -0.54753588589E+01 -0.47375323160E+01  0.10007252555E+02  0.12352323497E+02  0.10500000000E+00 0.  1.
         13    1    6    6    0    0 -0.11344039511E+02 -0.97871390582E+01  0.20437471181E+02  0.25341203141E+02  0.10500000000E+00 0. -1.
</event>
<event>
11    0  0.3476221E-009  0.9118800E+02  0.7816531E-02  0.1126479E+00
         25   -1    0    0    0    0  0.00000000000E+00  0.00000000000E+00  0.99999998245E-14  0.12500000000E+03  0.12500000000E+03 0.  0.
    3000001    1    3    3    0    0 -0.13578808641E+02  0.36839887410E+02 -0.24718665692E+02  0.46406613560E+02  0.10000000000E+01 0.  1.
    1000022    2    1    0    0    0 -0.18679559304E+02  0.51771453483E+02 -0.27875452297E+02  0.62500001217E+02  0.99999989879E+01 0.  0.
    3000022    2    3    3    0    0 -0.51007506624E+01  0.14931566073E+02 -0.31567866050E+01  0.16093387657E+02  0.25000376340E+00 0.  0.
    1000022    2    1    0    0    0  0.18679559304E+02 -0.51771453483E+02  0.27875452297E+02  0.62499998783E+02  0.99999837799E+01 0.  0.
    3000022    2    5    5    0    0  0.18822314546E+02 -0.42435613929E+02  0.21574808283E+02  0.51191754258E+02  0.24999438685E+00 0.  0.
        -13    1    4    4    0    0 -0.31457571527E+01  0.93531761332E+01 -0.19354893357E+01  0.10056581716E+02  0.10500000000E+00 0.  1.
         13    1    4    4    0    0 -0.19549935097E+01  0.55783899400E+01 -0.12212972693E+01  0.60368059407E+01  0.10500000000E+00 0. -1.
    3000001    1    5    5    0    0 -0.14275524278E+00 -0.93358395545E+01  0.63006440139E+01  0.11308244525E+02  0.10000000000E+01 0. -1.
        -13    1    6    6    0    0  0.13834234957E+02 -0.31118650339E+02  0.15847756354E+02  0.37562199912E+02  0.10500000000E+00 0.  1.
         13    1    6    6    0    0  0.49880795894E+01 -0.11316963589E+02  0.57270519285E+01  0.13629554346E+02  0.10500000000E+00 0. -1.
</event>
<event>
11    0  0.3476221E-009  0.9118800E+02  0.7816531E-02  0.1126479E+00
         25   -1    0    0    0    0  0.00000000000E+00  0.00000000000E+00  0.99999998245E-14  0.12500000000E+03  0.12500000000E+03 0.  0.
    3000001    1    3    3    0    0 -0.98591909555E+00  0.63182404695E+00 -0.15457559331E+01  0.21818798074E+01  0.10000000000E+01 0. -1.
    1000022    2    1    0    0    0 -0.58310271244E+02 -0.35640127601E+01 -0.19835826813E+02  0.62499999708E+02  0.10000000934E+02 0.  0.
    3000022    2    3    3    0    0 -0.57324352149E+02 -0.41958368070E+01 -0.18290070880E+02  0.60318119901E+02  0.24999966607E+00 0.  0.
    1000022    2    1    0    0    0  0.58310271244E+02  0.35640127601E+01  0.19835826813E+02  0.62500000292E+02  0.10000004579E+02 0.  0.
    3000022    2    5    5    0    0  0.44932365838E+02  0.15295596737E+01  0.10926367179E+02  0.46267753886E+02  0.24999462017E+00 0.  0.
        -13    1    4    4    0    0 -0.23189251021E+02 -0.17598416675E+01 -0.74129184652E+01  0.24409030927E+02  0.10500000000E+00 0.  1.
         13    1    4    4    0    0 -0.34135101128E+02 -0.24359951395E+01 -0.10877152414E+02  0.35909088974E+02  0.10500000000E+00 0. -1.
    3000001    1    5    5    0    0  0.13377905407E+02  0.20344530864E+01  0.89094596333E+01  0.16232246406E+02  0.10000000000E+01 0.  1.
        -13    1    6    6    0    0  0.32524902326E+02  0.10768696835E+01  0.78847465331E+01  0.33484461658E+02  0.10500000000E+00 0. -1.
         13    1    6    6    0    0  0.12407463512E+02  0.45268999016E+00  0.30416206463E+01  0.12783292228E+02  0.10500000000E+00 0.  1.
</event>
<event>
11    0  0.3476221E-009  0.9118800E+02  0.7816531E-02  0.1126479E+00
         25   -1    0    0    0    0  0.00000000000E+00  0.00000000000E+00  0.99999998245E-14  0.12500000000E+03  0.12500000000E+03 0.  0.
    3000001    1    3    3    0    0 -0.31429790969E+00  0.25126019602E+02 -0.64789748639E+01  0.25969073135E+02  0.10000000000E+01 0.  1.
    1000022    2    1    0    0    0 -0.11205701057E+02  0.57330822423E+02 -0.19845875713E+02  0.62499998747E+02  0.10000006234E+02 0.  0.
    3000022    2    3    3    0    0 -0.10891403148E+02  0.32204802821E+02 -0.13366900850E+02  0.36530925612E+02  0.25000095230E+00 0.  0.
    1000022    2    1    0    0    0  0.11205701057E+02 -0.57330822423E+02  0.19845875713E+02  0.62500001253E+02  0.10000021898E+02 0.  0.
    3000022    2    5    5    0    0  0.92838777388E+01 -0.23182354177E+02  0.99279468587E+01  0.26874496328E+02  0.24998601093E+00 0.  0.
        -13    1    4    4    0    0 -0.45281034350E+01  0.13411745325E+02 -0.54968742177E+01  0.15185693417E+02  0.10500000000E+00 0. -1.
         13    1    4    4    0    0 -0.63632997128E+01  0.18793057496E+02 -0.78700266318E+01  0.21345232195E+02  0.10500000000E+00 0.  1.
    3000001    1    5    5    0    0  0.19218233187E+01 -0.34148468246E+02  0.99179288548E+01  0.35625504925E+02  0.10000000000E+01 0. -1.
        -13    1    6    6    0    0  0.23675768338E+01 -0.59046242666E+01  0.25604058676E+01  0.68583315027E+01  0.10500000000E+00 0.  1.
         13    1    6    6    0    0  0.69163009050E+01 -0.17277729910E+02  0.73675409911E+01  0.20016164825E+02  0.10500000000E+00 0. -1.
</event>
<event>
11    0  0.3476221E-009  0.9118800E+02  0.7816531E-02  0.1126479E+00
         25   -1    0    0    0    0  0.00000000000E+00  0.00000000000E+00  0.99999998245E-14  0.12500000000E+03  0.12500000000E+03 0.  0.
    3000001    1    3    3    0    0  0.18736434511E+02 -0.10740991734E+02 -0.32303348584E+02  0.38870672896E+02  0.10000000000E+01 0.  1.
    1000022    2    1    0    0    0  0.28213104638E+02 -0.24244827577E+02 -0.49218487770E+02  0.62500004084E+02  0.10000001730E+02 0.  0.
    3000022    2    3    3    0    0  0.94766701270E+01 -0.13503835843E+02 -0.16915139187E+02  0.23629331189E+02  0.24999913990E+00 0.  0.
    1000022    2    1    0    0    0 -0.28213104638E+02  0.24244827577E+02  0.49218487770E+02  0.62499995916E+02  0.99999506741E+01 0.  0.
    3000022    2    5    5    0    0 -0.36009916815E+00  0.80779511284E+00  0.56173571460E+01  0.56920475618E+01  0.24999957092E+00 0.  0.
        -13    1    4    4    0    0  0.27299567908E+01 -0.38635410818E+01 -0.47953803590E+01  0.67369363629E+01  0.10500000000E+00 0. -1.
         13    1    4    4    0    0  0.67467133362E+01 -0.96402947611E+01 -0.12119758828E+02  0.16892394826E+02  0.10500000000E+00 0.  1.
    3000001    1    5    5    0    0 -0.27853005470E+02  0.23437032464E+02  0.43601130624E+02  0.56807948354E+02  0.10000000000E+01 0.  1.
        -13    1    6    6    0    0 -0.15948916791E+00  0.25916202753E+00  0.22238581739E+01  0.22470362545E+01  0.10500000000E+00 0.  1.
         13    1    6    6    0    0 -0.20061000024E+00  0.54863308530E+00  0.33934989721E+01  0.34450113074E+01  0.10500000000E+00 0. -1.
</event>
<event>
11    0  0.3476221E-009  0.9118800E+02  0.7816531E-02  0.1126479E+00
         25   -1    0    0    0    0  0.00000000000E+00  0.00000000000E+00  0.99999998245E-14  0.12500000000E+03  0.12500000000E+03 0.  0.
    3000001    1    3    3    0    0  0.25099599215E+02  0.72727310103E+00 -0.41361705592E+02  0.48397412084E+02  0.10000000000E+01 0.  1.
    1000022    2    1    0    0    0  0.31969804441E+02  0.61795537024E+01 -0.52402240505E+02  0.62500000365E+02  0.99999977822E+01 0.  0.
    3000022    2    3    3    0    0  0.68702052262E+01  0.54522806014E+01 -0.11040534914E+02  0.14102588281E+02  0.25000289427E+00 0.  0.
    1000022    2    1    0    0    0 -0.31969804441E+02 -0.61795537024E+01  0.52402240505E+02  0.62499999635E+02  0.99999932205E+01 0.  0.
    3000022    2    5    5    0    0 -0.26077361080E+02 -0.91003709467E+00  0.40078060707E+02  0.47824370118E+02  0.24999727998E+00 0.  0.
        -13    1    4    4    0    0  0.51444407130E+01  0.41035976550E+01 -0.82483748792E+01  0.10552321882E+02  0.10500000000E+00 0.  1.
         13    1    4    4    0    0  0.17257645133E+01  0.13486829464E+01 -0.27921600344E+01  0.35502663989E+01  0.10500000000E+00 0. -1.
    3000001    1    5    5    0    0 -0.58924433611E+01 -0.52695166078E+01  0.12324179798E+02  0.14675629518E+02  0.10000000000E+01 0.  1.
        -13    1    6    6    0    0 -0.60814040466E+01 -0.22431701816E+00  0.93525795074E+01  0.11158654119E+02  0.10500000000E+00 0. -1.
         13    1    6    6    0    0 -0.19995957034E+02 -0.68572007651E+00  0.30725481200E+02  0.36665715999E+02  0.10500000000E+00 0.  1.
</event>
<event>
11    0  0.3476221E-009  0.9118800E+02  0.7816531E-02  0.1126479E+00
         25   -1    0    0    0    0  0.00000000000E+00  0.00000000000E+00  0.99999998245E-14  0.12500000000E+03  0.12500000000E+03 0.  0.
    3000001    1    3    3    0    0  0.19521098863E+00 -0.20628378679E+01 -0.32546457642E+01  0.39857403892E+01  0.10000000000E+01 0.  1.
    1000022    2    1    0    0    0 -0.29051890128E+02 -0.18009777084E+02 -0.51360346618E+02  0.62500001598E+02  0.10000030222E+02 0.  0.
    3000022    2    3    3    0    0 -0.29247101116E+02 -0.15946939216E+02 -0.48105700854E+02  0.58514261209E+02  0.25003224631E+00 0.  0.
    1000022    2    1    0    0    0  0.29051890128E+02  0.18009777084E+02  0.51360346618E+02  0.62499998402E+02  0.10000010241E+02 0.  0.
    3000022    2    5    5    0    0  0.17400646843E+02  0.14915033187E+02  0.38785896241E+02  0.45051625636E+02  0.24999946471E+00 0.  0.
        -13    1    4    4    0    0 -0.20716291844E+02 -0.11270049296E+02 -0.33990299444E+02  0.41370644667E+02  0.10500000000E+00 0. -1.
         13    1    4    4    0    0 -0.85308092721E+01 -0.46768899206E+01 -0.14115401410E+02  0.17143616542E+02  0.10500000000E+00 0.  1.
    3000001    1    5    5    0    0  0.11651243284E+02  0.30947438973E+01  0.12574450378E+02  0.17448372765E+02  0.10000000000E+01 0.  1.
        -13    1    6    6    0    0  0.99586142130E+01  0.84608256674E+01  0.22177523482E+02  0.25741273100E+02  0.10500000000E+00 0.  1.
         13    1    6    6    0    0  0.74420326304E+01  0.64542075197E+01  0.16608372758E+02  0.19310352536E+02  0.10500000000E+00 0. -1.
</event>
<event>
11    0  0.3476221E-009  0.9118800E+02  0.7816531E-02  0.1126479E+00
         25   -1    0    0    0    0  0.00000000000E+00  0.00000000000E+00  0.99999998245E-14  0.12500000000E+03  0.12500000000E+03 0.  0.
    3000001    1    3    3    0    0  0.11918165229E+02 -0.34541535214E+02  0.97506664813E+01  0.37831677391E+02  0.10000000000E+01 0. -1.
    1000022    2    1    0    0    0  0.18161943034E+02 -0.54122491253E+02  0.23391229857E+02  0.62499998617E+02  0.99999979366E+01 0.  0.
    3000022    2    3    3    0    0  0.62437778053E+01 -0.19580956039E+02  0.13640563376E+02  0.24668321227E+02  0.25000449120E+00 0.  0.
    1000022    2    1    0    0    0 -0.18161943034E+02  0.54122491253E+02 -0.23391229857E+02  0.62500001383E+02  0.10000015222E+02 0.  0.
    3000022    2    5    5    0    0 -0.69209394008E+01  0.18802679579E+02 -0.32360751119E+01  0.20297163538E+02  0.25000802720E+00 0.  0.
        -13    1    4    4    0    0  0.26311968177E+01 -0.80405483235E+01  0.56143658394E+01  0.10154099803E+02  0.10500000000E+00 0.  1.
         13    1    4    4    0    0  0.36125809876E+01 -0.11540407715E+02  0.80261975367E+01  0.14514221423E+02  0.10500000000E+00 0. -1.
    3000001    1    5    5    0    0 -0.11241003633E+02  0.35319811674E+02 -0.20155154746E+02  0.42202837845E+02  0.10000000000E+01 0. -1.
        -13    1    6    6    0    0 -0.36172008706E+01  0.96591897432E+01 -0.16304537926E+01  0.10442868054E+02  0.10500000000E+00 0. -1.
         13    1    6    6    0    0 -0.33037385302E+01  0.91434898356E+01 -0.16056213193E+01  0.98542954832E+01  0.10500000000E+00 0.  1.
</event>
<event>
11    0  0.3476221E-009  0.9118800E+02  0.7816531E-02  0.1126479E+00
         25   -1    0    0    0    0  0.00000000000E+00  0.00000000000E+00  0.99999998245E-14  0.12500000000E+03  0.12500000000E+03 0.  0.
    3000001    1    3    3    0    0  0.62697110544E+01 -0.46916331182E+00 -0.14779601714E+02  0.16092421128E+02  0.10000000000E+01 0. -1.
    1000022    2    1    0    0    0  0.10016839226E+02  0.60132063072E+01 -0.60578497062E+02  0.62500000242E+02  0.10000000286E+02 0.  0.
    3000022    2    3    3    0    0  0.37471281721E+01  0.64823696190E+01 -0.45798895348E+02  0.46407579114E+02  0.24999745484E+00 0.  0.
    1000022    2    1    0    0    0 -0.10016839226E+02 -0.60132063072E+01  0.60578497062E+02  0.62499999758E+02  0.99999972612E+01 0.  0.
    3000022    2    5    5    0    0 -0.70699400474E+01 -0.68087046317E-01  0.17084203029E+02  0.18491111210E+02  0.25002501874E+00 0.  0.
        -13    1    4    4    0    0  0.10374794353E+01  0.18769737044E+01 -0.13078879981E+02  0.13253962443E+02  0.10500000000E+00 0.  1.
         13    1    4    4    0    0  0.27096487368E+01  0.46053959146E+01 -0.32720015367E+02  0.33153616671E+02  0.10500000000E+00 0. -1.
    3000001    1    5    5    0    0 -0.29468991791E+01 -0.59451192608E+01  0.43494294033E+02  0.44008888548E+02  0.10000000000E+01 0. -1.
        -13    1    6    6    0    0 -0.45821955441E+01  0.12714657409E-01  0.11063081919E+02  0.11974952367E+02  0.10500000000E+00 0. -1.
         13    1    6    6    0    0 -0.24877445033E+01 -0.80801703726E-01  0.60211211105E+01  0.65161588422E+01  0.10500000000E+00 0.  1.
</event>
<event>
11    0  0.3476221E-009  0.9118800E+02  0.7816531E-02  0.1126479E+00
         25   -1    0    0    0    0  0.00000000000E+00  0.00000000000E+00  0.99999998245E-14  0.12500000000E+03  0.12500000000E+03 0.  0.
    3000001    1    3    3    0    0  0.30455089991E+02  0.81007992965E+01  0.26079717701E+02  0.40918053851E+02  0.10000000000E+01 0. -1.
    1000022    2    1    0    0    0  0.43861140866E+02  0.19013043821E+02  0.38999418161E+02  0.62500000987E+02  0.99999996503E+01 0.  0.
    3000022    2    3    3    0    0  0.13406050875E+02  0.10912244524E+02  0.12919700460E+02  0.21581947135E+02  0.25000310205E+00 0.  0.
    1000022    2    1    0    0    0 -0.43861140866E+02 -0.19013043821E+02 -0.38999418161E+02  0.62499999013E+02  0.99999873158E+01 0.  0.
    3000022    2    5    5    0    0 -0.31483627668E+02 -0.18247053283E+02 -0.29552261314E+02  0.46878272253E+02  0.24999201027E+00 0.  0.
        -13    1    4    4    0    0  0.43406746849E+01  0.34817759568E+01  0.41994126575E+01  0.69721095947E+01  0.10500000000E+00 0.  1.
         13    1    4    4    0    0  0.90653761901E+01  0.74304685675E+01  0.87202878029E+01  0.14609837541E+02  0.10500000000E+00 0. -1.
    3000001    1    5    5    0    0 -0.12377513198E+02 -0.76599053792E+00 -0.94471568472E+01  0.15621726760E+02  0.10000000000E+01 0.  1.
        -13    1    6    6    0    0 -0.16029887279E+02 -0.92709138398E+01 -0.14954003539E+02  0.23802108655E+02  0.10500000000E+00 0. -1.
         13    1    6    6    0    0 -0.15453740390E+02 -0.89761394431E+01 -0.14598257775E+02  0.23076163598E+02  0.10500000000E+00 0.  1.
</event>
<event>
11    0  0.3476221E-009  0.9118800E+02  0.7816531E-02  0.1126479E+00
         25   -1    0    0    0    0  0.00000000000E+00  0.00000000000E+00  0.99999998245E-14  0.12500000000E+03  0.12500000000E+03 0.  0.
    3000001    1    3    3    0    0  0.82498684396E+01  0.25864979406E+02  0.18650161004E+02  0.32952784319E+02  0.10000000000E+01 0. -1.
    1000022    2    1    0    0    0  0.73154696238E+01  0.47086355941E+02  0.39186852866E+02  0.62500003137E+02  0.99999971515E+01 0.  0.
    3000022    2    3    3    0    0 -0.93439881585E+00  0.21221376535E+02  0.20536691862E+02  0.29547218818E+02  0.25000809502E+00 0.  0.
    1000022    2    1    0    0    0 -0.73154696238E+01 -0.47086355941E+02 -0.39186852866E+02  0.62499996863E+02  0.99999579366E+01 0.  0.
    3000022    2    5    5    0    0 -0.46497916671E+01 -0.37465791096E+02 -0.25619588466E+02  0.45625999998E+02  0.24999530945E+00 0.  0.
        -13    1    4    4    0    0 -0.59011104659E+00  0.14389910486E+02  0.13885618563E+02  0.20005978674E+02  0.10500000000E+00 0.  1.
         13    1    4    4    0    0 -0.34428776926E+00  0.68314660494E+01  0.66510732995E+01  0.95412401441E+01  0.10500000000E+00 0. -1.
    3000001    1    5    5    0    0 -0.26656779567E+01 -0.96205648450E+01 -0.13567264400E+02  0.16873996865E+02  0.10000000000E+01 0.  1.
        -13    1    6    6    0    0 -0.13715886867E+01 -0.11417354357E+02 -0.78201469803E+01  0.13906939269E+02  0.10500000000E+00 0.  1.
         13    1    6    6    0    0 -0.32782029804E+01 -0.26048436738E+02 -0.17799441486E+02  0.31719060728E+02  0.10500000000E+00 0. -1.
</event>
<event>
11    0  0.3476221E-009  0.9118800E+02  0.7816531E-02  0.1126479E+00
         25   -1    0    0    0    0  0.00000000000E+00  0.00000000000E+00  0.99999998245E-14  0.12500000000E+03  0.12500000000E+03 0.  0.
    3000001    1    3    3    0    0 -0.30805527065E+02 -0.47877824920E+00  0.83764927039E+01  0.31943314737E+02  0.10000000000E+01 0.  1.
    1000022    2    1    0    0    0 -0.61157671209E+02  0.29482561986E+01  0.75694793165E+01  0.62499999522E+02  0.99999980344E+01 0.  0.
    3000022    2    3    3    0    0 -0.30352144144E+02  0.34270344478E+01 -0.80701338744E+00  0.30556684784E+02  0.24999028626E+00 0.  0.
    1000022    2    1    0    0    0  0.61157671209E+02 -0.29482561986E+01 -0.75694793165E+01  0.62500000478E+02  0.10000004016E+02 0.  0.
    3000022    2    5    5    0    0  0.52911497317E+02  0.22954178993E-01 -0.86415391173E+01  0.53613111980E+02  0.25000523487E+00 0.  0.
        -13    1    4    4    0    0 -0.19838953397E+02  0.22726240693E+01 -0.48205314748E+00  0.19974791421E+02  0.10500000000E+00 0.  1.
         13    1    4    4    0    0 -0.10513190747E+02  0.11544103785E+01 -0.32496023997E+00  0.10581893364E+02  0.10500000000E+00 0. -1.
    3000001    1    5    5    0    0  0.82461738925E+01 -0.29712103776E+01  0.10720598008E+01  0.88868884987E+01  0.10000000000E+01 0.  1.
        -13    1    6    6    0    0  0.30050443303E+02 -0.29948283182E-01 -0.48575399163E+01  0.30440708905E+02  0.10500000000E+00 0.  1.
         13    1    6    6    0    0  0.22861054014E+02  0.52902462175E-01 -0.37839992010E+01  0.23172403075E+02  0.10500000000E+00 0. -1.
</event>
<event>
11    0  0.3476221E-009  0.9118800E+02  0.7816531E-02  0.1126479E+00
         25   -1    0    0    0    0  0.00000000000E+00  0.00000000000E+00  0.99999998245E-14  0.12500000000E+03  0.12500000000E+03 0.  0.
    3000001    1    3    3    0    0  0.19363428561E+02  0.28361235981E+02  0.11716879769E+02  0.36298585972E+02  0.10000000000E+01 0. -1.
    1000022    2    1    0    0    0  0.25621738174E+02  0.52131289268E+02  0.20787142680E+02  0.62499998897E+02  0.99999886773E+01 0.  0.
    3000022    2    3    3    0    0  0.62583096128E+01  0.23770053287E+02  0.90702629111E+01  0.26201412926E+02  0.24999508485E+00 0.  0.
    1000022    2    1    0    0    0 -0.25621738174E+02 -0.52131289268E+02 -0.20787142680E+02  0.62500001103E+02  0.10000002462E+02 0.  0.
    3000022    2    5    5    0    0 -0.20399655430E+02 -0.47348224454E+02 -0.20020826693E+02  0.55307289695E+02  0.24998267713E+00 0.  0.
        -13    1    4    4    0    0  0.43195085486E+01  0.16533300302E+02  0.63419777125E+01  0.18227448512E+02  0.10500000000E+00 0. -1.
         13    1    4    4    0    0  0.19388010642E+01  0.72367529856E+01  0.27282851985E+01  0.79739644134E+01  0.10500000000E+00 0.  1.
    3000001    1    5    5    0    0 -0.52220827441E+01 -0.47830648137E+01 -0.76631598695E+00  0.71927114074E+01  0.10000000000E+01 0.  1.
        -13    1    6    6    0    0 -0.84043204929E+01 -0.19662735234E+02 -0.82844190610E+01  0.22932474441E+02  0.10500000000E+00 0.  1.
         13    1    6    6    0    0 -0.11995334937E+02 -0.27685489220E+02 -0.11736407632E+02  0.32374815254E+02  0.10500000000E+00 0. -1.
</event>
<event>
11    0  0.3476221E-009  0.9118800E+02  0.7816531E-02  0.1126479E+00
         25   -1    0    0    0    0  0.00000000000E+00  0.00000000000E+00  0.99999998245E-14  0.12500000000E+03  0.12500000000E+03 0.  0.
    3000001    1    3    3    0    0 -0.77147632342E+01 -0.11037255868E+02  0.17460092431E+02  0.22072458326E+02  0.10000000000E+01 0. -1.
    1000022    2    1    0    0    0 -0.33397875875E+02 -0.28305248307E+02  0.43470046296E+02  0.62499998888E+02  0.99999870698E+01 0.  0.
    3000022    2    3    3    0    0 -0.25683112641E+02 -0.17267992439E+02  0.26009953864E+02  0.40427540562E+02  0.24999613503E+00 0.  0.
    1000022    2    1    0    0    0  0.33397875875E+02  0.28305248307E+02 -0.43470046296E+02  0.62500001112E+02  0.10000000966E+02 0.  0.
    3000022    2    5    5    0    0  0.28121116101E+02  0.20318545989E+02 -0.37890918456E+02  0.51375331450E+02  0.24999655265E+00 0.  0.
        -13    1    4    4    0    0 -0.59753366260E+01 -0.40251282526E+01  0.60425086363E+01  0.94036823034E+01  0.10500000000E+00 0.  1.
         13    1    4    4    0    0 -0.19707776015E+02 -0.13242864187E+02  0.19967445228E+02  0.31023858259E+02  0.10500000000E+00 0. -1.
    3000001    1    5    5    0    0  0.52767597741E+01  0.79867023182E+01 -0.55791278398E+01  0.11124669662E+02  0.10000000000E+01 0.  1.
        -13    1    6    6    0    0  0.95025023899E+01  0.69217747257E+01 -0.12794832598E+02  0.17376054881E+02  0.10500000000E+00 0.  1.
         13    1    6    6    0    0  0.18618613711E+02  0.13396771264E+02 -0.25096085858E+02  0.33999276569E+02  0.10500000000E+00 0. -1.
</event>
<event>
11    0  0.3476221E-009  0.9118800E+02  0.7816531E-02  0.1126479E+00
         25   -1    0    0    0    0  0.00000000000E+00  0.00000000000E+00  0.99999998245E-14  0.12500000000E+03  0.12500000000E+03 0.  0.
    3000001    1    3    3    0    0  0.34933486572E+01  0.37937596699E+01 -0.86719225379E-01  0.52539144928E+01  0.10000000000E+01 0. -1.
    1000022    2    1    0    0    0  0.33642165793E+02  0.42932952963E+02  0.28830820929E+02  0.62499999465E+02  0.99999964134E+01 0.  0.
    3000022    2    3    3    0    0  0.30148817136E+02  0.39139193293E+02  0.28917540155E+02  0.57246084972E+02  0.24997938461E+00 0.  0.
    1000022    2    1    0    0    0 -0.33642165793E+02 -0.42932952963E+02 -0.28830820929E+02  0.62500000535E+02  0.10000003107E+02 0.  0.
    3000022    2    5    5    0    0 -0.33039702659E+01 -0.10154884149E+02 -0.41363862980E+01  0.11454697081E+02  0.25000402974E+00 0.  0.
        -13    1    4    4    0    0  0.16582732217E+02  0.21439660936E+02  0.15910444840E+02  0.31429275347E+02  0.10500000000E+00 0.  1.
         13    1    4    4    0    0  0.13566084919E+02  0.17699532356E+02  0.13007095315E+02  0.25816809625E+02  0.10500000000E+00 0. -1.
    3000001    1    5    5    0    0 -0.30338195527E+02 -0.32778068814E+02 -0.24694434631E+02  0.51045303455E+02  0.10000000000E+01 0.  1.
        -13    1    6    6    0    0 -0.92479063541E+00 -0.27865423790E+01 -0.11015590135E+01  0.31375967570E+01  0.10500000000E+00 0.  1.
         13    1    6    6    0    0 -0.23791796305E+01 -0.73683417697E+01 -0.30348272845E+01  0.83171003238E+01  0.10500000000E+00 0. -1.
</event>
<event>
11    0  0.3476221E-009  0.9118800E+02  0.7816531E-02  0.1126479E+00
         25   -1    0    0    0    0  0.00000000000E+00  0.00000000000E+00  0.99999998245E-14  0.12500000000E+03  0.12500000000E+03 0.  0.
    3000001    1    3    3    0    0  0.13418649998E+02  0.67997710602E+01  0.84146257732E+01  0.17265659013E+02  0.10000000000E+01 0.  1.
    1000022    2    1    0    0    0  0.37988400700E+02  0.36308437541E+02  0.32323810461E+02  0.62500000631E+02  0.10000006589E+02 0.  0.
    3000022    2    3    3    0    0  0.24569750702E+02  0.29508666481E+02  0.23909184688E+02  0.45234341619E+02  0.25000441451E+00 0.  0.
    1000022    2    1    0    0    0 -0.37988400700E+02 -0.36308437541E+02 -0.32323810461E+02  0.62499999369E+02  0.99999986988E+01 0.  0.
    3000022    2    5    5    0    0 -0.15616789580E+02 -0.16149225963E+02 -0.82521777906E+01  0.23934129808E+02  0.25003079924E+00 0.  0.
        -13    1    4    4    0    0  0.57640598843E+01  0.69212666102E+01  0.55921512811E+01  0.10602428910E+02  0.10500000000E+00 0.  1.
         13    1    4    4    0    0  0.18805690818E+02  0.22587399870E+02  0.18317033407E+02  0.34631912709E+02  0.10500000000E+00 0. -1.
    3000001    1    5    5    0    0 -0.22371611121E+02 -0.20159211578E+02 -0.24071632670E+02  0.38565869561E+02  0.10000000000E+01 0. -1.
        -13    1    6    6    0    0 -0.87874805153E+01 -0.90871015601E+01 -0.47137250251E+01  0.13491681036E+02  0.10500000000E+00 0.  1.
         13    1    6    6    0    0 -0.68293090645E+01 -0.70621244027E+01 -0.35384527654E+01  0.10442448772E+02  0.10500000000E+00 0. -1.
</event>
<event>
11    0  0.3476221E-009  0.9118800E+02  0.7816531E-02  0.1126479E+00
         25   -1    0    0    0    0  0.00000000000E+00  0.00000000000E+00  0.99999998245E-14  0.12500000000E+03  0.12500000000E+03 0.  0.
    3000001    1    3    3    0    0  0.10294208581E+02  0.87246529155E+00 -0.33536695458E+02  0.35106151430E+02  0.10000000000E+01 0. -1.
    1000022    2    1    0    0    0  0.26084098982E+02  0.15932473370E+00 -0.55909251108E+02  0.62500000319E+02  0.10000003819E+02 0.  0.
    3000022    2    3    3    0    0  0.15789890402E+02 -0.71314055785E+00 -0.22372555650E+02  0.27393848890E+02  0.25000462538E+00 0.  0.
    1000022    2    1    0    0    0 -0.26084098982E+02 -0.15932473370E+00  0.55909251108E+02  0.62499999681E+02  0.99999998250E+01 0.  0.
    3000022    2    5    5    0    0 -0.59960862480E+01 -0.16340245265E+01  0.23663261780E+02  0.24467029472E+02  0.24997338658E+00 0.  0.
        -13    1    4    4    0    0  0.12071866359E+02 -0.54773427756E+00 -0.17128985860E+02  0.20962899414E+02  0.10500000000E+00 0. -1.
         13    1    4    4    0    0  0.37180240422E+01 -0.16540628029E+00 -0.52435697902E+01  0.64309494758E+01  0.10500000000E+00 0. -1.
    3000001    1    5    5    0    0 -0.20088012734E+02  0.14746997928E+01  0.32245989328E+02  0.38032970208E+02  0.10000000000E+01 0. -1.
        -13    1    6    6    0    0 -0.45436803019E+01 -0.12157260398E+01  0.17886168641E+02  0.18494568774E+02  0.10500000000E+00 0. -1.
         13    1    6    6    0    0 -0.14524059461E+01 -0.41829848667E+00  0.57770931389E+01  0.59724606982E+01  0.10500000000E+00 0.  1.
</event>
<event>
11    0  0.3476221E-009  0.9118800E+02  0.7816531E-02  0.1126479E+00
         25   -1    0    0    0    0  0.00000000000E+00  0.00000000000E+00  0.99999998245E-14  0.12500000000E+03  0.12500000000E+03 0.  0.
    3000001    1    3    3    0    0 -0.10112892269E+02  0.16705424517E+02  0.28281852171E+02  0.34383207537E+02  0.10000000000E+01 0.  1.
    1000022    2    1    0    0    0 -0.98332194504E+01  0.28885850586E+02  0.53620569598E+02  0.62500001409E+02  0.10000006160E+02 0.  0.
    3000022    2    3    3    0    0  0.27967281832E+00  0.12180426069E+02  0.25338717427E+02  0.28116793871E+02  0.25000127349E+00 0.  0.
    1000022    2    1    0    0    0  0.98332194504E+01 -0.28885850586E+02 -0.53620569598E+02  0.62499998591E+02  0.99999885521E+01 0.  0.
    3000022    2    5    5    0    0  0.60068921531E+01 -0.26426652861E+02 -0.48642853166E+02  0.55683394237E+02  0.24998981288E+00 0.  0.
        -13    1    4    4    0    0  0.98817747703E-01  0.45367302740E+01  0.95763531085E+01  0.10597605880E+02  0.10500000000E+00 0. -1.
         13    1    4    4    0    0  0.18085507062E+00  0.76436957945E+01  0.15762364319E+02  0.17519187991E+02  0.10500000000E+00 0.  1.
    3000001    1    5    5    0    0  0.38263272973E+01 -0.24591977250E+01 -0.49777164323E+01  0.68166043539E+01  0.10000000000E+01 0. -1.
        -13    1    6    6    0    0  0.29761019541E+01 -0.12799225528E+02 -0.23547748066E+02  0.26966364622E+02  0.10500000000E+00 0. -1.
         13    1    6    6    0    0  0.30307901990E+01 -0.13627427333E+02 -0.25095105100E+02  0.28717029616E+02  0.10500000000E+00 0.  1.
</event>
<event>
11    0  0.3476221E-009  0.9118800E+02  0.7816531E-02  0.1126479E+00
         25   -1    0    0    0    0  0.00000000000E+00  0.00000000000E+00  0.99999998245E-14  0.12500000000E+03  0.12500000000E+03 0.  0.
    3000001    1    3    3    0    0  0.21042848367E+02  0.28879117935E+02 -0.42195945177E+02  0.55301923199E+02  0.10000000000E+01 0. -1.
    1000022    2    1    0    0    0  0.26603615350E+02  0.30974240636E+02 -0.46250340456E+02  0.62499998654E+02  0.99999953389E+01 0.  0.
    3000022    2    3    3    0    0  0.55607669828E+01  0.20951227011E+01 -0.40543952787E+01  0.71980754549E+01  0.25000121759E+00 0.  0.
    1000022    2    1    0    0    0 -0.26603615350E+02 -0.30974240636E+02  0.46250340456E+02  0.62500001346E+02  0.10000012165E+02 0.  0.
    3000022    2    5    5    0    0 -0.21048344943E+02 -0.29374205947E+02  0.38907685237E+02  0.53101292607E+02  0.25001241663E+00 0.  0.
        -13    1    4    4    0    0  0.22294363718E+01  0.87108007077E+00 -0.15656061875E+01  0.28620473022E+01  0.10500000000E+00 0. -1.
         13    1    4    4    0    0  0.33313306110E+01  0.12240426303E+01 -0.24887890912E+01  0.43360281527E+01  0.10500000000E+00 0.  1.
    3000001    1    5    5    0    0 -0.55552704064E+01 -0.16000346899E+01  0.73426552193E+01  0.93987087393E+01  0.10000000000E+01 0. -1.
        -13    1    6    6    0    0 -0.10832745146E+02 -0.15202610711E+02  0.20030507282E+02  0.27380649861E+02  0.10500000000E+00 0. -1.
         13    1    6    6    0    0 -0.10215599797E+02 -0.14171595235E+02  0.18877177955E+02  0.25720642746E+02  0.10500000000E+00 0.  1.
</event>
<event>
11    0  0.3476221E-009  0.9118800E+02  0.7816531E-02  0.1126479E+00
         25   -1    0    0    0    0  0.00000000000E+00  0.00000000000E+00  0.99999998245E-14  0.12500000000E+03  0.12500000000E+03 0.  0.
    3000001    1    3    3    0    0  0.74056551999E+00  0.19412494893E+01 -0.11805118918E+00  0.23088574993E+01  0.10000000000E+01 0. -1.
    1000022    2    1    0    0    0  0.55237802572E+02  0.27394662382E+02  0.21371780130E+01  0.62499999951E+02  0.10000005197E+02 0.  0.
    3000022    2    3    3    0    0  0.54497237052E+02  0.25453412893E+02  0.22552292022E+01  0.60191142452E+02  0.24999325607E+00 0.  0.
    1000022    2    1    0    0    0 -0.55237802572E+02 -0.27394662382E+02 -0.21371780130E+01  0.62500000049E+02  0.10000005811E+02 0.  0.
    3000022    2    5    5    0    0 -0.37460490202E+02 -0.17037902153E+02  0.30239796862E+01  0.41264820126E+02  0.24998193088E+00 0.  0.
        -13    1    4    4    0    0  0.31314865110E+02  0.14656324724E+02  0.12372612305E+01  0.34597261042E+02  0.10500000000E+00 0. -1.
         13    1    4    4    0    0  0.23182371943E+02  0.10797088169E+02  0.10179679716E+01  0.25593881409E+02  0.10500000000E+00 0.  1.
    3000001    1    5    5    0    0 -0.17777312371E+02 -0.10356760229E+02 -0.51611576992E+01  0.21235179923E+02  0.10000000000E+01 0. -1.
        -13    1    6    6    0    0 -0.14138251925E+02 -0.64381504783E+01  0.12018001108E+01  0.15581890052E+02  0.10500000000E+00 0. -1.
         13    1    6    6    0    0 -0.23322238276E+02 -0.10599751675E+02  0.18221795754E+01  0.25682930074E+02  0.10500000000E+00 0.  1.
</event>
<event>
11    0  0.3476221E-009  0.9118800E+02  0.7816531E-02  0.1126479E+00
         25   -1    0    0    0    0  0.00000000000E+00  0.00000000000E+00  0.99999998245E-14  0.12500000000E+03  0.12500000000E+03 0.  0.
    3000001    1    3    3    0    0  0.15115420169E+02  0.21929168169E+02 -0.18930407225E+02  0.32691354532E+02  0.10000000000E+01 0. -1.
    1000022    2    1    0    0    0  0.31684999452E+02  0.45090297849E+02 -0.27734024111E+02  0.62499995210E+02  0.99999578768E+01 0.  0.
    3000022    2    3    3    0    0  0.16569579283E+02  0.23161129680E+02 -0.88036168861E+01  0.29808640678E+02  0.25000624906E+00 0.  0.
    1000022    2    1    0    0    0 -0.31684999452E+02 -0.45090297849E+02  0.27734024111E+02  0.62500004790E+02  0.10000017754E+02 0.  0.
    3000022    2    5    5    0    0 -0.28608419190E+02 -0.35172988047E+02  0.20218461289E+02  0.49643019750E+02  0.24999250709E+00 0.  0.
        -13    1    4    4    0    0  0.46435476785E+01  0.65546644543E+01 -0.24667729642E+01  0.84036988885E+01  0.10500000000E+00 0. -1.
         13    1    4    4    0    0  0.11926031604E+02  0.16606465225E+02 -0.63368439219E+01  0.21404941789E+02  0.10500000000E+00 0.  1.
    3000001    1    5    5    0    0 -0.30765802612E+01 -0.99173098016E+01  0.75155628219E+01  0.12856985041E+02  0.10000000000E+01 0.  1.
        -13    1    6    6    0    0 -0.15531252614E+02 -0.18999695010E+02  0.10975662641E+02  0.26882790287E+02  0.10500000000E+00 0. -1.
         13    1    6    6    0    0 -0.13077166576E+02 -0.16173293037E+02  0.92427986475E+01  0.22760229462E+02  0.10500000000E+00 0.  1.
</event>
<event>
11    0  0.3476221E-009  0.9118800E+02  0.7816531E-02  0.1126479E+00
         25   -1    0    0    0    0  0.00000000000E+00  0.00000000000E+00  0.99999998245E-14  0.12500000000E+03  0.12500000000E+03 0.  0.
    3000001    1    3    3    0    0  0.35709620510E+01 -0.36909074814E+02  0.47652210862E+02  0.60388449008E+02  0.10000000000E+01 0. -1.
    1000022    2    1    0    0    0  0.52931411662E+01 -0.37707924194E+02  0.48542199144E+02  0.62499999246E+02  0.99999958797E+01 0.  0.
    3000022    2    3    3    0    0  0.17221791152E+01 -0.79884938050E+00  0.88998828217E+00  0.21115502381E+01  0.25000805633E+00 0.  0.
    1000022    2    1    0    0    0 -0.52931411662E+01  0.37707924194E+02 -0.48542199144E+02  0.62500000754E+02  0.10000005300E+02 0.  0.
    3000022    2    5    5    0    0 -0.77090749963E+01  0.32098297919E+02 -0.38627772889E+02  0.50812379473E+02  0.25000558862E+00 0.  0.
        -13    1    4    4    0    0  0.78126902091E+00 -0.43471656773E+00  0.43558052250E+00  0.10000575828E+01  0.10500000000E+00 0.  1.
         13    1    4    4    0    0  0.94091009429E+00 -0.36413281277E+00  0.45440775966E+00  0.11114926554E+01  0.10500000000E+00 0. -1.
    3000001    1    5    5    0    0  0.24159338301E+01  0.56096262758E+01 -0.99144262550E+01  0.11687621280E+02  0.10000000000E+01 0.  1.
        -13    1    6    6    0    0 -0.25019476942E+01  0.10203621903E+02 -0.12283410996E+02  0.16163751202E+02  0.10500000000E+00 0. -1.
         13    1    6    6    0    0 -0.52071273021E+01  0.21894676016E+02 -0.26344361893E+02  0.34648628272E+02  0.10500000000E+00 0.  1.
</event>
<event>
11    0  0.3476221E-009  0.9118800E+02  0.7816531E-02  0.1126479E+00
         25   -1    0    0    0    0  0.00000000000E+00  0.00000000000E+00  0.99999998245E-14  0.12500000000E+03  0.12500000000E+03 0.  0.
    3000001    1    3    3    0    0 -0.76419035332E+01 -0.78540746582E+01 -0.10501289145E+01  0.11053865798E+02  0.10000000000E+01 0. -1.
    1000022    2    1    0    0    0 -0.29792268580E+02 -0.49725864978E+02 -0.21118929659E+02  0.62500000304E+02  0.99999966573E+01 0.  0.
    3000022    2    3    3    0    0 -0.22150365047E+02 -0.41871790320E+02 -0.20068800745E+02  0.51446134506E+02  0.24999201899E+00 0.  0.
    1000022    2    1    0    0    0  0.29792268580E+02  0.49725864978E+02  0.21118929659E+02  0.62499999696E+02  0.99999928556E+01 0.  0.
    3000022    2    5    5    0    0  0.11847879446E+02  0.28750792268E+02  0.93204100805E+01  0.32464023920E+02  0.25000317900E+00 0.  0.
        -13    1    4    4    0    0 -0.71144004006E+01 -0.13343267295E+02 -0.64187477941E+01  0.16427684663E+02  0.10500000000E+00 0.  1.
         13    1    4    4    0    0 -0.15035964646E+02 -0.28528523025E+02 -0.13650052951E+02  0.35018449843E+02  0.10500000000E+00 0. -1.
    3000001    1    5    5    0    0  0.17944389134E+02  0.20975072710E+02  0.11798519579E+02  0.30035975776E+02  0.10000000000E+01 0.  1.
        -13    1    6    6    0    0  0.50426073982E+01  0.12212474924E+02  0.38928621020E+01  0.13774535691E+02  0.10500000000E+00 0.  1.
         13    1    6    6    0    0  0.68052720475E+01  0.16538317344E+02  0.54275479785E+01  0.18689488229E+02  0.10500000000E+00 0. -1.
</event>
<event>
11    0  0.3476221E-009  0.9118800E+02  0.7816531E-02  0.1126479E+00
         25   -1    0    0    0    0  0.00000000000E+00  0.00000000000E+00  0.99999998245E-14  0.12500000000E+03  0.12500000000E+03 0.  0.
    3000001    1    3    3    0    0 -0.14500796093E+02 -0.40069560562E+01  0.16901141852E+02  0.22649003953E+02  0.10000000000E+01 0.  1.
    1000022    2    1    0    0    0 -0.47680446282E+02 -0.37516594007E+01  0.38971145240E+02  0.62500000174E+02  0.99999977272E+01 0.  0.
    3000022    2    3    3    0    0 -0.33179650190E+02  0.25529665551E+00  0.22070003388E+02  0.39850996221E+02  0.24997442238E+00 0.  0.
    1000022    2    1    0    0    0  0.47680446282E+02  0.37516594007E+01 -0.38971145240E+02  0.62499999826E+02  0.99999955484E+01 0.  0.
    3000022    2    5    5    0    0  0.98564973166E+01  0.35423030492E+01 -0.48311754814E+01  0.11536949676E+02  0.25000210637E+00 0.  0.
        -13    1    4    4    0    0 -0.14689342430E+02  0.17455928042E+00  0.97416925388E+01  0.17627219023E+02  0.10500000000E+00 0. -1.
         13    1    4    4    0    0 -0.18490307759E+02  0.80737375091E-01  0.12328310849E+02  0.22223777198E+02  0.10500000000E+00 0.  1.
    3000001    1    5    5    0    0  0.37823948966E+02  0.20935635157E+00 -0.34139969758E+02  0.50963050150E+02  0.10000000000E+01 0.  1.
        -13    1    6    6    0    0  0.75133302905E+01  0.26921074693E+01 -0.36982387718E+01  0.87969068253E+01  0.10500000000E+00 0. -1.
         13    1    6    6    0    0  0.23431670261E+01  0.85019557986E+00 -0.11329367097E+01  0.27400428508E+01  0.10500000000E+00 0.  1.
</event>
<event>
11    0  0.3476221E-009  0.9118800E+02  0.7816531E-02  0.1126479E+00
         25   -1    0    0    0    0  0.00000000000E+00  0.00000000000E+00  0.99999998245E-14  0.12500000000E+03  0.12500000000E+03 0.  0.
    3000001    1    3    3    0    0  0.49359082976E+02  0.18842663214E+02  0.16283025148E+02  0.55294682721E+02  0.10000000000E+01 0. -1.
    1000022    2    1    0    0    0  0.55463647257E+02  0.18128157658E+02  0.20035052109E+02  0.62499988428E+02  0.99999486688E+01 0.  0.
    3000022    2    3    3    0    0  0.61045642802E+01 -0.71450555672E+00  0.37520269607E+01  0.72053057063E+01  0.25000152909E+00 0.  0.
    1000022    2    1    0    0    0 -0.55463647257E+02 -0.18128157658E+02 -0.20035052109E+02  0.62500011572E+02  0.10000093322E+02 0.  0.
    3000022    2    5    5    0    0 -0.27009539836E+01 -0.29763388242E+01 -0.29737738745E+01  0.50059542238E+01  0.25000283231E+00 0.  0.
        -13    1    4    4    0    0  0.33180780857E+01 -0.34143992830E+00  0.20921390450E+01  0.39388188828E+01  0.10500000000E+00 0. -1.
         13    1    4    4    0    0  0.27864861945E+01 -0.37306562842E+00  0.16598879158E+01  0.32664868235E+01  0.10500000000E+00 0.  1.
    3000001    1    5    5    0    0 -0.52762693273E+02 -0.15151818834E+02 -0.17061278235E+02  0.57494057348E+02  0.10000000000E+01 0. -1.
        -13    1    6    6    0    0 -0.17256276329E+01 -0.19846163398E+01 -0.19407806408E+01  0.32701907038E+01  0.10500000000E+00 0.  1.
         13    1    6    6    0    0 -0.97532635077E+00 -0.99172248446E+00 -0.10329932338E+01  0.17357635201E+01  0.10500000000E+00 0. -1.
</event>
<event>
11    0  0.3476221E-009  0.9118800E+02  0.7816531E-02  0.1126479E+00
         25   -1    0    0    0    0  0.00000000000E+00  0.00000000000E+00  0.99999998245E-14  0.12500000000E+03  0.12500000000E+03 0.  0.
    3000001    1    3    3    0    0 -0.22139901154E+02 -0.22670588226E+02 -0.27339020211E+02  0.41863502239E+02  0.10000000000E+01 0.  1.
    1000022    2    1    0    0    0 -0.26889205100E+02 -0.33805157671E+02 -0.44050335383E+02  0.62500000992E+02  0.10000002031E+02 0.  0.
    3000022    2    3    3    0    0 -0.47493039453E+01 -0.11134569445E+02 -0.16711315172E+02  0.20636498753E+02  0.25000262556E+00 0.  0.
    1000022    2    1    0    0    0  0.26889205100E+02  0.33805157671E+02  0.44050335383E+02  0.62499999008E+02  0.99999896348E+01 0.  0.
    3000022    2    5    5    0    0  0.21878931493E+02  0.26780117777E+02  0.40115439109E+02  0.52963886812E+02  0.24999998607E+00 0.  0.
        -13    1    4    4    0    0 -0.36067026014E+01 -0.83999988448E+01 -0.12605769414E+02  0.15571921261E+02  0.10500000000E+00 0. -1.
         13    1    4    4    0    0 -0.11426013439E+01 -0.27345706003E+01 -0.41055457575E+01  0.50645774914E+01  0.10500000000E+00 0.  1.
    3000001    1    5    5    0    0  0.50102736069E+01  0.70250398941E+01  0.39348962740E+01  0.95361121961E+01  0.10000000000E+01 0.  1.
        -13    1    6    6    0    0  0.14829808731E+02  0.18102308224E+02  0.27208306508E+02  0.35887598946E+02  0.10500000000E+00 0. -1.
         13    1    6    6    0    0  0.70491227620E+01  0.86778095521E+01  0.12907132600E+02  0.17076287867E+02  0.10500000000E+00 0.  1.
</event>
<event>
11    0  0.3476221E-009  0.9118800E+02  0.7816531E-02  0.1126479E+00
         25   -1    0    0    0    0  0.00000000000E+00  0.00000000000E+00  0.99999998245E-14  0.12500000000E+03  0.12500000000E+03 0.  0.
    3000001    1    3    3    0    0  0.22267189697E+02 -0.27341751729E+02  0.14917067586E+02  0.38300365925E+02  0.10000000000E+01 0. -1.
    1000022    2    1    0    0    0  0.41123596083E+02 -0.42043117686E+02  0.18640709683E+02  0.62499998888E+02  0.99999951970E+01 0.  0.
    3000022    2    3    3    0    0  0.18856406386E+02 -0.14701365957E+02  0.37236420964E+01  0.24199632963E+02  0.25000455190E+00 0.  0.
    1000022    2    1    0    0    0 -0.41123596083E+02  0.42043117686E+02 -0.18640709683E+02  0.62500001112E+02  0.10000009103E+02 0.  0.
    3000022    2    5    5    0    0  0.29664835965E+00 -0.23753785822E+00 -0.20233856838E+00  0.49787201796E+00  0.25002233228E+00 0.  0.
        -13    1    4    4    0    0  0.12920447906E+02 -0.10014488595E+02  0.25641986734E+01  0.16547328961E+02  0.10500000000E+00 0. -1.
         13    1    4    4    0    0  0.59359584804E+01 -0.46868773623E+01  0.11594434230E+01  0.76523040021E+01  0.10500000000E+00 0.  1.
    3000001    1    5    5    0    0 -0.41420244443E+02  0.42280655544E+02 -0.18438371114E+02  0.62002129095E+02  0.10000000000E+01 0.  1.
        -13    1    6    6    0    0  0.70279131639E-01 -0.46160322540E-01 -0.24929928766E-01  0.13680801537E+00  0.10500000000E+00 0.  1.
         13    1    6    6    0    0  0.22636922801E+00 -0.19137753568E+00 -0.17740863962E+00  0.36106400259E+00  0.10500000000E+00 0. -1.
</event>
<event>
11    0  0.3476221E-009  0.9118800E+02  0.7816531E-02  0.1126479E+00
         25   -1    0    0    0    0  0.00000000000E+00  0.00000000000E+00  0.99999998245E-14  0.12500000000E+03  0.12500000000E+03 0.  0.
    3000001    1    3    3    0    0 -0.26391562594E+02 -0.50656712435E+02 -0.32069536352E+01  0.57218018513E+02  0.10000000000E+01 0.  1.
    1000022    2    1    0    0    0 -0.30952312407E+02 -0.53290282500E+02 -0.28896435776E+01  0.62499998125E+02  0.99999936672E+01 0.  0.
    3000022    2    3    3    0    0 -0.45607498130E+01 -0.26335700651E+01  0.31731005766E+00  0.52819796126E+01  0.24998562048E+00 0.  0.
    1000022    2    1    0    0    0  0.30952312407E+02  0.53290282500E+02  0.28896435776E+01  0.62500001875E+02  0.10000017101E+02 0.  0.
    3000022    2    5    5    0    0  0.20160853640E+02  0.32834276762E+02  0.64858802788E+01  0.39072738451E+02  0.24999425899E+00 0.  0.
        -13    1    4    4    0    0 -0.34368304235E+01 -0.19694448544E+01  0.26003227437E+00  0.39710399366E+01  0.10500000000E+00 0.  1.
         13    1    4    4    0    0 -0.11239193895E+01 -0.66412521067E+00  0.57277783292E-01  0.13109396760E+01  0.10500000000E+00 0. -1.
    3000001    1    5    5    0    0  0.10791458767E+02  0.20456005739E+02 -0.35962367013E+01  0.23427263423E+02  0.10000000000E+01 0.  1.
        -13    1    6    6    0    0  0.66556654650E+01  0.10816471938E+02  0.21900123153E+01  0.12888022615E+02  0.10500000000E+00 0. -1.
         13    1    6    6    0    0  0.13505188175E+02  0.22017804823E+02  0.42958679636E+01  0.26184715837E+02  0.10500000000E+00 0.  1.
</event>
<event>
11    0  0.3476221E-009  0.9118800E+02  0.7816531E-02  0.1126479E+00
         25   -1    0    0    0    0  0.00000000000E+00  0.00000000000E+00  0.99999998245E-14  0.12500000000E+03  0.12500000000E+03 0.  0.
    3000001    1    3    3    0    0 -0.42253502047E+02  0.42093064068E+02  0.15848723789E+02  0.61720065810E+02  0.10000000000E+01 0. -1.
    1000022    2    1    0    0    0 -0.41830625701E+02  0.42267501204E+02  0.16428845219E+02  0.62499998714E+02  0.99999989766E+01 0.  0.
    3000022    2    3    3    0    0  0.42287634618E+00  0.17443713607E+00  0.58012142951E+00  0.77993290430E+00  0.25000348723E+00 0.  0.
    1000022    2    1    0    0    0  0.41830625701E+02 -0.42267501204E+02 -0.16428845219E+02  0.62500001286E+02  0.10000015049E+02 0.  0.
    3000022    2    5    5    0    0  0.54831805975E+01 -0.25130316762E+01 -0.39000153217E+01  0.71870173531E+01  0.25000250762E+00 0.  0.
        -13    1    4    4    0    0  0.13790191550E+00  0.57605741324E-01  0.29668320552E+00  0.34839816901E+00  0.10500000000E+00 0. -1.
         13    1    4    4    0    0  0.28497443068E+00  0.11683139475E+00  0.28343822399E+00  0.43153473529E+00  0.10500000000E+00 0.  1.
    3000001    1    5    5    0    0  0.36347445103E+02 -0.39754469528E+02 -0.12528829897E+02  0.55312983933E+02  0.10000000000E+01 0. -1.
        -13    1    6    6    0    0  0.28182722428E+01 -0.12690204224E+01 -0.19215144315E+01  0.36409221328E+01  0.10500000000E+00 0.  1.
         13    1    6    6    0    0  0.26649083547E+01 -0.12440112538E+01 -0.19785008902E+01  0.35460952203E+01  0.10500000000E+00 0. -1.
</event>
<event>
11    0  0.3476221E-009  0.9118800E+02  0.7816531E-02  0.1126479E+00
         25   -1    0    0    0    0  0.00000000000E+00  0.00000000000E+00  0.99999998245E-14  0.12500000000E+03  0.12500000000E+03 0.  0.
    3000001    1    3    3    0    0 -0.29736400223E+02 -0.20155145262E+01  0.15312701485E+02  0.33523046159E+02  0.10000000000E+01 0.  1.
    1000022    2    1    0    0    0 -0.55836774254E+02  0.50037766801E+01  0.25757857606E+02  0.62499998406E+02  0.99999716050E+01 0.  0.
    3000022    2    3    3    0    0 -0.26100374031E+02  0.70192912063E+01  0.10445156120E+02  0.28976952246E+02  0.25000299537E+00 0.  0.
    1000022    2    1    0    0    0  0.55836774254E+02 -0.50037766801E+01 -0.25757857606E+02  0.62500001594E+02  0.99999915353E+01 0.  0.
    3000022    2    5    5    0    0  0.14218325793E+02  0.13690727024E+01 -0.10403800474E+02  0.17673050639E+02  0.25001233446E+00 0.  0.
        -13    1    4    4    0    0 -0.12880084958E+02  0.35340215333E+01  0.51577181933E+01  0.14317785398E+02  0.10500000000E+00 0.  1.
         13    1    4    4    0    0 -0.13220289073E+02  0.34852696730E+01  0.52874379270E+01  0.14659166849E+02  0.10500000000E+00 0. -1.
    3000001    1    5    5    0    0  0.41618448461E+02 -0.63728493825E+01 -0.15354057132E+02  0.44826950956E+02  0.10000000000E+01 0. -1.
        -13    1    6    6    0    0  0.60081577819E+01  0.64372815124E+00 -0.44063510330E+01  0.74792580040E+01  0.10500000000E+00 0. -1.
         13    1    6    6    0    0  0.82101680109E+01  0.72534455114E+00 -0.59974494406E+01  0.10193792635E+02  0.10500000000E+00 0.  1.
</event>
<event>
11    0  0.3476221E-009  0.9118800E+02  0.7816531E-02  0.1126479E+00
         25   -1    0    0    0    0  0.00000000000E+00  0.00000000000E+00  0.99999998245E-14  0.12500000000E+03  0.12500000000E+03 0.  0.
    3000001    1    3    3    0    0 -0.22150129091E+02  0.16584048390E+02  0.25768751270E+01  0.27808257140E+02  0.10000000000E+01 0. -1.
    1000022    2    1    0    0    0 -0.45209635613E+02  0.41862383101E+02 -0.31432123302E+01  0.62499998928E+02  0.99999905531E+01 0.  0.
    3000022    2    3    3    0    0 -0.23059506523E+02  0.25278334711E+02 -0.57200874572E+01  0.34691741788E+02  0.25000190133E+00 0.  0.
    1000022    2    1    0    0    0  0.45209635613E+02 -0.41862383101E+02  0.31432123302E+01  0.62500001072E+02  0.10000003957E+02 0.  0.
    3000022    2    5    5    0    0  0.29566371059E+01 -0.46532948063E+01  0.28007329607E+01  0.61888172216E+01  0.24999590847E+00 0.  0.
        -13    1    4    4    0    0 -0.68931106314E+01  0.76235271390E+01 -0.17262142770E+01  0.10422282905E+02  0.10500000000E+00 0. -1.
         13    1    4    4    0    0 -0.16166395891E+02  0.17654807572E+02 -0.39938731801E+01  0.24269458883E+02  0.10500000000E+00 0.  1.
    3000001    1    5    5    0    0  0.42252998507E+02 -0.37209088295E+02  0.34247936947E+00  0.56311183851E+02  0.10000000000E+01 0. -1.
        -13    1    6    6    0    0  0.92171765156E+00 -0.13999211403E+01  0.80959944071E+00  0.18643548167E+01  0.10500000000E+00 0.  1.
         13    1    6    6    0    0  0.20349194544E+01 -0.32533736660E+01  0.19911335200E+01  0.43244624049E+01  0.10500000000E+00 0. -1.
</event>
<event>
11    0  0.3476221E-009  0.9118800E+02  0.7816531E-02  0.1126479E+00
         25   -1    0    0    0    0  0.00000000000E+00  0.00000000000E+00  0.99999998245E-14  0.12500000000E+03  0.12500000000E+03 0.  0.
    3000001    1    3    3    0    0  0.27845536809E+01  0.44330055965E+01  0.32419093867E+02  0.32854267988E+02  0.10000000000E+01 0.  1.
    1000022    2    1    0    0    0 -0.15965228484E+01  0.20397707042E+01  0.61640415870E+02  0.62500002237E+02  0.99999930627E+01 0.  0.
    3000022    2    3    3    0    0 -0.43810765292E+01 -0.23932348923E+01  0.29221322002E+02  0.29645734249E+02  0.24998958638E+00 0.  0.
    1000022    2    1    0    0    0  0.15965228484E+01 -0.20397707042E+01 -0.61640415870E+02  0.62499997763E+02  0.99999651038E+01 0.  0.
    3000022    2    5    5    0    0 -0.27853108579E+01  0.52145447596E+00 -0.44625571040E+02  0.44716148753E+02  0.24999454368E+00 0.  0.
        -13    1    4    4    0    0 -0.26949106857E+01 -0.14424472454E+01  0.17551217305E+02  0.17815708000E+02  0.10500000000E+00 0. -1.
         13    1    4    4    0    0 -0.16861658436E+01 -0.95078764694E+00  0.11670104698E+02  0.11830026249E+02  0.10500000000E+00 0.  1.
    3000001    1    5    5    0    0  0.43818337063E+01 -0.25612251801E+01 -0.17014844830E+02  0.17783849011E+02  0.10000000000E+01 0. -1.
        -13    1    6    6    0    0 -0.74325727683E+00  0.13743608128E+00 -0.12533247948E+02  0.12556458465E+02  0.10500000000E+00 0.  1.
         13    1    6    6    0    0 -0.20420535811E+01  0.38401839469E+00 -0.32092323092E+02  0.32159690288E+02  0.10500000000E+00 0. -1.
</event>
<event>
11    0  0.3476221E-009  0.9118800E+02  0.7816531E-02  0.1126479E+00
         25   -1    0    0    0    0  0.00000000000E+00  0.00000000000E+00  0.99999998245E-14  0.12500000000E+03  0.12500000000E+03 0.  0.
    3000001    1    3    3    0    0  0.20634339869E+02  0.64393753850E+01  0.15262095199E+02  0.26479673092E+02  0.10000000000E+01 0.  1.
    1000022    2    1    0    0    0  0.40457008338E+02  0.15093594980E+02  0.44064313575E+02  0.62500000490E+02  0.10000009864E+02 0.  0.
    3000022    2    3    3    0    0  0.19822668469E+02  0.86542195945E+01  0.28802218376E+02  0.36020327398E+02  0.25000087371E+00 0.  0.
    1000022    2    1    0    0    0 -0.40457008338E+02 -0.15093594980E+02 -0.44064313575E+02  0.62499999510E+02  0.10000003743E+02 0.  0.
    3000022    2    5    5    0    0 -0.32774380766E+02 -0.83061551337E+01 -0.31074675658E+02  0.45922219221E+02  0.25000660808E+00 0.  0.
        -13    1    4    4    0    0  0.49866070334E+01  0.21477349411E+01  0.72276453580E+01  0.90404036140E+01  0.10500000000E+00 0.  1.
         13    1    4    4    0    0  0.14836061435E+02  0.65064846534E+01  0.21574573018E+02  0.26979923784E+02  0.10500000000E+00 0. -1.
    3000001    1    5    5    0    0 -0.76826275719E+01 -0.67874398458E+01 -0.12989637918E+02  0.16577780289E+02  0.10000000000E+01 0.  1.
        -13    1    6    6    0    0 -0.17500270537E+02 -0.43728103383E+01 -0.16538343855E+02  0.24472612889E+02  0.10500000000E+00 0. -1.
         13    1    6    6    0    0 -0.15274110229E+02 -0.39333447954E+01 -0.14536331802E+02  0.21449606333E+02  0.10500000000E+00 0.  1.
</event>
<event>
11    0  0.3476221E-009  0.9118800E+02  0.7816531E-02  0.1126479E+00
         25   -1    0    0    0    0  0.00000000000E+00  0.00000000000E+00  0.99999998245E-14  0.12500000000E+03  0.12500000000E+03 0.  0.
    3000001    1    3    3    0    0 -0.64579811868E+01  0.86557166322E+01 -0.75585497628E+01  0.13219630326E+02  0.10000000000E+01 0. -1.
    1000022    2    1    0    0    0 -0.31582880396E+02  0.49480146204E+02 -0.18986485864E+02  0.62499999994E+02  0.10000007568E+02 0.  0.
    3000022    2    3    3    0    0 -0.25124899209E+02  0.40824429572E+02 -0.11427936101E+02  0.49280369668E+02  0.25000206079E+00 0.  0.
    1000022    2    1    0    0    0  0.31582880396E+02 -0.49480146204E+02  0.18986485864E+02  0.62500000006E+02  0.10000007642E+02 0.  0.
    3000022    2    5    5    0    0  0.17217645013E+01 -0.38024517732E+01 -0.11265261500E+01  0.43306673364E+01  0.25001185213E+00 0.  0.
        -13    1    4    4    0    0 -0.71370115683E+01  0.11671317290E+02 -0.32756210084E+01  0.14067597500E+02  0.10500000000E+00 0.  1.
         13    1    4    4    0    0 -0.17987887641E+02  0.29153112281E+02 -0.81523150927E+01  0.35212772169E+02  0.10500000000E+00 0. -1.
    3000001    1    5    5    0    0  0.29861115895E+02 -0.45677694431E+02  0.20113012014E+02  0.58169332670E+02  0.10000000000E+01 0.  1.
        -13    1    6    6    0    0  0.10929260395E+01 -0.25380467485E+01 -0.72598813818E+00  0.28590649525E+01  0.10500000000E+00 0. -1.
         13    1    6    6    0    0  0.62883846176E+00 -0.12644050247E+01 -0.40053801179E+00  0.14716023839E+01  0.10500000000E+00 0.  1.
</event>
<event>
11    0  0.3476221E-009  0.9118800E+02  0.7816531E-02  0.1126479E+00
         25   -1    0    0    0    0  0.00000000000E+00  0.00000000000E+00  0.99999998245E-14  0.12500000000E+03  0.12500000000E+03 0.  0.
    3000001    1    3    3    0    0 -0.55366245901E+02  0.84081165000E+01  0.78234086243E+01  0.56553720750E+02  0.10000000000E+01 0. -1.
    1000022    2    1    0    0    0 -0.59963239492E+02  0.12170593043E+02  0.79080017935E+01  0.62499999921E+02  0.10000003620E+02 0.  0.
    3000022    2    3    3    0    0 -0.45969935908E+01  0.37624765433E+01  0.84593169186E-01  0.59462791705E+01  0.25000031232E+00 0.  0.
    1000022    2    1    0    0    0  0.59963239492E+02 -0.12170593043E+02 -0.79080017935E+01  0.62500000079E+02  0.10000004609E+02 0.  0.
    3000022    2    5    5    0    0  0.47689149521E+02 -0.65431943314E+01 -0.87864929378E+01  0.48931925508E+02  0.25000341823E+00 0.  0.
        -13    1    4    4    0    0 -0.26008161472E+01  0.21490210330E+01 -0.15724657103E-01  0.33754715666E+01  0.10500000000E+00 0.  1.
         13    1    4    4    0    0 -0.19961774436E+01  0.16134555103E+01  0.10031782629E+00  0.25708076039E+01  0.10500000000E+00 0. -1.
    3000001    1    5    5    0    0  0.12274089971E+02 -0.56273987119E+01  0.87849114435E+00  0.13568074571E+02  0.10000000000E+01 0. -1.
        -13    1    6    6    0    0  0.13731371307E+02 -0.18438229941E+01 -0.25145718542E+01  0.14081347159E+02  0.10500000000E+00 0. -1.
         13    1    6    6    0    0  0.33957778213E+02 -0.46993713373E+01 -0.62719210836E+01  0.34850578349E+02  0.10500000000E+00 0.  1.
</event>
<event>
11    0  0.3476221E-009  0.9118800E+02  0.7816531E-02  0.1126479E+00
         25   -1    0    0    0    0  0.00000000000E+00  0.00000000000E+00  0.99999998245E-14  0.12500000000E+03  0.12500000000E+03 0.  0.
    3000001    1    3    3    0    0  0.13675519056E+02  0.26452002732E+01  0.24584798586E+00  0.13967009242E+02  0.10000000000E+01 0.  1.
    1000022    2    1    0    0    0  0.57427029719E+02  0.12277081193E+02  0.18911884096E+02  0.62499999847E+02  0.10000007790E+02 0.  0.
    3000022    2    3    3    0    0  0.43751510663E+02  0.96318809197E+01  0.18666036110E+02  0.48532990604E+02  0.24991520126E+00 0.  0.
    1000022    2    1    0    0    0 -0.57427029719E+02 -0.12277081193E+02 -0.18911884096E+02  0.62500000153E+02  0.10000009706E+02 0.  0.
    3000022    2    5    5    0    0 -0.23762538361E+02 -0.64133077005E+00 -0.98552496761E+01  0.25734373634E+02  0.25001133742E+00 0.  0.
        -13    1    4    4    0    0  0.32576480552E+02  0.71799322166E+01  0.13929345748E+02  0.36149912998E+02  0.10500000000E+00 0. -1.
         13    1    4    4    0    0  0.11175030111E+02  0.24519487031E+01  0.47366903620E+01  0.12383077606E+02  0.10500000000E+00 0.  1.
    3000001    1    5    5    0    0 -0.33664491358E+02 -0.11635750423E+02 -0.90566344196E+01  0.36765626519E+02  0.10000000000E+01 0. -1.
        -13    1    6    6    0    0 -0.13108028425E+02 -0.28846104975E+00 -0.54214021774E+01  0.14188243216E+02  0.10500000000E+00 0.  1.
         13    1    6    6    0    0 -0.10654509936E+02 -0.35286972030E+00 -0.44338474987E+01  0.11546130419E+02  0.10500000000E+00 0. -1.
</event>
<event>
11    0  0.3476221E-009  0.9118800E+02  0.7816531E-02  0.1126479E+00
         25   -1    0    0    0    0  0.00000000000E+00  0.00000000000E+00  0.99999998245E-14  0.12500000000E+03  0.12500000000E+03 0.  0.
    3000001    1    3    3    0    0  0.38801324652E+01 -0.17103361329E+02  0.23674585240E+02  0.29479931869E+02  0.10000000000E+01 0. -1.
    1000022    2    1    0    0    0  0.72153362906E+01 -0.27017702298E+02  0.54993024943E+02  0.62500000057E+02  0.99999949774E+01 0.  0.
    3000022    2    3    3    0    0  0.33352038254E+01 -0.99143409691E+01  0.31318439703E+02  0.33020068189E+02  0.24999270533E+00 0.  0.
    1000022    2    1    0    0    0 -0.72153362906E+01  0.27017702298E+02 -0.54993024943E+02  0.62499999943E+02  0.99999942632E+01 0.  0.
    3000022    2    5    5    0    0  0.38913120858E+00  0.17228543769E+02 -0.30597212896E+02  0.35117319357E+02  0.25007662813E+00 0.  0.
        -13    1    4    4    0    0  0.15287161267E+01 -0.43446377699E+01  0.13846188986E+02  0.14592492069E+02  0.10500000000E+00 0.  1.
         13    1    4    4    0    0  0.18064876987E+01 -0.55697031992E+01  0.17472250716E+02  0.18427576119E+02  0.10500000000E+00 0. -1.
    3000001    1    5    5    0    0 -0.76044674992E+01  0.97891585290E+01 -0.24395812046E+02  0.27382680586E+02  0.10000000000E+01 0.  1.
        -13    1    6    6    0    0  0.13983253911E+00  0.80361610252E+01 -0.14162573713E+02  0.16284623310E+02  0.10500000000E+00 0.  1.
         13    1    6    6    0    0  0.24929866946E+00  0.91923827439E+01 -0.16434639183E+02  0.18832696048E+02  0.10500000000E+00 0. -1.
</event>
<event>
11    0  0.3476221E-009  0.9118800E+02  0.7816531E-02  0.1126479E+00
         25   -1    0    0    0    0  0.00000000000E+00  0.00000000000E+00  0.99999998245E-14  0.12500000000E+03  0.12500000000E+03 0.  0.
    3000001    1    3    3    0    0  0.17715672941E+01 -0.42780179591E+00 -0.13637972108E+01  0.24862437303E+01  0.10000000000E+01 0.  1.
    1000022    2    1    0    0    0  0.59984849682E+02 -0.13452130865E+02  0.52064925102E+01  0.62499997377E+02  0.10000004581E+02 0.  0.
    3000022    2    3    3    0    0  0.58213282388E+02 -0.13024329069E+02  0.65702897210E+01  0.60013753646E+02  0.25005121815E+00 0.  0.
    1000022    2    1    0    0    0 -0.59984849682E+02  0.13452130865E+02 -0.52064925102E+01  0.62500002623E+02  0.10000037374E+02 0.  0.
    3000022    2    5    5    0    0 -0.43490382605E+02  0.51913523928E+01 -0.31926485081E+01  0.43916045219E+02  0.25000885573E+00 0.  0.
        -13    1    4    4    0    0  0.20856772427E+02 -0.47256786368E+01  0.23579506913E+01  0.21515295748E+02  0.10500000000E+00 0.  1.
         13    1    4    4    0    0  0.37356509961E+02 -0.82986504326E+01  0.42123390297E+01  0.38498457898E+02  0.10500000000E+00 0. -1.
    3000001    1    5    5    0    0 -0.16494467077E+02  0.82607784726E+01 -0.20138440021E+01  0.18583957404E+02  0.10000000000E+01 0.  1.
        -13    1    6    6    0    0 -0.20940760457E+02  0.24633113281E+01 -0.14795587273E+01  0.21137253138E+02  0.10500000000E+00 0.  1.
         13    1    6    6    0    0 -0.22549622148E+02  0.27280410647E+01 -0.17130897808E+01  0.22778792081E+02  0.10500000000E+00 0. -1.
</event>
<event>
11    0  0.3476221E-009  0.9118800E+02  0.7816531E-02  0.1126479E+00
         25   -1    0    0    0    0  0.00000000000E+00  0.00000000000E+00  0.99999998245E-14  0.12500000000E+03  0.12500000000E+03 0.  0.
    3000001    1    3    3    0    0 -0.84958637961E+01 -0.77399397876E+01  0.16368680077E+02  0.20025485188E+02  0.10000000000E+01 0. -1.
    1000022    2    1    0    0    0 -0.21406479291E+02 -0.36163173203E+02  0.45168991717E+02  0.62500002686E+02  0.10000003562E+02 0.  0.
    3000022    2    3    3    0    0 -0.12910615495E+02 -0.28423233415E+02  0.28800311640E+02  0.42474517497E+02  0.24999171192E+00 0.  0.
    1000022    2    1    0    0    0  0.21406479291E+02  0.36163173203E+02 -0.45168991717E+02  0.62499997314E+02  0.99999699926E+01 0.  0.
    3000022    2    5    5    0    0  0.18512331896E+01  0.18295579767E+01 -0.73307805725E+01  0.77831351311E+01  0.25000391014E+00 0.  0.
        -13    1    4    4    0    0 -0.45392171792E+01 -0.98736237869E+01  0.99894072724E+01  0.14761172783E+02  0.10500000000E+00 0. -1.
         13    1    4    4    0    0 -0.83713983158E+01 -0.18549609628E+02  0.18810904367E+02  0.27713344714E+02  0.10500000000E+00 0.  1.
    3000001    1    5    5    0    0  0.19555246101E+02  0.34333615226E+02 -0.37838211144E+02  0.54716862183E+02  0.10000000000E+01 0. -1.
        -13    1    6    6    0    0  0.54582065707E+00  0.49940769665E+00 -0.20072764395E+01  0.21418477868E+01  0.10500000000E+00 0.  1.
         13    1    6    6    0    0  0.13054125325E+01  0.13301502800E+01 -0.53235041329E+01  0.56412873443E+01  0.10500000000E+00 0. -1.
</event>
<event>
11    0  0.3476221E-009  0.9118800E+02  0.7816531E-02  0.1126479E+00
         25   -1    0    0    0    0  0.00000000000E+00  0.00000000000E+00  0.99999998245E-14  0.12500000000E+03  0.12500000000E+03 0.  0.
    3000001    1    3    3    0    0 -0.20323868275E+02 -0.63374237005E+01 -0.35575944182E+02  0.41471319792E+02  0.10000000000E+01 0.  1.
    1000022    2    1    0    0    0 -0.31473751896E+02 -0.25682480938E+01 -0.53000536079E+02  0.62500002369E+02  0.10000025741E+02 0.  0.
    3000022    2    3    3    0    0 -0.11149883621E+02  0.37691756068E+01 -0.17424591896E+02  0.21028682577E+02  0.24999731915E+00 0.  0.
    1000022    2    1    0    0    0  0.31473751896E+02  0.25682480938E+01  0.53000536079E+02  0.62499997631E+02  0.99999961295E+01 0.  0.
    3000022    2    5    5    0    0  0.17916910134E+02 -0.34489907742E+01  0.28424800699E+02  0.33777847788E+02  0.25000062636E+00 0.  0.
        -13    1    4    4    0    0 -0.75939373657E+01  0.25229731402E+01 -0.11793680282E+02  0.14252550570E+02  0.10500000000E+00 0.  1.
         13    1    4    4    0    0 -0.35559462554E+01  0.12462024666E+01 -0.56309116145E+01  0.67761320065E+01  0.10500000000E+00 0. -1.
    3000001    1    5    5    0    0  0.13556841762E+02  0.60172388679E+01  0.24575735380E+02  0.28722149843E+02  0.10000000000E+01 0.  1.
        -13    1    6    6    0    0  0.83112966787E+01 -0.16579922784E+01  0.13268933233E+02  0.15744910448E+02  0.10500000000E+00 0. -1.
         13    1    6    6    0    0  0.96056134552E+01 -0.17909984958E+01  0.15155867466E+02  0.18032937340E+02  0.10500000000E+00 0.  1.
</event>
<event>
11    0  0.3476221E-009  0.9118800E+02  0.7816531E-02  0.1126479E+00
         25   -1    0    0    0    0  0.00000000000E+00  0.00000000000E+00  0.99999998245E-14  0.12500000000E+03  0.12500000000E+03 0.  0.
    3000001    1    3    3    0    0 -0.22198563819E+02 -0.46876081448E+01 -0.17540029757E+02  0.28694991717E+02  0.10000000000E+01 0. -1.
    1000022    2    1    0    0    0 -0.53612872716E+02 -0.99572322896E+01 -0.28857642156E+02  0.62500000055E+02  0.99999950147E+01 0.  0.
    3000022    2    3    3    0    0 -0.31414308897E+02 -0.52696241448E+01 -0.11317612400E+02  0.33805008338E+02  0.24999243703E+00 0.  0.
    1000022    2    1    0    0    0  0.53612872716E+02  0.99572322896E+01  0.28857642156E+02  0.62499999945E+02  0.99999943288E+01 0.  0.
    3000022    2    5    5    0    0  0.28324540645E+02  0.23969823585E+00  0.15058415938E+02  0.32080452755E+02  0.25000082802E+00 0.  0.
        -13    1    4    4    0    0 -0.79265386864E+01 -0.13556416213E+01 -0.28686390359E+01  0.85386119874E+01  0.10500000000E+00 0.  1.
         13    1    4    4    0    0 -0.23487770211E+02 -0.39139825235E+01 -0.84489733637E+01  0.25266396351E+02  0.10500000000E+00 0. -1.
    3000001    1    5    5    0    0  0.25288332071E+02  0.97175340538E+01  0.13799226219E+02  0.30419547190E+02  0.10000000000E+01 0.  1.
        -13    1    6    6    0    0  0.10691655694E+02  0.47606270305E-01  0.56356826206E+01  0.12086592217E+02  0.10500000000E+00 0. -1.
         13    1    6    6    0    0  0.17632884951E+02  0.19209196554E+00  0.94227333169E+01  0.19993860537E+02  0.10500000000E+00 0.  1.
</event>
<event>
11    0  0.3476221E-009  0.9118800E+02  0.7816531E-02  0.1126479E+00
         25   -1    0    0    0    0  0.00000000000E+00  0.00000000000E+00  0.99999998245E-14  0.12500000000E+03  0.12500000000E+03 0.  0.
    3000001    1    3    3    0    0 -0.45772200664E+02 -0.21553459733E+01 -0.26709902880E+02  0.53048645428E+02  0.10000000000E+01 0.  1.
    1000022    2    1    0    0    0 -0.52391342663E+02 -0.64057433818E+01 -0.31943131328E+02  0.62499999989E+02  0.10000001262E+02 0.  0.
    3000022    2    3    3    0    0 -0.66191419988E+01 -0.42503974085E+01 -0.52332284485E+01  0.94513545607E+01  0.25000821206E+00 0.  0.
    1000022    2    1    0    0    0  0.52391342663E+02  0.64057433818E+01  0.31943131328E+02  0.62500000011E+02  0.10000001401E+02 0.  0.
    3000022    2    5    5    0    0  0.37555946335E+02  0.88672793502E+01  0.21632435088E+02  0.44239151167E+02  0.24999994993E+00 0.  0.
        -13    1    4    4    0    0 -0.20334804424E+01 -0.13188566267E+01 -0.16695059383E+01  0.29449449213E+01  0.10500000000E+00 0.  1.
         13    1    4    4    0    0 -0.45856615564E+01 -0.29315407818E+01 -0.35637225103E+01  0.65064096394E+01  0.10500000000E+00 0. -1.
    3000001    1    5    5    0    0  0.14835396328E+02 -0.24615359684E+01  0.10310696241E+02  0.18260848844E+02  0.10000000000E+01 0. -1.
        -13    1    6    6    0    0  0.28204515363E+02  0.66826808296E+01  0.16262381672E+02  0.33235959330E+02  0.10500000000E+00 0.  1.
         13    1    6    6    0    0  0.93514309719E+01  0.21845985206E+01  0.53700534158E+01  0.11003191837E+02  0.10500000000E+00 0. -1.
</event>
<event>
11    0  0.3476221E-009  0.9118800E+02  0.7816531E-02  0.1126479E+00
         25   -1    0    0    0    0  0.00000000000E+00  0.00000000000E+00  0.99999998245E-14  0.12500000000E+03  0.12500000000E+03 0.  0.
    3000001    1    3    3    0    0  0.18808077227E+01 -0.92642783359E+00  0.67872839625E+01  0.71737667796E+01  0.10000000000E+01 0.  1.
    1000022    2    1    0    0    0  0.18215155071E+02  0.18210122382E+02  0.56061124647E+02  0.62500002249E+02  0.10000007656E+02 0.  0.
    3000022    2    3    3    0    0  0.16334347348E+02  0.19136550215E+02  0.49273840684E+02  0.55326235470E+02  0.24999612392E+00 0.  0.
    1000022    2    1    0    0    0 -0.18215155071E+02 -0.18210122382E+02 -0.56061124647E+02  0.62499997751E+02  0.99999795381E+01 0.  0.
    3000022    2    5    5    0    0 -0.77193026994E+00 -0.88487215925E+00 -0.11786829087E+02  0.11847814835E+02  0.25000275840E+00 0.  0.
        -13    1    4    4    0    0  0.79488520437E+01  0.93664906056E+01  0.24186318839E+02  0.27127558664E+02  0.10500000000E+00 0. -1.
         13    1    4    4    0    0  0.83854953044E+01  0.97700596098E+01  0.25087521845E+02  0.28198676806E+02  0.10500000000E+00 0.  1.
    3000001    1    5    5    0    0 -0.17443224801E+02 -0.17325250223E+02 -0.44274295560E+02  0.50652182915E+02  0.10000000000E+01 0. -1.
        -13    1    6    6    0    0 -0.38974030896E+00 -0.41924514362E+00 -0.63937893855E+01  0.64202205340E+01  0.10500000000E+00 0.  1.
         13    1    6    6    0    0 -0.38218996098E+00 -0.46562701564E+00 -0.53930397010E+01  0.54275943014E+01  0.10500000000E+00 0. -1.
</event>
<event>
11    0  0.3476221E-009  0.9118800E+02  0.7816531E-02  0.1126479E+00
         25   -1    0    0    0    0  0.00000000000E+00  0.00000000000E+00  0.99999998245E-14  0.12500000000E+03  0.12500000000E+03 0.  0.
    3000001    1    3    3    0    0  0.57489975540E+02 -0.23819861246E+00 -0.83481411413E+01  0.58102026529E+02  0.10000000000E+01 0. -1.
    1000022    2    1    0    0    0  0.60849340931E+02  0.20823473799E+01 -0.99634986936E+01  0.62499997885E+02  0.99999983490E+01 0.  0.
    3000022    2    3    3    0    0  0.33593653909E+01  0.23205459924E+01 -0.16153575524E+01  0.43979713560E+01  0.25000498877E+00 0.  0.
    1000022    2    1    0    0    0 -0.60849340931E+02 -0.20823473799E+01  0.99634986936E+01  0.62500002115E+02  0.10000024791E+02 0.  0.
    3000022    2    5    5    0    0 -0.44579651393E+02 -0.48252955663E+01  0.43856621834E+01  0.45054692643E+02  0.25000161916E+00 0.  0.
        -13    1    4    4    0    0  0.85460553813E+00  0.62889105085E+00 -0.42177964566E+00  0.11466375404E+01  0.10500000000E+00 0.  1.
         13    1    4    4    0    0  0.25047598527E+01  0.16916549415E+01 -0.11935779067E+01  0.32513338156E+01  0.10500000000E+00 0. -1.
    3000001    1    5    5    0    0 -0.16269689539E+02  0.27429481864E+01  0.55778365102E+01  0.17445309472E+02  0.10000000000E+01 0.  1.
        -13    1    6    6    0    0 -0.13068072097E+02 -0.14404583745E+01  0.13215894235E+01  0.13213896181E+02  0.10500000000E+00 0.  1.
         13    1    6    6    0    0 -0.31511579295E+02 -0.33848371918E+01  0.30640727599E+01  0.31840796463E+02  0.10500000000E+00 0. -1.
</event>
<event>
11    0  0.3476221E-009  0.9118800E+02  0.7816531E-02  0.1126479E+00
         25   -1    0    0    0    0  0.00000000000E+00  0.00000000000E+00  0.99999998245E-14  0.12500000000E+03  0.12500000000E+03 0.  0.
    3000001    1    3    3    0    0 -0.19064195932E+02 -0.20439680226E+02  0.14093263866E+02  0.31318431964E+02  0.10000000000E+01 0.  1.
    1000022    2    1    0    0    0 -0.35660288088E+02 -0.46127583344E+02  0.20170241537E+02  0.62500009814E+02  0.10000124564E+02 0.  0.
    3000022    2    3    3    0    0 -0.16596092156E+02 -0.25687903119E+02  0.60769776708E+01  0.31181577850E+02  0.24999620706E+00 0.  0.
    1000022    2    1    0    0    0  0.35660288088E+02  0.46127583344E+02 -0.20170241537E+02  0.62499990186E+02  0.10000001895E+02 0.  0.
    3000022    2    5    5    0    0  0.24724356536E+02  0.34316144232E+02 -0.10095831695E+02  0.43484248642E+02  0.25000253254E+00 0.  0.
        -13    1    4    4    0    0 -0.64152318309E+01 -0.98176292852E+01  0.23378792654E+01  0.11959002830E+02  0.10500000000E+00 0. -1.
         13    1    4    4    0    0 -0.10180860325E+02 -0.15870273833E+02  0.37390984054E+01  0.19222575020E+02  0.10500000000E+00 0.  1.
    3000001    1    5    5    0    0  0.10935931552E+02  0.11811439112E+02 -0.10074409842E+02  0.19015741544E+02  0.10000000000E+01 0. -1.
        -13    1    6    6    0    0  0.13093317531E+02  0.18115069344E+02 -0.53952877518E+01  0.22993713407E+02  0.10500000000E+00 0.  1.
         13    1    6    6    0    0  0.11631039005E+02  0.16201074888E+02 -0.47005439435E+01  0.20490535236E+02  0.10500000000E+00 0. -1.
</event>
<event>
11    0  0.3476221E-009  0.9118800E+02  0.7816531E-02  0.1126479E+00
         25   -1    0    0    0    0  0.00000000000E+00  0.00000000000E+00  0.99999998245E-14  0.12500000000E+03  0.12500000000E+03 0.  0.
    3000001    1    3    3    0    0 -0.92850062075E+01  0.21260384940E+02  0.40433221612E+02  0.46626824018E+02  0.10000000000E+01 0. -1.
    1000022    2    1    0    0    0 -0.86733415782E+01  0.24478579334E+02  0.55962686281E+02  0.62499998859E+02  0.99999950590E+01 0.  0.
    3000022    2    3    3    0    0  0.61166462922E+00  0.32181943946E+01  0.15529464669E+02  0.15873174841E+02  0.24999568453E+00 0.  0.
    1000022    2    1    0    0    0  0.86733415782E+01 -0.24478579334E+02 -0.55962686281E+02  0.62500001141E+02  0.10000009325E+02 0.  0.
    3000022    2    5    5    0    0  0.54548123212E+01 -0.22710015718E+02 -0.42337009011E+02  0.48352710626E+02  0.25000310868E+00 0.  0.
        -13    1    4    4    0    0  0.44437197297E+00  0.21236595771E+01  0.10447588197E+02  0.10671013100E+02  0.10500000000E+00 0.  1.
         13    1    4    4    0    0  0.16729265625E+00  0.10945348175E+01  0.50818764722E+01  0.52021617409E+01  0.10500000000E+00 0. -1.
    3000001    1    5    5    0    0  0.32185292570E+01 -0.17685636164E+01 -0.13625677270E+02  0.14147290515E+02  0.10000000000E+01 0. -1.
        -13    1    6    6    0    0  0.26876970841E+01 -0.11479828252E+02 -0.21377205131E+02  0.24413236093E+02  0.10500000000E+00 0.  1.
         13    1    6    6    0    0  0.27671152371E+01 -0.11230187466E+02 -0.20959803880E+02  0.23939474534E+02  0.10500000000E+00 0. -1.
</event>
<event>
11    0  0.3476221E-009  0.9118800E+02  0.7816531E-02  0.1126479E+00
         25   -1    0    0    0    0  0.00000000000E+00  0.00000000000E+00  0.99999998245E-14  0.12500000000E+03  0.12500000000E+03 0.  0.
    3000001    1    3    3    0    0  0.14428289110E+02  0.18844454634E+01 -0.79651746421E+01  0.16618383448E+02  0.10000000000E+01 0.  1.
    1000022    2    1    0    0    0  0.53020680774E+02  0.21712400228E+02 -0.22882941334E+02  0.62500000118E+02  0.10000004860E+02 0.  0.
    3000022    2    3    3    0    0  0.38592391664E+02  0.19827954764E+02 -0.14917766691E+02  0.45881616670E+02  0.25000127780E+00 0.  0.
    1000022    2    1    0    0    0 -0.53020680774E+02 -0.21712400228E+02  0.22882941334E+02  0.62499999882E+02  0.10000003388E+02 0.  0.
    3000022    2    5    5    0    0 -0.38881720894E+02 -0.12106895178E+02  0.19023793078E+02  0.44948107135E+02  0.25000275040E+00 0.  0.
        -13    1    4    4    0    0  0.17550373533E+02  0.89597795990E+01 -0.68208907282E+01  0.20852549891E+02  0.10500000000E+00 0. -1.
         13    1    4    4    0    0  0.21042018131E+02  0.10868175165E+02 -0.80968759633E+01  0.25029066779E+02  0.10500000000E+00 0.  1.
    3000001    1    5    5    0    0 -0.14138959880E+02 -0.96055050501E+01  0.38591482553E+01  0.17551892748E+02  0.10000000000E+01 0.  1.
        -13    1    6    6    0    0 -0.20985496756E+02 -0.65858449536E+01  0.10325199319E+02  0.24297843398E+02  0.10500000000E+00 0. -1.
         13    1    6    6    0    0 -0.17896224138E+02 -0.55210502240E+01  0.86985937595E+01  0.20650263736E+02  0.10500000000E+00 0.  1.
</event>
<event>
11    0  0.3476221E-009  0.9118800E+02  0.7816531E-02  0.1126479E+00
         25   -1    0    0    0    0  0.00000000000E+00  0.00000000000E+00  0.99999998245E-14  0.12500000000E+03  0.12500000000E+03 0.  0.
    3000001    1    3    3    0    0  0.19319778243E+02 -0.17895705989E+02 -0.11765808681E+02  0.28860775771E+02  0.10000000000E+01 0. -1.
    1000022    2    1    0    0    0  0.47904290054E+02 -0.34588486175E+02 -0.17750100591E+02  0.62500001014E+02  0.99999837192E+01 0.  0.
    3000022    2    3    3    0    0  0.28584511811E+02 -0.16692780185E+02 -0.59842919103E+01  0.33639225243E+02  0.24999899225E+00 0.  0.
    1000022    2    1    0    0    0 -0.47904290054E+02  0.34588486175E+02  0.17750100591E+02  0.62499998986E+02  0.99999710409E+01 0.  0.
    3000022    2    5    5    0    0 -0.32311151265E+02  0.27200699702E+02  0.92440155615E+01  0.43236591998E+02  0.25000706321E+00 0.  0.
        -13    1    4    4    0    0  0.18788658260E+02 -0.11035795327E+02 -0.39348740485E+01  0.22142644749E+02  0.10500000000E+00 0. -1.
         13    1    4    4    0    0  0.97958535509E+01 -0.56569848586E+01 -0.20494178618E+01  0.11496580494E+02  0.10500000000E+00 0.  1.
    3000001    1    5    5    0    0 -0.15593138789E+02  0.73877864724E+01  0.85060850297E+01  0.19263406988E+02  0.10000000000E+01 0.  1.
        -13    1    6    6    0    0 -0.16978418196E+02  0.14277995020E+02  0.49234096041E+01  0.22723970018E+02  0.10500000000E+00 0. -1.
         13    1    6    6    0    0 -0.15332733068E+02  0.12922704682E+02  0.43206059574E+01  0.20512621980E+02  0.10500000000E+00 0.  1.
</event>
<event>
11    0  0.3476221E-009  0.9118800E+02  0.7816531E-02  0.1126479E+00
         25   -1    0    0    0    0  0.00000000000E+00  0.00000000000E+00  0.99999998245E-14  0.12500000000E+03  0.12500000000E+03 0.  0.
    3000001    1    3    3    0    0  0.36087961722E+02 -0.29910226935E+02  0.32388185165E+02  0.56982077839E+02  0.10000000000E+01 0.  1.
    1000022    2    1    0    0    0  0.41322802792E+02 -0.31020912178E+02  0.33710221179E+02  0.62499999840E+02  0.99999972569E+01 0.  0.
    3000022    2    3    3    0    0  0.52348410702E+01 -0.11106852430E+01  0.13220360139E+01  0.55179220014E+01  0.25000250325E+00 0.  0.
    1000022    2    1    0    0    0 -0.41322802792E+02  0.31020912178E+02 -0.33710221179E+02  0.62500000160E+02  0.99999992519E+01 0.  0.
    3000022    2    5    5    0    0 -0.10832179936E+02  0.93832148994E+01 -0.44354262510E+01  0.15003877752E+02  0.24999510196E+00 0.  0.
        -13    1    4    4    0    0  0.24209319681E+01 -0.52093942433E+00  0.68068609878E+00  0.25703400637E+01  0.10500000000E+00 0.  1.
         13    1    4    4    0    0  0.28139091021E+01 -0.58974581868E+00  0.64134991513E+00  0.29475819377E+01  0.10500000000E+00 0.  1.
    3000001    1    5    5    0    0 -0.30490622856E+02  0.21637697279E+02 -0.29274794928E+02  0.47496122408E+02  0.10000000000E+01 0.  1.
        -13    1    6    6    0    0 -0.29409344492E+01  0.25179242252E+01 -0.12280846881E+01  0.40630351758E+01  0.10500000000E+00 0. -1.
         13    1    6    6    0    0 -0.78912454870E+01  0.68652906742E+01 -0.32073415629E+01  0.10940842576E+02  0.10500000000E+00 0.  1.
</event>
<event>
11    0  0.3476221E-009  0.9118800E+02  0.7816531E-02  0.1126479E+00
         25   -1    0    0    0    0  0.00000000000E+00  0.00000000000E+00  0.99999998245E-14  0.12500000000E+03  0.12500000000E+03 0.  0.
    3000001    1    3    3    0    0  0.65404551058E+01 -0.12813633049E+02 -0.41031678875E+01  0.14993422945E+02  0.10000000000E+01 0.  1.
    1000022    2    1    0    0    0  0.39586525654E+02 -0.42018847575E+02 -0.21761738152E+02  0.62500000778E+02  0.10000014249E+02 0.  0.
    3000022    2    3    3    0    0  0.33046070548E+02 -0.29205214526E+02 -0.17658570265E+02  0.47506577833E+02  0.24999880416E+00 0.  0.
    1000022    2    1    0    0    0 -0.39586525654E+02  0.42018847575E+02  0.21761738152E+02  0.62499999222E+02  0.10000004522E+02 0.  0.
    3000022    2    5    5    0    0 -0.98814468305E+01  0.10847575151E+02  0.10626381746E+01  0.14714094686E+02  0.25000882939E+00 0.  0.
        -13    1    4    4    0    0  0.15477746018E+02 -0.13597138150E+02 -0.82793100578E+01  0.22203621049E+02  0.10500000000E+00 0. -1.
         13    1    4    4    0    0  0.17568324530E+02 -0.15608076376E+02 -0.93792602070E+01  0.25302956783E+02  0.10500000000E+00 0.  1.
    3000001    1    5    5    0    0 -0.29705078824E+02  0.31171272424E+02  0.20699099978E+02  0.47785904536E+02  0.10000000000E+01 0.  1.
        -13    1    6    6    0    0 -0.58440235893E+01  0.64686825205E+01  0.57860317760E+00  0.87374064745E+01  0.10500000000E+00 0.  1.
         13    1    6    6    0    0 -0.40374232412E+01  0.43788926305E+01  0.48403499703E+00  0.59766882114E+01  0.10500000000E+00 0. -1.
</event>
<event>
11    0  0.3476221E-009  0.9118800E+02  0.7816531E-02  0.1126479E+00
         25   -1    0    0    0    0  0.00000000000E+00  0.00000000000E+00  0.99999998245E-14  0.12500000000E+03  0.12500000000E+03 0.  0.
    3000001    1    3    3    0    0  0.14886987274E+02 -0.12253363862E+02 -0.59892856263E+01  0.20214817791E+02  0.10000000000E+01 0. -1.
    1000022    2    1    0    0    0  0.47600676704E+02 -0.27443720802E+02 -0.28058299080E+02  0.62499995739E+02  0.99999542960E+01 0.  0.
    3000022    2    3    3    0    0  0.32713689431E+02 -0.15190356940E+02 -0.22069013453E+02  0.42285177947E+02  0.24999819726E+00 0.  0.
    1000022    2    1    0    0    0 -0.47600676704E+02  0.27443720802E+02  0.28058299080E+02  0.62500004261E+02  0.10000007564E+02 0.  0.
    3000022    2    5    5    0    0 -0.34126178721E+02  0.22526118125E+02  0.16673096396E+02  0.44159672963E+02  0.25000176757E+00 0.  0.
        -13    1    4    4    0    0  0.10517248372E+02 -0.49307650013E+01 -0.71403657674E+01  0.13635277962E+02  0.10500000000E+00 0.  1.
         13    1    4    4    0    0  0.22196441059E+02 -0.10259591938E+02 -0.14928647686E+02  0.28649899985E+02  0.10500000000E+00 0. -1.
    3000001    1    5    5    0    0 -0.13474497983E+02  0.49176026771E+01  0.11385202684E+02  0.18340331298E+02  0.10000000000E+01 0. -1.
        -13    1    6    6    0    0 -0.11906720098E+02  0.78187633350E+01  0.57598184398E+01  0.15365206704E+02  0.10500000000E+00 0. -1.
         13    1    6    6    0    0 -0.22219458623E+02  0.14707354790E+02  0.10913277956E+02  0.28794466260E+02  0.10500000000E+00 0.  1.
</event>
<event>
11    0  0.3476221E-009  0.9118800E+02  0.7816531E-02  0.1126479E+00
         25   -1    0    0    0    0  0.00000000000E+00  0.00000000000E+00  0.99999998245E-14  0.12500000000E+03  0.12500000000E+03 0.  0.
    3000001    1    3    3    0    0 -0.14386924605E+02  0.34707884726E+02 -0.13950160901E+02  0.40090246332E+02  0.10000000000E+01 0. -1.
    1000022    2    1    0    0    0 -0.15431289540E+02  0.56143246687E+02 -0.20397576309E+02  0.62500000996E+02  0.10000007988E+02 0.  0.
    3000022    2    3    3    0    0 -0.10443649352E+01  0.21435361960E+02 -0.64474154074E+01  0.22409754664E+02  0.24999632322E+00 0.  0.
    1000022    2    1    0    0    0  0.15431289540E+02 -0.56143246687E+02  0.20397576309E+02  0.62499999004E+02  0.99999955437E+01 0.  0.
    3000022    2    5    5    0    0  0.37850711678E+01 -0.17903070959E+02  0.17658379843E+01  0.18385521618E+02  0.25001575801E+00 0.  0.
        -13    1    4    4    0    0 -0.57112718748E+00  0.11868144107E+02 -0.36386162464E+01  0.12426970025E+02  0.10500000000E+00 0.  1.
         13    1    4    4    0    0 -0.47323774777E+00  0.95672178537E+01 -0.28087991610E+01  0.99827846393E+01  0.10500000000E+00 0. -1.
    3000001    1    5    5    0    0  0.11646218372E+02 -0.38240175728E+02  0.18631738324E+02  0.44114477386E+02  0.10000000000E+01 0. -1.
        -13    1    6    6    0    0  0.18697550471E+01 -0.90471720761E+01  0.83804150194E+00  0.92768876823E+01  0.10500000000E+00 0.  1.
         13    1    6    6    0    0  0.19153161207E+01 -0.88558988827E+01  0.92779648240E+00  0.91086339357E+01  0.10500000000E+00 0. -1.
</event>
<event>
11    0  0.3476221E-009  0.9118800E+02  0.7816531E-02  0.1126479E+00
         25   -1    0    0    0    0  0.00000000000E+00  0.00000000000E+00  0.99999998245E-14  0.12500000000E+03  0.12500000000E+03 0.  0.
    3000001    1    3    3    0    0 -0.93557492766E+01 -0.85255165373E+01 -0.64510947277E+01  0.14241878385E+02  0.10000000000E+01 0.  1.
    1000022    2    1    0    0    0 -0.25906625120E+02 -0.46814240271E+02 -0.30716829324E+02  0.62499999234E+02  0.99999991619E+01 0.  0.
    3000022    2    3    3    0    0 -0.16550875843E+02 -0.38288723734E+02 -0.24265734597E+02  0.48258120849E+02  0.24999198065E+00 0.  0.
    1000022    2    1    0    0    0  0.25906625120E+02  0.46814240271E+02  0.30716829324E+02  0.62500000766E+02  0.10000008739E+02 0.  0.
    3000022    2    5    5    0    0  0.23610409958E+02  0.43709108927E+02  0.25236465179E+02  0.55721443700E+02  0.24990343859E+00 0.  0.
        -13    1    4    4    0    0 -0.96286802885E+01 -0.22179781304E+02 -0.14005050490E+02  0.27942917654E+02  0.10500000000E+00 0. -1.
         13    1    4    4    0    0 -0.69221955547E+01 -0.16108942429E+02 -0.10260684107E+02  0.20315203195E+02  0.10500000000E+00 0.  1.
    3000001    1    5    5    0    0  0.22962151615E+01  0.31051313443E+01  0.54803641454E+01  0.67785570662E+01  0.10000000000E+01 0.  1.
        -13    1    6    6    0    0  0.97005591555E+01  0.18091276353E+02  0.10440588563E+02  0.23030676120E+02  0.10500000000E+00 0.  1.
         13    1    6    6    0    0  0.13909850803E+02  0.25617832573E+02  0.14795876616E+02  0.32690767580E+02  0.10500000000E+00 0. -1.
</event>
<event>
11    0  0.3476221E-009  0.9118800E+02  0.7816531E-02  0.1126479E+00
         25   -1    0    0    0    0  0.00000000000E+00  0.00000000000E+00  0.99999998245E-14  0.12500000000E+03  0.12500000000E+03 0.  0.
    3000001    1    3    3    0    0  0.87726855394E+01 -0.11002560062E+02 -0.13318522637E+01  0.14170044811E+02  0.10000000000E+01 0. -1.
    1000022    2    1    0    0    0  0.32586689280E+02 -0.51241904781E+02  0.10891504573E+02  0.62500000210E+02  0.10000001528E+02 0.  0.
    3000022    2    3    3    0    0  0.23814003741E+02 -0.40239344719E+02  0.12223356837E+02  0.48329955399E+02  0.24999786596E+00 0.  0.
    1000022    2    1    0    0    0 -0.32586689280E+02  0.51241904781E+02 -0.10891504573E+02  0.62499999790E+02  0.99999989013E+01 0.  0.
    3000022    2    5    5    0    0 -0.62912706425E-01  0.25169853581E+01 -0.20273590899E+01  0.32421995392E+01  0.24999934203E+00 0.  0.
        -13    1    4    4    0    0  0.13669613453E+02 -0.23061673286E+02  0.70729183347E+01  0.27726094307E+02  0.10500000000E+00 0. -1.
         13    1    4    4    0    0  0.10144390288E+02 -0.17177671433E+02  0.51504385025E+01  0.20603861093E+02  0.10500000000E+00 0.  1.
    3000001    1    5    5    0    0 -0.32523776574E+02  0.48724919423E+02 -0.88641454835E+01  0.59257800251E+02  0.10000000000E+01 0.  1.
        -13    1    6    6    0    0 -0.99578754413E-01  0.14849673316E+01 -0.12133597251E+01  0.19230992504E+01  0.10500000000E+00 0. -1.
         13    1    6    6    0    0  0.36666047989E-01  0.10320180265E+01 -0.81399936485E+00  0.13191002889E+01  0.10500000000E+00 0.  1.
</event>
<event>
11    0  0.3476221E-009  0.9118800E+02  0.7816531E-02  0.1126479E+00
         25   -1    0    0    0    0  0.00000000000E+00  0.00000000000E+00  0.99999998245E-14  0.12500000000E+03  0.12500000000E+03 0.  0.
    3000001    1    3    3    0    0 -0.95817190558E+01 -0.12904409006E+02  0.27701928151E+02  0.32042626845E+02  0.10000000000E+01 0. -1.
    1000022    2    1    0    0    0 -0.25647222427E+02 -0.18576040615E+02  0.52947150825E+02  0.62499999848E+02  0.99999948700E+01 0.  0.
    3000022    2    3    3    0    0 -0.16065503371E+02 -0.56716316089E+01  0.25245222674E+02  0.30457373003E+02  0.24999742148E+00 0.  0.
    1000022    2    1    0    0    0  0.25647222427E+02  0.18576040615E+02 -0.52947150825E+02  0.62500000152E+02  0.99999967647E+01 0.  0.
    3000022    2    5    5    0    0  0.22499161380E+02  0.16505827275E+02 -0.51016678212E+02  0.58149966113E+02  0.25001261049E+00 0.  0.
        -13    1    4    4    0    0 -0.53274755717E+01 -0.18256416247E+01  0.83634321957E+01  0.10083302356E+02  0.10500000000E+00 0.  1.
         13    1    4    4    0    0 -0.10738027799E+02 -0.38459899842E+01  0.16881790479E+02  0.20374070647E+02  0.10500000000E+00 0. -1.
    3000001    1    5    5    0    0  0.31480610460E+01  0.20702133403E+01 -0.19304726128E+01  0.43500340381E+01  0.10000000000E+01 0. -1.
        -13    1    6    6    0    0  0.13610008620E+02  0.10031957233E+02 -0.31014349392E+02  0.35323836056E+02  0.10500000000E+00 0.  1.
         13    1    6    6    0    0  0.88891527609E+01  0.64738700424E+01 -0.20002328821E+02  0.22826130057E+02  0.10500000000E+00 0. -1.
</event>
<event>
11    0  0.3476221E-009  0.9118800E+02  0.7816531E-02  0.1126479E+00
         25   -1    0    0    0    0  0.00000000000E+00  0.00000000000E+00  0.99999998245E-14  0.12500000000E+03  0.12500000000E+03 0.  0.
    3000001    1    3    3    0    0  0.47030016162E+02  0.14348543445E+02 -0.56600430578E+01  0.49504941234E+02  0.10000000000E+01 0. -1.
    1000022    2    1    0    0    0  0.58687163532E+02  0.15295351116E+02 -0.11318979327E+02  0.62500001328E+02  0.99999971881E+01 0.  0.
    3000022    2    3    3    0    0  0.11657147370E+02  0.94680767096E+00 -0.56589362697E+01  0.12995060093E+02  0.24999511477E+00 0.  0.
    1000022    2    1    0    0    0 -0.58687163532E+02 -0.15295351116E+02  0.11318979327E+02  0.62499998672E+02  0.99999805936E+01 0.  0.
    3000022    2    5    5    0    0 -0.50895639382E+02 -0.11703510490E+02  0.12715416997E+02  0.53750186913E+02  0.24999576331E+00 0.  0.
        -13    1    4    4    0    0  0.51762206095E+01  0.48193323195E+00 -0.24870706818E+01  0.57638585179E+01  0.10500000000E+00 0. -1.
         13    1    4    4    0    0  0.64809267603E+01  0.46487443901E+00 -0.31718655879E+01  0.72312015754E+01  0.10500000000E+00 0.  1.
    3000001    1    5    5    0    0 -0.77915241497E+01 -0.35918406263E+01 -0.13964376696E+01  0.87498117594E+01  0.10000000000E+01 0.  1.
        -13    1    6    6    0    0 -0.13209000294E+02 -0.30065606722E+01  0.33074552543E+01  0.13945156188E+02  0.10500000000E+00 0. -1.
         13    1    6    6    0    0 -0.37686639088E+02 -0.86969498174E+01  0.94079617428E+01  0.39805030725E+02  0.10500000000E+00 0.  1.
</event>
<event>
11    0  0.3476221E-009  0.9118800E+02  0.7816531E-02  0.1126479E+00
         25   -1    0    0    0    0  0.00000000000E+00  0.00000000000E+00  0.99999998245E-14  0.12500000000E+03  0.12500000000E+03 0.  0.
    3000001    1    3    3    0    0 -0.89955745615E+01 -0.22635577393E+02  0.24154423731E+02  0.34318011472E+02  0.10000000000E+01 0. -1.
    1000022    2    1    0    0    0 -0.17788955340E+02 -0.46281322572E+02  0.36712967674E+02  0.62499997586E+02  0.99999975851E+01 0.  0.
    3000022    2    3    3    0    0 -0.87933807787E+01 -0.23645745179E+02  0.12558543943E+02  0.28181986114E+02  0.25000954522E+00 0.  0.
    1000022    2    1    0    0    0  0.17788955340E+02  0.46281322572E+02 -0.36712967674E+02  0.62500002414E+02  0.10000027763E+02 0.  0.
    3000022    2    5    5    0    0  0.78617236791E+01  0.10045030950E+02 -0.12025246113E+02  0.17532209998E+02  0.24999466964E+00 0.  0.
        -13    1    4    4    0    0 -0.66342797031E+01 -0.17894937479E+02  0.95125895977E+01  0.21324700242E+02  0.10500000000E+00 0. -1.
         13    1    4    4    0    0 -0.21591010756E+01 -0.57508077004E+01  0.30459543451E+01  0.68572858723E+01  0.10500000000E+00 0.  1.
    3000001    1    5    5    0    0  0.99272316611E+01  0.36236291622E+02 -0.24687721561E+02  0.44967792416E+02  0.10000000000E+01 0. -1.
        -13    1    6    6    0    0  0.26973501897E+01  0.33621027368E+01 -0.40420137266E+01  0.59100196975E+01  0.10500000000E+00 0.  1.
         13    1    6    6    0    0  0.51643734894E+01  0.66829282135E+01 -0.79832323862E+01  0.11622190300E+02  0.10500000000E+00 0. -1.
</event>
<event>
11    0  0.3476221E-009  0.9118800E+02  0.7816531E-02  0.1126479E+00
         25   -1    0    0    0    0  0.00000000000E+00  0.00000000000E+00  0.99999998245E-14  0.12500000000E+03  0.12500000000E+03 0.  0.
    3000001    1    3    3    0    0 -0.10874197183E+02 -0.15873056198E+02 -0.13644237044E+02  0.23608627279E+02  0.10000000000E+01 0. -1.
    1000022    2    1    0    0    0 -0.34821260639E+02 -0.44246275297E+02 -0.25218985865E+02  0.62499998072E+02  0.99999720352E+01 0.  0.
    3000022    2    3    3    0    0 -0.23947063456E+02 -0.28373219099E+02 -0.11574748821E+02  0.38891370793E+02  0.25000339046E+00 0.  0.
    1000022    2    1    0    0    0  0.34821260639E+02  0.44246275297E+02  0.25218985865E+02  0.62500001928E+02  0.99999961407E+01 0.  0.
    3000022    2    5    5    0    0  0.29936440253E+01  0.31385561711E+01  0.52122241839E+01  0.67854413177E+01  0.24998708795E+00 0.  0.
        -13    1    4    4    0    0 -0.12916788296E+02 -0.15404734219E+02 -0.62494106515E+01  0.21052681890E+02  0.10500000000E+00 0. -1.
         13    1    4    4    0    0 -0.11030275159E+02 -0.12968484880E+02 -0.53253381692E+01  0.17838688903E+02  0.10500000000E+00 0.  1.
    3000001    1    5    5    0    0  0.31827616614E+02  0.41107719126E+02  0.20006761681E+02  0.55714560611E+02  0.10000000000E+01 0. -1.
        -13    1    6    6    0    0  0.13467339974E+01  0.13578651213E+01  0.23841833609E+01  0.30582422150E+01  0.10500000000E+00 0. -1.
         13    1    6    6    0    0  0.16469100278E+01  0.17806910498E+01  0.28280408230E+01  0.37271991027E+01  0.10500000000E+00 0.  1.
</event>
<event>
11    0  0.3476221E-009  0.9118800E+02  0.7816531E-02  0.1126479E+00
         25   -1    0    0    0    0  0.00000000000E+00  0.00000000000E+00  0.99999998245E-14  0.12500000000E+03  0.12500000000E+03 0.  0.
    3000001    1    3    3    0    0  0.20246345260E+02  0.13772520577E+02 -0.20734996513E+01  0.24594638038E+02  0.10000000000E+01 0.  1.
    1000022    2    1    0    0    0  0.55336690902E+02  0.27085712693E+02  0.32350544813E+01  0.62500002907E+02  0.99999796876E+01 0.  0.
    3000022    2    3    3    0    0  0.35090345643E+02  0.13313192116E+02  0.53085541326E+01  0.37905364869E+02  0.24999443217E+00 0.  0.
    1000022    2    1    0    0    0 -0.55336690902E+02 -0.27085712693E+02 -0.32350544813E+01  0.62499997093E+02  0.99999433526E+01 0.  0.
    3000022    2    5    5    0    0 -0.25811855578E+02 -0.71778664388E+01 -0.14647399702E+01  0.26832473253E+02  0.25000542317E+00 0.  0.
        -13    1    4    4    0    0  0.10957521616E+02  0.42067008230E+01  0.16435910699E+01  0.11852258366E+02  0.10500000000E+00 0.  1.
         13    1    4    4    0    0  0.24132824026E+02  0.91064912930E+01  0.36649630627E+01  0.26053106502E+02  0.10500000000E+00 0. -1.
    3000001    1    5    5    0    0 -0.29524835324E+02 -0.19907846255E+02 -0.17703145110E+01  0.35667523840E+02  0.10000000000E+01 0. -1.
        -13    1    6    6    0    0 -0.13353390913E+02 -0.36435765877E+01 -0.76465375063E+00  0.13863059532E+02  0.10500000000E+00 0. -1.
         13    1    6    6    0    0 -0.12458464665E+02 -0.35342898512E+01 -0.70008621962E+00  0.12969413721E+02  0.10500000000E+00 0.  1.
</event>
<event>
11    0  0.3476221E-009  0.9118800E+02  0.7816531E-02  0.1126479E+00
         25   -1    0    0    0    0  0.00000000000E+00  0.00000000000E+00  0.99999998245E-14  0.12500000000E+03  0.12500000000E+03 0.  0.
    3000001    1    3    3    0    0  0.17087287225E+02  0.32659838824E+02  0.53714433676E+01  0.37262485968E+02  0.10000000000E+01 0.  1.
    1000022    2    1    0    0    0  0.32618695963E+02  0.52315263210E+02  0.23203450798E+01  0.62499998983E+02  0.99999890226E+01 0.  0.
    3000022    2    3    3    0    0  0.15531408739E+02  0.19655424387E+02 -0.30510982878E+01  0.25237513015E+02  0.24999434395E+00 0.  0.
    1000022    2    1    0    0    0 -0.32618695963E+02 -0.52315263210E+02 -0.23203450798E+01  0.62500001017E+02  0.10000001738E+02 0.  0.
    3000022    2    5    5    0    0 -0.15560092531E+02 -0.19468114722E+02 -0.48363975328E+01  0.25388525234E+02  0.25000410709E+00 0.  0.
        -13    1    4    4    0    0  0.10595790776E+02  0.13454468240E+02 -0.20441589577E+01  0.17247698648E+02  0.10500000000E+00 0. -1.
         13    1    4    4    0    0  0.49356179623E+01  0.62009561463E+01 -0.10069393301E+01  0.79898143666E+01  0.10500000000E+00 0.  1.
    3000001    1    5    5    0    0 -0.17058603432E+02 -0.32847148488E+02  0.25160524530E+01  0.37111475783E+02  0.10000000000E+01 0.  1.
        -13    1    6    6    0    0 -0.67086690545E+01 -0.82918981215E+01 -0.20538803203E+01  0.10862378391E+02  0.10500000000E+00 0. -1.
         13    1    6    6    0    0 -0.88514234770E+01 -0.11176216600E+02 -0.27825172124E+01  0.14526146843E+02  0.10500000000E+00 0.  1.
</event>
<event>
11    0  0.3476221E-009  0.9118800E+02  0.7816531E-02  0.1126479E+00
         25   -1    0    0    0    0  0.00000000000E+00  0.00000000000E+00  0.99999998245E-14  0.12500000000E+03  0.12500000000E+03 0.  0.
    3000001    1    3    3    0    0 -0.27994228768E+01 -0.53326142950E+01 -0.96369108069E+00  0.61807964019E+01  0.10000000000E+01 0.  1.
    1000022    2    1    0    0    0 -0.30489423950E+02 -0.50323649528E+02  0.18551962360E+02  0.62499999505E+02  0.99999978077E+01 0.  0.
    3000022    2    3    3    0    0 -0.27690001073E+02 -0.44991035233E+02  0.19515653440E+02  0.56319203103E+02  0.24999647257E+00 0.  0.
    1000022    2    1    0    0    0  0.30489423950E+02  0.50323649528E+02 -0.18551962360E+02  0.62500000495E+02  0.10000003994E+02 0.  0.
    3000022    2    5    5    0    0  0.17196389413E+02  0.25314659427E+02 -0.47244233334E+01  0.30966602508E+02  0.25000865782E+00 0.  0.
        -13    1    4    4    0    0 -0.91929909114E+01 -0.14856709810E+02  0.64884101744E+01  0.18637151067E+02  0.10500000000E+00 0.  1.
         13    1    4    4    0    0 -0.18497010162E+02 -0.30134325422E+02  0.13027243266E+02  0.37682052037E+02  0.10500000000E+00 0. -1.
    3000001    1    5    5    0    0  0.13293034537E+02  0.25008990101E+02 -0.13827539026E+02  0.31533397987E+02  0.10000000000E+01 0.  1.
        -13    1    6    6    0    0  0.40634344104E+01  0.60070636332E+01 -0.11284391652E+01  0.73403482649E+01  0.10500000000E+00 0.  1.
         13    1    6    6    0    0  0.13132955003E+02  0.19307595794E+02 -0.35959841682E+01  0.23626254243E+02  0.10500000000E+00 0. -1.
</event>
<event>
11    0  0.3476221E-009  0.9118800E+02  0.7816531E-02  0.1126479E+00
         25   -1    0    0    0    0  0.00000000000E+00  0.00000000000E+00  0.99999998245E-14  0.12500000000E+03  0.12500000000E+03 0.  0.
    3000001    1    3    3    0    0  0.39293553149E+01 -0.34690321018E+01  0.39361695289E+02  0.39721745592E+02  0.10000000000E+01 0.  1.
    1000022    2    1    0    0    0  0.12879605311E+02 -0.24964266237E+01  0.60283775479E+02  0.62499999994E+02  0.10000001725E+02 0.  0.
    3000022    2    3    3    0    0  0.89502499959E+01  0.97260547803E+00  0.20922080190E+02  0.22778254402E+02  0.24999544309E+00 0.  0.
    1000022    2    1    0    0    0 -0.12879605311E+02  0.24964266237E+01 -0.60283775479E+02  0.62500000006E+02  0.10000001795E+02 0.  0.
    3000022    2    5    5    0    0 -0.81726302110E+01 -0.25235534974E+01 -0.43483311972E+02  0.44317277739E+02  0.24995854781E+00 0.  0.
        -13    1    4    4    0    0  0.42368181783E+01  0.52710198699E+00  0.99532658305E+01  0.10830835170E+02  0.10500000000E+00 0.  1.
         13    1    4    4    0    0  0.47134318176E+01  0.44550349104E+00  0.10968814359E+02  0.11947419232E+02  0.10500000000E+00 0. -1.
    3000001    1    5    5    0    0 -0.47069750998E+01  0.50199801211E+01 -0.16800463506E+02  0.18182722267E+02  0.10000000000E+01 0. -1.
        -13    1    6    6    0    0 -0.51223769481E+01 -0.16011504126E+01 -0.27573165757E+02  0.28090797836E+02  0.10500000000E+00 0.  1.
         13    1    6    6    0    0 -0.30502532629E+01 -0.92240308477E+00 -0.15910146216E+02  0.16226479902E+02  0.10500000000E+00 0. -1.
</event>
<event>
11    0  0.3476221E-009  0.9118800E+02  0.7816531E-02  0.1126479E+00
         25   -1    0    0    0    0  0.00000000000E+00  0.00000000000E+00  0.99999998245E-14  0.12500000000E+03  0.12500000000E+03 0.  0.
    3000001    1    3    3    0    0 -0.19385759146E+02  0.33667216783E+02 -0.16123321924E+02  0.42074346738E+02  0.10000000000E+01 0.  1.
    1000022    2    1    0    0    0 -0.25371716584E+02  0.53016031469E+02 -0.18757043541E+02  0.62499999849E+02  0.99999851803E+01 0.  0.
    3000022    2    3    3    0    0 -0.59859574383E+01  0.19348814686E+02 -0.26337216173E+01  0.20425653111E+02  0.24999851131E+00 0.  0.
    1000022    2    1    0    0    0  0.25371716584E+02 -0.53016031469E+02  0.18757043541E+02  0.62500000151E+02  0.99999870696E+01 0.  0.
    3000022    2    5    5    0    0  0.17680315444E+02 -0.45382094668E+02  0.14545300929E+02  0.50830663478E+02  0.24999958455E+00 0.  0.
        -13    1    4    4    0    0 -0.24266433978E+01  0.76703709155E+01 -0.10827074439E+01  0.81182799022E+01  0.10500000000E+00 0.  1.
         13    1    4    4    0    0 -0.35593140405E+01  0.11678443770E+02 -0.15510141733E+01  0.12307373209E+02  0.10500000000E+00 0. -1.
    3000001    1    5    5    0    0  0.76914011400E+01 -0.76339368004E+01  0.42117426121E+01  0.11669336673E+02  0.10000000000E+01 0. -1.
        -13    1    6    6    0    0  0.54615055096E+01 -0.13969625552E+02  0.45259321795E+01  0.15667596101E+02  0.10500000000E+00 0. -1.
         13    1    6    6    0    0  0.12218809935E+02 -0.31412469116E+02  0.10019368749E+02  0.35163067377E+02  0.10500000000E+00 0.  1.
</event>
<event>
11    0  0.3476221E-009  0.9118800E+02  0.7816531E-02  0.1126479E+00
         25   -1    0    0    0    0  0.00000000000E+00  0.00000000000E+00  0.99999998245E-14  0.12500000000E+03  0.12500000000E+03 0.  0.
    3000001    1    3    3    0    0 -0.69805666995E+01 -0.92706871417E+01 -0.21034585967E+02  0.24044287436E+02  0.10000000000E+01 0.  1.
    1000022    2    1    0    0    0 -0.71048109096E+01 -0.29796018115E+02 -0.53553422107E+02  0.62500000352E+02  0.99999995524E+01 0.  0.
    3000022    2    3    3    0    0 -0.12424421006E+00 -0.20525330974E+02 -0.32518836140E+02  0.38455712916E+02  0.25000748606E+00 0.  0.
    1000022    2    1    0    0    0  0.71048109096E+01  0.29796018115E+02  0.53553422107E+02  0.62499999648E+02  0.99999951522E+01 0.  0.
    3000022    2    5    5    0    0  0.61201312062E+01  0.16778050972E+02  0.39166834073E+02  0.43047211212E+02  0.25000292981E+00 0.  0.
        -13    1    4    4    0    0 -0.24853066205E-01 -0.12837303627E+02 -0.20283584105E+02  0.24004828499E+02  0.10500000000E+00 0.  1.
         13    1    4    4    0    0 -0.99391143858E-01 -0.76880273469E+01 -0.12235252034E+02  0.14450884417E+02  0.10500000000E+00 0. -1.
    3000001    1    5    5    0    0  0.98467970342E+00  0.13017967143E+02  0.14386588034E+02  0.19452788436E+02  0.10000000000E+01 0.  1.
        -13    1    6    6    0    0  0.26174183428E+01  0.72789521110E+01  0.17097635781E+02  0.18766304829E+02  0.10500000000E+00 0. -1.
         13    1    6    6    0    0  0.35027128633E+01  0.94990988611E+01  0.22069198292E+02  0.24280906384E+02  0.10500000000E+00 0.  1.
</event>
<event>
11    0  0.3476221E-009  0.9118800E+02  0.7816531E-02  0.1126479E+00
         25   -1    0    0    0    0  0.00000000000E+00  0.00000000000E+00  0.99999998245E-14  0.12500000000E+03  0.12500000000E+03 0.  0.
    3000001    1    3    3    0    0 -0.12835323606E+02  0.16488419169E+02  0.47945943486E+02  0.52310868808E+02  0.10000000000E+01 0. -1.
    1000022    2    1    0    0    0 -0.17406151952E+02  0.15850917107E+02  0.57026525266E+02  0.62499997908E+02  0.99999727838E+01 0.  0.
    3000022    2    3    3    0    0 -0.45708283464E+01 -0.63750206168E+00  0.90805817799E+01  0.10189129099E+02  0.25001138080E+00 0.  0.
    1000022    2    1    0    0    0  0.17406151952E+02 -0.15850917107E+02 -0.57026525266E+02  0.62500002092E+02  0.99999989383E+01 0.  0.
    3000022    2    5    5    0    0  0.17808465258E+02 -0.14639352983E+02 -0.56051913477E+02  0.60608015897E+02  0.24999198160E+00 0.  0.
        -13    1    4    4    0    0 -0.26776892970E+01 -0.39511822081E+00  0.54568398513E+01  0.60921477775E+01  0.10500000000E+00 0. -1.
         13    1    4    4    0    0 -0.18931390494E+01 -0.24238384087E+00  0.36237419286E+01  0.40969813219E+01  0.10500000000E+00 0.  1.
    3000001    1    5    5    0    0 -0.40231330556E+00 -0.12115641247E+01 -0.97461178856E+00  0.18919861951E+01  0.10000000000E+01 0.  1.
        -13    1    6    6    0    0  0.11283224104E+02 -0.92174716046E+01 -0.35525905747E+02  0.38397577177E+02  0.10500000000E+00 0. -1.
         13    1    6    6    0    0  0.65252411538E+01 -0.54218813781E+01 -0.20526007730E+02  0.22210438720E+02  0.10500000000E+00 0.  1.
</event>
<event>
11    0  0.3476221E-009  0.9118800E+02  0.7816531E-02  0.1126479E+00
         25   -1    0    0    0    0  0.00000000000E+00  0.00000000000E+00  0.99999998245E-14  0.12500000000E+03  0.12500000000E+03 0.  0.
    3000001    1    3    3    0    0  0.23764165802E+01 -0.46683133116E+01  0.32020739998E+00  0.53425684569E+01  0.10000000000E+01 0.  1.
    1000022    2    1    0    0    0  0.53201965087E+01 -0.59153230500E+02 -0.16698530733E+02  0.62500000087E+02  0.99999956340E+01 0.  0.
    3000022    2    3    3    0    0  0.29437799285E+01 -0.54484917189E+02 -0.17018738133E+02  0.57157431630E+02  0.25000309195E+00 0.  0.
    1000022    2    1    0    0    0 -0.53201965087E+01  0.59153230500E+02  0.16698530733E+02  0.62499999913E+02  0.99999945526E+01 0.  0.
    3000022    2    5    5    0    0 -0.68372337490E+01  0.48711746415E+02  0.16553836316E+02  0.51900616518E+02  0.24998808556E+00 0.  0.
        -13    1    4    4    0    0  0.93846771470E+00 -0.18370848615E+02 -0.57425858458E+01  0.19270628368E+02  0.10500000000E+00 0.  1.
         13    1    4    4    0    0  0.20053122138E+01 -0.36114068574E+02 -0.11276152287E+02  0.37886803262E+02  0.10500000000E+00 0. -1.
    3000001    1    5    5    0    0  0.15170372403E+01  0.10441484085E+02  0.14469441687E+00  0.10599383395E+02  0.10000000000E+01 0.  1.
        -13    1    6    6    0    0 -0.19512530401E+01  0.14189060212E+02  0.48025306751E+01  0.15106692028E+02  0.10500000000E+00 0. -1.
         13    1    6    6    0    0 -0.48859807089E+01  0.34522686203E+02  0.11751305641E+02  0.36793924491E+02  0.10500000000E+00 0.  1.
</event>
<event>
11    0  0.3476221E-009  0.9118800E+02  0.7816531E-02  0.1126479E+00
         25   -1    0    0    0    0  0.00000000000E+00  0.00000000000E+00  0.99999998245E-14  0.12500000000E+03  0.12500000000E+03 0.  0.
    3000001    1    3    3    0    0  0.37807504369E+02 -0.16373149351E+01  0.15595133177E+01  0.37888260300E+02  0.10000000000E+01 0. -1.
    1000022    2    1    0    0    0  0.60939798715E+02 -0.95328745730E+01 -0.13096867458E+01  0.62499999693E+02  0.99999958569E+01 0.  0.
    3000022    2    3    3    0    0  0.23132294346E+02 -0.78955596379E+01 -0.28692000635E+01  0.24611739392E+02  0.25000637952E+00 0.  0.
    1000022    2    1    0    0    0 -0.60939798715E+02  0.95328745730E+01  0.13096867458E+01  0.62500000307E+02  0.99999996994E+01 0.  0.
    3000022    2    5    5    0    0 -0.44598994499E+02  0.78360948934E+01 -0.33135822517E+01  0.45403931756E+02  0.24999601838E+00 0.  0.
        -13    1    4    4    0    0  0.98222794310E+01 -0.34213181033E+01 -0.12164613244E+01  0.10472506574E+02  0.10500000000E+00 0.  1.
         13    1    4    4    0    0  0.13310014915E+02 -0.44742415347E+01 -0.16527387392E+01  0.14139232819E+02  0.10500000000E+00 0. -1.
    3000001    1    5    5    0    0 -0.16340804216E+02  0.16967796796E+01  0.46232689976E+01  0.17096068552E+02  0.10000000000E+01 0.  1.
        -13    1    6    6    0    0 -0.23344051093E+02  0.40343994433E+01 -0.17197860073E+01  0.23752679621E+02  0.10500000000E+00 0.  1.
         13    1    6    6    0    0 -0.21254943407E+02  0.38016954501E+01 -0.15937962444E+01  0.21651252134E+02  0.10500000000E+00 0. -1.
</event>
<event>
11    0  0.3476221E-009  0.9118800E+02  0.7816531E-02  0.1126479E+00
         25   -1    0    0    0    0  0.00000000000E+00  0.00000000000E+00  0.99999998245E-14  0.12500000000E+03  0.12500000000E+03 0.  0.
    3000001    1    3    3    0    0  0.10641176241E+02  0.29804168451E+02 -0.21594627553E+01  0.31736199650E+02  0.10000000000E+01 0.  1.
    1000022    2    1    0    0    0  0.15675332590E+02  0.58360734683E+02 -0.12432169163E+02  0.62499997017E+02  0.99999696230E+01 0.  0.
    3000022    2    3    3    0    0  0.50341563481E+01  0.28556566232E+02 -0.10272706408E+02  0.30763797366E+02  0.25005271173E+00 0.  0.
    1000022    2    1    0    0    0 -0.15675332590E+02 -0.58360734683E+02  0.12432169163E+02  0.62500002983E+02  0.10000006912E+02 0.  0.
    3000022    2    5    5    0    0 -0.14954274810E+02 -0.58091104674E+02  0.12270107039E+02  0.61227647374E+02  0.24999786090E+00 0.  0.
        -13    1    4    4    0    0  0.35389096147E+01  0.19822463544E+02 -0.71142009332E+01  0.21355955192E+02  0.10500000000E+00 0. -1.
         13    1    4    4    0    0  0.14952467334E+01  0.87341026876E+01 -0.31585054746E+01  0.94078421747E+01  0.10500000000E+00 0.  1.
    3000001    1    5    5    0    0 -0.72105777973E+00 -0.26963000946E+00  0.16206212442E+00  0.12723556090E+01  0.10000000000E+01 0. -1.
        -13    1    6    6    0    0 -0.10766927341E+02 -0.41684424317E+02  0.88270959997E+01  0.43948226401E+02  0.10500000000E+00 0.  1.
         13    1    6    6    0    0 -0.41873474687E+01 -0.16406680357E+02  0.34430110389E+01  0.17279420973E+02  0.10500000000E+00 0. -1.
</event>
<event>
11    0  0.3476221E-009  0.9118800E+02  0.7816531E-02  0.1126479E+00
         25   -1    0    0    0    0  0.00000000000E+00  0.00000000000E+00  0.99999998245E-14  0.12500000000E+03  0.12500000000E+03 0.  0.
    3000001    1    3    3    0    0 -0.60441766412E+02 -0.61009550770E+01 -0.82314800297E+01  0.61312201423E+02  0.10000000000E+01 0.  1.
    1000022    2    1    0    0    0 -0.60995613317E+02 -0.53058008579E+01 -0.75916730557E+01  0.62499999315E+02  0.10000002398E+02 0.  0.
    3000022    2    3    3    0    0 -0.55384690512E+00  0.79515421910E+00  0.63980697400E+00  0.11877978923E+01  0.24998848478E+00 0.  0.
    1000022    2    1    0    0    0  0.60995613317E+02  0.53058008579E+01  0.75916730557E+01  0.62500000685E+02  0.10000010955E+02 0.  0.
    3000022    2    5    5    0    0  0.50327329184E+02  0.47950668012E+01  0.99276505209E+01  0.51521388462E+02  0.24999146435E+00 0.  0.
        -13    1    4    4    0    0 -0.38221128516E+00  0.60792290001E+00  0.45386280982E+00  0.85596271473E+00  0.10500000000E+00 0.  1.
         13    1    4    4    0    0 -0.17163561995E+00  0.18723131909E+00  0.18594416418E+00  0.33183517758E+00  0.10500000000E+00 0.  1.
    3000001    1    5    5    0    0  0.10668284133E+02  0.51073405668E+00 -0.23359774653E+01  0.10978612223E+02  0.10000000000E+01 0.  1.
        -13    1    6    6    0    0  0.21159612004E+02  0.19725318247E+01  0.41240294037E+01  0.21648064705E+02  0.10500000000E+00 0. -1.
         13    1    6    6    0    0  0.29167717180E+02  0.28225349765E+01  0.58036211172E+01  0.29873323757E+02  0.10500000000E+00 0.  1.
</event>
<event>
11    0  0.3476221E-009  0.9118800E+02  0.7816531E-02  0.1126479E+00
         25   -1    0    0    0    0  0.00000000000E+00  0.00000000000E+00  0.99999998245E-14  0.12500000000E+03  0.12500000000E+03 0.  0.
    3000001    1    3    3    0    0  0.12436399892E+02  0.42992301728E+01  0.12388107983E+02  0.18100072976E+02  0.10000000000E+01 0.  1.
    1000022    2    1    0    0    0  0.37820629392E+02  0.16129157066E+01  0.48715998215E+02  0.62499999618E+02  0.99999982745E+01 0.  0.
    3000022    2    3    3    0    0  0.25384229500E+02 -0.26863144662E+01  0.36327890232E+02  0.44399926642E+02  0.24996871154E+00 0.  0.
    1000022    2    1    0    0    0 -0.37820629392E+02 -0.16129157066E+01 -0.48715998215E+02  0.62500000382E+02  0.10000003050E+02 0.  0.
    3000022    2    5    5    0    0 -0.41236850169E+00  0.98138344756E+00 -0.39337413149E+01  0.40828889848E+01  0.25000095448E+00 0.  0.
        -13    1    4    4    0    0  0.14672898470E+02 -0.15578269714E+01  0.21111759309E+02  0.25757293734E+02  0.10500000000E+00 0.  1.
         13    1    4    4    0    0  0.10711331030E+02 -0.11284874948E+01  0.15216130923E+02  0.18642632907E+02  0.10500000000E+00 0. -1.
    3000001    1    5    5    0    0 -0.37408260890E+02 -0.25942991542E+01 -0.44782256900E+02  0.58417111397E+02  0.10000000000E+01 0. -1.
        -13    1    6    6    0    0 -0.11309942989E+00  0.36133959439E+00 -0.15925777219E+01  0.16403312421E+01  0.10500000000E+00 0.  1.
         13    1    6    6    0    0 -0.29926907181E+00  0.62004385317E+00 -0.23411635930E+01  0.24425577427E+01  0.10500000000E+00 0. -1.
</event>
<event>
11    0  0.3476221E-009  0.9118800E+02  0.7816531E-02  0.1126479E+00
         25   -1    0    0    0    0  0.00000000000E+00  0.00000000000E+00  0.99999998245E-14  0.12500000000E+03  0.12500000000E+03 0.  0.
    3000001    1    3    3    0    0 -0.11132689259E+01 -0.48221035881E+02 -0.11441928034E+02  0.49582510891E+02  0.10000000000E+01 0.  1.
    1000022    2    1    0    0    0 -0.27731368782E+01 -0.58687325478E+02 -0.18824384083E+02  0.62500000316E+02  0.10000007177E+02 0.  0.
    3000022    2    3    3    0    0 -0.16598679523E+01 -0.10466289597E+02 -0.73824560486E+01  0.12917489425E+02  0.24999238115E+00 0.  0.
    1000022    2    1    0    0    0  0.27731368782E+01  0.58687325478E+02  0.18824384083E+02  0.62499999684E+02  0.10000003228E+02 0.  0.
    3000022    2    5    5    0    0  0.15133748096E+01  0.78080507704E+01 -0.68074041890E+00  0.79863548141E+01  0.24999110093E+00 0.  0.
        -13    1    4    4    0    0 -0.68459844668E+00 -0.46211362515E+01 -0.33104549376E+01  0.57265794487E+01  0.10500000000E+00 0.  1.
         13    1    4    4    0    0 -0.97526950561E+00 -0.58451533454E+01 -0.40720011110E+01  0.71909099764E+01  0.10500000000E+00 0. -1.
    3000001    1    5    5    0    0  0.12597620685E+01  0.50879274707E+02  0.19505124502E+02  0.54513644870E+02  0.10000000000E+01 0.  1.
        -13    1    6    6    0    0  0.67377600907E+00  0.37511059358E+01 -0.36919592016E+00  0.38304177944E+01  0.10500000000E+00 0.  1.
         13    1    6    6    0    0  0.83959880056E+00  0.40569448346E+01 -0.31154449874E+00  0.41559370197E+01  0.10500000000E+00 0. -1.
</event>
<event>
11    0  0.3476221E-009  0.9118800E+02  0.7816531E-02  0.1126479E+00
         25   -1    0    0    0    0  0.00000000000E+00  0.00000000000E+00  0.99999998245E-14  0.12500000000E+03  0.12500000000E+03 0.  0.
    3000001    1    3    3    0    0  0.20500986581E+02 -0.38138543696E+02  0.44833395027E+01  0.43542385088E+02  0.10000000000E+01 0. -1.
    1000022    2    1    0    0    0  0.23529553462E+02 -0.56850935273E+02  0.45366521929E+01  0.62499999933E+02  0.10000002544E+02 0.  0.
    3000022    2    3    3    0    0  0.30285668818E+01 -0.18712391577E+02  0.53312690150E-01  0.18957614845E+02  0.25000493348E+00 0.  0.
    1000022    2    1    0    0    0 -0.23529553462E+02  0.56850935273E+02 -0.45366521929E+01  0.62500000067E+02  0.10000003385E+02 0.  0.
    3000022    2    5    5    0    0 -0.18898291105E+01  0.10422696665E+02 -0.38152049711E+01  0.11261542865E+02  0.24999781957E+00 0.  0.
        -13    1    4    4    0    0  0.92168597276E+00 -0.59761000439E+01  0.40081588676E-01  0.60478019396E+01  0.10500000000E+00 0. -1.
         13    1    4    4    0    0  0.21068809090E+01 -0.12736291533E+02  0.13231101473E-01  0.12909812905E+02  0.10500000000E+00 0.  1.
    3000001    1    5    5    0    0 -0.21639724352E+02  0.46428238609E+02 -0.72144722175E+00  0.51238457202E+02  0.10000000000E+01 0. -1.
        -13    1    6    6    0    0 -0.12056984775E+01  0.69503899297E+01 -0.25397608000E+01  0.74982023789E+01  0.10500000000E+00 0. -1.
         13    1    6    6    0    0 -0.68413063304E+00  0.34723067349E+01 -0.12754441711E+01  0.37633404866E+01  0.10500000000E+00 0.  1.
</event>
<event>
11    0  0.3476221E-009  0.9118800E+02  0.7816531E-02  0.1126479E+00
         25   -1    0    0    0    0  0.00000000000E+00  0.00000000000E+00  0.99999998245E-14  0.12500000000E+03  0.12500000000E+03 0.  0.
    3000001    1    3    3    0    0 -0.24167242210E+01 -0.18931884184E+00 -0.58202330755E+01  0.63836909886E+01  0.10000000000E+01 0. -1.
    1000022    2    1    0    0    0 -0.92101927857E+01  0.22302434593E+02 -0.56780487335E+02  0.62500000587E+02  0.10000004569E+02 0.  0.
    3000022    2    3    3    0    0 -0.67934685646E+01  0.22491753434E+02 -0.50960254260E+02  0.56116309598E+02  0.25000197091E+00 0.  0.
    1000022    2    1    0    0    0  0.92101927857E+01 -0.22302434593E+02  0.56780487335E+02  0.62499999413E+02  0.99999972345E+01 0.  0.
    3000022    2    5    5    0    0  0.16399379719E+01 -0.73487197991E+01  0.83735507614E+01  0.11263744158E+02  0.25000174020E+00 0.  0.
        -13    1    4    4    0    0 -0.31281710187E+01  0.10138955624E+02 -0.23066497823E+02  0.25390120557E+02  0.10500000000E+00 0.  1.
         13    1    4    4    0    0 -0.36652975459E+01  0.12352797810E+02 -0.27893756437E+02  0.30726189041E+02  0.10500000000E+00 0. -1.
    3000001    1    5    5    0    0  0.75702548138E+01 -0.14953714794E+02  0.48406936574E+02  0.51236255255E+02  0.10000000000E+01 0.  1.
        -13    1    6    6    0    0  0.76104459247E+00 -0.35264987874E+01  0.41059672045E+01  0.54667517096E+01  0.10500000000E+00 0.  1.
         13    1    6    6    0    0  0.87889337938E+00 -0.38222210117E+01  0.42675835569E+01  0.57969924486E+01  0.10500000000E+00 0. -1.
</event>
<event>
11    0  0.3476221E-009  0.9118800E+02  0.7816531E-02  0.1126479E+00
         25   -1    0    0    0    0  0.00000000000E+00  0.00000000000E+00  0.99999998245E-14  0.12500000000E+03  0.12500000000E+03 0.  0.
    3000001    1    3    3    0    0  0.23057855604E+02 -0.41687747272E+01 -0.52488601989E+02  0.57489970661E+02  0.10000000000E+01 0. -1.
    1000022    2    1    0    0    0  0.22604533506E+02 -0.29774100795E+01 -0.57327301740E+02  0.62499996757E+02  0.10000008203E+02 0.  0.
    3000022    2    3    3    0    0 -0.45332209761E+00  0.11913646477E+01 -0.48386997506E+01  0.50100260965E+01  0.24999112721E+00 0.  0.
    1000022    2    1    0    0    0 -0.22604533506E+02  0.29774100795E+01  0.57327301740E+02  0.62500003243E+02  0.10000048738E+02 0.  0.
    3000022    2    5    5    0    0 -0.30786610027E+01 -0.25990278308E+00  0.19993649813E+02  0.20232504408E+02  0.24999745444E+00 0.  0.
        -13    1    4    4    0    0 -0.15569686324E+00  0.41101760097E+00 -0.14797786325E+01  0.15472384376E+01  0.10500000000E+00 0.  1.
         13    1    4    4    0    0 -0.29762523438E+00  0.78034704669E+00 -0.33589211181E+01  0.34627876590E+01  0.10500000000E+00 0. -1.
    3000001    1    5    5    0    0 -0.19525872504E+02  0.32373128626E+01  0.37333651927E+02  0.42267498835E+02  0.10000000000E+01 0.  1.
        -13    1    6    6    0    0 -0.12255985309E+01 -0.16157003528E+00  0.81669021187E+01  0.82605999692E+01  0.10500000000E+00 0. -1.
         13    1    6    6    0    0 -0.18530624718E+01 -0.98332747805E-01  0.11826747695E+02  0.11971904439E+02  0.10500000000E+00 0.  1.
</event>
<event>
11    0  0.3476221E-009  0.9118800E+02  0.7816531E-02  0.1126479E+00
         25   -1    0    0    0    0  0.00000000000E+00  0.00000000000E+00  0.99999998245E-14  0.12500000000E+03  0.12500000000E+03 0.  0.
    3000001    1    3    3    0    0  0.27861755789E+02  0.28013656810E+02 -0.79651157826E+01  0.40317309843E+02  0.10000000000E+01 0.  1.
    1000022    2    1    0    0    0  0.37942611483E+02  0.45569380999E+02 -0.17030552546E+02  0.62500000144E+02  0.10000002359E+02 0.  0.
    3000022    2    3    3    0    0  0.10080855693E+02  0.17555724189E+02 -0.90654367630E+01  0.22182690300E+02  0.25000392686E+00 0.  0.
    1000022    2    1    0    0    0 -0.37942611483E+02 -0.45569380999E+02  0.17030552546E+02  0.62499999856E+02  0.10000000564E+02 0.  0.
    3000022    2    5    5    0    0 -0.30933887860E+02 -0.30342257226E+02  0.11737924269E+02  0.44893199485E+02  0.25000443528E+00 0.  0.
        -13    1    4    4    0    0  0.27729736939E+01  0.48848787774E+01 -0.24859300103E+01  0.61434759536E+01  0.10500000000E+00 0.  1.
         13    1    4    4    0    0  0.73078819995E+01  0.12670845411E+02 -0.65795067526E+01  0.16039214347E+02  0.10500000000E+00 0. -1.
    3000001    1    5    5    0    0 -0.70087236229E+01 -0.15227123773E+02  0.52926282764E+01  0.17606800371E+02  0.10000000000E+01 0.  1.
        -13    1    6    6    0    0 -0.17996300634E+02 -0.17576330745E+02  0.67774265666E+01  0.26052615509E+02  0.10500000000E+00 0. -1.
         13    1    6    6    0    0 -0.12937587226E+02 -0.12765926480E+02  0.49604977026E+01  0.18840583976E+02  0.10500000000E+00 0.  1.
</event>
<event>
11    0  0.3476221E-009  0.9118800E+02  0.7816531E-02  0.1126479E+00
         25   -1    0    0    0    0  0.00000000000E+00  0.00000000000E+00  0.99999998245E-14  0.12500000000E+03  0.12500000000E+03 0.  0.
    3000001    1    3    3    0    0  0.32443241057E+02  0.10209299359E+00  0.63996505349E+01  0.33083679363E+02  0.10000000000E+01 0. -1.
    1000022    2    1    0    0    0  0.59853790778E+02  0.94040507613E+01  0.11633466942E+02  0.62500000151E+02  0.10000001225E+02 0.  0.
    3000022    2    3    3    0    0  0.27410549722E+02  0.93019577677E+01  0.52338164067E+01  0.29416320788E+02  0.24988025124E+00 0.  0.
    1000022    2    1    0    0    0 -0.59853790778E+02 -0.94040507613E+01 -0.11633466942E+02  0.62499999849E+02  0.99999993416E+01 0.  0.
    3000022    2    5    5    0    0 -0.54711425045E+02 -0.10638312531E+02 -0.12297140725E+02  0.57077104835E+02  0.25000463879E+00 0.  0.
        -13    1    4    4    0    0  0.17299594143E+02  0.58080577841E+01  0.32994578454E+01  0.18544728087E+02  0.10500000000E+00 0. -1.
         13    1    4    4    0    0  0.10110955578E+02  0.34938999836E+01  0.19343585613E+01  0.10871592701E+02  0.10500000000E+00 0.  1.
    3000001    1    5    5    0    0 -0.51423657332E+01  0.12342617697E+01  0.66367378332E+00  0.54228950147E+01  0.10000000000E+01 0.  1.
        -13    1    6    6    0    0 -0.20351684232E+02 -0.40084190363E+01 -0.46098083152E+01  0.21248996023E+02  0.10500000000E+00 0. -1.
         13    1    6    6    0    0 -0.34359740813E+02 -0.66298934947E+01 -0.76873324098E+01  0.35828108812E+02  0.10500000000E+00 0.  1.
</event>
<event>
11    0  0.3476221E-009  0.9118800E+02  0.7816531E-02  0.1126479E+00
         25   -1    0    0    0    0  0.00000000000E+00  0.00000000000E+00  0.99999998245E-14  0.12500000000E+03  0.12500000000E+03 0.  0.
    3000001    1    3    3    0    0  0.11146967384E+01  0.24344327494E+01 -0.13500285702E+01  0.31609474482E+01  0.10000000000E+01 0. -1.
    1000022    2    1    0    0    0  0.88972837203E+01  0.25615663064E+02 -0.55415938024E+02  0.62500000061E+02  0.99999984353E+01 0.  0.
    3000022    2    3    3    0    0  0.77825869819E+01  0.23181230315E+02 -0.54065909454E+02  0.59339052612E+02  0.25000172054E+00 0.  0.
    1000022    2    1    0    0    0 -0.88972837203E+01 -0.25615663064E+02  0.55415938024E+02  0.62499999939E+02  0.99999976767E+01 0.  0.
    3000022    2    5    5    0    0  0.21680913554E+01 -0.36451662228E+01  0.71355679339E+01  0.83046182814E+01  0.24999628738E+00 0.  0.
        -13    1    4    4    0    0  0.31018393839E+01  0.93144948284E+01 -0.21565205678E+02  0.23694943393E+02  0.10500000000E+00 0. -1.
         13    1    4    4    0    0  0.46807475980E+01  0.13866735486E+02 -0.32500703776E+02  0.35644109220E+02  0.10500000000E+00 0.  1.
    3000001    1    5    5    0    0 -0.11065375076E+02 -0.21970496842E+02  0.48280370090E+02  0.54195381658E+02  0.10000000000E+01 0.  1.
        -13    1    6    6    0    0  0.68992872255E+00 -0.10749563930E+01  0.21221023202E+01  0.24790877650E+01  0.10500000000E+00 0. -1.
         13    1    6    6    0    0  0.14781626328E+01 -0.25702098298E+01  0.50134656136E+01  0.58255305164E+01  0.10500000000E+00 0.  1.
</event>
<event>
11    0  0.3476221E-009  0.9118800E+02  0.7816531E-02  0.1126479E+00
         25   -1    0    0    0    0  0.00000000000E+00  0.00000000000E+00  0.99999998245E-14  0.12500000000E+03  0.12500000000E+03 0.  0.
    3000001    1    3    3    0    0  0.27889361072E+02  0.18418314698E+01  0.15046868526E+02  0.31758731974E+02  0.10000000000E+01 0. -1.
    1000022    2    1    0    0    0  0.55500176238E+02 -0.55338644559E+01  0.26369628150E+02  0.62499997055E+02  0.99999562409E+01 0.  0.
    3000022    2    3    3    0    0  0.27610815167E+02 -0.73756959257E+01  0.11322759624E+02  0.30741265081E+02  0.24997747544E+00 0.  0.
    1000022    2    1    0    0    0 -0.55500176238E+02  0.55338644559E+01 -0.26369628150E+02  0.62500002945E+02  0.99999930516E+01 0.  0.
    3000022    2    5    5    0    0 -0.52827929644E+01 -0.24061855122E+01 -0.24994748780E+01  0.63251491968E+01  0.25001494575E+00 0.  0.
        -13    1    4    4    0    0  0.88396045760E+01 -0.23258590826E+01  0.36616786361E+01  0.98471896989E+01  0.10500000000E+00 0.  1.
         13    1    4    4    0    0  0.18771210591E+02 -0.50498368431E+01  0.76610809880E+01  0.20894075382E+02  0.10500000000E+00 0. -1.
    3000001    1    5    5    0    0 -0.50217383274E+02  0.79400499681E+01 -0.23870153272E+02  0.56174853748E+02  0.10000000000E+01 0. -1.
        -13    1    6    6    0    0 -0.33774341278E+01 -0.15132899651E+01 -0.15342330744E+01  0.40077429973E+01  0.10500000000E+00 0. -1.
         13    1    6    6    0    0 -0.19053588366E+01 -0.89289554708E+00 -0.96524180358E+00  0.23174061995E+01  0.10500000000E+00 0.  1.
</event>
<event>
11    0  0.3476221E-009  0.9118800E+02  0.7816531E-02  0.1126479E+00
         25   -1    0    0    0    0  0.00000000000E+00  0.00000000000E+00  0.99999998245E-14  0.12500000000E+03  0.12500000000E+03 0.  0.
    3000001    1    3    3    0    0 -0.74503570549E+00  0.54767240950E+02 -0.67803379600E+01  0.55199445127E+02  0.10000000000E+01 0.  1.
    1000022    2    1    0    0    0 -0.30631215799E+01  0.61423912983E+02 -0.48959738129E+01  0.62500002250E+02  0.99999960886E+01 0.  0.
    3000022    2    3    3    0    0 -0.23180858744E+01  0.66566720332E+01  0.18843641471E+01  0.73005571236E+01  0.25000279524E+00 0.  0.
    1000022    2    1    0    0    0  0.30631215799E+01 -0.61423912983E+02  0.48959738129E+01  0.62499997750E+02  0.99999679586E+01 0.  0.
    3000022    2    5    5    0    0  0.42112561874E+01 -0.11286848860E+02 -0.43495737069E+00  0.12057334862E+02  0.25000037408E+00 0.  0.
        -13    1    4    4    0    0 -0.13684096489E+01  0.39432354463E+01  0.11814822583E+01  0.43391907170E+01  0.10500000000E+00 0. -1.
         13    1    4    4    0    0 -0.94967622550E+00  0.27134365869E+01  0.70288188884E+00  0.29613664066E+01  0.10500000000E+00 0.  1.
    3000001    1    5    5    0    0 -0.11481346075E+01 -0.50137064123E+02  0.53309311836E+01  0.50442662888E+02  0.10000000000E+01 0. -1.
        -13    1    6    6    0    0  0.10049937866E+01 -0.26992034224E+01 -0.12257692458E+00  0.28847463890E+01  0.10500000000E+00 0. -1.
         13    1    6    6    0    0  0.32062624008E+01 -0.85876454377E+01 -0.31238044611E+00  0.91725884727E+01  0.10500000000E+00 0.  1.
</event>
<event>
11    0  0.3476221E-009  0.9118800E+02  0.7816531E-02  0.1126479E+00
         25   -1    0    0    0    0  0.00000000000E+00  0.00000000000E+00  0.99999998245E-14  0.12500000000E+03  0.12500000000E+03 0.  0.
    3000001    1    3    3    0    0  0.28370457174E+02  0.98102101900E+01  0.26271550022E+02  0.39903852005E+02  0.10000000000E+01 0. -1.
    1000022    2    1    0    0    0  0.38408056726E+02  0.17444177161E+02  0.45019683672E+02  0.62499999325E+02  0.99999929687E+01 0.  0.
    3000022    2    3    3    0    0  0.10037599552E+02  0.76339669711E+01  0.18748133650E+02  0.22596147320E+02  0.25000376033E+00 0.  0.
    1000022    2    1    0    0    0 -0.38408056726E+02 -0.17444177161E+02 -0.45019683672E+02  0.62500000675E+02  0.10000001409E+02 0.  0.
    3000022    2    5    5    0    0 -0.91322886365E+01 -0.54619559846E+01 -0.58616514215E+01  0.12151259765E+02  0.24999512650E+00 0.  0.
        -13    1    4    4    0    0  0.72497275109E+01  0.55368810911E+01  0.13620751152E+02  0.16393641699E+02  0.10500000000E+00 0.  1.
         13    1    4    4    0    0  0.27878720410E+01  0.20970858799E+01  0.51273824973E+01  0.62025056210E+01  0.10500000000E+00 0. -1.
    3000001    1    5    5    0    0 -0.29275768090E+02 -0.11982221176E+02 -0.39158032250E+02  0.50348740911E+02  0.10000000000E+01 0. -1.
        -13    1    6    6    0    0 -0.50525947395E+01 -0.30873766653E+01 -0.32211052901E+01  0.67414503310E+01  0.10500000000E+00 0. -1.
         13    1    6    6    0    0 -0.40796938970E+01 -0.23745793193E+01 -0.26405461315E+01  0.54098094338E+01  0.10500000000E+00 0.  1.
</event>
<event>
11    0  0.3476221E-009  0.9118800E+02  0.7816531E-02  0.1126479E+00
         25   -1    0    0    0    0  0.00000000000E+00  0.00000000000E+00  0.99999998245E-14  0.12500000000E+03  0.12500000000E+03 0.  0.
    3000001    1    3    3    0    0 -0.23569539086E+01 -0.26706421008E+02  0.29564197059E+02  0.39922799282E+02  0.10000000000E+01 0. -1.
    1000022    2    1    0    0    0 -0.11269037077E+01 -0.46221033249E+02  0.40848452407E+02  0.62500000876E+02  0.10000010940E+02 0.  0.
    3000022    2    3    3    0    0  0.12300502009E+01 -0.19514612242E+02  0.11284255348E+02  0.22577201593E+02  0.24999719861E+00 0.  0.
    1000022    2    1    0    0    0  0.11269037077E+01  0.46221033249E+02 -0.40848452407E+02  0.62499999124E+02  0.99999999928E+01 0.  0.
    3000022    2    5    5    0    0  0.32875611729E+00  0.45381425275E+01 -0.87835643941E+01  0.98952706124E+01  0.25011765712E+00 0.  0.
        -13    1    4    4    0    0  0.72489757769E+00 -0.10764378631E+02  0.62812825335E+01  0.12484504759E+02  0.10500000000E+00 0.  1.
         13    1    4    4    0    0  0.50515262317E+00 -0.87502336109E+01  0.50029728142E+01  0.10092696835E+02  0.10500000000E+00 0. -1.
    3000001    1    5    5    0    0  0.79814759043E+00  0.41682890722E+02 -0.32064888013E+02  0.52604728512E+02  0.10000000000E+01 0. -1.
        -13    1    6    6    0    0  0.19779326504E+00  0.18741680147E+01 -0.36775990525E+01  0.41336893586E+01  0.10500000000E+00 0.  1.
         13    1    6    6    0    0  0.13096285225E+00  0.26639745128E+01 -0.51059653417E+01  0.57615812538E+01  0.10500000000E+00 0. -1.
</event>
<event>
11    0  0.3476221E-009  0.9118800E+02  0.7816531E-02  0.1126479E+00
         25   -1    0    0    0    0  0.00000000000E+00  0.00000000000E+00  0.99999998245E-14  0.12500000000E+03  0.12500000000E+03 0.  0.
    3000001    1    3    3    0    0 -0.19784552790E+02 -0.23194142964E+02  0.30331246005E+02  0.43016058410E+02  0.10000000000E+01 0.  1.
    1000022    2    1    0    0    0 -0.26798541553E+02 -0.38599366865E+02  0.39977205944E+02  0.62500000659E+02  0.10000006773E+02 0.  0.
    3000022    2    3    3    0    0 -0.70139887625E+01 -0.15405223901E+02  0.96459599395E+01  0.19483942249E+02  0.25000115491E+00 0.  0.
    1000022    2    1    0    0    0  0.26798541553E+02  0.38599366865E+02 -0.39977205944E+02  0.62499999341E+02  0.99999985391E+01 0.  0.
    3000022    2    5    5    0    0  0.24841077250E+01  0.31975387611E+01 -0.37834027497E+00  0.40743946137E+01  0.25000957180E+00 0.  0.
        -13    1    4    4    0    0 -0.37152193663E+01 -0.81242695026E+01  0.51665426405E+01  0.10320406860E+02  0.10500000000E+00 0. -1.
         13    1    4    4    0    0 -0.32987693962E+01 -0.72809543988E+01  0.44794172989E+01  0.91635353890E+01  0.10500000000E+00 0.  1.
    3000001    1    5    5    0    0  0.24314433828E+02  0.35401828104E+02 -0.39598865669E+02  0.58425604728E+02  0.10000000000E+01 0.  1.
        -13    1    6    6    0    0  0.15948439326E+01  0.19721844380E+01 -0.27093268829E+00  0.25529332440E+01  0.10500000000E+00 0. -1.
         13    1    6    6    0    0  0.88926379240E+00  0.12253543232E+01 -0.10740758668E+00  0.15214613697E+01  0.10500000000E+00 0.  1.
</event>
<event>
11    0  0.3476221E-009  0.9118800E+02  0.7816531E-02  0.1126479E+00
         25   -1    0    0    0    0  0.00000000000E+00  0.00000000000E+00  0.99999998245E-14  0.12500000000E+03  0.12500000000E+03 0.  0.
    3000001    1    3    3    0    0 -0.76906528708E+01  0.14395521329E+02  0.67431907086E+01  0.17687503974E+02  0.10000000000E+01 0. -1.
    1000022    2    1    0    0    0 -0.12225922146E+02  0.54089204021E+02  0.27039504480E+02  0.62500001851E+02  0.10000013250E+02 0.  0.
    3000022    2    3    3    0    0 -0.45352692752E+01  0.39693682692E+02  0.20296313772E+02  0.44812497877E+02  0.25000048375E+00 0.  0.
    1000022    2    1    0    0    0  0.12225922146E+02 -0.54089204021E+02 -0.27039504480E+02  0.62499998149E+02  0.99999901059E+01 0.  0.
    3000022    2    5    5    0    0  0.21621745405E+01 -0.51378386931E+01 -0.62097782500E+01  0.83484268128E+01  0.24999830950E+00 0.  0.
        -13    1    4    4    0    0 -0.33391586176E+01  0.29475887337E+02  0.15057894973E+02  0.33267538842E+02  0.10500000000E+00 0. -1.
         13    1    4    4    0    0 -0.11961106576E+01  0.10217795355E+02  0.52384187986E+01  0.11544959035E+02  0.10500000000E+00 0.  1.
    3000001    1    5    5    0    0  0.10063747605E+02 -0.48951365328E+02 -0.20829726230E+02  0.54151571336E+02  0.10000000000E+01 0. -1.
        -13    1    6    6    0    0  0.11301446403E+01 -0.27014037062E+01 -0.31611973969E+01  0.43103367471E+01  0.10500000000E+00 0. -1.
         13    1    6    6    0    0  0.10320299002E+01 -0.24364349870E+01 -0.30485808532E+01  0.40380900657E+01  0.10500000000E+00 0.  1.
</event>
<event>
11    0  0.3476221E-009  0.9118800E+02  0.7816531E-02  0.1126479E+00
         25   -1    0    0    0    0  0.00000000000E+00  0.00000000000E+00  0.99999998245E-14  0.12500000000E+03  0.12500000000E+03 0.  0.
    3000001    1    3    3    0    0  0.36952395603E+01 -0.37192978959E+01  0.16053416709E+01  0.55736069225E+01  0.10000000000E+01 0. -1.
    1000022    2    1    0    0    0  0.57928883869E+02 -0.17123797376E+02  0.12540735745E+02  0.62499999092E+02  0.99999905314E+01 0.  0.
    3000022    2    3    3    0    0  0.54233644309E+02 -0.13404499480E+02  0.10935394074E+02  0.56926392170E+02  0.25000118448E+00 0.  0.
    1000022    2    1    0    0    0 -0.57928883869E+02  0.17123797376E+02 -0.12540735745E+02  0.62500000908E+02  0.10000001877E+02 0.  0.
    3000022    2    5    5    0    0 -0.18327142195E+02  0.75485966416E+01 -0.84216321526E+01  0.21537219909E+02  0.25000202236E+00 0.  0.
        -13    1    4    4    0    0  0.36514400987E+02 -0.90588688259E+01  0.74053674920E+01  0.38343383738E+02  0.10500000000E+00 0. -1.
         13    1    4    4    0    0  0.17719243322E+02 -0.43456306539E+01  0.35300265821E+01  0.18583008431E+02  0.10500000000E+00 0.  1.
    3000001    1    5    5    0    0 -0.39601741674E+02  0.95752007342E+01 -0.41191035924E+01  0.40962780998E+02  0.10000000000E+01 0.  1.
        -13    1    6    6    0    0 -0.91900619270E+01  0.37165418543E+01 -0.42377929218E+01  0.10781457945E+02  0.10500000000E+00 0. -1.
         13    1    6    6    0    0 -0.91370802681E+01  0.38320547873E+01 -0.41838392309E+01  0.10755761964E+02  0.10500000000E+00 0.  1.
</event>
<event>
11    0  0.3476221E-009  0.9118800E+02  0.7816531E-02  0.1126479E+00
         25   -1    0    0    0    0  0.00000000000E+00  0.00000000000E+00  0.99999998245E-14  0.12500000000E+03  0.12500000000E+03 0.  0.
    3000001    1    3    3    0    0 -0.50000016070E+02 -0.17480505481E+02  0.45875376625E+01  0.53175324923E+02  0.10000000000E+01 0. -1.
    1000022    2    1    0    0    0 -0.56769105179E+02 -0.23846701172E+02  0.38540217651E+01  0.62499999681E+02  0.10000000838E+02 0.  0.
    3000022    2    3    3    0    0 -0.67690891096E+01 -0.63661956911E+01 -0.73351589732E+00  0.93246747587E+01  0.24999766380E+00 0.  0.
    1000022    2    1    0    0    0  0.56769105179E+02  0.23846701172E+02 -0.38540217651E+01  0.62500000319E+02  0.10000004821E+02 0.  0.
    3000022    2    5    5    0    0  0.50069163121E+02  0.20514534636E+02 -0.19294992510E+00  0.54109767639E+02  0.24999448695E+00 0.  0.
        -13    1    4    4    0    0 -0.31043027975E+01 -0.29510760170E+01 -0.27486127886E+00  0.42932644036E+01  0.10500000000E+00 0.  1.
         13    1    4    4    0    0 -0.36647863121E+01 -0.34151196741E+01 -0.45865461846E+00  0.50314103550E+01  0.10500000000E+00 0. -1.
    3000001    1    5    5    0    0  0.66999420578E+01  0.33321665366E+01 -0.36610718400E+01  0.83902326799E+01  0.10000000000E+01 0.  1.
        -13    1    6    6    0    0  0.28384743271E+02  0.11586027377E+02 -0.57621556425E-01  0.30658506588E+02  0.10500000000E+00 0. -1.
         13    1    6    6    0    0  0.21684419851E+02  0.89285072584E+01 -0.13532836868E+00  0.23451261051E+02  0.10500000000E+00 0.  1.
</event>
<event>
11    0  0.3476221E-009  0.9118800E+02  0.7816531E-02  0.1126479E+00
         25   -1    0    0    0    0  0.00000000000E+00  0.00000000000E+00  0.99999998245E-14  0.12500000000E+03  0.12500000000E+03 0.  0.
    3000001    1    3    3    0    0  0.11870472948E+02  0.66175385524E+01  0.84952997070E+01  0.16058333090E+02  0.10000000000E+01 0. -1.
    1000022    2    1    0    0    0  0.53299701514E+02  0.25330372455E+02  0.17993441659E+02  0.62499999026E+02  0.99999992630E+01 0.  0.
    3000022    2    3    3    0    0  0.41429228566E+02  0.18712833902E+02  0.94981419524E+01  0.46441665936E+02  0.25000427284E+00 0.  0.
    1000022    2    1    0    0    0 -0.53299701514E+02 -0.25330372455E+02 -0.17993441659E+02  0.62500000974E+02  0.10000011442E+02 0.  0.
    3000022    2    5    5    0    0 -0.39152076591E+02 -0.14335690689E+02 -0.14975039738E+02  0.44302499270E+02  0.24999511544E+00 0.  0.
        -13    1    4    4    0    0  0.15375973823E+02  0.68980075357E+01  0.34787735937E+01  0.17208020504E+02  0.10500000000E+00 0. -1.
         13    1    4    4    0    0  0.26053254743E+02  0.11814826366E+02  0.60193683587E+01  0.29233645431E+02  0.10500000000E+00 0.  1.
    3000001    1    5    5    0    0 -0.14147624924E+02 -0.10994681765E+02 -0.30184019209E+01  0.18197501704E+02  0.10000000000E+01 0.  1.
        -13    1    6    6    0    0 -0.12252882018E+02 -0.45355648758E+01 -0.47109360329E+01  0.13889147195E+02  0.10500000000E+00 0. -1.
         13    1    6    6    0    0 -0.26899194573E+02 -0.98001258132E+01 -0.10264103706E+02  0.30413352076E+02  0.10500000000E+00 0.  1.
</event>
<event>
11    0  0.3476221E-009  0.9118800E+02  0.7816531E-02  0.1126479E+00
         25   -1    0    0    0    0  0.00000000000E+00  0.00000000000E+00  0.99999998245E-14  0.12500000000E+03  0.12500000000E+03 0.  0.
    3000001    1    3    3    0    0 -0.27900194908E+02  0.14162773277E+02  0.39719776653E+02  0.50573369279E+02  0.10000000000E+01 0. -1.
    1000022    2    1    0    0    0 -0.34429774749E+02  0.21532156318E+02  0.46445743822E+02  0.62499992863E+02  0.99999421854E+01 0.  0.
    3000022    2    3    3    0    0 -0.65295798407E+01  0.73693830407E+01  0.67259671683E+01  0.11926623584E+02  0.24999292534E+00 0.  0.
    1000022    2    1    0    0    0  0.34429774749E+02 -0.21532156318E+02 -0.46445743822E+02  0.62500007137E+02  0.10000031404E+02 0.  0.
    3000022    2    5    5    0    0  0.24040797532E+02 -0.19446183698E+02 -0.37434099044E+02  0.48553972899E+02  0.25001330254E+00 0.  0.
        -13    1    4    4    0    0 -0.32581925877E+01  0.36677095084E+01  0.34330813919E+01  0.59887381659E+01  0.10500000000E+00 0.  1.
         13    1    4    4    0    0 -0.32713872530E+01  0.37016735323E+01  0.32928857764E+01  0.59378854179E+01  0.10500000000E+00 0. -1.
    3000001    1    5    5    0    0  0.10388977217E+02 -0.20859726199E+01 -0.90116447780E+01  0.13946034239E+02  0.10000000000E+01 0.  1.
        -13    1    6    6    0    0  0.13392672007E+02 -0.10875074537E+02 -0.20976209712E+02  0.27159589624E+02  0.10500000000E+00 0.  1.
         13    1    6    6    0    0  0.10648125525E+02 -0.85711091609E+01 -0.16457889332E+02  0.21394383275E+02  0.10500000000E+00 0. -1.
</event>
<event>
11    0  0.3476221E-009  0.9118800E+02  0.7816531E-02  0.1126479E+00
         25   -1    0    0    0    0  0.00000000000E+00  0.00000000000E+00  0.99999998245E-14  0.12500000000E+03  0.12500000000E+03 0.  0.
    3000001    1    3    3    0    0  0.24445890803E+02  0.16047737623E+02  0.18220703378E+02  0.34469196271E+02  0.10000000000E+01 0. -1.
    1000022    2    1    0    0    0  0.38865938498E+02  0.26797434390E+02  0.39718837830E+02  0.62500002190E+02  0.10000026494E+02 0.  0.
    3000022    2    3    3    0    0  0.14420047695E+02  0.10749696768E+02  0.21498134452E+02  0.28030805919E+02  0.25007881457E+00 0.  0.
    1000022    2    1    0    0    0 -0.38865938498E+02 -0.26797434390E+02 -0.39718837830E+02  0.62499997810E+02  0.99999991230E+01 0.  0.
    3000022    2    5    5    0    0 -0.27022672960E+01  0.54362671272E+00 -0.12621283046E+01  0.30419180853E+01  0.25003847337E+00 0.  0.
        -13    1    4    4    0    0  0.72597053144E+01  0.54322431761E+01  0.10734972709E+02  0.14052161800E+02  0.10500000000E+00 0.  1.
         13    1    4    4    0    0  0.71603423808E+01  0.53174535918E+01  0.10763161743E+02  0.13978644119E+02  0.10500000000E+00 0. -1.
    3000001    1    5    5    0    0 -0.36163671202E+02 -0.27341061103E+02 -0.38456709525E+02  0.59458079725E+02  0.10000000000E+01 0. -1.
        -13    1    6    6    0    0 -0.10045241807E+01  0.19029429930E+00 -0.40500184421E+00  0.11046864912E+01  0.10500000000E+00 0.  1.
         13    1    6    6    0    0 -0.16977431153E+01  0.35333241342E+00 -0.85712646043E+00  0.19372315941E+01  0.10500000000E+00 0. -1.
</event>
<event>
11    0  0.3476221E-009  0.9118800E+02  0.7816531E-02  0.1126479E+00
         25   -1    0    0    0    0  0.00000000000E+00  0.00000000000E+00  0.99999998245E-14  0.12500000000E+03  0.12500000000E+03 0.  0.
    3000001    1    3    3    0    0 -0.23271624717E+02  0.13752862185E+02 -0.33889469402E+02  0.43361340749E+02  0.10000000000E+01 0. -1.
    1000022    2    1    0    0    0 -0.33677331566E+02  0.25246043684E+02 -0.45107923857E+02  0.62499997138E+02  0.99999732237E+01 0.  0.
    3000022    2    3    3    0    0 -0.10405706849E+02  0.11493181500E+02 -0.11218454455E+02  0.19138656389E+02  0.24998399979E+00 0.  0.
    1000022    2    1    0    0    0  0.33677331566E+02 -0.25246043684E+02  0.45107923857E+02  0.62500002862E+02  0.10000008995E+02 0.  0.
    3000022    2    5    5    0    0  0.19437061467E+01  0.38524546014E+00  0.52915866403E+00  0.20661359360E+01  0.25000233033E+00 0.  0.
        -13    1    4    4    0    0 -0.36228488079E+01  0.40511470466E+01 -0.38764688471E+01  0.66764407883E+01  0.10500000000E+00 0.  1.
         13    1    4    4    0    0 -0.67828580411E+01  0.74420344531E+01 -0.73419856080E+01  0.12462215601E+02  0.10500000000E+00 0. -1.
    3000001    1    5    5    0    0  0.31733625420E+02 -0.25631289144E+02  0.44578765193E+02  0.60433866926E+02  0.10000000000E+01 0. -1.
        -13    1    6    6    0    0  0.13734125421E+01  0.26591271206E+00  0.32616052004E+00  0.14402698587E+01  0.10500000000E+00 0. -1.
         13    1    6    6    0    0  0.57029360461E+00  0.11933274808E+00  0.20299814399E+00  0.62586607727E+00  0.10500000000E+00 0.  1.
</event>
<event>
11    0  0.3476221E-009  0.9118800E+02  0.7816531E-02  0.1126479E+00
         25   -1    0    0    0    0  0.00000000000E+00  0.00000000000E+00  0.99999998245E-14  0.12500000000E+03  0.12500000000E+03 0.  0.
    3000001    1    3    3    0    0 -0.14894228471E+02  0.19383235940E+02 -0.26388573686E+01  0.24607142164E+02  0.10000000000E+01 0.  1.
    1000022    2    1    0    0    0 -0.30469989370E+02  0.51107089962E+02 -0.16306297842E+02  0.62499999920E+02  0.99999872012E+01 0.  0.
    3000022    2    3    3    0    0 -0.15575760898E+02  0.31723854023E+02 -0.13667440474E+02  0.37892857756E+02  0.24999640103E+00 0.  0.
    1000022    2    1    0    0    0  0.30469989370E+02 -0.51107089962E+02  0.16306297842E+02  0.62500000080E+02  0.99999882044E+01 0.  0.
    3000022    2    5    5    0    0  0.29288602732E+00 -0.28131976938E+01 -0.93904101646E+00  0.29906788865E+01  0.24999736356E+00 0.  0.
        -13    1    4    4    0    0 -0.88748141557E+01  0.17953123117E+02 -0.77850168898E+01  0.21487076789E+02  0.10500000000E+00 0.  1.
         13    1    4    4    0    0 -0.67009467427E+01  0.13770730906E+02 -0.58824235840E+01  0.16405780968E+02  0.10500000000E+00 0. -1.
    3000001    1    5    5    0    0  0.30177103342E+02 -0.48293892269E+02  0.17245338859E+02  0.59509321194E+02  0.10000000000E+01 0.  1.
        -13    1    6    6    0    0  0.75100844657E-01 -0.64601652724E+00 -0.22201716237E+00  0.69519357787E+00  0.10500000000E+00 0.  1.
         13    1    6    6    0    0  0.21778518267E+00 -0.21671811666E+01 -0.71702385410E+00  0.22954853086E+01  0.10500000000E+00 0. -1.
</event>
<event>
11    0  0.3476221E-009  0.9118800E+02  0.7816531E-02  0.1126479E+00
         25   -1    0    0    0    0  0.00000000000E+00  0.00000000000E+00  0.99999998245E-14  0.12500000000E+03  0.12500000000E+03 0.  0.
    3000001    1    3    3    0    0  0.49815690354E+02  0.22714283448E+02 -0.14374974637E+02  0.56614323045E+02  0.10000000000E+01 0. -1.
    1000022    2    1    0    0    0  0.55459427885E+02  0.23677525881E+02 -0.13033667146E+02  0.62500000746E+02  0.10000012042E+02 0.  0.
    3000022    2    3    3    0    0  0.56437375302E+01  0.96324243317E+00  0.13413074910E+01  0.58856777009E+01  0.24997383561E+00 0.  0.
    1000022    2    1    0    0    0 -0.55459427885E+02 -0.23677525881E+02  0.13033667146E+02  0.62499999254E+02  0.10000002715E+02 0.  0.
    3000022    2    5    5    0    0 -0.17799226916E+02 -0.62744107924E+01 -0.40696066417E+00  0.18878793083E+02  0.25000343408E+00 0.  0.
        -13    1    4    4    0    0  0.14319742999E+01  0.25744348610E+00  0.31507205344E+00  0.14923548314E+01  0.10500000000E+00 0.  1.
         13    1    4    4    0    0  0.42117632303E+01  0.70579894708E+00  0.10262354375E+01  0.43933228695E+01  0.10500000000E+00 0. -1.
    3000001    1    5    5    0    0 -0.37660200969E+02 -0.17403115089E+02  0.13440627810E+02  0.43621206171E+02  0.10000000000E+01 0.  1.
        -13    1    6    6    0    0 -0.96300818396E+01 -0.33254618511E+01 -0.20428682139E+00  0.10190678626E+02  0.10500000000E+00 0.  1.
         13    1    6    6    0    0 -0.81691450759E+01 -0.29489489412E+01 -0.20267384278E+00  0.86881144569E+01  0.10500000000E+00 0. -1.
</event>
<event>
11    0  0.3476221E-009  0.9118800E+02  0.7816531E-02  0.1126479E+00
         25   -1    0    0    0    0  0.00000000000E+00  0.00000000000E+00  0.99999998245E-14  0.12500000000E+03  0.12500000000E+03 0.  0.
    3000001    1    3    3    0    0 -0.25192212094E+02 -0.54633378486E+02 -0.17828131870E+00  0.60170469328E+02  0.10000000000E+01 0. -1.
    1000022    2    1    0    0    0 -0.24234328013E+02 -0.56734655419E+02 -0.35521054413E+00  0.62499999898E+02  0.10000001643E+02 0.  0.
    3000022    2    3    3    0    0  0.95788408010E+00 -0.21012769338E+01 -0.17692922543E+00  0.23295305697E+01  0.25000412181E+00 0.  0.
    1000022    2    1    0    0    0  0.24234328013E+02  0.56734655419E+02  0.35521054413E+00  0.62500000102E+02  0.10000002922E+02 0.  0.
    3000022    2    5    5    0    0  0.13520161006E+02  0.19643276983E+02 -0.81230429254E+00  0.23861588905E+02  0.25000507507E+00 0.  0.
        -13    1    4    4    0    0  0.61320812075E+00 -0.14267064392E+01 -0.15899680764E+00  0.15645511970E+01  0.10500000000E+00 0.  1.
         13    1    4    4    0    0  0.34467595934E+00 -0.67457049460E+00 -0.17932417796E-01  0.76497937276E+00  0.10500000000E+00 0. -1.
    3000001    1    5    5    0    0  0.10714167007E+02  0.37091378436E+02  0.11675148367E+01  0.38638411197E+02  0.10000000000E+01 0. -1.
        -13    1    6    6    0    0  0.93056356805E+01  0.13517996554E+02 -0.60788775775E+00  0.16422899829E+02  0.10500000000E+00 0. -1.
         13    1    6    6    0    0  0.42145253259E+01  0.61252804292E+01 -0.20441653478E+00  0.74386890766E+01  0.10500000000E+00 0.  1.
</event>
<event>
11    0  0.3476221E-009  0.9118800E+02  0.7816531E-02  0.1126479E+00
         25   -1    0    0    0    0  0.00000000000E+00  0.00000000000E+00  0.99999998245E-14  0.12500000000E+03  0.12500000000E+03 0.  0.
    3000001    1    3    3    0    0  0.56651530058E+02  0.68011651629E+01  0.79029623195E+01  0.57611704704E+02  0.10000000000E+01 0.  1.
    1000022    2    1    0    0    0  0.60463926070E+02  0.98029669524E+01  0.73665200661E+01  0.62500001186E+02  0.10000000676E+02 0.  0.
    3000022    2    3    3    0    0  0.38123960116E+01  0.30018017895E+01 -0.53644225342E+00  0.48882964817E+01  0.24998973668E+00 0.  0.
    1000022    2    1    0    0    0 -0.60463926070E+02 -0.98029669524E+01 -0.73665200661E+01  0.62499998814E+02  0.99999858502E+01 0.  0.
    3000022    2    5    5    0    0 -0.13396807447E+02 -0.24597677012E+01 -0.58579521822E+01  0.14829127123E+02  0.25000109804E+00 0.  0.
        -13    1    4    4    0    0  0.16394855253E+01  0.13728026023E+01 -0.22089715234E+00  0.21522825847E+01  0.10500000000E+00 0. -1.
         13    1    4    4    0    0  0.21729104863E+01  0.16289991873E+01 -0.31554510108E+00  0.27360138970E+01  0.10500000000E+00 0.  1.
    3000001    1    5    5    0    0 -0.47067118623E+02 -0.73431992513E+01 -0.15085678839E+01  0.47670871691E+02  0.10000000000E+01 0.  1.
        -13    1    6    6    0    0 -0.10327145635E+02 -0.18955675251E+01 -0.45107574376E+01  0.11428082554E+02  0.10500000000E+00 0. -1.
         13    1    6    6    0    0 -0.30696618123E+01 -0.56420017601E+00 -0.13471947446E+01  0.34010445690E+01  0.10500000000E+00 0.  1.
</event>
<event>
11    0  0.3476221E-009  0.9118800E+02  0.7816531E-02  0.1126479E+00
         25   -1    0    0    0    0  0.00000000000E+00  0.00000000000E+00  0.99999998245E-14  0.12500000000E+03  0.12500000000E+03 0.  0.
    3000001    1    3    3    0    0 -0.16970402174E+02 -0.19930640572E+00  0.17810563154E+02  0.24622153295E+02  0.10000000000E+01 0. -1.
    1000022    2    1    0    0    0 -0.41516493306E+02 -0.12570084477E+02  0.43870533639E+02  0.62500000463E+02  0.10000004795E+02 0.  0.
    3000022    2    3    3    0    0 -0.24546091132E+02 -0.12370778071E+02  0.26059970485E+02  0.37877847168E+02  0.25000897030E+00 0.  0.
    1000022    2    1    0    0    0  0.41516493306E+02  0.12570084477E+02 -0.43870533639E+02  0.62499999537E+02  0.99999990106E+01 0.  0.
    3000022    2    5    5    0    0  0.23887790523E+01  0.28796012554E+01 -0.15850661080E+01  0.40710319604E+01  0.24999581055E+00 0.  0.
        -13    1    4    4    0    0 -0.76764763237E+01 -0.38389973168E+01  0.81942501147E+01  0.11866884557E+02  0.10500000000E+00 0. -1.
         13    1    4    4    0    0 -0.16869614808E+02 -0.85317807544E+01  0.17865720370E+02  0.26010962611E+02  0.10500000000E+00 0.  1.
    3000001    1    5    5    0    0  0.39127714254E+02  0.96904832215E+01 -0.42285467531E+02  0.58428967577E+02  0.10000000000E+01 0.  1.
        -13    1    6    6    0    0  0.75381673242E+00  0.96815553971E+00 -0.48144286443E+00  0.13222620946E+01  0.10500000000E+00 0. -1.
         13    1    6    6    0    0  0.16349623199E+01  0.19114457157E+01 -0.11036232435E+01  0.27487698658E+01  0.10500000000E+00 0. -1.
</event>
<event>
11    0  0.3476221E-009  0.9118800E+02  0.7816531E-02  0.1126479E+00
         25   -1    0    0    0    0  0.00000000000E+00  0.00000000000E+00  0.99999998245E-14  0.12500000000E+03  0.12500000000E+03 0.  0.
    3000001    1    3    3    0    0 -0.23738745005E+01  0.14871013632E+02 -0.58057205818E+02  0.59986844175E+02  0.10000000000E+01 0.  1.
    1000022    2    1    0    0    0 -0.74988937895E+00  0.14595604902E+02 -0.59938768120E+02  0.62500000057E+02  0.10000003342E+02 0.  0.
    3000022    2    3    3    0    0  0.16239851215E+01 -0.27540872994E+00 -0.18815623019E+01  0.25131558827E+01  0.24999630274E+00 0.  0.
    1000022    2    1    0    0    0  0.74988937895E+00 -0.14595604902E+02  0.59938768120E+02  0.62499999943E+02  0.10000002626E+02 0.  0.
    3000022    2    5    5    0    0  0.87430937658E+00 -0.94166819178E+00  0.34500821680E+00  0.13537679454E+01  0.25000222184E+00 0.  0.
        -13    1    4    4    0    0  0.46688805268E+00 -0.59014670798E-01 -0.60246200866E+00  0.77165578918E+00  0.10500000000E+00 0. -1.
         13    1    4    4    0    0  0.11570970688E+01 -0.21639405915E+00 -0.12791002932E+01  0.17415000935E+01  0.10500000000E+00 0.  1.
    3000001    1    5    5    0    0 -0.12441999763E+00 -0.13653936710E+02  0.59593759904E+02  0.61146231997E+02  0.10000000000E+01 0.  1.
        -13    1    6    6    0    0  0.43955257214E+00 -0.42270673378E+00  0.10378125611E+00  0.62744162723E+00  0.10500000000E+00 0. -1.
         13    1    6    6    0    0  0.43475680444E+00 -0.51896145800E+00  0.24122696069E+00  0.72632631816E+00  0.10500000000E+00 0.  1.
</event>
<event>
11    0  0.3476221E-009  0.9118800E+02  0.7816531E-02  0.1126479E+00
         25   -1    0    0    0    0  0.00000000000E+00  0.00000000000E+00  0.99999998245E-14  0.12500000000E+03  0.12500000000E+03 0.  0.
    3000001    1    3    3    0    0 -0.14554411956E+02  0.84588837597E+01  0.23386716428E+02  0.28832657303E+02  0.10000000000E+01 0.  1.
    1000022    2    1    0    0    0 -0.39661446783E+02  0.17830935357E+02  0.43763870929E+02  0.62499992535E+02  0.10000002579E+02 0.  0.
    3000022    2    3    3    0    0 -0.25107034827E+02  0.93720515974E+01  0.20377154501E+02  0.33667335232E+02  0.24997431626E+00 0.  0.
    1000022    2    1    0    0    0  0.39661446783E+02 -0.17830935357E+02 -0.43763870929E+02  0.62500007465E+02  0.10000095890E+02 0.  0.
    3000022    2    5    5    0    0  0.33523311304E+02 -0.18238666310E+02 -0.35281143444E+02  0.51973867751E+02  0.24999352398E+00 0.  0.
        -13    1    4    4    0    0 -0.81741020753E+01  0.30510661121E+01  0.65692287995E+01  0.10922030085E+02  0.10500000000E+00 0.  1.
         13    1    4    4    0    0 -0.16932932751E+02  0.63209854852E+01  0.13807925701E+02  0.22745305147E+02  0.10500000000E+00 0. -1.
    3000001    1    5    5    0    0  0.61381354791E+01  0.40773095312E+00 -0.84827274847E+01  0.10526139714E+02  0.10000000000E+01 0. -1.
        -13    1    6    6    0    0  0.93605671058E+01 -0.51093653478E+01 -0.99090328437E+01  0.14557671095E+02  0.10500000000E+00 0. -1.
         13    1    6    6    0    0  0.24162744198E+02 -0.13129300962E+02 -0.25372110601E+02  0.37416196657E+02  0.10500000000E+00 0.  1.
</event>
<event>
11    0  0.3476221E-009  0.9118800E+02  0.7816531E-02  0.1126479E+00
         25   -1    0    0    0    0  0.00000000000E+00  0.00000000000E+00  0.99999998245E-14  0.12500000000E+03  0.12500000000E+03 0.  0.
    3000001    1    3    3    0    0 -0.24675157844E+02  0.16000736881E+00  0.30223385988E+02  0.39030015085E+02  0.10000000000E+01 0.  1.
    1000022    2    1    0    0    0 -0.42802561660E+02 -0.52198140036E+01  0.44124192742E+02  0.62499999840E+02  0.99999925944E+01 0.  0.
    3000022    2    3    3    0    0 -0.18127403816E+02 -0.53798213724E+01  0.13900806754E+02  0.23469984754E+02  0.25001766302E+00 0.  0.
    1000022    2    1    0    0    0  0.42802561660E+02  0.52198140036E+01 -0.44124192742E+02  0.62500000160E+02  0.99999945980E+01 0.  0.
    3000022    2    5    5    0    0  0.32304067361E+02  0.34694656328E+01 -0.26682856345E+02  0.42043159806E+02  0.25000776962E+00 0.  0.
        -13    1    4    4    0    0 -0.81541668480E+01 -0.23682952464E+01  0.61869561752E+01  0.10506603213E+02  0.10500000000E+00 0.  1.
         13    1    4    4    0    0 -0.99732369683E+01 -0.30115261261E+01  0.77138505791E+01  0.12963381542E+02  0.10500000000E+00 0. -1.
    3000001    1    5    5    0    0  0.10498494300E+02  0.17503483708E+01 -0.17441336397E+02  0.20456840354E+02  0.10000000000E+01 0.  1.
        -13    1    6    6    0    0  0.19822724259E+02  0.21072043014E+01 -0.16445932611E+02  0.25842995792E+02  0.10500000000E+00 0. -1.
         13    1    6    6    0    0  0.12481343102E+02  0.13622613314E+01 -0.10236923734E+02  0.16200164014E+02  0.10500000000E+00 0.  1.
</event>
<event>
11    0  0.3476221E-009  0.9118800E+02  0.7816531E-02  0.1126479E+00
         25   -1    0    0    0    0  0.00000000000E+00  0.00000000000E+00  0.99999998245E-14  0.12500000000E+03  0.12500000000E+03 0.  0.
    3000001    1    3    3    0    0  0.90554150123E+01  0.98045001424E+00 -0.27285738171E+01  0.95606975870E+01  0.10000000000E+01 0.  1.
    1000022    2    1    0    0    0  0.49393347462E+02 -0.10490217726E+01 -0.36951952199E+02  0.62499999387E+02  0.99999965930E+01 0.  0.
    3000022    2    3    3    0    0  0.40337932450E+02 -0.20294717868E+01 -0.34223378382E+02  0.52939301800E+02  0.24999425825E+00 0.  0.
    1000022    2    1    0    0    0 -0.49393347462E+02  0.10490217726E+01  0.36951952199E+02  0.62500000613E+02  0.10000004254E+02 0.  0.
    3000022    2    5    5    0    0 -0.17628385366E+02  0.22359471967E+01  0.79864227996E+01  0.19483451445E+02  0.25000117299E+00 0.  0.
        -13    1    4    4    0    0  0.24881328895E+02 -0.11936876836E+01 -0.21132532659E+02  0.32666502407E+02  0.10500000000E+00 0. -1.
         13    1    4    4    0    0  0.15456603554E+02 -0.83578410320E+00 -0.13090845723E+02  0.20272799393E+02  0.10500000000E+00 0.  1.
    3000001    1    5    5    0    0 -0.31764962096E+02 -0.11869254241E+01  0.28965529400E+02  0.43016549168E+02  0.10000000000E+01 0. -1.
        -13    1    6    6    0    0 -0.58491016919E+01  0.68921822567E+00  0.26578296563E+01  0.64623599286E+01  0.10500000000E+00 0. -1.
         13    1    6    6    0    0 -0.11779283674E+02  0.15467289711E+01  0.53285931434E+01  0.13021091516E+02  0.10500000000E+00 0.  1.
</event>
<event>
11    0  0.3476221E-009  0.9118800E+02  0.7816531E-02  0.1126479E+00
         25   -1    0    0    0    0  0.00000000000E+00  0.00000000000E+00  0.99999998245E-14  0.12500000000E+03  0.12500000000E+03 0.  0.
    3000001    1    3    3    0    0 -0.32738412915E+02 -0.28753071779E+02 -0.14926535334E+01  0.43609297535E+02  0.10000000000E+01 0. -1.
    1000022    2    1    0    0    0 -0.46994076816E+02 -0.39098057454E+02 -0.83156370646E+01  0.62499990692E+02  0.99998832110E+01 0.  0.
    3000022    2    3    3    0    0 -0.14255663901E+02 -0.10344985676E+02 -0.68229835312E+01  0.18890693157E+02  0.25000362413E+00 0.  0.
    1000022    2    1    0    0    0  0.46994076816E+02  0.39098057454E+02  0.83156370646E+01  0.62500009308E+02  0.99999995588E+01 0.  0.
    3000022    2    5    5    0    0  0.28158561759E+02  0.21269011259E+02  0.94091524178E+01  0.36522186236E+02  0.24999597329E+00 0.  0.
        -13    1    4    4    0    0 -0.57737576543E+01 -0.41227166587E+01 -0.27831038528E+01  0.76216640017E+01  0.10500000000E+00 0.  1.
         13    1    4    4    0    0 -0.84819062463E+01 -0.62222690172E+01 -0.40398796784E+01  0.11269029156E+02  0.10500000000E+00 0. -1.
    3000001    1    5    5    0    0  0.18835515057E+02  0.17829046196E+02 -0.10935153532E+01  0.25977823072E+02  0.10000000000E+01 0.  1.
        -13    1    6    6    0    0  0.67009247115E+01  0.50438915762E+01  0.22469402337E+01  0.86834900608E+01  0.10500000000E+00 0.  1.
         13    1    6    6    0    0  0.21457637047E+02  0.16225119683E+02  0.71622121841E+01  0.27838696175E+02  0.10500000000E+00 0. -1.
</event>
<event>
11    0  0.3476221E-009  0.9118800E+02  0.7816531E-02  0.1126479E+00
         25   -1    0    0    0    0  0.00000000000E+00  0.00000000000E+00  0.99999998245E-14  0.12500000000E+03  0.12500000000E+03 0.  0.
    3000001    1    3    3    0    0 -0.22925659068E+02 -0.42510159626E+02  0.36297253399E+02  0.60425078564E+02  0.10000000000E+01 0. -1.
    1000022    2    1    0    0    0 -0.23338754177E+02 -0.42355099597E+02  0.38309241811E+02  0.62499998007E+02  0.99999917128E+01 0.  0.
    3000022    2    3    3    0    0 -0.41309510887E+00  0.15506002892E+00  0.20119884120E+01  0.20749194425E+01  0.25000428320E+00 0.  0.
    1000022    2    1    0    0    0  0.23338754177E+02  0.42355099597E+02 -0.38309241811E+02  0.62500001993E+02  0.10000016628E+02 0.  0.
    3000022    2    5    5    0    0  0.21803868506E+02  0.41805306129E+02 -0.38011674938E+02  0.60564364392E+02  0.25000046528E+00 0.  0.
        -13    1    4    4    0    0 -0.24812640229E+00  0.91894781035E-01  0.14206941074E+01  0.14489334385E+01  0.10500000000E+00 0.  1.
         13    1    4    4    0    0 -0.16496870659E+00  0.63165247886E-01  0.59129430455E+00  0.62598600407E+00  0.10500000000E+00 0. -1.
    3000001    1    5    5    0    0  0.15348856706E+01  0.54979346825E+00 -0.29756687375E+00  0.19356376014E+01  0.10000000000E+01 0.  1.
        -13    1    6    6    0    0  0.54578319494E+01  0.10415022116E+02 -0.94955985778E+01  0.15114166620E+02  0.10500000000E+00 0. -1.
         13    1    6    6    0    0  0.16346036557E+02  0.31390284013E+02 -0.28516076360E+02  0.45450197772E+02  0.10500000000E+00 0.  1.
</event>
<event>
11    0  0.3476221E-009  0.9118800E+02  0.7816531E-02  0.1126479E+00
         25   -1    0    0    0    0  0.00000000000E+00  0.00000000000E+00  0.99999998245E-14  0.12500000000E+03  0.12500000000E+03 0.  0.
    3000001    1    3    3    0    0 -0.18153610516E+01  0.14552665608E+02  0.19876149185E+02  0.24721183598E+02  0.10000000000E+01 0. -1.
    1000022    2    1    0    0    0  0.63994913537E+01  0.31947818326E+02  0.52389246100E+02  0.62500001909E+02  0.10000027318E+02 0.  0.
    3000022    2    3    3    0    0  0.82148524053E+01  0.17395152718E+02  0.32513096914E+02  0.37778818311E+02  0.25000778262E+00 0.  0.
    1000022    2    1    0    0    0 -0.63994913537E+01 -0.31947818326E+02 -0.52389246100E+02  0.62499998091E+02  0.10000003454E+02 0.  0.
    3000022    2    5    5    0    0 -0.77838317398E+01 -0.13799716565E+02 -0.23662221311E+02  0.28477770811E+02  0.24999839521E+00 0.  0.
        -13    1    4    4    0    0  0.27964210431E+01  0.57956185964E+01  0.10876231642E+02  0.12637745262E+02  0.10500000000E+00 0.  1.
         13    1    4    4    0    0  0.54184313622E+01  0.11599534121E+02  0.21636865272E+02  0.25141073049E+02  0.10500000000E+00 0. -1.
    3000001    1    5    5    0    0  0.13843403861E+01 -0.18148101761E+02 -0.28727024789E+02  0.34022227279E+02  0.10000000000E+01 0.  1.
        -13    1    6    6    0    0 -0.25182715203E+01 -0.43722727755E+01 -0.75759082629E+01  0.91029595013E+01  0.10500000000E+00 0. -1.
         13    1    6    6    0    0 -0.52655602195E+01 -0.94274437895E+01 -0.16086313048E+02  0.19374811310E+02  0.10500000000E+00 0.  1.
</event>
<event>
11    0  0.3476221E-009  0.9118800E+02  0.7816531E-02  0.1126479E+00
         25   -1    0    0    0    0  0.00000000000E+00  0.00000000000E+00  0.99999998245E-14  0.12500000000E+03  0.12500000000E+03 0.  0.
    3000001    1    3    3    0    0  0.18129460965E+02  0.95375791327E+01  0.83964608683E+01  0.22161753670E+02  0.10000000000E+01 0. -1.
    1000022    2    1    0    0    0  0.51661482750E+02  0.15256865349E+02  0.30076056567E+02  0.62499999628E+02  0.10000001735E+02 0.  0.
    3000022    2    3    3    0    0  0.33532021785E+02  0.57192862159E+01  0.21679595699E+02  0.40338245959E+02  0.24999509335E+00 0.  0.
    1000022    2    1    0    0    0 -0.51661482750E+02 -0.15256865349E+02 -0.30076056567E+02  0.62500000372E+02  0.10000006380E+02 0.  0.
    3000022    2    5    5    0    0 -0.11262284165E+02 -0.72863735812E+01 -0.96298673453E+01  0.16514452217E+02  0.25000475219E+00 0.  0.
        -13    1    4    4    0    0  0.20900698190E+02  0.36107787336E+01  0.13470400219E+02  0.25126472394E+02  0.10500000000E+00 0.  1.
         13    1    4    4    0    0  0.12631323595E+02  0.21085074823E+01  0.82091954803E+01  0.15211773565E+02  0.10500000000E+00 0. -1.
    3000001    1    5    5    0    0 -0.40399198585E+02 -0.79704917675E+01 -0.20446189222E+02  0.45985548154E+02  0.10000000000E+01 0. -1.
        -13    1    6    6    0    0 -0.64270184764E+01 -0.40807721555E+01 -0.54527111575E+01  0.93649533820E+01  0.10500000000E+00 0. -1.
         13    1    6    6    0    0 -0.48352656884E+01 -0.32056014257E+01 -0.41771561878E+01  0.71494988353E+01  0.10500000000E+00 0.  1.
</event>
<event>
11    0  0.3476221E-009  0.9118800E+02  0.7816531E-02  0.1126479E+00
         25   -1    0    0    0    0  0.00000000000E+00  0.00000000000E+00  0.99999998245E-14  0.12500000000E+03  0.12500000000E+03 0.  0.
    3000001    1    3    3    0    0  0.12244792746E+02  0.25296119769E+02  0.49077626128E+02  0.56563610308E+02  0.10000000000E+01 0.  1.
    1000022    2    1    0    0    0  0.14746047971E+02  0.29848271928E+02  0.51941167011E+02  0.62500000662E+02  0.99999992248E+01 0.  0.
    3000022    2    3    3    0    0  0.25012552251E+01  0.45521521596E+01  0.28635408830E+01  0.59363903544E+01  0.24999413199E+00 0.  0.
    1000022    2    1    0    0    0 -0.14746047971E+02 -0.29848271928E+02 -0.51941167011E+02  0.62499999338E+02  0.99999909436E+01 0.  0.
    3000022    2    5    5    0    0  0.11359093521E+01 -0.34893650194E+01 -0.33504237941E+01  0.49753188239E+01  0.24999900750E+00 0.  0.
        -13    1    4    4    0    0  0.10341099146E+01  0.19606124834E+01  0.11615964855E+01  0.25047387131E+01  0.10500000000E+00 0. -1.
         13    1    4    4    0    0  0.14671453104E+01  0.25915396762E+01  0.17019443974E+01  0.34316516413E+01  0.10500000000E+00 0.  1.
    3000001    1    5    5    0    0 -0.15881957324E+02 -0.26358906909E+02 -0.48590743217E+02  0.57524680514E+02  0.10000000000E+01 0.  1.
        -13    1    6    6    0    0  0.43719989318E+00 -0.12764276838E+01 -0.11586463589E+01  0.17815436463E+01  0.10500000000E+00 0.  1.
         13    1    6    6    0    0  0.69870945893E+00 -0.22129373357E+01 -0.21917774352E+01  0.31937751776E+01  0.10500000000E+00 0. -1.
</event>
<event>
11    0  0.3476221E-009  0.9118800E+02  0.7816531E-02  0.1126479E+00
         25   -1    0    0    0    0  0.00000000000E+00  0.00000000000E+00  0.99999998245E-14  0.12500000000E+03  0.12500000000E+03 0.  0.
    3000001    1    3    3    0    0  0.21222231830E+02 -0.40153852991E+02  0.11606009612E+02  0.46887252991E+02  0.10000000000E+01 0.  1.
    1000022    2    1    0    0    0  0.32449201945E+02 -0.50964829843E+02  0.12485398770E+02  0.62500001091E+02  0.10000018305E+02 0.  0.
    3000022    2    3    3    0    0  0.11226970114E+02 -0.10810976852E+02  0.87938915869E+00  0.15612748100E+02  0.24999901068E+00 0.  0.
    1000022    2    1    0    0    0 -0.32449201945E+02  0.50964829843E+02 -0.12485398770E+02  0.62499998909E+02  0.10000004669E+02 0.  0.
    3000022    2    5    5    0    0 -0.32631121525E+02  0.50407924144E+02 -0.12523297422E+02  0.61340397685E+02  0.25000262331E+00 0.  0.
        -13    1    4    4    0    0  0.74773494504E+01 -0.71824306560E+01  0.53263173892E+00  0.10382330495E+02  0.10500000000E+00 0.  1.
         13    1    4    4    0    0  0.37496206641E+01 -0.36285461960E+01  0.34675741977E+00  0.52304176056E+01  0.10500000000E+00 0. -1.
    3000001    1    5    5    0    0  0.18191958032E+00  0.55690569897E+00  0.37898651432E-01  0.11596012241E+01  0.10000000000E+01 0. -1.
        -13    1    6    6    0    0 -0.22827562519E+02  0.35194167077E+02 -0.87213843344E+01  0.42846243436E+02  0.10500000000E+00 0.  1.
         13    1    6    6    0    0 -0.98035590058E+01  0.15213757067E+02 -0.38019130875E+01  0.18494154249E+02  0.10500000000E+00 0. -1.
</event>
<event>
11    0  0.3476221E-009  0.9118800E+02  0.7816531E-02  0.1126479E+00
         25   -1    0    0    0    0  0.00000000000E+00  0.00000000000E+00  0.99999998245E-14  0.12500000000E+03  0.12500000000E+03 0.  0.
    3000001    1    3    3    0    0  0.72507007844E+01  0.41504216498E+02  0.37358169605E+02  0.56318784479E+02  0.10000000000E+01 0.  1.
    1000022    2    1    0    0    0  0.74272261971E+01  0.47551787169E+02  0.38599402370E+02  0.62500000495E+02  0.10000002331E+02 0.  0.
    3000022    2    3    3    0    0  0.17652541277E+00  0.60475706715E+01  0.12412327648E+01  0.61812160161E+01  0.25000082608E+00 0.  0.
    1000022    2    1    0    0    0 -0.74272261971E+01 -0.47551787169E+02 -0.38599402370E+02  0.62499999505E+02  0.99999961401E+01 0.  0.
    3000022    2    5    5    0    0 -0.20855381348E+01 -0.91630124870E+01 -0.12987808370E+02  0.16032963876E+02  0.24999444669E+00 0.  0.
        -13    1    4    4    0    0  0.11242181683E+00  0.44640037974E+01  0.94345776016E+00  0.45652060318E+01  0.10500000000E+00 0. -1.
         13    1    4    4    0    0  0.64103595939E-01  0.15835668742E+01  0.29777500466E+00  0.16160099843E+01  0.10500000000E+00 0.  1.
    3000001    1    5    5    0    0 -0.53416880623E+01 -0.38388774682E+02 -0.25611594000E+02  0.46467035629E+02  0.10000000000E+01 0.  1.
        -13    1    6    6    0    0 -0.10124024755E+01 -0.46974952129E+01 -0.65741340602E+01  0.81438126015E+01  0.10500000000E+00 0.  1.
         13    1    6    6    0    0 -0.10731356593E+01 -0.44655172741E+01 -0.64136743101E+01  0.78891512741E+01  0.10500000000E+00 0. -1.
</event>
<event>
11    0  0.3476221E-009  0.9118800E+02  0.7816531E-02  0.1126479E+00
         25   -1    0    0    0    0  0.00000000000E+00  0.00000000000E+00  0.99999998245E-14  0.12500000000E+03  0.12500000000E+03 0.  0.
    3000001    1    3    3    0    0 -0.88093792367E+01  0.27727725611E+01  0.38370616346E+01  0.10050695110E+02  0.10000000000E+01 0. -1.
    1000022    2    1    0    0    0 -0.41315392215E+02  0.20119893025E+02  0.41164038235E+02  0.62499995864E+02  0.99999854955E+01 0.  0.
    3000022    2    3    3    0    0 -0.32506012978E+02  0.17347120464E+02  0.37326976601E+02  0.52449300754E+02  0.24999848938E+00 0.  0.
    1000022    2    1    0    0    0  0.41315392215E+02 -0.20119893025E+02 -0.41164038235E+02  0.62500004136E+02  0.10000037198E+02 0.  0.
    3000022    2    5    5    0    0  0.34870816539E+02 -0.17832057611E+02 -0.38964284681E+02  0.55247028042E+02  0.25000406094E+00 0.  0.
        -13    1    4    4    0    0 -0.21252153677E+02  0.11401202154E+02  0.24457911814E+02  0.34348827080E+02  0.10500000000E+00 0. -1.
         13    1    4    4    0    0 -0.11253859301E+02  0.59459183099E+01  0.12869064787E+02  0.18100473674E+02  0.10500000000E+00 0.  1.
    3000001    1    5    5    0    0  0.64445756757E+01 -0.22878354138E+01 -0.21997535545E+01  0.72529760941E+01  0.10000000000E+01 0. -1.
        -13    1    6    6    0    0  0.18300453982E+02 -0.92862606098E+01 -0.20386427621E+02  0.28926781850E+02  0.10500000000E+00 0. -1.
         13    1    6    6    0    0  0.16570362557E+02 -0.85457970017E+01 -0.18577857060E+02  0.26320246192E+02  0.10500000000E+00 0.  1.
</event>
<event>
11    0  0.3476221E-009  0.9118800E+02  0.7816531E-02  0.1126479E+00
         25   -1    0    0    0    0  0.00000000000E+00  0.00000000000E+00  0.99999998245E-14  0.12500000000E+03  0.12500000000E+03 0.  0.
    3000001    1    3    3    0    0 -0.62886840737E+01  0.15006354525E+02 -0.11723960046E+02  0.20079578249E+02  0.10000000000E+01 0.  1.
    1000022    2    1    0    0    0 -0.32219280650E+02  0.41737279073E+02 -0.32033858114E+02  0.62500005255E+02  0.10000004056E+02 0.  0.
    3000022    2    3    3    0    0 -0.25930596576E+02  0.26730924548E+02 -0.20309898069E+02  0.42420427006E+02  0.25000356315E+00 0.  0.
    1000022    2    1    0    0    0  0.32219280650E+02 -0.41737279073E+02  0.32033858114E+02  0.62499994745E+02  0.99999383725E+01 0.  0.
    3000022    2    5    5    0    0  0.24362655558E+02 -0.35010834980E+02  0.21744945925E+02  0.47876953953E+02  0.24998942900E+00 0.  0.
        -13    1    4    4    0    0 -0.88572426133E+01  0.91281028382E+01 -0.69991903881E+01  0.14518012923E+02  0.10500000000E+00 0. -1.
         13    1    4    4    0    0 -0.17073353963E+02  0.17602821710E+02 -0.13310707680E+02  0.27902414083E+02  0.10500000000E+00 0.  1.
    3000001    1    5    5    0    0  0.78566250914E+01 -0.67264440932E+01  0.10288912189E+02  0.14623040792E+02  0.10000000000E+01 0.  1.
        -13    1    6    6    0    0  0.77224972123E+01 -0.11186045337E+02  0.69283669879E+01  0.15257059599E+02  0.10500000000E+00 0. -1.
         13    1    6    6    0    0  0.16640158346E+02 -0.23824789643E+02  0.14816578937E+02  0.32619894355E+02  0.10500000000E+00 0.  1.
</event>
<event>
11    0  0.3476221E-009  0.9118800E+02  0.7816531E-02  0.1126479E+00
         25   -1    0    0    0    0  0.00000000000E+00  0.00000000000E+00  0.99999998245E-14  0.12500000000E+03  0.12500000000E+03 0.  0.
    3000001    1    3    3    0    0 -0.34810172676E+02 -0.40737684512E+01 -0.94809972872E+01  0.36321247510E+02  0.10000000000E+01 0. -1.
    1000022    2    1    0    0    0 -0.57720824275E+02 -0.15108959499E+02 -0.15693177111E+02  0.62499999902E+02  0.99999983857E+01 0.  0.
    3000022    2    3    3    0    0 -0.22910651599E+02 -0.11035191048E+02 -0.62121798243E+01  0.26178752391E+02  0.25000090099E+00 0.  0.
    1000022    2    1    0    0    0  0.57720824275E+02  0.15108959499E+02  0.15693177111E+02  0.62500000098E+02  0.99999996130E+01 0.  0.
    3000022    2    5    5    0    0  0.42703011290E+02  0.15439498831E+02  0.10876476851E+02  0.46693527863E+02  0.24999653972E+00 0.  0.
        -13    1    4    4    0    0 -0.10614549079E+02 -0.50903033833E+01 -0.29417631640E+01  0.12134448327E+02  0.10500000000E+00 0. -1.
         13    1    4    4    0    0 -0.12296102520E+02 -0.59448876648E+01 -0.32704166603E+01  0.14044304064E+02  0.10500000000E+00 0.  1.
    3000001    1    5    5    0    0  0.15017812985E+02 -0.33053933132E+00  0.48167002603E+01  0.15806472235E+02  0.10000000000E+01 0.  1.
        -13    1    6    6    0    0  0.23220888860E+02  0.84046436581E+01  0.59833584866E+01  0.25409827198E+02  0.10500000000E+00 0. -1.
         13    1    6    6    0    0  0.19482122430E+02  0.70348551725E+01  0.48931183646E+01  0.21283700665E+02  0.10500000000E+00 0.  1.
</event>
<event>
11    0  0.3476221E-009  0.9118800E+02  0.7816531E-02  0.1126479E+00
         25   -1    0    0    0    0  0.00000000000E+00  0.00000000000E+00  0.99999998245E-14  0.12500000000E+03  0.12500000000E+03 0.  0.
    3000001    1    3    3    0    0  0.62543140267E+01 -0.72316727452E+01 -0.14441130432E+02  0.17348192494E+02  0.10000000000E+01 0.  1.
    1000022    2    1    0    0    0  0.11193618006E+02 -0.36510336272E+02 -0.48455633107E+02  0.62500000346E+02  0.99999962357E+01 0.  0.
    3000022    2    3    3    0    0  0.49393039794E+01 -0.29278663526E+02 -0.34014502675E+02  0.45151807852E+02  0.24999684447E+00 0.  0.
    1000022    2    1    0    0    0 -0.11193618006E+02  0.36510336272E+02  0.48455633107E+02  0.62499999654E+02  0.99999919101E+01 0.  0.
    3000022    2    5    5    0    0 -0.84935156748E+01  0.13123880842E+02  0.23021140042E+02  0.27828249084E+02  0.25000266895E+00 0.  0.
        -13    1    4    4    0    0  0.32496589132E+01 -0.19206177269E+02 -0.22397368055E+02  0.29683171143E+02  0.10500000000E+00 0. -1.
         13    1    4    4    0    0  0.16896450662E+01 -0.10072486257E+02 -0.11617134620E+02  0.15468636709E+02  0.10500000000E+00 0.  1.
    3000001    1    5    5    0    0 -0.27001023313E+01  0.23386455429E+02  0.25434493065E+02  0.34671750570E+02  0.10000000000E+01 0.  1.
        -13    1    6    6    0    0 -0.28318477338E+01  0.43741990932E+01  0.77699611446E+01  0.93560836081E+01  0.10500000000E+00 0.  1.
         13    1    6    6    0    0 -0.56616679410E+01  0.87496817492E+01  0.15251178898E+02  0.18472165476E+02  0.10500000000E+00 0. -1.
</event>
<event>
11    0  0.3476221E-009  0.9118800E+02  0.7816531E-02  0.1126479E+00
         25   -1    0    0    0    0  0.00000000000E+00  0.00000000000E+00  0.99999998245E-14  0.12500000000E+03  0.12500000000E+03 0.  0.
    3000001    1    3    3    0    0  0.10276539986E+02 -0.12008276963E+02  0.16703656284E+02  0.23017778411E+02  0.10000000000E+01 0.  1.
    1000022    2    1    0    0    0  0.22380668593E+02 -0.23392351294E+02  0.52518125971E+02  0.62499999912E+02  0.10000000388E+02 0.  0.
    3000022    2    3    3    0    0  0.12104128607E+02 -0.11384074332E+02  0.35814469686E+02  0.39482221501E+02  0.24999606418E+00 0.  0.
    1000022    2    1    0    0    0 -0.22380668593E+02  0.23392351294E+02 -0.52518125971E+02  0.62500000088E+02  0.10000001492E+02 0.  0.
    3000022    2    5    5    0    0 -0.15281923284E+02  0.10539806726E+02 -0.23366606334E+02  0.29844354574E+02  0.25000658444E+00 0.  0.
        -13    1    4    4    0    0  0.27930831269E+01 -0.26218333144E+01  0.82756487482E+01  0.91199073727E+01  0.10500000000E+00 0. -1.
         13    1    4    4    0    0  0.93110454801E+01 -0.87622410172E+01  0.27538820938E+02  0.30362314128E+02  0.10500000000E+00 0.  1.
    3000001    1    5    5    0    0 -0.70987453089E+01  0.12852544568E+02 -0.29151519637E+02  0.32655645514E+02  0.10000000000E+01 0.  1.
        -13    1    6    6    0    0 -0.81785243445E+01  0.57054691463E+01 -0.12617064842E+02  0.16082350228E+02  0.10500000000E+00 0. -1.
         13    1    6    6    0    0 -0.71033989394E+01  0.48343375796E+01 -0.10749541493E+02  0.13762004346E+02  0.10500000000E+00 0.  1.
</event>
<event>
11    0  0.3476221E-009  0.9118800E+02  0.7816531E-02  0.1126479E+00
         25   -1    0    0    0    0  0.00000000000E+00  0.00000000000E+00  0.99999998245E-14  0.12500000000E+03  0.12500000000E+03 0.  0.
    3000001    1    3    3    0    0 -0.20183255706E+01  0.16017032447E+01 -0.45420588973E+00  0.28009631171E+01  0.10000000000E+01 0.  1.
    1000022    2    1    0    0    0 -0.23206194563E+02  0.53924235868E+02  0.18971014260E+02  0.62499999041E+02  0.99999909014E+01 0.  0.
    3000022    2    3    3    0    0 -0.21187868993E+02  0.52322532624E+02  0.19425220149E+02  0.59699035924E+02  0.24999964454E+00 0.  0.
    1000022    2    1    0    0    0  0.23206194563E+02 -0.53924235868E+02 -0.18971014260E+02  0.62500000959E+02  0.10000002885E+02 0.  0.
    3000022    2    5    5    0    0  0.20296681495E+02 -0.37191337788E+02 -0.11391181286E+02  0.43874507345E+02  0.24999496540E+00 0.  0.
        -13    1    4    4    0    0 -0.13711676970E+02  0.33764439847E+02  0.12587359567E+02  0.38555156975E+02  0.10500000000E+00 0. -1.
         13    1    4    4    0    0 -0.74761920228E+01  0.18558092777E+02  0.68378605827E+01  0.21143878950E+02  0.10500000000E+00 0.  1.
    3000001    1    5    5    0    0  0.29095130687E+01 -0.16732898080E+02 -0.75798329735E+01  0.18625493614E+02  0.10000000000E+01 0.  1.
        -13    1    6    6    0    0  0.81385068430E+01 -0.15014999978E+02 -0.45500737533E+01  0.17674832789E+02  0.10500000000E+00 0.  1.
         13    1    6    6    0    0  0.12158174652E+02 -0.22176337810E+02 -0.68411075327E+01  0.26199674556E+02  0.10500000000E+00 0. -1.
</event>
<event>
11    0  0.3476221E-009  0.9118800E+02  0.7816531E-02  0.1126479E+00
         25   -1    0    0    0    0  0.00000000000E+00  0.00000000000E+00  0.99999998245E-14  0.12500000000E+03  0.12500000000E+03 0.  0.
    3000001    1    3    3    0    0  0.21613914261E+02  0.22340639795E+02  0.52794693862E+02  0.61274343538E+02  0.10000000000E+01 0. -1.
    1000022    2    1    0    0    0  0.22373473720E+02  0.21560760746E+02  0.53299258520E+02  0.62499998001E+02  0.10000003053E+02 0.  0.
    3000022    2    3    3    0    0  0.75955945875E+00 -0.77987904900E+00  0.50456465869E+00  0.12256544624E+01  0.25000292808E+00 0.  0.
    1000022    2    1    0    0    0 -0.22373473720E+02 -0.21560760746E+02 -0.53299258520E+02  0.62500001999E+02  0.10000028042E+02 0.  0.
    3000022    2    5    5    0    0 -0.66888130502E+01 -0.43250746070E+01 -0.67911230828E+01  0.10470355461E+02  0.25000076056E+00 0.  0.
        -13    1    4    4    0    0  0.20748979747E+00 -0.22393326759E+00  0.10205353995E+00  0.33858241154E+00  0.10500000000E+00 0. -1.
         13    1    4    4    0    0  0.55206966128E+00 -0.55594578140E+00  0.40251111874E+00  0.88707205089E+00  0.10500000000E+00 0.  1.
    3000001    1    5    5    0    0 -0.15684660670E+02 -0.17235686139E+02 -0.46508135437E+02  0.52029646538E+02  0.10000000000E+01 0. -1.
        -13    1    6    6    0    0 -0.44021207300E+01 -0.28164359766E+01 -0.43895699734E+01  0.68257108116E+01  0.10500000000E+00 0.  1.
         13    1    6    6    0    0 -0.22866923202E+01 -0.15086386304E+01 -0.24015531094E+01  0.36446446496E+01  0.10500000000E+00 0. -1.
</event>
<event>
11    0  0.3476221E-009  0.9118800E+02  0.7816531E-02  0.1126479E+00
         25   -1    0    0    0    0  0.00000000000E+00  0.00000000000E+00  0.99999998245E-14  0.12500000000E+03  0.12500000000E+03 0.  0.
    3000001    1    3    3    0    0  0.26382255506E+01 -0.41020156005E+01  0.14641364595E+02  0.15464679862E+02  0.10000000000E+01 0. -1.
    1000022    2    1    0    0    0 -0.15342499642E+01 -0.48520881654E+01  0.61484578734E+02  0.62500000281E+02  0.99999965244E+01 0.  0.
    3000022    2    3    3    0    0 -0.41724755148E+01 -0.75007256489E+00  0.46843214139E+02  0.47035320419E+02  0.24999043258E+00 0.  0.
    1000022    2    1    0    0    0  0.15342499642E+01  0.48520881654E+01 -0.61484578734E+02  0.62499999719E+02  0.99999930171E+01 0.  0.
    3000022    2    5    5    0    0 -0.30500332739E+00 -0.29893467637E+01 -0.13378428286E+02  0.13714011307E+02  0.25008326055E+00 0.  0.
        -13    1    4    4    0    0 -0.30120283052E+01 -0.57516575268E+00  0.33625155342E+02  0.33764851945E+02  0.10500000000E+00 0.  1.
         13    1    4    4    0    0 -0.11604472096E+01 -0.17490681221E+00  0.13218058798E+02  0.13270468473E+02  0.10500000000E+00 0. -1.
    3000001    1    5    5    0    0  0.18392532916E+01  0.78414349291E+01 -0.48106150448E+02  0.48785988412E+02  0.10000000000E+01 0. -1.
        -13    1    6    6    0    0 -0.13604136112E+00 -0.18987932115E+01 -0.83929874950E+01  0.86068105011E+01  0.10500000000E+00 0. -1.
         13    1    6    6    0    0 -0.16896196627E+00 -0.10905535522E+01 -0.49854407908E+01  0.51072008062E+01  0.10500000000E+00 0.  1.
</event>
<event>
11    0  0.3476221E-009  0.9118800E+02  0.7816531E-02  0.1126479E+00
         25   -1    0    0    0    0  0.00000000000E+00  0.00000000000E+00  0.99999998245E-14  0.12500000000E+03  0.12500000000E+03 0.  0.
    3000001    1    3    3    0    0 -0.28733820317E+02  0.40662902473E+02  0.21527875686E+02  0.54254525149E+02  0.10000000000E+01 0.  1.
    1000022    2    1    0    0    0 -0.35648910390E+02  0.45035553121E+02  0.22521203970E+02  0.62499993854E+02  0.99999373321E+01 0.  0.
    3000022    2    3    3    0    0 -0.69150900729E+01  0.43726506481E+01  0.99332828347E+00  0.82454687058E+01  0.25001738514E+00 0.  0.
    1000022    2    1    0    0    0  0.35648910390E+02 -0.45035553121E+02 -0.22521203970E+02  0.62500006146E+02  0.10000014152E+02 0.  0.
    3000022    2    5    5    0    0  0.31797628320E+02 -0.42665869400E+02 -0.22731504742E+02  0.57864059539E+02  0.25000029331E+00 0.  0.
        -13    1    4    4    0    0 -0.44097402646E+01  0.27811906221E+01  0.57420672266E+00  0.52461003458E+01  0.10500000000E+00 0.  1.
         13    1    4    4    0    0 -0.25053498083E+01  0.15914600260E+01  0.41912156080E+00  0.29993683600E+01  0.10500000000E+00 0. -1.
    3000001    1    5    5    0    0  0.38512820702E+01 -0.23696837214E+01  0.21030077165E+00  0.46359466065E+01  0.10000000000E+01 0. -1.
        -13    1    6    6    0    0  0.23130118967E+02 -0.31008463312E+02 -0.16562027650E+02  0.42081337731E+02  0.10500000000E+00 0. -1.
         13    1    6    6    0    0  0.86675093523E+01 -0.11657406088E+02 -0.61694770920E+01  0.15782721808E+02  0.10500000000E+00 0.  1.
</event>
<event>
11    0  0.3476221E-009  0.9118800E+02  0.7816531E-02  0.1126479E+00
         25   -1    0    0    0    0  0.00000000000E+00  0.00000000000E+00  0.99999998245E-14  0.12500000000E+03  0.12500000000E+03 0.  0.
    3000001    1    3    3    0    0 -0.30843699185E+01  0.29515002552E+01 -0.22495046536E+02  0.22918372765E+02  0.10000000000E+01 0. -1.
    1000022    2    1    0    0    0  0.31165654483E+01  0.21429093359E+01 -0.61578769608E+02  0.62500001477E+02  0.10000013879E+02 0.  0.
    3000022    2    3    3    0    0  0.62009353668E+01 -0.80859091928E+00 -0.39083723072E+02  0.39581628712E+02  0.25000722520E+00 0.  0.
    1000022    2    1    0    0    0 -0.31165654483E+01 -0.21429093359E+01  0.61578769608E+02  0.62499998523E+02  0.99999954151E+01 0.  0.
    3000022    2    5    5    0    0  0.60176704600E+00  0.22988153421E+01  0.41748115718E+02  0.41816436249E+02  0.24999792069E+00 0.  0.
        -13    1    4    4    0    0  0.37590896311E+01 -0.54731434594E+00 -0.23896407876E+02  0.24196686595E+02  0.10500000000E+00 0.  1.
         13    1    4    4    0    0  0.24418457357E+01 -0.26127657334E+00 -0.15187315197E+02  0.15384942117E+02  0.10500000000E+00 0. -1.
    3000001    1    5    5    0    0 -0.37183324943E+01 -0.44417246780E+01  0.19830653890E+02  0.20683562274E+02  0.10000000000E+01 0.  1.
        -13    1    6    6    0    0  0.43208680001E+00  0.16906856868E+01  0.31131295655E+02  0.31180341743E+02  0.10500000000E+00 0.  1.
         13    1    6    6    0    0  0.16968024599E+00  0.60812965524E+00  0.10616820064E+02  0.10636094505E+02  0.10500000000E+00 0. -1.
</event>
<event>
11    0  0.3476221E-009  0.9118800E+02  0.7816531E-02  0.1126479E+00
         25   -1    0    0    0    0  0.00000000000E+00  0.00000000000E+00  0.99999998245E-14  0.12500000000E+03  0.12500000000E+03 0.  0.
    3000001    1    3    3    0    0  0.16056690766E+02 -0.54112756430E+02 -0.27713041228E+00  0.56454269352E+02  0.10000000000E+01 0.  1.
    1000022    2    1    0    0    0  0.17130469459E+02 -0.59171304705E+02 -0.33990602307E+01  0.62500000001E+02  0.10000005263E+02 0.  0.
    3000022    2    3    3    0    0  0.10737786926E+01 -0.50585482752E+01 -0.31219298185E+01  0.60457306488E+01  0.25000390593E+00 0.  0.
    1000022    2    1    0    0    0 -0.17130469459E+02  0.59171304705E+02  0.33990602307E+01  0.62499999999E+02  0.10000005256E+02 0.  0.
    3000022    2    5    5    0    0 -0.10056359386E+02  0.26153891793E+02  0.58636252911E+01  0.28628674817E+02  0.25000034918E+00 0.  0.
        -13    1    4    4    0    0  0.64054168072E+00 -0.27853668804E+01 -0.16712597813E+01  0.33125060844E+01  0.10500000000E+00 0.  1.
         13    1    4    4    0    0  0.43323701185E+00 -0.22731813948E+01 -0.14506700372E+01  0.27332245643E+01  0.10500000000E+00 0. -1.
    3000001    1    5    5    0    0 -0.70741100733E+01  0.33017412912E+02 -0.24645650604E+01  0.33871325183E+02  0.10000000000E+01 0. -1.
        -13    1    6    6    0    0 -0.68825590733E+01  0.17890141556E+02  0.40618884717E+01  0.19594303949E+02  0.10500000000E+00 0.  1.
         13    1    6    6    0    0 -0.31738003124E+01  0.82637502373E+01  0.18017368194E+01  0.90343708676E+01  0.10500000000E+00 0. -1.
</event>
<event>
11    0  0.3476221E-009  0.9118800E+02  0.7816531E-02  0.1126479E+00
         25   -1    0    0    0    0  0.00000000000E+00  0.00000000000E+00  0.99999998245E-14  0.12500000000E+03  0.12500000000E+03 0.  0.
    3000001    1    3    3    0    0  0.47830691815E+02  0.32076340224E+02  0.19751778341E+02  0.60891702467E+02  0.10000000000E+01 0. -1.
    1000022    2    1    0    0    0  0.48358714424E+02  0.33317142827E+02  0.18911708563E+02  0.62500000176E+02  0.10000001713E+02 0.  0.
    3000022    2    3    3    0    0  0.52802260909E+00  0.12408026039E+01 -0.84006977834E+00  0.16082977091E+01  0.25001062213E+00 0.  0.
    1000022    2    1    0    0    0 -0.48358714424E+02 -0.33317142827E+02 -0.18911708563E+02  0.62499999824E+02  0.99999995150E+01 0.  0.
    3000022    2    5    5    0    0 -0.31669401499E+02 -0.16133846412E+02 -0.12571179509E+02  0.37700783096E+02  0.25000098965E+00 0.  0.
        -13    1    4    4    0    0  0.26827046893E+00  0.54875126832E+00 -0.45012928968E+00  0.76598849626E+00  0.10500000000E+00 0.  1.
         13    1    4    4    0    0  0.25975214017E+00  0.69205133554E+00 -0.38994048866E+00  0.84230921284E+00  0.10500000000E+00 0. -1.
    3000001    1    5    5    0    0 -0.16689312925E+02 -0.17183296416E+02 -0.63405290537E+01  0.24799216728E+02  0.10000000000E+01 0.  1.
        -13    1    6    6    0    0 -0.14423889597E+02 -0.72769815533E+01 -0.56917865927E+01  0.17129229733E+02  0.10500000000E+00 0. -1.
         13    1    6    6    0    0 -0.17245511902E+02 -0.88568648586E+01 -0.68793929162E+01  0.20571553364E+02  0.10500000000E+00 0.  1.
</event>
<event>
11    0  0.3476221E-009  0.9118800E+02  0.7816531E-02  0.1126479E+00
         25   -1    0    0    0    0  0.00000000000E+00  0.00000000000E+00  0.99999998245E-14  0.12500000000E+03  0.12500000000E+03 0.  0.
    3000001    1    3    3    0    0  0.13670248095E+02 -0.47276390466E+02 -0.20856062363E+02  0.53459406242E+02  0.10000000000E+01 0.  1.
    1000022    2    1    0    0    0  0.12797395537E+02 -0.56197215750E+02 -0.22007944903E+02  0.62499999754E+02  0.99999969944E+01 0.  0.
    3000022    2    3    3    0    0 -0.87285255833E+00 -0.89208252838E+01 -0.11518825400E+01  0.90405935123E+01  0.25000466893E+00 0.  0.
    1000022    2    1    0    0    0 -0.12797395537E+02  0.56197215750E+02  0.22007944903E+02  0.62500000246E+02  0.10000000064E+02 0.  0.
    3000022    2    5    5    0    0  0.65831029479E+00  0.21144022687E+00 -0.22453994033E+00  0.76875643304E+00  0.24997770855E+00 0.  0.
        -13    1    4    4    0    0 -0.49629489746E+00 -0.45682533010E+01 -0.63756242029E+00  0.46403402555E+01  0.10500000000E+00 0. -1.
         13    1    4    4    0    0 -0.37655766087E+00 -0.43525719829E+01 -0.51432011971E+00  0.44002532567E+01  0.10500000000E+00 0.  1.
    3000001    1    5    5    0    0 -0.13455705831E+02  0.55985775523E+02  0.22232484843E+02  0.61731243813E+02  0.10000000000E+01 0.  1.
        -13    1    6    6    0    0  0.44196965893E+00  0.17906393102E+00 -0.18868462736E+00  0.52347679930E+00  0.10500000000E+00 0. -1.
         13    1    6    6    0    0  0.21634063586E+00  0.32376295850E-01 -0.35855312970E-01  0.24527963373E+00  0.10500000000E+00 0.  1.
</event>
<event>
11    0  0.3476221E-009  0.9118800E+02  0.7816531E-02  0.1126479E+00
         25   -1    0    0    0    0  0.00000000000E+00  0.00000000000E+00  0.99999998245E-14  0.12500000000E+03  0.12500000000E+03 0.  0.
    3000001    1    3    3    0    0  0.11246915317E+01  0.65692692400E+01 -0.32743611959E+01  0.74927745616E+01  0.10000000000E+01 0. -1.
    1000022    2    1    0    0    0 -0.12098332560E+02  0.58992836730E+02 -0.13406171615E+02  0.62500000261E+02  0.10000007955E+02 0.  0.
    3000022    2    3    3    0    0 -0.13223024091E+02  0.52423567490E+02 -0.10131810419E+02  0.55007225700E+02  0.25000459420E+00 0.  0.
    1000022    2    1    0    0    0  0.12098332560E+02 -0.58992836730E+02  0.13406171615E+02  0.62499999739E+02  0.10000004690E+02 0.  0.
    3000022    2    5    5    0    0  0.55917918190E+01 -0.26713195902E+02  0.11136343305E+02  0.29477849522E+02  0.24999835964E+00 0.  0.
        -13    1    4    4    0    0 -0.75939662828E+01  0.29996592809E+02 -0.57380509723E+01  0.31470623731E+02  0.10500000000E+00 0.  1.
         13    1    4    4    0    0 -0.56290578085E+01  0.22426974681E+02 -0.43937594471E+01  0.23536601968E+02  0.10500000000E+00 0. -1.
    3000001    1    5    5    0    0  0.65065407406E+01 -0.32279640828E+02  0.22698283101E+01  0.33022150217E+02  0.10000000000E+01 0. -1.
        -13    1    6    6    0    0  0.33574633962E+01 -0.16008873076E+02  0.66064771530E+01  0.17641234169E+02  0.10500000000E+00 0.  1.
         13    1    6    6    0    0  0.22343284228E+01 -0.10704322826E+02  0.45298661522E+01  0.11836615353E+02  0.10500000000E+00 0. -1.
</event>
<event>
11    0  0.3476221E-009  0.9118800E+02  0.7816531E-02  0.1126479E+00
         25   -1    0    0    0    0  0.00000000000E+00  0.00000000000E+00  0.99999998245E-14  0.12500000000E+03  0.12500000000E+03 0.  0.
    3000001    1    3    3    0    0  0.16073403135E+01 -0.88999491296E+01 -0.75310672986E+01  0.11811418714E+02  0.10000000000E+01 0.  1.
    1000022    2    1    0    0    0  0.26064149491E+02 -0.47214178399E+02 -0.29962190599E+02  0.62500011924E+02  0.10000004720E+02 0.  0.
    3000022    2    3    3    0    0  0.24456809178E+02 -0.38314229270E+02 -0.22431123301E+02  0.50688593210E+02  0.25001873425E+00 0.  0.
    1000022    2    1    0    0    0 -0.26064149491E+02  0.47214178399E+02  0.29962190599E+02  0.62499988076E+02  0.99998556671E+01 0.  0.
    3000022    2    5    5    0    0 -0.25083970088E+02  0.38176035716E+02  0.24268741499E+02  0.51726681365E+02  0.24998550381E+00 0.  0.
        -13    1    4    4    0    0  0.15725909398E+02 -0.24707641990E+02 -0.14405262688E+02  0.32638848283E+02  0.10500000000E+00 0. -1.
         13    1    4    4    0    0  0.87308997797E+01 -0.13606587280E+02 -0.80258606128E+01  0.18049744927E+02  0.10500000000E+00 0.  1.
    3000001    1    5    5    0    0 -0.98017940331E+00  0.90381426831E+01  0.56934490998E+01  0.10773306710E+02  0.10000000000E+01 0. -1.
        -13    1    6    6    0    0 -0.14205414441E+02  0.21554702258E+02  0.13777513292E+02  0.29261406090E+02  0.10500000000E+00 0.  1.
         13    1    6    6    0    0 -0.10878555647E+02  0.16621333458E+02  0.10491228207E+02  0.22465275275E+02  0.10500000000E+00 0. -1.
</event>
<event>
11    0  0.3476221E-009  0.9118800E+02  0.7816531E-02  0.1126479E+00
         25   -1    0    0    0    0  0.00000000000E+00  0.00000000000E+00  0.99999998245E-14  0.12500000000E+03  0.12500000000E+03 0.  0.
    3000001    1    3    3    0    0 -0.31833994245E+02  0.34202243617E+02  0.26731296611E+02  0.53840123296E+02  0.10000000000E+01 0. -1.
    1000022    2    1    0    0    0 -0.34568845411E+02  0.42110500122E+02  0.28947378690E+02  0.62499999335E+02  0.99999945168E+01 0.  0.
    3000022    2    3    3    0    0 -0.27348511660E+01  0.79082565053E+01  0.22160820783E+01  0.86598760393E+01  0.25000276818E+00 0.  0.
    1000022    2    1    0    0    0  0.34568845411E+02 -0.42110500122E+02 -0.28947378690E+02  0.62500000665E+02  0.10000002823E+02 0.  0.
    3000022    2    5    5    0    0  0.16944965089E+02 -0.20159373888E+02 -0.19571935816E+02  0.32812427007E+02  0.24999423245E+00 0.  0.
        -13    1    4    4    0    0 -0.17532681070E+01  0.52340992652E+01  0.14498102631E+01  0.57081274488E+01  0.10500000000E+00 0.  1.
         13    1    4    4    0    0 -0.98158305900E+00  0.26741572401E+01  0.76627181518E+00  0.29517485905E+01  0.10500000000E+00 0. -1.
    3000001    1    5    5    0    0  0.17623880322E+02 -0.21951126234E+02 -0.93754428735E+01  0.29687573657E+02  0.10000000000E+01 0.  1.
        -13    1    6    6    0    0  0.11743322987E+02 -0.14038933680E+02 -0.13580181491E+02  0.22790999276E+02  0.10500000000E+00 0.  1.
         13    1    6    6    0    0  0.52016421015E+01 -0.61204402078E+01 -0.59917543245E+01  0.10021427731E+02  0.10500000000E+00 0. -1.
</event>
<event>
11    0  0.3476221E-009  0.9118800E+02  0.7816531E-02  0.1126479E+00
         25   -1    0    0    0    0  0.00000000000E+00  0.00000000000E+00  0.99999998245E-14  0.12500000000E+03  0.12500000000E+03 0.  0.
    3000001    1    3    3    0    0  0.12757829301E+02 -0.22025452187E+02  0.24765544864E+02  0.35527664783E+02  0.10000000000E+01 0.  1.
    1000022    2    1    0    0    0  0.23383771999E+02 -0.43792069266E+02  0.36629275046E+02  0.62500000115E+02  0.10000005029E+02 0.  0.
    3000022    2    3    3    0    0  0.10625942698E+02 -0.21766617078E+02  0.11863730182E+02  0.26972335333E+02  0.25000441875E+00 0.  0.
    1000022    2    1    0    0    0 -0.23383771999E+02  0.43792069266E+02 -0.36629275046E+02  0.62499999885E+02  0.10000003586E+02 0.  0.
    3000022    2    5    5    0    0 -0.17542130025E+02  0.24108462585E+02 -0.24806078574E+02  0.38785929637E+02  0.25001907994E+00 0.  0.
        -13    1    4    4    0    0  0.28071417587E+01 -0.57852420998E+01  0.31159140424E+01  0.71462589042E+01  0.10500000000E+00 0.  1.
         13    1    4    4    0    0  0.78188009391E+01 -0.15981374978E+02  0.87478161399E+01  0.19826076428E+02  0.10500000000E+00 0. -1.
    3000001    1    5    5    0    0 -0.58416419739E+01  0.19683606680E+02 -0.11823196472E+02  0.23714070248E+02  0.10000000000E+01 0.  1.
        -13    1    6    6    0    0 -0.12104374000E+02  0.16600255715E+02 -0.17150101180E+02  0.26762312217E+02  0.10500000000E+00 0.  1.
         13    1    6    6    0    0 -0.54377560251E+01  0.75082068703E+01 -0.76559773940E+01  0.12023617420E+02  0.10500000000E+00 0. -1.
</event>
<event>
11    0  0.3476221E-009  0.9118800E+02  0.7816531E-02  0.1126479E+00
         25   -1    0    0    0    0  0.00000000000E+00  0.00000000000E+00  0.99999998245E-14  0.12500000000E+03  0.12500000000E+03 0.  0.
    3000001    1    3    3    0    0  0.81854718223E+01  0.18051632340E+02  0.14886822151E+02  0.24808886570E+02  0.10000000000E+01 0.  1.
    1000022    2    1    0    0    0  0.28880548546E+02  0.46399442404E+02  0.28622642283E+02  0.62499996898E+02  0.99999810660E+01 0.  0.
    3000022    2    3    3    0    0  0.20695076724E+02  0.28347810064E+02  0.13735820132E+02  0.37691110328E+02  0.25001411705E+00 0.  0.
    1000022    2    1    0    0    0 -0.28880548546E+02 -0.46399442404E+02 -0.28622642283E+02  0.62500003102E+02  0.10000019835E+02 0.  0.
    3000022    2    5    5    0    0 -0.95696375056E+01 -0.24574858332E+02 -0.12593308754E+02  0.29225939801E+02  0.25001572767E+00 0.  0.
        -13    1    4    4    0    0  0.10137751052E+02  0.13989093307E+02  0.67940414212E+01  0.18564448599E+02  0.10500000000E+00 0. -1.
         13    1    4    4    0    0  0.10557325672E+02  0.14358716757E+02  0.69417787106E+01  0.19126661730E+02  0.10500000000E+00 0.  1.
    3000001    1    5    5    0    0 -0.19310911040E+02 -0.21824584072E+02 -0.16029333529E+02  0.33274063300E+02  0.10000000000E+01 0.  1.
        -13    1    6    6    0    0 -0.45430849484E+01 -0.11737269016E+02 -0.59406680204E+01  0.13917818303E+02  0.10500000000E+00 0. -1.
         13    1    6    6    0    0 -0.50265525572E+01 -0.12837589317E+02 -0.66526407337E+01  0.15308121498E+02  0.10500000000E+00 0.  1.
</event>
<event>
11    0  0.3476221E-009  0.9118800E+02  0.7816531E-02  0.1126479E+00
         25   -1    0    0    0    0  0.00000000000E+00  0.00000000000E+00  0.99999998245E-14  0.12500000000E+03  0.12500000000E+03 0.  0.
    3000001    1    3    3    0    0 -0.10091621443E+02 -0.43100452917E+02 -0.10174706882E+02  0.45431426624E+02  0.10000000000E+01 0. -1.
    1000022    2    1    0    0    0 -0.12422487127E+02 -0.57194041580E+02 -0.19513416238E+02  0.62499999146E+02  0.99999950704E+01 0.  0.
    3000022    2    3    3    0    0 -0.23308656835E+01 -0.14093588663E+02 -0.93387093558E+01  0.17068572522E+02  0.24999855833E+00 0.  0.
    1000022    2    1    0    0    0  0.12422487127E+02  0.57194041580E+02  0.19513416238E+02  0.62500000854E+02  0.10000005739E+02 0.  0.
    3000022    2    5    5    0    0  0.12473067239E+02  0.51536624574E+02  0.14754282493E+02  0.55039553178E+02  0.24996658338E+00 0.  0.
        -13    1    4    4    0    0 -0.12128306247E+01 -0.75263682714E+01 -0.50546849711E+01  0.91475703134E+01  0.10500000000E+00 0.  1.
         13    1    4    4    0    0 -0.11180350588E+01 -0.65672203916E+01 -0.42840243847E+01  0.79210022089E+01  0.10500000000E+00 0. -1.
    3000001    1    5    5    0    0 -0.50580111978E-01  0.56574170056E+01  0.47591337445E+01  0.74604476757E+01  0.10000000000E+01 0. -1.
        -13    1    6    6    0    0  0.76909696570E+01  0.31674468539E+02  0.90110383930E+01  0.33817640506E+02  0.10500000000E+00 0.  1.
         13    1    6    6    0    0  0.47820975818E+01  0.19862156035E+02  0.57432441004E+01  0.21221912672E+02  0.10500000000E+00 0. -1.
</event>
<event>
11    0  0.3476221E-009  0.9118800E+02  0.7816531E-02  0.1126479E+00
         25   -1    0    0    0    0  0.00000000000E+00  0.00000000000E+00  0.99999998245E-14  0.12500000000E+03  0.12500000000E+03 0.  0.
    3000001    1    3    3    0    0  0.22488004776E+01  0.97080989723E+00 -0.42547257041E-01  0.26460131733E+01  0.10000000000E+01 0. -1.
    1000022    2    1    0    0    0  0.28316195883E+02  0.53325733938E+02  0.12681009473E+02  0.62499990388E+02  0.99999973934E+01 0.  0.
    3000022    2    3    3    0    0  0.26067395406E+02  0.52354924041E+02  0.12723556730E+02  0.59853977214E+02  0.25003589080E+00 0.  0.
    1000022    2    1    0    0    0 -0.28316195883E+02 -0.53325733938E+02 -0.12681009473E+02  0.62500009612E+02  0.10000117547E+02 0.  0.
    3000022    2    5    5    0    0 -0.17406927702E+01 -0.11133279732E+02 -0.13236879290E+01  0.11348770035E+02  0.25000532389E+00 0.  0.
        -13    1    4    4    0    0  0.99633022788E+01  0.20015353485E+02  0.49265719679E+01  0.22894626089E+02  0.10500000000E+00 0. -1.
         13    1    4    4    0    0  0.16104093127E+02  0.32339570556E+02  0.77969847624E+01  0.36959351125E+02  0.10500000000E+00 0.  1.
    3000001    1    5    5    0    0 -0.26575503113E+02 -0.42192454206E+02 -0.11357321544E+02  0.51151239578E+02  0.10000000000E+01 0.  1.
        -13    1    6    6    0    0 -0.68305174775E+00 -0.46708407925E+01 -0.59969386695E+00  0.47596188012E+01  0.10500000000E+00 0.  1.
         13    1    6    6    0    0 -0.10576410224E+01 -0.64624389393E+01 -0.72399406209E+00  0.65891512335E+01  0.10500000000E+00 0. -1.
</event>
<event>
11    0  0.3476221E-009  0.9118800E+02  0.7816531E-02  0.1126479E+00
         25   -1    0    0    0    0  0.00000000000E+00  0.00000000000E+00  0.99999998245E-14  0.12500000000E+03  0.12500000000E+03 0.  0.
    3000001    1    3    3    0    0 -0.15580723361E+02  0.28904862276E+02 -0.15170713979E+02  0.36185640333E+02  0.10000000000E+01 0. -1.
    1000022    2    1    0    0    0 -0.33435141674E+02  0.47123904068E+02 -0.21625886787E+02  0.62499999402E+02  0.99999956234E+01 0.  0.
    3000022    2    3    3    0    0 -0.17854418313E+02  0.18219041792E+02 -0.64551728080E+01  0.26314359069E+02  0.25000019878E+00 0.  0.
    1000022    2    1    0    0    0  0.33435141674E+02 -0.47123904068E+02  0.21625886787E+02  0.62500000598E+02  0.10000003103E+02 0.  0.
    3000022    2    5    5    0    0  0.14750837444E+02 -0.25277958554E+02  0.64185563603E+01  0.29963690748E+02  0.25000705409E+00 0.  0.
        -13    1    4    4    0    0 -0.11406909027E+02  0.11717697077E+02 -0.41584205113E+01  0.16873810610E+02  0.10500000000E+00 0.  1.
         13    1    4    4    0    0 -0.64475092857E+01  0.65013447146E+01 -0.22967522967E+01  0.94405484586E+01  0.10500000000E+00 0. -1.
    3000001    1    5    5    0    0  0.18684304230E+02 -0.21845945515E+02  0.15207330427E+02  0.32536309851E+02  0.10000000000E+01 0. -1.
        -13    1    6    6    0    0  0.84631779615E+01 -0.14398366253E+02  0.36230073025E+01  0.17090217637E+02  0.10500000000E+00 0. -1.
         13    1    6    6    0    0  0.62876594824E+01 -0.10879592301E+02  0.27955490578E+01  0.12873473111E+02  0.10500000000E+00 0.  1.
</event>
<event>
11    0  0.3476221E-009  0.9118800E+02  0.7816531E-02  0.1126479E+00
         25   -1    0    0    0    0  0.00000000000E+00  0.00000000000E+00  0.99999998245E-14  0.12500000000E+03  0.12500000000E+03 0.  0.
    3000001    1    3    3    0    0  0.78930764148E+01 -0.21022616503E+02  0.50962126392E+01  0.23048263344E+02  0.10000000000E+01 0.  1.
    1000022    2    1    0    0    0  0.23347341427E+02 -0.57096487289E+02  0.10689872979E+01  0.62499999754E+02  0.10000001148E+02 0.  0.
    3000022    2    3    3    0    0  0.15454265012E+02 -0.36073870786E+02 -0.40272253413E+01  0.39451736410E+02  0.25000249826E+00 0.  0.
    1000022    2    1    0    0    0 -0.23347341427E+02  0.57096487289E+02 -0.10689872979E+01  0.62500000246E+02  0.10000004220E+02 0.  0.
    3000022    2    5    5    0    0 -0.10842889221E+01  0.58926021666E+01  0.26002418715E+01  0.65362208775E+01  0.24996561423E+00 0.  0.
        -13    1    4    4    0    0  0.69031580096E+01 -0.15946044702E+02 -0.17765330414E+01  0.17467026844E+02  0.10500000000E+00 0. -1.
         13    1    4    4    0    0  0.85511070024E+01 -0.20127826085E+02 -0.22506922999E+01  0.21984709566E+02  0.10500000000E+00 0.  1.
    3000001    1    5    5    0    0 -0.22263052505E+02  0.51203885123E+02 -0.36692291694E+01  0.55963779368E+02  0.10000000000E+01 0. -1.
        -13    1    6    6    0    0 -0.56916356439E+00  0.34494930171E+01  0.15148206572E+01  0.38116473947E+01  0.10500000000E+00 0.  1.
         13    1    6    6    0    0 -0.51512535771E+00  0.24431091495E+01  0.10854212143E+01  0.27245734828E+01  0.10500000000E+00 0. -1.
</event>
<event>
11    0  0.3476221E-009  0.9118800E+02  0.7816531E-02  0.1126479E+00
         25   -1    0    0    0    0  0.00000000000E+00  0.00000000000E+00  0.99999998245E-14  0.12500000000E+03  0.12500000000E+03 0.  0.
    3000001    1    3    3    0    0  0.57622214811E+01  0.13386104748E+02 -0.31717450665E+02  0.34919731864E+02  0.10000000000E+01 0.  1.
    1000022    2    1    0    0    0  0.18509981821E+02  0.21415880362E+02 -0.54817796258E+02  0.62499999398E+02  0.99999889689E+01 0.  0.
    3000022    2    3    3    0    0  0.12747760340E+02  0.80297756141E+01 -0.23100345593E+02  0.27580267534E+02  0.25000126454E+00 0.  0.
    1000022    2    1    0    0    0 -0.18509981821E+02 -0.21415880362E+02  0.54817796258E+02  0.62500000602E+02  0.99999964986E+01 0.  0.
    3000022    2    5    5    0    0 -0.13102768201E+02 -0.76905695125E+01  0.26168620305E+02  0.30260313881E+02  0.25002715469E+00 0.  0.
        -13    1    4    4    0    0  0.60005296515E+01  0.37574315693E+01 -0.10974056025E+02  0.13060075755E+02  0.10500000000E+00 0.  1.
         13    1    4    4    0    0  0.67472306881E+01  0.42723440449E+01 -0.12126289568E+02  0.14520191779E+02  0.10500000000E+00 0. -1.
    3000001    1    5    5    0    0 -0.54072136195E+01 -0.13725310850E+02  0.28649175954E+02  0.32239686721E+02  0.10000000000E+01 0. -1.
        -13    1    6    6    0    0 -0.79970026624E+01 -0.47460816739E+01  0.16100391147E+02  0.18593304250E+02  0.10500000000E+00 0. -1.
         13    1    6    6    0    0 -0.51057655388E+01 -0.29444878386E+01  0.10068229158E+02  0.11667009631E+02  0.10500000000E+00 0.  1.
</event>
<event>
11    0  0.3476221E-009  0.9118800E+02  0.7816531E-02  0.1126479E+00
         25   -1    0    0    0    0  0.00000000000E+00  0.00000000000E+00  0.99999998245E-14  0.12500000000E+03  0.12500000000E+03 0.  0.
    3000001    1    3    3    0    0 -0.80982883722E+01 -0.10911909990E+02  0.12790362205E+01  0.13685320159E+02  0.10000000000E+01 0.  1.
    1000022    2    1    0    0    0 -0.42663286772E+02 -0.39731277330E+02  0.20187115259E+02  0.62500000317E+02  0.99999990350E+01 0.  0.
    3000022    2    3    3    0    0 -0.34564998400E+02 -0.28819367340E+02  0.18908079038E+02  0.48814680159E+02  0.24999561293E+00 0.  0.
    1000022    2    1    0    0    0  0.42663286772E+02  0.39731277330E+02 -0.20187115259E+02  0.62499999683E+02  0.99999950695E+01 0.  0.
    3000022    2    5    5    0    0  0.27831351299E+02  0.29063197203E+02 -0.96356932165E+01  0.41378286907E+02  0.24999356745E+00 0.  0.
        -13    1    4    4    0    0 -0.16975600487E+02 -0.14196061470E+02  0.92329823232E+01  0.23978285192E+02  0.10500000000E+00 0.  1.
         13    1    4    4    0    0 -0.17589397913E+02 -0.14623305870E+02  0.96750967148E+01  0.24836394967E+02  0.10500000000E+00 0. -1.
    3000001    1    5    5    0    0  0.14831935473E+02  0.10668080127E+02 -0.10551422042E+02  0.21121712776E+02  0.10000000000E+01 0.  1.
        -13    1    6    6    0    0  0.15162682481E+02  0.15739312053E+02 -0.52482084389E+01  0.22476378729E+02  0.10500000000E+00 0. -1.
         13    1    6    6    0    0  0.12668668818E+02  0.13323885150E+02 -0.43874847776E+01  0.18901908178E+02  0.10500000000E+00 0.  1.
</event>
<event>
11    0  0.3476221E-009  0.9118800E+02  0.7816531E-02  0.1126479E+00
         25   -1    0    0    0    0  0.00000000000E+00  0.00000000000E+00  0.99999998245E-14  0.12500000000E+03  0.12500000000E+03 0.  0.
    3000001    1    3    3    0    0  0.20843201856E+01 -0.61647960272E+01  0.83982422819E-01  0.65845389923E+01  0.10000000000E+01 0.  1.
    1000022    2    1    0    0    0  0.15264191733E+02 -0.53763965133E+02 -0.26128348208E+02  0.62499999235E+02  0.99999914076E+01 0.  0.
    3000022    2    3    3    0    0  0.13179871548E+02 -0.47599169106E+02 -0.26212330630E+02  0.55915460242E+02  0.25000687942E+00 0.  0.
    1000022    2    1    0    0    0 -0.15264191733E+02  0.53763965133E+02  0.26128348208E+02  0.62500000765E+02  0.10000000976E+02 0.  0.
    3000022    2    5    5    0    0 -0.15666694346E+01  0.13140615300E+01  0.27997334178E+01  0.34759482689E+01  0.24999667032E+00 0.  0.
        -13    1    4    4    0    0  0.87873303067E+01 -0.31763080684E+02 -0.17550263523E+02  0.37338093727E+02  0.10500000000E+00 0. -1.
         13    1    4    4    0    0  0.43925412409E+01 -0.15836088422E+02 -0.86620671078E+01  0.18577366516E+02  0.10500000000E+00 0.  1.
    3000001    1    5    5    0    0 -0.13697522299E+02  0.52449903603E+02  0.23328614790E+02  0.59024052497E+02  0.10000000000E+01 0. -1.
        -13    1    6    6    0    0 -0.98262013403E+00  0.77180430553E+00  0.17850971601E+01  0.21814722288E+01  0.10500000000E+00 0. -1.
         13    1    6    6    0    0 -0.58404930059E+00  0.54225722449E+00  0.10146362577E+01  0.12944760401E+01  0.10500000000E+00 0.  1.
</event>
<event>
11    0  0.3476221E-009  0.9118800E+02  0.7816531E-02  0.1126479E+00
         25   -1    0    0    0    0  0.00000000000E+00  0.00000000000E+00  0.99999998245E-14  0.12500000000E+03  0.12500000000E+03 0.  0.
    3000001    1    3    3    0    0  0.21791278341E+00  0.30063521796E+02  0.10139769308E+02  0.31743940372E+02  0.10000000000E+01 0.  1.
    1000022    2    1    0    0    0 -0.64838769579E+01  0.59928876763E+02  0.13143012005E+02  0.62500002883E+02  0.10000033266E+02 0.  0.
    3000022    2    3    3    0    0 -0.67017897413E+01  0.29865354967E+02  0.30032426976E+01  0.30756062511E+02  0.25000282181E+00 0.  0.
    1000022    2    1    0    0    0  0.64838769579E+01 -0.59928876763E+02 -0.13143012005E+02  0.62499997117E+02  0.99999972342E+01 0.  0.
    3000022    2    5    5    0    0  0.38172589023E+01 -0.56479593239E+02 -0.12597777995E+02  0.57993813721E+02  0.25000294133E+00 0.  0.
        -13    1    4    4    0    0 -0.24425207738E+01  0.10836794927E+02  0.11478639428E+01  0.11168287633E+02  0.10500000000E+00 0. -1.
         13    1    4    4    0    0 -0.42592689675E+01  0.19028560040E+02  0.18553787548E+01  0.19587774877E+02  0.10500000000E+00 0.  1.
    3000001    1    5    5    0    0  0.26666180556E+01 -0.34492835233E+01 -0.54523401027E+00  0.45061833966E+01  0.10000000000E+01 0. -1.
        -13    1    6    6    0    0  0.18351340673E+01 -0.26221807355E+02 -0.58249862436E+01  0.26923825652E+02  0.10500000000E+00 0.  1.
         13    1    6    6    0    0  0.19821248350E+01 -0.30257785884E+02 -0.67727917514E+01  0.31069988069E+02  0.10500000000E+00 0. -1.
</event>
<event>
11    0  0.3476221E-009  0.9118800E+02  0.7816531E-02  0.1126479E+00
         25   -1    0    0    0    0  0.00000000000E+00  0.00000000000E+00  0.99999998245E-14  0.12500000000E+03  0.12500000000E+03 0.  0.
    3000001    1    3    3    0    0  0.14216651675E+02 -0.91085774705E+01  0.15931343473E-01  0.16913888441E+02  0.10000000000E+01 0.  1.
    1000022    2    1    0    0    0  0.53667660016E+02 -0.26726784500E+02  0.14550298916E+02  0.62500000107E+02  0.10000003675E+02 0.  0.
    3000022    2    3    3    0    0  0.39451008341E+02 -0.17618207029E+02  0.14534367573E+02  0.45586111666E+02  0.24991603545E+00 0.  0.
    1000022    2    1    0    0    0 -0.53667660016E+02  0.26726784500E+02 -0.14550298916E+02  0.62499999893E+02  0.10000002341E+02 0.  0.
    3000022    2    5    5    0    0 -0.51537634013E+02  0.24562111787E+02 -0.11835945631E+02  0.58305893018E+02  0.24999300028E+00 0.  0.
        -13    1    4    4    0    0  0.12699956545E+02 -0.56374399353E+01  0.46316852156E+01  0.14646950475E+02  0.10500000000E+00 0.  1.
         13    1    4    4    0    0  0.26751051796E+02 -0.11980767094E+02  0.99026823571E+01  0.30939161191E+02  0.10500000000E+00 0. -1.
    3000001    1    5    5    0    0 -0.21300260028E+01  0.21646727132E+01 -0.27143532852E+01  0.41941068757E+01  0.10000000000E+01 0.  1.
        -13    1    6    6    0    0 -0.20149754652E+02  0.95350049841E+01 -0.46301187442E+01  0.22767915082E+02  0.10500000000E+00 0.  1.
         13    1    6    6    0    0 -0.31387879361E+02  0.15027106803E+02 -0.72058268867E+01  0.35537977936E+02  0.10500000000E+00 0. -1.
</event>
<event>
11    0  0.3476221E-009  0.9118800E+02  0.7816531E-02  0.1126479E+00
         25   -1    0    0    0    0  0.00000000000E+00  0.00000000000E+00  0.99999998245E-14  0.12500000000E+03  0.12500000000E+03 0.  0.
    3000001    1    3    3    0    0  0.26554503184E+02  0.10592644274E+02  0.27866065261E+01  0.28742145501E+02  0.10000000000E+01 0.  1.
    1000022    2    1    0    0    0  0.57916227117E+02  0.15931012746E+02  0.14077055456E+02  0.62499998577E+02  0.99999900608E+01 0.  0.
    3000022    2    3    3    0    0  0.31361723932E+02  0.53383684714E+01  0.11290448930E+02  0.33757853075E+02  0.25000252131E+00 0.  0.
    1000022    2    1    0    0    0 -0.57916227117E+02 -0.15931012746E+02 -0.14077055456E+02  0.62500001423E+02  0.10000007853E+02 0.  0.
    3000022    2    5    5    0    0 -0.51992525019E+02 -0.15313831284E+02 -0.15339620919E+02  0.56330298753E+02  0.25000226704E+00 0.  0.
        -13    1    4    4    0    0  0.19440785920E+02  0.32498008033E+01  0.70129056510E+01  0.20921214906E+02  0.10500000000E+00 0. -1.
         13    1    4    4    0    0  0.11920938012E+02  0.20885676681E+01  0.42775432788E+01  0.12836638169E+02  0.10500000000E+00 0.  1.
    3000001    1    5    5    0    0 -0.59237020975E+01 -0.61718146180E+00  0.12625654632E+01  0.61697026708E+01  0.10000000000E+01 0. -1.
        -13    1    6    6    0    0 -0.30721009007E+02 -0.90986190073E+01 -0.90239867108E+01  0.33286763486E+02  0.10500000000E+00 0.  1.
         13    1    6    6    0    0 -0.21271516012E+02 -0.62152122767E+01 -0.63156342083E+01  0.23043535266E+02  0.10500000000E+00 0. -1.
</event>
<event>
11    0  0.3476221E-009  0.9118800E+02  0.7816531E-02  0.1126479E+00
         25   -1    0    0    0    0  0.00000000000E+00  0.00000000000E+00  0.99999998245E-14  0.12500000000E+03  0.12500000000E+03 0.  0.
    3000001    1    3    3    0    0  0.30716665239E+02  0.64229691132E+01 -0.37721540920E+01  0.31622732363E+02  0.10000000000E+01 0. -1.
    1000022    2    1    0    0    0  0.60255350734E+02  0.43423524779E+01 -0.12517454560E+02  0.62500000376E+02  0.10000003061E+02 0.  0.
    3000022    2    3    3    0    0  0.29538685495E+02 -0.20806166353E+01 -0.87453004678E+01  0.30877268012E+02  0.24998658358E+00 0.  0.
    1000022    2    1    0    0    0 -0.60255350734E+02 -0.43423524779E+01  0.12517454560E+02  0.62499999624E+02  0.99999983660E+01 0.  0.
    3000022    2    5    5    0    0 -0.44877193042E+02 -0.51285107839E+01  0.53492116547E+01  0.45485609091E+02  0.24998175584E+00 0.  0.
        -13    1    4    4    0    0  0.79047541760E+01 -0.52248961529E+00 -0.23471547185E+01  0.82630680897E+01  0.10500000000E+00 0. -1.
         13    1    4    4    0    0  0.21633931319E+02 -0.15581270200E+01 -0.63981457493E+01  0.22614199923E+02  0.10500000000E+00 0.  1.
    3000001    1    5    5    0    0 -0.15378157691E+02  0.78615830601E+00  0.71682429051E+01  0.17014390533E+02  0.10000000000E+01 0. -1.
        -13    1    6    6    0    0 -0.26538243395E+02 -0.30719271233E+01  0.32147383655E+01  0.26908375396E+02  0.10500000000E+00 0.  1.
         13    1    6    6    0    0 -0.18338949648E+02 -0.20565836606E+01  0.21344732892E+01  0.18577233695E+02  0.10500000000E+00 0. -1.
</event>
<event>
11    0  0.3476221E-009  0.9118800E+02  0.7816531E-02  0.1126479E+00
         25   -1    0    0    0    0  0.00000000000E+00  0.00000000000E+00  0.99999998245E-14  0.12500000000E+03  0.12500000000E+03 0.  0.
    3000001    1    3    3    0    0 -0.42613480927E+01  0.63562169022E+01 -0.11852155361E+02  0.14143343578E+02  0.10000000000E+01 0.  1.
    1000022    2    1    0    0    0 -0.32172464467E+02  0.16112547724E+02 -0.50115547551E+02  0.62499998730E+02  0.10000003543E+02 0.  0.
    3000022    2    3    3    0    0 -0.27911116374E+02  0.97563308219E+01 -0.38263392190E+02  0.48356655152E+02  0.25001438705E+00 0.  0.
    1000022    2    1    0    0    0  0.32172464467E+02 -0.16112547724E+02  0.50115547551E+02  0.62500001270E+02  0.10000019422E+02 0.  0.
    3000022    2    5    5    0    0  0.27535723673E+02 -0.97070145848E+01  0.41734508397E+02  0.50934015048E+02  0.24997494383E+00 0.  0.
        -13    1    4    4    0    0 -0.10103619105E+02  0.34732447326E+01 -0.13795748027E+02  0.17449362069E+02  0.10500000000E+00 0.  1.
         13    1    4    4    0    0 -0.17807497269E+02  0.62830860894E+01 -0.24467644163E+02  0.30907293083E+02  0.10500000000E+00 0. -1.
    3000001    1    5    5    0    0  0.46367407939E+01 -0.64055331393E+01  0.83810391539E+01  0.11565986222E+02  0.10000000000E+01 0. -1.
        -13    1    6    6    0    0  0.13005179499E+02 -0.45214339837E+01  0.19736303534E+02  0.24064720262E+02  0.10500000000E+00 0. -1.
         13    1    6    6    0    0  0.14530544173E+02 -0.51855806011E+01  0.21998204863E+02  0.26869294787E+02  0.10500000000E+00 0.  1.
</event>
<event>
11    0  0.3476221E-009  0.9118800E+02  0.7816531E-02  0.1126479E+00
         25   -1    0    0    0    0  0.00000000000E+00  0.00000000000E+00  0.99999998245E-14  0.12500000000E+03  0.12500000000E+03 0.  0.
    3000001    1    3    3    0    0  0.19936855716E+02  0.81944883812E+01 -0.36380132697E+01  0.21882938473E+02  0.10000000000E+01 0. -1.
    1000022    2    1    0    0    0  0.51935560503E+02  0.33191901161E+02 -0.26916729444E+01  0.62500001516E+02  0.10000016941E+02 0.  0.
    3000022    2    3    3    0    0  0.31998704787E+02  0.24997412780E+02  0.94634032529E+00  0.40617063043E+02  0.24999297463E+00 0.  0.
    1000022    2    1    0    0    0 -0.51935560503E+02 -0.33191901161E+02  0.26916729444E+01  0.62499998484E+02  0.99999979869E+01 0.  0.
    3000022    2    5    5    0    0 -0.43029935586E+02 -0.31422378512E+02  0.29233407893E+01  0.53362436688E+02  0.25000010494E+00 0.  0.
        -13    1    4    4    0    0  0.13461576019E+02  0.10571941221E+02  0.35111149592E+00  0.17120580433E+02  0.10500000000E+00 0.  1.
         13    1    4    4    0    0  0.18537128768E+02  0.14425471559E+02  0.59522882937E+00  0.23496482610E+02  0.10500000000E+00 0. -1.
    3000001    1    5    5    0    0 -0.89056249175E+01 -0.17695226491E+01 -0.23166784493E+00  0.91375617955E+01  0.10000000000E+01 0. -1.
        -13    1    6    6    0    0 -0.11891432434E+02 -0.86591298994E+01  0.83991599235E+00  0.14734421598E+02  0.10500000000E+00 0.  1.
         13    1    6    6    0    0 -0.31138503152E+02 -0.22763248613E+02  0.20834247970E+01  0.38628015091E+02  0.10500000000E+00 0. -1.
</event>
<event>
11    0  0.3476221E-009  0.9118800E+02  0.7816531E-02  0.1126479E+00
         25   -1    0    0    0    0  0.00000000000E+00  0.00000000000E+00  0.99999998245E-14  0.12500000000E+03  0.12500000000E+03 0.  0.
    3000001    1    3    3    0    0  0.18393229489E+02 -0.18622791797E+00  0.47748216610E+01  0.19030094424E+02  0.10000000000E+01 0. -1.
    1000022    2    1    0    0    0  0.56332702199E+02  0.12202192659E+02  0.21999616480E+02  0.62499999059E+02  0.99999957220E+01 0.  0.
    3000022    2    3    3    0    0  0.37939472710E+02  0.12388420577E+02  0.17224794819E+02  0.43469904636E+02  0.24999720879E+00 0.  0.
    1000022    2    1    0    0    0 -0.56332702199E+02 -0.12202192659E+02 -0.21999616480E+02  0.62500000941E+02  0.10000007479E+02 0.  0.
    3000022    2    5    5    0    0 -0.37722949407E+02 -0.92248078785E+01 -0.98856350322E+01  0.40073760381E+02  0.24999747814E+00 0.  0.
        -13    1    4    4    0    0  0.22570907457E+02  0.73044516320E+01  0.10251727231E+02  0.25843951194E+02  0.10500000000E+00 0. -1.
         13    1    4    4    0    0  0.15368565253E+02  0.50839689446E+01  0.69730675874E+01  0.17625953442E+02  0.10500000000E+00 0.  1.
    3000001    1    5    5    0    0 -0.18609752792E+02 -0.29773847802E+01 -0.12113981447E+02  0.22426240559E+02  0.10000000000E+01 0. -1.
        -13    1    6    6    0    0 -0.11693430916E+02 -0.28979562071E+01 -0.30348811872E+01  0.12424009239E+02  0.10500000000E+00 0. -1.
         13    1    6    6    0    0 -0.26029518492E+02 -0.63268516714E+01 -0.68507538450E+01  0.27649751142E+02  0.10500000000E+00 0.  1.
</event>
<event>
11    0  0.3476221E-009  0.9118800E+02  0.7816531E-02  0.1126479E+00
         25   -1    0    0    0    0  0.00000000000E+00  0.00000000000E+00  0.99999998245E-14  0.12500000000E+03  0.12500000000E+03 0.  0.
    3000001    1    3    3    0    0  0.25546621198E+02 -0.48989738701E+01  0.49416181189E+01  0.26496214621E+02  0.10000000000E+01 0.  1.
    1000022    2    1    0    0    0  0.56838910859E+02 -0.88334625575E+01  0.22306018364E+02  0.62499998961E+02  0.99999783247E+01 0.  0.
    3000022    2    3    3    0    0  0.31292289661E+02 -0.39344886874E+01  0.17364400245E+02  0.36003784340E+02  0.24999494843E+00 0.  0.
    1000022    2    1    0    0    0 -0.56838910859E+02  0.88334625575E+01 -0.22306018364E+02  0.62500001039E+02  0.99999913104E+01 0.  0.
    3000022    2    5    5    0    0 -0.34123982248E+02  0.10165998390E+02 -0.13417816025E+02  0.38051202002E+02  0.24999833335E+00 0.  0.
        -13    1    4    4    0    0  0.81144979415E+01 -0.10141712182E+01  0.45376921302E+01  0.93528228343E+01  0.10500000000E+00 0. -1.
         13    1    4    4    0    0  0.23177791719E+02 -0.29203174692E+01  0.12826708115E+02  0.26650961506E+02  0.10500000000E+00 0.  1.
    3000001    1    5    5    0    0 -0.22714928611E+02 -0.13325358320E+01 -0.88882023386E+01  0.24448799037E+02  0.10000000000E+01 0. -1.
        -13    1    6    6    0    0 -0.23610941159E+02  0.70338834109E+01 -0.93350921534E+01  0.26345911044E+02  0.10500000000E+00 0.  1.
         13    1    6    6    0    0 -0.10513041090E+02  0.31321149786E+01 -0.40827238719E+01  0.11705290958E+02  0.10500000000E+00 0. -1.
</event>
<event>
11    0  0.3476221E-009  0.9118800E+02  0.7816531E-02  0.1126479E+00
         25   -1    0    0    0    0  0.00000000000E+00  0.00000000000E+00  0.99999998245E-14  0.12500000000E+03  0.12500000000E+03 0.  0.
    3000001    1    3    3    0    0 -0.17103198384E+02 -0.31140461133E+02 -0.68519732995E+01  0.36196646981E+02  0.10000000000E+01 0.  1.
    1000022    2    1    0    0    0 -0.30397658564E+02 -0.50069480449E+02 -0.19372108224E+02  0.62500006517E+02  0.10000085947E+02 0.  0.
    3000022    2    3    3    0    0 -0.13294460180E+02 -0.18929019316E+02 -0.12520134925E+02  0.26303359536E+02  0.25000122384E+00 0.  0.
    1000022    2    1    0    0    0  0.30397658564E+02  0.50069480449E+02  0.19372108224E+02  0.62499993483E+02  0.10000004488E+02 0.  0.
    3000022    2    5    5    0    0  0.16136586119E+02  0.19542817025E+02  0.48910242313E+01  0.25812704667E+02  0.24999067941E+00 0.  0.
        -13    1    4    4    0    0 -0.83036051797E+01 -0.11722121701E+02 -0.77957996375E+01  0.16344525479E+02  0.10500000000E+00 0.  1.
         13    1    4    4    0    0 -0.49908549999E+01 -0.72068976150E+01 -0.47243352875E+01  0.99588340569E+01  0.10500000000E+00 0. -1.
    3000001    1    5    5    0    0  0.14261072445E+02  0.30526663424E+02  0.14481083993E+02  0.36687288816E+02  0.10000000000E+01 0.  1.
        -13    1    6    6    0    0  0.84711624991E+01  0.10351332210E+02  0.26153614016E+01  0.13629446536E+02  0.10500000000E+00 0. -1.
         13    1    6    6    0    0  0.76654236204E+01  0.91914848147E+01  0.22756628297E+01  0.12183258131E+02  0.10500000000E+00 0.  1.
</event>
<event>
11    0  0.3476221E-009  0.9118800E+02  0.7816531E-02  0.1126479E+00
         25   -1    0    0    0    0  0.00000000000E+00  0.00000000000E+00  0.99999998245E-14  0.12500000000E+03  0.12500000000E+03 0.  0.
    3000001    1    3    3    0    0 -0.34146009787E+01 -0.30257283708E+02  0.18226849867E+02  0.35501841830E+02  0.10000000000E+01 0. -1.
    1000022    2    1    0    0    0 -0.98311797686E+00 -0.56096512908E+02  0.25660567355E+02  0.62499999746E+02  0.99999984918E+01 0.  0.
    3000022    2    3    3    0    0  0.24314830018E+01 -0.25839229200E+02  0.74337174878E+01  0.26998157916E+02  0.24999984482E+00 0.  0.
    1000022    2    1    0    0    0  0.98311797686E+00  0.56096512908E+02 -0.25660567355E+02  0.62500000254E+02  0.10000001667E+02 0.  0.
    3000022    2    5    5    0    0 -0.30392086721E+01  0.35635078338E+02 -0.19485523220E+02  0.40728905049E+02  0.24998768107E+00 0.  0.
        -13    1    4    4    0    0  0.64866324139E+00 -0.70607149416E+01  0.20661506785E+01  0.73860993165E+01  0.10500000000E+00 0. -1.
         13    1    4    4    0    0  0.17828197605E+01 -0.18778514258E+02  0.53675668093E+01  0.19612058599E+02  0.10500000000E+00 0.  1.
    3000001    1    5    5    0    0  0.40223266489E+01  0.20461434570E+02 -0.61750441350E+01  0.21771095205E+02  0.10000000000E+01 0. -1.
        -13    1    6    6    0    0 -0.15339502769E+01  0.17406960547E+02 -0.94674873191E+01  0.19874597356E+02  0.10500000000E+00 0. -1.
         13    1    6    6    0    0 -0.15052583952E+01  0.18228117791E+02 -0.10018035901E+02  0.20854307693E+02  0.10500000000E+00 0.  1.
</event>
<event>
11    0  0.3476221E-009  0.9118800E+02  0.7816531E-02  0.1126479E+00
         25   -1    0    0    0    0  0.00000000000E+00  0.00000000000E+00  0.99999998245E-14  0.12500000000E+03  0.12500000000E+03 0.  0.
    3000001    1    3    3    0    0 -0.11030687336E+02 -0.59628892623E+01  0.13076980320E+01  0.12646825119E+02  0.10000000000E+01 0. -1.
    1000022    2    1    0    0    0 -0.53072172232E+02 -0.28727462392E+02 -0.12819025679E+02  0.62500000147E+02  0.10000001905E+02 0.  0.
    3000022    2    3    3    0    0 -0.42041484896E+02 -0.22764573129E+02 -0.14126723711E+02  0.49853175028E+02  0.24999095252E+00 0.  0.
    1000022    2    1    0    0    0  0.53072172232E+02  0.28727462392E+02  0.12819025679E+02  0.62499999853E+02  0.10000000066E+02 0.  0.
    3000022    2    5    5    0    0  0.63161610604E+01  0.73436779634E-01  0.15094379451E+01  0.64992450437E+01  0.24999945202E+00 0.  0.
        -13    1    4    4    0    0 -0.22620675396E+02 -0.12307790391E+02 -0.76534931707E+01  0.26865659166E+02  0.10500000000E+00 0. -1.
         13    1    4    4    0    0 -0.19420809500E+02 -0.10456782738E+02 -0.64732305405E+01  0.22987515862E+02  0.10500000000E+00 0.  1.
    3000001    1    5    5    0    0  0.46756011172E+02  0.28654025612E+02  0.11309587734E+02  0.56000754809E+02  0.10000000000E+01 0.  1.
        -13    1    6    6    0    0  0.18905404749E+01 -0.18869557007E-01  0.47314130899E+00  0.19517651103E+01  0.10500000000E+00 0.  1.
         13    1    6    6    0    0  0.44256205855E+01  0.92306336642E-01  0.10362966361E+01  0.45474799334E+01  0.10500000000E+00 0. -1.
</event>
<event>
11    0  0.3476221E-009  0.9118800E+02  0.7816531E-02  0.1126479E+00
         25   -1    0    0    0    0  0.00000000000E+00  0.00000000000E+00  0.99999998245E-14  0.12500000000E+03  0.12500000000E+03 0.  0.
    3000001    1    3    3    0    0 -0.19197841701E+02 -0.38975381225E+02  0.28943560443E+02  0.52214625908E+02  0.10000000000E+01 0. -1.
    1000022    2    1    0    0    0 -0.25202770544E+02 -0.43167718319E+02  0.36161009756E+02  0.62500000807E+02  0.99999963128E+01 0.  0.
    3000022    2    3    3    0    0 -0.60049288430E+01 -0.41923370942E+01  0.72174493135E+01  0.10285374899E+02  0.25000298289E+00 0.  0.
    1000022    2    1    0    0    0  0.25202770544E+02  0.43167718319E+02 -0.36161009756E+02  0.62499999193E+02  0.99999862306E+01 0.  0.
    3000022    2    5    5    0    0  0.85585678481E+01  0.12236317183E+02 -0.56653611101E+01  0.15972957100E+02  0.25000038274E+00 0.  0.
        -13    1    4    4    0    0 -0.38795362987E+01 -0.27237463582E+01  0.47482900577E+01  0.67102071196E+01  0.10500000000E+00 0.  1.
         13    1    4    4    0    0 -0.21253925444E+01 -0.14685907360E+01  0.24691592559E+01  0.35751677790E+01  0.10500000000E+00 0. -1.
    3000001    1    5    5    0    0  0.16644202696E+02  0.30931401135E+02 -0.30495648646E+02  0.46527042093E+02  0.10000000000E+01 0. -1.
        -13    1    6    6    0    0  0.48137463807E+01  0.69725508368E+01 -0.32577339325E+01  0.90781316781E+01  0.10500000000E+00 0.  1.
         13    1    6    6    0    0  0.37448214674E+01  0.52637663466E+01 -0.24076271776E+01  0.68948254221E+01  0.10500000000E+00 0. -1.
</event>
<event>
11    0  0.3476221E-009  0.9118800E+02  0.7816531E-02  0.1126479E+00
         25   -1    0    0    0    0  0.00000000000E+00  0.00000000000E+00  0.99999998245E-14  0.12500000000E+03  0.12500000000E+03 0.  0.
    3000001    1    3    3    0    0 -0.23233060886E+01  0.24624281824E+01 -0.19199616625E+01  0.40184022348E+01  0.10000000000E+01 0.  1.
    1000022    2    1    0    0    0 -0.95933026900E+01  0.58100892999E+02 -0.18398512960E+02  0.62499995589E+02  0.99999472849E+01 0.  0.
    3000022    2    3    3    0    0 -0.72699966014E+01  0.55638464817E+02 -0.16478551297E+02  0.58481593354E+02  0.24998130917E+00 0.  0.
    1000022    2    1    0    0    0  0.95933026900E+01 -0.58100892999E+02  0.18398512960E+02  0.62500004411E+02  0.10000002422E+02 0.  0.
    3000022    2    5    5    0    0  0.97400224250E+01 -0.34535770430E+02  0.82348301117E+01  0.36816605543E+02  0.25008139730E+00 0.  0.
        -13    1    4    4    0    0 -0.36966224495E+01  0.28188174060E+02 -0.82797798204E+01  0.29610875591E+02  0.10500000000E+00 0. -1.
         13    1    4    4    0    0 -0.35733741519E+01  0.27450290757E+02 -0.81987714768E+01  0.28870717764E+02  0.10500000000E+00 0.  1.
    3000001    1    5    5    0    0 -0.14671973497E+00 -0.23565122569E+02  0.10163682848E+02  0.25683398868E+02  0.10000000000E+01 0. -1.
        -13    1    6    6    0    0  0.62415279461E+01 -0.22150695379E+02  0.52220611421E+01  0.23598536490E+02  0.10500000000E+00 0.  1.
         13    1    6    6    0    0  0.34984944788E+01 -0.12385075051E+02  0.30127689696E+01  0.13218069053E+02  0.10500000000E+00 0. -1.
</event>
<event>
11    0  0.3476221E-009  0.9118800E+02  0.7816531E-02  0.1126479E+00
         25   -1    0    0    0    0  0.00000000000E+00  0.00000000000E+00  0.99999998245E-14  0.12500000000E+03  0.12500000000E+03 0.  0.
    3000001    1    3    3    0    0  0.98009095337E+01 -0.10651163263E+02  0.51436993966E+02  0.53444077827E+02  0.10000000000E+01 0.  1.
    1000022    2    1    0    0    0  0.74918420305E+01 -0.11499876911E+02  0.60148773837E+02  0.62499999463E+02  0.10000003640E+02 0.  0.
    3000022    2    3    3    0    0 -0.23090675032E+01 -0.84871364809E+00  0.87117798705E+01  0.90559216353E+01  0.25000112363E+00 0.  0.
    1000022    2    1    0    0    0 -0.74918420305E+01  0.11499876911E+02 -0.60148773837E+02  0.62500000537E+02  0.10000010356E+02 0.  0.
    3000022    2    5    5    0    0  0.14069231936E+01  0.99992042499E+00 -0.16687642302E+01  0.24138238217E+01  0.24999531387E+00 0.  0.
        -13    1    4    4    0    0 -0.14668840530E+01 -0.60054171930E+00  0.55936503844E+01  0.58148386740E+01  0.10500000000E+00 0. -1.
         13    1    4    4    0    0 -0.84218345016E+00 -0.24817192878E+00  0.31181294861E+01  0.32410829613E+01  0.10500000000E+00 0.  1.
    3000001    1    5    5    0    0 -0.88987652242E+01  0.10499956486E+02 -0.58480009606E+02  0.60086176716E+02  0.10000000000E+01 0. -1.
        -13    1    6    6    0    0  0.10747563450E+01  0.75011160170E+00 -0.12843990317E+01  0.18380626999E+01  0.10500000000E+00 0.  1.
         13    1    6    6    0    0  0.33216684866E+00  0.24980882329E+00 -0.38436519853E+00  0.57576112181E+00  0.10500000000E+00 0. -1.
</event>
<event>
11    0  0.3476221E-009  0.9118800E+02  0.7816531E-02  0.1126479E+00
         25   -1    0    0    0    0  0.00000000000E+00  0.00000000000E+00  0.99999998245E-14  0.12500000000E+03  0.12500000000E+03 0.  0.
    3000001    1    3    3    0    0 -0.87716784548E+01 -0.37596188736E+01 -0.40239652901E+01  0.10405257020E+02  0.10000000000E+01 0.  1.
    1000022    2    1    0    0    0 -0.46073027184E+02 -0.39245465610E+02 -0.11971579267E+02  0.62500007273E+02  0.10000089706E+02 0.  0.
    3000022    2    3    3    0    0 -0.37301348729E+02 -0.35485846737E+02 -0.79476139766E+01  0.52094750254E+02  0.25000083273E+00 0.  0.
    1000022    2    1    0    0    0  0.46073027184E+02  0.39245465610E+02  0.11971579267E+02  0.62499992727E+02  0.99999987904E+01 0.  0.
    3000022    2    5    5    0    0  0.23817208955E+02  0.15260457309E+02  0.87311368611E+01  0.29604665775E+02  0.24997015175E+00 0.  0.
        -13    1    4    4    0    0 -0.22239968708E+02 -0.21136831616E+02 -0.47987151710E+01  0.31055121175E+02  0.10500000000E+00 0.  1.
         13    1    4    4    0    0 -0.15061380022E+02 -0.14349015121E+02 -0.31488988056E+01  0.21039629079E+02  0.10500000000E+00 0. -1.
    3000001    1    5    5    0    0  0.22255818229E+02  0.23985008302E+02  0.32404424056E+01  0.32895326952E+02  0.10000000000E+01 0.  1.
        -13    1    6    6    0    0  0.10787100740E+02  0.68836180620E+01  0.40151400597E+01  0.13411864699E+02  0.10500000000E+00 0. -1.
         13    1    6    6    0    0  0.13030108215E+02  0.83768392467E+01  0.47159968015E+01  0.16192801076E+02  0.10500000000E+00 0.  1.
</event>
<event>
11    0  0.3476221E-009  0.9118800E+02  0.7816531E-02  0.1126479E+00
         25   -1    0    0    0    0  0.00000000000E+00  0.00000000000E+00  0.99999998245E-14  0.12500000000E+03  0.12500000000E+03 0.  0.
    3000001    1    3    3    0    0 -0.57277879489E+02  0.20033137929E+02 -0.10368240648E+02  0.61567706699E+02  0.10000000000E+01 0. -1.
    1000022    2    1    0    0    0 -0.57110894854E+02  0.20528459407E+02 -0.11098624059E+02  0.62500011548E+02  0.10000001542E+02 0.  0.
    3000022    2    3    3    0    0  0.16698463519E+00  0.49532147842E+00 -0.73038341165E+00  0.93230484898E+00  0.25001033590E+00 0.  0.
    1000022    2    1    0    0    0  0.57110894854E+02 -0.20528459407E+02  0.11098624059E+02  0.62499988452E+02  0.99998571898E+01 0.  0.
    3000022    2    5    5    0    0  0.24697456196E+01 -0.12322383327E+01 -0.15550647682E+01  0.31778578567E+01  0.24999877939E+00 0.  0.
        -13    1    4    4    0    0  0.56833057067E-01  0.23656769741E+00 -0.44610490235E+00  0.51887267777E+00  0.10500000000E+00 0. -1.
         13    1    4    4    0    0  0.11015157813E+00  0.25875378101E+00 -0.28427850930E+00  0.41343217122E+00  0.10500000000E+00 0.  1.
    3000001    1    5    5    0    0  0.54641149234E+02 -0.19296221075E+02  0.12653688827E+02  0.59322130595E+02  0.10000000000E+01 0. -1.
        -13    1    6    6    0    0  0.17411521067E+01 -0.89266921474E+00 -0.11431458364E+01  0.22685405856E+01  0.10500000000E+00 0.  1.
         13    1    6    6    0    0  0.72859351298E+00 -0.33956911798E+00 -0.41191893183E+00  0.90931727106E+00  0.10500000000E+00 0. -1.
</event>
<event>
11    0  0.3476221E-009  0.9118800E+02  0.7816531E-02  0.1126479E+00
         25   -1    0    0    0    0  0.00000000000E+00  0.00000000000E+00  0.99999998245E-14  0.12500000000E+03  0.12500000000E+03 0.  0.
    3000001    1    3    3    0    0  0.13300439117E+02  0.49396189160E+02 -0.19537949278E+02  0.54768756113E+02  0.10000000000E+01 0.  1.
    1000022    2    1    0    0    0  0.12500813753E+02  0.55180354340E+02 -0.24598945054E+02  0.62500000933E+02  0.10000008468E+02 0.  0.
    3000022    2    3    3    0    0 -0.79962536331E+00  0.57841651795E+01 -0.50609957763E+01  0.77312448199E+01  0.25000134323E+00 0.  0.
    1000022    2    1    0    0    0 -0.12500813753E+02 -0.55180354340E+02  0.24598945054E+02  0.62499999067E+02  0.99999968005E+01 0.  0.
    3000022    2    5    5    0    0  0.74920948317E+00 -0.13108687635E+02  0.34795280200E+01  0.13585604141E+02  0.25003654320E+00 0.  0.
        -13    1    4    4    0    0 -0.61258728932E+00  0.41692008407E+01 -0.36293584431E+01  0.55624424982E+01  0.10500000000E+00 0.  1.
         13    1    4    4    0    0 -0.18703807399E+00  0.16149643388E+01 -0.14316373332E+01  0.21688023217E+01  0.10500000000E+00 0. -1.
    3000001    1    5    5    0    0 -0.13250023236E+02 -0.42071666704E+02  0.21119417034E+02  0.48914394925E+02  0.10000000000E+01 0.  1.
        -13    1    6    6    0    0  0.42078895442E+00 -0.76068843794E+01  0.20843251504E+01  0.78991891760E+01  0.10500000000E+00 0.  1.
         13    1    6    6    0    0  0.32842052875E+00 -0.55018032560E+01  0.13952028696E+01  0.56864149654E+01  0.10500000000E+00 0. -1.
</event>
<event>
11    0  0.3476221E-009  0.9118800E+02  0.7816531E-02  0.1126479E+00
         25   -1    0    0    0    0  0.00000000000E+00  0.00000000000E+00  0.99999998245E-14  0.12500000000E+03  0.12500000000E+03 0.  0.
    3000001    1    3    3    0    0  0.13788740109E+01  0.69671340346E+00  0.96185638244E+00  0.20765044679E+01  0.10000000000E+01 0. -1.
    1000022    2    1    0    0    0  0.24301588938E+02  0.56292291447E+02  0.68454582588E+01  0.62499996974E+02  0.10000001085E+02 0.  0.
    3000022    2    3    3    0    0  0.22922714927E+02  0.55595578044E+02  0.58836018763E+01  0.60423492506E+02  0.25003591747E+00 0.  0.
    1000022    2    1    0    0    0 -0.24301588938E+02 -0.56292291447E+02 -0.68454582588E+01  0.62500003026E+02  0.10000038913E+02 0.  0.
    3000022    2    5    5    0    0 -0.16382997949E+02 -0.28716773506E+02 -0.69857332444E+01  0.33792287164E+02  0.25000083674E+00 0.  0.
        -13    1    4    4    0    0  0.97285555979E+01  0.23736185821E+02  0.25470891823E+01  0.25778867307E+02  0.10500000000E+00 0.  1.
         13    1    4    4    0    0  0.13194159329E+02  0.31859392223E+02  0.33365126940E+01  0.34644625199E+02  0.10500000000E+00 0. -1.
    3000001    1    5    5    0    0 -0.79185909891E+01 -0.27575517941E+02  0.14027498563E+00  0.28707715863E+02  0.10000000000E+01 0. -1.
        -13    1    6    6    0    0 -0.65711809591E+01 -0.11524718338E+02 -0.27387067634E+01  0.13546626581E+02  0.10500000000E+00 0.  1.
         13    1    6    6    0    0 -0.98118169895E+01 -0.17192055167E+02 -0.42470264810E+01  0.20245660583E+02  0.10500000000E+00 0. -1.
</event>
<event>
11    0  0.3476221E-009  0.9118800E+02  0.7816531E-02  0.1126479E+00
         25   -1    0    0    0    0  0.00000000000E+00  0.00000000000E+00  0.99999998245E-14  0.12500000000E+03  0.12500000000E+03 0.  0.
    3000001    1    3    3    0    0 -0.86282976534E+00 -0.23460820756E+01  0.36785275388E+01  0.45585240115E+01  0.10000000000E+01 0.  1.
    1000022    2    1    0    0    0  0.34138234445E+01 -0.49040735306E+01  0.61404771288E+02  0.62500001377E+02  0.10000005372E+02 0.  0.
    3000022    2    3    3    0    0  0.42766532098E+01 -0.25579914549E+01  0.57726243749E+02  0.57941477365E+02  0.24999780613E+00 0.  0.
    1000022    2    1    0    0    0 -0.34138234445E+01  0.49040735306E+01 -0.61404771288E+02  0.62499998623E+02  0.99999881610E+01 0.  0.
    3000022    2    5    5    0    0 -0.63397206704E+01  0.55682136020E+01 -0.47009900920E+02  0.47761808451E+02  0.25000233375E+00 0.  0.
        -13    1    4    4    0    0  0.27404638330E+01 -0.16604336371E+01  0.37731740001E+02  0.37867696132E+02  0.10500000000E+00 0.  1.
         13    1    4    4    0    0  0.15361893768E+01 -0.89755781781E+00  0.19994503748E+02  0.20073781233E+02  0.10500000000E+00 0. -1.
    3000001    1    5    5    0    0  0.29258972259E+01 -0.66414007146E+00 -0.14394870369E+02  0.14738190172E+02  0.10000000000E+01 0. -1.
        -13    1    6    6    0    0 -0.39269743385E+01  0.34503472261E+01 -0.29463268780E+02  0.29923590287E+02  0.10500000000E+00 0. -1.
         13    1    6    6    0    0 -0.24127463319E+01  0.21178663759E+01 -0.17546632140E+02  0.17838218165E+02  0.10500000000E+00 0.  1.
</event>
<event>
11    0  0.3476221E-009  0.9118800E+02  0.7816531E-02  0.1126479E+00
         25   -1    0    0    0    0  0.00000000000E+00  0.00000000000E+00  0.99999998245E-14  0.12500000000E+03  0.12500000000E+03 0.  0.
    3000001    1    3    3    0    0  0.30139405295E+02 -0.10507950650E+02  0.18719533483E+02  0.37016505943E+02  0.10000000000E+01 0.  1.
    1000022    2    1    0    0    0  0.54022570999E+02 -0.11304098038E+02  0.27568628825E+02  0.62499999491E+02  0.99999915655E+01 0.  0.
    3000022    2    3    3    0    0  0.23883165703E+02 -0.79614738859E+00  0.88490953428E+01  0.25483493548E+02  0.25000071625E+00 0.  0.
    1000022    2    1    0    0    0 -0.54022570999E+02  0.11304098038E+02 -0.27568628825E+02  0.62500000509E+02  0.99999979269E+01 0.  0.
    3000022    2    5    5    0    0  0.15358547030E+00 -0.50536155796E+00 -0.39306543075E-01  0.58568188206E+00  0.24999892338E+00 0.  0.
        -13    1    4    4    0    0  0.88102268816E+01 -0.34789938856E+00  0.32910630767E+01  0.94118676608E+01  0.10500000000E+00 0. -1.
         13    1    4    4    0    0  0.15072938822E+02 -0.44824800004E+00  0.55580322660E+01  0.16071625887E+02  0.10500000000E+00 0.  1.
    3000001    1    5    5    0    0 -0.54176156469E+02  0.11809459596E+02 -0.27529322282E+02  0.61914318627E+02  0.10000000000E+01 0.  1.
        -13    1    6    6    0    0  0.11139648564E+00 -0.39083222639E+00  0.86323254121E-03  0.41974367341E+00  0.10500000000E+00 0. -1.
         13    1    6    6    0    0  0.42188984663E-01 -0.11452933157E+00 -0.40169775617E-01  0.16593820865E+00  0.10500000000E+00 0.  1.
</event>
<event>
11    0  0.3476221E-009  0.9118800E+02  0.7816531E-02  0.1126479E+00
         25   -1    0    0    0    0  0.00000000000E+00  0.00000000000E+00  0.99999998245E-14  0.12500000000E+03  0.12500000000E+03 0.  0.
    3000001    1    3    3    0    0  0.11805333804E+02 -0.17281994308E+02  0.70485668763E+01  0.22106911328E+02  0.10000000000E+01 0. -1.
    1000022    2    1    0    0    0  0.43037022921E+02 -0.41968644346E+02  0.13881563078E+02  0.62499997772E+02  0.99999738910E+01 0.  0.
    3000022    2    3    3    0    0  0.31231689118E+02 -0.24686650039E+02  0.68329962016E+01  0.40393086444E+02  0.25000018152E+00 0.  0.
    1000022    2    1    0    0    0 -0.43037022921E+02  0.41968644346E+02 -0.13881563078E+02  0.62500002228E+02  0.10000001741E+02 0.  0.
    3000022    2    5    5    0    0 -0.10764645179E+02  0.16851738381E+02 -0.35787382717E+01  0.20315721632E+02  0.25001103352E+00 0.  0.
        -13    1    4    4    0    0  0.23157137280E+02 -0.18331226795E+02  0.50917946905E+01  0.29970390071E+02  0.10500000000E+00 0.  1.
         13    1    4    4    0    0  0.80745518374E+01 -0.63554232431E+01  0.17412015111E+01  0.10422696373E+02  0.10500000000E+00 0. -1.
    3000001    1    5    5    0    0 -0.32272377743E+02  0.25116905965E+02 -0.10302824806E+02  0.42184280596E+02  0.10000000000E+01 0.  1.
        -13    1    6    6    0    0 -0.51519847723E+01  0.81801983255E+01 -0.17580897147E+01  0.98265200444E+01  0.10500000000E+00 0.  1.
         13    1    6    6    0    0 -0.56126604063E+01  0.86715400558E+01 -0.18206485570E+01  0.10489201588E+02  0.10500000000E+00 0. -1.
</event>
<event>
11    0  0.3476221E-009  0.9118800E+02  0.7816531E-02  0.1126479E+00
         25   -1    0    0    0    0  0.00000000000E+00  0.00000000000E+00  0.99999998245E-14  0.12500000000E+03  0.12500000000E+03 0.  0.
    3000001    1    3    3    0    0  0.26156524194E+01  0.15787388024E+02 -0.31627555644E+02  0.35459632460E+02  0.10000000000E+01 0. -1.
    1000022    2    1    0    0    0 -0.38871212995E+01  0.26215221692E+02 -0.55712678471E+02  0.62499998799E+02  0.99999873538E+01 0.  0.
    3000022    2    3    3    0    0 -0.65027737189E+01  0.10427833669E+02 -0.24085122827E+02  0.27040366339E+02  0.24997817264E+00 0.  0.
    1000022    2    1    0    0    0  0.38871212995E+01 -0.26215221692E+02  0.55712678471E+02  0.62500001201E+02  0.10000002369E+02 0.  0.
    3000022    2    5    5    0    0 -0.22964893647E+01 -0.17104444005E+02  0.34750210480E+02  0.38800457425E+02  0.24999980368E+00 0.  0.
        -13    1    4    4    0    0 -0.43044641758E+01  0.69945136814E+01 -0.16046694714E+02  0.18026621140E+02  0.10500000000E+00 0. -1.
         13    1    4    4    0    0 -0.21983095430E+01  0.34333199873E+01 -0.80384281131E+01  0.90137451990E+01  0.10500000000E+00 0.  1.
    3000001    1    5    5    0    0  0.61836106641E+01 -0.91107776876E+01  0.20962467991E+02  0.23699543776E+02  0.10000000000E+01 0. -1.
        -13    1    6    6    0    0 -0.10150094578E+01 -0.75551304931E+01  0.15201060081E+02  0.17005690035E+02  0.10500000000E+00 0. -1.
         13    1    6    6    0    0 -0.12814799069E+01 -0.95493135116E+01  0.19549150399E+02  0.21794767391E+02  0.10500000000E+00 0.  1.
</event>
<event>
11    0  0.3476221E-009  0.9118800E+02  0.7816531E-02  0.1126479E+00
         25   -1    0    0    0    0  0.00000000000E+00  0.00000000000E+00  0.99999998245E-14  0.12500000000E+03  0.12500000000E+03 0.  0.
    3000001    1    3    3    0    0 -0.30249219602E+02  0.14262656405E+02 -0.47362071679E+02  0.57987968476E+02  0.10000000000E+01 0. -1.
    1000022    2    1    0    0    0 -0.31842694193E+02  0.17709420859E+02 -0.49786238364E+02  0.62500000467E+02  0.99999883650E+01 0.  0.
    3000022    2    3    3    0    0 -0.15934745918E+01  0.34467644540E+01 -0.24241666848E+01  0.45120319911E+01  0.25000419387E+00 0.  0.
    1000022    2    1    0    0    0  0.31842694193E+02 -0.17709420859E+02  0.49786238364E+02  0.62499999533E+02  0.99999825274E+01 0.  0.
    3000022    2    5    5    0    0  0.98667921669E+01 -0.14041154742E+01  0.17730874324E+02  0.20341375062E+02  0.25001436723E+00 0.  0.
        -13    1    4    4    0    0 -0.69654197757E+00  0.15506800212E+01 -0.11615282351E+01  0.20615411942E+01  0.10500000000E+00 0. -1.
         13    1    4    4    0    0 -0.89693261423E+00  0.18960844328E+01 -0.12626384497E+01  0.24504907969E+01  0.10500000000E+00 0.  1.
    3000001    1    5    5    0    0  0.21975902027E+02 -0.16305305385E+02  0.32055364040E+02  0.42158624471E+02  0.10000000000E+01 0. -1.
        -13    1    6    6    0    0  0.28330661948E+01 -0.36685354810E+00  0.51283735919E+01  0.58712934085E+01  0.10500000000E+00 0.  1.
         13    1    6    6    0    0  0.70337259721E+01 -0.10372619261E+01  0.12602500732E+02  0.14470081654E+02  0.10500000000E+00 0. -1.
</event>
<event>
11    0  0.3476221E-009  0.9118800E+02  0.7816531E-02  0.1126479E+00
         25   -1    0    0    0    0  0.00000000000E+00  0.00000000000E+00  0.99999998245E-14  0.12500000000E+03  0.12500000000E+03 0.  0.
    3000001    1    3    3    0    0 -0.29761596424E+02  0.50252101320E+02  0.91442544030E+00  0.58419709711E+02  0.10000000000E+01 0. -1.
    1000022    2    1    0    0    0 -0.29707910524E+02  0.54068793476E+02 -0.50551830097E+00  0.62499999104E+02  0.99999981806E+01 0.  0.
    3000022    2    3    3    0    0  0.53685900770E-01  0.38166921564E+01 -0.14199437413E+01  0.40802893935E+01  0.25000022795E+00 0.  0.
    1000022    2    1    0    0    0  0.29707910524E+02 -0.54068793476E+02  0.50551830097E+00  0.62500000896E+02  0.10000009377E+02 0.  0.
    3000022    2    5    5    0    0  0.19107530803E+02 -0.43070103305E+02  0.16619887924E+01  0.47148236837E+02  0.24999608465E+00 0.  0.
        -13    1    4    4    0    0  0.26820440186E-01  0.29169935810E+01 -0.10757458428E+01  0.31109202828E+01  0.10500000000E+00 0. -1.
         13    1    4    4    0    0  0.26865460584E-01  0.89969857539E+00 -0.34419789847E+00  0.96936911073E+00  0.10500000000E+00 0.  1.
    3000001    1    5    5    0    0  0.10600379720E+02 -0.10998690171E+02 -0.11564704914E+01  0.15351764058E+02  0.10000000000E+01 0.  1.
        -13    1    6    6    0    0  0.84302149140E+01 -0.18938223066E+02  0.79202637688E+00  0.20745195762E+02  0.10500000000E+00 0. -1.
         13    1    6    6    0    0  0.10677315889E+02 -0.24131880239E+02  0.86996241549E+00  0.26403041076E+02  0.10500000000E+00 0.  1.
</event>
<event>
11    0  0.3476221E-009  0.9118800E+02  0.7816531E-02  0.1126479E+00
         25   -1    0    0    0    0  0.00000000000E+00  0.00000000000E+00  0.99999998245E-14  0.12500000000E+03  0.12500000000E+03 0.  0.
    3000001    1    3    3    0    0 -0.49077455880E+02  0.27458222818E+02 -0.33171151850E+01  0.56343179970E+02  0.10000000000E+01 0. -1.
    1000022    2    1    0    0    0 -0.52709027116E+02  0.32032617739E+02 -0.13856549470E+01  0.62500000195E+02  0.99999923008E+01 0.  0.
    3000022    2    3    3    0    0 -0.36315712365E+01  0.45743949213E+01  0.19314602380E+01  0.61568202257E+01  0.24999619611E+00 0.  0.
    1000022    2    1    0    0    0  0.52709027116E+02 -0.32032617739E+02  0.13856549470E+01  0.62499999805E+02  0.99999898589E+01 0.  0.
    3000022    2    5    5    0    0  0.37661836718E+02 -0.25780808965E+02 -0.25324120256E+01  0.45711482877E+02  0.25000054257E+00 0.  0.
        -13    1    4    4    0    0 -0.15535344495E+01  0.20221304734E+01  0.89811729653E+00  0.27055721420E+01  0.10500000000E+00 0. -1.
         13    1    4    4    0    0 -0.20780367870E+01  0.25522644480E+01  0.10333429415E+01  0.34512480837E+01  0.10500000000E+00 0.  1.
    3000001    1    5    5    0    0  0.15047190399E+02 -0.62518087740E+01  0.39180669726E+01  0.16788516928E+02  0.10000000000E+01 0.  1.
        -13    1    6    6    0    0  0.27588508842E+02 -0.18915657350E+02 -0.18318641904E+01  0.33500666628E+02  0.10500000000E+00 0. -1.
         13    1    6    6    0    0  0.10073327876E+02 -0.68651516152E+01 -0.70054783519E+00  0.12210816249E+02  0.10500000000E+00 0.  1.
</event>
<event>
11    0  0.3476221E-009  0.9118800E+02  0.7816531E-02  0.1126479E+00
         25   -1    0    0    0    0  0.00000000000E+00  0.00000000000E+00  0.99999998245E-14  0.12500000000E+03  0.12500000000E+03 0.  0.
    3000001    1    3    3    0    0 -0.95404139158E+01  0.14903517084E+02  0.60502242036E+01  0.18728041330E+02  0.10000000000E+01 0. -1.
    1000022    2    1    0    0    0 -0.37058253305E+02  0.48942975179E+02  0.61254369608E+01  0.62499999777E+02  0.10000001836E+02 0.  0.
    3000022    2    3    3    0    0 -0.27517839390E+02  0.34039458095E+02  0.75212757135E-01  0.43771958447E+02  0.24999441007E+00 0.  0.
    1000022    2    1    0    0    0  0.37058253305E+02 -0.48942975179E+02 -0.61254369608E+01  0.62500000223E+02  0.10000004625E+02 0.  0.
    3000022    2    5    5    0    0  0.34703125068E+02 -0.47302973230E+02 -0.40255846503E+01  0.58806003048E+02  0.24999356559E+00 0.  0.
        -13    1    4    4    0    0 -0.18845826694E+02  0.23381029086E+02  0.75342719953E-01  0.30030890870E+02  0.10500000000E+00 0. -1.
         13    1    4    4    0    0 -0.86720126953E+01  0.10658429010E+02 -0.12996281736E-03  0.13741067577E+02  0.10500000000E+00 0.  1.
    3000001    1    5    5    0    0  0.23551282370E+01 -0.16400019495E+01 -0.20998523105E+01  0.36939971755E+01  0.10000000000E+01 0.  1.
        -13    1    6    6    0    0  0.19816873990E+02 -0.27110057130E+02 -0.22741262452E+01  0.33657783163E+02  0.10500000000E+00 0.  1.
         13    1    6    6    0    0  0.14886251079E+02 -0.20192916100E+02 -0.17514584051E+01  0.25148219884E+02  0.10500000000E+00 0. -1.
</event>
<event>
11    0  0.3476221E-009  0.9118800E+02  0.7816531E-02  0.1126479E+00
         25   -1    0    0    0    0  0.00000000000E+00  0.00000000000E+00  0.99999998245E-14  0.12500000000E+03  0.12500000000E+03 0.  0.
    3000001    1    3    3    0    0  0.28527133261E+02 -0.81845598431E+01 -0.27649000226E+02  0.40574025748E+02  0.10000000000E+01 0.  1.
    1000022    2    1    0    0    0  0.47138968233E+02 -0.70169385822E+01 -0.39178185790E+02  0.62500000347E+02  0.10000002424E+02 0.  0.
    3000022    2    3    3    0    0  0.18611834972E+02  0.11676212610E+01 -0.11529185564E+02  0.21925974599E+02  0.25000383155E+00 0.  0.
    1000022    2    1    0    0    0 -0.47138968233E+02  0.70169385822E+01  0.39178185790E+02  0.62499999653E+02  0.99999980886E+01 0.  0.
    3000022    2    5    5    0    0 -0.26854191209E+02  0.89071440698E+01  0.22320399263E+02  0.36038139887E+02  0.25000462703E+00 0.  0.
        -13    1    4    4    0    0  0.45250197395E+01  0.29735362271E+00 -0.27838138977E+01  0.53221112011E+01  0.10500000000E+00 0. -1.
         13    1    4    4    0    0  0.14086815232E+02  0.87026763826E+00 -0.87453716659E+01  0.16603863398E+02  0.10500000000E+00 0.  1.
    3000001    1    5    5    0    0 -0.20284777024E+02 -0.18902054876E+01  0.16857786527E+02  0.26461859766E+02  0.10000000000E+01 0.  1.
        -13    1    6    6    0    0 -0.12519131218E+02  0.41577593124E+01  0.10321436094E+02  0.16749885880E+02  0.10500000000E+00 0. -1.
         13    1    6    6    0    0 -0.14335059991E+02  0.47493847574E+01  0.11998963168E+02  0.19288254007E+02  0.10500000000E+00 0.  1.
</event>
<event>
11    0  0.3476221E-009  0.9118800E+02  0.7816531E-02  0.1126479E+00
         25   -1    0    0    0    0  0.00000000000E+00  0.00000000000E+00  0.99999998245E-14  0.12500000000E+03  0.12500000000E+03 0.  0.
    3000001    1    3    3    0    0  0.10962251825E+02  0.22047364362E+02  0.58286848999E+00  0.24649482267E+02  0.10000000000E+01 0.  1.
    1000022    2    1    0    0    0  0.37395237516E+02  0.49039528718E+02 -0.17234877806E+01  0.62499997003E+02  0.10000002472E+02 0.  0.
    3000022    2    3    3    0    0  0.26432985692E+02  0.26992164356E+02 -0.23063562706E+01  0.37850514736E+02  0.25003458158E+00 0.  0.
    1000022    2    1    0    0    0 -0.37395237516E+02 -0.49039528718E+02  0.17234877806E+01  0.62500002997E+02  0.10000039938E+02 0.  0.
    3000022    2    5    5    0    0 -0.50402819792E+01 -0.38326035672E+01  0.27048695282E+01  0.68900008437E+01  0.24999985802E+00 0.  0.
        -13    1    4    4    0    0  0.11343947129E+02  0.11511195720E+02 -0.94545438464E+00  0.16189430885E+02  0.10500000000E+00 0. -1.
         13    1    4    4    0    0  0.15089038563E+02  0.15480968636E+02 -0.13609018859E+01  0.21661083851E+02  0.10500000000E+00 0.  1.
    3000001    1    5    5    0    0 -0.32354955537E+02 -0.45206925150E+02 -0.98138174760E+00  0.55610002154E+02  0.10000000000E+01 0. -1.
        -13    1    6    6    0    0 -0.26074520718E+01 -0.18993796194E+01  0.13929477927E+01  0.35153631105E+01  0.10500000000E+00 0. -1.
         13    1    6    6    0    0 -0.24328299074E+01 -0.19332239478E+01  0.13119217354E+01  0.33746377332E+01  0.10500000000E+00 0.  1.
</event>
<event>
11    0  0.3476221E-009  0.9118800E+02  0.7816531E-02  0.1126479E+00
         25   -1    0    0    0    0  0.00000000000E+00  0.00000000000E+00  0.99999998245E-14  0.12500000000E+03  0.12500000000E+03 0.  0.
    3000001    1    3    3    0    0 -0.51263645644E+01 -0.20047864624E+01  0.10701204455E+02  0.12075369940E+02  0.10000000000E+01 0. -1.
    1000022    2    1    0    0    0 -0.18012008398E+02 -0.28014465090E+02  0.51932732279E+02  0.62500012616E+02  0.10000009710E+02 0.  0.
    3000022    2    3    3    0    0 -0.12885643833E+02 -0.26009678627E+02  0.41231527825E+02  0.50424642676E+02  0.25000585503E+00 0.  0.
    1000022    2    1    0    0    0  0.18012008398E+02  0.28014465090E+02 -0.51932732279E+02  0.62499987384E+02  0.99998520100E+01 0.  0.
    3000022    2    5    5    0    0  0.68509283453E+01  0.15250631389E+02 -0.18087754787E+02  0.24632221935E+02  0.25001450108E+00 0.  0.
        -13    1    4    4    0    0 -0.30706706347E+01 -0.62244220986E+01  0.98345504945E+01  0.12037518724E+02  0.10500000000E+00 0.  1.
         13    1    4    4    0    0 -0.98149731986E+01 -0.19785256529E+02  0.31396977330E+02  0.38387123951E+02  0.10500000000E+00 0. -1.
    3000001    1    5    5    0    0  0.11161080052E+02  0.12763833701E+02 -0.33844977492E+02  0.37867765450E+02  0.10000000000E+01 0.  1.
        -13    1    6    6    0    0  0.17078314996E+01  0.38231606340E+01 -0.45682083922E+01  0.61978059488E+01  0.10500000000E+00 0. -1.
         13    1    6    6    0    0  0.51430968457E+01  0.11427470755E+02 -0.13519546395E+02  0.18434415986E+02  0.10500000000E+00 0.  1.
</event>
<event>
11    0  0.3476221E-009  0.9118800E+02  0.7816531E-02  0.1126479E+00
         25   -1    0    0    0    0  0.00000000000E+00  0.00000000000E+00  0.99999998245E-14  0.12500000000E+03  0.12500000000E+03 0.  0.
    3000001    1    3    3    0    0  0.44954517462E+02  0.13850801007E+02  0.79007045151E-01  0.47050606487E+02  0.10000000000E+01 0.  1.
    1000022    2    1    0    0    0  0.57633109226E+02  0.21586028007E+02  0.43264643199E+01  0.62500002071E+02  0.10000004057E+02 0.  0.
    3000022    2    3    3    0    0  0.12678591765E+02  0.77352270007E+01  0.42474572747E+01  0.15449395583E+02  0.25000941147E+00 0.  0.
    1000022    2    1    0    0    0 -0.57633109226E+02 -0.21586028007E+02 -0.43264643199E+01  0.62499997929E+02  0.99999781703E+01 0.  0.
    3000022    2    5    5    0    0 -0.19096056274E+02 -0.11551374580E+02  0.81885729733E+00  0.22334427421E+02  0.25000213357E+00 0.  0.
        -13    1    4    4    0    0  0.69789133535E+01  0.42315474607E+01  0.22687126852E+01  0.84716767972E+01  0.10500000000E+00 0. -1.
         13    1    4    4    0    0  0.56996784111E+01  0.35036795400E+01  0.19787445895E+01  0.69777187862E+01  0.10500000000E+00 0.  1.
    3000001    1    5    5    0    0 -0.38537052952E+02 -0.10034653427E+02 -0.51453216172E+01  0.40165570508E+02  0.10000000000E+01 0.  1.
        -13    1    6    6    0    0 -0.12511380439E+02 -0.76106220454E+01  0.57928753568E+00  0.14656152546E+02  0.10500000000E+00 0. -1.
         13    1    6    6    0    0 -0.65846758349E+01 -0.39407525347E+01  0.23956976166E+00  0.76782748754E+01  0.10500000000E+00 0.  1.
</event>
<event>
11    0  0.3476221E-009  0.9118800E+02  0.7816531E-02  0.1126479E+00
         25   -1    0    0    0    0  0.00000000000E+00  0.00000000000E+00  0.99999998245E-14  0.12500000000E+03  0.12500000000E+03 0.  0.
    3000001    1    3    3    0    0  0.18828926499E+02 -0.87547192740E+01 -0.52670249601E+01  0.21445632063E+02  0.10000000000E+01 0. -1.
    1000022    2    1    0    0    0  0.59276279327E+02 -0.15508741058E+02 -0.72146824466E+01  0.62499998851E+02  0.99999936758E+01 0.  0.
    3000022    2    3    3    0    0  0.40447352828E+02 -0.67540217842E+01 -0.19476574864E+01  0.41054366788E+02  0.25000317692E+00 0.  0.
    1000022    2    1    0    0    0 -0.59276279327E+02  0.15508741058E+02  0.72146824466E+01  0.62500001149E+02  0.10000008039E+02 0.  0.
    3000022    2    5    5    0    0 -0.15790573729E+02  0.58488101434E+00  0.45101707429E+01  0.16434367826E+02  0.25000240123E+00 0.  0.
        -13    1    4    4    0    0  0.28463430260E+02 -0.47848158147E+01 -0.13389673774E+01  0.28894033695E+02  0.10500000000E+00 0. -1.
         13    1    4    4    0    0  0.11983922568E+02 -0.19692059695E+01 -0.60869010902E+00  0.12160333093E+02  0.10500000000E+00 0.  1.
    3000001    1    5    5    0    0 -0.43485705597E+02  0.14923860044E+02  0.27045117036E+01  0.46065633323E+02  0.10000000000E+01 0.  1.
        -13    1    6    6    0    0 -0.10193718339E+02  0.40038807010E+00  0.28570591595E+01  0.10594622042E+02  0.10500000000E+00 0. -1.
         13    1    6    6    0    0 -0.55968553907E+01  0.18449294424E+00  0.16531115835E+01  0.58397457837E+01  0.10500000000E+00 0.  1.
</event>
<event>
11    0  0.3476221E-009  0.9118800E+02  0.7816531E-02  0.1126479E+00
         25   -1    0    0    0    0  0.00000000000E+00  0.00000000000E+00  0.99999998245E-14  0.12500000000E+03  0.12500000000E+03 0.  0.
    3000001    1    3    3    0    0  0.47978073429E+01 -0.18063447935E+02  0.14363410983E+02  0.23592682799E+02  0.10000000000E+01 0.  1.
    1000022    2    1    0    0    0  0.77562382454E+01 -0.39811824252E+02  0.46487737664E+02  0.62499996590E+02  0.99999619332E+01 0.  0.
    3000022    2    3    3    0    0  0.29584309024E+01 -0.21748376317E+02  0.32124326681E+02  0.38907313791E+02  0.25003175366E+00 0.  0.
    1000022    2    1    0    0    0 -0.77562382454E+01  0.39811824252E+02 -0.46487737664E+02  0.62500003410E+02  0.10000004556E+02 0.  0.
    3000022    2    5    5    0    0 -0.39887243933E+01  0.35335911153E+02 -0.37078904572E+02  0.51375521451E+02  0.25000163660E+00 0.  0.
        -13    1    4    4    0    0  0.19262883905E+01 -0.13819586599E+02  0.20356540941E+02  0.24679776029E+02  0.10500000000E+00 0.  1.
         13    1    4    4    0    0  0.10321425119E+01 -0.79287897172E+01  0.11767785740E+02  0.14227537762E+02  0.10500000000E+00 0. -1.
    3000001    1    5    5    0    0 -0.37675138521E+01  0.44759130989E+01 -0.94088330920E+01  0.11124481959E+02  0.10000000000E+01 0.  1.
        -13    1    6    6    0    0 -0.15870913066E+01  0.14029929358E+02 -0.14632032225E+02  0.20333842938E+02  0.10500000000E+00 0.  1.
         13    1    6    6    0    0 -0.24016330867E+01  0.21305981795E+02 -0.22446872347E+02  0.31041678513E+02  0.10500000000E+00 0. -1.
</event>
<event>
11    0  0.3476221E-009  0.9118800E+02  0.7816531E-02  0.1126479E+00
         25   -1    0    0    0    0  0.00000000000E+00  0.00000000000E+00  0.99999998245E-14  0.12500000000E+03  0.12500000000E+03 0.  0.
    3000001    1    3    3    0    0  0.84070823626E+01  0.15033492121E+02  0.25221442014E+02  0.30558240402E+02  0.10000000000E+01 0. -1.
    1000022    2    1    0    0    0  0.71569837581E+01  0.31320078172E+02  0.52669542839E+02  0.62500005684E+02  0.10000012721E+02 0.  0.
    3000022    2    3    3    0    0 -0.12500986045E+01  0.16286586052E+02  0.27448100825E+02  0.31941765282E+02  0.24999741820E+00 0.  0.
    1000022    2    1    0    0    0 -0.71569837581E+01 -0.31320078172E+02 -0.52669542839E+02  0.62499994316E+02  0.99999416723E+01 0.  0.
    3000022    2    5    5    0    0 -0.49450407067E+01 -0.29058134128E+02 -0.41892521509E+02  0.51223768366E+02  0.25000143156E+00 0.  0.
        -13    1    4    4    0    0 -0.82952982034E+00  0.10067796435E+02  0.17018585057E+02  0.19791207823E+02  0.10500000000E+00 0. -1.
         13    1    4    4    0    0 -0.42056878415E+00  0.62187896168E+01  0.10429515768E+02  0.12150557459E+02  0.10500000000E+00 0.  1.
    3000001    1    5    5    0    0 -0.22119430514E+01 -0.22619440445E+01 -0.10777021330E+02  0.11276225950E+02  0.10000000000E+01 0.  1.
        -13    1    6    6    0    0 -0.20383961027E+01 -0.12305901055E+02 -0.17788450415E+02  0.21726257216E+02  0.10500000000E+00 0. -1.
         13    1    6    6    0    0 -0.29066446040E+01 -0.16752233073E+02 -0.24104071094E+02  0.29497511151E+02  0.10500000000E+00 0.  1.
</event>
<event>
11    0  0.3476221E-009  0.9118800E+02  0.7816531E-02  0.1126479E+00
         25   -1    0    0    0    0  0.00000000000E+00  0.00000000000E+00  0.99999998245E-14  0.12500000000E+03  0.12500000000E+03 0.  0.
    3000001    1    3    3    0    0  0.77123932959E+01 -0.10162205204E+02 -0.25557891892E+02  0.28582464256E+02  0.10000000000E+01 0. -1.
    1000022    2    1    0    0    0  0.16653294654E+02 -0.11716027564E+02 -0.58237895478E+02  0.62499999745E+02  0.99999986844E+01 0.  0.
    3000022    2    3    3    0    0  0.89409013577E+01 -0.15538223598E+01 -0.32680003586E+02  0.33917535489E+02  0.24999652504E+00 0.  0.
    1000022    2    1    0    0    0 -0.16653294654E+02  0.11716027564E+02  0.58237895478E+02  0.62500000255E+02  0.10000001873E+02 0.  0.
    3000022    2    5    5    0    0 -0.98452966074E+01  0.31898847061E+01  0.39105057629E+02  0.40452110705E+02  0.24999725978E+00 0.  0.
        -13    1    4    4    0    0  0.42799869544E+01 -0.67708032222E+00 -0.15661770958E+02  0.16250502166E+02  0.10500000000E+00 0.  1.
         13    1    4    4    0    0  0.46609144034E+01 -0.87674203760E+00 -0.17018232628E+02  0.17667033324E+02  0.10500000000E+00 0. -1.
    3000001    1    5    5    0    0 -0.68079980462E+01  0.85261428577E+01  0.19132837849E+02  0.22047889550E+02  0.10000000000E+01 0.  1.
        -13    1    6    6    0    0 -0.75885629656E+01  0.24538292767E+01  0.30136590733E+02  0.31174231217E+02  0.10500000000E+00 0.  1.
         13    1    6    6    0    0 -0.22567336419E+01  0.73605542936E+00  0.89684668962E+01  0.92778794880E+01  0.10500000000E+00 0. -1.
</event>
<event>
11    0  0.3476221E-009  0.9118800E+02  0.7816531E-02  0.1126479E+00
         25   -1    0    0    0    0  0.00000000000E+00  0.00000000000E+00  0.99999998245E-14  0.12500000000E+03  0.12500000000E+03 0.  0.
    3000001    1    3    3    0    0  0.34000831345E+02  0.32371624642E+02  0.44569585827E+00  0.46959314932E+02  0.10000000000E+01 0.  1.
    1000022    2    1    0    0    0  0.46371360114E+02  0.40325108392E+02  0.54619178932E+01  0.62499999490E+02  0.99999991739E+01 0.  0.
    3000022    2    3    3    0    0  0.12370528769E+02  0.79534837499E+01  0.50162220349E+01  0.15540684557E+02  0.25001443744E+00 0.  0.
    1000022    2    1    0    0    0 -0.46371360114E+02 -0.40325108392E+02 -0.54619178932E+01  0.62500000510E+02  0.10000005555E+02 0.  0.
    3000022    2    5    5    0    0  0.28456906316E+00 -0.38037043631E+00  0.56261143268E+00  0.77761582445E+00  0.24998705112E+00 0.  0.
        -13    1    4    4    0    0  0.73011246661E+01  0.46384006804E+01  0.29964171653E+01  0.91548196646E+01  0.10500000000E+00 0.  1.
         13    1    4    4    0    0  0.50694041029E+01  0.33150830695E+01  0.20198048696E+01  0.63858648926E+01  0.10500000000E+00 0. -1.
    3000001    1    5    5    0    0 -0.46655929177E+02 -0.39944737955E+02 -0.60245293259E+01  0.61722384686E+02  0.10000000000E+01 0.  1.
        -13    1    6    6    0    0  0.52701841711E-01 -0.13133625318E+00  0.23509924448E+00  0.29380835637E+00  0.10500000000E+00 0.  1.
         13    1    6    6    0    0  0.23186722145E+00 -0.24903418313E+00  0.32751218820E+00  0.48380746808E+00  0.10500000000E+00 0. -1.
</event>
<event>
11    0  0.3476221E-009  0.9118800E+02  0.7816531E-02  0.1126479E+00
         25   -1    0    0    0    0  0.00000000000E+00  0.00000000000E+00  0.99999998245E-14  0.12500000000E+03  0.12500000000E+03 0.  0.
    3000001    1    3    3    0    0 -0.61111200139E+01 -0.23468175537E+02  0.26485737201E+02  0.35924856658E+02  0.10000000000E+01 0. -1.
    1000022    2    1    0    0    0 -0.11012824549E+02 -0.33593979689E+02  0.50560971345E+02  0.62499995684E+02  0.99999930673E+01 0.  0.
    3000022    2    3    3    0    0 -0.49017045348E+01 -0.10125804152E+02  0.24075234144E+02  0.26575139026E+02  0.24999619564E+00 0.  0.
    1000022    2    1    0    0    0  0.11012824549E+02  0.33593979689E+02 -0.50560971345E+02  0.62500004316E+02  0.10000047012E+02 0.  0.
    3000022    2    5    5    0    0  0.80944338112E+01  0.31891089242E+02 -0.47768572359E+02  0.58003969121E+02  0.24999377016E+00 0.  0.
        -13    1    4    4    0    0 -0.13614672140E+01 -0.27358909586E+01  0.65778269246E+01  0.72537937910E+01  0.10500000000E+00 0.  1.
         13    1    4    4    0    0 -0.35402373208E+01 -0.73899131937E+01  0.17497407219E+02  0.19321345235E+02  0.10500000000E+00 0. -1.
    3000001    1    5    5    0    0  0.29183907374E+01  0.17028904475E+01 -0.27923989856E+01  0.44960351942E+01  0.10000000000E+01 0. -1.
        -13    1    6    6    0    0  0.29492831108E+01  0.11847964430E+02 -0.17690625109E+02  0.21495156984E+02  0.10500000000E+00 0.  1.
         13    1    6    6    0    0  0.51451507005E+01  0.20043124812E+02 -0.30077947250E+02  0.36508812138E+02  0.10500000000E+00 0. -1.
</event>
<event>
11    0  0.3476221E-009  0.9118800E+02  0.7816531E-02  0.1126479E+00
         25   -1    0    0    0    0  0.00000000000E+00  0.00000000000E+00  0.99999998245E-14  0.12500000000E+03  0.12500000000E+03 0.  0.
    3000001    1    3    3    0    0  0.12507171919E+02  0.50825327219E+02 -0.10106002801E+01  0.52360906688E+02  0.10000000000E+01 0. -1.
    1000022    2    1    0    0    0  0.12432710211E+02  0.60382861289E+02  0.23638223409E+01  0.62500001716E+02  0.10000016889E+02 0.  0.
    3000022    2    3    3    0    0 -0.74461707729E-01  0.95575340705E+01  0.33744226210E+01  0.10139095028E+02  0.25003579758E+00 0.  0.
    1000022    2    1    0    0    0 -0.12432710211E+02 -0.60382861289E+02 -0.23638223409E+01  0.62499998284E+02  0.99999954367E+01 0.  0.
    3000022    2    5    5    0    0 -0.10849361701E+02 -0.54718223758E+02  0.71006503902E+00  0.55788523447E+02  0.24999088466E+00 0.  0.
        -13    1    4    4    0    0  0.16660225120E-01  0.26216967362E+01  0.93324178020E+00  0.27848763994E+01  0.10500000000E+00 0.  1.
         13    1    4    4    0    0 -0.91121932850E-01  0.69358373343E+01  0.24411808408E+01  0.73542186282E+01  0.10500000000E+00 0. -1.
    3000001    1    5    5    0    0 -0.15833485097E+01 -0.56646375311E+01 -0.30738873799E+01  0.67114748369E+01  0.10000000000E+01 0. -1.
        -13    1    6    6    0    0 -0.25520581844E+01 -0.12925349899E+02  0.17946211293E+00  0.13176528474E+02  0.10500000000E+00 0.  1.
         13    1    6    6    0    0 -0.82973035169E+01 -0.41792873860E+02  0.53060292609E+00  0.42611994973E+02  0.10500000000E+00 0. -1.
</event>
<event>
11    0  0.3476221E-009  0.9118800E+02  0.7816531E-02  0.1126479E+00
         25   -1    0    0    0    0  0.00000000000E+00  0.00000000000E+00  0.99999998245E-14  0.12500000000E+03  0.12500000000E+03 0.  0.
    3000001    1    3    3    0    0 -0.24235854877E+02 -0.24110111179E+01 -0.41244465982E+02  0.47909243476E+02  0.10000000000E+01 0. -1.
    1000022    2    1    0    0    0 -0.30635710987E+02 -0.84515584162E+01 -0.52879811012E+02  0.62499998347E+02  0.99999876745E+01 0.  0.
    3000022    2    3    3    0    0 -0.63998561097E+01 -0.60405472983E+01 -0.11635345029E+02  0.14590754872E+02  0.25000779144E+00 0.  0.
    1000022    2    1    0    0    0  0.30635710987E+02  0.84515584162E+01  0.52879811012E+02  0.62500001653E+02  0.10000008332E+02 0.  0.
    3000022    2    5    5    0    0  0.40615463967E+01 -0.22371805022E+01  0.68069808273E+01  0.82400620608E+01  0.24999809946E+00 0.  0.
        -13    1    4    4    0    0 -0.27097926056E+01 -0.24775230419E+01 -0.48084489057E+01  0.60508926835E+01  0.10500000000E+00 0. -1.
         13    1    4    4    0    0 -0.36900635041E+01 -0.35630242563E+01 -0.68268961235E+01  0.85398621884E+01  0.10500000000E+00 0.  1.
    3000001    1    5    5    0    0  0.26574164590E+02  0.10688738918E+02  0.46072830184E+02  0.54259939592E+02  0.10000000000E+01 0. -1.
        -13    1    6    6    0    0  0.25161026626E+01 -0.13547101551E+01  0.42898440006E+01  0.51555599854E+01  0.10500000000E+00 0.  1.
         13    1    6    6    0    0  0.15454437341E+01 -0.88247034708E+00  0.25171368267E+01  0.30845020754E+01  0.10500000000E+00 0. -1.
</event>
<event>
11    0  0.3476221E-009  0.9118800E+02  0.7816531E-02  0.1126479E+00
         25   -1    0    0    0    0  0.00000000000E+00  0.00000000000E+00  0.99999998245E-14  0.12500000000E+03  0.12500000000E+03 0.  0.
    3000001    1    3    3    0    0 -0.32159646843E+02  0.37975255920E+01 -0.10626054633E+02  0.34096585207E+02  0.10000000000E+01 0. -1.
    1000022    2    1    0    0    0 -0.54778906886E+02  0.11978823516E+02 -0.25729925836E+02  0.62500000301E+02  0.10000005081E+02 0.  0.
    3000022    2    3    3    0    0 -0.22619260043E+02  0.81812979243E+01 -0.15103871203E+02  0.28403415094E+02  0.25000615474E+00 0.  0.
    1000022    2    1    0    0    0  0.54778906886E+02 -0.11978823516E+02  0.25729925836E+02  0.62499999699E+02  0.10000001316E+02 0.  0.
    3000022    2    5    5    0    0  0.26375932605E+02 -0.73180745033E+00  0.12362849020E+02  0.29139797945E+02  0.24985093069E+00 0.  0.
        -13    1    4    4    0    0 -0.11070273851E+02  0.39559940572E+01 -0.73222467237E+01  0.13850168743E+02  0.10500000000E+00 0. -1.
         13    1    4    4    0    0 -0.11548986192E+02  0.42253038670E+01 -0.77816244794E+01  0.14553246351E+02  0.10500000000E+00 0.  1.
    3000001    1    5    5    0    0  0.28402974281E+02 -0.11247016066E+02  0.13367076816E+02  0.33360201753E+02  0.10000000000E+01 0. -1.
        -13    1    6    6    0    0  0.11594832647E+02 -0.37601114043E+00  0.54768886668E+01  0.12829219110E+02  0.10500000000E+00 0. -1.
         13    1    6    6    0    0  0.14781099957E+02 -0.35579630990E+00  0.68859603532E+01  0.16310578836E+02  0.10500000000E+00 0.  1.
</event>
<event>
11    0  0.3476221E-009  0.9118800E+02  0.7816531E-02  0.1126479E+00
         25   -1    0    0    0    0  0.00000000000E+00  0.00000000000E+00  0.99999998245E-14  0.12500000000E+03  0.12500000000E+03 0.  0.
    3000001    1    3    3    0    0 -0.43964194350E+01 -0.21072451441E+02 -0.14528138330E+02  0.25989296199E+02  0.10000000000E+01 0. -1.
    1000022    2    1    0    0    0 -0.30263188034E+00 -0.47398016034E+02 -0.39491602294E+02  0.62499999857E+02  0.99999910163E+01 0.  0.
    3000022    2    3    3    0    0  0.40937875546E+01 -0.26325564592E+02 -0.24963463965E+02  0.36510703658E+02  0.25000162808E+00 0.  0.
    1000022    2    1    0    0    0  0.30263188034E+00  0.47398016034E+02  0.39491602294E+02  0.62500000143E+02  0.99999928050E+01 0.  0.
    3000022    2    5    5    0    0 -0.60527560283E+00  0.45642453717E+00  0.27798841919E+01  0.28922191553E+01  0.24998721693E+00 0.  0.
        -13    1    4    4    0    0  0.24090204111E+01 -0.15648756668E+02 -0.14754738878E+02  0.21642557819E+02  0.10500000000E+00 0.  1.
         13    1    4    4    0    0  0.16847671435E+01 -0.10676807924E+02 -0.10208725087E+02  0.14868145838E+02  0.10500000000E+00 0. -1.
    3000001    1    5    5    0    0  0.90790748317E+00  0.46941591497E+02  0.36711718103E+02  0.59607780988E+02  0.10000000000E+01 0.  1.
        -13    1    6    6    0    0 -0.37989380850E+00  0.21298486089E+00  0.16714464852E+01  0.17304450900E+01  0.10500000000E+00 0. -1.
         13    1    6    6    0    0 -0.22538179433E+00  0.24343967628E+00  0.11084377067E+01  0.11617740653E+01  0.10500000000E+00 0.  1.
</event>
<event>
11    0  0.3476221E-009  0.9118800E+02  0.7816531E-02  0.1126479E+00
         25   -1    0    0    0    0  0.00000000000E+00  0.00000000000E+00  0.99999998245E-14  0.12500000000E+03  0.12500000000E+03 0.  0.
    3000001    1    3    3    0    0  0.26890192045E+02 -0.13065445501E+02 -0.26458324298E+02  0.39935337973E+02  0.10000000000E+01 0. -1.
    1000022    2    1    0    0    0  0.36801458975E+02 -0.25612632368E+02 -0.42378008852E+02  0.62500000002E+02  0.10000002325E+02 0.  0.
    3000022    2    3    3    0    0  0.99112669299E+01 -0.12547186867E+02 -0.15919684553E+02  0.22564662029E+02  0.25001151182E+00 0.  0.
    1000022    2    1    0    0    0 -0.36801458975E+02  0.25612632368E+02  0.42378008852E+02  0.62499999998E+02  0.10000002305E+02 0.  0.
    3000022    2    5    5    0    0 -0.24021124721E+02  0.22098650481E+02  0.30547719446E+02  0.44705597515E+02  0.24999969058E+00 0.  0.
        -13    1    4    4    0    0  0.72106580366E+01 -0.91057014655E+01 -0.11612238729E+02  0.16424448295E+02  0.10500000000E+00 0.  1.
         13    1    4    4    0    0  0.27006088933E+01 -0.34414854016E+01 -0.43074458248E+01  0.61402137338E+01  0.10500000000E+00 0. -1.
    3000001    1    5    5    0    0 -0.12780334254E+02  0.35139818870E+01  0.11830289405E+02  0.17794402484E+02  0.10000000000E+01 0.  1.
        -13    1    6    6    0    0 -0.15880194638E+02  0.14544739597E+02  0.20116195306E+02  0.29468667603E+02  0.10500000000E+00 0.  1.
         13    1    6    6    0    0 -0.81409300830E+01  0.75539108837E+01  0.10431524140E+02  0.15236929912E+02  0.10500000000E+00 0. -1.
</event>
<event>
11    0  0.3476221E-009  0.9118800E+02  0.7816531E-02  0.1126479E+00
         25   -1    0    0    0    0  0.00000000000E+00  0.00000000000E+00  0.99999998245E-14  0.12500000000E+03  0.12500000000E+03 0.  0.
    3000001    1    3    3    0    0 -0.24993884336E+01  0.65642558789E-01 -0.89082883089E+01  0.93063877032E+01  0.10000000000E+01 0. -1.
    1000022    2    1    0    0    0 -0.20847838892E+02  0.22296736576E+02 -0.53614111270E+02  0.62499998998E+02  0.10000004953E+02 0.  0.
    3000022    2    3    3    0    0 -0.18348450458E+02  0.22231094018E+02 -0.44705822961E+02  0.53193611295E+02  0.25000102508E+00 0.  0.
    1000022    2    1    0    0    0  0.20847838892E+02 -0.22296736576E+02  0.53614111270E+02  0.62500001002E+02  0.10000017474E+02 0.  0.
    3000022    2    5    5    0    0  0.57086709527E+01 -0.10594103321E+02  0.28286071006E+02  0.30740661358E+02  0.24999704012E+00 0.  0.
        -13    1    4    4    0    0 -0.10543636521E+02  0.12747572847E+02 -0.25772852805E+02  0.30625477160E+02  0.10500000000E+00 0.  1.
         13    1    4    4    0    0 -0.78048139374E+01  0.94835211708E+01 -0.18932970156E+02  0.22568134135E+02  0.10500000000E+00 0. -1.
    3000001    1    5    5    0    0  0.15139167939E+02 -0.11702633255E+02  0.25328040264E+02  0.31759339644E+02  0.10000000000E+01 0. -1.
        -13    1    6    6    0    0  0.32086954654E+01 -0.59418587805E+01  0.15703574126E+02  0.17094287868E+02  0.10500000000E+00 0. -1.
         13    1    6    6    0    0  0.24999754873E+01 -0.46522445409E+01  0.12582496880E+02  0.13646373490E+02  0.10500000000E+00 0. -1.
</event>
<event>
11    0  0.3476221E-009  0.9118800E+02  0.7816531E-02  0.1126479E+00
         25   -1    0    0    0    0  0.00000000000E+00  0.00000000000E+00  0.99999998245E-14  0.12500000000E+03  0.12500000000E+03 0.  0.
    3000001    1    3    3    0    0  0.55451936525E+00 -0.13389077994E-01  0.14222638055E-01  0.11436228737E+01  0.10000000000E+01 0.  1.
    1000022    2    1    0    0    0  0.36325315861E+02 -0.13621310441E+02  0.47970631303E+02  0.62500000171E+02  0.99999941612E+01 0.  0.
    3000022    2    3    3    0    0  0.35770796496E+02 -0.13607921363E+02  0.47956408665E+02  0.61356377297E+02  0.24999446817E+00 0.  0.
    1000022    2    1    0    0    0 -0.36325315861E+02  0.13621310441E+02 -0.47970631303E+02  0.62499999829E+02  0.99999920249E+01 0.  0.
    3000022    2    5    5    0    0 -0.10966681157E+02  0.69686337990E+01 -0.10245018790E+02  0.16548500397E+02  0.25000554216E+00 0.  0.
        -13    1    4    4    0    0  0.21871112148E+02 -0.82664321573E+01  0.29355398280E+02  0.37529053817E+02  0.10500000000E+00 0.  1.
         13    1    4    4    0    0  0.13899684348E+02 -0.53414892054E+01  0.18601010385E+02  0.23827323481E+02  0.10500000000E+00 0. -1.
    3000001    1    5    5    0    0 -0.25358634705E+02  0.66526766418E+01 -0.37725612513E+02  0.45951499432E+02  0.10000000000E+01 0.  1.
        -13    1    6    6    0    0 -0.27263084319E+01  0.17601950785E+01 -0.25446854290E+01  0.41252264559E+01  0.10500000000E+00 0.  1.
         13    1    6    6    0    0 -0.82403727247E+01  0.52084387205E+01 -0.77003333615E+01  0.12423273941E+02  0.10500000000E+00 0. -1.
</event>
<event>
11    0  0.3476221E-009  0.9118800E+02  0.7816531E-02  0.1126479E+00
         25   -1    0    0    0    0  0.00000000000E+00  0.00000000000E+00  0.99999998245E-14  0.12500000000E+03  0.12500000000E+03 0.  0.
    3000001    1    3    3    0    0 -0.62884129051E+00 -0.14497146925E+02  0.73803973214E+01  0.16310517311E+02  0.10000000000E+01 0. -1.
    1000022    2    1    0    0    0  0.64000054554E+01 -0.47077678859E+02  0.39357106703E+02  0.62499998669E+02  0.10000003449E+02 0.  0.
    3000022    2    3    3    0    0  0.70288467459E+01 -0.32580531934E+02  0.31976709382E+02  0.46189481358E+02  0.24999504699E+00 0.  0.
    1000022    2    1    0    0    0 -0.64000054554E+01  0.47077678859E+02 -0.39357106703E+02  0.62500001331E+02  0.10000020089E+02 0.  0.
    3000022    2    5    5    0    0 -0.30722319818E+01  0.22109269979E+02 -0.24892729611E+02  0.33436042155E+02  0.24999841484E+00 0.  0.
        -13    1    4    4    0    0  0.20858310825E+01 -0.95274286870E+01  0.94018175125E+01  0.13547242754E+02  0.10500000000E+00 0. -1.
         13    1    4    4    0    0  0.49430156634E+01 -0.23053103247E+02  0.22574891869E+02  0.32642238604E+02  0.10500000000E+00 0.  1.
    3000001    1    5    5    0    0 -0.33277734736E+01  0.24968408880E+02 -0.14464377093E+02  0.29063959176E+02  0.10000000000E+01 0.  1.
        -13    1    6    6    0    0 -0.17247515232E+01  0.12357761414E+02 -0.14013043980E+02  0.18763407515E+02  0.10500000000E+00 0.  1.
         13    1    6    6    0    0 -0.13474804585E+01  0.97515085650E+01 -0.10879685631E+02  0.14672634641E+02  0.10500000000E+00 0. -1.
</event>
<event>
11    0  0.3476221E-009  0.9118800E+02  0.7816531E-02  0.1126479E+00
         25   -1    0    0    0    0  0.00000000000E+00  0.00000000000E+00  0.99999998245E-14  0.12500000000E+03  0.12500000000E+03 0.  0.
    3000001    1    3    3    0    0  0.28933666242E+02  0.30821636438E+02  0.37568628646E+02  0.56564407301E+02  0.10000000000E+01 0.  1.
    1000022    2    1    0    0    0  0.34164944823E+02  0.32820008881E+02  0.39520290680E+02  0.62499999707E+02  0.10000007513E+02 0.  0.
    3000022    2    3    3    0    0  0.52312785803E+01  0.19983724430E+01  0.19516620339E+01  0.59355924063E+01  0.25000902470E+00 0.  0.
    1000022    2    1    0    0    0 -0.34164944823E+02 -0.32820008881E+02 -0.39520290680E+02  0.62500000293E+02  0.10000011170E+02 0.  0.
    3000022    2    5    5    0    0 -0.32540967643E+01 -0.51291588585E+00 -0.93950900796E+00  0.34347355428E+01  0.25000523140E+00 0.  0.
        -13    1    4    4    0    0  0.32987767626E+01  0.13232012758E+01  0.12367387144E+01  0.37647493135E+01  0.10500000000E+00 0.  1.
         13    1    4    4    0    0  0.19325018177E+01  0.67517116723E+00  0.71492331949E+00  0.21708430927E+01  0.10500000000E+00 0. -1.
    3000001    1    5    5    0    0 -0.30910848059E+02 -0.32307092995E+02 -0.38580781672E+02  0.59065264750E+02  0.10000000000E+01 0.  1.
        -13    1    6    6    0    0 -0.22561477926E+01 -0.40267393887E+00 -0.64412865502E+00  0.23829133193E+01  0.10500000000E+00 0. -1.
         13    1    6    6    0    0 -0.99794897168E+00 -0.11024194698E+00 -0.29538035293E+00  0.10518222235E+01  0.10500000000E+00 0.  1.
</event>
<event>
11    0  0.3476221E-009  0.9118800E+02  0.7816531E-02  0.1126479E+00
         25   -1    0    0    0    0  0.00000000000E+00  0.00000000000E+00  0.99999998245E-14  0.12500000000E+03  0.12500000000E+03 0.  0.
    3000001    1    3    3    0    0 -0.24338133651E+02 -0.40706139405E+02  0.21752913987E+02  0.52187391215E+02  0.10000000000E+01 0. -1.
    1000022    2    1    0    0    0 -0.24965506801E+02 -0.49368940878E+02  0.27307161801E+02  0.62499999717E+02  0.10000001288E+02 0.  0.
    3000022    2    3    3    0    0 -0.62737314993E+00 -0.86628014731E+01  0.55542478141E+01  0.10312608502E+02  0.24999782674E+00 0.  0.
    1000022    2    1    0    0    0  0.24965506801E+02  0.49368940878E+02 -0.27307161801E+02  0.62500000283E+02  0.10000004825E+02 0.  0.
    3000022    2    5    5    0    0  0.22812580197E+02  0.39001183938E+02 -0.19051806897E+02  0.49036109259E+02  0.25000268125E+00 0.  0.
        -13    1    4    4    0    0 -0.40367457827E+00 -0.61288730446E+01  0.39477877508E+01  0.73021976889E+01  0.10500000000E+00 0. -1.
         13    1    4    4    0    0 -0.22369857165E+00 -0.25339284285E+01  0.16064600633E+01  0.30104108136E+01  0.10500000000E+00 0.  1.
    3000001    1    5    5    0    0  0.21529266033E+01  0.10367756940E+02 -0.82553549039E+01  0.13463891024E+02  0.10000000000E+01 0. -1.
        -13    1    6    6    0    0  0.10831379816E+02  0.18635569999E+02 -0.90539187303E+01  0.23379215711E+02  0.10500000000E+00 0.  1.
         13    1    6    6    0    0  0.11981200381E+02  0.20365613939E+02 -0.99978881670E+01  0.25656893547E+02  0.10500000000E+00 0. -1.
</event>
<event>
11    0  0.3476221E-009  0.9118800E+02  0.7816531E-02  0.1126479E+00
         25   -1    0    0    0    0  0.00000000000E+00  0.00000000000E+00  0.99999998245E-14  0.12500000000E+03  0.12500000000E+03 0.  0.
    3000001    1    3    3    0    0  0.10686195776E+02  0.30588542783E+02  0.49933310644E+02  0.59533093667E+02  0.10000000000E+01 0.  1.
    1000022    2    1    0    0    0  0.13049590054E+02  0.31800211065E+02  0.51231873709E+02  0.62500000431E+02  0.99999972876E+01 0.  0.
    3000022    2    3    3    0    0  0.23633942786E+01  0.12116682816E+01  0.12985630653E+01  0.29669067634E+01  0.24999433485E+00 0.  0.
    1000022    2    1    0    0    0 -0.13049590054E+02 -0.31800211065E+02 -0.51231873709E+02  0.62499999569E+02  0.99999919017E+01 0.  0.
    3000022    2    5    5    0    0 -0.78267264106E+01 -0.28444783539E+02 -0.41726448306E+02  0.51103056531E+02  0.25008336254E+00 0.  0.
        -13    1    4    4    0    0  0.74586892028E+00  0.35414140473E+00  0.45217637283E+00  0.94721964345E+00  0.10500000000E+00 0. -1.
         13    1    4    4    0    0  0.16175253583E+01  0.85752687685E+00  0.84638669247E+00  0.20196871200E+01  0.10500000000E+00 0. -1.
    3000001    1    5    5    0    0 -0.52228636437E+01 -0.33554275263E+01 -0.95054254034E+01  0.11396943039E+02  0.10000000000E+01 0.  1.
        -13    1    6    6    0    0 -0.47861808956E+01 -0.17215252458E+02 -0.25342110066E+02  0.31008160416E+02  0.10500000000E+00 0. -1.
         13    1    6    6    0    0 -0.30405455149E+01 -0.11229531081E+02 -0.16384338240E+02  0.20094896115E+02  0.10500000000E+00 0.  1.
</event>
<event>
11    0  0.3476221E-009  0.9118800E+02  0.7816531E-02  0.1126479E+00
         25   -1    0    0    0    0  0.00000000000E+00  0.00000000000E+00  0.99999998245E-14  0.12500000000E+03  0.12500000000E+03 0.  0.
    3000001    1    3    3    0    0  0.39251596729E+02 -0.51085382625E+01 -0.25989111308E+02  0.47362632059E+02  0.10000000000E+01 0.  1.
    1000022    2    1    0    0    0  0.54017559341E+02 -0.55712428521E+01 -0.29279939330E+02  0.62499996353E+02  0.99999616461E+01 0.  0.
    3000022    2    3    3    0    0  0.14765962612E+02 -0.46270458961E+00 -0.32908280215E+01  0.15137364294E+02  0.25000263398E+00 0.  0.
    1000022    2    1    0    0    0 -0.54017559341E+02  0.55712428521E+01  0.29279939330E+02  0.62500003647E+02  0.10000007235E+02 0.  0.
    3000022    2    5    5    0    0 -0.34894115525E+02  0.77408645647E+01  0.21538771983E+02  0.41731300423E+02  0.24990783953E+00 0.  0.
        -13    1    4    4    0    0  0.72778839374E+01 -0.16040703619E+00 -0.16164304501E+01  0.74576938408E+01  0.10500000000E+00 0.  1.
         13    1    4    4    0    0  0.74880786741E+01 -0.30229755343E+00 -0.16743975714E+01  0.76796704531E+01  0.10500000000E+00 0. -1.
    3000001    1    5    5    0    0 -0.19123443815E+02 -0.21696217126E+01  0.77411673464E+01  0.20768703224E+02  0.10000000000E+01 0.  1.
        -13    1    6    6    0    0 -0.23943896261E+02  0.52666002437E+01  0.14799470346E+02  0.28637084241E+02  0.10500000000E+00 0.  1.
         13    1    6    6    0    0 -0.10950219264E+02  0.24742643210E+01  0.67393016378E+01  0.13094216182E+02  0.10500000000E+00 0. -1.
</event>
<event>
11    0  0.3476221E-009  0.9118800E+02  0.7816531E-02  0.1126479E+00
         25   -1    0    0    0    0  0.00000000000E+00  0.00000000000E+00  0.99999998245E-14  0.12500000000E+03  0.12500000000E+03 0.  0.
    3000001    1    3    3    0    0 -0.18880338180E+02  0.66106917233E+01  0.17748933920E+02  0.26761783762E+02  0.10000000000E+01 0. -1.
    1000022    2    1    0    0    0 -0.43405020526E+02  0.25325426727E+02  0.35789340105E+02  0.62500000132E+02  0.10000005283E+02 0.  0.
    3000022    2    3    3    0    0 -0.24524682345E+02  0.18714735004E+02  0.18040406185E+02  0.35738216370E+02  0.25000714123E+00 0.  0.
    1000022    2    1    0    0    0  0.43405020526E+02 -0.25325426727E+02 -0.35789340105E+02  0.62499999868E+02  0.10000003630E+02 0.  0.
    3000022    2    5    5    0    0  0.35161579417E+02 -0.15688995784E+02 -0.27526325032E+02  0.47331198309E+02  0.25001565736E+00 0.  0.
        -13    1    4    4    0    0 -0.11371601623E+02  0.87594949050E+01  0.83742632341E+01  0.16618705852E+02  0.10500000000E+00 0.  1.
         13    1    4    4    0    0 -0.13153080722E+02  0.99552400987E+01  0.96661429510E+01  0.19119510518E+02  0.10500000000E+00 0. -1.
    3000001    1    5    5    0    0  0.82434411089E+01 -0.96364309427E+01 -0.82630150725E+01  0.15168801558E+02  0.10000000000E+01 0. -1.
        -13    1    6    6    0    0  0.20833742142E+02 -0.93590012871E+01 -0.16294461331E+02  0.28056304314E+02  0.10500000000E+00 0. -1.
         13    1    6    6    0    0  0.14327837275E+02 -0.63299944973E+01 -0.11231863701E+02  0.19274893995E+02  0.10500000000E+00 0.  1.
</event>
<event>
11    0  0.3476221E-009  0.9118800E+02  0.7816531E-02  0.1126479E+00
         25   -1    0    0    0    0  0.00000000000E+00  0.00000000000E+00  0.99999998245E-14  0.12500000000E+03  0.12500000000E+03 0.  0.
    3000001    1    3    3    0    0  0.36980181644E+02 -0.17656305866E+02 -0.20130516631E+02  0.45667457462E+02  0.10000000000E+01 0.  1.
    1000022    2    1    0    0    0  0.52237667455E+02 -0.24570464597E+02 -0.21766220834E+02  0.62499999792E+02  0.99999986489E+01 0.  0.
    3000022    2    3    3    0    0  0.15257485811E+02 -0.69141587310E+01 -0.16357042024E+01  0.16832542330E+02  0.24997760819E+00 0.  0.
    1000022    2    1    0    0    0 -0.52237667455E+02  0.24570464597E+02  0.21766220834E+02  0.62500000208E+02  0.10000001250E+02 0.  0.
    3000022    2    5    5    0    0 -0.35367850491E+02  0.16600814066E+02  0.19536480398E+02  0.43683045184E+02  0.24998830833E+00 0.  0.
        -13    1    4    4    0    0  0.94008186816E+01 -0.41994649975E+01 -0.97831705513E+00  0.10343066635E+02  0.10500000000E+00 0.  1.
         13    1    4    4    0    0  0.58566671295E+01 -0.27146937335E+01 -0.65738714726E+00  0.64894756948E+01  0.10500000000E+00 0. -1.
    3000001    1    5    5    0    0 -0.16869816964E+02  0.79696505316E+01  0.22297404352E+01  0.18816955025E+02  0.10000000000E+01 0.  1.
        -13    1    6    6    0    0 -0.24536131864E+02  0.11464341731E+02  0.13547348626E+02  0.30281918333E+02  0.10500000000E+00 0.  1.
         13    1    6    6    0    0 -0.10831718627E+02  0.51364723351E+01  0.59891317724E+01  0.13401126850E+02  0.10500000000E+00 0. -1.
</event>
<event>
11    0  0.3476221E-009  0.9118800E+02  0.7816531E-02  0.1126479E+00
         25   -1    0    0    0    0  0.00000000000E+00  0.00000000000E+00  0.99999998245E-14  0.12500000000E+03  0.12500000000E+03 0.  0.
    3000001    1    3    3    0    0 -0.16225848239E+02  0.18395646793E+02 -0.18070726163E+01  0.24615919309E+02  0.10000000000E+01 0. -1.
    1000022    2    1    0    0    0 -0.48314971010E+02  0.37459994862E+02 -0.82862703770E+01  0.62500001322E+02  0.10000012486E+02 0.  0.
    3000022    2    3    3    0    0 -0.32089122771E+02  0.19064348069E+02 -0.64791977607E+01  0.37884082012E+02  0.24999759245E+00 0.  0.
    1000022    2    1    0    0    0  0.48314971010E+02 -0.37459994862E+02  0.82862703770E+01  0.62499998678E+02  0.99999959640E+01 0.  0.
    3000022    2    5    5    0    0  0.24027382493E+02 -0.19249143686E+02  0.91361926315E+01  0.32115061220E+02  0.24999848098E+00 0.  0.
        -13    1    4    4    0    0 -0.13512667504E+02  0.80432580686E+01 -0.26652476570E+01  0.15949945251E+02  0.10500000000E+00 0.  1.
         13    1    4    4    0    0 -0.18576455267E+02  0.11021090000E+02 -0.38139501037E+01  0.21934136761E+02  0.10500000000E+00 0. -1.
    3000001    1    5    5    0    0  0.24287588517E+02 -0.18210851176E+02 -0.84992225450E+00  0.30384937459E+02  0.10000000000E+01 0. -1.
        -13    1    6    6    0    0  0.87589504388E+01 -0.70905668245E+01  0.33585958254E+01  0.11759529821E+02  0.10500000000E+00 0.  1.
         13    1    6    6    0    0  0.15268432054E+02 -0.12158576862E+02  0.57775968060E+01  0.20355531399E+02  0.10500000000E+00 0. -1.
</event>
<event>
11    0  0.3476221E-009  0.9118800E+02  0.7816531E-02  0.1126479E+00
         25   -1    0    0    0    0  0.00000000000E+00  0.00000000000E+00  0.99999998245E-14  0.12500000000E+03  0.12500000000E+03 0.  0.
    3000001    1    3    3    0    0  0.53184822648E+00 -0.18266018964E+02  0.10573290007E+02  0.21135864612E+02  0.10000000000E+01 0. -1.
    1000022    2    1    0    0    0 -0.81600159998E+01 -0.47499115490E+02  0.38516209644E+02  0.62499999913E+02  0.99999875119E+01 0.  0.
    3000022    2    3    3    0    0 -0.86918642263E+01 -0.29233096527E+02  0.27942919637E+02  0.41364135300E+02  0.24999014004E+00 0.  0.
    1000022    2    1    0    0    0  0.81600159998E+01  0.47499115490E+02 -0.38516209644E+02  0.62500000087E+02  0.99999886051E+01 0.  0.
    3000022    2    5    5    0    0  0.51697985288E+01  0.28135614181E+02 -0.28851162049E+02  0.40629935421E+02  0.24999720451E+00 0.  0.
        -13    1    4    4    0    0 -0.41003304216E+01 -0.13656040064E+02  0.12988774061E+02  0.19287804862E+02  0.10500000000E+00 0. -1.
         13    1    4    4    0    0 -0.45915338047E+01 -0.15577056463E+02  0.14954145576E+02  0.22076330439E+02  0.10500000000E+00 0.  1.
    3000001    1    5    5    0    0  0.29902174710E+01  0.19363501310E+02 -0.96650475954E+01  0.21870064666E+02  0.10000000000E+01 0. -1.
        -13    1    6    6    0    0  0.19728546492E+01  0.10993973633E+02 -0.11323604805E+02  0.15905805936E+02  0.10500000000E+00 0.  1.
         13    1    6    6    0    0  0.31969438796E+01  0.17141640548E+02 -0.17527557244E+02  0.24724129485E+02  0.10500000000E+00 0. -1.
</event>
<event>
11    0  0.3476221E-009  0.9118800E+02  0.7816531E-02  0.1126479E+00
         25   -1    0    0    0    0  0.00000000000E+00  0.00000000000E+00  0.99999998245E-14  0.12500000000E+03  0.12500000000E+03 0.  0.
    3000001    1    3    3    0    0 -0.12950040062E+01  0.57841134932E+01 -0.71416046021E+01  0.93346408914E+01  0.10000000000E+01 0. -1.
    1000022    2    1    0    0    0 -0.28817381612E+02  0.27567120101E+02 -0.47072947939E+02  0.62499999206E+02  0.99999939702E+01 0.  0.
    3000022    2    3    3    0    0 -0.27522377605E+02  0.21783006608E+02 -0.39931343337E+02  0.53165358314E+02  0.24999609362E+00 0.  0.
    1000022    2    1    0    0    0  0.28817381612E+02 -0.27567120101E+02  0.47072947939E+02  0.62500000794E+02  0.10000003899E+02 0.  0.
    3000022    2    5    5    0    0  0.17119125348E+02 -0.17962459440E+02  0.21832015303E+02  0.33051683587E+02  0.24998777839E+00 0.  0.
        -13    1    4    4    0    0 -0.14925201242E+02  0.11848651479E+02 -0.21771788591E+02  0.28933958896E+02  0.10500000000E+00 0. -1.
         13    1    4    4    0    0 -0.12597176363E+02  0.99343551294E+01 -0.18159554746E+02  0.24231399418E+02  0.10500000000E+00 0.  1.
    3000001    1    5    5    0    0  0.11698256263E+02 -0.96046606610E+01  0.25240932636E+02  0.29448317208E+02  0.10000000000E+01 0.  1.
        -13    1    6    6    0    0  0.10021961940E+02 -0.10530588664E+02  0.12705742312E+02  0.19307509716E+02  0.10500000000E+00 0. -1.
         13    1    6    6    0    0  0.70971634081E+01 -0.74318707760E+01  0.91262729907E+01  0.13744173870E+02  0.10500000000E+00 0.  1.
</event>
<event>
11    0  0.3476221E-009  0.9118800E+02  0.7816531E-02  0.1126479E+00
         25   -1    0    0    0    0  0.00000000000E+00  0.00000000000E+00  0.99999998245E-14  0.12500000000E+03  0.12500000000E+03 0.  0.
    3000001    1    3    3    0    0 -0.89343488253E+01 -0.45256266402E+02  0.13597084047E+01  0.46160600565E+02  0.10000000000E+01 0.  1.
    1000022    2    1    0    0    0 -0.16159593600E+02 -0.59274537349E+02  0.56255472499E+01  0.62499999654E+02  0.99999965821E+01 0.  0.
    3000022    2    3    3    0    0 -0.72252447745E+01 -0.14018270948E+02  0.42658388452E+01  0.16339399089E+02  0.24999828474E+00 0.  0.
    1000022    2    1    0    0    0  0.16159593600E+02  0.59274537349E+02 -0.56255472499E+01  0.62500000346E+02  0.10000000905E+02 0.  0.
    3000022    2    5    5    0    0  0.91990035557E+01  0.16724427144E+02 -0.83192724225E+00  0.19107138202E+02  0.24999525650E+00 0.  0.
        -13    1    4    4    0    0 -0.36197083677E+01 -0.71596197064E+01  0.21967983661E+01  0.83186171368E+01  0.10500000000E+00 0. -1.
         13    1    4    4    0    0 -0.36055364068E+01 -0.68586512411E+01  0.20690404791E+01  0.80207819527E+01  0.10500000000E+00 0.  1.
    3000001    1    5    5    0    0  0.69605900441E+01  0.42550110206E+02 -0.47936200077E+01  0.43392862144E+02  0.10000000000E+01 0.  1.
        -13    1    6    6    0    0  0.48609250778E+01  0.88542810747E+01 -0.37324061523E+00  0.10108274804E+02  0.10500000000E+00 0.  1.
         13    1    6    6    0    0  0.43380784778E+01  0.78701460688E+01 -0.45868662702E+00  0.89988633975E+01  0.10500000000E+00 0. -1.
</event>
<event>
11    0  0.3476221E-009  0.9118800E+02  0.7816531E-02  0.1126479E+00
         25   -1    0    0    0    0  0.00000000000E+00  0.00000000000E+00  0.99999998245E-14  0.12500000000E+03  0.12500000000E+03 0.  0.
    3000001    1    3    3    0    0  0.39393008310E+02 -0.30599572486E+02  0.18760565965E+01  0.49926571367E+02  0.10000000000E+01 0. -1.
    1000022    2    1    0    0    0  0.45625958221E+02 -0.41361275676E+02  0.37103659480E+01  0.62500000207E+02  0.10000001061E+02 0.  0.
    3000022    2    3    3    0    0  0.62329499108E+01 -0.10761703190E+02  0.18343093515E+01  0.12573428840E+02  0.25000372516E+00 0.  0.
    1000022    2    1    0    0    0 -0.45625958221E+02  0.41361275676E+02 -0.37103659480E+01  0.62499999793E+02  0.99999984785E+01 0.  0.
    3000022    2    5    5    0    0 -0.17357132111E+02  0.22173931569E+02 -0.44242779522E+00  0.28164011045E+02  0.24999893434E+00 0.  0.
        -13    1    4    4    0    0  0.21173544301E+01 -0.35654060651E+01  0.58285557912E+00  0.41888012387E+01  0.10500000000E+00 0. -1.
         13    1    4    4    0    0  0.41155954807E+01 -0.71962971245E+01  0.12514537724E+01  0.83846276011E+01  0.10500000000E+00 0.  1.
    3000001    1    5    5    0    0 -0.28268826111E+02  0.19187344107E+02 -0.32679381528E+01  0.34335988748E+02  0.10000000000E+01 0.  1.
        -13    1    6    6    0    0 -0.48943103003E+01  0.63075993425E+01 -0.14823039952E+00  0.79858049082E+01  0.10500000000E+00 0.  1.
         13    1    6    6    0    0 -0.12462821810E+02  0.15866332227E+02 -0.29419739570E+00  0.20178206137E+02  0.10500000000E+00 0. -1.
</event>
<event>
11    0  0.3476221E-009  0.9118800E+02  0.7816531E-02  0.1126479E+00
         25   -1    0    0    0    0  0.00000000000E+00  0.00000000000E+00  0.99999998245E-14  0.12500000000E+03  0.12500000000E+03 0.  0.
    3000001    1    3    3    0    0 -0.12757647347E+02  0.68190549464E+00 -0.42649454222E+02  0.44533116962E+02  0.10000000000E+01 0.  1.
    1000022    2    1    0    0    0 -0.12907766721E+02 -0.28583841354E+01 -0.60261671708E+02  0.62500000276E+02  0.10000007792E+02 0.  0.
    3000022    2    3    3    0    0 -0.15011937373E+00 -0.35402896300E+01 -0.17612217486E+02  0.17966883314E+02  0.25000947734E+00 0.  0.
    1000022    2    1    0    0    0  0.12907766721E+02  0.28583841354E+01  0.60261671708E+02  0.62499999724E+02  0.10000004348E+02 0.  0.
    3000022    2    5    5    0    0 -0.12233229669E+01  0.10259225654E+01  0.23457930701E+01  0.28485570803E+01  0.24999224070E+00 0.  0.
        -13    1    4    4    0    0 -0.14635106649E-01 -0.10795306068E+01 -0.52015854512E+01  0.53134844240E+01  0.10500000000E+00 0. -1.
         13    1    4    4    0    0 -0.13548426708E+00 -0.24607590233E+01 -0.12410632035E+02  0.12653398890E+02  0.10500000000E+00 0.  1.
    3000001    1    5    5    0    0  0.14131089688E+02  0.18324615700E+01  0.57915878638E+02  0.59651442644E+02  0.10000000000E+01 0.  1.
        -13    1    6    6    0    0 -0.46886531330E+00  0.40817688599E+00  0.10269326576E+01  0.12050139980E+01  0.10500000000E+00 0. -1.
         13    1    6    6    0    0 -0.75445765355E+00  0.61774567944E+00  0.13188604125E+01  0.16435430823E+01  0.10500000000E+00 0.  1.
</event>
<event>
11    0  0.3476221E-009  0.9118800E+02  0.7816531E-02  0.1126479E+00
         25   -1    0    0    0    0  0.00000000000E+00  0.00000000000E+00  0.99999998245E-14  0.12500000000E+03  0.12500000000E+03 0.  0.
    3000001    1    3    3    0    0 -0.16786841759E+02 -0.15734585237E+02  0.10906635129E+02  0.25481952803E+02  0.10000000000E+01 0.  1.
    1000022    2    1    0    0    0 -0.31716325932E+02 -0.40885119344E+02  0.33596600472E+02  0.62500001123E+02  0.10000013137E+02 0.  0.
    3000022    2    3    3    0    0 -0.14929484173E+02 -0.25150534107E+02  0.22689965343E+02  0.37018048320E+02  0.25002126038E+00 0.  0.
    1000022    2    1    0    0    0  0.31716325932E+02  0.40885119344E+02 -0.33596600472E+02  0.62499998877E+02  0.99999990975E+01 0.  0.
    3000022    2    5    5    0    0  0.17632468312E+02  0.15042315029E+02 -0.16462075139E+02  0.28429519886E+02  0.25000568022E+00 0.  0.
        -13    1    4    4    0    0 -0.11099474205E+02 -0.18714509629E+02  0.16915563187E+02  0.27560451759E+02  0.10500000000E+00 0. -1.
         13    1    4    4    0    0 -0.38300099680E+01 -0.64360244781E+01  0.57744021560E+01  0.94575965603E+01  0.10500000000E+00 0.  1.
    3000001    1    5    5    0    0  0.14083857620E+02  0.25842804314E+02 -0.17134525333E+02  0.34070478991E+02  0.10000000000E+01 0. -1.
        -13    1    6    6    0    0  0.12229925807E+02  0.10375062119E+02 -0.11368648219E+02  0.19658844995E+02  0.10500000000E+00 0. -1.
         13    1    6    6    0    0  0.54025425043E+01  0.46672529104E+01 -0.50934269203E+01  0.87706748904E+01  0.10500000000E+00 0.  1.
</event>
<event>
11    0  0.3476221E-009  0.9118800E+02  0.7816531E-02  0.1126479E+00
         25   -1    0    0    0    0  0.00000000000E+00  0.00000000000E+00  0.99999998245E-14  0.12500000000E+03  0.12500000000E+03 0.  0.
    3000001    1    3    3    0    0 -0.40533207892E+01  0.55693598252E+01  0.13772114290E+01  0.70953428108E+01  0.10000000000E+01 0. -1.
    1000022    2    1    0    0    0 -0.31838678118E+02  0.38418467789E+02  0.36284568150E+02  0.62500000068E+02  0.10000001557E+02 0.  0.
    3000022    2    3    3    0    0 -0.27785357329E+02  0.32849107964E+02  0.34907356721E+02  0.55404657258E+02  0.25003330781E+00 0.  0.
    1000022    2    1    0    0    0  0.31838678118E+02 -0.38418467789E+02 -0.36284568150E+02  0.62499999932E+02  0.10000000702E+02 0.  0.
    3000022    2    5    5    0    0  0.86302717030E+01 -0.12041724246E+02 -0.55913615175E+01  0.15836998939E+02  0.24999856015E+00 0.  0.
        -13    1    4    4    0    0 -0.92956503817E+01  0.10908142192E+02  0.11639925627E+02  0.18463357650E+02  0.10500000000E+00 0.  1.
         13    1    4    4    0    0 -0.18489706947E+02  0.21940965772E+02  0.23267431094E+02  0.36941299608E+02  0.10500000000E+00 0. -1.
    3000001    1    5    5    0    0  0.23208406415E+02 -0.26376743543E+02 -0.30693206633E+02  0.46663000993E+02  0.10000000000E+01 0. -1.
        -13    1    6    6    0    0  0.37533631411E+01 -0.51565627095E+01 -0.24561379556E+01  0.68353136360E+01  0.10500000000E+00 0.  1.
         13    1    6    6    0    0  0.48769085619E+01 -0.68851615365E+01 -0.31352235619E+01  0.90016853027E+01  0.10500000000E+00 0. -1.
</event>
<event>
11    0  0.3476221E-009  0.9118800E+02  0.7816531E-02  0.1126479E+00
         25   -1    0    0    0    0  0.00000000000E+00  0.00000000000E+00  0.99999998245E-14  0.12500000000E+03  0.12500000000E+03 0.  0.
    3000001    1    3    3    0    0 -0.43788216933E+02  0.87885920468E+00  0.12785723148E+02  0.45636115655E+02  0.10000000000E+01 0. -1.
    1000022    2    1    0    0    0 -0.58921906521E+02 -0.47327375010E+01  0.17665221593E+02  0.62499999772E+02  0.10000002260E+02 0.  0.
    3000022    2    3    3    0    0 -0.15133689588E+02 -0.56115967057E+01  0.48794984448E+01  0.16863884116E+02  0.25000856916E+00 0.  0.
    1000022    2    1    0    0    0  0.58921906521E+02  0.47327375010E+01 -0.17665221593E+02  0.62500000228E+02  0.10000005114E+02 0.  0.
    3000022    2    5    5    0    0  0.30069505881E+01  0.25078890179E+01 -0.47913246332E+00  0.39526355793E+01  0.25000188066E+00 0.  0.
        -13    1    4    4    0    0 -0.77915024623E+01 -0.28182034209E+01  0.25183782418E+01  0.86604292683E+01  0.10500000000E+00 0. -1.
         13    1    4    4    0    0 -0.73421871258E+01 -0.27933932847E+01  0.23611202030E+01  0.82034548482E+01  0.10500000000E+00 0.  1.
    3000001    1    5    5    0    0  0.55914955933E+02  0.22248484831E+01 -0.17186089130E+02  0.58547364649E+02  0.10000000000E+01 0. -1.
        -13    1    6    6    0    0  0.21392557985E+01  0.18305427812E+01 -0.32528468746E+00  0.28362188514E+01  0.10500000000E+00 0. -1.
         13    1    6    6    0    0  0.86769478961E+00  0.67734623671E+00 -0.15384777586E+00  0.11164167279E+01  0.10500000000E+00 0.  1.
</event>
<event>
11    0  0.3476221E-009  0.9118800E+02  0.7816531E-02  0.1126479E+00
         25   -1    0    0    0    0  0.00000000000E+00  0.00000000000E+00  0.99999998245E-14  0.12500000000E+03  0.12500000000E+03 0.  0.
    3000001    1    3    3    0    0  0.35786428815E+02 -0.11828007847E+01  0.39673382362E+02  0.53451330882E+02  0.10000000000E+01 0. -1.
    1000022    2    1    0    0    0  0.43703593790E+02 -0.34599320744E+01  0.43408238834E+02  0.62500004083E+02  0.10000003578E+02 0.  0.
    3000022    2    3    3    0    0  0.79171649756E+01 -0.22771312897E+01  0.37348564718E+01  0.90486732008E+01  0.25001133910E+00 0.  0.
    1000022    2    1    0    0    0 -0.43703593790E+02  0.34599320744E+01 -0.43408238834E+02  0.62499995917E+02  0.99999525419E+01 0.  0.
    3000022    2    5    5    0    0 -0.18921962268E+02  0.44324803540E+01 -0.13655484867E+02  0.23753364068E+02  0.24999883408E+00 0.  0.
        -13    1    4    4    0    0  0.19416112172E+01 -0.54807563920E+00  0.93849302116E+00  0.22275626088E+01  0.10500000000E+00 0. -1.
         13    1    4    4    0    0  0.59755537584E+01 -0.17290556505E+01  0.27963634506E+01  0.68211105921E+01  0.10500000000E+00 0.  1.
    3000001    1    5    5    0    0 -0.24781631522E+02 -0.97254827962E+00 -0.29752753967E+02  0.38746631849E+02  0.10000000000E+01 0.  1.
        -13    1    6    6    0    0 -0.51208558066E+01  0.11742286154E+01 -0.36598205418E+01  0.64036933430E+01  0.10500000000E+00 0. -1.
         13    1    6    6    0    0 -0.13801106462E+02  0.32582517386E+01 -0.99956643252E+01  0.17349670725E+02  0.10500000000E+00 0.  1.
</event>
<event>
11    0  0.3476221E-009  0.9118800E+02  0.7816531E-02  0.1126479E+00
         25   -1    0    0    0    0  0.00000000000E+00  0.00000000000E+00  0.99999998245E-14  0.12500000000E+03  0.12500000000E+03 0.  0.
    3000001    1    3    3    0    0  0.89229202004E+01  0.33705146170E+02 -0.67444738306E+01  0.35526656337E+02  0.10000000000E+01 0. -1.
    1000022    2    1    0    0    0  0.18060517798E+02  0.58883664012E+02 -0.35750837115E+01  0.62499994743E+02  0.99999964352E+01 0.  0.
    3000022    2    3    3    0    0  0.91375975978E+01  0.25178517843E+02  0.31693901191E+01  0.26973338406E+02  0.25000089618E+00 0.  0.
    1000022    2    1    0    0    0 -0.18060517798E+02 -0.58883664012E+02  0.35750837115E+01  0.62500005257E+02  0.10000062145E+02 0.  0.
    3000022    2    5    5    0    0  0.31034324287E+00  0.24293826583E+00  0.11417380241E+00  0.48047986558E+00  0.24998662899E+00 0.  0.
        -13    1    4    4    0    0  0.35359694542E+01  0.95673191792E+01  0.11964791843E+01  0.10270309815E+02  0.10500000000E+00 0. -1.
         13    1    4    4    0    0  0.56016281436E+01  0.15611198664E+02  0.19729109348E+01  0.16703028592E+02  0.10500000000E+00 0.  1.
    3000001    1    5    5    0    0 -0.18370861041E+02 -0.59126602278E+02  0.34609099091E+01  0.62019525391E+02  0.10000000000E+01 0.  1.
        -13    1    6    6    0    0  0.15934191135E+00  0.10763738349E+00  0.12436393704E+00  0.25192665574E+00  0.10500000000E+00 0. -1.
         13    1    6    6    0    0  0.15100133152E+00  0.13530088234E+00 -0.10190134633E-01  0.22855320984E+00  0.10500000000E+00 0.  1.
</event>
<event>
11    0  0.3476221E-009  0.9118800E+02  0.7816531E-02  0.1126479E+00
         25   -1    0    0    0    0  0.00000000000E+00  0.00000000000E+00  0.99999998245E-14  0.12500000000E+03  0.12500000000E+03 0.  0.
    3000001    1    3    3    0    0 -0.20982226970E+02 -0.23327489550E+02  0.37472151205E+02  0.48883409591E+02  0.10000000000E+01 0.  1.
    1000022    2    1    0    0    0 -0.21821529029E+02 -0.29751078596E+02  0.49446376860E+02  0.62499998937E+02  0.99999937885E+01 0.  0.
    3000022    2    3    3    0    0 -0.83930205936E+00 -0.64235890466E+01  0.11974225655E+02  0.13616589347E+02  0.25000240833E+00 0.  0.
    1000022    2    1    0    0    0  0.21821529029E+02  0.29751078596E+02 -0.49446376860E+02  0.62500001063E+02  0.10000007070E+02 0.  0.
    3000022    2    5    5    0    0  0.15475272780E+02  0.19503890652E+02 -0.25316992699E+02  0.35509132067E+02  0.25004527158E+00 0.  0.
        -13    1    4    4    0    0 -0.31353380253E+00 -0.24882568820E+01  0.47649007177E+01  0.53856317740E+01  0.10500000000E+00 0. -1.
         13    1    4    4    0    0 -0.52576825683E+00 -0.39353321645E+01  0.72093249376E+01  0.82309575726E+01  0.10500000000E+00 0.  1.
    3000001    1    5    5    0    0  0.63462562490E+01  0.10247187944E+02 -0.24129384161E+02  0.26990868995E+02  0.10000000000E+01 0. -1.
        -13    1    6    6    0    0  0.38721484075E+01  0.48406106256E+01 -0.62926367093E+01  0.88336485256E+01  0.10500000000E+00 0.  1.
         13    1    6    6    0    0  0.11603124373E+02  0.14663280027E+02 -0.19024355990E+02  0.26675483542E+02  0.10500000000E+00 0. -1.
</event>
<event>
11    0  0.3476221E-009  0.9118800E+02  0.7816531E-02  0.1126479E+00
         25   -1    0    0    0    0  0.00000000000E+00  0.00000000000E+00  0.99999998245E-14  0.12500000000E+03  0.12500000000E+03 0.  0.
    3000001    1    3    3    0    0  0.65489651774E+01 -0.32469151470E+02  0.92000618316E+01  0.34391508833E+02  0.10000000000E+01 0.  1.
    1000022    2    1    0    0    0  0.18602667540E+02 -0.57803278439E+02  0.10907413778E+02  0.62500000080E+02  0.10000004838E+02 0.  0.
    3000022    2    3    3    0    0  0.12053702362E+02 -0.25334126969E+02  0.17073519468E+01  0.28108491247E+02  0.24999920466E+00 0.  0.
    1000022    2    1    0    0    0 -0.18602667540E+02  0.57803278439E+02 -0.10907413778E+02  0.62499999920E+02  0.10000003843E+02 0.  0.
    3000022    2    5    5    0    0 -0.96081500291E+01  0.20690177387E+02 -0.80517808735E+01  0.24192843224E+02  0.25000142283E+00 0.  0.
        -13    1    4    4    0    0  0.89737918207E+01 -0.18910862691E+02  0.12549733607E+01  0.20969874832E+02  0.10500000000E+00 0.  1.
         13    1    4    4    0    0  0.30799105416E+01 -0.64232642780E+01  0.45237858602E+00  0.71386164146E+01  0.10500000000E+00 0. -1.
    3000001    1    5    5    0    0 -0.89945175107E+01  0.37113101051E+02 -0.28556329048E+01  0.38307156697E+02  0.10000000000E+01 0.  1.
        -13    1    6    6    0    0 -0.36766137030E+01  0.79381478408E+01 -0.30235951181E+01  0.92566101734E+01  0.10500000000E+00 0. -1.
         13    1    6    6    0    0 -0.59315363260E+01  0.12752029547E+02 -0.50281857555E+01  0.14936233050E+02  0.10500000000E+00 0.  1.
</event>
<event>
11    0  0.3476221E-009  0.9118800E+02  0.7816531E-02  0.1126479E+00
         25   -1    0    0    0    0  0.00000000000E+00  0.00000000000E+00  0.99999998245E-14  0.12500000000E+03  0.12500000000E+03 0.  0.
    3000001    1    3    3    0    0  0.45296761702E+01  0.81654737242E+01 -0.64995897801E+01  0.11420927924E+02  0.10000000000E+01 0. -1.
    1000022    2    1    0    0    0  0.21552224971E+02  0.54920383337E+02 -0.18041703063E+02  0.62500000247E+02  0.10000003718E+02 0.  0.
    3000022    2    3    3    0    0  0.17022548801E+02  0.46754909613E+02 -0.11542113283E+02  0.51079072322E+02  0.25001938111E+00 0.  0.
    1000022    2    1    0    0    0 -0.21552224971E+02 -0.54920383337E+02  0.18041703063E+02  0.62499999753E+02  0.10000000632E+02 0.  0.
    3000022    2    5    5    0    0 -0.44605907553E+01 -0.18363312577E+02  0.98416863270E+01  0.21307965848E+02  0.25000031082E+00 0.  0.
        -13    1    4    4    0    0  0.78167235117E+01  0.21554888587E+02 -0.53807731418E+01  0.23551605742E+02  0.10500000000E+00 0. -1.
         13    1    4    4    0    0  0.92058252896E+01  0.25200021026E+02 -0.61613401407E+01  0.27527466580E+02  0.10500000000E+00 0.  1.
    3000001    1    5    5    0    0 -0.17091634216E+02 -0.36557070760E+02  0.82000167356E+01  0.41192033905E+02  0.10000000000E+01 0. -1.
        -13    1    6    6    0    0 -0.27162543976E+01 -0.10963434976E+02  0.59233508550E+01  0.12754295542E+02  0.10500000000E+00 0.  1.
         13    1    6    6    0    0 -0.17443363578E+01 -0.73998776008E+01  0.39183354721E+01  0.85536703062E+01  0.10500000000E+00 0. -1.
</event>
<event>
11    0  0.3476221E-009  0.9118800E+02  0.7816531E-02  0.1126479E+00
         25   -1    0    0    0    0  0.00000000000E+00  0.00000000000E+00  0.99999998245E-14  0.12500000000E+03  0.12500000000E+03 0.  0.
    3000001    1    3    3    0    0  0.12450349120E+02  0.48670815849E+00  0.13471369566E+02  0.18377319610E+02  0.10000000000E+01 0. -1.
    1000022    2    1    0    0    0  0.49459079207E+02  0.10218223507E+02  0.35434972675E+02  0.62499999215E+02  0.10000000291E+02 0.  0.
    3000022    2    3    3    0    0  0.37008730086E+02  0.97315153481E+01  0.21963603109E+02  0.44122679606E+02  0.25000095433E+00 0.  0.
    1000022    2    1    0    0    0 -0.49459079207E+02 -0.10218223507E+02 -0.35434972675E+02  0.62500000785E+02  0.10000010101E+02 0.  0.
    3000022    2    5    5    0    0 -0.35410027381E+02 -0.61353812409E+01 -0.19670844399E+02  0.40969715174E+02  0.24999998209E+00 0.  0.
        -13    1    4    4    0    0  0.21540346300E+02  0.56058990358E+01  0.12738212893E+02  0.25645383901E+02  0.10500000000E+00 0. -1.
         13    1    4    4    0    0  0.15468383786E+02  0.41256163123E+01  0.92253902158E+01  0.18477295704E+02  0.10500000000E+00 0.  1.
    3000001    1    5    5    0    0 -0.14049051826E+02 -0.40828422657E+01 -0.15764128276E+02  0.21530285611E+02  0.10000000000E+01 0.  1.
        -13    1    6    6    0    0 -0.19124783822E+02 -0.33302098410E+01 -0.10699813113E+02  0.22166296025E+02  0.10500000000E+00 0. -1.
         13    1    6    6    0    0 -0.16285243559E+02 -0.28051713999E+01 -0.89710312853E+01  0.18803419149E+02  0.10500000000E+00 0.  1.
</event>
<event>
11    0  0.3476221E-009  0.9118800E+02  0.7816531E-02  0.1126479E+00
         25   -1    0    0    0    0  0.00000000000E+00  0.00000000000E+00  0.99999998245E-14  0.12500000000E+03  0.12500000000E+03 0.  0.
    3000001    1    3    3    0    0  0.12214520193E+01 -0.15279759578E+01 -0.27646174812E+01  0.35312554963E+01  0.10000000000E+01 0. -1.
    1000022    2    1    0    0    0  0.89517429722E+01  0.57056527541E+01 -0.60774680356E+02  0.62499998729E+02  0.99999946618E+01 0.  0.
    3000022    2    3    3    0    0  0.77302909528E+01  0.72336287119E+01 -0.58010062875E+02  0.58968743233E+02  0.25000242484E+00 0.  0.
    1000022    2    1    0    0    0 -0.89517429722E+01 -0.57056527541E+01  0.60774680356E+02  0.62500001271E+02  0.10000010546E+02 0.  0.
    3000022    2    5    5    0    0 -0.13238691953E+01 -0.53691021395E+01  0.39268867085E+02  0.39657108960E+02  0.24996302866E+00 0.  0.
        -13    1    4    4    0    0  0.27088380092E+01  0.24609187922E+01 -0.20135357311E+02  0.20465521340E+02  0.10500000000E+00 0.  1.
         13    1    4    4    0    0  0.50214529436E+01  0.47727099197E+01 -0.37874705564E+02  0.38503221893E+02  0.10500000000E+00 0. -1.
    3000001    1    5    5    0    0 -0.76278737769E+01 -0.33655061452E+00  0.21505813270E+02  0.22842892310E+02  0.10000000000E+01 0.  1.
        -13    1    6    6    0    0 -0.90568224507E+00 -0.38460103035E+01  0.28065819505E+02  0.28342782239E+02  0.10500000000E+00 0. -1.
         13    1    6    6    0    0 -0.41818695019E+00 -0.15230918361E+01  0.11203047581E+02  0.11314326721E+02  0.10500000000E+00 0.  1.
</event>
<event>
11    0  0.3476221E-009  0.9118800E+02  0.7816531E-02  0.1126479E+00
         25   -1    0    0    0    0  0.00000000000E+00  0.00000000000E+00  0.99999998245E-14  0.12500000000E+03  0.12500000000E+03 0.  0.
    3000001    1    3    3    0    0 -0.53573647775E+02  0.15801846775E+02 -0.13190870721E+02  0.57400637346E+02  0.10000000000E+01 0. -1.
    1000022    2    1    0    0    0 -0.56564911192E+02  0.19448037145E+02 -0.15114056775E+02  0.62500000086E+02  0.99999985808E+01 0.  0.
    3000022    2    3    3    0    0 -0.29912634175E+01  0.36461903697E+01 -0.19231860540E+01  0.50993627398E+01  0.24998941819E+00 0.  0.
    1000022    2    1    0    0    0  0.56564911192E+02 -0.19448037145E+02  0.15114056775E+02  0.62499999914E+02  0.99999975052E+01 0.  0.
    3000022    2    5    5    0    0  0.20717349620E+02 -0.12208470042E+02  0.65982024046E+01  0.24937002454E+02  0.25000077810E+00 0.  0.
        -13    1    4    4    0    0 -0.85978986635E+00  0.11101531005E+01 -0.54946360711E+00  0.15114938890E+01  0.10500000000E+00 0.  1.
         13    1    4    4    0    0 -0.21314735511E+01  0.25360372692E+01 -0.13737224469E+01  0.35878688509E+01  0.10500000000E+00 0. -1.
    3000001    1    5    5    0    0  0.35847561572E+02 -0.72395671026E+01  0.85158543700E+01  0.37562997460E+02  0.10000000000E+01 0.  1.
        -13    1    6    6    0    0  0.13581415392E+02 -0.80482308509E+01  0.42904933997E+01  0.16359957900E+02  0.10500000000E+00 0. -1.
         13    1    6    6    0    0  0.71359342281E+01 -0.41602391911E+01  0.23077090048E+01  0.85770445543E+01  0.10500000000E+00 0.  1.
</event>
<event>
11    0  0.3476221E-009  0.9118800E+02  0.7816531E-02  0.1126479E+00
         25   -1    0    0    0    0  0.00000000000E+00  0.00000000000E+00  0.99999998245E-14  0.12500000000E+03  0.12500000000E+03 0.  0.
    3000001    1    3    3    0    0  0.18825278520E+02 -0.30532629147E+02 -0.44677018620E+02  0.57303303105E+02  0.10000000000E+01 0.  1.
    1000022    2    1    0    0    0  0.19808088890E+02 -0.35255414436E+02 -0.46593404440E+02  0.62500000251E+02  0.10000003077E+02 0.  0.
    3000022    2    3    3    0    0  0.98281037058E+00 -0.47227852889E+01 -0.19163858203E+01  0.51966971462E+01  0.25001901501E+00 0.  0.
    1000022    2    1    0    0    0 -0.19808088890E+02  0.35255414436E+02  0.46593404440E+02  0.62499999749E+02  0.99999999360E+01 0.  0.
    3000022    2    5    5    0    0 -0.20756034524E+02  0.32377989173E+02  0.43304771475E+02  0.57918156905E+02  0.25002938176E+00 0.  0.
        -13    1    4    4    0    0  0.59759382045E+00 -0.29220902761E+01 -0.12490237125E+01  0.32352457697E+01  0.10500000000E+00 0. -1.
         13    1    4    4    0    0  0.38521655014E+00 -0.18006950128E+01 -0.66736210778E+00  0.19614513765E+01  0.10500000000E+00 0.  1.
    3000001    1    5    5    0    0  0.94794563340E+00  0.28774252630E+01  0.32886329652E+01  0.45818428441E+01  0.10000000000E+01 0.  1.
        -13    1    6    6    0    0 -0.81279773380E+01  0.12609168181E+02  0.16966040534E+02  0.22647575901E+02  0.10500000000E+00 0. -1.
         13    1    6    6    0    0 -0.12628057186E+02  0.19768820993E+02  0.26338730941E+02  0.35270581003E+02  0.10500000000E+00 0.  1.
</event>
<event>
11    0  0.3476221E-009  0.9118800E+02  0.7816531E-02  0.1126479E+00
         25   -1    0    0    0    0  0.00000000000E+00  0.00000000000E+00  0.99999998245E-14  0.12500000000E+03  0.12500000000E+03 0.  0.
    3000001    1    3    3    0    0 -0.35565890406E+01  0.52027284935E+02 -0.13032117884E+02  0.53761731741E+02  0.10000000000E+01 0.  1.
    1000022    2    1    0    0    0 -0.79254603055E+01  0.59226202358E+02 -0.15352329716E+02  0.62499999949E+02  0.99999999514E+01 0.  0.
    3000022    2    3    3    0    0 -0.43688712650E+01  0.71989174237E+01 -0.23202118324E+01  0.87382682075E+01  0.25000023191E+00 0.  0.
    1000022    2    1    0    0    0  0.79254603055E+01 -0.59226202358E+02  0.15352329716E+02  0.62500000051E+02  0.10000000592E+02 0.  0.
    3000022    2    5    5    0    0  0.64991893073E+00 -0.18722605317E+02  0.92214190684E+01  0.20881939778E+02  0.24998951933E+00 0.  0.
        -13    1    4    4    0    0 -0.17683021227E+01  0.28130531164E+01 -0.95115811328E+00  0.34577285881E+01  0.10500000000E+00 0.  1.
         13    1    4    4    0    0 -0.26005691423E+01  0.43858643073E+01 -0.13690537191E+01  0.52805396193E+01  0.10500000000E+00 0. -1.
    3000001    1    5    5    0    0  0.72755413748E+01 -0.40503597041E+02  0.61309106479E+01  0.41618060273E+02  0.10000000000E+01 0.  1.
        -13    1    6    6    0    0  0.35279288548E+00 -0.82932643873E+01  0.41011620872E+01  0.92592252636E+01  0.10500000000E+00 0. -1.
         13    1    6    6    0    0  0.29712604526E+00 -0.10429340930E+02  0.51202569812E+01  0.11622714514E+02  0.10500000000E+00 0.  1.
</event>
<event>
11    0  0.3476221E-009  0.9118800E+02  0.7816531E-02  0.1126479E+00
         25   -1    0    0    0    0  0.00000000000E+00  0.00000000000E+00  0.99999998245E-14  0.12500000000E+03  0.12500000000E+03 0.  0.
    3000001    1    3    3    0    0  0.43156465749E+02 -0.18805228779E+02 -0.25910899657E+02  0.53744691704E+02  0.10000000000E+01 0. -1.
    1000022    2    1    0    0    0  0.51585355357E+02 -0.18618577716E+02 -0.28258618350E+02  0.62499993073E+02  0.99999649763E+01 0.  0.
    3000022    2    3    3    0    0  0.84288896082E+01  0.18665106223E+00 -0.23477186933E+01  0.87553013684E+01  0.25000068746E+00 0.  0.
    1000022    2    1    0    0    0 -0.51585355357E+02  0.18618577716E+02  0.28258618350E+02  0.62500006927E+02  0.10000051568E+02 0.  0.
    3000022    2    5    5    0    0 -0.21453406994E+02  0.47699606789E+01  0.15766819746E+02  0.27049146030E+02  0.24999903463E+00 0.  0.
        -13    1    4    4    0    0  0.53665790874E+01  0.16891107231E+00 -0.15263642498E+01  0.55829664942E+01  0.10500000000E+00 0.  1.
         13    1    4    4    0    0  0.30623105208E+01  0.17739989919E-01 -0.82135444340E+00  0.31723348743E+01  0.10500000000E+00 0. -1.
    3000001    1    5    5    0    0 -0.30131948363E+02  0.13848617037E+02  0.12491798605E+02  0.35450860897E+02  0.10000000000E+01 0. -1.
        -13    1    6    6    0    0 -0.12817041271E+02  0.27914076590E+01  0.94445470511E+01  0.16164126876E+02  0.10500000000E+00 0.  1.
         13    1    6    6    0    0 -0.86363657234E+01  0.19785530199E+01  0.63222726945E+01  0.10885019154E+02  0.10500000000E+00 0. -1.
</event>
<event>
11    0  0.3476221E-009  0.9118800E+02  0.7816531E-02  0.1126479E+00
         25   -1    0    0    0    0  0.00000000000E+00  0.00000000000E+00  0.99999998245E-14  0.12500000000E+03  0.12500000000E+03 0.  0.
    3000001    1    3    3    0    0  0.14696304365E+02  0.11094288319E+02  0.70550374101E+01  0.19744319389E+02  0.10000000000E+01 0.  1.
    1000022    2    1    0    0    0  0.53785079143E+02  0.27594628057E+02  0.12326878898E+02  0.62500001323E+02  0.99999993027E+01 0.  0.
    3000022    2    3    3    0    0  0.39088774778E+02  0.16500339738E+02  0.52718414881E+01  0.42755681934E+02  0.24999973146E+00 0.  0.
    1000022    2    1    0    0    0 -0.53785079143E+02 -0.27594628057E+02 -0.12326878898E+02  0.62499998677E+02  0.99999827636E+01 0.  0.
    3000022    2    5    5    0    0 -0.35213071154E+02 -0.19793424569E+02 -0.37032231948E+01  0.40564965185E+02  0.25000437828E+00 0.  0.
        -13    1    4    4    0    0  0.22520063168E+02  0.95725679403E+01  0.30630130150E+01  0.24661313343E+02  0.10500000000E+00 0.  1.
         13    1    4    4    0    0  0.16568711610E+02  0.69277717976E+01  0.22088284731E+01  0.18094368591E+02  0.10500000000E+00 0. -1.
    3000001    1    5    5    0    0 -0.18572007989E+02 -0.78012034878E+01 -0.86236557034E+01  0.21935033492E+02  0.10000000000E+01 0. -1.
        -13    1    6    6    0    0 -0.18953812840E+02 -0.10577179182E+02 -0.19949906064E+01  0.21797127177E+02  0.10500000000E+00 0.  1.
         13    1    6    6    0    0 -0.16259258314E+02 -0.92162453865E+01 -0.17082325885E+01  0.18767838008E+02  0.10500000000E+00 0. -1.
</event>
<event>
11    0  0.3476221E-009  0.9118800E+02  0.7816531E-02  0.1126479E+00
         25   -1    0    0    0    0  0.00000000000E+00  0.00000000000E+00  0.99999998245E-14  0.12500000000E+03  0.12500000000E+03 0.  0.
    3000001    1    3    3    0    0 -0.10196593027E+02  0.21401408329E+01  0.14782631479E+02  0.18112893352E+02  0.10000000000E+01 0. -1.
    1000022    2    1    0    0    0 -0.21315814698E+02  0.10299076945E+02  0.56972054155E+02  0.62499999698E+02  0.10000003273E+02 0.  0.
    3000022    2    3    3    0    0 -0.11119221671E+02  0.81589361125E+01  0.42189422676E+02  0.44387106345E+02  0.24998995607E+00 0.  0.
    1000022    2    1    0    0    0  0.21315814698E+02 -0.10299076945E+02 -0.56972054155E+02  0.62500000302E+02  0.10000007052E+02 0.  0.
    3000022    2    5    5    0    0  0.10730833927E+00 -0.14468538050E+01 -0.55485327073E+00  0.15732971906E+01  0.25000177041E+00 0.  0.
        -13    1    4    4    0    0 -0.78754206083E+01  0.57552836489E+01  0.29709231800E+02  0.31269714082E+02  0.10500000000E+00 0.  1.
         13    1    4    4    0    0 -0.32438010623E+01  0.24036524636E+01  0.12480190875E+02  0.13117392263E+02  0.10500000000E+00 0. -1.
    3000001    1    5    5    0    0  0.21208506359E+02 -0.88522231403E+01 -0.56417200884E+02  0.60926703112E+02  0.10000000000E+01 0.  1.
        -13    1    6    6    0    0  0.12255493949E+00 -0.97327090085E+00 -0.35627382643E+00  0.10489194435E+01  0.10500000000E+00 0.  1.
         13    1    6    6    0    0 -0.15246600223E-01 -0.47358290420E+00 -0.19857944429E+00  0.52437774711E+00  0.10500000000E+00 0. -1.
</event>
<event>
11    0  0.3476221E-009  0.9118800E+02  0.7816531E-02  0.1126479E+00
         25   -1    0    0    0    0  0.00000000000E+00  0.00000000000E+00  0.99999998245E-14  0.12500000000E+03  0.12500000000E+03 0.  0.
    3000001    1    3    3    0    0  0.25034464058E+02 -0.58122307476E+00 -0.49854210627E+02  0.55798786081E+02  0.10000000000E+01 0.  1.
    1000022    2    1    0    0    0  0.24763434649E+02  0.13657315320E+00 -0.56506663848E+02  0.62500004201E+02  0.10000055903E+02 0.  0.
    3000022    2    3    3    0    0 -0.27102940896E+00  0.71779622796E+00 -0.66524532211E+01  0.67012181197E+01  0.25000412519E+00 0.  0.
    1000022    2    1    0    0    0 -0.24763434649E+02 -0.13657315320E+00  0.56506663848E+02  0.62499995799E+02  0.10000003393E+02 0.  0.
    3000022    2    5    5    0    0 -0.11839807327E+02  0.33581429492E+01  0.35463646224E+02  0.37539191034E+02  0.24999681296E+00 0.  0.
        -13    1    4    4    0    0 -0.63588675139E-01  0.16133059738E+00 -0.15225609745E+01  0.15359973966E+01  0.10500000000E+00 0. -1.
         13    1    4    4    0    0 -0.20744073382E+00  0.55646563058E+00 -0.51298922466E+01  0.51652207230E+01  0.10500000000E+00 0.  1.
    3000001    1    5    5    0    0 -0.12923627322E+02 -0.34947161024E+01  0.21043017624E+02  0.24960804765E+02  0.10000000000E+01 0. -1.
        -13    1    6    6    0    0 -0.39090794181E+01  0.10846919885E+01  0.11547714167E+02  0.12240023942E+02  0.10500000000E+00 0.  1.
         13    1    6    6    0    0 -0.79307279086E+01  0.22734509607E+01  0.23915932057E+02  0.25299167092E+02  0.10500000000E+00 0. -1.
</event>
<event>
11    0  0.3476221E-009  0.9118800E+02  0.7816531E-02  0.1126479E+00
         25   -1    0    0    0    0  0.00000000000E+00  0.00000000000E+00  0.99999998245E-14  0.12500000000E+03  0.12500000000E+03 0.  0.
    3000001    1    3    3    0    0  0.25867834988E+02  0.31822702405E+01  0.97398761425E+01  0.27841280828E+02  0.10000000000E+01 0.  1.
    1000022    2    1    0    0    0  0.52866938549E+02  0.51595069362E+01  0.31380190932E+02  0.62499999444E+02  0.99999922154E+01 0.  0.
    3000022    2    3    3    0    0  0.26999103561E+02  0.19772366956E+01  0.21640314789E+02  0.34658718617E+02  0.24998790695E+00 0.  0.
    1000022    2    1    0    0    0 -0.52866938549E+02 -0.51595069362E+01 -0.31380190932E+02  0.62500000556E+02  0.99999991599E+01 0.  0.
    3000022    2    5    5    0    0 -0.16289634298E+02  0.13407175096E+00 -0.14684235358E+02  0.21933067050E+02  0.25000270331E+00 0.  0.
        -13    1    4    4    0    0  0.17273483843E+02  0.12140036639E+01  0.13877868084E+02  0.22191288753E+02  0.10500000000E+00 0. -1.
         13    1    4    4    0    0  0.97256197179E+01  0.76323303171E+00  0.77624467049E+01  0.12467429864E+02  0.10500000000E+00 0.  1.
    3000001    1    5    5    0    0 -0.36577304251E+02 -0.52935786871E+01 -0.16695955574E+02  0.40566933506E+02  0.10000000000E+01 0. -1.
        -13    1    6    6    0    0 -0.11021298396E+02  0.75934318233E-01 -0.98679778909E+01  0.14794012202E+02  0.10500000000E+00 0.  1.
         13    1    6    6    0    0 -0.52683359017E+01  0.58137432724E-01 -0.48162574671E+01  0.71390548480E+01  0.10500000000E+00 0. -1.
</event>
<event>
11    0  0.3476221E-009  0.9118800E+02  0.7816531E-02  0.1126479E+00
         25   -1    0    0    0    0  0.00000000000E+00  0.00000000000E+00  0.99999998245E-14  0.12500000000E+03  0.12500000000E+03 0.  0.
    3000001    1    3    3    0    0  0.13247018658E+01  0.10559743713E+01 -0.24809906469E+00  0.19827934971E+01  0.10000000000E+01 0. -1.
    1000022    2    1    0    0    0  0.56471104619E+02  0.44624044571E+01  0.24440770157E+02  0.62499999868E+02  0.10000001361E+02 0.  0.
    3000022    2    3    3    0    0  0.55146402753E+02  0.34064300858E+01  0.24688869222E+02  0.60517206371E+02  0.25000191987E+00 0.  0.
    1000022    2    1    0    0    0 -0.56471104619E+02 -0.44624044571E+01 -0.24440770157E+02  0.62500000132E+02  0.10000003009E+02 0.  0.
    3000022    2    5    5    0    0 -0.32080867118E+01  0.16365388325E+01 -0.94674914882E-01  0.36113039383E+01  0.24994618410E+00 0.  0.
        -13    1    4    4    0    0  0.30044794202E+02  0.18754926317E+01  0.13381414788E+02  0.32943594491E+02  0.10500000000E+00 0.  1.
         13    1    4    4    0    0  0.25101608551E+02  0.15309374542E+01  0.11307454434E+02  0.27573611880E+02  0.10500000000E+00 0. -1.
    3000001    1    5    5    0    0 -0.53263017907E+02 -0.60989432896E+01 -0.24346095242E+02  0.58888696194E+02  0.10000000000E+01 0. -1.
        -13    1    6    6    0    0 -0.24687219417E+01  0.12491839836E+01 -0.78715414534E-01  0.27698862371E+01  0.10500000000E+00 0. -1.
         13    1    6    6    0    0 -0.73936477009E+00  0.38735484895E+00 -0.15959500348E-01  0.84141770121E+00  0.10500000000E+00 0.  1.
</event>
<event>
11    0  0.3476221E-009  0.9118800E+02  0.7816531E-02  0.1126479E+00
         25   -1    0    0    0    0  0.00000000000E+00  0.00000000000E+00  0.99999998245E-14  0.12500000000E+03  0.12500000000E+03 0.  0.
    3000001    1    3    3    0    0 -0.20799974168E+02 -0.43651881347E+01 -0.26427214594E+02  0.33927738858E+02  0.10000000000E+01 0. -1.
    1000022    2    1    0    0    0 -0.33796858283E+02 -0.15911883938E+02 -0.49100247946E+02  0.62500000249E+02  0.10000000126E+02 0.  0.
    3000022    2    3    3    0    0 -0.12996884116E+02 -0.11546695803E+02 -0.22673033352E+02  0.28572261391E+02  0.24999788558E+00 0.  0.
    1000022    2    1    0    0    0  0.33796858283E+02  0.15911883938E+02  0.49100247946E+02  0.62499999751E+02  0.99999970105E+01 0.  0.
    3000022    2    5    5    0    0  0.68383107237E+01  0.80016169569E+01  0.12315131299E+02  0.16202263121E+02  0.25000774789E+00 0.  0.
        -13    1    4    4    0    0 -0.78083679690E+01 -0.68988936934E+01 -0.13495631493E+02  0.17050174161E+02  0.10500000000E+00 0. -1.
         13    1    4    4    0    0 -0.51885161467E+01 -0.46478021095E+01 -0.91774018591E+01  0.11522087230E+02  0.10500000000E+00 0.  1.
    3000001    1    5    5    0    0  0.26958547560E+02  0.79102669806E+01  0.36785116648E+02  0.46297736629E+02  0.10000000000E+01 0.  1.
        -13    1    6    6    0    0  0.49866414947E+01  0.58874313180E+01  0.90150043425E+01  0.11866329223E+02  0.10500000000E+00 0.  1.
         13    1    6    6    0    0  0.18516692290E+01  0.21141856389E+01  0.33001269560E+01  0.43359338988E+01  0.10500000000E+00 0. -1.
</event>
<event>
11    0  0.3476221E-009  0.9118800E+02  0.7816531E-02  0.1126479E+00
         25   -1    0    0    0    0  0.00000000000E+00  0.00000000000E+00  0.99999998245E-14  0.12500000000E+03  0.12500000000E+03 0.  0.
    3000001    1    3    3    0    0 -0.24188123671E+02 -0.10124865645E+02  0.27001937545E+02  0.37652129584E+02  0.10000000000E+01 0.  1.
    1000022    2    1    0    0    0 -0.37284623434E+02 -0.24067901171E+02  0.42858405329E+02  0.62499999153E+02  0.99999987721E+01 0.  0.
    3000022    2    3    3    0    0 -0.13096499764E+02 -0.13943035526E+02  0.15856467784E+02  0.24847869570E+02  0.25001164190E+00 0.  0.
    1000022    2    1    0    0    0  0.37284623434E+02  0.24067901171E+02 -0.42858405329E+02  0.62500000847E+02  0.10000009356E+02 0.  0.
    3000022    2    5    5    0    0  0.12086902537E+02  0.12463506500E+02 -0.12711400347E+02  0.21519163575E+02  0.24998995736E+00 0.  0.
        -13    1    4    4    0    0 -0.55107999066E+01 -0.59561626551E+01  0.67557424772E+01  0.10559160507E+02  0.10500000000E+00 0.  1.
         13    1    4    4    0    0 -0.75856998571E+01 -0.79868728706E+01  0.91007253070E+01  0.14288709063E+02  0.10500000000E+00 0. -1.
    3000001    1    5    5    0    0  0.25197720897E+02  0.11604394670E+02 -0.30147004982E+02  0.40980837271E+02  0.10000000000E+01 0. -1.
        -13    1    6    6    0    0  0.38328073870E+01  0.40245101803E+01 -0.40610500712E+01  0.68840574764E+01  0.10500000000E+00 0. -1.
         13    1    6    6    0    0  0.82540951498E+01  0.84389963201E+01 -0.86503502756E+01  0.14635106099E+02  0.10500000000E+00 0.  1.
</event>
<event>
11    0  0.3476221E-009  0.9118800E+02  0.7816531E-02  0.1126479E+00
         25   -1    0    0    0    0  0.00000000000E+00  0.00000000000E+00  0.99999998245E-14  0.12500000000E+03  0.12500000000E+03 0.  0.
    3000001    1    3    3    0    0  0.13897632971E+02  0.75081796130E+01 -0.24586996207E+02  0.29241021627E+02  0.10000000000E+01 0.  1.
    1000022    2    1    0    0    0  0.37611064332E+02  0.17393219254E+02 -0.45707039584E+02  0.62499998887E+02  0.10000007860E+02 0.  0.
    3000022    2    3    3    0    0  0.23713431361E+02  0.98850396409E+01 -0.21120043376E+02  0.33258977260E+02  0.25000111191E+00 0.  0.
    1000022    2    1    0    0    0 -0.37611064332E+02 -0.17393219254E+02  0.45707039584E+02  0.62500001113E+02  0.10000021772E+02 0.  0.
    3000022    2    5    5    0    0 -0.12835466053E+01  0.99803449450E+00  0.33797218231E+01  0.37588010281E+01  0.25000165490E+00 0.  0.
        -13    1    4    4    0    0  0.68487693002E+01  0.28135230107E+01 -0.61107904846E+01  0.96007467421E+01  0.10500000000E+00 0. -1.
         13    1    4    4    0    0  0.16864662061E+02  0.70715166302E+01 -0.15009252892E+02  0.23658230518E+02  0.10500000000E+00 0.  1.
    3000001    1    5    5    0    0 -0.36327517726E+02 -0.18391253748E+02  0.42327317761E+02  0.58741200085E+02  0.10000000000E+01 0.  1.
        -13    1    6    6    0    0 -0.98843838025E+00  0.77640391008E+00  0.25985941517E+01  0.28885169254E+01  0.10500000000E+00 0.  1.
         13    1    6    6    0    0 -0.29510822502E+00  0.22163058441E+00  0.78112767138E+00  0.87028410270E+00  0.10500000000E+00 0. -1.
</event>
<event>
11    0  0.3476221E-009  0.9118800E+02  0.7816531E-02  0.1126479E+00
         25   -1    0    0    0    0  0.00000000000E+00  0.00000000000E+00  0.99999998245E-14  0.12500000000E+03  0.12500000000E+03 0.  0.
    3000001    1    3    3    0    0 -0.30471735649E+02  0.51605657877E+02  0.11078255351E+02  0.60954067461E+02  0.10000000000E+01 0.  1.
    1000022    2    1    0    0    0 -0.31795458820E+02  0.51529442170E+02  0.11832812431E+02  0.62499999727E+02  0.99999951922E+01 0.  0.
    3000022    2    3    3    0    0 -0.13237231711E+01 -0.76215706965E-01  0.75455708007E+00  0.15459322658E+01  0.24999663119E+00 0.  0.
    1000022    2    1    0    0    0  0.31795458820E+02 -0.51529442170E+02 -0.11832812431E+02  0.62500000273E+02  0.99999986062E+01 0.  0.
    3000022    2    5    5    0    0  0.20715564369E+02 -0.26269865579E+02 -0.96145540003E+01  0.34810093428E+02  0.25002231771E+00 0.  0.
        -13    1    4    4    0    0 -0.38562015653E+00 -0.24803609190E-01  0.17448213091E+00  0.43679187052E+00  0.10500000000E+00 0.  1.
         13    1    4    4    0    0 -0.93810301455E+00 -0.51412097775E-01  0.58007494916E+00  0.11091403952E+01  0.10500000000E+00 0. -1.
    3000001    1    5    5    0    0  0.11079894451E+02 -0.25259576592E+02 -0.22182584305E+01  0.27689906845E+02  0.10000000000E+01 0.  1.
        -13    1    6    6    0    0  0.55388604399E+01 -0.70787898901E+01 -0.25725674033E+01  0.93497256284E+01  0.10500000000E+00 0. -1.
         13    1    6    6    0    0  0.15176703930E+02 -0.19191075689E+02 -0.70419865969E+01  0.25460367799E+02  0.10500000000E+00 0.  1.
</event>
<event>
11    0  0.3476221E-009  0.9118800E+02  0.7816531E-02  0.1126479E+00
         25   -1    0    0    0    0  0.00000000000E+00  0.00000000000E+00  0.99999998245E-14  0.12500000000E+03  0.12500000000E+03 0.  0.
    3000001    1    3    3    0    0  0.83211355101E+00 -0.25739495146E+01 -0.91739986195E+00  0.30264255438E+01  0.10000000000E+01 0. -1.
    1000022    2    1    0    0    0 -0.21461151396E+02 -0.51280413763E+02 -0.26757959050E+02  0.62500002204E+02  0.10000002404E+02 0.  0.
    3000022    2    3    3    0    0 -0.22293264947E+02 -0.48706464249E+02 -0.25840559188E+02  0.59473576661E+02  0.25000015755E+00 0.  0.
    1000022    2    1    0    0    0  0.21461151396E+02  0.51280413763E+02  0.26757959050E+02  0.62499997796E+02  0.99999748484E+01 0.  0.
    3000022    2    5    5    0    0  0.12637845322E+02  0.17715409114E+02  0.10308006249E+02  0.24080455706E+02  0.24999950085E+00 0.  0.
        -13    1    4    4    0    0 -0.14692887714E+02 -0.31968357203E+02 -0.16976072565E+02  0.39064752352E+02  0.10500000000E+00 0. -1.
         13    1    4    4    0    0 -0.76003772322E+01 -0.16738107046E+02 -0.88644866231E+01  0.20408824308E+02  0.10500000000E+00 0.  1.
    3000001    1    5    5    0    0  0.88233060739E+01  0.33565004649E+02  0.16449952801E+02  0.38419542089E+02  0.10000000000E+01 0.  1.
        -13    1    6    6    0    0  0.44917371574E+01  0.63838319051E+01  0.37283576647E+01  0.86510512864E+01  0.10500000000E+00 0.  1.
         13    1    6    6    0    0  0.81461081644E+01  0.11331577209E+02  0.65796485839E+01  0.15429404420E+02  0.10500000000E+00 0. -1.
</event>
<event>
11    0  0.3476221E-009  0.9118800E+02  0.7816531E-02  0.1126479E+00
         25   -1    0    0    0    0  0.00000000000E+00  0.00000000000E+00  0.99999998245E-14  0.12500000000E+03  0.12500000000E+03 0.  0.
    3000001    1    3    3    0    0 -0.17956233476E+02  0.43944368707E+02 -0.20191243777E+02  0.51596707133E+02  0.10000000000E+01 0.  1.
    1000022    2    1    0    0    0 -0.19440945751E+02  0.51443835960E+02 -0.27961242425E+02  0.62499998354E+02  0.10000004314E+02 0.  0.
    3000022    2    3    3    0    0 -0.14847122750E+01  0.74994672531E+01 -0.77699986479E+01  0.10903291221E+02  0.25000167295E+00 0.  0.
    1000022    2    1    0    0    0  0.19440945751E+02 -0.51443835960E+02  0.27961242425E+02  0.62500001646E+02  0.10000024893E+02 0.  0.
    3000022    2    5    5    0    0  0.41809519665E+01 -0.35110287332E+01  0.15762383326E+01  0.56881203193E+01  0.25000674816E+00 0.  0.
        -13    1    4    4    0    0 -0.74343744835E+00  0.39117240679E+01 -0.41326508594E+01  0.57396962070E+01  0.10500000000E+00 0.  1.
         13    1    4    4    0    0 -0.74127482665E+00  0.35877431852E+01 -0.36373477885E+01  0.51635950138E+01  0.10500000000E+00 0.  1.
    3000001    1    5    5    0    0  0.15259993784E+02 -0.47932807227E+02  0.26385004092E+02  0.56811881327E+02  0.10000000000E+01 0.  1.
        -13    1    6    6    0    0  0.18662137038E+01 -0.15050451511E+01  0.64448990874E+00  0.24848152321E+01  0.10500000000E+00 0. -1.
         13    1    6    6    0    0  0.23147382627E+01 -0.20059835820E+01  0.93174842386E+00  0.32033050872E+01  0.10500000000E+00 0.  1.
</event>
<event>
11    0  0.3476221E-009  0.9118800E+02  0.7816531E-02  0.1126479E+00
         25   -1    0    0    0    0  0.00000000000E+00  0.00000000000E+00  0.99999998245E-14  0.12500000000E+03  0.12500000000E+03 0.  0.
    3000001    1    3    3    0    0  0.29867910518E+02 -0.10100583184E+02 -0.14741982165E+02  0.34820107661E+02  0.10000000000E+01 0. -1.
    1000022    2    1    0    0    0  0.56456198411E+02 -0.16981204311E+02 -0.18182034294E+02  0.62500000372E+02  0.10000001828E+02 0.  0.
    3000022    2    3    3    0    0  0.26588287893E+02 -0.68806211277E+01 -0.34400521294E+01  0.27679892711E+02  0.25000335670E+00 0.  0.
    1000022    2    1    0    0    0 -0.56456198411E+02  0.16981204311E+02  0.18182034294E+02  0.62499999628E+02  0.99999971763E+01 0.  0.
    3000022    2    5    5    0    0 -0.29896382277E+02  0.88406052454E+01  0.44411186864E+01  0.31491840250E+02  0.24998565745E+00 0.  0.
        -13    1    4    4    0    0  0.87464487375E+01 -0.22935188692E+01 -0.10883526504E+01  0.91080256265E+01  0.10500000000E+00 0.  1.
         13    1    4    4    0    0  0.17841839155E+02 -0.45871022585E+01 -0.23516994791E+01  0.18571867085E+02  0.10500000000E+00 0. -1.
    3000001    1    5    5    0    0 -0.26559816134E+02  0.81405990658E+01  0.13740915608E+02  0.31008159378E+02  0.10000000000E+01 0.  1.
        -13    1    6    6    0    0 -0.17961061726E+02  0.52628551892E+01  0.26230844431E+01  0.18899443909E+02  0.10500000000E+00 0.  1.
         13    1    6    6    0    0 -0.11935320551E+02  0.35777500562E+01  0.18180342432E+01  0.12592396342E+02  0.10500000000E+00 0. -1.
</event>
<event>
11    0  0.3476221E-009  0.9118800E+02  0.7816531E-02  0.1126479E+00
         25   -1    0    0    0    0  0.00000000000E+00  0.00000000000E+00  0.99999998245E-14  0.12500000000E+03  0.12500000000E+03 0.  0.
    3000001    1    3    3    0    0 -0.51154647147E+02 -0.56517149324E+01 -0.19739081975E+02  0.55130492140E+02  0.10000000000E+01 0.  1.
    1000022    2    1    0    0    0 -0.58410737185E+02 -0.44477518928E+01 -0.19355953679E+02  0.62500000236E+02  0.10000018566E+02 0.  0.
    3000022    2    3    3    0    0 -0.72560900383E+01  0.12039630396E+01  0.38312829620E+00  0.73695080962E+01  0.24998528842E+00 0.  0.
    1000022    2    1    0    0    0  0.58410737185E+02  0.44477518928E+01  0.19355953679E+02  0.62499999764E+02  0.10000015613E+02 0.  0.
    3000022    2    5    5    0    0  0.28447706548E+02  0.68165565093E+01  0.11357046354E+02  0.31381244026E+02  0.25004851825E+00 0.  0.
        -13    1    4    4    0    0 -0.46397022815E+01  0.81806382654E+00  0.21207556831E+00  0.47172096340E+01  0.10500000000E+00 0. -1.
         13    1    4    4    0    0 -0.26163877568E+01  0.38589921306E+00  0.17105272789E+00  0.26522984621E+01  0.10500000000E+00 0.  1.
    3000001    1    5    5    0    0  0.29963030637E+02 -0.23688046165E+01  0.79989073250E+01  0.31118755737E+02  0.10000000000E+01 0. -1.
        -13    1    6    6    0    0  0.19197363953E+02  0.46504187187E+01  0.76504154042E+01  0.21182659367E+02  0.10500000000E+00 0.  1.
         13    1    6    6    0    0  0.92503425949E+01  0.21661377907E+01  0.37066309500E+01  0.10198584659E+02  0.10500000000E+00 0. -1.
</event>
<event>
11    0  0.3476221E-009  0.9118800E+02  0.7816531E-02  0.1126479E+00
         25   -1    0    0    0    0  0.00000000000E+00  0.00000000000E+00  0.99999998245E-14  0.12500000000E+03  0.12500000000E+03 0.  0.
    3000001    1    3    3    0    0  0.47692630399E+01 -0.19682788575E+02 -0.49395507739E+02  0.53395451312E+02  0.10000000000E+01 0. -1.
    1000022    2    1    0    0    0  0.86107487350E+01 -0.24902867139E+02 -0.55784878354E+02  0.62499999059E+02  0.99999721907E+01 0.  0.
    3000022    2    3    3    0    0  0.38414856951E+01 -0.52200785641E+01 -0.63893706155E+01  0.91045477467E+01  0.25000050131E+00 0.  0.
    1000022    2    1    0    0    0 -0.86107487350E+01  0.24902867139E+02  0.55784878354E+02  0.62500000941E+02  0.99999839554E+01 0.  0.
    3000022    2    5    5    0    0  0.78249456390E+00  0.58751843976E+00  0.10865191299E+00  0.10157639955E+01  0.24999119320E+00 0.  0.
        -13    1    4    4    0    0  0.16696978449E+01 -0.23749108675E+01 -0.28926249577E+01  0.40995605457E+01  0.10500000000E+00 0.  1.
         13    1    4    4    0    0  0.21717878502E+01 -0.28451676966E+01 -0.34967456578E+01  0.50049872011E+01  0.10500000000E+00 0. -1.
    3000001    1    5    5    0    0 -0.93932432989E+01  0.24315348699E+02  0.55676226441E+02  0.61484236946E+02  0.10000000000E+01 0. -1.
        -13    1    6    6    0    0  0.22653171372E+00  0.22344114656E+00  0.66778342316E-01  0.34165320180E+00  0.10500000000E+00 0. -1.
         13    1    6    6    0    0  0.55596285018E+00  0.36407729320E+00  0.41873570678E-01  0.67411079366E+00  0.10500000000E+00 0.  1.
</event>
<event>
11    0  0.3476221E-009  0.9118800E+02  0.7816531E-02  0.1126479E+00
         25   -1    0    0    0    0  0.00000000000E+00  0.00000000000E+00  0.99999998245E-14  0.12500000000E+03  0.12500000000E+03 0.  0.
    3000001    1    3    3    0    0 -0.14404044789E+02  0.28220213312E+02 -0.94556944237E+01  0.33079708322E+02  0.10000000000E+01 0.  1.
    1000022    2    1    0    0    0 -0.31595400511E+02  0.52092409565E+02 -0.97139749121E+01  0.62500001879E+02  0.10000022928E+02 0.  0.
    3000022    2    3    3    0    0 -0.17191355722E+02  0.23872196253E+02 -0.25828048836E+00  0.29420293557E+02  0.24999730256E+00 0.  0.
    1000022    2    1    0    0    0  0.31595400511E+02 -0.52092409565E+02  0.97139749121E+01  0.62499998121E+02  0.99999994400E+01 0.  0.
    3000022    2    5    5    0    0  0.24408880897E+01 -0.11131116518E+02  0.77756397702E+00  0.11424832306E+02  0.24999576785E+00 0.  0.
        -13    1    4    4    0    0 -0.70633911500E+01  0.97685366896E+01 -0.16542034124E+00  0.12056292651E+02  0.10500000000E+00 0. -1.
         13    1    4    4    0    0 -0.10127964572E+02  0.14103659563E+02 -0.92860147119E-01  0.17364000906E+02  0.10500000000E+00 0.  1.
    3000001    1    5    5    0    0  0.29154512422E+02 -0.40961293047E+02  0.89364109351E+01  0.51075165815E+02  0.10000000000E+01 0.  1.
        -13    1    6    6    0    0  0.14920209682E+01 -0.66209320377E+01  0.51308149335E+00  0.68071392843E+01  0.10500000000E+00 0.  1.
         13    1    6    6    0    0  0.94886712153E+00 -0.45101844803E+01  0.26448248367E+00  0.46176930219E+01  0.10500000000E+00 0. -1.
</event>
<event>
11    0  0.3476221E-009  0.9118800E+02  0.7816531E-02  0.1126479E+00
         25   -1    0    0    0    0  0.00000000000E+00  0.00000000000E+00  0.99999998245E-14  0.12500000000E+03  0.12500000000E+03 0.  0.
    3000001    1    3    3    0    0  0.13061029189E+02 -0.15343657439E+02  0.29504903893E+02  0.35742938614E+02  0.10000000000E+01 0. -1.
    1000022    2    1    0    0    0  0.28746637316E+02 -0.29448381980E+02  0.45963831278E+02  0.62500001171E+02  0.10000000117E+02 0.  0.
    3000022    2    3    3    0    0  0.15685608128E+02 -0.14104724541E+02  0.16458927385E+02  0.26757062556E+02  0.25009847013E+00 0.  0.
    1000022    2    1    0    0    0 -0.28746637316E+02  0.29448381980E+02 -0.45963831278E+02  0.62499998829E+02  0.99999854836E+01 0.  0.
    3000022    2    5    5    0    0 -0.61633871271E+01  0.12346354477E+02 -0.17999795718E+02  0.22682040336E+02  0.24999626196E+00 0.  0.
        -13    1    4    4    0    0  0.66012926951E+01 -0.59989070597E+01  0.69023214550E+01  0.11279052160E+02  0.10500000000E+00 0.  1.
         13    1    4    4    0    0  0.90843154328E+01 -0.81058174813E+01  0.95566059301E+01  0.15478010396E+02  0.10500000000E+00 0. -1.
    3000001    1    5    5    0    0 -0.22583250189E+02  0.17102027503E+02 -0.27964035560E+02  0.39817958494E+02  0.10000000000E+01 0. -1.
        -13    1    6    6    0    0 -0.38537586637E+01  0.76058573768E+01 -0.11176604793E+02  0.14058024113E+02  0.10500000000E+00 0.  1.
         13    1    6    6    0    0 -0.23096284634E+01  0.47404971006E+01 -0.68231909254E+01  0.86240162224E+01  0.10500000000E+00 0. -1.
</event>
<event>
11    0  0.3476221E-009  0.9118800E+02  0.7816531E-02  0.1126479E+00
         25   -1    0    0    0    0  0.00000000000E+00  0.00000000000E+00  0.99999998245E-14  0.12500000000E+03  0.12500000000E+03 0.  0.
    3000001    1    3    3    0    0  0.39326369983E+02  0.26992051693E+02  0.34865215638E+02  0.59090756402E+02  0.10000000000E+01 0.  1.
    1000022    2    1    0    0    0  0.41797837239E+02  0.29315948658E+02  0.34637638841E+02  0.62499999439E+02  0.99999930869E+01 0.  0.
    3000022    2    3    3    0    0  0.24714672561E+01  0.23238969655E+01 -0.22757679727E+00  0.34092430368E+01  0.24999876250E+00 0.  0.
    1000022    2    1    0    0    0 -0.41797837239E+02 -0.29315948658E+02 -0.34637638841E+02  0.62500000561E+02  0.10000000102E+02 0.  0.
    3000022    2    5    5    0    0 -0.41703869964E+01 -0.72932643936E+01 -0.51769754238E+01  0.98715451117E+01  0.24999027854E+00 0.  0.
        -13    1    4    4    0    0  0.17865755155E+01  0.16720778047E+01 -0.20299287833E+00  0.24576263683E+01  0.10500000000E+00 0. -1.
         13    1    4    4    0    0  0.68489174059E+00  0.65181916082E+00 -0.24583918942E-01  0.95161666852E+00  0.10500000000E+00 0.  1.
    3000001    1    5    5    0    0 -0.37627450243E+02 -0.22022684265E+02 -0.29460663417E+02  0.52628455450E+02  0.10000000000E+01 0. -1.
        -13    1    6    6    0    0 -0.22586273316E+01 -0.40836575327E+01 -0.28763097322E+01  0.54828677663E+01  0.10500000000E+00 0.  1.
         13    1    6    6    0    0 -0.19117596648E+01 -0.32096068609E+01 -0.23006656916E+01  0.43886773454E+01  0.10500000000E+00 0. -1.
</event>
<event>
11    0  0.3476221E-009  0.9118800E+02  0.7816531E-02  0.1126479E+00
         25   -1    0    0    0    0  0.00000000000E+00  0.00000000000E+00  0.99999998245E-14  0.12500000000E+03  0.12500000000E+03 0.  0.
    3000001    1    3    3    0    0 -0.17093812136E+02  0.45579059621E+01 -0.14401669832E+02  0.22833769160E+02  0.10000000000E+01 0.  1.
    1000022    2    1    0    0    0 -0.40896389300E+02  0.24054679698E+02 -0.39434856254E+02  0.62499998964E+02  0.99999854735E+01 0.  0.
    3000022    2    3    3    0    0 -0.23802577164E+02  0.19496773736E+02 -0.25033186423E+02  0.39666229804E+02  0.24999720971E+00 0.  0.
    1000022    2    1    0    0    0  0.40896389300E+02 -0.24054679698E+02  0.39434856254E+02  0.62500001036E+02  0.99999984296E+01 0.  0.
    3000022    2    5    5    0    0  0.14592031229E+02 -0.14063952800E+02  0.14915518479E+02  0.25164604930E+02  0.25001207931E+00 0.  0.
        -13    1    4    4    0    0 -0.16704522686E+02  0.13627020856E+02 -0.17558489819E+02  0.27803747324E+02  0.10500000000E+00 0. -1.
         13    1    4    4    0    0 -0.70980544785E+01  0.58697528801E+01 -0.74746966040E+01  0.11862482479E+02  0.10500000000E+00 0.  1.
    3000001    1    5    5    0    0  0.26304358071E+02 -0.99907268984E+01  0.24519337775E+02  0.37335396107E+02  0.10000000000E+01 0. -1.
        -13    1    6    6    0    0  0.10109680236E+02 -0.97184724566E+01  0.10265370972E+02  0.17379390311E+02  0.10500000000E+00 0.  1.
         13    1    6    6    0    0  0.44823509924E+01 -0.43454803430E+01  0.46501475067E+01  0.77852146190E+01  0.10500000000E+00 0. -1.
</event>
<event>
11    0  0.3476221E-009  0.9118800E+02  0.7816531E-02  0.1126479E+00
         25   -1    0    0    0    0  0.00000000000E+00  0.00000000000E+00  0.99999998245E-14  0.12500000000E+03  0.12500000000E+03 0.  0.
    3000001    1    3    3    0    0  0.20626159005E+02  0.12028584222E+02  0.50389985249E+01  0.24423693001E+02  0.10000000000E+01 0.  1.
    1000022    2    1    0    0    0  0.45576586045E+02  0.35454314422E+02  0.21725939864E+02  0.62499999999E+02  0.99999965161E+01 0.  0.
    3000022    2    3    3    0    0  0.24950427040E+02  0.23425730200E+02  0.16686941339E+02  0.38076306998E+02  0.24999700306E+00 0.  0.
    1000022    2    1    0    0    0 -0.45576586045E+02 -0.35454314422E+02 -0.21725939864E+02  0.62500000001E+02  0.99999965258E+01 0.  0.
    3000022    2    5    5    0    0 -0.43317412472E+02 -0.35218605217E+02 -0.21992288303E+02  0.60003929980E+02  0.24998292680E+00 0.  0.
        -13    1    4    4    0    0  0.79576269553E+01  0.74025687207E+01  0.53019366984E+01  0.12093114081E+02  0.10500000000E+00 0.  1.
         13    1    4    4    0    0  0.16992800085E+02  0.16023161479E+02  0.11385004641E+02  0.25983192917E+02  0.10500000000E+00 0. -1.
    3000001    1    5    5    0    0 -0.22591735725E+01 -0.23570920454E+00  0.26634843891E+00  0.24960700212E+01  0.10000000000E+01 0. -1.
        -13    1    6    6    0    0 -0.23795261106E+02 -0.19426785107E+02 -0.12075628443E+02  0.33006760792E+02  0.10500000000E+00 0.  1.
         13    1    6    6    0    0 -0.19522151367E+02 -0.15791820111E+02 -0.99166598600E+01  0.26997169188E+02  0.10500000000E+00 0. -1.
</event>
<event>
11    0  0.3476221E-009  0.9118800E+02  0.7816531E-02  0.1126479E+00
         25   -1    0    0    0    0  0.00000000000E+00  0.00000000000E+00  0.99999998245E-14  0.12500000000E+03  0.12500000000E+03 0.  0.
    3000001    1    3    3    0    0  0.97165415993E+01  0.36211598611E+02 -0.29818592580E+02  0.47914919577E+02  0.10000000000E+01 0.  1.
    1000022    2    1    0    0    0  0.89511772090E+01  0.44475945675E+02 -0.41809291576E+02  0.62500000031E+02  0.99999912324E+01 0.  0.
    3000022    2    3    3    0    0 -0.76536439035E+00  0.82643470647E+01 -0.11990698996E+02  0.14585080455E+02  0.24998877802E+00 0.  0.
    1000022    2    1    0    0    0 -0.89511772090E+01 -0.44475945675E+02  0.41809291576E+02  0.62499999969E+02  0.99999908443E+01 0.  0.
    3000022    2    5    5    0    0  0.74240134422E+00 -0.10723752649E+01  0.36753151797E+01  0.39078883384E+01  0.25000225980E+00 0.  0.
        -13    1    4    4    0    0 -0.33962455574E+00  0.33197574841E+01 -0.47262000928E+01  0.57865470627E+01  0.10500000000E+00 0. -1.
         13    1    4    4    0    0 -0.42573983461E+00  0.49445895806E+01 -0.72644989035E+01  0.87985333918E+01  0.10500000000E+00 0.  1.
    3000001    1    5    5    0    0 -0.96935785532E+01 -0.43403570410E+02  0.38133976396E+02  0.58592111631E+02  0.10000000000E+01 0.  1.
        -13    1    6    6    0    0  0.35797440511E+00 -0.50121676307E+00  0.15422595878E+01  0.16640172939E+01  0.10500000000E+00 0.  1.
         13    1    6    6    0    0  0.38442693912E+00 -0.57115850185E+00  0.21330555920E+01  0.22438710445E+01  0.10500000000E+00 0. -1.
</event>
<event>
11    0  0.3476221E-009  0.9118800E+02  0.7816531E-02  0.1126479E+00
         25   -1    0    0    0    0  0.00000000000E+00  0.00000000000E+00  0.99999998245E-14  0.12500000000E+03  0.12500000000E+03 0.  0.
    3000001    1    3    3    0    0  0.32629528319E+02  0.35834442444E+02  0.40025930071E+01  0.48639635425E+02  0.10000000000E+01 0.  1.
    1000022    2    1    0    0    0  0.45063658153E+02  0.41952844263E+02  0.39338557869E+01  0.62499998013E+02  0.10000005121E+02 0.  0.
    3000022    2    3    3    0    0  0.12434129834E+02  0.61184018192E+01 -0.68737220196E-01  0.13860362588E+02  0.25000139734E+00 0.  0.
    1000022    2    1    0    0    0 -0.45063658153E+02 -0.41952844263E+02 -0.39338557869E+01  0.62500001987E+02  0.10000029957E+02 0.  0.
    3000022    2    5    5    0    0 -0.44503965570E+02 -0.40420142279E+02 -0.26175708100E+01  0.60177280028E+02  0.25000265151E+00 0.  0.
        -13    1    4    4    0    0  0.73114699237E+01  0.36381695031E+01 -0.93275242091E-01  0.81678390686E+01  0.10500000000E+00 0. -1.
         13    1    4    4    0    0  0.51226599105E+01  0.24802323161E+01  0.24538021895E-01  0.56925235191E+01  0.10500000000E+00 0.  1.
    3000001    1    5    5    0    0 -0.55969258341E+00 -0.15327019841E+01 -0.13162849769E+01  0.23227219593E+01  0.10000000000E+01 0. -1.
        -13    1    6    6    0    0 -0.17817878552E+02 -0.16097811657E+02 -0.10432865304E+01  0.24035719420E+02  0.10500000000E+00 0. -1.
         13    1    6    6    0    0 -0.26686087017E+02 -0.24322330622E+02 -0.15742842796E+01  0.36141560608E+02  0.10500000000E+00 0.  1.
</event>
<event>
11    0  0.3476221E-009  0.9118800E+02  0.7816531E-02  0.1126479E+00
         25   -1    0    0    0    0  0.00000000000E+00  0.00000000000E+00  0.99999998245E-14  0.12500000000E+03  0.12500000000E+03 0.  0.
    3000001    1    3    3    0    0 -0.13036601080E+02 -0.38721034937E+01 -0.56656347282E+01  0.14766366177E+02  0.10000000000E+01 0.  1.
    1000022    2    1    0    0    0 -0.59697556404E+02 -0.13817013256E+02 -0.71792961193E+01  0.62499998465E+02  0.99999709730E+01 0.  0.
    3000022    2    3    3    0    0 -0.46660955324E+02 -0.99449097621E+01 -0.15136613911E+01  0.47733632289E+02  0.24999748320E+00 0.  0.
    1000022    2    1    0    0    0  0.59697556404E+02  0.13817013256E+02  0.71792961193E+01  0.62500001535E+02  0.99999901550E+01 0.  0.
    3000022    2    5    5    0    0  0.35645299264E+02  0.93049422570E+01 -0.46172233462E+00  0.36843520458E+02  0.25000433439E+00 0.  0.
        -13    1    4    4    0    0 -0.33657942948E+02 -0.71702152897E+01 -0.11309252493E+01  0.34431949229E+02  0.10500000000E+00 0. -1.
         13    1    4    4    0    0 -0.13003012376E+02 -0.27746944725E+01 -0.38273614178E+00  0.13301683060E+02  0.10500000000E+00 0.  1.
    3000001    1    5    5    0    0  0.24052257140E+02  0.45120709988E+01  0.76410184540E+01  0.25656481077E+02  0.10000000000E+01 0. -1.
        -13    1    6    6    0    0  0.82865784952E+01  0.21621676974E+01 -0.96101298306E-01  0.85651977659E+01  0.10500000000E+00 0.  1.
         13    1    6    6    0    0  0.27358720769E+02  0.71427745596E+01 -0.36562103631E+00  0.28278322692E+02  0.10500000000E+00 0. -1.
</event>
<event>
11    0  0.3476221E-009  0.9118800E+02  0.7816531E-02  0.1126479E+00
         25   -1    0    0    0    0  0.00000000000E+00  0.00000000000E+00  0.99999998245E-14  0.12500000000E+03  0.12500000000E+03 0.  0.
    3000001    1    3    3    0    0  0.54850038992E+01  0.55945568247E+02  0.84741843130E+01  0.56857749463E+02  0.10000000000E+01 0. -1.
    1000022    2    1    0    0    0  0.61352824495E+01  0.60176310370E+02  0.12141673965E+02  0.62500002353E+02  0.10000001348E+02 0.  0.
    3000022    2    3    3    0    0  0.65027855031E+00  0.42307421232E+01  0.36674896518E+01  0.56422528898E+01  0.24999244075E+00 0.  0.
    1000022    2    1    0    0    0 -0.61352824495E+01 -0.60176310370E+02 -0.12141673965E+02  0.62499997647E+02  0.99999719364E+01 0.  0.
    3000022    2    5    5    0    0 -0.99372433832E+00 -0.28428184083E+02 -0.10547070410E+01  0.28466191247E+02  0.24999763222E+00 0.  0.
        -13    1    4    4    0    0  0.48050247904E+00  0.27665689750E+01  0.23902652262E+01  0.36890621271E+01  0.10500000000E+00 0.  1.
         13    1    4    4    0    0  0.16977607127E+00  0.14641731482E+01  0.12772244255E+01  0.19531907627E+01  0.10500000000E+00 0. -1.
    3000001    1    5    5    0    0 -0.51415581111E+01 -0.31748126287E+02 -0.11086966924E+02  0.34033806401E+02  0.10000000000E+01 0.  1.
        -13    1    6    6    0    0 -0.48762733268E+00 -0.15064001336E+02 -0.61390932303E+00  0.15084754765E+02  0.10500000000E+00 0.  1.
         13    1    6    6    0    0 -0.50609700565E+00 -0.13364182747E+02 -0.44079771794E+00  0.13381436481E+02  0.10500000000E+00 0. -1.
</event>
<event>
11    0  0.3476221E-009  0.9118800E+02  0.7816531E-02  0.1126479E+00
         25   -1    0    0    0    0  0.00000000000E+00  0.00000000000E+00  0.99999998245E-14  0.12500000000E+03  0.12500000000E+03 0.  0.
    3000001    1    3    3    0    0  0.91514868934E+01  0.14759284932E+02 -0.34469176574E+02  0.38609718178E+02  0.10000000000E+01 0.  1.
    1000022    2    1    0    0    0  0.21985434076E+02  0.22832920989E+02 -0.52929655023E+02  0.62500000000E+02  0.10000001339E+02 0.  0.
    3000022    2    3    3    0    0  0.12833947183E+02  0.80736360567E+01 -0.18460478449E+02  0.23890281822E+02  0.25000306570E+00 0.  0.
    1000022    2    1    0    0    0 -0.21985434076E+02 -0.22832920989E+02  0.52929655023E+02  0.62500000000E+02  0.10000001337E+02 0.  0.
    3000022    2    5    5    0    0 -0.50268355002E+01 -0.42430015982E+01  0.46901690656E+01  0.80828411799E+01  0.24999593430E+00 0.  0.
        -13    1    4    4    0    0  0.68484666490E+01  0.42613648132E+01 -0.99060595849E+01  0.12775044697E+02  0.10500000000E+00 0. -1.
         13    1    4    4    0    0  0.59854805337E+01  0.38122712435E+01 -0.85544188640E+01  0.11115237125E+02  0.10500000000E+00 0.  1.
    3000001    1    5    5    0    0 -0.16958598576E+02 -0.18589919391E+02  0.48239485957E+02  0.54417158820E+02  0.10000000000E+01 0.  1.
        -13    1    6    6    0    0 -0.15323956357E+01 -0.13315282632E+01  0.14015604128E+01  0.24691295006E+01  0.10500000000E+00 0. -1.
         13    1    6    6    0    0 -0.34944398645E+01 -0.29114733350E+01  0.32886086528E+01  0.56137116793E+01  0.10500000000E+00 0.  1.
</event>
<event>
11    0  0.3476221E-009  0.9118800E+02  0.7816531E-02  0.1126479E+00
         25   -1    0    0    0    0  0.00000000000E+00  0.00000000000E+00  0.99999998245E-14  0.12500000000E+03  0.12500000000E+03 0.  0.
    3000001    1    3    3    0    0  0.47365961065E+02  0.47757597814E+00 -0.14741694091E+02  0.49619349966E+02  0.10000000000E+01 0. -1.
    1000022    2    1    0    0    0  0.57243033770E+02  0.10128961543E+01 -0.22988238871E+02  0.62499999513E+02  0.99999969464E+01 0.  0.
    3000022    2    3    3    0    0  0.98770727053E+01  0.53532017617E+00 -0.82465447804E+01  0.12880649547E+02  0.24999803956E+00 0.  0.
    1000022    2    1    0    0    0 -0.57243033770E+02 -0.10128961543E+01  0.22988238871E+02  0.62500000487E+02  0.10000003029E+02 0.  0.
    3000022    2    5    5    0    0 -0.57076364960E+02 -0.87775407604E+00  0.22748754239E+02  0.61449574496E+02  0.24999401173E+00 0.  0.
        -13    1    4    4    0    0  0.30465418142E+01  0.21262469935E+00 -0.25363639185E+01  0.39712458014E+01  0.10500000000E+00 0. -1.
         13    1    4    4    0    0  0.68305308911E+01  0.32269547682E+00 -0.57101808619E+01  0.89094037455E+01  0.10500000000E+00 0.  1.
    3000001    1    5    5    0    0 -0.16666881052E+00 -0.13514207828E+00  0.23948463205E+00  0.10504259911E+01  0.10000000000E+01 0. -1.
        -13    1    6    6    0    0 -0.14081532271E+02 -0.19947166598E+00  0.55938560589E+01  0.15153599924E+02  0.10500000000E+00 0.  1.
         13    1    6    6    0    0 -0.42994832689E+02 -0.67828241005E+00  0.17154898181E+02  0.46295974572E+02  0.10500000000E+00 0. -1.
</event>
<event>
11    0  0.3476221E-009  0.9118800E+02  0.7816531E-02  0.1126479E+00
         25   -1    0    0    0    0  0.00000000000E+00  0.00000000000E+00  0.99999998245E-14  0.12500000000E+03  0.12500000000E+03 0.  0.
    3000001    1    3    3    0    0  0.16716364588E+02  0.19156235007E+02  0.13086162238E+02  0.28611987467E+02  0.10000000000E+01 0.  1.
    1000022    2    1    0    0    0  0.29070864049E+02  0.48524987372E+02  0.24626413405E+02  0.62499996838E+02  0.99999915765E+01 0.  0.
    3000022    2    3    3    0    0  0.12354499460E+02  0.29368752365E+02  0.11540251167E+02  0.33888009371E+02  0.25001943736E+00 0.  0.
    1000022    2    1    0    0    0 -0.29070864049E+02 -0.48524987372E+02 -0.24626413405E+02  0.62500003162E+02  0.10000031100E+02 0.  0.
    3000022    2    5    5    0    0 -0.26709264512E+02 -0.37954493936E+02 -0.18103715824E+02  0.49817019775E+02  0.25002378951E+00 0.  0.
        -13    1    4    4    0    0  0.86353574892E+01  0.20414537908E+02  0.80461869448E+01  0.23581240559E+02  0.10500000000E+00 0. -1.
         13    1    4    4    0    0  0.37191419713E+01  0.89542144576E+01  0.34940642226E+01  0.10306768812E+02  0.10500000000E+00 0.  1.
    3000001    1    5    5    0    0 -0.23615995367E+01 -0.10570493436E+02 -0.65226975811E+01  0.12682983387E+02  0.10000000000E+01 0.  1.
        -13    1    6    6    0    0 -0.76616001737E+01 -0.10916932341E+02 -0.52440258014E+01  0.14331446562E+02  0.10500000000E+00 0.  1.
         13    1    6    6    0    0 -0.19047664338E+02 -0.27037561595E+02 -0.12859690023E+02  0.35485573213E+02  0.10500000000E+00 0. -1.
</event>
<event>
11    0  0.3476221E-009  0.9118800E+02  0.7816531E-02  0.1126479E+00
         25   -1    0    0    0    0  0.00000000000E+00  0.00000000000E+00  0.99999998245E-14  0.12500000000E+03  0.12500000000E+03 0.  0.
    3000001    1    3    3    0    0 -0.15771020914E+02 -0.90504322128E-01  0.60623474222E+01  0.16925878056E+02  0.10000000000E+01 0.  1.
    1000022    2    1    0    0    0 -0.58457343804E+02 -0.14003121253E+02  0.13888912148E+02  0.62500001038E+02  0.99999899828E+01 0.  0.
    3000022    2    3    3    0    0 -0.42686322890E+02 -0.13912616931E+02  0.78265647262E+01  0.45574122982E+02  0.24999686400E+00 0.  0.
    1000022    2    1    0    0    0  0.58457343804E+02  0.14003121253E+02 -0.13888912148E+02  0.62499998962E+02  0.99999770017E+01 0.  0.
    3000022    2    5    5    0    0  0.45302718987E+01  0.28718315078E+01 -0.36250169396E+01  0.64787329943E+01  0.24990741052E+00 0.  0.
        -13    1    4    4    0    0 -0.18983923505E+02 -0.62025505311E+01  0.34157547437E+01  0.20261771646E+02  0.10500000000E+00 0. -1.
         13    1    4    4    0    0 -0.23702399384E+02 -0.77100664002E+01  0.44108099824E+01  0.25312351336E+02  0.10500000000E+00 0.  1.
    3000001    1    5    5    0    0  0.53927071906E+02  0.11131289746E+02 -0.10263895209E+02  0.56021265967E+02  0.10000000000E+01 0. -1.
        -13    1    6    6    0    0  0.34674175980E+01  0.22087735686E+01 -0.27872589187E+01  0.49680481838E+01  0.10500000000E+00 0. -1.
         13    1    6    6    0    0  0.10628543007E+01  0.66305793920E+00 -0.83775802092E+00  0.15106848105E+01  0.10500000000E+00 0.  1.
</event>
<event>
11    0  0.3476221E-009  0.9118800E+02  0.7816531E-02  0.1126479E+00
         25   -1    0    0    0    0  0.00000000000E+00  0.00000000000E+00  0.99999998245E-14  0.12500000000E+03  0.12500000000E+03 0.  0.
    3000001    1    3    3    0    0  0.21738657585E+00  0.29368621455E+01 -0.11087600559E+01  0.33017821016E+01  0.10000000000E+01 0. -1.
    1000022    2    1    0    0    0  0.72560652852E+01  0.58904683368E+02  0.16847481330E+02  0.62500000827E+02  0.10000013507E+02 0.  0.
    3000022    2    3    3    0    0  0.70386787094E+01  0.55967821222E+02  0.17956241386E+02  0.59198218725E+02  0.24997043483E+00 0.  0.
    1000022    2    1    0    0    0 -0.72560652852E+01 -0.58904683368E+02 -0.16847481330E+02  0.62499999173E+02  0.10000003169E+02 0.  0.
    3000022    2    5    5    0    0 -0.84875590916E+01 -0.47033385697E+02 -0.16349469457E+02  0.50512826812E+02  0.24998311121E+00 0.  0.
        -13    1    4    4    0    0  0.31668282448E+01  0.25338893419E+02  0.81956775342E+01  0.26819181122E+02  0.10500000000E+00 0. -1.
         13    1    4    4    0    0  0.38718504646E+01  0.30628927804E+02  0.97605638513E+01  0.32379037603E+02  0.10500000000E+00 0.  1.
    3000001    1    5    5    0    0  0.12314938064E+01 -0.11871297671E+02 -0.49801187247E+00  0.11987172361E+02  0.10000000000E+01 0.  1.
        -13    1    6    6    0    0 -0.40719706479E+01 -0.22629918934E+02 -0.77953391729E+01  0.24279055042E+02  0.10500000000E+00 0. -1.
         13    1    6    6    0    0 -0.44155884437E+01 -0.24403466763E+02 -0.85541302843E+01  0.26233771770E+02  0.10500000000E+00 0.  1.
</event>
<event>
11    0  0.3476221E-009  0.9118800E+02  0.7816531E-02  0.1126479E+00
         25   -1    0    0    0    0  0.00000000000E+00  0.00000000000E+00  0.99999998245E-14  0.12500000000E+03  0.12500000000E+03 0.  0.
    3000001    1    3    3    0    0  0.51176655438E+02 -0.98847176913E+01 -0.24998543727E+02  0.57815957089E+02  0.10000000000E+01 0.  1.
    1000022    2    1    0    0    0  0.53335287699E+02 -0.10977975056E+02 -0.29001399709E+02  0.62500000478E+02  0.10000001219E+02 0.  0.
    3000022    2    3    3    0    0  0.21586322607E+01 -0.10932573648E+01 -0.40028559820E+01  0.46840433886E+01  0.25000310118E+00 0.  0.
    1000022    2    1    0    0    0 -0.53335287699E+02  0.10977975056E+02  0.29001399709E+02  0.62499999522E+02  0.99999952492E+01 0.  0.
    3000022    2    5    5    0    0 -0.25826211064E+02  0.68404620572E+01  0.88884902339E+01  0.28157643187E+02  0.25002427144E+00 0.  0.
        -13    1    4    4    0    0  0.10776077811E+01 -0.56188288622E+00 -0.21378437399E+01  0.24613719272E+01  0.10500000000E+00 0. -1.
         13    1    4    4    0    0  0.10810244797E+01 -0.53137447862E+00 -0.18650122421E+01  0.22226714614E+01  0.10500000000E+00 0.  1.
    3000001    1    5    5    0    0 -0.27509076635E+02  0.41375129990E+01  0.20112909475E+02  0.34342356336E+02  0.10000000000E+01 0.  1.
        -13    1    6    6    0    0 -0.98804782697E+01  0.26784936412E+01  0.34213205972E+01  0.10794194674E+02  0.10500000000E+00 0. -1.
         13    1    6    6    0    0 -0.15945732794E+02  0.41619684160E+01  0.54671696367E+01  0.17363448513E+02  0.10500000000E+00 0.  1.
</event>
<event>
11    0  0.3476221E-009  0.9118800E+02  0.7816531E-02  0.1126479E+00
         25   -1    0    0    0    0  0.00000000000E+00  0.00000000000E+00  0.99999998245E-14  0.12500000000E+03  0.12500000000E+03 0.  0.
    3000001    1    3    3    0    0 -0.13905897501E+02 -0.89474522559E+01  0.16440682828E+02  0.23339386004E+02  0.10000000000E+01 0.  1.
    1000022    2    1    0    0    0 -0.26486344511E+02 -0.30283278008E+02  0.46772283447E+02  0.62499998939E+02  0.99999998043E+01 0.  0.
    3000022    2    3    3    0    0 -0.12580447010E+02 -0.21335825752E+02  0.30331600619E+02  0.39160612935E+02  0.25000373371E+00 0.  0.
    1000022    2    1    0    0    0  0.26486344511E+02  0.30283278008E+02 -0.46772283447E+02  0.62500001061E+02  0.10000013061E+02 0.  0.
    3000022    2    5    5    0    0  0.22338224601E+02  0.29638503113E+02 -0.41200902992E+02  0.55452809164E+02  0.24998341058E+00 0.  0.
        -13    1    4    4    0    0 -0.67638199140E+01 -0.11599358117E+02  0.16467622613E+02  0.21248246706E+02  0.10500000000E+00 0. -1.
         13    1    4    4    0    0 -0.58166270957E+01 -0.97364676350E+01  0.13863978006E+02  0.17912366229E+02  0.10500000000E+00 0.  1.
    3000001    1    5    5    0    0  0.41481199100E+01  0.64477489530E+00 -0.55713804552E+01  0.70471918968E+01  0.10000000000E+01 0. -1.
        -13    1    6    6    0    0  0.65143723989E+01  0.85734182157E+01 -0.11940628125E+02  0.16078873489E+02  0.10500000000E+00 0.  1.
         13    1    6    6    0    0  0.15823852202E+02  0.21065084897E+02 -0.29260274867E+02  0.39373935675E+02  0.10500000000E+00 0. -1.
</event>
<event>
11    0  0.3476221E-009  0.9118800E+02  0.7816531E-02  0.1126479E+00
         25   -1    0    0    0    0  0.00000000000E+00  0.00000000000E+00  0.99999998245E-14  0.12500000000E+03  0.12500000000E+03 0.  0.
    3000001    1    3    3    0    0  0.12955839482E+02 -0.44952435037E+02 -0.71915527795E+01  0.47342302689E+02  0.10000000000E+01 0.  1.
    1000022    2    1    0    0    0  0.14082467894E+02 -0.59874563786E+02 -0.47927838145E+01  0.62500000775E+02  0.10000001480E+02 0.  0.
    3000022    2    3    3    0    0  0.11266284117E+01 -0.14922128749E+02  0.23987689650E+01  0.15157698086E+02  0.25000150223E+00 0.  0.
    1000022    2    1    0    0    0 -0.14082467894E+02  0.59874563786E+02  0.47927838145E+01  0.62499999225E+02  0.99999917934E+01 0.  0.
    3000022    2    5    5    0    0 -0.57227134719E+01  0.23689843253E+02 -0.29500148409E+01  0.24550421822E+02  0.25000247440E+00 0.  0.
        -13    1    4    4    0    0  0.50469089965E+00 -0.62830971037E+01  0.10686082923E+01  0.63941356571E+01  0.10500000000E+00 0.  1.
         13    1    4    4    0    0  0.62193751200E+00 -0.86390316452E+01  0.13301606726E+01  0.87635624292E+01  0.10500000000E+00 0. -1.
    3000001    1    5    5    0    0 -0.83597544222E+01  0.36184720533E+02  0.77427986554E+01  0.37949577403E+02  0.10000000000E+01 0. -1.
        -13    1    6    6    0    0 -0.15430863475E+01  0.64243542407E+01 -0.83546725076E+00  0.66605160020E+01  0.10500000000E+00 0. -1.
         13    1    6    6    0    0 -0.41796271243E+01  0.17265489013E+02 -0.21145475901E+01  0.17889905820E+02  0.10500000000E+00 0.  1.
</event>
<event>
11    0  0.3476221E-009  0.9118800E+02  0.7816531E-02  0.1126479E+00
         25   -1    0    0    0    0  0.00000000000E+00  0.00000000000E+00  0.99999998245E-14  0.12500000000E+03  0.12500000000E+03 0.  0.
    3000001    1    3    3    0    0 -0.12597109791E+02 -0.22146189138E+02 -0.44996263498E+02  0.51718513099E+02  0.10000000000E+01 0. -1.
    1000022    2    1    0    0    0 -0.18453585404E+02 -0.23619811644E+02 -0.53924203097E+02  0.62500000792E+02  0.10000005145E+02 0.  0.
    3000022    2    3    3    0    0 -0.58564756133E+01 -0.14736225065E+01 -0.89279395993E+01  0.10781487693E+02  0.25000294804E+00 0.  0.
    1000022    2    1    0    0    0  0.18453585404E+02  0.23619811644E+02  0.53924203097E+02  0.62499999208E+02  0.99999952498E+01 0.  0.
    3000022    2    5    5    0    0  0.23732388714E+01  0.76910837552E+00  0.11108741005E+01  0.27423226788E+01  0.25000394714E+00 0.  0.
        -13    1    4    4    0    0 -0.37780076909E+01 -0.99028837069E+00 -0.56962432556E+01  0.69074036654E+01  0.10500000000E+00 0.  1.
         13    1    4    4    0    0 -0.20784679225E+01 -0.48333413576E+00 -0.32316963437E+01  0.38740840272E+01  0.10500000000E+00 0. -1.
    3000001    1    5    5    0    0  0.16080346533E+02  0.22850703269E+02  0.52813328997E+02  0.59757676530E+02  0.10000000000E+01 0.  1.
        -13    1    6    6    0    0  0.13777164440E+01  0.37958179123E+00  0.61842764055E+00  0.15606609762E+01  0.10500000000E+00 0.  1.
         13    1    6    6    0    0  0.99552242748E+00  0.38952658429E+00  0.49244645992E+00  0.11816617026E+01  0.10500000000E+00 0. -1.
</event>
<event>
11    0  0.3476221E-009  0.9118800E+02  0.7816531E-02  0.1126479E+00
         25   -1    0    0    0    0  0.00000000000E+00  0.00000000000E+00  0.99999998245E-14  0.12500000000E+03  0.12500000000E+03 0.  0.
    3000001    1    3    3    0    0 -0.36146442083E+01  0.21527211689E+02  0.11591326026E+02  0.24735507573E+02  0.10000000000E+01 0. -1.
    1000022    2    1    0    0    0 -0.13357255050E+01  0.49254799921E+02  0.37127221521E+02  0.62500002579E+02  0.10000013333E+02 0.  0.
    3000022    2    3    3    0    0  0.22789187033E+01  0.27727588232E+02  0.25535895495E+02  0.37764495006E+02  0.25000943806E+00 0.  0.
    1000022    2    1    0    0    0  0.13357255050E+01 -0.49254799921E+02 -0.37127221521E+02  0.62499997421E+02  0.99999810902E+01 0.  0.
    3000022    2    5    5    0    0  0.39348157748E+01 -0.31442247172E+02 -0.19074646789E+02  0.36986515492E+02  0.24999141300E+00 0.  0.
        -13    1    4    4    0    0  0.10699558570E+01  0.13656564917E+02  0.12514586406E+02  0.18554580803E+02  0.10500000000E+00 0. -1.
         13    1    4    4    0    0  0.12089628463E+01  0.14071023315E+02  0.13021309089E+02  0.19209914203E+02  0.10500000000E+00 0.  1.
    3000001    1    5    5    0    0 -0.25990902698E+01 -0.17812552749E+02 -0.18052574732E+02  0.25513481929E+02  0.10000000000E+01 0. -1.
        -13    1    6    6    0    0  0.21898838448E+01 -0.16994895048E+02 -0.10286657504E+02  0.19986205156E+02  0.10500000000E+00 0. -1.
         13    1    6    6    0    0  0.17449319300E+01 -0.14447352124E+02 -0.87879892849E+01  0.17000310336E+02  0.10500000000E+00 0.  1.
</event>
<event>
11    0  0.3476221E-009  0.9118800E+02  0.7816531E-02  0.1126479E+00
         25   -1    0    0    0    0  0.00000000000E+00  0.00000000000E+00  0.99999998245E-14  0.12500000000E+03  0.12500000000E+03 0.  0.
    3000001    1    3    3    0    0 -0.97723519859E+00 -0.25594933353E+01 -0.73575971011E+00  0.30078791727E+01  0.10000000000E+01 0.  1.
    1000022    2    1    0    0    0  0.18268048867E+02 -0.53783606569E+02 -0.24080119807E+02  0.62499999520E+02  0.99999912541E+01 0.  0.
    3000022    2    3    3    0    0  0.19245284066E+02 -0.51224113234E+02 -0.23344360097E+02  0.59492120347E+02  0.24999942741E+00 0.  0.
    1000022    2    1    0    0    0 -0.18268048867E+02  0.53783606569E+02  0.24080119807E+02  0.62500000480E+02  0.99999972575E+01 0.  0.
    3000022    2    5    5    0    0 -0.18832352679E+02  0.44545812343E+02  0.19985963018E+02  0.52330565847E+02  0.24999875092E+00 0.  0.
        -13    1    4    4    0    0  0.13125250287E+02 -0.34795141670E+02 -0.15879254459E+02  0.40436812759E+02  0.10500000000E+00 0.  1.
         13    1    4    4    0    0  0.61200337791E+01 -0.16428971563E+02 -0.74651056376E+01  0.19055307588E+02  0.10500000000E+00 0. -1.
    3000001    1    5    5    0    0  0.56430381166E+00  0.92377942262E+01  0.40941567887E+01  0.10169434634E+02  0.10000000000E+01 0. -1.
        -13    1    6    6    0    0 -0.58638925595E+01  0.13987966868E+02  0.62482355560E+01  0.16404265470E+02  0.10500000000E+00 0. -1.
         13    1    6    6    0    0 -0.12968460119E+02  0.30557845475E+02  0.13737727462E+02  0.35926300377E+02  0.10500000000E+00 0.  1.
</event>
<event>
11    0  0.3476221E-009  0.9118800E+02  0.7816531E-02  0.1126479E+00
         25   -1    0    0    0    0  0.00000000000E+00  0.00000000000E+00  0.99999998245E-14  0.12500000000E+03  0.12500000000E+03 0.  0.
    3000001    1    3    3    0    0 -0.41560462353E+02 -0.31403941053E+02  0.21484845270E+01  0.52144947314E+02  0.10000000000E+01 0. -1.
    1000022    2    1    0    0    0 -0.48543738473E+02 -0.37462415526E+02  0.68060955881E+01  0.62499999194E+02  0.99999920093E+01 0.  0.
    3000022    2    3    3    0    0 -0.69832761203E+01 -0.60584744730E+01  0.46576110610E+01  0.10355051880E+02  0.25000067618E+00 0.  0.
    1000022    2    1    0    0    0  0.48543738473E+02  0.37462415526E+02 -0.68060955881E+01  0.62500000806E+02  0.10000002081E+02 0.  0.
    3000022    2    5    5    0    0  0.52811541335E+01  0.25070647519E+01 -0.33997408069E+01  0.67673263290E+01  0.25001087208E+00 0.  0.
        -13    1    4    4    0    0 -0.24753882053E+01 -0.22191143618E+01  0.16514114706E+01  0.37135158762E+01  0.10500000000E+00 0. -1.
         13    1    4    4    0    0 -0.45078879150E+01 -0.38393601112E+01  0.30061995905E+01  0.66415360043E+01  0.10500000000E+00 0.  1.
    3000001    1    5    5    0    0  0.43262584339E+02  0.34955350774E+02 -0.34063547811E+01  0.55732674477E+02  0.10000000000E+01 0.  1.
        -13    1    6    6    0    0  0.27967232788E+01  0.13936525726E+01 -0.18527142084E+01  0.36342129174E+01  0.10500000000E+00 0.  1.
         13    1    6    6    0    0  0.24844308547E+01  0.11134121793E+01 -0.15470265985E+01  0.31331134115E+01  0.10500000000E+00 0. -1.
</event>
<event>
11    0  0.3476221E-009  0.9118800E+02  0.7816531E-02  0.1126479E+00
         25   -1    0    0    0    0  0.00000000000E+00  0.00000000000E+00  0.99999998245E-14  0.12500000000E+03  0.12500000000E+03 0.  0.
    3000001    1    3    3    0    0  0.26237872167E+01  0.80362301110E+01  0.50177947294E+00  0.85274284749E+01  0.10000000000E+01 0. -1.
    1000022    2    1    0    0    0  0.36085717938E+02  0.47224905851E+02  0.16549296128E+02  0.62499999281E+02  0.99999967979E+01 0.  0.
    3000022    2    3    3    0    0  0.33461930722E+02  0.39188675740E+02  0.16047516655E+02  0.53972570806E+02  0.24998936599E+00 0.  0.
    1000022    2    1    0    0    0 -0.36085717938E+02 -0.47224905851E+02 -0.16549296128E+02  0.62500000719E+02  0.10000005788E+02 0.  0.
    3000022    2    5    5    0    0 -0.16504989767E+02 -0.19298465147E+02 -0.11962085892E+02  0.28071328019E+02  0.25002725167E+00 0.  0.
        -13    1    4    4    0    0  0.20987990316E+02  0.24547665632E+02  0.10116476678E+02  0.33844316374E+02  0.10500000000E+00 0.  1.
         13    1    4    4    0    0  0.12473940406E+02  0.14641010109E+02  0.59310399767E+01  0.20128254432E+02  0.10500000000E+00 0. -1.
    3000001    1    5    5    0    0 -0.19580728172E+02 -0.27926440704E+02 -0.45872102356E+01  0.34428672700E+02  0.10000000000E+01 0.  1.
        -13    1    6    6    0    0 -0.56499396306E+01 -0.65267109019E+01 -0.40867328228E+01  0.95515539674E+01  0.10500000000E+00 0.  1.
         13    1    6    6    0    0 -0.10855050136E+02 -0.12771754245E+02 -0.78753530696E+01  0.18519774052E+02  0.10500000000E+00 0. -1.
</event>
<event>
11    0  0.3476221E-009  0.9118800E+02  0.7816531E-02  0.1126479E+00
         25   -1    0    0    0    0  0.00000000000E+00  0.00000000000E+00  0.99999998245E-14  0.12500000000E+03  0.12500000000E+03 0.  0.
    3000001    1    3    3    0    0  0.27159829754E+01  0.42727786550E+01  0.78080980938E+01  0.93594656257E+01  0.10000000000E+01 0. -1.
    1000022    2    1    0    0    0  0.27722160488E+02  0.77558113272E+01  0.54567196637E+02  0.62499998406E+02  0.10000003024E+02 0.  0.
    3000022    2    3    3    0    0  0.25006177513E+02  0.34830326723E+01  0.46759098543E+02  0.53140532780E+02  0.24999443279E+00 0.  0.
    1000022    2    1    0    0    0 -0.27722160488E+02 -0.77558113272E+01 -0.54567196637E+02  0.62500001594E+02  0.10000022946E+02 0.  0.
    3000022    2    5    5    0    0 -0.20917989187E+02 -0.53916592932E+01 -0.30625586335E+02  0.37478277716E+02  0.25000136391E+00 0.  0.
        -13    1    4    4    0    0  0.12208640547E+02  0.17605569206E+01  0.22912663664E+02  0.26022137611E+02  0.10500000000E+00 0. -1.
         13    1    4    4    0    0  0.12797536966E+02  0.17224757517E+01  0.23846434879E+02  0.27118395169E+02  0.10500000000E+00 0.  1.
    3000001    1    5    5    0    0 -0.68041713018E+01 -0.23641520340E+01 -0.23941610302E+02  0.25021723878E+02  0.10000000000E+01 0. -1.
        -13    1    6    6    0    0 -0.89600070884E+01 -0.23582109948E+01 -0.13214360699E+02  0.16139183368E+02  0.10500000000E+00 0. -1.
         13    1    6    6    0    0 -0.11957982098E+02 -0.30334482984E+01 -0.17411225636E+02  0.21339094348E+02  0.10500000000E+00 0.  1.
</event>
<event>
11    0  0.3476221E-009  0.9118800E+02  0.7816531E-02  0.1126479E+00
         25   -1    0    0    0    0  0.00000000000E+00  0.00000000000E+00  0.99999998245E-14  0.12500000000E+03  0.12500000000E+03 0.  0.
    3000001    1    3    3    0    0 -0.23539733122E+00  0.86129192442E-01  0.31437875369E+00  0.10778052431E+01  0.10000000000E+01 0.  1.
    1000022    2    1    0    0    0 -0.33133750165E+02 -0.34998197003E+02  0.38516634271E+02  0.62500003122E+02  0.10000004067E+02 0.  0.
    3000022    2    3    3    0    0 -0.32898352834E+02 -0.35084326195E+02  0.38202255517E+02  0.61422197879E+02  0.25000400818E+00 0.  0.
    1000022    2    1    0    0    0  0.33133750165E+02  0.34998197003E+02 -0.38516634271E+02  0.62499996878E+02  0.99999650365E+01 0.  0.
    3000022    2    5    5    0    0  0.22336670188E+02  0.20598013867E+02 -0.29478332814E+02  0.42334851116E+02  0.25000634562E+00 0.  0.
        -13    1    4    4    0    0 -0.22461657284E+02 -0.23921413927E+02  0.26121226871E+02  0.41941502244E+02  0.10500000000E+00 0.  1.
         13    1    4    4    0    0 -0.10436695549E+02 -0.11162912268E+02  0.12081028646E+02  0.19480695635E+02  0.10500000000E+00 0. -1.
    3000001    1    5    5    0    0  0.10797079977E+02  0.14400183136E+02 -0.90383014571E+01  0.20165145762E+02  0.10000000000E+01 0.  1.
        -13    1    6    6    0    0  0.83538775693E+01  0.76241645683E+01 -0.10954765369E+02  0.15745890419E+02  0.10500000000E+00 0. -1.
         13    1    6    6    0    0  0.13982792618E+02  0.12973849299E+02 -0.18523567445E+02  0.26588960696E+02  0.10500000000E+00 0.  1.
</event>
<event>
11    0  0.3476221E-009  0.9118800E+02  0.7816531E-02  0.1126479E+00
         25   -1    0    0    0    0  0.00000000000E+00  0.00000000000E+00  0.99999998245E-14  0.12500000000E+03  0.12500000000E+03 0.  0.
    3000001    1    3    3    0    0  0.23250600568E+02  0.15357513918E+02  0.16423634942E+02  0.32360152120E+02  0.10000000000E+01 0.  1.
    1000022    2    1    0    0    0  0.40739188375E+02  0.37207414439E+02  0.27607532273E+02  0.62500008088E+02  0.10000100708E+02 0.  0.
    3000022    2    3    3    0    0  0.17488587807E+02  0.21849900520E+02  0.11183897330E+02  0.30139855968E+02  0.25000407814E+00 0.  0.
    1000022    2    1    0    0    0 -0.40739188375E+02 -0.37207414439E+02 -0.27607532273E+02  0.62499991912E+02  0.99999996059E+01 0.  0.
    3000022    2    5    5    0    0 -0.31419333213E+02 -0.32058105988E+02 -0.25412246303E+02  0.51582375036E+02  0.24998620580E+00 0.  0.
        -13    1    4    4    0    0  0.53745461599E+01  0.67823983971E+01  0.34833624172E+01  0.93290681834E+01  0.10500000000E+00 0. -1.
         13    1    4    4    0    0  0.12114041647E+02  0.15067502123E+02  0.77005349130E+01  0.20810787784E+02  0.10500000000E+00 0.  1.
    3000001    1    5    5    0    0 -0.93198551617E+01 -0.51493084508E+01 -0.21952859699E+01  0.10917616876E+02  0.10000000000E+01 0. -1.
        -13    1    6    6    0    0 -0.22142289793E+02 -0.22555544180E+02 -0.17935654079E+02  0.36341880562E+02  0.10500000000E+00 0.  1.
         13    1    6    6    0    0 -0.92770434200E+01 -0.95025618079E+01 -0.74765922233E+01  0.15240494474E+02  0.10500000000E+00 0. -1.
</event>
<event>
11    0  0.3476221E-009  0.9118800E+02  0.7816531E-02  0.1126479E+00
         25   -1    0    0    0    0  0.00000000000E+00  0.00000000000E+00  0.99999998245E-14  0.12500000000E+03  0.12500000000E+03 0.  0.
    3000001    1    3    3    0    0 -0.31818506680E+00  0.15760876775E+01 -0.26841370440E+01  0.32847961542E+01  0.10000000000E+01 0.  1.
    1000022    2    1    0    0    0 -0.40616607946E+02  0.15466065133E+02 -0.43787464504E+02  0.62500000084E+02  0.99999975598E+01 0.  0.
    3000022    2    3    3    0    0 -0.40298422879E+02  0.13889977455E+02 -0.41103327460E+02  0.59215203930E+02  0.24997602147E+00 0.  0.
    1000022    2    1    0    0    0  0.40616607946E+02 -0.15466065133E+02  0.43787464504E+02  0.62499999916E+02  0.99999965047E+01 0.  0.
    3000022    2    5    5    0    0  0.32709431564E+02 -0.83308723027E+01  0.31019586110E+02  0.45843075418E+02  0.24998950652E+00 0.  0.
        -13    1    4    4    0    0 -0.96736269372E+01  0.33347836454E+01 -0.98942507422E+01  0.14234010778E+02  0.10500000000E+00 0. -1.
         13    1    4    4    0    0 -0.30624795942E+02  0.10555193810E+02 -0.31209076717E+02  0.44981193152E+02  0.10500000000E+00 0.  1.
    3000001    1    5    5    0    0  0.79071763813E+01 -0.71351928300E+01  0.12767878393E+02  0.16656924497E+02  0.10000000000E+01 0.  1.
        -13    1    6    6    0    0  0.15437984178E+02 -0.39160647464E+01  0.14726051231E+02  0.21691807865E+02  0.10500000000E+00 0. -1.
         13    1    6    6    0    0  0.17271447386E+02 -0.44148075564E+01  0.16293534879E+02  0.24151267553E+02  0.10500000000E+00 0.  1.
</event>
<event>
11    0  0.3476221E-009  0.9118800E+02  0.7816531E-02  0.1126479E+00
         25   -1    0    0    0    0  0.00000000000E+00  0.00000000000E+00  0.99999998245E-14  0.12500000000E+03  0.12500000000E+03 0.  0.
    3000001    1    3    3    0    0  0.12878289017E+01  0.24412060888E+01 -0.84476835698E+01  0.89432291787E+01  0.10000000000E+01 0.  1.
    1000022    2    1    0    0    0  0.88135140977E+01 -0.64704748681E+01 -0.60718241723E+02  0.62500000493E+02  0.10000005395E+02 0.  0.
    3000022    2    3    3    0    0  0.75256851960E+01 -0.89116809570E+01 -0.52270558154E+02  0.53556771315E+02  0.25001759523E+00 0.  0.
    1000022    2    1    0    0    0 -0.88135140977E+01  0.64704748681E+01  0.60718241723E+02  0.62499999507E+02  0.99999992286E+01 0.  0.
    3000022    2    5    5    0    0 -0.41341305696E+01  0.35658555112E+01  0.50944469716E+02  0.51236782246E+02  0.24999834032E+00 0.  0.
        -13    1    4    4    0    0  0.18136897751E+01 -0.21598398278E+01 -0.12733859878E+02  0.13042875108E+02  0.10500000000E+00 0. -1.
         13    1    4    4    0    0  0.57119954209E+01 -0.67518411292E+01 -0.39536698275E+02  0.40513896207E+02  0.10500000000E+00 0.  1.
    3000001    1    5    5    0    0 -0.46793835280E+01  0.29046193569E+01  0.97737720078E+01  0.11263217261E+02  0.10000000000E+01 0.  1.
        -13    1    6    6    0    0 -0.30663266327E+01  0.26722136722E+01  0.37733163386E+02  0.37951887029E+02  0.10500000000E+00 0. -1.
         13    1    6    6    0    0 -0.10678039370E+01  0.89364183901E+00  0.13211306330E+02  0.13284895217E+02  0.10500000000E+00 0.  1.
</event>
<event>
11    0  0.3476221E-009  0.9118800E+02  0.7816531E-02  0.1126479E+00
         25   -1    0    0    0    0  0.00000000000E+00  0.00000000000E+00  0.99999998245E-14  0.12500000000E+03  0.12500000000E+03 0.  0.
    3000001    1    3    3    0    0  0.55175362095E-02 -0.67123463393E+01  0.76094879440E+01  0.10196074274E+02  0.10000000000E+01 0.  1.
    1000022    2    1    0    0    0 -0.13480096043E+02 -0.50797117653E+02  0.32313925095E+02  0.62499999119E+02  0.99999991801E+01 0.  0.
    3000022    2    3    3    0    0 -0.13485613579E+02 -0.44084771314E+02  0.24704437151E+02  0.52303924845E+02  0.25000772220E+00 0.  0.
    1000022    2    1    0    0    0  0.13480096043E+02  0.50797117653E+02 -0.32313925095E+02  0.62500000881E+02  0.10000010195E+02 0.  0.
    3000022    2    5    5    0    0  0.10342805864E+02  0.30664337292E+02 -0.24752805605E+02  0.40743577400E+02  0.24999871427E+00 0.  0.
        -13    1    4    4    0    0 -0.79761203433E+01 -0.26257039523E+02  0.14666387802E+02  0.31115343102E+02  0.10500000000E+00 0. -1.
         13    1    4    4    0    0 -0.55094932362E+01 -0.17827731791E+02  0.10038049349E+02  0.21188581743E+02  0.10500000000E+00 0.  1.
    3000001    1    5    5    0    0  0.31372901794E+01  0.20132780361E+02 -0.75611194899E+01  0.21756423481E+02  0.10000000000E+01 0.  1.
        -13    1    6    6    0    0  0.69221583279E+01  0.20358387403E+02 -0.16462298383E+02  0.27081331330E+02  0.10500000000E+00 0.  1.
         13    1    6    6    0    0  0.34206475359E+01  0.10305949889E+02 -0.82905072224E+01  0.13662246071E+02  0.10500000000E+00 0. -1.
</event>
<event>
11    0  0.3476221E-009  0.9118800E+02  0.7816531E-02  0.1126479E+00
         25   -1    0    0    0    0  0.00000000000E+00  0.00000000000E+00  0.99999998245E-14  0.12500000000E+03  0.12500000000E+03 0.  0.
    3000001    1    3    3    0    0  0.31748980869E+02  0.40916234050E+02 -0.15872113816E+02  0.54176193961E+02  0.10000000000E+01 0. -1.
    1000022    2    1    0    0    0  0.38823099257E+02  0.44054348451E+02 -0.18927001639E+02  0.62500000182E+02  0.99999989159E+01 0.  0.
    3000022    2    3    3    0    0  0.70741183875E+01  0.31381144015E+01 -0.30548878226E+01  0.83238062213E+01  0.24999488616E+00 0.  0.
    1000022    2    1    0    0    0 -0.38823099257E+02 -0.44054348451E+02  0.18927001639E+02  0.62499999818E+02  0.99999966415E+01 0.  0.
    3000022    2    5    5    0    0 -0.12540165280E+02 -0.12403345729E+02  0.10384999875E+02  0.20469720424E+02  0.25000264616E+00 0.  0.
        -13    1    4    4    0    0  0.16192278686E+01  0.71822251162E+00 -0.70359341615E+00  0.19088769373E+01  0.10500000000E+00 0.  1.
         13    1    4    4    0    0  0.54548905189E+01  0.24198918899E+01 -0.23512944064E+01  0.64149292839E+01  0.10500000000E+00 0. -1.
    3000001    1    5    5    0    0 -0.26282933977E+02 -0.31651002723E+02  0.85420017637E+01  0.42030279394E+02  0.10000000000E+01 0. -1.
        -13    1    6    6    0    0 -0.61454962390E+01 -0.60361546814E+01  0.50013690284E+01  0.99612752456E+01  0.10500000000E+00 0. -1.
         13    1    6    6    0    0 -0.63946690412E+01 -0.63671910472E+01  0.53836308469E+01  0.10508445179E+02  0.10500000000E+00 0.  1.
</event>
<event>
11    0  0.3476221E-009  0.9118800E+02  0.7816531E-02  0.1126479E+00
         25   -1    0    0    0    0  0.00000000000E+00  0.00000000000E+00  0.99999998245E-14  0.12500000000E+03  0.12500000000E+03 0.  0.
    3000001    1    3    3    0    0 -0.35693286417E+01  0.10449020512E+02  0.46481122918E+02  0.47785111952E+02  0.10000000000E+01 0. -1.
    1000022    2    1    0    0    0 -0.12326132852E+01  0.93684715888E+01  0.60966896187E+02  0.62500000720E+02  0.10000003195E+02 0.  0.
    3000022    2    3    3    0    0  0.23367153565E+01 -0.10805489236E+01  0.14485773269E+02  0.14714888768E+02  0.24999919180E+00 0.  0.
    1000022    2    1    0    0    0  0.12326132852E+01 -0.93684715888E+01 -0.60966896187E+02  0.62499999280E+02  0.99999941963E+01 0.  0.
    3000022    2    5    5    0    0  0.39645109916E+01 -0.90091843083E-01 -0.15128557428E+02  0.15641650014E+02  0.25000272061E+00 0.  0.
        -13    1    4    4    0    0  0.12753720568E+01 -0.66230558507E+00  0.81133703527E+01  0.82403292441E+01  0.10500000000E+00 0. -1.
         13    1    4    4    0    0  0.10613432998E+01 -0.41824333855E+00  0.63724029167E+01  0.64745595234E+01  0.10500000000E+00 0.  1.
    3000001    1    5    5    0    0 -0.27318977064E+01 -0.92783797458E+01 -0.45838338759E+02  0.46858349266E+02  0.10000000000E+01 0. -1.
        -13    1    6    6    0    0  0.25961013355E+01 -0.11416911633E+00 -0.98719154979E+01  0.10208747099E+02  0.10500000000E+00 0.  1.
         13    1    6    6    0    0  0.13684096561E+01  0.24077273243E-01 -0.52566419299E+01  0.54329029148E+01  0.10500000000E+00 0. -1.
</event>
<event>
11    0  0.3476221E-009  0.9118800E+02  0.7816531E-02  0.1126479E+00
         25   -1    0    0    0    0  0.00000000000E+00  0.00000000000E+00  0.99999998245E-14  0.12500000000E+03  0.12500000000E+03 0.  0.
    3000001    1    3    3    0    0 -0.32844684205E+02  0.43291765448E+02 -0.38614438092E+01  0.54487255248E+02  0.10000000000E+01 0. -1.
    1000022    2    1    0    0    0 -0.39856468622E+02  0.46761372013E+02 -0.55755645719E+01  0.62499995069E+02  0.99999229892E+01 0.  0.
    3000022    2    3    3    0    0 -0.70117844175E+01  0.34696065646E+01 -0.17141207626E+01  0.80127398215E+01  0.24999805473E+00 0.  0.
    1000022    2    1    0    0    0  0.39856468622E+02 -0.46761372013E+02  0.55755645719E+01  0.62500004931E+02  0.99999846240E+01 0.  0.
    3000022    2    5    5    0    0  0.26195994131E+02 -0.24363938145E+02  0.60943813091E+00  0.35780798000E+02  0.25000043007E+00 0.  0.
        -13    1    4    4    0    0 -0.29088235274E+01  0.13707241707E+01 -0.72291458102E+00  0.32975399251E+01  0.10500000000E+00 0. -1.
         13    1    4    4    0    0 -0.41029608901E+01  0.20988823939E+01 -0.99120618163E+00  0.47151998965E+01  0.10500000000E+00 0.  1.
    3000001    1    5    5    0    0  0.13660474491E+02 -0.22397433868E+02  0.49661264410E+01  0.26719206931E+02  0.10000000000E+01 0.  1.
        -13    1    6    6    0    0  0.13061097409E+02 -0.12063428075E+02  0.27466381588E+00  0.17782154753E+02  0.10500000000E+00 0. -1.
         13    1    6    6    0    0  0.13134896722E+02 -0.12300510069E+02  0.33477431503E+00  0.17998643246E+02  0.10500000000E+00 0.  1.
</event>
<event>
11    0  0.3476221E-009  0.9118800E+02  0.7816531E-02  0.1126479E+00
         25   -1    0    0    0    0  0.00000000000E+00  0.00000000000E+00  0.99999998245E-14  0.12500000000E+03  0.12500000000E+03 0.  0.
    3000001    1    3    3    0    0  0.22369838285E+02  0.10372988714E+02 -0.96437016344E+00  0.24696934416E+02  0.10000000000E+01 0. -1.
    1000022    2    1    0    0    0  0.59795836472E+02  0.14597289369E+02 -0.41984488993E+01  0.62500000705E+02  0.10000009932E+02 0.  0.
    3000022    2    3    3    0    0  0.37425998187E+02  0.42243006551E+01 -0.32340787358E+01  0.37803066288E+02  0.24999843294E+00 0.  0.
    1000022    2    1    0    0    0 -0.59795836472E+02 -0.14597289369E+02  0.41984488993E+01  0.62499999295E+02  0.10000001123E+02 0.  0.
    3000022    2    5    5    0    0 -0.34541661780E+02 -0.78776061714E+01 -0.24565675148E+01  0.35514508284E+02  0.24999437956E+00 0.  0.
        -13    1    4    4    0    0  0.21630608247E+02  0.24709827000E+01 -0.18112633183E+01  0.21846754186E+02  0.10500000000E+00 0. -1.
         13    1    4    4    0    0  0.15795389940E+02  0.17533179550E+01 -0.14228154175E+01  0.15956312102E+02  0.10500000000E+00 0.  1.
    3000001    1    5    5    0    0 -0.25254174691E+02 -0.67196831978E+01  0.66550164141E+01  0.26985491011E+02  0.10000000000E+01 0.  1.
        -13    1    6    6    0    0 -0.23135331527E+02 -0.52220003651E+01 -0.16469232362E+01  0.23774697345E+02  0.10500000000E+00 0.  1.
         13    1    6    6    0    0 -0.11406330253E+02 -0.26556058063E+01 -0.80964427859E+00  0.11739810940E+02  0.10500000000E+00 0. -1.
</event>
<event>
11    0  0.3476221E-009  0.9118800E+02  0.7816531E-02  0.1126479E+00
         25   -1    0    0    0    0  0.00000000000E+00  0.00000000000E+00  0.99999998245E-14  0.12500000000E+03  0.12500000000E+03 0.  0.
    3000001    1    3    3    0    0  0.21592558410E+01  0.48804195163E+00 -0.63742524665E+01  0.68214122614E+01  0.10000000000E+01 0.  1.
    1000022    2    1    0    0    0 -0.69888712043E+01  0.88309264877E+01 -0.60658230106E+02  0.62499995890E+02  0.99999511656E+01 0.  0.
    3000022    2    3    3    0    0 -0.91481270453E+01  0.83428845361E+01 -0.54283977640E+02  0.55678583629E+02  0.24999139905E+00 0.  0.
    1000022    2    1    0    0    0  0.69888712043E+01 -0.88309264877E+01  0.60658230106E+02  0.62500004110E+02  0.10000002538E+02 0.  0.
    3000022    2    5    5    0    0  0.46517490211E+01 -0.48914474371E+01  0.53615979101E+02  0.54039807037E+02  0.25000532001E+00 0.  0.
        -13    1    4    4    0    0 -0.35206135015E+01  0.31757919850E+01 -0.20540929997E+02  0.21081299873E+02  0.10500000000E+00 0.  1.
         13    1    4    4    0    0 -0.56275135438E+01  0.51670925511E+01 -0.33743047642E+02  0.34597283756E+02  0.10500000000E+00 0. -1.
    3000001    1    5    5    0    0  0.23371221832E+01 -0.39394790506E+01  0.70422510056E+01  0.84601970731E+01  0.10000000000E+01 0.  1.
        -13    1    6    6    0    0  0.12674097411E+01 -0.13053220004E+01  0.14711167872E+02  0.14823618928E+02  0.10500000000E+00 0. -1.
         13    1    6    6    0    0  0.33843392799E+01 -0.35861254368E+01  0.38904811229E+02  0.39216188109E+02  0.10500000000E+00 0.  1.
</event>
<event>
11    0  0.3476221E-009  0.9118800E+02  0.7816531E-02  0.1126479E+00
         25   -1    0    0    0    0  0.00000000000E+00  0.00000000000E+00  0.99999998245E-14  0.12500000000E+03  0.12500000000E+03 0.  0.
    3000001    1    3    3    0    0  0.81945698924E+01 -0.28131059656E+02  0.50332982869E+02  0.58248748120E+02  0.10000000000E+01 0.  1.
    1000022    2    1    0    0    0  0.10956514480E+02 -0.28694306455E+02  0.53505527639E+02  0.62499999995E+02  0.10000003950E+02 0.  0.
    3000022    2    3    3    0    0  0.27619445879E+01 -0.56324679912E+00  0.31725447696E+01  0.42512518748E+01  0.25003464596E+00 0.  0.
    1000022    2    1    0    0    0 -0.10956514480E+02  0.28694306455E+02 -0.53505527639E+02  0.62500000005E+02  0.10000004012E+02 0.  0.
    3000022    2    5    5    0    0 -0.31261864498E+01  0.90453298069E+01 -0.26539949721E+02  0.28213869969E+02  0.24998885575E+00 0.  0.
        -13    1    4    4    0    0  0.11632247701E+01 -0.18084837284E+00  0.12750713931E+01  0.17385712689E+01  0.10500000000E+00 0. -1.
         13    1    4    4    0    0  0.15987198178E+01 -0.38239842628E+00  0.18974733766E+01  0.25126806058E+01  0.10500000000E+00 0.  1.
    3000001    1    5    5    0    0 -0.78303280305E+01  0.19648976648E+02 -0.26965577918E+02  0.34286130036E+02  0.10000000000E+01 0.  1.
        -13    1    6    6    0    0 -0.10446593933E+01  0.28968532494E+01 -0.86319680598E+01  0.91654224988E+01  0.10500000000E+00 0.  1.
         13    1    6    6    0    0 -0.20815270565E+01  0.61484765575E+01 -0.17907981661E+02  0.19048447471E+02  0.10500000000E+00 0. -1.
</event>
<event>
11    0  0.3476221E-009  0.9118800E+02  0.7816531E-02  0.1126479E+00
         25   -1    0    0    0    0  0.00000000000E+00  0.00000000000E+00  0.99999998245E-14  0.12500000000E+03  0.12500000000E+03 0.  0.
    3000001    1    3    3    0    0 -0.52763150784E+02 -0.82188751430E+01  0.19305577963E+02  0.56790891256E+02  0.10000000000E+01 0.  1.
    1000022    2    1    0    0    0 -0.56638462784E+02 -0.72227727064E+01  0.23370197942E+02  0.62500001448E+02  0.10000005851E+02 0.  0.
    3000022    2    3    3    0    0 -0.38753120008E+01  0.99610243656E+00  0.40646199793E+01  0.57091101917E+01  0.25008086214E+00 0.  0.
    1000022    2    1    0    0    0  0.56638462784E+02  0.72227727064E+01 -0.23370197942E+02  0.62499998552E+02  0.99999877507E+01 0.  0.
    3000022    2    5    5    0    0 -0.87229899436E-01  0.83086665792E+00 -0.31289250823E+00  0.92646521787E+00  0.24997523801E+00 0.  0.
        -13    1    4    4    0    0 -0.19667862610E+01  0.46119165895E+00  0.19767071984E+01  0.28283108548E+01  0.10500000000E+00 0. -1.
         13    1    4    4    0    0 -0.19085257397E+01  0.53491077761E+00  0.20879127809E+01  0.28807993369E+01  0.10500000000E+00 0.  1.
    3000001    1    5    5    0    0  0.56725692684E+02  0.63919060485E+01 -0.23057305434E+02  0.61573533334E+02  0.10000000000E+01 0.  1.
        -13    1    6    6    0    0 -0.68984285116E-01  0.51010848968E+00 -0.25339228426E+00  0.58326850811E+00  0.10500000000E+00 0.  1.
         13    1    6    6    0    0 -0.18245614320E-01  0.32075816824E+00 -0.59500223971E-01  0.34319670976E+00  0.10500000000E+00 0. -1.
</event>
<event>
11    0  0.3476221E-009  0.9118800E+02  0.7816531E-02  0.1126479E+00
         25   -1    0    0    0    0  0.00000000000E+00  0.00000000000E+00  0.99999998245E-14  0.12500000000E+03  0.12500000000E+03 0.  0.
    3000001    1    3    3    0    0 -0.88829135421E+01 -0.28716917431E+02  0.19531312486E+02  0.35861395220E+02  0.10000000000E+01 0.  1.
    1000022    2    1    0    0    0 -0.22907529518E+02 -0.48786846245E+02  0.30022303539E+02  0.62500000390E+02  0.10000003188E+02 0.  0.
    3000022    2    3    3    0    0 -0.14024615976E+02 -0.20069928815E+02  0.10490991054E+02  0.26638605170E+02  0.24999244079E+00 0.  0.
    1000022    2    1    0    0    0  0.22907529518E+02  0.48786846245E+02 -0.30022303539E+02  0.62499999610E+02  0.99999983137E+01 0.  0.
    3000022    2    5    5    0    0 -0.96289239429E+00  0.13177202898E+01 -0.12313037715E+01  0.20596436476E+01  0.24994889886E+00 0.  0.
        -13    1    4    4    0    0 -0.72933530760E+01 -0.10546697477E+02  0.54669378576E+01  0.13940023719E+02  0.10500000000E+00 0.  1.
         13    1    4    4    0    0 -0.67312628999E+01 -0.95232313379E+01  0.50240531963E+01  0.12698581451E+02  0.10500000000E+00 0. -1.
    3000001    1    5    5    0    0  0.23870421912E+02  0.47469125955E+02 -0.28790999768E+02  0.60440355962E+02  0.10000000000E+01 0.  1.
        -13    1    6    6    0    0 -0.48193661282E+00  0.70651726078E+00 -0.56742596644E+00  0.10317106018E+01  0.10500000000E+00 0.  1.
         13    1    6    6    0    0 -0.48095578147E+00  0.61120302905E+00 -0.66387780503E+00  0.10279330457E+01  0.10500000000E+00 0. -1.
</event>
<event>
11    0  0.3476221E-009  0.9118800E+02  0.7816531E-02  0.1126479E+00
         25   -1    0    0    0    0  0.00000000000E+00  0.00000000000E+00  0.99999998245E-14  0.12500000000E+03  0.12500000000E+03 0.  0.
    3000001    1    3    3    0    0  0.34454915059E+01 -0.14112741564E+02 -0.33402866040E+02  0.36438885080E+02  0.10000000000E+01 0. -1.
    1000022    2    1    0    0    0 -0.53839589029E+00 -0.19040685343E+02 -0.58680592613E+02  0.62500004586E+02  0.10000052768E+02 0.  0.
    3000022    2    3    3    0    0 -0.39838873962E+01 -0.49279437794E+01 -0.25277726573E+02  0.26061119507E+02  0.25000107911E+00 0.  0.
    1000022    2    1    0    0    0  0.53839589029E+00  0.19040685343E+02  0.58680592613E+02  0.62499995414E+02  0.99999954391E+01 0.  0.
    3000022    2    5    5    0    0 -0.46812231414E+01  0.92740118590E+01  0.27815365461E+02  0.29693066558E+02  0.24999964410E+00 0.  0.
        -13    1    4    4    0    0 -0.11352161826E+01 -0.13710019713E+01 -0.69680654772E+01  0.71925881073E+01  0.10500000000E+00 0. -1.
         13    1    4    4    0    0 -0.28486712135E+01 -0.35569418081E+01 -0.18309661096E+02  0.18868531399E+02  0.10500000000E+00 0.  1.
    3000001    1    5    5    0    0  0.52196190316E+01  0.97666734845E+01  0.30865227153E+02  0.32806928856E+02  0.10000000000E+01 0. -1.
        -13    1    6    6    0    0 -0.20385767283E+01  0.41543261821E+01  0.12508107493E+02  0.13337091105E+02  0.10500000000E+00 0.  1.
         13    1    6    6    0    0 -0.26426464130E+01  0.51196856769E+01  0.15307257968E+02  0.16355975452E+02  0.10500000000E+00 0. -1.
</event>
<event>
11    0  0.3476221E-009  0.9118800E+02  0.7816531E-02  0.1126479E+00
         25   -1    0    0    0    0  0.00000000000E+00  0.00000000000E+00  0.99999998245E-14  0.12500000000E+03  0.12500000000E+03 0.  0.
    3000001    1    3    3    0    0 -0.38262193102E+02 -0.21234176478E+02 -0.82129834284E+01  0.44534691741E+02  0.10000000000E+01 0.  1.
    1000022    2    1    0    0    0 -0.55821105743E+02 -0.25020356261E+02 -0.80147499211E+01  0.62500002069E+02  0.99999984272E+01 0.  0.
    3000022    2    3    3    0    0 -0.17558912641E+02 -0.37861797836E+01  0.19823350721E+00  0.17965310328E+02  0.25001636994E+00 0.  0.
    1000022    2    1    0    0    0  0.55821105743E+02  0.25020356261E+02  0.80147499211E+01  0.62499997931E+02  0.99999725608E+01 0.  0.
    3000022    2    5    5    0    0  0.54794674313E+02  0.24154494581E+02  0.64865993120E+01  0.60233167056E+02  0.25000282121E+00 0.  0.
        -13    1    4    4    0    0 -0.12171513427E+02 -0.26730517129E+01  0.13960214152E+00  0.12462802988E+02  0.10500000000E+00 0.  1.
         13    1    4    4    0    0 -0.53873992132E+01 -0.11131280708E+01  0.58631365691E-01  0.55025073395E+01  0.10500000000E+00 0. -1.
    3000001    1    5    5    0    0  0.10264314296E+01  0.86586168055E+00  0.15281506092E+01  0.22668308745E+01  0.10000000000E+01 0. -1.
        -13    1    6    6    0    0  0.26309647453E+02  0.11531342354E+02  0.30818086040E+01  0.28890793946E+02  0.10500000000E+00 0.  1.
         13    1    6    6    0    0  0.28485026860E+02  0.12623152227E+02  0.34047907080E+01  0.31342373110E+02  0.10500000000E+00 0. -1.
</event>
<event>
11    0  0.3476221E-009  0.9118800E+02  0.7816531E-02  0.1126479E+00
         25   -1    0    0    0    0  0.00000000000E+00  0.00000000000E+00  0.99999998245E-14  0.12500000000E+03  0.12500000000E+03 0.  0.
    3000001    1    3    3    0    0 -0.82186594212E-01 -0.44399981787E+02  0.17872248485E+02  0.47872564202E+02  0.10000000000E+01 0. -1.
    1000022    2    1    0    0    0 -0.40701888174E+01 -0.55645332271E+02  0.26330224553E+02  0.62500001742E+02  0.10000002609E+02 0.  0.
    3000022    2    3    3    0    0 -0.39880022232E+01 -0.11245350484E+02  0.84579760683E+01  0.14627437540E+02  0.25000117850E+00 0.  0.
    1000022    2    1    0    0    0  0.40701888174E+01  0.55645332271E+02 -0.26330224553E+02  0.62499998258E+02  0.99999808363E+01 0.  0.
    3000022    2    5    5    0    0  0.52546791669E+01  0.24815701860E+02 -0.15797134663E+02  0.29883819584E+02  0.24999488559E+00 0.  0.
        -13    1    4    4    0    0 -0.18798837866E+01 -0.51321517000E+01  0.39187369330E+01  0.67261034986E+01  0.10500000000E+00 0. -1.
         13    1    4    4    0    0 -0.21081184366E+01 -0.61131987836E+01  0.45392391353E+01  0.79013340417E+01  0.10500000000E+00 0.  1.
    3000001    1    5    5    0    0 -0.11844903494E+01  0.30829630411E+02 -0.10533089891E+02  0.32616178674E+02  0.10000000000E+01 0.  1.
        -13    1    6    6    0    0  0.33749815716E+01  0.15944908642E+02 -0.10081828063E+02  0.19164678299E+02  0.10500000000E+00 0.  1.
         13    1    6    6    0    0  0.18796975953E+01  0.88707932180E+01 -0.57153065996E+01  0.10719141285E+02  0.10500000000E+00 0. -1.
</event>
<event>
11    0  0.3476221E-009  0.9118800E+02  0.7816531E-02  0.1126479E+00
         25   -1    0    0    0    0  0.00000000000E+00  0.00000000000E+00  0.99999998245E-14  0.12500000000E+03  0.12500000000E+03 0.  0.
    3000001    1    3    3    0    0  0.12115260410E+02  0.15174847372E+02  0.35952972724E+01  0.19773256941E+02  0.10000000000E+01 0.  1.
    1000022    2    1    0    0    0  0.43927679763E+02  0.43305618921E+02 -0.11101913704E+01  0.62499998705E+02  0.99999816897E+01 0.  0.
    3000022    2    3    3    0    0  0.31812419353E+02  0.28130771549E+02 -0.47054886428E+01  0.42726741765E+02  0.25001082923E+00 0.  0.
    1000022    2    1    0    0    0 -0.43927679763E+02 -0.43305618921E+02  0.11101913704E+01  0.62500001295E+02  0.99999978740E+01 0.  0.
    3000022    2    5    5    0    0 -0.17654415417E+02 -0.16322573221E+02 -0.43389317893E+01  0.24433452754E+02  0.25000822030E+00 0.  0.
        -13    1    4    4    0    0  0.81122802060E+01  0.71590179743E+01 -0.11717884749E+01  0.10883232136E+02  0.10500000000E+00 0.  1.
         13    1    4    4    0    0  0.23700139147E+02  0.20971753574E+02 -0.35337001678E+01  0.31843509629E+02  0.10500000000E+00 0. -1.
    3000001    1    5    5    0    0 -0.26273264346E+02 -0.26983045700E+02  0.54491231598E+01  0.38066548541E+02  0.10000000000E+01 0.  1.
        -13    1    6    6    0    0 -0.13395260185E+02 -0.12377468393E+02 -0.32709515629E+01  0.18529567409E+02  0.10500000000E+00 0.  1.
         13    1    6    6    0    0 -0.42591552321E+01 -0.39451048286E+01 -0.10679802265E+01  0.59038853448E+01  0.10500000000E+00 0. -1.
</event>
<event>
11    0  0.3476221E-009  0.9118800E+02  0.7816531E-02  0.1126479E+00
         25   -1    0    0    0    0  0.00000000000E+00  0.00000000000E+00  0.99999998245E-14  0.12500000000E+03  0.12500000000E+03 0.  0.
    3000001    1    3    3    0    0 -0.26369670807E+02  0.30297025490E+02  0.79757427207E+01  0.40961955079E+02  0.10000000000E+01 0. -1.
    1000022    2    1    0    0    0 -0.39439002370E+02  0.47169253838E+02  0.50868882206E+01  0.62500002757E+02  0.10000024861E+02 0.  0.
    3000022    2    3    3    0    0 -0.13069331563E+02  0.16872228349E+02 -0.28888545000E+01  0.21538047678E+02  0.25000094790E+00 0.  0.
    1000022    2    1    0    0    0  0.39439002370E+02 -0.47169253838E+02 -0.50868882206E+01  0.62499997243E+02  0.99999904014E+01 0.  0.
    3000022    2    5    5    0    0  0.10348158453E+02 -0.15837711205E+02  0.24383199070E+01  0.19076829223E+02  0.25005926637E+00 0.  0.
        -13    1    4    4    0    0 -0.55729977155E+01  0.71007037759E+01 -0.11912103324E+01  0.91053997554E+01  0.10500000000E+00 0.  1.
         13    1    4    4    0    0 -0.74963338477E+01  0.97715245730E+01 -0.16976441676E+01  0.12432647922E+02  0.10500000000E+00 0. -1.
    3000001    1    5    5    0    0  0.29090843917E+02 -0.31331542633E+02 -0.75252081276E+01  0.43423168021E+02  0.10000000000E+01 0. -1.
        -13    1    6    6    0    0  0.66359635467E+01 -0.10068394388E+02  0.15203681638E+01  0.12154469223E+02  0.10500000000E+00 0. -1.
         13    1    6    6    0    0  0.37121949064E+01 -0.57693168173E+01  0.91795174317E+00  0.69223599997E+01  0.10500000000E+00 0.  1.
</event>
<event>
11    0  0.3476221E-009  0.9118800E+02  0.7816531E-02  0.1126479E+00
         25   -1    0    0    0    0  0.00000000000E+00  0.00000000000E+00  0.99999998245E-14  0.12500000000E+03  0.12500000000E+03 0.  0.
    3000001    1    3    3    0    0  0.97176815922E+01 -0.41514775848E+01  0.14783820706E+02  0.18199710336E+02  0.10000000000E+01 0. -1.
    1000022    2    1    0    0    0  0.19224405354E+02 -0.15822424457E+02  0.56447526745E+02  0.62500000506E+02  0.99999955354E+01 0.  0.
    3000022    2    3    3    0    0  0.95067237617E+01 -0.11670946872E+02  0.41663706039E+02  0.44300290170E+02  0.25002123440E+00 0.  0.
    1000022    2    1    0    0    0 -0.19224405354E+02  0.15822424457E+02 -0.56447526745E+02  0.62499999494E+02  0.99999892106E+01 0.  0.
    3000022    2    5    5    0    0 -0.13155387786E+01  0.12448106564E+01 -0.39710860608E+00  0.18709330351E+01  0.24999865676E+00 0.  0.
        -13    1    4    4    0    0  0.24582441868E+01 -0.30605117697E+01  0.10918690478E+02  0.11603384141E+02  0.10500000000E+00 0. -1.
         13    1    4    4    0    0  0.70484795749E+01 -0.86104351023E+01  0.30745015561E+02  0.32696906029E+02  0.10500000000E+00 0.  1.
    3000001    1    5    5    0    0 -0.17908866575E+02  0.14577613800E+02 -0.56050418139E+02  0.60629066459E+02  0.10000000000E+01 0.  1.
        -13    1    6    6    0    0 -0.53580039339E+00  0.43385089723E+00 -0.18208725474E+00  0.72075615219E+00  0.10500000000E+00 0. -1.
         13    1    6    6    0    0 -0.77973838526E+00  0.81095975915E+00 -0.21502135134E+00  0.11501768829E+01  0.10500000000E+00 0.  1.
</event>
<event>
11    0  0.3476221E-009  0.9118800E+02  0.7816531E-02  0.1126479E+00
         25   -1    0    0    0    0  0.00000000000E+00  0.00000000000E+00  0.99999998245E-14  0.12500000000E+03  0.12500000000E+03 0.  0.
    3000001    1    3    3    0    0  0.41854698882E+02 -0.26693115628E+02  0.51311111334E+00  0.49654823768E+02  0.10000000000E+01 0. -1.
    1000022    2    1    0    0    0  0.53731946769E+02 -0.30042779175E+02  0.40693510528E+01  0.62500002192E+02  0.99999985936E+01 0.  0.
    3000022    2    3    3    0    0  0.11877247888E+02 -0.33496635466E+01  0.35562399394E+01  0.12845178424E+02  0.25000596702E+00 0.  0.
    1000022    2    1    0    0    0 -0.53731946769E+02  0.30042779175E+02 -0.40693510528E+01  0.62499997808E+02  0.99999711893E+01 0.  0.
    3000022    2    5    5    0    0 -0.16743490359E+02  0.45452386647E+01  0.28171652034E+00  0.17353544252E+02  0.24993991072E+00 0.  0.
        -13    1    4    4    0    0  0.67261575293E+01 -0.19493731017E+01  0.20616970040E+01  0.73008814629E+01  0.10500000000E+00 0.  1.
         13    1    4    4    0    0  0.51510903583E+01 -0.14002904449E+01  0.14945429354E+01  0.55442969613E+01  0.10500000000E+00 0. -1.
    3000001    1    5    5    0    0 -0.36988456410E+02  0.25497540510E+02 -0.43510675731E+01  0.45146453556E+02  0.10000000000E+01 0. -1.
        -13    1    6    6    0    0 -0.91839905736E+01  0.25040355855E+01  0.88730932032E-01  0.95202297896E+01  0.10500000000E+00 0.  1.
         13    1    6    6    0    0 -0.75594997859E+01  0.20412030792E+01  0.19298558831E+00  0.78333144620E+01  0.10500000000E+00 0. -1.
</event>
<event>
11    0  0.3476221E-009  0.9118800E+02  0.7816531E-02  0.1126479E+00
         25   -1    0    0    0    0  0.00000000000E+00  0.00000000000E+00  0.99999998245E-14  0.12500000000E+03  0.12500000000E+03 0.  0.
    3000001    1    3    3    0    0 -0.27643806227E+01 -0.24683069117E+02 -0.47192243639E+01  0.25301517343E+02  0.10000000000E+01 0. -1.
    1000022    2    1    0    0    0 -0.17982371984E+02 -0.57328200258E+02 -0.14012917450E+02  0.62499999593E+02  0.99999923320E+01 0.  0.
    3000022    2    3    3    0    0 -0.15217991361E+02 -0.32645131141E+02 -0.92936930857E+01  0.37198482250E+02  0.25000444447E+00 0.  0.
    1000022    2    1    0    0    0  0.17982371984E+02  0.57328200258E+02  0.14012917450E+02  0.62500000407E+02  0.99999974226E+01 0.  0.
    3000022    2    5    5    0    0  0.95306638286E+01  0.16523307212E+02  0.23818856011E+01  0.19224700650E+02  0.25000363407E+00 0.  0.
        -13    1    4    4    0    0 -0.40345903190E+01 -0.86836033202E+01 -0.25038526112E+01  0.98976355036E+01  0.10500000000E+00 0.  1.
         13    1    4    4    0    0 -0.11183401042E+02 -0.23961527821E+02 -0.67898404745E+01  0.27300846746E+02  0.10500000000E+00 0. -1.
    3000001    1    5    5    0    0  0.84517081554E+01  0.40804893046E+02  0.11631031848E+02  0.43275299757E+02  0.10000000000E+01 0.  1.
        -13    1    6    6    0    0  0.34234300685E+01  0.59469254602E+01  0.79869077598E+00  0.69090323359E+01  0.10500000000E+00 0. -1.
         13    1    6    6    0    0  0.61072337601E+01  0.10576381752E+02  0.15831948251E+01  0.12315668314E+02  0.10500000000E+00 0.  1.
</event>
<event>
11    0  0.3476221E-009  0.9118800E+02  0.7816531E-02  0.1126479E+00
         25   -1    0    0    0    0  0.00000000000E+00  0.00000000000E+00  0.99999998245E-14  0.12500000000E+03  0.12500000000E+03 0.  0.
    3000001    1    3    3    0    0 -0.47262388790E+02  0.35671117048E+02  0.58064901876E+01  0.59505271312E+02  0.10000000000E+01 0.  1.
    1000022    2    1    0    0    0 -0.50131899716E+02  0.35611124692E+02  0.49890456318E+01  0.62500000333E+02  0.99999947206E+01 0.  0.
    3000022    2    3    3    0    0 -0.28695109259E+01 -0.59992356208E-01 -0.81744455581E+00  0.29947290216E+01  0.24998854811E+00 0.  0.
    1000022    2    1    0    0    0  0.50131899716E+02 -0.35611124692E+02 -0.49890456318E+01  0.62499999667E+02  0.99999905528E+01 0.  0.
    3000022    2    5    5    0    0  0.83791094151E+01 -0.21974449078E+01 -0.22010809946E+01  0.89412259556E+01  0.25005065421E+00 0.  0.
        -13    1    4    4    0    0 -0.13047655782E+01 -0.37499787963E-01 -0.30333691815E+00  0.13441940835E+01  0.10500000000E+00 0.  1.
         13    1    4    4    0    0 -0.15647453477E+01 -0.22492568245E-01 -0.51410763766E+00  0.16505349381E+01  0.10500000000E+00 0. -1.
    3000001    1    5    5    0    0  0.41752790301E+02 -0.33413679784E+02 -0.27879646372E+01  0.53558773711E+02  0.10000000000E+01 0.  1.
        -13    1    6    6    0    0  0.22974393647E+01 -0.58255794043E+00 -0.56949507659E+00  0.24398670109E+01  0.10500000000E+00 0.  1.
         13    1    6    6    0    0  0.60816700504E+01 -0.16148869674E+01 -0.16315859180E+01  0.65013589447E+01  0.10500000000E+00 0. -1.
</event>
<event>
11    0  0.3476221E-009  0.9118800E+02  0.7816531E-02  0.1126479E+00
         25   -1    0    0    0    0  0.00000000000E+00  0.00000000000E+00  0.99999998245E-14  0.12500000000E+03  0.12500000000E+03 0.  0.
    3000001    1    3    3    0    0  0.87335505134E+01 -0.32892852950E+01 -0.10900244135E+02  0.14384353462E+02  0.10000000000E+01 0. -1.
    1000022    2    1    0    0    0  0.22113841414E+02 -0.14844071060E+02 -0.55649632353E+02  0.62500000653E+02  0.10000003642E+02 0.  0.
    3000022    2    3    3    0    0  0.13380290901E+02 -0.11554785765E+02 -0.44749388218E+02  0.48115647191E+02  0.25000003570E+00 0.  0.
    1000022    2    1    0    0    0 -0.22113841414E+02  0.14844071060E+02  0.55649632353E+02  0.62499999347E+02  0.99999954820E+01 0.  0.
    3000022    2    5    5    0    0 -0.14820048983E+02  0.71082783121E+01  0.23940129561E+02  0.29040554271E+02  0.25003313416E+00 0.  0.
        -13    1    4    4    0    0  0.83212786159E+01 -0.71551203823E+01 -0.27930317532E+02  0.30009216716E+02  0.10500000000E+00 0.  1.
         13    1    4    4    0    0  0.50590122850E+01 -0.43996653829E+01 -0.16819070686E+02  0.18106430474E+02  0.10500000000E+00 0. -1.
    3000001    1    5    5    0    0 -0.72937924314E+01  0.77357927481E+01  0.31709502792E+02  0.33459445076E+02  0.10000000000E+01 0. -1.
        -13    1    6    6    0    0 -0.77904627651E+01  0.36685133423E+01  0.12591509368E+02  0.15254718398E+02  0.10500000000E+00 0.  1.
         13    1    6    6    0    0 -0.70295862179E+01  0.34397649698E+01  0.11348620193E+02  0.13785835874E+02  0.10500000000E+00 0. -1.
</event>
<event>
11    0  0.3476221E-009  0.9118800E+02  0.7816531E-02  0.1126479E+00
         25   -1    0    0    0    0  0.00000000000E+00  0.00000000000E+00  0.99999998245E-14  0.12500000000E+03  0.12500000000E+03 0.  0.
    3000001    1    3    3    0    0 -0.15223103666E+02 -0.16769701014E+02  0.15796050257E+02  0.27631159242E+02  0.10000000000E+01 0. -1.
    1000022    2    1    0    0    0 -0.24344661217E+02 -0.40784096058E+02  0.39373149305E+02  0.62500000222E+02  0.10000006024E+02 0.  0.
    3000022    2    3    3    0    0 -0.91215575510E+01 -0.24014395044E+02  0.23577099048E+02  0.34868840980E+02  0.24998055605E+00 0.  0.
    1000022    2    1    0    0    0  0.24344661217E+02  0.40784096058E+02 -0.39373149305E+02  0.62499999778E+02  0.10000003253E+02 0.  0.
    3000022    2    5    5    0    0  0.24483183984E+02  0.39654146138E+02 -0.36298202052E+02  0.59071986361E+02  0.24999309014E+00 0.  0.
        -13    1    4    4    0    0 -0.52800139387E+01 -0.13981136379E+02  0.13795139322E+02  0.20338820407E+02  0.10500000000E+00 0. -1.
         13    1    4    4    0    0 -0.38415436123E+01 -0.10033258665E+02  0.97819597262E+01  0.14530020573E+02  0.10500000000E+00 0.  1.
    3000001    1    5    5    0    0 -0.13852276726E+00  0.11299499206E+01 -0.30749472532E+01  0.34280134174E+01  0.10000000000E+01 0. -1.
        -13    1    6    6    0    0  0.86848399351E+01  0.14111871335E+02 -0.12972396135E+02  0.21044368457E+02  0.10500000000E+00 0.  1.
         13    1    6    6    0    0  0.15798344049E+02  0.25542274803E+02 -0.23325805917E+02  0.38027617904E+02  0.10500000000E+00 0. -1.
</event>
<event>
11    0  0.3476221E-009  0.9118800E+02  0.7816531E-02  0.1126479E+00
         25   -1    0    0    0    0  0.00000000000E+00  0.00000000000E+00  0.99999998245E-14  0.12500000000E+03  0.12500000000E+03 0.  0.
    3000001    1    3    3    0    0  0.24028479686E+01  0.22720589161E+00 -0.71341645207E+01  0.75974735463E+01  0.10000000000E+01 0. -1.
    1000022    2    1    0    0    0  0.32857861245E+02  0.21144252171E+02 -0.47744438711E+02  0.62500000940E+02  0.10000012213E+02 0.  0.
    3000022    2    3    3    0    0  0.30455013277E+02  0.20917046279E+02 -0.40610274190E+02  0.54902527394E+02  0.24997145901E+00 0.  0.
    1000022    2    1    0    0    0 -0.32857861245E+02 -0.21144252171E+02  0.47744438711E+02  0.62499999060E+02  0.10000000458E+02 0.  0.
    3000022    2    5    5    0    0 -0.20218431768E+02 -0.18310757873E+02  0.30693869975E+02  0.41063913557E+02  0.25001111842E+00 0.  0.
        -13    1    4    4    0    0  0.22195122136E+02  0.15255592861E+02 -0.29550789750E+02  0.39982705762E+02  0.10500000000E+00 0.  1.
         13    1    4    4    0    0  0.82598911406E+01  0.56614534183E+01 -0.11059484440E+02  0.14919821632E+02  0.10500000000E+00 0. -1.
    3000001    1    5    5    0    0 -0.12639429478E+02 -0.28334942982E+01  0.17050568736E+02  0.21436085503E+02  0.10000000000E+01 0.  1.
        -13    1    6    6    0    0 -0.15252234588E+02 -0.13828516933E+02  0.23196256763E+02  0.31015091380E+02  0.10500000000E+00 0.  1.
         13    1    6    6    0    0 -0.49661971798E+01 -0.44822409397E+01  0.74976132121E+01  0.10048822177E+02  0.10500000000E+00 0. -1.
</event>
<event>
11    0  0.3476221E-009  0.9118800E+02  0.7816531E-02  0.1126479E+00
         25   -1    0    0    0    0  0.00000000000E+00  0.00000000000E+00  0.99999998245E-14  0.12500000000E+03  0.12500000000E+03 0.  0.
    3000001    1    3    3    0    0 -0.27098567713E+01 -0.47403940421E+01  0.68391432183E+01  0.88084356929E+01  0.10000000000E+01 0. -1.
    1000022    2    1    0    0    0 -0.16213142162E+02 -0.50303975359E+02  0.31825996580E+02  0.62499999310E+02  0.99999969876E+01 0.  0.
    3000022    2    3    3    0    0 -0.13503285391E+02 -0.45563581317E+02  0.24986853361E+02  0.53691563617E+02  0.25000792140E+00 0.  0.
    1000022    2    1    0    0    0  0.16213142162E+02  0.50303975359E+02 -0.31825996580E+02  0.62500000690E+02  0.10000005612E+02 0.  0.
    3000022    2    5    5    0    0  0.14928579182E+02  0.34803190665E+02 -0.19303763342E+02  0.42506732987E+02  0.25002637893E+00 0.  0.
        -13    1    4    4    0    0 -0.91157781411E+01 -0.30641021141E+02  0.16763118359E+02  0.36096852353E+02  0.10500000000E+00 0.  1.
         13    1    4    4    0    0 -0.43875072499E+01 -0.14922560176E+02  0.82237350028E+01  0.17594711264E+02  0.10500000000E+00 0. -1.
    3000001    1    5    5    0    0  0.12845629800E+01  0.15500784694E+02 -0.12522233238E+02  0.19993267703E+02  0.10000000000E+01 0.  1.
        -13    1    6    6    0    0  0.68250435630E+01  0.15988992227E+02 -0.87947353680E+01  0.19483005088E+02  0.10500000000E+00 0. -1.
         13    1    6    6    0    0  0.81035356193E+01  0.18814198438E+02 -0.10509027974E+02  0.23023727898E+02  0.10500000000E+00 0.  1.
</event>
<event>
11    0  0.3476221E-009  0.9118800E+02  0.7816531E-02  0.1126479E+00
         25   -1    0    0    0    0  0.00000000000E+00  0.00000000000E+00  0.99999998245E-14  0.12500000000E+03  0.12500000000E+03 0.  0.
    3000001    1    3    3    0    0  0.15437926392E+01 -0.76771130269E+01 -0.76859370306E+00  0.79317145953E+01  0.10000000000E+01 0. -1.
    1000022    2    1    0    0    0  0.21253550023E+02 -0.55412172183E+02  0.16853120805E+02  0.62499999659E+02  0.10000003093E+02 0.  0.
    3000022    2    3    3    0    0  0.19709757384E+02 -0.47735059156E+02  0.17621714508E+02  0.54568285064E+02  0.25000760931E+00 0.  0.
    1000022    2    1    0    0    0 -0.21253550023E+02  0.55412172183E+02 -0.16853120805E+02  0.62500000341E+02  0.10000007358E+02 0.  0.
    3000022    2    5    5    0    0 -0.73196224826E+01  0.32696964791E+02 -0.99670521026E+01  0.34958160792E+02  0.24999705781E+00 0.  0.
        -13    1    4    4    0    0  0.70930821331E+01 -0.17318215448E+02  0.63601702000E+01  0.19766010989E+02  0.10500000000E+00 0.  1.
         13    1    4    4    0    0  0.12616675251E+02 -0.30416843708E+02  0.11261544308E+02  0.34802274074E+02  0.10500000000E+00 0. -1.
    3000001    1    5    5    0    0 -0.13933927541E+02  0.22715207392E+02 -0.68860687027E+01  0.27541839549E+02  0.10000000000E+01 0.  1.
        -13    1    6    6    0    0 -0.34356721690E+01  0.15616378716E+02 -0.47216878123E+01  0.16672746872E+02  0.10500000000E+00 0.  1.
         13    1    6    6    0    0 -0.38839503136E+01  0.17080586075E+02 -0.52453642903E+01  0.18285413920E+02  0.10500000000E+00 0. -1.
</event>
<event>
11    0  0.3476221E-009  0.9118800E+02  0.7816531E-02  0.1126479E+00
         25   -1    0    0    0    0  0.00000000000E+00  0.00000000000E+00  0.99999998245E-14  0.12500000000E+03  0.12500000000E+03 0.  0.
    3000001    1    3    3    0    0  0.21238280515E+01 -0.71806543029E+01  0.74802951569E+01  0.10631427818E+02  0.10000000000E+01 0. -1.
    1000022    2    1    0    0    0 -0.76268161167E+01 -0.47403867010E+02  0.38742163153E+02  0.62500000148E+02  0.99999940635E+01 0.  0.
    3000022    2    3    3    0    0 -0.97506441682E+01 -0.40223212707E+02  0.31261867996E+02  0.51868572331E+02  0.25000579662E+00 0.  0.
    1000022    2    1    0    0    0  0.76268161167E+01  0.47403867010E+02 -0.38742163153E+02  0.62499999852E+02  0.99999922092E+01 0.  0.
    3000022    2    5    5    0    0  0.20076011287E+01  0.16109163849E+01 -0.66158285024E+00  0.26694014913E+01  0.24999712661E+00 0.  0.
        -13    1    4    4    0    0 -0.64049045983E+01 -0.26391271143E+02  0.20443733652E+02  0.33992341286E+02  0.10500000000E+00 0.  1.
         13    1    4    4    0    0 -0.33457395698E+01 -0.13831941563E+02  0.10818134343E+02  0.17876231044E+02  0.10500000000E+00 0. -1.
    3000001    1    5    5    0    0  0.56192149880E+01  0.45792950625E+02 -0.38080580302E+02  0.59830598360E+02  0.10000000000E+01 0.  1.
        -13    1    6    6    0    0  0.83094975354E+00  0.73527901250E+00 -0.32452132019E+00  0.11607979180E+01  0.10500000000E+00 0.  1.
         13    1    6    6    0    0  0.11766513751E+01  0.87563737236E+00 -0.33706153005E+00  0.15086035733E+01  0.10500000000E+00 0. -1.
</event>
<event>
11    0  0.3476221E-009  0.9118800E+02  0.7816531E-02  0.1126479E+00
         25   -1    0    0    0    0  0.00000000000E+00  0.00000000000E+00  0.99999998245E-14  0.12500000000E+03  0.12500000000E+03 0.  0.
    3000001    1    3    3    0    0 -0.17469294614E+02  0.46823736062E+02 -0.10644851768E+02  0.51107253715E+02  0.10000000000E+01 0.  1.
    1000022    2    1    0    0    0 -0.21287076462E+02  0.57303141971E+02 -0.83342725195E+01  0.62500000641E+02  0.10000013882E+02 0.  0.
    3000022    2    3    3    0    0 -0.38177818475E+01  0.10479405909E+02  0.23105792484E+01  0.11392746926E+02  0.24999922651E+00 0.  0.
    1000022    2    1    0    0    0  0.21287076462E+02 -0.57303141971E+02  0.83342725195E+01  0.62499999359E+02  0.10000005868E+02 0.  0.
    3000022    2    5    5    0    0  0.15716377597E+02 -0.30557735393E+02  0.73727204970E+01  0.35145401186E+02  0.24999981502E+00 0.  0.
        -13    1    4    4    0    0 -0.24090134140E+01  0.64678989599E+01  0.14660605428E+01  0.70567287817E+01  0.10500000000E+00 0. -1.
         13    1    4    4    0    0 -0.14087684336E+01  0.40115069496E+01  0.84451870564E+00  0.43360181446E+01  0.10500000000E+00 0.  1.
    3000001    1    5    5    0    0  0.55706988646E+01 -0.26745406579E+02  0.96155202249E+00  0.27354598173E+02  0.10000000000E+01 0. -1.
        -13    1    6    6    0    0  0.59261369598E+01 -0.11641869103E+02  0.27755521800E+01  0.13355408282E+02  0.10500000000E+00 0. -1.
         13    1    6    6    0    0  0.97902406374E+01 -0.18915866289E+02  0.45971683171E+01  0.21789992904E+02  0.10500000000E+00 0.  1.
</event>
<event>
11    0  0.3476221E-009  0.9118800E+02  0.7816531E-02  0.1126479E+00
         25   -1    0    0    0    0  0.00000000000E+00  0.00000000000E+00  0.99999998245E-14  0.12500000000E+03  0.12500000000E+03 0.  0.
    3000001    1    3    3    0    0 -0.17733607356E+02 -0.13236975630E+02 -0.22231549674E+02  0.31383756222E+02  0.10000000000E+01 0. -1.
    1000022    2    1    0    0    0 -0.26545570044E+02 -0.26987704519E+02 -0.48715977236E+02  0.62500000065E+02  0.10000004296E+02 0.  0.
    3000022    2    3    3    0    0 -0.88119626884E+01 -0.13750728889E+02 -0.26484427562E+02  0.31116243844E+02  0.24999247482E+00 0.  0.
    1000022    2    1    0    0    0  0.26545570044E+02  0.26987704519E+02  0.48715977236E+02  0.62499999935E+02  0.10000003481E+02 0.  0.
    3000022    2    5    5    0    0  0.24779430391E+02  0.23625145421E+02  0.38322337171E+02  0.51389023076E+02  0.24999950041E+00 0.  0.
        -13    1    4    4    0    0 -0.44934804868E+01 -0.70990277109E+01 -0.13716921681E+02  0.16085786481E+02  0.10500000000E+00 0.  1.
         13    1    4    4    0    0 -0.43184822016E+01 -0.66517011779E+01 -0.12767505881E+02  0.15030457362E+02  0.10500000000E+00 0. -1.
    3000001    1    5    5    0    0  0.17661396531E+01  0.33625590974E+01  0.10393640065E+02  0.11110976859E+02  0.10000000000E+01 0. -1.
        -13    1    6    6    0    0  0.12373019018E+02  0.11885536242E+02  0.19236243324E+02  0.25775989866E+02  0.10500000000E+00 0. -1.
         13    1    6    6    0    0  0.12406411373E+02  0.11739609180E+02  0.19086093847E+02  0.25613033210E+02  0.10500000000E+00 0.  1.
</event>
<event>
11    0  0.3476221E-009  0.9118800E+02  0.7816531E-02  0.1126479E+00
         25   -1    0    0    0    0  0.00000000000E+00  0.00000000000E+00  0.99999998245E-14  0.12500000000E+03  0.12500000000E+03 0.  0.
    3000001    1    3    3    0    0 -0.10451553934E+02  0.23214246691E+01 -0.25445123232E+02  0.27623871713E+02  0.10000000000E+01 0. -1.
    1000022    2    1    0    0    0 -0.12839155394E+02  0.53305638196E+01 -0.60108162619E+02  0.62500000508E+02  0.10000001414E+02 0.  0.
    3000022    2    3    3    0    0 -0.23876014600E+01  0.30091391505E+01 -0.34663039387E+02  0.34876128795E+02  0.25000213026E+00 0.  0.
    1000022    2    1    0    0    0  0.12839155394E+02 -0.53305638196E+01  0.60108162619E+02  0.62499999492E+02  0.99999950597E+01 0.  0.
    3000022    2    5    5    0    0  0.27397251081E+01  0.27067820737E+01  0.19496795705E+02  0.19875117748E+02  0.24999970056E+00 0.  0.
        -13    1    4    4    0    0 -0.16419542973E+01  0.21242321029E+01 -0.23913318793E+02  0.24063794727E+02  0.10500000000E+00 0.  1.
         13    1    4    4    0    0 -0.74564716269E+00  0.88490704762E+00 -0.10749720593E+02  0.10812334068E+02  0.10500000000E+00 0. -1.
    3000001    1    5    5    0    0  0.10099430286E+02 -0.80373458933E+01  0.40611366914E+02  0.42624881744E+02  0.10000000000E+01 0.  1.
        -13    1    6    6    0    0  0.11094901978E+01  0.10396012485E+01  0.74564403995E+01  0.76106023209E+01  0.10500000000E+00 0. -1.
         13    1    6    6    0    0  0.16302349103E+01  0.16671808251E+01  0.12040355306E+02  0.12264515427E+02  0.10500000000E+00 0.  1.
</event>
<event>
11    0  0.3476221E-009  0.9118800E+02  0.7816531E-02  0.1126479E+00
         25   -1    0    0    0    0  0.00000000000E+00  0.00000000000E+00  0.99999998245E-14  0.12500000000E+03  0.12500000000E+03 0.  0.
    3000001    1    3    3    0    0 -0.32708723243E+01  0.14853291722E+01 -0.45915081306E+01  0.59149603063E+01  0.10000000000E+01 0.  1.
    1000022    2    1    0    0    0 -0.40027657329E+02  0.36850336575E+02 -0.29087616346E+02  0.62500000842E+02  0.10000001183E+02 0.  0.
    3000022    2    3    3    0    0 -0.36756785004E+02  0.35365007402E+02 -0.24496108216E+02  0.56585040536E+02  0.25000457723E+00 0.  0.
    1000022    2    1    0    0    0  0.40027657329E+02 -0.36850336575E+02  0.29087616346E+02  0.62499999158E+02  0.99999906576E+01 0.  0.
    3000022    2    5    5    0    0  0.33840809645E+02 -0.34368549024E+02  0.27688212662E+02  0.55615619420E+02  0.24988708832E+00 0.  0.
        -13    1    4    4    0    0 -0.23676598295E+02  0.22701939333E+02 -0.15766413225E+02  0.36394369994E+02  0.10500000000E+00 0.  1.
         13    1    4    4    0    0 -0.13080186710E+02  0.12663068069E+02 -0.87296949907E+01  0.20190670542E+02  0.10500000000E+00 0. -1.
    3000001    1    5    5    0    0  0.61868476841E+01 -0.24817875503E+01  0.13994036840E+01  0.68843797384E+01  0.10000000000E+01 0.  1.
        -13    1    6    6    0    0  0.95985346826E+01 -0.96977060981E+01  0.78555908898E+01  0.15744799295E+02  0.10500000000E+00 0.  1.
         13    1    6    6    0    0  0.24242274962E+02 -0.24670842926E+02  0.19832621772E+02  0.39870820124E+02  0.10500000000E+00 0. -1.
</event>
<event>
11    0  0.3476221E-009  0.9118800E+02  0.7816531E-02  0.1126479E+00
         25   -1    0    0    0    0  0.00000000000E+00  0.00000000000E+00  0.99999998245E-14  0.12500000000E+03  0.12500000000E+03 0.  0.
    3000001    1    3    3    0    0 -0.59524308453E+02 -0.82137480384E+01 -0.13398651686E+02  0.61572175702E+02  0.10000000000E+01 0.  1.
    1000022    2    1    0    0    0 -0.59833326931E+02 -0.74423192205E+01 -0.13070385297E+02  0.62499999120E+02  0.99999895542E+01 0.  0.
    3000022    2    3    3    0    0 -0.30901847847E+00  0.77142881794E+00  0.32826638854E+00  0.92782341804E+00  0.25000526403E+00 0.  0.
    1000022    2    1    0    0    0  0.59833326931E+02  0.74423192205E+01  0.13070385297E+02  0.62500000880E+02  0.10000000560E+02 0.  0.
    3000022    2    5    5    0    0  0.53499180020E+02  0.88468187682E+01  0.95829292098E+01  0.55066536948E+02  0.24998814028E+00 0.  0.
        -13    1    4    4    0    0 -0.26042420153E+00  0.56934188585E+00  0.24722101955E+00  0.68125926066E+00  0.10500000000E+00 0. -1.
         13    1    4    4    0    0 -0.48594276939E-01  0.20208693209E+00  0.81045368991E-01  0.24656415739E+00  0.10500000000E+00 0.  1.
    3000001    1    5    5    0    0  0.63341469109E+01 -0.14044995477E+01  0.34874560875E+01  0.74334639321E+01  0.10000000000E+01 0.  1.
        -13    1    6    6    0    0  0.34137073971E+02  0.56011843340E+01  0.60736165728E+01  0.35122826317E+02  0.10500000000E+00 0.  1.
         13    1    6    6    0    0  0.19362106050E+02  0.32456344341E+01  0.35093126369E+01  0.19943710631E+02  0.10500000000E+00 0. -1.
</event>
<event>
11    0  0.3476221E-009  0.9118800E+02  0.7816531E-02  0.1126479E+00
         25   -1    0    0    0    0  0.00000000000E+00  0.00000000000E+00  0.99999998245E-14  0.12500000000E+03  0.12500000000E+03 0.  0.
    3000001    1    3    3    0    0 -0.22686853218E+01 -0.71712781976E+00  0.84751603407E+00  0.27165214571E+01  0.10000000000E+01 0. -1.
    1000022    2    1    0    0    0 -0.54785672788E+02  0.24280166653E+02  0.14671534842E+02  0.62500003272E+02  0.10000001941E+02 0.  0.
    3000022    2    3    3    0    0 -0.52516987466E+02  0.24997294473E+02  0.13824018808E+02  0.59783481815E+02  0.24999677632E+00 0.  0.
    1000022    2    1    0    0    0  0.54785672788E+02 -0.24280166653E+02 -0.14671534842E+02  0.62499996728E+02  0.99999610453E+01 0.  0.
    3000022    2    5    5    0    0  0.39496802853E+02 -0.15797282799E+02 -0.60098369436E+01  0.42961985754E+02  0.25000074254E+00 0.  0.
        -13    1    4    4    0    0 -0.15079628594E+02  0.71964655363E+01  0.40109680771E+01  0.17183806466E+02  0.10500000000E+00 0. -1.
         13    1    4    4    0    0 -0.37437358872E+02  0.17800828936E+02  0.98130507306E+01  0.42599675349E+02  0.10500000000E+00 0.  1.
    3000001    1    5    5    0    0  0.15288869935E+02 -0.84828838538E+01 -0.86616978981E+01  0.19538010975E+02  0.10000000000E+01 0. -1.
        -13    1    6    6    0    0  0.15011265923E+02 -0.60337523921E+01 -0.22309454850E+01  0.16331944627E+02  0.10500000000E+00 0. -1.
         13    1    6    6    0    0  0.24485536930E+02 -0.97635304069E+01 -0.37788914586E+01  0.26630041126E+02  0.10500000000E+00 0.  1.
</event>
<event>
11    0  0.3476221E-009  0.9118800E+02  0.7816531E-02  0.1126479E+00
         25   -1    0    0    0    0  0.00000000000E+00  0.00000000000E+00  0.99999998245E-14  0.12500000000E+03  0.12500000000E+03 0.  0.
    3000001    1    3    3    0    0 -0.66444513416E+01  0.55967223525E+01  0.38570446791E+02  0.39549353982E+02  0.10000000000E+01 0.  1.
    1000022    2    1    0    0    0 -0.13692838902E+02  0.20526243749E+01  0.60121066654E+02  0.62499999153E+02  0.10000006721E+02 0.  0.
    3000022    2    3    3    0    0 -0.70483875601E+01 -0.35440979776E+01  0.21550619863E+02  0.22950645171E+02  0.24999918804E+00 0.  0.
    1000022    2    1    0    0    0  0.13692838902E+02 -0.20526243749E+01 -0.60121066654E+02  0.62500000847E+02  0.10000017312E+02 0.  0.
    3000022    2    5    5    0    0 -0.15337856867E+01  0.19170825910E+00 -0.76721190787E+01  0.78302722297E+01  0.25000288764E+00 0.  0.
        -13    1    4    4    0    0 -0.53832252033E+01 -0.27179549654E+01  0.16433333613E+02  0.17505195555E+02  0.10500000000E+00 0.  1.
         13    1    4    4    0    0 -0.16651623568E+01 -0.82614301210E+00  0.51172862507E+01  0.54454496162E+01  0.10500000000E+00 0. -1.
    3000001    1    5    5    0    0  0.15226624588E+02 -0.22443326340E+01 -0.52448947576E+02  0.54669728618E+02  0.10000000000E+01 0.  1.
        -13    1    6    6    0    0 -0.88600344930E+00  0.15954187203E+00 -0.46610535923E+01  0.47483577489E+01  0.10500000000E+00 0. -1.
         13    1    6    6    0    0 -0.64778223744E+00  0.32166387068E-01 -0.30110654864E+01  0.30819144808E+01  0.10500000000E+00 0.  1.
</event>
<event>
11    0  0.3476221E-009  0.9118800E+02  0.7816531E-02  0.1126479E+00
         25   -1    0    0    0    0  0.00000000000E+00  0.00000000000E+00  0.99999998245E-14  0.12500000000E+03  0.12500000000E+03 0.  0.
    3000001    1    3    3    0    0  0.18128729609E+02 -0.30591323606E+02 -0.19585245013E+02  0.40608641191E+02  0.10000000000E+01 0. -1.
    1000022    2    1    0    0    0  0.25608401293E+02 -0.43188728503E+02 -0.35849593921E+02  0.62500001192E+02  0.10000013913E+02 0.  0.
    3000022    2    3    3    0    0  0.74796716835E+01 -0.12597404897E+02 -0.16264348909E+02  0.21891360001E+02  0.24999728295E+00 0.  0.
    1000022    2    1    0    0    0 -0.25608401293E+02  0.43188728503E+02  0.35849593921E+02  0.62499998808E+02  0.99999990090E+01 0.  0.
    3000022    2    5    5    0    0  0.79257979107E+00  0.29053194548E+01  0.20885664654E+01  0.36733736997E+01  0.25000119533E+00 0.  0.
        -13    1    4    4    0    0  0.19173694026E+01 -0.31767424018E+01 -0.41072133444E+01  0.55360838297E+01  0.10500000000E+00 0.  1.
         13    1    4    4    0    0  0.55623022809E+01 -0.94206624954E+01 -0.12157135564E+02  0.16355276171E+02  0.10500000000E+00 0. -1.
    3000001    1    5    5    0    0 -0.26400981084E+02  0.40283409048E+02  0.33761027456E+02  0.58826625108E+02  0.10000000000E+01 0. -1.
        -13    1    6    6    0    0  0.36539946425E+00  0.15369112511E+01  0.11471248056E+01  0.19551299910E+01  0.10500000000E+00 0. -1.
         13    1    6    6    0    0  0.42718032681E+00  0.13684082038E+01  0.94144165976E+00  0.17182437087E+01  0.10500000000E+00 0.  1.
</event>
<event>
11    0  0.3476221E-009  0.9118800E+02  0.7816531E-02  0.1126479E+00
         25   -1    0    0    0    0  0.00000000000E+00  0.00000000000E+00  0.99999998245E-14  0.12500000000E+03  0.12500000000E+03 0.  0.
    3000001    1    3    3    0    0 -0.17577733210E+02 -0.14984550099E+02 -0.42935217374E+02  0.48764191139E+02  0.10000000000E+01 0. -1.
    1000022    2    1    0    0    0 -0.18050967496E+02 -0.21961943432E+02 -0.54754776260E+02  0.62500000476E+02  0.10000007471E+02 0.  0.
    3000022    2    3    3    0    0 -0.47323428557E+00 -0.69773933323E+01 -0.11819558886E+02  0.13735809337E+02  0.25003497174E+00 0.  0.
    1000022    2    1    0    0    0  0.18050967496E+02  0.21961943432E+02  0.54754776260E+02  0.62499999524E+02  0.10000001524E+02 0.  0.
    3000022    2    5    5    0    0  0.70888800581E+01  0.16257678698E+02  0.32110821620E+02  0.36684216002E+02  0.25000289998E+00 0.  0.
        -13    1    4    4    0    0 -0.10279459431E+00 -0.22046538083E+01 -0.37663771211E+01  0.43666562450E+01  0.10500000000E+00 0.  1.
         13    1    4    4    0    0 -0.37043969126E+00 -0.47727395239E+01 -0.80531817649E+01  0.93691530923E+01  0.10500000000E+00 0. -1.
    3000001    1    5    5    0    0  0.10962087437E+02  0.57042647332E+01  0.22643954640E+02  0.25815783522E+02  0.10000000000E+01 0.  1.
        -13    1    6    6    0    0  0.37343713210E+01  0.84894392586E+01  0.16916428653E+02  0.19292296169E+02  0.10500000000E+00 0.  1.
         13    1    6    6    0    0  0.33545087371E+01  0.77682394397E+01  0.15194392967E+02  0.17391919833E+02  0.10500000000E+00 0. -1.
</event>
<event>
11    0  0.3476221E-009  0.9118800E+02  0.7816531E-02  0.1126479E+00
         25   -1    0    0    0    0  0.00000000000E+00  0.00000000000E+00  0.99999998245E-14  0.12500000000E+03  0.12500000000E+03 0.  0.
    3000001    1    3    3    0    0  0.10309937365E-01  0.48985087415E+01 -0.54446251221E+01  0.73918493562E+01  0.10000000000E+01 0. -1.
    1000022    2    1    0    0    0 -0.11863676625E+02  0.20863102324E+02 -0.56835149027E+02  0.62499999894E+02  0.99999980111E+01 0.  0.
    3000022    2    3    3    0    0 -0.11873986562E+02  0.15964593582E+02 -0.51390523904E+02  0.55108150538E+02  0.25000673066E+00 0.  0.
    1000022    2    1    0    0    0  0.11863676625E+02 -0.20863102324E+02  0.56835149027E+02  0.62500000106E+02  0.99999993392E+01 0.  0.
    3000022    2    5    5    0    0  0.13242118516E+02 -0.19219176982E+02  0.53846018719E+02  0.58687193715E+02  0.25001540444E+00 0.  0.
        -13    1    4    4    0    0 -0.49164994247E+01  0.65112927999E+01 -0.21005924329E+02  0.22535056744E+02  0.10500000000E+00 0.  1.
         13    1    4    4    0    0 -0.69574871373E+01  0.94533007824E+01 -0.30384599575E+02  0.32573093794E+02  0.10500000000E+00 0. -1.
    3000001    1    5    5    0    0 -0.13784418908E+01 -0.16439253420E+01  0.29891303078E+01  0.38128063908E+01  0.10000000000E+01 0. -1.
        -13    1    6    6    0    0  0.73875087398E+01 -0.10616862967E+02  0.29913326878E+02  0.32590047784E+02  0.10500000000E+00 0.  1.
         13    1    6    6    0    0  0.58546097757E+01 -0.86023140150E+01  0.23932691841E+02  0.26097145932E+02  0.10500000000E+00 0. -1.
</event>
<event>
11    0  0.3476221E-009  0.9118800E+02  0.7816531E-02  0.1126479E+00
         25   -1    0    0    0    0  0.00000000000E+00  0.00000000000E+00  0.99999998245E-14  0.12500000000E+03  0.12500000000E+03 0.  0.
    3000001    1    3    3    0    0  0.43079647179E+01 -0.14073058815E+02  0.73724226744E+01  0.16491275284E+02  0.10000000000E+01 0. -1.
    1000022    2    1    0    0    0  0.13407973273E+02 -0.58844652561E+02  0.12797772579E+02  0.62499999294E+02  0.10000002324E+02 0.  0.
    3000022    2    3    3    0    0  0.91000085547E+01 -0.44771593746E+02  0.54253499044E+01  0.46008724010E+02  0.25000230062E+00 0.  0.
    1000022    2    1    0    0    0 -0.13407973273E+02  0.58844652561E+02 -0.12797772579E+02  0.62500000706E+02  0.10000011149E+02 0.  0.
    3000022    2    5    5    0    0 -0.10027906242E+02  0.41885176767E+02 -0.45331718317E+01  0.43307494412E+02  0.24997798138E+00 0.  0.
        -13    1    4    4    0    0  0.41598710795E+01 -0.20780625446E+02  0.25413347331E+01  0.21344983686E+02  0.10500000000E+00 0. -1.
         13    1    4    4    0    0  0.49401374751E+01 -0.23990968300E+02  0.28840151713E+01  0.24663740323E+02  0.10500000000E+00 0.  1.
    3000001    1    5    5    0    0 -0.33800670308E+01  0.16959475794E+02 -0.82646007470E+01  0.19192506294E+02  0.10000000000E+01 0.  1.
        -13    1    6    6    0    0 -0.61775913097E+01  0.26023063346E+02 -0.27824600746E+01  0.26890808269E+02  0.10500000000E+00 0. -1.
         13    1    6    6    0    0 -0.38503149320E+01  0.15862113421E+02 -0.17507117571E+01  0.16416686143E+02  0.10500000000E+00 0.  1.
</event>
<event>
11    0  0.3476221E-009  0.9118800E+02  0.7816531E-02  0.1126479E+00
         25   -1    0    0    0    0  0.00000000000E+00  0.00000000000E+00  0.99999998245E-14  0.12500000000E+03  0.12500000000E+03 0.  0.
    3000001    1    3    3    0    0  0.53939765252E+01 -0.24176815081E+02  0.36203867140E+02  0.43878620832E+02  0.10000000000E+01 0. -1.
    1000022    2    1    0    0    0  0.76417395503E+01 -0.39105700730E+02  0.47101995587E+02  0.62500000029E+02  0.10000000117E+02 0.  0.
    3000022    2    3    3    0    0  0.22477630252E+01 -0.14928885649E+02  0.10898128447E+02  0.18621379197E+02  0.24998840331E+00 0.  0.
    1000022    2    1    0    0    0 -0.76417395503E+01  0.39105700730E+02 -0.47101995587E+02  0.62499999971E+02  0.99999997588E+01 0.  0.
    3000022    2    5    5    0    0 -0.44928760775E+01  0.64185349850E+01 -0.12747431621E+02  0.14964726637E+02  0.25000720503E+00 0.  0.
        -13    1    4    4    0    0  0.91927220324E+00 -0.57359166891E+01  0.42271336388E+01  0.71850877133E+01  0.10500000000E+00 0. -1.
         13    1    4    4    0    0  0.13284908219E+01 -0.91929689600E+01  0.66709948083E+01  0.11436291484E+02  0.10500000000E+00 0.  1.
    3000001    1    5    5    0    0 -0.31488634729E+01  0.32687165745E+02 -0.34354563966E+02  0.47535273334E+02  0.10000000000E+01 0. -1.
        -13    1    6    6    0    0 -0.27820179859E+01  0.38702651091E+01 -0.77198904073E+01  0.90733846490E+01  0.10500000000E+00 0.  1.
         13    1    6    6    0    0 -0.17108580916E+01  0.25482698760E+01 -0.50275412133E+01  0.58913419882E+01  0.10500000000E+00 0. -1.
</event>
<event>
11    0  0.3476221E-009  0.9118800E+02  0.7816531E-02  0.1126479E+00
         25   -1    0    0    0    0  0.00000000000E+00  0.00000000000E+00  0.99999998245E-14  0.12500000000E+03  0.12500000000E+03 0.  0.
    3000001    1    3    3    0    0  0.28503058224E+02 -0.52907468564E+01  0.48195185322E+00  0.29011180741E+02  0.10000000000E+01 0. -1.
    1000022    2    1    0    0    0  0.60451404064E+02 -0.83274596193E+01 -0.90846587021E+01  0.62499999210E+02  0.10000002030E+02 0.  0.
    3000022    2    3    3    0    0  0.31948345840E+02 -0.30367127629E+01 -0.95666105553E+01  0.33488818469E+02  0.24999729753E+00 0.  0.
    1000022    2    1    0    0    0 -0.60451404064E+02  0.83274596193E+01  0.90846587021E+01  0.62500000790E+02  0.10000011900E+02 0.  0.
    3000022    2    5    5    0    0 -0.89982144724E+01 -0.47644910806E+00 -0.17360970086E+01  0.91799456309E+01  0.25000303517E+00 0.  0.
        -13    1    4    4    0    0  0.21438433304E+02 -0.20406981901E+01 -0.64743536414E+01  0.22487755595E+02  0.10500000000E+00 0. -1.
         13    1    4    4    0    0  0.10509912536E+02 -0.99601457280E+00 -0.30922569139E+01  0.11001062874E+02  0.10500000000E+00 0.  1.
    3000001    1    5    5    0    0 -0.51453189591E+02  0.88039087274E+01  0.10820755711E+02  0.53320055159E+02  0.10000000000E+01 0. -1.
        -13    1    6    6    0    0 -0.44764413788E+01 -0.29885717051E+00 -0.89288612305E+00  0.45755998137E+01  0.10500000000E+00 0. -1.
         13    1    6    6    0    0 -0.45217730937E+01 -0.17759193755E+00 -0.84321088558E+00  0.46043458172E+01  0.10500000000E+00 0.  1.
</event>
<event>
11    0  0.3476221E-009  0.9118800E+02  0.7816531E-02  0.1126479E+00
         25   -1    0    0    0    0  0.00000000000E+00  0.00000000000E+00  0.99999998245E-14  0.12500000000E+03  0.12500000000E+03 0.  0.
    3000001    1    3    3    0    0  0.10644400762E+02 -0.29113500229E+01  0.11419946618E+02  0.15912083688E+02  0.10000000000E+01 0.  1.
    1000022    2    1    0    0    0  0.37952085900E+02 -0.27122690775E+02  0.40376340791E+02  0.62500000029E+02  0.99999964424E+01 0.  0.
    3000022    2    3    3    0    0  0.27307685138E+02 -0.24211340752E+02  0.28956394173E+02  0.46587916341E+02  0.24999366038E+00 0.  0.
    1000022    2    1    0    0    0 -0.37952085900E+02  0.27122690775E+02 -0.40376340791E+02  0.62499999971E+02  0.99999960837E+01 0.  0.
    3000022    2    5    5    0    0 -0.25234495575E+02  0.22034200338E+02 -0.24480559816E+02  0.41492722865E+02  0.24998079356E+00 0.  0.
        -13    1    4    4    0    0  0.20259007213E+02 -0.17932304042E+02  0.21438602289E+02  0.34519843491E+02  0.10500000000E+00 0.  1.
         13    1    4    4    0    0  0.70486779257E+01 -0.62790367100E+01  0.75177918840E+01  0.12068072850E+02  0.10500000000E+00 0. -1.
    3000001    1    5    5    0    0 -0.12717590325E+02  0.50884904373E+01 -0.15895780975E+02  0.21007277106E+02  0.10000000000E+01 0. -1.
        -13    1    6    6    0    0 -0.15536650985E+02  0.13646530890E+02 -0.15099654479E+02  0.25605193215E+02  0.10500000000E+00 0.  1.
         13    1    6    6    0    0 -0.96978445907E+01  0.83876694471E+01 -0.93809053363E+01  0.15887529650E+02  0.10500000000E+00 0. -1.
</event>
<event>
11    0  0.3476221E-009  0.9118800E+02  0.7816531E-02  0.1126479E+00
         25   -1    0    0    0    0  0.00000000000E+00  0.00000000000E+00  0.99999998245E-14  0.12500000000E+03  0.12500000000E+03 0.  0.
    3000001    1    3    3    0    0 -0.46003480954E+02  0.15551518102E+02  0.11786493119E+01  0.48585586230E+02  0.10000000000E+01 0.  1.
    1000022    2    1    0    0    0 -0.59126782107E+02  0.16681691311E+02  0.56563866589E+01  0.62500001649E+02  0.10000015441E+02 0.  0.
    3000022    2    3    3    0    0 -0.13123301153E+02  0.11301732086E+01  0.44777373470E+01  0.13914415419E+02  0.25000013329E+00 0.  0.
    1000022    2    1    0    0    0  0.59126782107E+02 -0.16681691311E+02 -0.56563866589E+01  0.62499998351E+02  0.99999948230E+01 0.  0.
    3000022    2    5    5    0    0  0.22181477113E+02 -0.93432193750E+01  0.16154255986E+01  0.24124381288E+02  0.24999487690E+00 0.  0.
        -13    1    4    4    0    0 -0.90227144176E+01  0.74853665349E+00  0.30352016029E+01  0.95495107913E+01  0.10500000000E+00 0.  1.
         13    1    4    4    0    0 -0.41005867357E+01  0.38163655514E+00  0.14425357441E+01  0.43649046279E+01  0.10500000000E+00 0. -1.
    3000001    1    5    5    0    0  0.36945304994E+02 -0.73384719355E+01 -0.72718122575E+01  0.38375617063E+02  0.10000000000E+01 0.  1.
        -13    1    6    6    0    0  0.10876133015E+02 -0.46460586908E+01  0.76171024954E+00  0.11851892601E+02  0.10500000000E+00 0.  1.
         13    1    6    6    0    0  0.11305344098E+02 -0.46971606842E+01  0.85371534906E+00  0.12272488687E+02  0.10500000000E+00 0. -1.
</event>
<event>
11    0  0.3476221E-009  0.9118800E+02  0.7816531E-02  0.1126479E+00
         25   -1    0    0    0    0  0.00000000000E+00  0.00000000000E+00  0.99999998245E-14  0.12500000000E+03  0.12500000000E+03 0.  0.
    3000001    1    3    3    0    0  0.32265643199E+02 -0.43689950083E+01  0.48608159867E+02  0.58514212411E+02  0.10000000000E+01 0.  1.
    1000022    2    1    0    0    0  0.33481380884E+02 -0.69859634516E+01  0.51346308438E+02  0.62499999645E+02  0.10000000709E+02 0.  0.
    3000022    2    3    3    0    0  0.12157376848E+01 -0.26169684434E+01  0.27381485711E+01  0.39857872341E+01  0.25000065274E+00 0.  0.
    1000022    2    1    0    0    0 -0.33481380884E+02  0.69859634516E+01 -0.51346308438E+02  0.62500000355E+02  0.10000005144E+02 0.  0.
    3000022    2    5    5    0    0 -0.17707302774E+02  0.28966331620E+01 -0.35348150414E+02  0.39642064695E+02  0.25000086172E+00 0.  0.
        -13    1    4    4    0    0  0.68872111432E+00 -0.15903200336E+01  0.15817135703E+01  0.23486799274E+01  0.10500000000E+00 0. -1.
         13    1    4    4    0    0  0.52701657052E+00 -0.10266484098E+01  0.11564350007E+01  0.16371073067E+01  0.10500000000E+00 0.  1.
    3000001    1    5    5    0    0 -0.15774078110E+02  0.40893302897E+01 -0.15998158024E+02  0.22857935659E+02  0.10000000000E+01 0. -1.
        -13    1    6    6    0    0 -0.11190942566E+02  0.18776092107E+01 -0.22435308190E+02  0.25141930921E+02  0.10500000000E+00 0.  1.
         13    1    6    6    0    0 -0.65163602088E+01  0.10190239512E+01 -0.12912842223E+02  0.14500133774E+02  0.10500000000E+00 0. -1.
</event>
<event>
11    0  0.3476221E-009  0.9118800E+02  0.7816531E-02  0.1126479E+00
         25   -1    0    0    0    0  0.00000000000E+00  0.00000000000E+00  0.99999998245E-14  0.12500000000E+03  0.12500000000E+03 0.  0.
    3000001    1    3    3    0    0  0.22182905108E+01 -0.46428881890E+01  0.38691762640E+01  0.65151936646E+01  0.10000000000E+01 0.  1.
    1000022    2    1    0    0    0  0.41199156101E+02 -0.42349374198E+02  0.17759791139E+02  0.62500001002E+02  0.99999992749E+01 0.  0.
    3000022    2    3    3    0    0  0.38980865590E+02 -0.37706486009E+02  0.13890614875E+02  0.55984807337E+02  0.25000327733E+00 0.  0.
    1000022    2    1    0    0    0 -0.41199156101E+02  0.42349374198E+02 -0.17759791139E+02  0.62499998998E+02  0.99999867529E+01 0.  0.
    3000022    2    5    5    0    0 -0.26504716630E+02  0.21042574635E+02 -0.12443499449E+02  0.36058190884E+02  0.25000083779E+00 0.  0.
        -13    1    4    4    0    0  0.24844289665E+02 -0.23968444434E+02  0.88039095156E+01  0.35626463553E+02  0.10500000000E+00 0.  1.
         13    1    4    4    0    0  0.14136575925E+02 -0.13738041576E+02  0.50867053594E+01  0.20358343784E+02  0.10500000000E+00 0. -1.
    3000001    1    5    5    0    0 -0.14694439471E+02  0.21306799563E+02 -0.53162916899E+01  0.26441808114E+02  0.10000000000E+01 0. -1.
        -13    1    6    6    0    0 -0.13990787490E+02  0.11077223269E+02 -0.64941806868E+01  0.18990324319E+02  0.10500000000E+00 0. -1.
         13    1    6    6    0    0 -0.12513929140E+02  0.99653513666E+01 -0.59493187624E+01  0.17067866566E+02  0.10500000000E+00 0.  1.
</event>
<event>
11    0  0.3476221E-009  0.9118800E+02  0.7816531E-02  0.1126479E+00
         25   -1    0    0    0    0  0.00000000000E+00  0.00000000000E+00  0.99999998245E-14  0.12500000000E+03  0.12500000000E+03 0.  0.
    3000001    1    3    3    0    0  0.39791941304E+02 -0.16252223450E+02 -0.43811010351E+02  0.61383531894E+02  0.10000000000E+01 0.  1.
    1000022    2    1    0    0    0  0.40452352570E+02 -0.15400754639E+02 -0.43962187635E+02  0.62500000134E+02  0.10000000161E+02 0.  0.
    3000022    2    3    3    0    0  0.66041126636E+00  0.85146881081E+00 -0.15117728332E+00  0.11164682400E+01  0.25000916683E+00 0.  0.
    1000022    2    1    0    0    0 -0.40452352570E+02  0.15400754639E+02  0.43962187635E+02  0.62499999866E+02  0.99999984827E+01 0.  0.
    3000022    2    5    5    0    0 -0.16783341970E+02  0.85353067021E+01  0.25458365607E+02  0.31665800220E+02  0.24999201071E+00 0.  0.
        -13    1    4    4    0    0  0.28244616954E+00  0.47315243744E+00 -0.88428158914E-01  0.56788520586E+00  0.10500000000E+00 0. -1.
         13    1    4    4    0    0  0.37796509682E+00  0.37831637336E+00 -0.62749124409E-01  0.54858303417E+00  0.10500000000E+00 0.  1.
    3000001    1    5    5    0    0 -0.23669010600E+02  0.68654479369E+01  0.18503822028E+02  0.30834199646E+02  0.10000000000E+01 0. -1.
        -13    1    6    6    0    0 -0.84235891614E+01  0.42335153511E+01  0.12832190947E+02  0.15923431040E+02  0.10500000000E+00 0.  1.
         13    1    6    6    0    0 -0.83597528091E+01  0.43017913511E+01  0.12626174660E+02  0.15742369180E+02  0.10500000000E+00 0. -1.
</event>
<event>
11    0  0.3476221E-009  0.9118800E+02  0.7816531E-02  0.1126479E+00
         25   -1    0    0    0    0  0.00000000000E+00  0.00000000000E+00  0.99999998245E-14  0.12500000000E+03  0.12500000000E+03 0.  0.
    3000001    1    3    3    0    0  0.29170496616E+01  0.10299880657E+02  0.82075084764E+00  0.10782873098E+02  0.10000000000E+01 0. -1.
    1000022    2    1    0    0    0  0.51483671263E+01  0.60103517757E+02 -0.12934895015E+02  0.62500001214E+02  0.10000005596E+02 0.  0.
    3000022    2    3    3    0    0  0.22313174647E+01  0.49803637099E+02 -0.13755645863E+02  0.51717128117E+02  0.25000315883E+00 0.  0.
    1000022    2    1    0    0    0 -0.51483671263E+01 -0.60103517757E+02  0.12934895015E+02  0.62499998786E+02  0.99999904196E+01 0.  0.
    3000022    2    5    5    0    0 -0.42117867798E+01 -0.50192762289E+02  0.14401300386E+02  0.52388094841E+02  0.24998836107E+00 0.  0.
        -13    1    4    4    0    0  0.88372943510E+00  0.18815702694E+02 -0.51508780643E+01  0.19528292691E+02  0.10500000000E+00 0.  1.
         13    1    4    4    0    0  0.13475880296E+01  0.30987934405E+02 -0.86047677987E+01  0.32188835426E+02  0.10500000000E+00 0. -1.
    3000001    1    5    5    0    0 -0.93658034646E+00 -0.99107554676E+01 -0.14664053702E+01  0.10111903945E+02  0.10000000000E+01 0.  1.
        -13    1    6    6    0    0 -0.28115547813E+01 -0.32982048243E+02  0.94291467311E+01  0.34418602233E+02  0.10500000000E+00 0.  1.
         13    1    6    6    0    0 -0.14002319985E+01 -0.17210714046E+02  0.49721536545E+01  0.17969492608E+02  0.10500000000E+00 0. -1.
</event>
<event>
11    0  0.3476221E-009  0.9118800E+02  0.7816531E-02  0.1126479E+00
         25   -1    0    0    0    0  0.00000000000E+00  0.00000000000E+00  0.99999998245E-14  0.12500000000E+03  0.12500000000E+03 0.  0.
    3000001    1    3    3    0    0 -0.44717541045E+02 -0.10460812608E+02  0.38987656870E+02  0.60250514236E+02  0.10000000000E+01 0.  1.
    1000022    2    1    0    0    0 -0.46879232751E+02 -0.10881242710E+02  0.38602927863E+02  0.62500000472E+02  0.10000005657E+02 0.  0.
    3000022    2    3    3    0    0 -0.21616917060E+01 -0.42043010210E+00 -0.38472900711E+00  0.22494862355E+01  0.24999882399E+00 0.  0.
    1000022    2    1    0    0    0  0.46879232751E+02  0.10881242710E+02 -0.38602927863E+02  0.62499999528E+02  0.99999997605E+01 0.  0.
    3000022    2    5    5    0    0  0.26493971775E+02  0.92047527582E+01 -0.17322322822E+02  0.32966397741E+02  0.24999661555E+00 0.  0.
        -13    1    4    4    0    0 -0.63657618727E+00 -0.11725167479E+00 -0.15876309691E+00  0.67469097992E+00  0.10500000000E+00 0.  1.
         13    1    4    4    0    0 -0.15251155187E+01 -0.30317842731E+00 -0.22596591020E+00  0.15747952555E+01  0.10500000000E+00 0. -1.
    3000001    1    5    5    0    0  0.20385260975E+02  0.16764899516E+01 -0.21280605042E+02  0.29533601787E+02  0.10000000000E+01 0.  1.
        -13    1    6    6    0    0  0.20127271813E+02  0.69726305250E+01 -0.13148724488E+02  0.25032471467E+02  0.10500000000E+00 0.  1.
         13    1    6    6    0    0  0.63666999623E+01  0.22321222332E+01 -0.41735983333E+01  0.79339262740E+01  0.10500000000E+00 0. -1.
</event>
<event>
11    0  0.3476221E-009  0.9118800E+02  0.7816531E-02  0.1126479E+00
         25   -1    0    0    0    0  0.00000000000E+00  0.00000000000E+00  0.99999998245E-14  0.12500000000E+03  0.12500000000E+03 0.  0.
    3000001    1    3    3    0    0 -0.37606448686E+01 -0.28237135364E+01  0.15232381121E+02  0.15973141287E+02  0.10000000000E+01 0.  1.
    1000022    2    1    0    0    0 -0.16327846034E+02  0.55916540948E+01  0.59231620408E+02  0.62499999280E+02  0.99999951087E+01 0.  0.
    3000022    2    3    3    0    0 -0.12567201165E+02  0.84153676312E+01  0.43999239288E+02  0.46526857993E+02  0.24999864304E+00 0.  0.
    1000022    2    1    0    0    0  0.16327846034E+02 -0.55916540948E+01 -0.59231620408E+02  0.62500000720E+02  0.10000004109E+02 0.  0.
    3000022    2    5    5    0    0  0.88065791758E+01 -0.80865635668E+01 -0.35774249806E+02  0.37720124530E+02  0.24999653795E+00 0.  0.
        -13    1    4    4    0    0 -0.79171523872E+01  0.53577744839E+01  0.27920385839E+02  0.29511794587E+02  0.10500000000E+00 0. -1.
         13    1    4    4    0    0 -0.46500487780E+01  0.30575931473E+01  0.16078853449E+02  0.17015063407E+02  0.10500000000E+00 0.  1.
    3000001    1    5    5    0    0  0.75212668580E+01  0.24949094720E+01 -0.23457370603E+02  0.24779876191E+02  0.10000000000E+01 0. -1.
        -13    1    6    6    0    0  0.22870156564E+01 -0.21438088731E+01 -0.93664977099E+01  0.98776850247E+01  0.10500000000E+00 0.  1.
         13    1    6    6    0    0  0.65195635194E+01 -0.59427546937E+01 -0.26407752096E+02  0.27842439505E+02  0.10500000000E+00 0. -1.
</event>
<event>
11    0  0.3476221E-009  0.9118800E+02  0.7816531E-02  0.1126479E+00
         25   -1    0    0    0    0  0.00000000000E+00  0.00000000000E+00  0.99999998245E-14  0.12500000000E+03  0.12500000000E+03 0.  0.
    3000001    1    3    3    0    0 -0.70783669099E+01 -0.27202723190E+01 -0.53355208895E+01  0.93258212916E+01  0.10000000000E+01 0.  1.
    1000022    2    1    0    0    0 -0.56182724329E+02  0.46602638882E+00 -0.25485972680E+02  0.62500003236E+02  0.99999953704E+01 0.  0.
    3000022    2    3    3    0    0 -0.49104357419E+02  0.31862987078E+01 -0.20150451791E+02  0.53174181944E+02  0.25000216133E+00 0.  0.
    1000022    2    1    0    0    0  0.56182724329E+02 -0.46602638882E+00  0.25485972680E+02  0.62499996764E+02  0.99999549242E+01 0.  0.
    3000022    2    5    5    0    0  0.14276701792E+02  0.31503156888E+01  0.35313204743E+01  0.15042653725E+02  0.25000759818E+00 0.  0.
        -13    1    4    4    0    0 -0.29426843245E+02  0.19278731834E+01 -0.12010776904E+02  0.31842198184E+02  0.10500000000E+00 0. -1.
         13    1    4    4    0    0 -0.19677514174E+02  0.12584255244E+01 -0.81396748869E+01  0.21331983760E+02  0.10500000000E+00 0.  1.
    3000001    1    5    5    0    0  0.41906022537E+02 -0.36163420777E+01  0.21954652206E+02  0.47457343039E+02  0.10000000000E+01 0. -1.
        -13    1    6    6    0    0  0.32934142250E+01  0.71956604503E+00  0.81868509503E+00  0.34706804571E+01  0.10500000000E+00 0.  1.
         13    1    6    6    0    0  0.10983287567E+02  0.24307496438E+01  0.27126353793E+01  0.11571973268E+02  0.10500000000E+00 0. -1.
</event>
<event>
11    0  0.3476221E-009  0.9118800E+02  0.7816531E-02  0.1126479E+00
         25   -1    0    0    0    0  0.00000000000E+00  0.00000000000E+00  0.99999998245E-14  0.12500000000E+03  0.12500000000E+03 0.  0.
    3000001    1    3    3    0    0 -0.27565522559E+02 -0.36084498622E+02 -0.21577542479E+02  0.50284584260E+02  0.10000000000E+01 0. -1.
    1000022    2    1    0    0    0 -0.33490305682E+02 -0.41825045104E+02 -0.30582926202E+02  0.62499999216E+02  0.99999777148E+01 0.  0.
    3000022    2    3    3    0    0 -0.59247831235E+01 -0.57405464821E+01 -0.90053837226E+01  0.12215414956E+02  0.24999517986E+00 0.  0.
    1000022    2    1    0    0    0  0.33490305682E+02  0.41825045104E+02  0.30582926202E+02  0.62500000784E+02  0.99999875100E+01 0.  0.
    3000022    2    5    5    0    0  0.23075540670E+02  0.30940933218E+02  0.16944301226E+02  0.42154403888E+02  0.24999494798E+00 0.  0.
        -13    1    4    4    0    0 -0.17411430015E+01 -0.17478750123E+01 -0.26753067270E+01  0.36407330435E+01  0.10500000000E+00 0.  1.
         13    1    4    4    0    0 -0.41836401220E+01 -0.39926714698E+01 -0.63300769956E+01  0.85746819129E+01  0.10500000000E+00 0. -1.
    3000001    1    5    5    0    0  0.10414765012E+02  0.10884111886E+02  0.13638624976E+02  0.20345596896E+02  0.10000000000E+01 0. -1.
        -13    1    6    6    0    0  0.14107590006E+02  0.18856729735E+02  0.10393583116E+02  0.25741754933E+02  0.10500000000E+00 0. -1.
         13    1    6    6    0    0  0.89679506649E+01  0.12084203483E+02  0.65507181102E+01  0.16412648955E+02  0.10500000000E+00 0.  1.
</event>
<event>
11    0  0.3476221E-009  0.9118800E+02  0.7816531E-02  0.1126479E+00
         25   -1    0    0    0    0  0.00000000000E+00  0.00000000000E+00  0.99999998245E-14  0.12500000000E+03  0.12500000000E+03 0.  0.
    3000001    1    3    3    0    0 -0.68423024086E+01  0.86983908775E+01 -0.77908371274E+01  0.13571155045E+02  0.10000000000E+01 0.  1.
    1000022    2    1    0    0    0 -0.40987166824E+02  0.41541115249E+02 -0.20015967394E+02  0.62500007908E+02  0.99999968709E+01 0.  0.
    3000022    2    3    3    0    0 -0.34144864416E+02  0.32842724372E+02 -0.12225130266E+02  0.48928852864E+02  0.25004476795E+00 0.  0.
    1000022    2    1    0    0    0  0.40987166824E+02 -0.41541115249E+02  0.20015967394E+02  0.62499992092E+02  0.99998980142E+01 0.  0.
    3000022    2    5    5    0    0  0.39023210042E+02 -0.38856555574E+02  0.16340847059E+02  0.57443264260E+02  0.24998632842E+00 0.  0.
        -13    1    4    4    0    0 -0.16076508727E+02  0.15369933950E+02 -0.57421512729E+01  0.22971119449E+02  0.10500000000E+00 0. -1.
         13    1    4    4    0    0 -0.18068355689E+02  0.17472790421E+02 -0.64829789933E+01  0.25957733415E+02  0.10500000000E+00 0.  1.
    3000001    1    5    5    0    0  0.19639567827E+01 -0.26845596755E+01  0.36751203341E+01  0.50567278320E+01  0.10000000000E+01 0. -1.
        -13    1    6    6    0    0  0.16551733681E+02 -0.16539021159E+02  0.68903929169E+01  0.24392368649E+02  0.10500000000E+00 0. -1.
         13    1    6    6    0    0  0.22471476360E+02 -0.22317534415E+02  0.94504541426E+01  0.33050895611E+02  0.10500000000E+00 0.  1.
</event>
<event>
11    0  0.3476221E-009  0.9118800E+02  0.7816531E-02  0.1126479E+00
         25   -1    0    0    0    0  0.00000000000E+00  0.00000000000E+00  0.99999998245E-14  0.12500000000E+03  0.12500000000E+03 0.  0.
    3000001    1    3    3    0    0  0.14998237682E+02  0.49661774634E+01 -0.30838546431E+02  0.34664477468E+02  0.10000000000E+01 0.  1.
    1000022    2    1    0    0    0  0.30805711620E+02  0.15623213052E+02 -0.51119207123E+02  0.62500000178E+02  0.10000001546E+02 0.  0.
    3000022    2    3    3    0    0  0.15807473938E+02  0.10657035588E+02 -0.20280660692E+02  0.27835522710E+02  0.24997321926E+00 0.  0.
    1000022    2    1    0    0    0 -0.30805711620E+02 -0.15623213052E+02  0.51119207123E+02  0.62499999822E+02  0.99999993188E+01 0.  0.
    3000022    2    5    5    0    0 -0.21149878685E+02 -0.93513150583E+01  0.25679701470E+02  0.34558270062E+02  0.25000077618E+00 0.  0.
        -13    1    4    4    0    0  0.89501079678E+01  0.61102863366E+01 -0.11553178927E+02  0.15840675493E+02  0.10500000000E+00 0.  1.
         13    1    4    4    0    0  0.68573659700E+01  0.45467492516E+01 -0.87274817655E+01  0.11994847218E+02  0.10500000000E+00 0. -1.
    3000001    1    5    5    0    0 -0.96558329356E+01 -0.62718979934E+01  0.25439505653E+02  0.27941729760E+02  0.10000000000E+01 0. -1.
        -13    1    6    6    0    0 -0.99845988852E+01 -0.44768912440E+01  0.12205269870E+02  0.16392510720E+02  0.10500000000E+00 0.  1.
         13    1    6    6    0    0 -0.11165279799E+02 -0.48744238143E+01  0.13474431601E+02  0.18165759342E+02  0.10500000000E+00 0. -1.
</event>
<event>
11    0  0.3476221E-009  0.9118800E+02  0.7816531E-02  0.1126479E+00
         25   -1    0    0    0    0  0.00000000000E+00  0.00000000000E+00  0.99999998245E-14  0.12500000000E+03  0.12500000000E+03 0.  0.
    3000001    1    3    3    0    0 -0.33182842798E+01 -0.39769440753E+01 -0.71530273568E+01  0.88877947268E+01  0.10000000000E+01 0.  1.
    1000022    2    1    0    0    0 -0.24722893713E+02 -0.45119952695E+02 -0.34047304960E+02  0.62500005345E+02  0.10000004414E+02 0.  0.
    3000022    2    3    3    0    0 -0.21404609434E+02 -0.41143008620E+02 -0.26894277603E+02  0.53612210618E+02  0.24999248656E+00 0.  0.
    1000022    2    1    0    0    0  0.24722893713E+02  0.45119952695E+02  0.34047304960E+02  0.62499994655E+02  0.99999376055E+01 0.  0.
    3000022    2    5    5    0    0  0.10833516920E+02  0.16672531730E+02  0.77811343026E+01  0.21352913735E+02  0.24994157421E+00 0.  0.
        -13    1    4    4    0    0 -0.11351800729E+02 -0.21932791116E+02 -0.14271925094E+02  0.28523842252E+02  0.10500000000E+00 0. -1.
         13    1    4    4    0    0 -0.10052808704E+02 -0.19210217504E+02 -0.12622352509E+02  0.25088368366E+02  0.10500000000E+00 0.  1.
    3000001    1    5    5    0    0  0.13889376793E+02  0.28447420965E+02  0.26266170658E+02  0.41147080920E+02  0.10000000000E+01 0. -1.
        -13    1    6    6    0    0  0.38677668052E+01  0.59118156879E+01  0.27080873900E+01  0.75666338024E+01  0.10500000000E+00 0. -1.
         13    1    6    6    0    0  0.69657501147E+01  0.10760716042E+02  0.50730469125E+01  0.13786279933E+02  0.10500000000E+00 0.  1.
</event>
<event>
11    0  0.3476221E-009  0.9118800E+02  0.7816531E-02  0.1126479E+00
         25   -1    0    0    0    0  0.00000000000E+00  0.00000000000E+00  0.99999998245E-14  0.12500000000E+03  0.12500000000E+03 0.  0.
    3000001    1    3    3    0    0 -0.16751200762E+02 -0.22150543457E+02 -0.24285863474E+02  0.36905995002E+02  0.10000000000E+01 0.  1.
    1000022    2    1    0    0    0 -0.26132705816E+02 -0.31417257822E+02 -0.46219992102E+02  0.62500000673E+02  0.10000000601E+02 0.  0.
    3000022    2    3    3    0    0 -0.93815050536E+01 -0.92667143641E+01 -0.21934128628E+02  0.25594005672E+02  0.24999090729E+00 0.  0.
    1000022    2    1    0    0    0  0.26132705816E+02  0.31417257822E+02  0.46219992102E+02  0.62499999327E+02  0.99999921830E+01 0.  0.
    3000022    2    5    5    0    0  0.11033019968E+02  0.20481265494E+02  0.28111502192E+02  0.36490119517E+02  0.25000208628E+00 0.  0.
        -13    1    4    4    0    0 -0.22485564524E+01 -0.22233338046E+01 -0.52990487065E+01  0.61717227352E+01  0.10500000000E+00 0. -1.
         13    1    4    4    0    0 -0.71329486012E+01 -0.70433805595E+01 -0.16635079922E+02  0.19422282936E+02  0.10500000000E+00 0.  1.
    3000001    1    5    5    0    0  0.15099685847E+02  0.10935992327E+02  0.18108489910E+02  0.26009879810E+02  0.10000000000E+01 0.  1.
        -13    1    6    6    0    0  0.78876933197E+01  0.14686779715E+02  0.20198802404E+02  0.26190071551E+02  0.10500000000E+00 0. -1.
         13    1    6    6    0    0  0.31453266484E+01  0.57944857790E+01  0.79126997875E+01  0.10300047966E+02  0.10500000000E+00 0.  1.
</event>
<event>
11    0  0.3476221E-009  0.9118800E+02  0.7816531E-02  0.1126479E+00
         25   -1    0    0    0    0  0.00000000000E+00  0.00000000000E+00  0.99999998245E-14  0.12500000000E+03  0.12500000000E+03 0.  0.
    3000001    1    3    3    0    0  0.59281943387E-01  0.11937279471E+01  0.83375643502E+00  0.17673852306E+01  0.10000000000E+01 0.  1.
    1000022    2    1    0    0    0  0.41314032103E+02  0.19123253760E+02  0.41637745969E+02  0.62499998977E+02  0.99999949859E+01 0.  0.
    3000022    2    3    3    0    0  0.41254750160E+02  0.17929525813E+02  0.40803989534E+02  0.60732613746E+02  0.25000783604E+00 0.  0.
    1000022    2    1    0    0    0 -0.41314032103E+02 -0.19123253760E+02 -0.41637745969E+02  0.62500001023E+02  0.10000007777E+02 0.  0.
    3000022    2    5    5    0    0 -0.27623332129E+02 -0.15833592682E+02 -0.33450328810E+02  0.46181577830E+02  0.24999641440E+00 0.  0.
        -13    1    4    4    0    0  0.15434208550E+02  0.66607328460E+01  0.15192370460E+02  0.22658316372E+02  0.10500000000E+00 0.  1.
         13    1    4    4    0    0  0.25820541610E+02  0.11268792967E+02  0.25611619074E+02  0.38074297374E+02  0.10500000000E+00 0. -1.
    3000001    1    5    5    0    0 -0.13690699974E+02 -0.32896610775E+01 -0.81874171593E+01  0.16318423194E+02  0.10000000000E+01 0.  1.
        -13    1    6    6    0    0 -0.10051696912E+02 -0.58176008094E+01 -0.12249597586E+02  0.16880306751E+02  0.10500000000E+00 0. -1.
         13    1    6    6    0    0 -0.17571635217E+02 -0.10015991873E+02 -0.21200731224E+02  0.29301271079E+02  0.10500000000E+00 0.  1.
</event>
<event>
11    0  0.3476221E-009  0.9118800E+02  0.7816531E-02  0.1126479E+00
         25   -1    0    0    0    0  0.00000000000E+00  0.00000000000E+00  0.99999998245E-14  0.12500000000E+03  0.12500000000E+03 0.  0.
    3000001    1    3    3    0    0 -0.10820317803E+02  0.31339570694E+02  0.16566608800E+02  0.37076953701E+02  0.10000000000E+01 0.  1.
    1000022    2    1    0    0    0 -0.10110780788E+02  0.53846855064E+02  0.28364384455E+02  0.62500000487E+02  0.10000003343E+02 0.  0.
    3000022    2    3    3    0    0  0.70953701515E+00  0.22507284370E+02  0.11797775655E+02  0.25423046786E+02  0.25000987167E+00 0.  0.
    1000022    2    1    0    0    0  0.10110780788E+02 -0.53846855064E+02 -0.28364384455E+02  0.62499999513E+02  0.99999972590E+01 0.  0.
    3000022    2    5    5    0    0  0.64531154487E+01 -0.44277464503E+02 -0.19101461982E+02  0.48652491282E+02  0.24999272867E+00 0.  0.
        -13    1    4    4    0    0  0.36984100354E+00  0.11536484667E+02  0.61234092134E+01  0.13066538418E+02  0.10500000000E+00 0. -1.
         13    1    4    4    0    0  0.33969601161E+00  0.10970799704E+02  0.56743664420E+01  0.12356508367E+02  0.10500000000E+00 0.  1.
    3000001    1    5    5    0    0  0.36576653391E+01 -0.95693905617E+01 -0.92629224736E+01  0.13847508231E+02  0.10000000000E+01 0. -1.
        -13    1    6    6    0    0  0.37196353351E+01 -0.25082699378E+02 -0.10805579804E+02  0.27563546126E+02  0.10500000000E+00 0. -1.
         13    1    6    6    0    0  0.27334801136E+01 -0.19194765124E+02 -0.82958821774E+01  0.21088945156E+02  0.10500000000E+00 0.  1.
</event>
<event>
11    0  0.3476221E-009  0.9118800E+02  0.7816531E-02  0.1126479E+00
         25   -1    0    0    0    0  0.00000000000E+00  0.00000000000E+00  0.99999998245E-14  0.12500000000E+03  0.12500000000E+03 0.  0.
    3000001    1    3    3    0    0 -0.31379963834E+01  0.23547219290E+02  0.13306020876E+02  0.27246444707E+02  0.10000000000E+01 0.  1.
    1000022    2    1    0    0    0  0.17320479829E+01  0.56701423249E+02  0.24252806172E+02  0.62500000243E+02  0.10000001727E+02 0.  0.
    3000022    2    3    3    0    0  0.48700443663E+01  0.33154203959E+02  0.10946785296E+02  0.35253555537E+02  0.24999479033E+00 0.  0.
    1000022    2    1    0    0    0 -0.17320479829E+01 -0.56701423249E+02 -0.24252806172E+02  0.62499999757E+02  0.99999986865E+01 0.  0.
    3000022    2    5    5    0    0 -0.16595385807E+01 -0.42379039167E+02 -0.22571430729E+02  0.48044448339E+02  0.25000411117E+00 0.  0.
        -13    1    4    4    0    0  0.29781546484E+01  0.20478036436E+02  0.67036230544E+01  0.21752447413E+02  0.10500000000E+00 0.  1.
         13    1    4    4    0    0  0.18918897179E+01  0.12676167523E+02  0.42431622414E+01  0.13501108124E+02  0.10500000000E+00 0. -1.
    3000001    1    5    5    0    0 -0.72509402169E-01 -0.14322384082E+02 -0.16813754426E+01  0.14455551417E+02  0.10000000000E+01 0.  1.
        -13    1    6    6    0    0 -0.12246544995E+01 -0.30450711271E+02 -0.16191563093E+02  0.34509757112E+02  0.10500000000E+00 0.  1.
         13    1    6    6    0    0 -0.43488408123E+00 -0.11928327896E+02 -0.63798676358E+01  0.13534691227E+02  0.10500000000E+00 0. -1.
</event>
<event>
11    0  0.3476221E-009  0.9118800E+02  0.7816531E-02  0.1126479E+00
         25   -1    0    0    0    0  0.00000000000E+00  0.00000000000E+00  0.99999998245E-14  0.12500000000E+03  0.12500000000E+03 0.  0.
    3000001    1    3    3    0    0 -0.92869031504E+00  0.28059012842E+02 -0.33397368269E+02  0.43641206155E+02  0.10000000000E+01 0. -1.
    1000022    2    1    0    0    0 -0.61241306493E+01  0.42645377905E+02 -0.44160126065E+02  0.62500000157E+02  0.10000002632E+02 0.  0.
    3000022    2    3    3    0    0 -0.51954403343E+01  0.14586365063E+02 -0.10762757796E+02  0.18858794002E+02  0.25001961083E+00 0.  0.
    1000022    2    1    0    0    0  0.61241306493E+01 -0.42645377905E+02  0.44160126065E+02  0.62499999843E+02  0.10000000669E+02 0.  0.
    3000022    2    5    5    0    0  0.74048099357E+01 -0.27756740152E+02  0.33416452711E+02  0.44068011596E+02  0.25000041903E+00 0.  0.
        -13    1    4    4    0    0 -0.16618711666E+01  0.46408569535E+01 -0.34874325852E+01  0.60392532711E+01  0.10500000000E+00 0. -1.
         13    1    4    4    0    0 -0.35335691677E+01  0.99455081100E+01 -0.72753252112E+01  0.12819540731E+02  0.10500000000E+00 0.  1.
    3000001    1    5    5    0    0 -0.12806792864E+01 -0.14888637753E+02  0.10743673354E+02  0.18431988247E+02  0.10000000000E+01 0. -1.
        -13    1    6    6    0    0  0.26113110161E+01 -0.99168121472E+01  0.11856603494E+02  0.15676484931E+02  0.10500000000E+00 0.  1.
         13    1    6    6    0    0  0.47934989196E+01 -0.17839928005E+02  0.21559849217E+02  0.28391526665E+02  0.10500000000E+00 0. -1.
</event>
<event>
11    0  0.3476221E-009  0.9118800E+02  0.7816531E-02  0.1126479E+00
         25   -1    0    0    0    0  0.00000000000E+00  0.00000000000E+00  0.99999998245E-14  0.12500000000E+03  0.12500000000E+03 0.  0.
    3000001    1    3    3    0    0  0.23131014137E+02  0.30735777077E+02 -0.32168932247E+01  0.38614507760E+02  0.10000000000E+01 0.  1.
    1000022    2    1    0    0    0  0.30610491908E+02  0.53124728762E+02 -0.68564651414E+01  0.62499999828E+02  0.99999921721E+01 0.  0.
    3000022    2    3    3    0    0  0.74794777713E+01  0.22388951685E+02 -0.36395719168E+01  0.23885492068E+02  0.25000468168E+00 0.  0.
    1000022    2    1    0    0    0 -0.30610491908E+02 -0.53124728762E+02  0.68564651414E+01  0.62500000172E+02  0.99999943185E+01 0.  0.
    3000022    2    5    5    0    0 -0.26059197568E+02 -0.39923652458E+02  0.21289781064E+01  0.47723944223E+02  0.25000180287E+00 0.  0.
        -13    1    4    4    0    0  0.31542546819E+01  0.93013139130E+01 -0.15615607581E+01  0.99455145722E+01  0.10500000000E+00 0.  1.
         13    1    4    4    0    0  0.43252230894E+01  0.13087637772E+02 -0.20780111587E+01  0.13939977496E+02  0.10500000000E+00 0. -1.
    3000001    1    5    5    0    0 -0.45512943399E+01 -0.13201076304E+02  0.47274870351E+01  0.14776055949E+02  0.10000000000E+01 0.  1.
        -13    1    6    6    0    0 -0.11648403157E+02 -0.17858313175E+02  0.88587860287E+00  0.21340113671E+02  0.10500000000E+00 0. -1.
         13    1    6    6    0    0 -0.14410794411E+02 -0.22065339283E+02  0.12430995035E+01  0.26383830552E+02  0.10500000000E+00 0.  1.
</event>
<event>
11    0  0.3476221E-009  0.9118800E+02  0.7816531E-02  0.1126479E+00
         25   -1    0    0    0    0  0.00000000000E+00  0.00000000000E+00  0.99999998245E-14  0.12500000000E+03  0.12500000000E+03 0.  0.
    3000001    1    3    3    0    0 -0.12292260354E+02  0.11458085602E+02  0.22374369134E+01  0.16982152814E+02  0.10000000000E+01 0. -1.
    1000022    2    1    0    0    0 -0.53076789936E+02  0.31440159707E+02 -0.78750643066E+00  0.62499994542E+02  0.99999939525E+01 0.  0.
    3000022    2    3    3    0    0 -0.40784529582E+02  0.19982074106E+02 -0.30249433441E+01  0.45517841728E+02  0.24998906179E+00 0.  0.
    1000022    2    1    0    0    0  0.53076789936E+02 -0.31440159707E+02  0.78750643066E+00  0.62500005458E+02  0.10000062173E+02 0.  0.
    3000022    2    5    5    0    0  0.32368760777E+02 -0.23517991190E+02  0.33859394994E+01  0.40154198690E+02  0.25000460636E+00 0.  0.
        -13    1    4    4    0    0 -0.30502550779E+02  0.14942154499E+02 -0.22347178775E+01  0.34039368004E+02  0.10500000000E+00 0.  1.
         13    1    4    4    0    0 -0.10281978803E+02  0.50399196061E+01 -0.79022546652E+00  0.11478473724E+02  0.10500000000E+00 0. -1.
    3000001    1    5    5    0    0  0.20708029159E+02 -0.79221685176E+01 -0.25984330687E+01  0.22345806767E+02  0.10000000000E+01 0. -1.
        -13    1    6    6    0    0  0.10312183393E+02 -0.75491374890E+01  0.11030847310E+01  0.12828032744E+02  0.10500000000E+00 0. -1.
         13    1    6    6    0    0  0.22056577384E+02 -0.15968853701E+02  0.22828547684E+01  0.27326165946E+02  0.10500000000E+00 0.  1.
</event>
<event>
11    0  0.3476221E-009  0.9118800E+02  0.7816531E-02  0.1126479E+00
         25   -1    0    0    0    0  0.00000000000E+00  0.00000000000E+00  0.99999998245E-14  0.12500000000E+03  0.12500000000E+03 0.  0.
    3000001    1    3    3    0    0  0.10288300493E+02 -0.17590085735E+02  0.52634621712E+01  0.21070459825E+02  0.10000000000E+01 0.  1.
    1000022    2    1    0    0    0  0.39027212519E+02 -0.47424511920E+02  0.58345877897E+01  0.62499999242E+02  0.99999921419E+01 0.  0.
    3000022    2    3    3    0    0  0.28738912025E+02 -0.29834426185E+02  0.57112561849E+00  0.41429539417E+02  0.25000342233E+00 0.  0.
    1000022    2    1    0    0    0 -0.39027212519E+02  0.47424511920E+02 -0.58345877897E+01  0.62500000758E+02  0.10000001611E+02 0.  0.
    3000022    2    5    5    0    0 -0.38558687871E+02  0.46306127342E+02 -0.44795691823E+01  0.60424820082E+02  0.25000429476E+00 0.  0.
        -13    1    4    4    0    0  0.18806107723E+02 -0.19600906467E+02  0.36175298238E+00  0.27166286317E+02  0.10500000000E+00 0.  1.
         13    1    4    4    0    0  0.99328043023E+01 -0.10233519717E+02  0.20937263610E+00  0.14263253100E+02  0.10500000000E+00 0. -1.
    3000001    1    5    5    0    0 -0.46852464735E+00  0.11183845780E+01 -0.13550186074E+01  0.20751806754E+01  0.10000000000E+01 0. -1.
        -13    1    6    6    0    0 -0.26700113561E+02  0.32001098949E+02 -0.30728591169E+01  0.41790188876E+02  0.10500000000E+00 0.  1.
         13    1    6    6    0    0 -0.11858574310E+02  0.14305028393E+02 -0.14067100654E+01  0.18634631206E+02  0.10500000000E+00 0. -1.
</event>
<event>
11    0  0.3476221E-009  0.9118800E+02  0.7816531E-02  0.1126479E+00
         25   -1    0    0    0    0  0.00000000000E+00  0.00000000000E+00  0.99999998245E-14  0.12500000000E+03  0.12500000000E+03 0.  0.
    3000001    1    3    3    0    0 -0.17379107749E+02  0.53621615325E+02  0.17583959152E+02  0.59055115237E+02  0.10000000000E+01 0.  1.
    1000022    2    1    0    0    0 -0.18340446874E+02  0.55238645648E+02  0.20458984889E+02  0.62500000419E+02  0.10000001257E+02 0.  0.
    3000022    2    3    3    0    0 -0.96133912538E+00  0.16170303228E+01  0.28750257375E+01  0.34448851821E+01  0.25000189612E+00 0.  0.
    1000022    2    1    0    0    0  0.18340446874E+02 -0.55238645648E+02 -0.20458984889E+02  0.62499999581E+02  0.99999960200E+01 0.  0.
    3000022    2    5    5    0    0  0.15401428083E+01 -0.78847667680E+01  0.49042378247E+00  0.80526141034E+01  0.24998311197E+00 0.  0.
        -13    1    4    4    0    0 -0.32927225967E+00  0.67439299915E+00  0.11250933607E+01  0.13564977731E+01  0.10500000000E+00 0. -1.
         13    1    4    4    0    0 -0.63206686571E+00  0.94263732369E+00  0.17499323768E+01  0.20883874090E+01  0.10500000000E+00 0.  1.
    3000001    1    5    5    0    0  0.16800304066E+02 -0.47353878880E+02 -0.20949408672E+02  0.54447385478E+02  0.10000000000E+01 0.  1.
        -13    1    6    6    0    0  0.58656050559E+00 -0.27582501389E+01  0.20405172339E+00  0.28292506360E+01  0.10500000000E+00 0. -1.
         13    1    6    6    0    0  0.95358230274E+00 -0.51265166291E+01  0.28637205908E+00  0.52233634675E+01  0.10500000000E+00 0.  1.
</event>
<event>
11    0  0.3476221E-009  0.9118800E+02  0.7816531E-02  0.1126479E+00
         25   -1    0    0    0    0  0.00000000000E+00  0.00000000000E+00  0.99999998245E-14  0.12500000000E+03  0.12500000000E+03 0.  0.
    3000001    1    3    3    0    0 -0.39041908487E+02 -0.38874911290E+02 -0.34128835513E+01  0.55210299041E+02  0.10000000000E+01 0. -1.
    1000022    2    1    0    0    0 -0.45419897750E+02 -0.41328120473E+02 -0.59388014510E+01  0.62500000346E+02  0.10000001356E+02 0.  0.
    3000022    2    3    3    0    0 -0.63779892635E+01 -0.24532091835E+01 -0.25259178998E+01  0.72897013051E+01  0.25000307746E+00 0.  0.
    1000022    2    1    0    0    0  0.45419897750E+02  0.41328120473E+02  0.59388014510E+01  0.62499999654E+02  0.99999970265E+01 0.  0.
    3000022    2    5    5    0    0  0.32490146020E+02  0.23264453673E+02  0.30728024994E+01  0.40079284052E+02  0.25000370523E+00 0.  0.
        -13    1    4    4    0    0 -0.32433914899E+01 -0.12200438885E+01 -0.13477396514E+01  0.37196132346E+01  0.10500000000E+00 0. -1.
         13    1    4    4    0    0 -0.31345977735E+01 -0.12331652949E+01 -0.11781782484E+01  0.35700880705E+01  0.10500000000E+00 0.  1.
    3000001    1    5    5    0    0  0.12929751731E+02  0.18063666801E+02  0.28659989517E+01  0.22420715602E+02  0.10000000000E+01 0.  1.
        -13    1    6    6    0    0  0.11499041345E+02  0.81896863516E+01  0.10411103194E+01  0.14156053479E+02  0.10500000000E+00 0.  1.
         13    1    6    6    0    0  0.20991104675E+02  0.15074767321E+02  0.20316921800E+01  0.25923230573E+02  0.10500000000E+00 0. -1.
</event>
<event>
11    0  0.3476221E-009  0.9118800E+02  0.7816531E-02  0.1126479E+00
         25   -1    0    0    0    0  0.00000000000E+00  0.00000000000E+00  0.99999998245E-14  0.12500000000E+03  0.12500000000E+03 0.  0.
    3000001    1    3    3    0    0  0.29587314490E+02 -0.14288457999E+02 -0.58520705154E+01  0.33388859519E+02  0.10000000000E+01 0.  1.
    1000022    2    1    0    0    0  0.56705506695E+02 -0.24208423302E+02 -0.21650806597E+01  0.62499998762E+02  0.10000001135E+02 0.  0.
    3000022    2    3    3    0    0  0.27118192206E+02 -0.99199653027E+01  0.36869898557E+01  0.29111139243E+02  0.24994741007E+00 0.  0.
    1000022    2    1    0    0    0 -0.56705506695E+02  0.24208423302E+02  0.21650806597E+01  0.62500001238E+02  0.10000016605E+02 0.  0.
    3000022    2    5    5    0    0 -0.16080534752E+02  0.22150586393E+01 -0.14903570316E+00  0.16234986711E+02  0.24999837816E+00 0.  0.
        -13    1    4    4    0    0  0.11744374583E+02 -0.43327116482E+01  0.15419127999E+01  0.12613137780E+02  0.10500000000E+00 0. -1.
         13    1    4    4    0    0  0.15373817623E+02 -0.55872536545E+01  0.21450770558E+01  0.16498001463E+02  0.10500000000E+00 0.  1.
    3000001    1    5    5    0    0 -0.40624971943E+02  0.21993364662E+02  0.23141163629E+01  0.46265014526E+02  0.10000000000E+01 0. -1.
        -13    1    6    6    0    0 -0.45304409831E+01  0.66072532969E+00 -0.59707082448E-01  0.45799610695E+01  0.10500000000E+00 0.  1.
         13    1    6    6    0    0 -0.11550093769E+02  0.15543333096E+01 -0.89328620714E-01  0.11655025642E+02  0.10500000000E+00 0. -1.
</event>
<event>
11    0  0.3476221E-009  0.9118800E+02  0.7816531E-02  0.1126479E+00
         25   -1    0    0    0    0  0.00000000000E+00  0.00000000000E+00  0.99999998245E-14  0.12500000000E+03  0.12500000000E+03 0.  0.
    3000001    1    3    3    0    0 -0.20538905244E+00  0.68680219249E+00  0.67673885083E-01  0.12322587671E+01  0.10000000000E+01 0.  1.
    1000022    2    1    0    0    0 -0.29921649982E+02  0.24994757220E+02  0.47814300814E+02  0.62499996831E+02  0.99999607690E+01 0.  0.
    3000022    2    3    3    0    0 -0.29716260930E+02  0.24307955028E+02  0.47746626929E+02  0.61267738064E+02  0.25000617912E+00 0.  0.
    1000022    2    1    0    0    0  0.29921649982E+02 -0.24994757220E+02 -0.47814300814E+02  0.62500003169E+02  0.10000000382E+02 0.  0.
    3000022    2    5    5    0    0  0.28172122562E+02 -0.19397806807E+02 -0.42184875331E+02  0.54309940203E+02  0.24999917975E+00 0.  0.
        -13    1    4    4    0    0 -0.73105233960E+01  0.59986368590E+01  0.11792097805E+02  0.15115951579E+02  0.10500000000E+00 0. -1.
         13    1    4    4    0    0 -0.22405737534E+02  0.18309318169E+02  0.35954529124E+02  0.46151786485E+02  0.10500000000E+00 0.  1.
    3000001    1    5    5    0    0  0.17495274200E+01 -0.55969504126E+01 -0.56294254830E+01  0.81900629658E+01  0.10000000000E+01 0. -1.
        -13    1    6    6    0    0  0.15771641470E+02 -0.10790595608E+02 -0.23513934596E+02  0.30300128274E+02  0.10500000000E+00 0. -1.
         13    1    6    6    0    0  0.12400481092E+02 -0.86072111991E+01 -0.18670940736E+02  0.24009811930E+02  0.10500000000E+00 0.  1.
</event>
<event>
11    0  0.3476221E-009  0.9118800E+02  0.7816531E-02  0.1126479E+00
         25   -1    0    0    0    0  0.00000000000E+00  0.00000000000E+00  0.99999998245E-14  0.12500000000E+03  0.12500000000E+03 0.  0.
    3000001    1    3    3    0    0  0.25932754544E+02  0.19016811494E+02  0.37893502323E+02  0.49709801809E+02  0.10000000000E+01 0.  1.
    1000022    2    1    0    0    0  0.34034908272E+02  0.19086618952E+02  0.47786776374E+02  0.62499998831E+02  0.99999926760E+01 0.  0.
    3000022    2    3    3    0    0  0.81021537285E+01  0.69807458296E-01  0.98932740512E+01  0.12790197022E+02  0.25000056274E+00 0.  0.
    1000022    2    1    0    0    0 -0.34034908272E+02 -0.19086618952E+02 -0.47786776374E+02  0.62500001169E+02  0.10000007287E+02 0.  0.
    3000022    2    5    5    0    0 -0.12112741892E+02 -0.55559084370E+01 -0.23841639106E+02  0.27314334987E+02  0.25001168014E+00 0.  0.
        -13    1    4    4    0    0  0.36983476307E+01 -0.10558079103E-01  0.44341843211E+01  0.57750240055E+01  0.10500000000E+00 0. -1.
         13    1    4    4    0    0  0.44038060978E+01  0.80365537399E-01  0.54590897301E+01  0.70151730163E+01  0.10500000000E+00 0.  1.
    3000001    1    5    5    0    0 -0.21922166380E+02 -0.13530710515E+02 -0.23945137269E+02  0.35185666182E+02  0.10000000000E+01 0.  1.
        -13    1    6    6    0    0 -0.48443003636E+01 -0.21539441067E+01 -0.94624957410E+01  0.10846961412E+02  0.10500000000E+00 0. -1.
         13    1    6    6    0    0 -0.72684415287E+01 -0.34019643303E+01 -0.14379143365E+02  0.16467373575E+02  0.10500000000E+00 0.  1.
</event>
<event>
11    0  0.3476221E-009  0.9118800E+02  0.7816531E-02  0.1126479E+00
         25   -1    0    0    0    0  0.00000000000E+00  0.00000000000E+00  0.99999998245E-14  0.12500000000E+03  0.12500000000E+03 0.  0.
    3000001    1    3    3    0    0  0.29217938750E+02 -0.92506794183E+01  0.12700301541E+02  0.33189767606E+02  0.10000000000E+01 0.  1.
    1000022    2    1    0    0    0  0.54543389970E+02 -0.23416531267E+02  0.16820661682E+02  0.62499999724E+02  0.99999989998E+01 0.  0.
    3000022    2    3    3    0    0  0.25325451220E+02 -0.14165851849E+02  0.41203601408E+01  0.29310232117E+02  0.25000196682E+00 0.  0.
    1000022    2    1    0    0    0 -0.54543389970E+02  0.23416531267E+02 -0.16820661682E+02  0.62500000276E+02  0.10000002455E+02 0.  0.
    3000022    2    5    5    0    0 -0.25647891614E+02  0.73091673428E+01 -0.11213055414E+02  0.28931529267E+02  0.25000506166E+00 0.  0.
        -13    1    4    4    0    0  0.14012565051E+02 -0.78964478740E+01  0.22408530751E+01  0.16240022040E+02  0.10500000000E+00 0.  1.
         13    1    4    4    0    0  0.11312886168E+02 -0.62694039752E+01  0.18795070657E+01  0.13070210077E+02  0.10500000000E+00 0. -1.
    3000001    1    5    5    0    0 -0.28895498356E+02  0.16107363925E+02 -0.56076062686E+01  0.33568471009E+02  0.10000000000E+01 0.  1.
        -13    1    6    6    0    0 -0.13083111959E+02  0.36608948092E+01 -0.57330554039E+01  0.14746149280E+02  0.10500000000E+00 0. -1.
         13    1    6    6    0    0 -0.12564779656E+02  0.36482725336E+01 -0.54800000097E+01  0.14185379987E+02  0.10500000000E+00 0.  1.
</event>
<event>
11    0  0.3476221E-009  0.9118800E+02  0.7816531E-02  0.1126479E+00
         25   -1    0    0    0    0  0.00000000000E+00  0.00000000000E+00  0.99999998245E-14  0.12500000000E+03  0.12500000000E+03 0.  0.
    3000001    1    3    3    0    0  0.20932863140E+02  0.18917941218E+02  0.19416559972E+02  0.34264793306E+02  0.10000000000E+01 0. -1.
    1000022    2    1    0    0    0  0.42703398978E+02  0.34895666908E+02  0.27657948121E+02  0.62500000583E+02  0.10000006273E+02 0.  0.
    3000022    2    3    3    0    0  0.21770535838E+02  0.15977725690E+02  0.82413881489E+01  0.28235207277E+02  0.25000496072E+00 0.  0.
    1000022    2    1    0    0    0 -0.42703398978E+02 -0.34895666908E+02 -0.27657948121E+02  0.62499999417E+02  0.99999989827E+01 0.  0.
    3000022    2    5    5    0    0 -0.11887290946E+02 -0.44817183580E+01 -0.71670189920E+01  0.14588425062E+02  0.24999815030E+00 0.  0.
        -13    1    4    4    0    0  0.10875196551E+02  0.79073231451E+01  0.41370012235E+01  0.14068456328E+02  0.10500000000E+00 0. -1.
         13    1    4    4    0    0  0.10895339287E+02  0.80704025448E+01  0.41043869254E+01  0.14166750949E+02  0.10500000000E+00 0.  1.
    3000001    1    5    5    0    0 -0.30816108031E+02 -0.30413948550E+02 -0.20490929129E+02  0.47911574355E+02  0.10000000000E+01 0.  1.
        -13    1    6    6    0    0 -0.33267536584E+01 -0.12705804824E+01 -0.19674102053E+01  0.40698148093E+01  0.10500000000E+00 0. -1.
         13    1    6    6    0    0 -0.85605372881E+01 -0.32111378757E+01 -0.51996087866E+01  0.10518610253E+02  0.10500000000E+00 0.  1.
</event>
<event>
11    0  0.3476221E-009  0.9118800E+02  0.7816531E-02  0.1126479E+00
         25   -1    0    0    0    0  0.00000000000E+00  0.00000000000E+00  0.99999998245E-14  0.12500000000E+03  0.12500000000E+03 0.  0.
    3000001    1    3    3    0    0 -0.11220494599E+01 -0.11854215784E+01  0.89350106849E+01  0.91377587650E+01  0.10000000000E+01 0.  1.
    1000022    2    1    0    0    0 -0.94666939256E+01  0.15049066113E+02  0.59077553662E+02  0.62500000085E+02  0.99999989590E+01 0.  0.
    3000022    2    3    3    0    0 -0.83446444656E+01  0.16234487692E+02  0.50142542978E+02  0.53362241320E+02  0.25000121867E+00 0.  0.
    1000022    2    1    0    0    0  0.94666939256E+01 -0.15049066113E+02 -0.59077553662E+02  0.62499999915E+02  0.99999978914E+01 0.  0.
    3000022    2    5    5    0    0  0.10697225791E+02 -0.89987399495E+01 -0.44282889341E+02  0.46437535977E+02  0.24999785617E+00 0.  0.
        -13    1    4    4    0    0 -0.57789234302E+01  0.11334506405E+02  0.35007210961E+02  0.37247588321E+02  0.10500000000E+00 0.  1.
         13    1    4    4    0    0 -0.25657210355E+01  0.48999812867E+01  0.15135332016E+02  0.16114652999E+02  0.10500000000E+00 0. -1.
    3000001    1    5    5    0    0 -0.12305318657E+01 -0.60503261638E+01 -0.14794664322E+02  0.16062463938E+02  0.10000000000E+01 0. -1.
        -13    1    6    6    0    0  0.43344322202E+01 -0.35637791801E+01 -0.17764691651E+02  0.18630166912E+02  0.10500000000E+00 0. -1.
         13    1    6    6    0    0  0.63627935711E+01 -0.54349607694E+01 -0.26518197689E+02  0.27807369065E+02  0.10500000000E+00 0.  1.
</event>
<event>
11    0  0.3476221E-009  0.9118800E+02  0.7816531E-02  0.1126479E+00
         25   -1    0    0    0    0  0.00000000000E+00  0.00000000000E+00  0.99999998245E-14  0.12500000000E+03  0.12500000000E+03 0.  0.
    3000001    1    3    3    0    0  0.21804865162E+02 -0.23021252583E+01 -0.16888632636E+02  0.27694364729E+02  0.10000000000E+01 0. -1.
    1000022    2    1    0    0    0  0.48361028791E+02  0.58461965306E+01 -0.37858722340E+02  0.62499998580E+02  0.99999922801E+01 0.  0.
    3000022    2    3    3    0    0  0.26556163629E+02  0.81483217889E+01 -0.20970089704E+02  0.34805633850E+02  0.25002170619E+00 0.  0.
    1000022    2    1    0    0    0 -0.48361028791E+02 -0.58461965306E+01  0.37858722340E+02  0.62500001420E+02  0.10000010036E+02 0.  0.
    3000022    2    5    5    0    0 -0.26701813418E+02 -0.77770374695E+01  0.18828655277E+02  0.33586454255E+02  0.24999643439E+00 0.  0.
        -13    1    4    4    0    0  0.18687306103E+02  0.57715352913E+01 -0.14731182671E+02  0.24485603870E+02  0.10500000000E+00 0.  1.
         13    1    4    4    0    0  0.78688575266E+01  0.23767864976E+01 -0.62389070335E+01  0.10320029981E+02  0.10500000000E+00 0. -1.
    3000001    1    5    5    0    0 -0.21659215373E+02  0.19308409388E+01  0.19030067063E+02  0.28913547166E+02  0.10000000000E+01 0.  1.
        -13    1    6    6    0    0 -0.82887786682E+01 -0.24184026251E+01  0.57874968503E+01  0.10395127121E+02  0.10500000000E+00 0. -1.
         13    1    6    6    0    0 -0.18413034750E+02 -0.53586348443E+01  0.13041158427E+02  0.23191327134E+02  0.10500000000E+00 0.  1.
</event>
<event>
11    0  0.3476221E-009  0.9118800E+02  0.7816531E-02  0.1126479E+00
         25   -1    0    0    0    0  0.00000000000E+00  0.00000000000E+00  0.99999998245E-14  0.12500000000E+03  0.12500000000E+03 0.  0.
    3000001    1    3    3    0    0  0.34360118485E+02  0.52403707289E+01 -0.46360559018E+02  0.57951537168E+02  0.10000000000E+01 0. -1.
    1000022    2    1    0    0    0  0.38639344441E+02  0.58953731852E+01 -0.47733589726E+02  0.62499999844E+02  0.10000001430E+02 0.  0.
    3000022    2    3    3    0    0  0.42792259559E+01  0.65500245627E+00 -0.13730307080E+01  0.45484626763E+01  0.24999278533E+00 0.  0.
    1000022    2    1    0    0    0 -0.38639344441E+02 -0.58953731852E+01  0.47733589726E+02  0.62500000156E+02  0.10000003374E+02 0.  0.
    3000022    2    5    5    0    0 -0.36711650523E+02 -0.37737060899E+01  0.46097924322E+02  0.59051395160E+02  0.25000343006E+00 0.  0.
        -13    1    4    4    0    0  0.24204341642E+01  0.38822067004E+00 -0.84366116594E+00  0.25946109525E+01  0.10500000000E+00 0.  1.
         13    1    4    4    0    0  0.18587917917E+01  0.26678178623E+00 -0.52936954207E+00  0.19538517238E+01  0.10500000000E+00 0. -1.
    3000001    1    5    5    0    0 -0.19276939175E+01 -0.21216670953E+01  0.16356654044E+01  0.34486049959E+01  0.10000000000E+01 0.  1.
        -13    1    6    6    0    0 -0.16026568825E+02 -0.16700431679E+01  0.20226384600E+02  0.25860348248E+02  0.10500000000E+00 0.  1.
         13    1    6    6    0    0 -0.20685081698E+02 -0.21036629220E+01  0.25871539721E+02  0.33191046912E+02  0.10500000000E+00 0. -1.
</event>
<event>
11    0  0.3476221E-009  0.9118800E+02  0.7816531E-02  0.1126479E+00
         25   -1    0    0    0    0  0.00000000000E+00  0.00000000000E+00  0.99999998245E-14  0.12500000000E+03  0.12500000000E+03 0.  0.
    3000001    1    3    3    0    0  0.79894627538E+01 -0.21282635400E+02  0.24076330170E+01  0.22881843925E+02  0.10000000000E+01 0.  1.
    1000022    2    1    0    0    0  0.10396905068E+02 -0.59500964469E+02  0.12561424399E+02  0.62500001823E+02  0.10000021861E+02 0.  0.
    3000022    2    3    3    0    0  0.24074423143E+01 -0.38218329070E+02  0.10153791382E+02  0.39618157899E+02  0.25000098411E+00 0.  0.
    1000022    2    1    0    0    0 -0.10396905068E+02  0.59500964469E+02 -0.12561424399E+02  0.62499998177E+02  0.99999990695E+01 0.  0.
    3000022    2    5    5    0    0 -0.61871340161E+01  0.25278264901E+02 -0.10101417604E+02  0.27917242771E+02  0.25000512413E+00 0.  0.
        -13    1    4    4    0    0  0.15777478980E+01 -0.25257486733E+02  0.67649018282E+01  0.26195511949E+02  0.10500000000E+00 0. -1.
         13    1    4    4    0    0  0.82969441636E+00 -0.12960842336E+02  0.33888895538E+01  0.13422645950E+02  0.10500000000E+00 0.  1.
    3000001    1    5    5    0    0 -0.42097710520E+01  0.34222699568E+02 -0.24600067948E+01  0.34582755406E+02  0.10000000000E+01 0. -1.
        -13    1    6    6    0    0 -0.26717586286E+01  0.10869980282E+02 -0.44141654404E+01  0.12032898530E+02  0.10500000000E+00 0. -1.
         13    1    6    6    0    0 -0.35153753875E+01  0.14408284619E+02 -0.56872521637E+01  0.15884344241E+02  0.10500000000E+00 0.  1.
</event>
<event>
11    0  0.3476221E-009  0.9118800E+02  0.7816531E-02  0.1126479E+00
         25   -1    0    0    0    0  0.00000000000E+00  0.00000000000E+00  0.99999998245E-14  0.12500000000E+03  0.12500000000E+03 0.  0.
    3000001    1    3    3    0    0 -0.26368516322E+02 -0.61323597342E+01 -0.34360777519E+02  0.43755771284E+02  0.10000000000E+01 0.  1.
    1000022    2    1    0    0    0 -0.33060212732E+02 -0.13139468819E+02 -0.50404630766E+02  0.62499999887E+02  0.99999938259E+01 0.  0.
    3000022    2    3    3    0    0 -0.66916964102E+01 -0.70071090849E+01 -0.16043853247E+02  0.18744228603E+02  0.25000071466E+00 0.  0.
    1000022    2    1    0    0    0  0.33060212732E+02  0.13139468819E+02  0.50404630766E+02  0.62500000113E+02  0.99999952366E+01 0.  0.
    3000022    2    5    5    0    0  0.23665798923E+02  0.13948828108E+02  0.37598036155E+02  0.46565165982E+02  0.25003182784E+00 0.  0.
        -13    1    4    4    0    0 -0.42293406725E+01 -0.44370776513E+01 -0.10262674507E+02  0.11954434058E+02  0.10500000000E+00 0.  1.
         13    1    4    4    0    0 -0.24623557377E+01 -0.25700314336E+01 -0.57811787403E+01  0.67897945459E+01  0.10500000000E+00 0. -1.
    3000001    1    5    5    0    0  0.93944138088E+01 -0.80935928861E+00  0.12806594611E+02  0.15934834131E+02  0.10000000000E+01 0. -1.
        -13    1    6    6    0    0  0.13937047776E+02  0.82820594942E+01  0.22233970858E+02  0.27517163649E+02  0.10500000000E+00 0. -1.
         13    1    6    6    0    0  0.97287511470E+01  0.56667686135E+01  0.15364065298E+02  0.19048002333E+02  0.10500000000E+00 0.  1.
</event>
<event>
11    0  0.3476221E-009  0.9118800E+02  0.7816531E-02  0.1126479E+00
         25   -1    0    0    0    0  0.00000000000E+00  0.00000000000E+00  0.99999998245E-14  0.12500000000E+03  0.12500000000E+03 0.  0.
    3000001    1    3    3    0    0 -0.61501757320E+01 -0.27066879483E+02 -0.22832846522E+02  0.35955243105E+02  0.10000000000E+01 0.  1.
    1000022    2    1    0    0    0 -0.12328063510E+02 -0.51058105277E+02 -0.32362613822E+02  0.62500001085E+02  0.10000004892E+02 0.  0.
    3000022    2    3    3    0    0 -0.61778877785E+01 -0.23991225794E+02 -0.95297673000E+01  0.26544757980E+02  0.24999779655E+00 0.  0.
    1000022    2    1    0    0    0  0.12328063510E+02  0.51058105277E+02  0.32362613822E+02  0.62499998915E+02  0.99999913307E+01 0.  0.
    3000022    2    5    5    0    0  0.10089840823E+02  0.46447362779E+02  0.25698561205E+02  0.54033701940E+02  0.25000091824E+00 0.  0.
        -13    1    4    4    0    0 -0.47523970435E+01 -0.18423379353E+02 -0.73259961740E+01  0.20388414097E+02  0.10500000000E+00 0. -1.
         13    1    4    4    0    0 -0.14254907349E+01 -0.55678464410E+01 -0.22037711260E+01  0.61563438827E+01  0.10500000000E+00 0.  1.
    3000001    1    5    5    0    0  0.22382226878E+01  0.46107424985E+01  0.66640526166E+01  0.84662969748E+01  0.10000000000E+01 0. -1.
        -13    1    6    6    0    0  0.68325139357E+01  0.31245804540E+02  0.17260602502E+02  0.36344504010E+02  0.10500000000E+00 0. -1.
         13    1    6    6    0    0  0.32573268869E+01  0.15201558238E+02  0.84379587035E+01  0.17689197930E+02  0.10500000000E+00 0.  1.
</event>
<event>
11    0  0.3476221E-009  0.9118800E+02  0.7816531E-02  0.1126479E+00
         25   -1    0    0    0    0  0.00000000000E+00  0.00000000000E+00  0.99999998245E-14  0.12500000000E+03  0.12500000000E+03 0.  0.
    3000001    1    3    3    0    0 -0.26580221645E+01  0.56914715304E+02 -0.21086029476E+02  0.60761587694E+02  0.10000000000E+01 0.  1.
    1000022    2    1    0    0    0 -0.39525139243E+01  0.57981982508E+02 -0.20705492011E+02  0.62500000360E+02  0.99999991821E+01 0.  0.
    3000022    2    3    3    0    0 -0.12944917598E+01  0.10672672038E+01  0.38053746535E+00  0.17384126658E+01  0.25000326699E+00 0.  0.
    1000022    2    1    0    0    0  0.39525139243E+01 -0.57981982508E+02  0.20705492011E+02  0.62499999640E+02  0.99999946870E+01 0.  0.
    3000022    2    5    5    0    0 -0.78543763672E+00 -0.19959923681E+01  0.27697696477E+01  0.35121244995E+01  0.24999356718E+00 0.  0.
        -13    1    4    4    0    0 -0.96750854305E+00  0.75460673829E+00  0.29187189623E+00  0.12655901051E+01  0.10500000000E+00 0.  1.
         13    1    4    4    0    0 -0.32698321675E+00  0.31266046549E+00  0.88665569115E-01  0.47282256066E+00  0.10500000000E+00 0. -1.
    3000001    1    5    5    0    0  0.47379515610E+01 -0.55985990140E+02  0.17935722363E+02  0.58987875141E+02  0.10000000000E+01 0.  1.
        -13    1    6    6    0    0 -0.41078493065E+00 -0.11233774059E+01  0.16388355435E+01  0.20316318549E+01  0.10500000000E+00 0. -1.
         13    1    6    6    0    0 -0.37465270607E+00 -0.87261496226E+00  0.11309341042E+01  0.14804926445E+01  0.10500000000E+00 0.  1.
</event>
<event>
11    0  0.3476221E-009  0.9118800E+02  0.7816531E-02  0.1126479E+00
         25   -1    0    0    0    0  0.00000000000E+00  0.00000000000E+00  0.99999998245E-14  0.12500000000E+03  0.12500000000E+03 0.  0.
    3000001    1    3    3    0    0  0.26727311616E+02 -0.74278101780E+01 -0.13277669943E+02  0.30770408989E+02  0.10000000000E+01 0. -1.
    1000022    2    1    0    0    0  0.49096513875E+02 -0.12555379770E+02 -0.35187283932E+02  0.62499998781E+02  0.99999830598E+01 0.  0.
    3000022    2    3    3    0    0  0.22369202259E+02 -0.51275695923E+01 -0.21909613989E+02  0.31729589792E+02  0.25000708318E+00 0.  0.
    1000022    2    1    0    0    0 -0.49096513875E+02  0.12555379770E+02  0.35187283932E+02  0.62500001219E+02  0.99999983015E+01 0.  0.
    3000022    2    5    5    0    0 -0.68136543826E+01 -0.16469823945E+01  0.54428686811E+01  0.88783867663E+01  0.24999007682E+00 0.  0.
        -13    1    4    4    0    0  0.72757923655E+01 -0.17207515953E+01 -0.71294288984E+01  0.10331404649E+02  0.10500000000E+00 0.  1.
         13    1    4    4    0    0  0.15093409894E+02 -0.34068179970E+01 -0.14780185091E+02  0.21398185143E+02  0.10500000000E+00 0. -1.
    3000001    1    5    5    0    0 -0.42282859492E+02  0.14202362165E+02  0.29744415251E+02  0.53621614453E+02  0.10000000000E+01 0.  1.
        -13    1    6    6    0    0 -0.28815215109E+01 -0.66009438917E+00  0.23646031467E+01  0.37869861185E+01  0.10500000000E+00 0. -1.
         13    1    6    6    0    0 -0.39321328718E+01 -0.98688800538E+00  0.30782655344E+01  0.50914006478E+01  0.10500000000E+00 0.  1.
</event>
<event>
11    0  0.3476221E-009  0.9118800E+02  0.7816531E-02  0.1126479E+00
         25   -1    0    0    0    0  0.00000000000E+00  0.00000000000E+00  0.99999998245E-14  0.12500000000E+03  0.12500000000E+03 0.  0.
    3000001    1    3    3    0    0 -0.12069878740E+02 -0.23244420381E+02  0.13544493002E+02  0.29503192070E+02  0.10000000000E+01 0.  1.
    1000022    2    1    0    0    0 -0.29834734000E+02 -0.41606414483E+02  0.34424481802E+02  0.62500000105E+02  0.99999993437E+01 0.  0.
    3000022    2    3    3    0    0 -0.17764855260E+02 -0.18361994102E+02  0.20879988799E+02  0.32996808035E+02  0.24999686823E+00 0.  0.
    1000022    2    1    0    0    0  0.29834734000E+02  0.41606414483E+02 -0.34424481802E+02  0.62499999895E+02  0.99999980252E+01 0.  0.
    3000022    2    5    5    0    0  0.46120294549E+01  0.14001222969E+02 -0.90510613194E+01  0.17299978987E+02  0.25000322026E+00 0.  0.
        -13    1    4    4    0    0 -0.52678283264E+01 -0.55026474808E+01  0.62530115266E+01  0.98559790344E+01  0.10500000000E+00 0. -1.
         13    1    4    4    0    0 -0.12497026934E+02 -0.12859346621E+02  0.14626977273E+02  0.23140829001E+02  0.10500000000E+00 0.  1.
    3000001    1    5    5    0    0  0.25222704545E+02  0.27605191514E+02 -0.25373420483E+02  0.45200020908E+02  0.10000000000E+01 0.  1.
        -13    1    6    6    0    0  0.11758876120E+01  0.35212894431E+01 -0.22532253200E+01  0.43439889918E+01  0.10500000000E+00 0. -1.
         13    1    6    6    0    0  0.34361418429E+01  0.10479933526E+02 -0.67978359993E+01  0.12955989995E+02  0.10500000000E+00 0.  1.
</event>
<event>
11    0  0.3476221E-009  0.9118800E+02  0.7816531E-02  0.1126479E+00
         25   -1    0    0    0    0  0.00000000000E+00  0.00000000000E+00  0.99999998245E-14  0.12500000000E+03  0.12500000000E+03 0.  0.
    3000001    1    3    3    0    0  0.22440324945E+01 -0.39154409979E+02 -0.18744505656E+00  0.39231857441E+02  0.10000000000E+01 0. -1.
    1000022    2    1    0    0    0  0.32916508014E+01 -0.61180641028E+02  0.72349273007E+01  0.62500000345E+02  0.10000003419E+02 0.  0.
    3000022    2    3    3    0    0  0.10476183069E+01 -0.22026231049E+02  0.74223723573E+01  0.23268142903E+02  0.25000880397E+00 0.  0.
    1000022    2    1    0    0    0 -0.32916508014E+01  0.61180641028E+02 -0.72349273007E+01  0.62499999655E+02  0.99999991127E+01 0.  0.
    3000022    2    5    5    0    0 -0.24810179401E+01  0.11122396492E+02 -0.47944359575E+01  0.12365770135E+02  0.25000223693E+00 0.  0.
        -13    1    4    4    0    0  0.78668675983E+00 -0.15637688511E+02  0.52675725413E+01  0.16520124803E+02  0.10500000000E+00 0. -1.
         13    1    4    4    0    0  0.26093154711E+00 -0.63885425385E+01  0.21547998159E+01  0.67480181005E+01  0.10500000000E+00 0.  1.
    3000001    1    5    5    0    0 -0.81063286135E+00  0.50058244536E+02 -0.24404913432E+01  0.50134229521E+02  0.10000000000E+01 0.  1.
        -13    1    6    6    0    0 -0.67777162195E+00  0.29858761855E+01 -0.13251156036E+01  0.33379315945E+01  0.10500000000E+00 0. -1.
         13    1    6    6    0    0 -0.18032463181E+01  0.81365203069E+01 -0.34693203539E+01  0.90278385402E+01  0.10500000000E+00 0.  1.
</event>
<event>
11    0  0.3476221E-009  0.9118800E+02  0.7816531E-02  0.1126479E+00
         25   -1    0    0    0    0  0.00000000000E+00  0.00000000000E+00  0.99999998245E-14  0.12500000000E+03  0.12500000000E+03 0.  0.
    3000001    1    3    3    0    0  0.25940185221E+02 -0.13325694550E+01 -0.28792618637E+01  0.26152611715E+02  0.10000000000E+01 0.  1.
    1000022    2    1    0    0    0  0.61241444033E+02  0.72509631687E+01 -0.17773616815E+01  0.62499999443E+02  0.99999990812E+01 0.  0.
    3000022    2    3    3    0    0  0.35301258812E+02  0.85835326237E+01  0.11019001822E+01  0.36347387727E+02  0.25000910680E+00 0.  0.
    1000022    2    1    0    0    0 -0.61241444033E+02 -0.72509631687E+01  0.17773616815E+01  0.62500000557E+02  0.10000006048E+02 0.  0.
    3000022    2    5    5    0    0 -0.85980208663E+01  0.20853999654E+01  0.17681523610E+01  0.90257285742E+01  0.25011535524E+00 0.  0.
        -13    1    4    4    0    0  0.22642017924E+02  0.54698394550E+01  0.65999367586E+00  0.23302934064E+02  0.10500000000E+00 0. -1.
         13    1    4    4    0    0  0.12659240889E+02  0.31136931687E+01  0.44190650637E+00  0.13044453664E+02  0.10500000000E+00 0.  1.
    3000001    1    5    5    0    0 -0.52643423167E+02 -0.93363631342E+01  0.92093205360E-02  0.53474271983E+02  0.10000000000E+01 0. -1.
        -13    1    6    6    0    0 -0.59720569724E+01  0.14968631509E+01  0.12276265291E+01  0.62788657948E+01  0.10500000000E+00 0. -1.
         13    1    6    6    0    0 -0.26259638939E+01  0.58853681456E+00  0.54052583186E+00  0.27468627794E+01  0.10500000000E+00 0.  1.
</event>
<event>
11    0  0.3476221E-009  0.9118800E+02  0.7816531E-02  0.1126479E+00
         25   -1    0    0    0    0  0.00000000000E+00  0.00000000000E+00  0.99999998245E-14  0.12500000000E+03  0.12500000000E+03 0.  0.
    3000001    1    3    3    0    0  0.19710751133E+02  0.17462688134E+02  0.34098636290E+02  0.43094967037E+02  0.10000000000E+01 0.  1.
    1000022    2    1    0    0    0  0.23115385733E+02  0.22942665095E+02  0.52398119932E+02  0.62499999583E+02  0.10000001808E+02 0.  0.
    3000022    2    3    3    0    0  0.34046345993E+01  0.54799769608E+01  0.18299483642E+02  0.19405032545E+02  0.25000452247E+00 0.  0.
    1000022    2    1    0    0    0 -0.23115385733E+02 -0.22942665095E+02 -0.52398119932E+02  0.62500000417E+02  0.10000007025E+02 0.  0.
    3000022    2    5    5    0    0 -0.12339042602E+00 -0.46415442948E+01 -0.65245749959E+01  0.80119742488E+01  0.24998769553E+00 0.  0.
        -13    1    4    4    0    0  0.26078684065E+01  0.41633116837E+01  0.13918962386E+02  0.14760849593E+02  0.10500000000E+00 0.  1.
         13    1    4    4    0    0  0.79676619282E+00  0.13166652771E+01  0.43805212560E+01  0.46441829520E+01  0.10500000000E+00 0. -1.
    3000001    1    5    5    0    0 -0.22991995307E+02 -0.18301120800E+02 -0.45873544936E+02  0.54488026169E+02  0.10000000000E+01 0.  1.
        -13    1    6    6    0    0 -0.13725623263E-01 -0.20648890442E+01 -0.29918639770E+01  0.36367884479E+01  0.10500000000E+00 0. -1.
         13    1    6    6    0    0 -0.10966480276E+00 -0.25766552506E+01 -0.35327110188E+01  0.43751858008E+01  0.10500000000E+00 0.  1.
</event>
<event>
11    0  0.3476221E-009  0.9118800E+02  0.7816531E-02  0.1126479E+00
         25   -1    0    0    0    0  0.00000000000E+00  0.00000000000E+00  0.99999998245E-14  0.12500000000E+03  0.12500000000E+03 0.  0.
    3000001    1    3    3    0    0  0.41655525653E+01 -0.44483758413E+01 -0.31582399970E+01  0.69364512309E+01  0.10000000000E+01 0. -1.
    1000022    2    1    0    0    0  0.52722384180E+02 -0.31004921873E+02 -0.80805594979E+01  0.62499998290E+02  0.99999685227E+01 0.  0.
    3000022    2    3    3    0    0  0.48556831615E+02 -0.26556546031E+02 -0.49223195009E+01  0.55563547059E+02  0.24999781792E+00 0.  0.
    1000022    2    1    0    0    0 -0.52722384180E+02  0.31004921873E+02  0.80805594979E+01  0.62500001710E+02  0.99999899023E+01 0.  0.
    3000022    2    5    5    0    0 -0.24824379995E+02  0.12122745922E+02  0.81265548714E+01  0.28797815999E+02  0.25000284578E+00 0.  0.
        -13    1    4    4    0    0  0.23877668751E+02 -0.13135827913E+02 -0.24157668816E+01  0.27359458959E+02  0.10500000000E+00 0. -1.
         13    1    4    4    0    0  0.24679162864E+02 -0.13420718119E+02 -0.25065526193E+01  0.28204088099E+02  0.10500000000E+00 0.  1.
    3000001    1    5    5    0    0 -0.27898004185E+02  0.18882175950E+02 -0.45995373503E-01  0.33702185711E+02  0.10000000000E+01 0.  1.
        -13    1    6    6    0    0 -0.64280579451E+01  0.31704103675E+01  0.20940942871E+01  0.74677765585E+01  0.10500000000E+00 0. -1.
         13    1    6    6    0    0 -0.18396322050E+02  0.89523355547E+01  0.60324605843E+01  0.21330039441E+02  0.10500000000E+00 0.  1.
</event>
<event>
11    0  0.3476221E-009  0.9118800E+02  0.7816531E-02  0.1126479E+00
         25   -1    0    0    0    0  0.00000000000E+00  0.00000000000E+00  0.99999998245E-14  0.12500000000E+03  0.12500000000E+03 0.  0.
    3000001    1    3    3    0    0  0.22499100645E+01 -0.10944055480E+02 -0.30566341195E+01  0.11626584098E+02  0.10000000000E+01 0. -1.
    1000022    2    1    0    0    0 -0.80232493281E+01 -0.58039601543E+02 -0.19320503784E+02  0.62499997729E+02  0.99999986284E+01 0.  0.
    3000022    2    3    3    0    0 -0.10273159393E+02 -0.47095546064E+02 -0.16263869664E+02  0.50873413631E+02  0.24999019791E+00 0.  0.
    1000022    2    1    0    0    0  0.80232493281E+01  0.58039601543E+02  0.19320503784E+02  0.62500002271E+02  0.10000027018E+02 0.  0.
    3000022    2    5    5    0    0  0.56205893996E+01  0.23041812044E+02  0.33923740142E+01  0.23960109140E+02  0.25000220941E+00 0.  0.
        -13    1    4    4    0    0 -0.26603509647E+01 -0.12344212565E+02 -0.42688165136E+01  0.13330073914E+02  0.10500000000E+00 0.  1.
         13    1    4    4    0    0 -0.76128084279E+01 -0.34751333498E+02 -0.11995053151E+02  0.37543339718E+02  0.10500000000E+00 0. -1.
    3000001    1    5    5    0    0  0.24026599285E+01  0.34997789500E+02  0.15928129770E+02  0.38539893131E+02  0.10000000000E+01 0.  1.
        -13    1    6    6    0    0  0.24816356200E+01  0.99365890486E+01  0.14992666292E+01  0.10351480218E+02  0.10500000000E+00 0. -1.
         13    1    6    6    0    0  0.31389537796E+01  0.13105222995E+02  0.18931073849E+01  0.13608628922E+02  0.10500000000E+00 0.  1.
</event>
<event>
11    0  0.3476221E-009  0.9118800E+02  0.7816531E-02  0.1126479E+00
         25   -1    0    0    0    0  0.00000000000E+00  0.00000000000E+00  0.99999998245E-14  0.12500000000E+03  0.12500000000E+03 0.  0.
    3000001    1    3    3    0    0  0.81957849919E+01  0.42860020627E+02 -0.13935006668E+02  0.45818518861E+02  0.10000000000E+01 0.  1.
    1000022    2    1    0    0    0  0.15193879796E+02  0.57986194268E+02 -0.14594424566E+02  0.62499999429E+02  0.99999995636E+01 0.  0.
    3000022    2    3    3    0    0  0.69980948038E+01  0.15126173641E+02 -0.65941789725E+00  0.16681480568E+02  0.25000413489E+00 0.  0.
    1000022    2    1    0    0    0 -0.15193879796E+02 -0.57986194268E+02  0.14594424566E+02  0.62500000571E+02  0.10000006704E+02 0.  0.
    3000022    2    5    5    0    0 -0.86990359485E+01 -0.22630445536E+02  0.17327503702E+01  0.24307925109E+02  0.25001535687E+00 0.  0.
        -13    1    4    4    0    0  0.24331271284E+01  0.52612519694E+01 -0.17317958857E+00  0.58001634527E+01  0.10500000000E+00 0. -1.
         13    1    4    4    0    0  0.45649676754E+01  0.98649216716E+01 -0.48623830868E+00  0.10881317115E+02  0.10500000000E+00 0.  1.
    3000001    1    5    5    0    0 -0.64948438472E+01 -0.35355748732E+02  0.12861674195E+02  0.38192075462E+02  0.10000000000E+01 0.  1.
        -13    1    6    6    0    0 -0.45973567656E+01 -0.12143662273E+02  0.91457496119E+00  0.13017361291E+02  0.10500000000E+00 0. -1.
         13    1    6    6    0    0 -0.41016791829E+01 -0.10486783263E+02  0.81817540902E+00  0.11290563818E+02  0.10500000000E+00 0.  1.
</event>
<event>
11    0  0.3476221E-009  0.9118800E+02  0.7816531E-02  0.1126479E+00
         25   -1    0    0    0    0  0.00000000000E+00  0.00000000000E+00  0.99999998245E-14  0.12500000000E+03  0.12500000000E+03 0.  0.
    3000001    1    3    3    0    0 -0.39110672511E+01  0.40334164419E+01  0.27008136129E+01  0.63134213710E+01  0.10000000000E+01 0. -1.
    1000022    2    1    0    0    0 -0.29149068658E+02  0.54208315750E+02  0.42473886924E+01  0.62500000067E+02  0.99999998815E+01 0.  0.
    3000022    2    3    3    0    0 -0.25238001407E+02  0.50174899308E+02  0.15465750796E+01  0.56186578696E+02  0.24999106025E+00 0.  0.
    1000022    2    1    0    0    0  0.29149068658E+02 -0.54208315750E+02 -0.42473886924E+01  0.62499999933E+02  0.99999990421E+01 0.  0.
    3000022    2    5    5    0    0  0.10146663118E+02 -0.15167753123E+02 -0.54674767548E+01  0.19051805938E+02  0.25000041945E+00 0.  0.
        -13    1    4    4    0    0 -0.10357850379E+02  0.20662987292E+02  0.69213262230E+00  0.23124320117E+02  0.10500000000E+00 0.  1.
         13    1    4    4    0    0 -0.14880151028E+02  0.29511912016E+02  0.85444245727E+00  0.33062258579E+02  0.10500000000E+00 0. -1.
    3000001    1    5    5    0    0  0.19002405540E+02 -0.39040562626E+02  0.12200880624E+01  0.43448193994E+02  0.10000000000E+01 0. -1.
        -13    1    6    6    0    0  0.51366455710E+01 -0.75983407347E+01 -0.26945325859E+01  0.95598870548E+01  0.10500000000E+00 0.  1.
         13    1    6    6    0    0  0.50100175471E+01 -0.75694123885E+01 -0.27729441689E+01  0.94919188836E+01  0.10500000000E+00 0. -1.
</event>
<event>
11    0  0.3476221E-009  0.9118800E+02  0.7816531E-02  0.1126479E+00
         25   -1    0    0    0    0  0.00000000000E+00  0.00000000000E+00  0.99999998245E-14  0.12500000000E+03  0.12500000000E+03 0.  0.
    3000001    1    3    3    0    0 -0.12755833778E+02  0.19727519130E+02 -0.14221060034E+02  0.27479535201E+02  0.10000000000E+01 0.  1.
    1000022    2    1    0    0    0 -0.22649346012E+02  0.51266233330E+02 -0.25788181276E+02  0.62499998822E+02  0.10000000232E+02 0.  0.
    3000022    2    3    3    0    0 -0.98935122337E+01  0.31538714200E+02 -0.11567121242E+02  0.35020463620E+02  0.25000133362E+00 0.  0.
    1000022    2    1    0    0    0  0.22649346012E+02 -0.51266233330E+02  0.25788181276E+02  0.62500001178E+02  0.10000014960E+02 0.  0.
    3000022    2    5    5    0    0  0.42826822590E+00 -0.35792681038E+01 -0.55288055388E+00  0.36555070541E+01  0.24996216463E+00 0.  0.
        -13    1    4    4    0    0 -0.37705018787E+01  0.12062675817E+02 -0.44860623301E+01  0.13411212194E+02  0.10500000000E+00 0.  1.
         13    1    4    4    0    0 -0.61230103551E+01  0.19476038382E+02 -0.70810589116E+01  0.21609251426E+02  0.10500000000E+00 0. -1.
    3000001    1    5    5    0    0  0.22221077786E+02 -0.47686965226E+02  0.26341061830E+02  0.58844494124E+02  0.10000000000E+01 0. -1.
        -13    1    6    6    0    0  0.28373060527E+00 -0.18113012026E+01 -0.29397554636E+00  0.18597746435E+01  0.10500000000E+00 0. -1.
         13    1    6    6    0    0  0.14453762063E+00 -0.17679669012E+01 -0.25890500752E+00  0.17957324106E+01  0.10500000000E+00 0.  1.
</event>
<event>
11    0  0.3476221E-009  0.9118800E+02  0.7816531E-02  0.1126479E+00
         25   -1    0    0    0    0  0.00000000000E+00  0.00000000000E+00  0.99999998245E-14  0.12500000000E+03  0.12500000000E+03 0.  0.
    3000001    1    3    3    0    0 -0.90717355890E+01 -0.10032370592E+02 -0.24383404857E+02  0.27901528250E+02  0.10000000000E+01 0.  1.
    1000022    2    1    0    0    0 -0.27600828681E+02 -0.14330166425E+02 -0.53283117226E+02  0.62499999547E+02  0.99999974170E+01 0.  0.
    3000022    2    3    3    0    0 -0.18529093092E+02 -0.42977958328E+01 -0.28899712370E+02  0.34598471297E+02  0.25000233578E+00 0.  0.
    1000022    2    1    0    0    0  0.27600828681E+02  0.14330166425E+02  0.53283117226E+02  0.62500000453E+02  0.10000003079E+02 0.  0.
    3000022    2    5    5    0    0  0.83289895734E-01 -0.64299366328E+00  0.15495944667E-01  0.69506585327E+00  0.24999671663E+00 0.  0.
        -13    1    4    4    0    0 -0.76658404812E+01 -0.18225401752E+01 -0.11885494416E+02  0.14260531739E+02  0.10500000000E+00 0. -1.
         13    1    4    4    0    0 -0.10863252611E+02 -0.24752556576E+01 -0.17014217954E+02  0.20337939558E+02  0.10500000000E+00 0.  1.
    3000001    1    5    5    0    0  0.27517538786E+02  0.14973160088E+02  0.53267621282E+02  0.61804934600E+02  0.10000000000E+01 0. -1.
        -13    1    6    6    0    0  0.86119104725E-02 -0.18789471904E+00 -0.39111860820E-01  0.21893681303E+00  0.10500000000E+00 0.  1.
         13    1    6    6    0    0  0.74677985262E-01 -0.45509894424E+00  0.54607805487E-01  0.47612904023E+00  0.10500000000E+00 0.  1.
</event>
<event>
11    0  0.3476221E-009  0.9118800E+02  0.7816531E-02  0.1126479E+00
         25   -1    0    0    0    0  0.00000000000E+00  0.00000000000E+00  0.99999998245E-14  0.12500000000E+03  0.12500000000E+03 0.  0.
    3000001    1    3    3    0    0 -0.35643607604E+02  0.39131522039E+02 -0.14552903847E+02  0.54904733771E+02  0.10000000000E+01 0.  1.
    1000022    2    1    0    0    0 -0.38841518629E+02  0.45954181681E+02 -0.13630833780E+02  0.62499997716E+02  0.99999850819E+01 0.  0.
    3000022    2    3    3    0    0 -0.31979110241E+01  0.68226596422E+01  0.92207006766E+00  0.75952639446E+01  0.25000333257E+00 0.  0.
    1000022    2    1    0    0    0  0.38841518629E+02 -0.45954181681E+02  0.13630833780E+02  0.62500002284E+02  0.10000013632E+02 0.  0.
    3000022    2    5    5    0    0  0.15140630274E+02 -0.24017178263E+02  0.94312035538E+01  0.29917781338E+02  0.25000578620E+00 0.  0.
        -13    1    4    4    0    0 -0.18186221976E+01  0.37290592730E+01  0.48907705015E+00  0.41789342086E+01  0.10500000000E+00 0. -1.
         13    1    4    4    0    0 -0.13792888265E+01  0.30936003693E+01  0.43299301752E+00  0.34163297360E+01  0.10500000000E+00 0.  1.
    3000001    1    5    5    0    0  0.23700888355E+02 -0.21937003418E+02  0.41996302258E+01  0.32582220946E+02  0.10000000000E+01 0. -1.
        -13    1    6    6    0    0  0.97553526183E+01 -0.15394933952E+02  0.60128987449E+01  0.19192104429E+02  0.10500000000E+00 0.  1.
         13    1    6    6    0    0  0.53852776557E+01 -0.86222443107E+01  0.34183048089E+01  0.10725676909E+02  0.10500000000E+00 0. -1.
</event>
<event>
11    0  0.3476221E-009  0.9118800E+02  0.7816531E-02  0.1126479E+00
         25   -1    0    0    0    0  0.00000000000E+00  0.00000000000E+00  0.99999998245E-14  0.12500000000E+03  0.12500000000E+03 0.  0.
    3000001    1    3    3    0    0  0.94921580766E+01 -0.21974706304E+02  0.16905747589E+02  0.29322228490E+02  0.10000000000E+01 0.  1.
    1000022    2    1    0    0    0  0.98717780135E+01 -0.48321755152E+02  0.37064887205E+02  0.62499999755E+02  0.10000004190E+02 0.  0.
    3000022    2    3    3    0    0  0.37961993688E+00 -0.26347048848E+02  0.20159139616E+02  0.33177771265E+02  0.25000353450E+00 0.  0.
    1000022    2    1    0    0    0 -0.98717780135E+01  0.48321755152E+02 -0.37064887205E+02  0.62500000245E+02  0.10000007252E+02 0.  0.
    3000022    2    5    5    0    0 -0.84490501839E+01  0.43797045973E+02 -0.29372240192E+02  0.53407477729E+02  0.24999718768E+00 0.  0.
        -13    1    4    4    0    0  0.16967113648E+00 -0.15633098811E+02  0.11921530795E+02  0.19661039856E+02  0.10500000000E+00 0.  1.
         13    1    4    4    0    0  0.20994880040E+00 -0.10713950037E+02  0.82376088212E+01  0.13516731409E+02  0.10500000000E+00 0. -1.
    3000001    1    5    5    0    0 -0.14227278296E+01  0.45247091791E+01 -0.76926470127E+01  0.90925225155E+01  0.10000000000E+01 0. -1.
        -13    1    6    6    0    0 -0.63182142611E+01  0.32800284068E+02 -0.21965552443E+02  0.39978431504E+02  0.10500000000E+00 0. -1.
         13    1    6    6    0    0 -0.21308359228E+01  0.10996761904E+02 -0.74066877488E+01  0.13429046225E+02  0.10500000000E+00 0.  1.
</event>
<event>
11    0  0.3476221E-009  0.9118800E+02  0.7816531E-02  0.1126479E+00
         25   -1    0    0    0    0  0.00000000000E+00  0.00000000000E+00  0.99999998245E-14  0.12500000000E+03  0.12500000000E+03 0.  0.
    3000001    1    3    3    0    0  0.51399371916E+02  0.16462944038E+02 -0.21210926804E+02  0.57998511840E+02  0.10000000000E+01 0.  1.
    1000022    2    1    0    0    0  0.55820146003E+02  0.16552852714E+02 -0.20405003563E+02  0.62500001332E+02  0.10000018165E+02 0.  0.
    3000022    2    3    3    0    0  0.44207740875E+01  0.89908675846E-01  0.80592324130E+00  0.45014894921E+01  0.25013651090E+00 0.  0.
    1000022    2    1    0    0    0 -0.55820146003E+02 -0.16552852714E+02  0.20405003563E+02  0.62499998668E+02  0.10000001517E+02 0.  0.
    3000022    2    5    5    0    0 -0.53771705824E+02 -0.13850086505E+02  0.18877662370E+02  0.58648528368E+02  0.24999958602E+00 0.  0.
        -13    1    4    4    0    0  0.21556481100E+01  0.78735631212E-01  0.45232860816E+00  0.22065004517E+01  0.10500000000E+00 0. -1.
         13    1    4    4    0    0  0.22651259776E+01  0.11173044633E-01  0.35359463315E+00  0.22949890405E+01  0.10500000000E+00 0.  1.
    3000001    1    5    5    0    0 -0.20484401790E+01 -0.27027662097E+01  0.15273411934E+01  0.38514703001E+01  0.10000000000E+01 0. -1.
        -13    1    6    6    0    0 -0.33349742223E+02 -0.85541500522E+01  0.11757804826E+02  0.36381805738E+02  0.10500000000E+00 0.  1.
         13    1    6    6    0    0 -0.20421963601E+02 -0.52959364523E+01  0.71198575432E+01  0.22266722630E+02  0.10500000000E+00 0. -1.
</event>
<event>
11    0  0.3476221E-009  0.9118800E+02  0.7816531E-02  0.1126479E+00
         25   -1    0    0    0    0  0.00000000000E+00  0.00000000000E+00  0.99999998245E-14  0.12500000000E+03  0.12500000000E+03 0.  0.
    3000001    1    3    3    0    0 -0.31522554264E+02 -0.13253999069E+02  0.24320966767E+01  0.34296574361E+02  0.10000000000E+01 0. -1.
    1000022    2    1    0    0    0 -0.54208531900E+02 -0.26716781714E+02  0.12405592097E+02  0.62499999763E+02  0.99999949610E+01 0.  0.
    3000022    2    3    3    0    0 -0.22685977636E+02 -0.13462782645E+02  0.99734954206E+01  0.28203425402E+02  0.24999134836E+00 0.  0.
    1000022    2    1    0    0    0  0.54208531900E+02  0.26716781714E+02 -0.12405592097E+02  0.62500000237E+02  0.99999979203E+01 0.  0.
    3000022    2    5    5    0    0  0.44581441566E+02  0.24940599197E+02 -0.79553557291E+01  0.51699986516E+02  0.25000118752E+00 0.  0.
        -13    1    4    4    0    0 -0.80303635156E+01 -0.47474718202E+01  0.34683170846E+01  0.99531640836E+01  0.10500000000E+00 0.  1.
         13    1    4    4    0    0 -0.14655614120E+02 -0.87153108249E+01  0.65051783360E+01  0.18250261319E+02  0.10500000000E+00 0. -1.
    3000001    1    5    5    0    0  0.96270903341E+01  0.17761825171E+01 -0.44502363681E+01  0.10800013721E+02  0.10000000000E+01 0. -1.
        -13    1    6    6    0    0  0.14151932520E+02  0.79020683834E+01 -0.24752718064E+01  0.16396886116E+02  0.10500000000E+00 0. -1.
         13    1    6    6    0    0  0.30429509046E+02  0.17038530813E+02 -0.54800839227E+01  0.35303100400E+02  0.10500000000E+00 0.  1.
</event>
<event>
11    0  0.3476221E-009  0.9118800E+02  0.7816531E-02  0.1126479E+00
         25   -1    0    0    0    0  0.00000000000E+00  0.00000000000E+00  0.99999998245E-14  0.12500000000E+03  0.12500000000E+03 0.  0.
    3000001    1    3    3    0    0 -0.33262489652E+01  0.69212795673E+01  0.24320459114E+02  0.25523572919E+02  0.10000000000E+01 0.  1.
    1000022    2    1    0    0    0 -0.97020615745E+01  0.52253229193E+01  0.60702685897E+02  0.62500000175E+02  0.99999974156E+01 0.  0.
    3000022    2    3    3    0    0 -0.63758126093E+01 -0.16959566480E+01  0.36382226783E+02  0.36976427256E+02  0.24998306513E+00 0.  0.
    1000022    2    1    0    0    0  0.97020615745E+01 -0.52253229193E+01 -0.60702685897E+02  0.62499999825E+02  0.99999952300E+01 0.  0.
    3000022    2    5    5    0    0  0.55621796271E+00 -0.55694022291E+01 -0.20073340533E+02  0.20840564511E+02  0.25001876926E+00 0.  0.
        -13    1    4    4    0    0 -0.23981668248E+01 -0.64845887770E+00  0.14039384458E+02  0.14257876560E+02  0.10500000000E+00 0.  1.
         13    1    4    4    0    0 -0.39776457846E+01 -0.10474977703E+01  0.22342842325E+02  0.22718550696E+02  0.10500000000E+00 0. -1.
    3000001    1    5    5    0    0  0.91458436118E+01  0.34407930981E+00 -0.40629345364E+02  0.41659435314E+02  0.10000000000E+01 0.  1.
        -13    1    6    6    0    0  0.27040156564E+00 -0.33428278388E+01 -0.12014280690E+02  0.12474036254E+02  0.10500000000E+00 0.  1.
         13    1    6    6    0    0  0.28581639706E+00 -0.22265743903E+01 -0.80590598430E+01  0.83665282574E+01  0.10500000000E+00 0. -1.
</event>
<event>
11    0  0.3476221E-009  0.9118800E+02  0.7816531E-02  0.1126479E+00
         25   -1    0    0    0    0  0.00000000000E+00  0.00000000000E+00  0.99999998245E-14  0.12500000000E+03  0.12500000000E+03 0.  0.
    3000001    1    3    3    0    0  0.12220863959E+02  0.16351804562E+01 -0.65505050610E+01  0.13997587205E+02  0.10000000000E+01 0. -1.
    1000022    2    1    0    0    0  0.51920625913E+02 -0.10535648001E+02 -0.31614849971E+02  0.62500000046E+02  0.99999996526E+01 0.  0.
    3000022    2    3    3    0    0  0.39699761955E+02 -0.12170828458E+02 -0.25064344910E+02  0.48502412841E+02  0.25000202000E+00 0.  0.
    1000022    2    1    0    0    0 -0.51920625913E+02  0.10535648001E+02  0.31614849971E+02  0.62499999954E+02  0.99999990770E+01 0.  0.
    3000022    2    5    5    0    0 -0.88352492640E+01  0.49550153772E+01  0.34043513870E+01  0.10689524451E+02  0.25003535357E+00 0.  0.
        -13    1    4    4    0    0  0.22219823570E+02 -0.68765088246E+01 -0.14011981974E+02  0.27154255596E+02  0.10500000000E+00 0. -1.
         13    1    4    4    0    0  0.17479938384E+02 -0.52943196329E+01 -0.11052362936E+02  0.21348157245E+02  0.10500000000E+00 0.  1.
    3000001    1    5    5    0    0 -0.43085376649E+02  0.55806326241E+01  0.28210498584E+02  0.51810475503E+02  0.10000000000E+01 0.  1.
        -13    1    6    6    0    0 -0.38811627871E+01  0.21094216868E+01  0.14527128682E+01  0.46512884355E+01  0.10500000000E+00 0.  1.
         13    1    6    6    0    0 -0.49540864769E+01  0.28455936904E+01  0.19516385188E+01  0.60382360155E+01  0.10500000000E+00 0. -1.
</event>
<event>
11    0  0.3476221E-009  0.9118800E+02  0.7816531E-02  0.1126479E+00
         25   -1    0    0    0    0  0.00000000000E+00  0.00000000000E+00  0.99999998245E-14  0.12500000000E+03  0.12500000000E+03 0.  0.
    3000001    1    3    3    0    0 -0.23708581952E+02 -0.39878336928E+02  0.35252782093E+02  0.58276386810E+02  0.10000000000E+01 0.  1.
    1000022    2    1    0    0    0 -0.27359797729E+02 -0.41698011372E+02  0.36317589144E+02  0.62499999791E+02  0.10000000421E+02 0.  0.
    3000022    2    3    3    0    0 -0.36512157769E+01 -0.18196744441E+01  0.10648070514E+01  0.42236129809E+01  0.25000164619E+00 0.  0.
    1000022    2    1    0    0    0  0.27359797729E+02  0.41698011372E+02 -0.36317589144E+02  0.62500000209E+02  0.10000003035E+02 0.  0.
    3000022    2    5    5    0    0  0.88719513757E+01  0.13968200088E+02 -0.65361106034E+01  0.17793408293E+02  0.25000392500E+00 0.  0.
        -13    1    4    4    0    0 -0.12086537485E+01 -0.55118499190E+00  0.37262782854E+00  0.13836637156E+01  0.10500000000E+00 0. -1.
         13    1    4    4    0    0 -0.24425620284E+01 -0.12684894522E+01  0.69217922289E+00  0.28399492653E+01  0.10500000000E+00 0.  1.
    3000001    1    5    5    0    0  0.18487846353E+02  0.27729811285E+02 -0.29781478541E+02  0.44706591916E+02  0.10000000000E+01 0. -1.
        -13    1    6    6    0    0  0.32762591471E+01  0.52654784414E+01 -0.24306000865E+01  0.66616798930E+01  0.10500000000E+00 0.  1.
         13    1    6    6    0    0  0.55956922286E+01  0.87027216462E+01 -0.41055105168E+01  0.11131728400E+02  0.10500000000E+00 0. -1.
</event>
<event>
11    0  0.3476221E-009  0.9118800E+02  0.7816531E-02  0.1126479E+00
         25   -1    0    0    0    0  0.00000000000E+00  0.00000000000E+00  0.99999998245E-14  0.12500000000E+03  0.12500000000E+03 0.  0.
    3000001    1    3    3    0    0  0.97180586347E+01 -0.29199059046E+02  0.20005341493E+01  0.30854948545E+02  0.10000000000E+01 0. -1.
    1000022    2    1    0    0    0  0.10382004713E+02 -0.60810620764E+02  0.72964660094E+00  0.62500000531E+02  0.10000003133E+02 0.  0.
    3000022    2    3    3    0    0  0.66394607782E+00 -0.31611561718E+02 -0.12708875483E+01  0.31645051987E+02  0.25000286143E+00 0.  0.
    1000022    2    1    0    0    0 -0.10382004713E+02  0.60810620764E+02 -0.72964660094E+00  0.62499999469E+02  0.99999964931E+01 0.  0.
    3000022    2    5    5    0    0  0.83670656581E+00  0.49605542017E+00  0.51816714580E+00  0.11301101538E+01  0.25000582334E+00 0.  0.
        -13    1    4    4    0    0  0.19571502054E+00 -0.10844682464E+02 -0.48110564276E+00  0.10857620814E+02  0.10500000000E+00 0. -1.
         13    1    4    4    0    0  0.46823105728E+00 -0.20766879254E+02 -0.78978190555E+00  0.20787431172E+02  0.10500000000E+00 0.  1.
    3000001    1    5    5    0    0 -0.11218711278E+02  0.60314565344E+02 -0.12478137467E+01  0.61369889315E+02  0.10000000000E+01 0.  1.
        -13    1    6    6    0    0  0.27526346998E+00  0.12456622535E+00  0.12474466603E+00  0.34332630849E+00  0.10500000000E+00 0. -1.
         13    1    6    6    0    0  0.56144309583E+00  0.37148919482E+00  0.39342247977E+00  0.78678384536E+00  0.10500000000E+00 0.  1.
</event>
<event>
11    0  0.3476221E-009  0.9118800E+02  0.7816531E-02  0.1126479E+00
         25   -1    0    0    0    0  0.00000000000E+00  0.00000000000E+00  0.99999998245E-14  0.12500000000E+03  0.12500000000E+03 0.  0.
    3000001    1    3    3    0    0 -0.98108978436E+01 -0.94459362295E+01 -0.19207369397E+01  0.13790165269E+02  0.10000000000E+01 0. -1.
    1000022    2    1    0    0    0 -0.50647013914E+02 -0.29328352678E+02 -0.19518651569E+02  0.62499999578E+02  0.99999949486E+01 0.  0.
    3000022    2    3    3    0    0 -0.40836116071E+02 -0.19882416449E+02 -0.17597914629E+02  0.48709834309E+02  0.24999916902E+00 0.  0.
    1000022    2    1    0    0    0  0.50647013914E+02  0.29328352678E+02  0.19518651569E+02  0.62500000422E+02  0.10000000221E+02 0.  0.
    3000022    2    5    5    0    0  0.35938636357E+02  0.15468857477E+02  0.13476302555E+02  0.41382899314E+02  0.24998044511E+00 0.  0.
        -13    1    4    4    0    0 -0.28245499973E+02 -0.13716137829E+02 -0.12203914399E+02  0.33688087766E+02  0.10500000000E+00 0.  1.
         13    1    4    4    0    0 -0.12590616097E+02 -0.61662786192E+01 -0.53940002301E+01  0.15021746543E+02  0.10500000000E+00 0. -1.
    3000001    1    5    5    0    0  0.14708377557E+02  0.13859495201E+02  0.60423490137E+01  0.21117101108E+02  0.10000000000E+01 0.  1.
        -13    1    6    6    0    0  0.17190707524E+02  0.73327678640E+01  0.64676512921E+01  0.19777043459E+02  0.10500000000E+00 0. -1.
         13    1    6    6    0    0  0.18747928833E+02  0.81360896126E+01  0.70086512634E+01  0.21605855855E+02  0.10500000000E+00 0.  1.
</event>
<event>
11    0  0.3476221E-009  0.9118800E+02  0.7816531E-02  0.1126479E+00
         25   -1    0    0    0    0  0.00000000000E+00  0.00000000000E+00  0.99999998245E-14  0.12500000000E+03  0.12500000000E+03 0.  0.
    3000001    1    3    3    0    0 -0.10981183795E+02  0.23290945407E+02  0.18099196706E+02  0.31490243837E+02  0.10000000000E+01 0.  1.
    1000022    2    1    0    0    0 -0.30231414004E+02  0.43384713250E+02  0.31781731631E+02  0.62500002411E+02  0.10000004972E+02 0.  0.
    3000022    2    3    3    0    0 -0.19250230209E+02  0.20093767843E+02  0.13682534925E+02  0.31009758575E+02  0.24999126208E+00 0.  0.
    1000022    2    1    0    0    0  0.30231414004E+02 -0.43384713250E+02 -0.31781731631E+02  0.62499997589E+02  0.99999748291E+01 0.  0.
    3000022    2    5    5    0    0  0.88150488323E+01 -0.20978602203E+02 -0.12149742896E+02  0.25797007368E+02  0.25000076731E+00 0.  0.
        -13    1    4    4    0    0 -0.11545141550E+02  0.12127210092E+02  0.82711163231E+01  0.18675703688E+02  0.10500000000E+00 0. -1.
         13    1    4    4    0    0 -0.77050886593E+01  0.79665577513E+01  0.54114186019E+01  0.12334054886E+02  0.10500000000E+00 0.  1.
    3000001    1    5    5    0    0  0.21416365172E+02 -0.22406111047E+02 -0.19631988735E+02  0.36702990220E+02  0.10000000000E+01 0.  1.
        -13    1    6    6    0    0  0.50805711758E+01 -0.12162105195E+02 -0.69707968061E+01  0.14910802774E+02  0.10500000000E+00 0. -1.
         13    1    6    6    0    0  0.37344776565E+01 -0.88164970083E+01 -0.51789460904E+01  0.10886204594E+02  0.10500000000E+00 0.  1.
</event>
<event>
11    0  0.3476221E-009  0.9118800E+02  0.7816531E-02  0.1126479E+00
         25   -1    0    0    0    0  0.00000000000E+00  0.00000000000E+00  0.99999998245E-14  0.12500000000E+03  0.12500000000E+03 0.  0.
    3000001    1    3    3    0    0  0.34334327623E+02  0.16084763052E+02 -0.33938010914E+02  0.50895522795E+02  0.10000000000E+01 0.  1.
    1000022    2    1    0    0    0  0.43249485499E+02  0.15156046453E+02 -0.41304072710E+02  0.62500000810E+02  0.99999969397E+01 0.  0.
    3000022    2    3    3    0    0  0.89151578757E+01 -0.92871659911E+00 -0.73660617966E+01  0.11604478015E+02  0.24997828777E+00 0.  0.
    1000022    2    1    0    0    0 -0.43249485499E+02 -0.15156046453E+02  0.41304072710E+02  0.62499999190E+02  0.99999868150E+01 0.  0.
    3000022    2    5    5    0    0 -0.32379561658E+02 -0.14517026608E+02  0.27525456689E+02  0.44909835742E+02  0.25001146755E+00 0.  0.
        -13    1    4    4    0    0  0.41339288302E+01 -0.40516333255E+00 -0.33331353188E+01  0.53267570766E+01  0.10500000000E+00 0.  1.
         13    1    4    4    0    0  0.47812290455E+01 -0.52355326657E+00 -0.40329264778E+01  0.62777209386E+01  0.10500000000E+00 0. -1.
    3000001    1    5    5    0    0 -0.10869923840E+02 -0.63901984526E+00  0.13778616021E+02  0.17590163448E+02  0.10000000000E+01 0. -1.
        -13    1    6    6    0    0 -0.10967752665E+02 -0.49256667651E+01  0.92580553082E+01  0.15174860944E+02  0.10500000000E+00 0. -1.
         13    1    6    6    0    0 -0.21411808994E+02 -0.95913598429E+01  0.18267401381E+02  0.29734974798E+02  0.10500000000E+00 0.  1.
</event>
<event>
11    0  0.3476221E-009  0.9118800E+02  0.7816531E-02  0.1126479E+00
         25   -1    0    0    0    0  0.00000000000E+00  0.00000000000E+00  0.99999998245E-14  0.12500000000E+03  0.12500000000E+03 0.  0.
    3000001    1    3    3    0    0  0.28087183767E+01 -0.56340357600E+00 -0.37824071451E+00  0.30576769854E+01  0.10000000000E+01 0. -1.
    1000022    2    1    0    0    0  0.55477153235E+02  0.26991326952E+02 -0.62035426421E-01  0.62499999408E+02  0.99999907995E+01 0.  0.
    3000022    2    3    3    0    0  0.52668434858E+02  0.27554730528E+02  0.31620528809E+00  0.59442322423E+02  0.25000876743E+00 0.  0.
    1000022    2    1    0    0    0 -0.55477153235E+02 -0.26991326952E+02  0.62035426421E-01  0.62500000592E+02  0.99999981966E+01 0.  0.
    3000022    2    5    5    0    0 -0.45950572251E+02 -0.22959205547E+02 -0.35675953515E+01  0.51491459914E+02  0.24999594861E+00 0.  0.
        -13    1    4    4    0    0  0.22113221667E+02  0.11637720851E+02  0.11050527303E+00  0.24989084727E+02  0.10500000000E+00 0. -1.
         13    1    4    4    0    0  0.30555213191E+02  0.15917009677E+02  0.20570001505E+00  0.34453237696E+02  0.10500000000E+00 0.  1.
    3000001    1    5    5    0    0 -0.95265809838E+01 -0.40321214043E+01  0.36296307779E+01  0.11008540677E+02  0.10000000000E+01 0. -1.
        -13    1    6    6    0    0 -0.21082081361E+02 -0.10590590890E+02 -0.16823038476E+01  0.23652820998E+02  0.10500000000E+00 0. -1.
         13    1    6    6    0    0 -0.24868490890E+02 -0.12368614658E+02 -0.18852915039E+01  0.27838638917E+02  0.10500000000E+00 0.  1.
</event>
<event>
11    0  0.3476221E-009  0.9118800E+02  0.7816531E-02  0.1126479E+00
         25   -1    0    0    0    0  0.00000000000E+00  0.00000000000E+00  0.99999998245E-14  0.12500000000E+03  0.12500000000E+03 0.  0.
    3000001    1    3    3    0    0  0.16149725141E+02  0.13119685467E+02 -0.55783635752E+01  0.21565201345E+02  0.10000000000E+01 0.  1.
    1000022    2    1    0    0    0  0.49623483984E+02  0.27492285011E+02 -0.24247352783E+02  0.62500000824E+02  0.10000004413E+02 0.  0.
    3000022    2    3    3    0    0  0.33473758843E+02  0.14372599544E+02 -0.18668989207E+02  0.40934799479E+02  0.25000330388E+00 0.  0.
    1000022    2    1    0    0    0 -0.49623483984E+02 -0.27492285011E+02  0.24247352783E+02  0.62499999176E+02  0.99999941117E+01 0.  0.
    3000022    2    5    5    0    0 -0.27894137457E+02 -0.16337350293E+02  0.85170760856E+01  0.33430450263E+02  0.25000135082E+00 0.  0.
        -13    1    4    4    0    0  0.15464198089E+02  0.66915259712E+01 -0.85817819294E+01  0.18909678697E+02  0.10500000000E+00 0.  1.
         13    1    4    4    0    0  0.18009560754E+02  0.76810735726E+01 -0.10087207278E+02  0.22025120782E+02  0.10500000000E+00 0. -1.
    3000001    1    5    5    0    0 -0.21729346527E+02 -0.11154934717E+02  0.15730276697E+02  0.29069548913E+02  0.10000000000E+01 0. -1.
        -13    1    6    6    0    0 -0.12894762078E+02 -0.75047782762E+01  0.38759740172E+01  0.15415277669E+02  0.10500000000E+00 0.  1.
         13    1    6    6    0    0 -0.14999375379E+02 -0.88325720171E+01  0.46411020684E+01  0.18015172594E+02  0.10500000000E+00 0. -1.
</event>
<event>
11    0  0.3476221E-009  0.9118800E+02  0.7816531E-02  0.1126479E+00
         25   -1    0    0    0    0  0.00000000000E+00  0.00000000000E+00  0.99999998245E-14  0.12500000000E+03  0.12500000000E+03 0.  0.
    3000001    1    3    3    0    0  0.98952855925E+01 -0.18373382545E+02  0.10546253870E+02  0.23403447049E+02  0.10000000000E+01 0. -1.
    1000022    2    1    0    0    0  0.18042774374E+02 -0.55213016397E+02  0.20790168313E+02  0.62500000318E+02  0.10000002723E+02 0.  0.
    3000022    2    3    3    0    0  0.81474887814E+01 -0.36839633852E+02  0.10243914443E+02  0.39096553268E+02  0.24999709343E+00 0.  0.
    1000022    2    1    0    0    0 -0.18042774374E+02  0.55213016397E+02 -0.20790168313E+02  0.62499999682E+02  0.99999987532E+01 0.  0.
    3000022    2    5    5    0    0 -0.14427582535E+02  0.51896796284E+02 -0.19845044766E+02  0.57404885710E+02  0.24999858915E+00 0.  0.
        -13    1    4    4    0    0  0.53298012828E+01 -0.23977436645E+02  0.67204974531E+01  0.25465670241E+02  0.10500000000E+00 0. -1.
         13    1    4    4    0    0  0.28176874985E+01 -0.12862197207E+02  0.35234169898E+01  0.13630883027E+02  0.10500000000E+00 0.  1.
    3000001    1    5    5    0    0 -0.36151918389E+01  0.33162201127E+01 -0.94512354699E+00  0.50951139720E+01  0.10000000000E+01 0. -1.
        -13    1    6    6    0    0 -0.77320064908E+01  0.28030839195E+02 -0.10747833151E+02  0.31000626007E+02  0.10500000000E+00 0. -1.
         13    1    6    6    0    0 -0.66955760441E+01  0.23865957089E+02 -0.90972116150E+01  0.26404259703E+02  0.10500000000E+00 0.  1.
</event>
<event>
11    0  0.3476221E-009  0.9118800E+02  0.7816531E-02  0.1126479E+00
         25   -1    0    0    0    0  0.00000000000E+00  0.00000000000E+00  0.99999998245E-14  0.12500000000E+03  0.12500000000E+03 0.  0.
    3000001    1    3    3    0    0 -0.94773703402E+01 -0.29057483213E+01 -0.57695239569E+02  0.58549163878E+02  0.10000000000E+01 0. -1.
    1000022    2    1    0    0    0 -0.10796915243E+02 -0.53333238744E+01 -0.60508117442E+02  0.62500000179E+02  0.10000001186E+02 0.  0.
    3000022    2    3    3    0    0 -0.13195449025E+01 -0.24275755531E+01 -0.28128778725E+01  0.39508363008E+01  0.25000746806E+00 0.  0.
    1000022    2    1    0    0    0  0.10796915243E+02  0.53333238744E+01  0.60508117442E+02  0.62499999821E+02  0.99999989484E+01 0.  0.
    3000022    2    5    5    0    0  0.11575787374E+02  0.37855812174E+01  0.58128436497E+02  0.59391136600E+02  0.24999707519E+00 0.  0.
        -13    1    4    4    0    0 -0.53171257924E+00 -0.86351410626E+00 -0.10656490313E+01  0.14747907433E+01  0.10500000000E+00 0.  1.
         13    1    4    4    0    0 -0.78783232328E+00 -0.15640614469E+01 -0.17472288412E+01  0.24760455574E+01  0.10500000000E+00 0. -1.
    3000001    1    5    5    0    0 -0.77887213135E+00  0.15477426570E+01  0.23796809446E+01  0.31088632211E+01  0.10000000000E+01 0.  1.
        -13    1    6    6    0    0  0.80325022408E+01  0.26736719308E+01  0.40324822586E+02  0.41204028389E+02  0.10500000000E+00 0. -1.
         13    1    6    6    0    0  0.35432851333E+01  0.11119092866E+01  0.17803613911E+02  0.18187108211E+02  0.10500000000E+00 0.  1.
</event>
<event>
11    0  0.3476221E-009  0.9118800E+02  0.7816531E-02  0.1126479E+00
         25   -1    0    0    0    0  0.00000000000E+00  0.00000000000E+00  0.99999998245E-14  0.12500000000E+03  0.12500000000E+03 0.  0.
    3000001    1    3    3    0    0 -0.96042855958E+00  0.57955511305E+01 -0.67864543820E+01  0.90314339395E+01  0.10000000000E+01 0.  1.
    1000022    2    1    0    0    0 -0.22091424842E+02  0.48337119303E+02 -0.31332759605E+02  0.62500000501E+02  0.10000004205E+02 0.  0.
    3000022    2    3    3    0    0 -0.21130996282E+02  0.42541568172E+02 -0.24546305223E+02  0.53468566561E+02  0.24996717521E+00 0.  0.
    1000022    2    1    0    0    0  0.22091424842E+02 -0.48337119303E+02  0.31332759605E+02  0.62499999499E+02  0.99999979453E+01 0.  0.
    3000022    2    5    5    0    0  0.91135240107E+01 -0.18008742309E+02  0.65282946952E+01  0.21214434945E+02  0.24999797101E+00 0.  0.
        -13    1    4    4    0    0 -0.12319952060E+02  0.24880587186E+02 -0.14408261108E+02  0.31279927280E+02  0.10500000000E+00 0. -1.
         13    1    4    4    0    0 -0.88110442222E+01  0.17660980986E+02 -0.10138044115E+02  0.22188639282E+02  0.10500000000E+00 0.  1.
    3000001    1    5    5    0    0  0.12977900831E+02 -0.30328376994E+02  0.24804464910E+02  0.41285564554E+02  0.10000000000E+01 0. -1.
        -13    1    6    6    0    0  0.42428630644E+01 -0.84956752986E+01  0.31186063999E+01  0.99957549309E+01  0.10500000000E+00 0. -1.
         13    1    6    6    0    0  0.48706609463E+01 -0.95130670099E+01  0.34096882953E+01  0.11218680014E+02  0.10500000000E+00 0.  1.
</event>
<event>
11    0  0.3476221E-009  0.9118800E+02  0.7816531E-02  0.1126479E+00
         25   -1    0    0    0    0  0.00000000000E+00  0.00000000000E+00  0.99999998245E-14  0.12500000000E+03  0.12500000000E+03 0.  0.
    3000001    1    3    3    0    0  0.53834604064E+01 -0.18502702463E+01  0.50973372663E+01  0.77063605637E+01  0.10000000000E+01 0. -1.
    1000022    2    1    0    0    0  0.55703036820E+02  0.19115219570E+01  0.26453121944E+02  0.62499999703E+02  0.10000003753E+02 0.  0.
    3000022    2    3    3    0    0  0.50319576414E+02  0.37617922033E+01  0.21355784678E+02  0.54793639139E+02  0.24999969769E+00 0.  0.
    1000022    2    1    0    0    0 -0.55703036820E+02 -0.19115219570E+01 -0.26453121944E+02  0.62500000297E+02  0.10000007472E+02 0.  0.
    3000022    2    5    5    0    0 -0.22891282827E+02 -0.49078354391E+01 -0.13894128214E+02  0.27225116625E+02  0.24999653370E+00 0.  0.
        -13    1    4    4    0    0  0.18375513699E+02  0.13485821911E+01  0.78557198444E+01  0.20030015899E+02  0.10500000000E+00 0. -1.
         13    1    4    4    0    0  0.31944062715E+02  0.24132100121E+01  0.13500064833E+02  0.34763623240E+02  0.10500000000E+00 0.  1.
    3000001    1    5    5    0    0 -0.32811753993E+02  0.29963134821E+01 -0.12558993730E+02  0.35274883672E+02  0.10000000000E+01 0. -1.
        -13    1    6    6    0    0 -0.72872289978E+01 -0.16120248386E+01 -0.44455464193E+01  0.86877061709E+01  0.10500000000E+00 0.  1.
         13    1    6    6    0    0 -0.15604053829E+02 -0.32958106005E+01 -0.94485817944E+01  0.18537410454E+02  0.10500000000E+00 0. -1.
</event>
<event>
11    0  0.3476221E-009  0.9118800E+02  0.7816531E-02  0.1126479E+00
         25   -1    0    0    0    0  0.00000000000E+00  0.00000000000E+00  0.99999998245E-14  0.12500000000E+03  0.12500000000E+03 0.  0.
    3000001    1    3    3    0    0  0.89837241219E+01  0.14648966318E+02 -0.25489246206E+02  0.30757132269E+02  0.10000000000E+01 0.  1.
    1000022    2    1    0    0    0  0.11980142084E+02  0.36702851150E+02 -0.48120963205E+02  0.62499996995E+02  0.99999718911E+01 0.  0.
    3000022    2    3    3    0    0  0.29964179617E+01  0.22053884832E+02 -0.22631716999E+02  0.31742864726E+02  0.24997986702E+00 0.  0.
    1000022    2    1    0    0    0 -0.11980142084E+02 -0.36702851150E+02  0.48120963205E+02  0.62500003005E+02  0.10000009448E+02 0.  0.
    3000022    2    5    5    0    0 -0.33390412481E+01 -0.25918060785E+01  0.26511339175E+01  0.49957649443E+01  0.25000224905E+00 0.  0.
        -13    1    4    4    0    0  0.99508013772E+00  0.69673977081E+01 -0.71764418073E+01  0.10052221512E+02  0.10500000000E+00 0. -1.
         13    1    4    4    0    0  0.20013378240E+01  0.15086487124E+02 -0.15455275191E+02  0.21690643215E+02  0.10500000000E+00 0.  1.
    3000001    1    5    5    0    0 -0.86411008355E+01 -0.34111045071E+02  0.45469829287E+02  0.57504238060E+02  0.10000000000E+01 0.  1.
        -13    1    6    6    0    0 -0.22913887446E+01 -0.17349813567E+01  0.17567847738E+01  0.33701543627E+01  0.10500000000E+00 0.  1.
         13    1    6    6    0    0 -0.10476525035E+01 -0.85682472182E+00  0.89434914372E+00  0.16256105816E+01  0.10500000000E+00 0. -1.
</event>
<event>
11    0  0.3476221E-009  0.9118800E+02  0.7816531E-02  0.1126479E+00
         25   -1    0    0    0    0  0.00000000000E+00  0.00000000000E+00  0.99999998245E-14  0.12500000000E+03  0.12500000000E+03 0.  0.
    3000001    1    3    3    0    0  0.14349585889E+02 -0.12538167298E+02  0.43668207620E+02  0.47655310419E+02  0.10000000000E+01 0.  1.
    1000022    2    1    0    0    0  0.19709307561E+02 -0.10980743536E+02  0.57421393722E+02  0.62500000109E+02  0.10000001178E+02 0.  0.
    3000022    2    3    3    0    0  0.53597216713E+01  0.15574237617E+01  0.13753186102E+02  0.14844689690E+02  0.24999775903E+00 0.  0.
    1000022    2    1    0    0    0 -0.19709307561E+02  0.10980743536E+02 -0.57421393722E+02  0.62499999891E+02  0.99999998156E+01 0.  0.
    3000022    2    5    5    0    0 -0.14204573176E+02  0.11948449418E+02 -0.48431158837E+02  0.51866896929E+02  0.25001627430E+00 0.  0.
        -13    1    4    4    0    0  0.18067685884E+01  0.58192889346E+00  0.46898149074E+01  0.50604785183E+01  0.10500000000E+00 0. -1.
         13    1    4    4    0    0  0.35529530829E+01  0.97549486821E+00  0.90633711945E+01  0.97842111719E+01  0.10500000000E+00 0.  1.
    3000001    1    5    5    0    0 -0.55047343843E+01 -0.96770588225E+00 -0.89902348847E+01  0.10633102962E+02  0.10000000000E+01 0. -1.
        -13    1    6    6    0    0 -0.36671168729E+01  0.30771428504E+01 -0.12576794909E+02  0.13457464452E+02  0.10500000000E+00 0. -1.
         13    1    6    6    0    0 -0.10537456303E+02  0.88713065681E+01 -0.35854363928E+02  0.38409432478E+02  0.10500000000E+00 0.  1.
</event>
<event>
11    0  0.3476221E-009  0.9118800E+02  0.7816531E-02  0.1126479E+00
         25   -1    0    0    0    0  0.00000000000E+00  0.00000000000E+00  0.99999998245E-14  0.12500000000E+03  0.12500000000E+03 0.  0.
    3000001    1    3    3    0    0 -0.54243546144E+01  0.41596690858E+01  0.45092574256E+01  0.82498407510E+01  0.10000000000E+01 0. -1.
    1000022    2    1    0    0    0 -0.28908183455E+02  0.49574731263E+02  0.22647589477E+02  0.62499999105E+02  0.99999764285E+01 0.  0.
    3000022    2    3    3    0    0 -0.23483828840E+02  0.45415062177E+02  0.18138332052E+02  0.54250158354E+02  0.25000456865E+00 0.  0.
    1000022    2    1    0    0    0  0.28908183455E+02 -0.49574731263E+02 -0.22647589477E+02  0.62500000895E+02  0.99999876127E+01 0.  0.
    3000022    2    5    5    0    0  0.22617808606E+02 -0.43164273856E+02 -0.21917868437E+02  0.53433840036E+02  0.25000122112E+00 0.  0.
        -13    1    4    4    0    0 -0.16301185880E+02  0.31481505420E+02  0.12531069040E+02  0.37601230843E+02  0.10500000000E+00 0. -1.
         13    1    4    4    0    0 -0.71826429602E+01  0.13933556757E+02  0.56072630113E+01  0.16648927511E+02  0.10500000000E+00 0.  1.
    3000001    1    5    5    0    0  0.62903748490E+01 -0.64104574073E+01 -0.72972104060E+00  0.90661608583E+01  0.10000000000E+01 0. -1.
        -13    1    6    6    0    0  0.83769338174E+01 -0.16083620014E+02 -0.81996189983E+01  0.19902276997E+02  0.10500000000E+00 0.  1.
         13    1    6    6    0    0  0.14240874788E+02 -0.27080653842E+02 -0.13718249438E+02  0.33531563040E+02  0.10500000000E+00 0. -1.
</event>
<event>
11    0  0.3476221E-009  0.9118800E+02  0.7816531E-02  0.1126479E+00
         25   -1    0    0    0    0  0.00000000000E+00  0.00000000000E+00  0.99999998245E-14  0.12500000000E+03  0.12500000000E+03 0.  0.
    3000001    1    3    3    0    0 -0.29224035656E+02 -0.14044702390E+01 -0.48514869669E+02  0.56663121832E+02  0.10000000000E+01 0.  1.
    1000022    2    1    0    0    0 -0.34147709768E+02 -0.16310112339E+00 -0.51382459731E+02  0.62500000487E+02  0.10000010428E+02 0.  0.
    3000022    2    3    3    0    0 -0.49236741114E+01  0.12413691156E+01 -0.28675900614E+01  0.58368786554E+01  0.25003128184E+00 0.  0.
    1000022    2    1    0    0    0  0.34147709768E+02  0.16310112339E+00  0.51382459731E+02  0.62499999513E+02  0.10000004339E+02 0.  0.
    3000022    2    5    5    0    0  0.10037591681E+02 -0.92786026062E-02  0.23918427642E+02  0.25940451273E+02  0.24999708414E+00 0.  0.
        -13    1    4    4    0    0 -0.23992070240E+01  0.66465182662E+00 -0.13652031582E+01  0.28412604699E+01  0.10500000000E+00 0.  1.
         13    1    4    4    0    0 -0.25244670874E+01  0.57671728896E+00 -0.15023869032E+01  0.29956181856E+01  0.10500000000E+00 0. -1.
    3000001    1    5    5    0    0  0.24110118086E+02  0.17237972600E+00  0.27464032089E+02  0.36559548240E+02  0.10000000000E+01 0. -1.
        -13    1    6    6    0    0  0.71169452288E+01  0.34553720112E-01  0.16990217133E+02  0.18420928494E+02  0.10500000000E+00 0. -1.
         13    1    6    6    0    0  0.29206464522E+01 -0.43832322719E-01  0.69282105087E+01  0.75195227790E+01  0.10500000000E+00 0.  1.
</event>
<event>
11    0  0.3476221E-009  0.9118800E+02  0.7816531E-02  0.1126479E+00
         25   -1    0    0    0    0  0.00000000000E+00  0.00000000000E+00  0.99999998245E-14  0.12500000000E+03  0.12500000000E+03 0.  0.
    3000001    1    3    3    0    0  0.28146889569E+02 -0.20523308256E+02 -0.79768480583E+01  0.35750296210E+02  0.10000000000E+01 0. -1.
    1000022    2    1    0    0    0  0.43643634132E+02 -0.38890510568E+02 -0.19723369960E+02  0.62499996905E+02  0.99999839065E+01 0.  0.
    3000022    2    3    3    0    0  0.15496744563E+02 -0.18367202312E+02 -0.11746521902E+02  0.26749700695E+02  0.24999535700E+00 0.  0.
    1000022    2    1    0    0    0 -0.43643634132E+02  0.38890510568E+02  0.19723369960E+02  0.62500003095E+02  0.10000022591E+02 0.  0.
    3000022    2    5    5    0    0 -0.62156884299E+01  0.17415433234E+01  0.10292024617E+01  0.65413685041E+01  0.24997678973E+00 0.  0.
        -13    1    4    4    0    0  0.59267828194E+01 -0.70170546411E+01 -0.45576134553E+01  0.10254202837E+02  0.10500000000E+00 0.  1.
         13    1    4    4    0    0  0.95699617436E+01 -0.11350147670E+02 -0.71889084467E+01  0.16495497858E+02  0.10500000000E+00 0. -1.
    3000001    1    5    5    0    0 -0.37427945702E+02  0.37148967244E+02  0.18694167499E+02  0.55958634591E+02  0.10000000000E+01 0. -1.
        -13    1    6    6    0    0 -0.22537740171E+01  0.57901970736E+00  0.40031502482E+00  0.23634801164E+01  0.10500000000E+00 0. -1.
         13    1    6    6    0    0 -0.39619144128E+01  0.11625236160E+01  0.62888743686E+00  0.41778883877E+01  0.10500000000E+00 0.  1.
</event>
<event>
11    0  0.3476221E-009  0.9118800E+02  0.7816531E-02  0.1126479E+00
         25   -1    0    0    0    0  0.00000000000E+00  0.00000000000E+00  0.99999998245E-14  0.12500000000E+03  0.12500000000E+03 0.  0.
    3000001    1    3    3    0    0  0.34460920456E+02  0.34608411136E+01  0.36844193182E+00  0.34650659580E+02  0.10000000000E+01 0.  1.
    1000022    2    1    0    0    0  0.60530612441E+02  0.74629923079E+01  0.93058529508E+01  0.62500002059E+02  0.10000003075E+02 0.  0.
    3000022    2    3    3    0    0  0.26069691986E+02  0.40021511943E+01  0.89374110189E+01  0.27849342479E+02  0.25001275971E+00 0.  0.
    1000022    2    1    0    0    0 -0.60530612441E+02 -0.74629923079E+01 -0.93058529508E+01  0.62499997941E+02  0.99999773410E+01 0.  0.
    3000022    2    5    5    0    0 -0.43956551925E+02 -0.28875479838E+01 -0.29826123129E+01  0.44152857975E+02  0.25000141031E+00 0.  0.
        -13    1    4    4    0    0  0.90798807037E+01  0.14288389570E+01  0.30678205577E+01  0.96906327107E+01  0.10500000000E+00 0.  1.
         13    1    4    4    0    0  0.16989811282E+02  0.25733122373E+01  0.58695904612E+01  0.18158709768E+02  0.10500000000E+00 0. -1.
    3000001    1    5    5    0    0 -0.16574060516E+02 -0.45754443241E+01 -0.63232406379E+01  0.18347139966E+02  0.10000000000E+01 0.  1.
        -13    1    6    6    0    0 -0.29261140165E+02 -0.19701719445E+01 -0.19613080592E+01  0.29393088568E+02  0.10500000000E+00 0.  1.
         13    1    6    6    0    0 -0.14695411759E+02 -0.91737603932E+00 -0.10213042537E+01  0.14759769407E+02  0.10500000000E+00 0. -1.
</event>
