<event>
 4    1  0.4760244E-002  0.5092970E+03  0.7818608E-02  0.1011380E+00
         21   -1    0    0  501  502  0.00000000000E+00  0.00000000000E+00  0.24217286972E+03  0.24217286972E+03  0.00000000000E+00 0. -1.
         21   -1    0    0  502  503 -0.00000000000E+00 -0.00000000000E+00 -0.15079984696E+04  0.15079984696E+04  0.00000000000E+00 0.  1.
    9000007    1    1    2  501    0 -0.42643770024E+02 -0.31235387873E+03 -0.16187403945E+03  0.53440307010E+03  0.40000000000E+03 0. -1.
   -9000007    1    1    2    0  503  0.42643770024E+02  0.31235387873E+03 -0.11039515605E+04  0.12157682693E+04  0.40000000000E+03 0.  1.
<mgrwt>
<rscale>  2 0.50929700E+03</rscale>
<asrwt>0</asrwt>
<pdfrwt beam="1">  1       21 0.37257365E-01 0.50929700E+03</pdfrwt>
<pdfrwt beam="2">  1       21 0.23199976E+00 0.50929700E+03</pdfrwt>
<totfact> 0.46790110E+02</totfact>
</mgrwt>
</event>
<event>
 4    1  0.4760244E-002  0.4805316E+03  0.7818608E-02  0.1018989E+00
         21   -1    0    0  503  502  0.00000000000E+00  0.00000000000E+00  0.15047192187E+04  0.15047192187E+04  0.00000000000E+00 0. -1.
         21   -1    0    0  501  503 -0.00000000000E+00 -0.00000000000E+00 -0.25475953569E+03  0.25475953569E+03  0.00000000000E+00 0. -1.
    9000007    1    1    2  501    0  0.18185437361E+03 -0.19452415569E+03  0.70229481038E+02  0.48563653112E+03  0.40000000000E+03 0. -1.
   -9000007    1    1    2    0  502 -0.18185437361E+03  0.19452415569E+03  0.11797302020E+04  0.12738422233E+04  0.40000000000E+03 0. -1.
<mgrwt>
<rscale>  2 0.48053164E+03</rscale>
<asrwt>0</asrwt>
<pdfrwt beam="1">  1       21 0.23149526E+00 0.48053164E+03</pdfrwt>
<pdfrwt beam="2">  1       21 0.39193776E-01 0.48053164E+03</pdfrwt>
<totfact> 0.43060035E+02</totfact>
</mgrwt>
</event>
<event>
 4    1  0.4760244E-002  0.4320679E+03  0.7818608E-02  0.1033209E+00
         21   -1    0    0  501  502  0.00000000000E+00  0.00000000000E+00  0.13744424951E+04  0.13744424951E+04  0.00000000000E+00 0.  1.
         21   -1    0    0  502  503 -0.00000000000E+00 -0.00000000000E+00 -0.55765204987E+03  0.55765204987E+03  0.00000000000E+00 0.  1.
    9000007    1    1    2  501    0  0.11986986177E+03 -0.11096807641E+03  0.12485983571E+04  0.13212420501E+04  0.40000000000E+03 0.  1.
   -9000007    1    1    2    0  503 -0.11986986177E+03  0.11096807641E+03 -0.43180791184E+03  0.61085249485E+03  0.40000000000E+03 0.  1.
<mgrwt>
<rscale>  2 0.43206793E+03</rscale>
<asrwt>0</asrwt>
<pdfrwt beam="1">  1       21 0.21145269E+00 0.43206793E+03</pdfrwt>
<pdfrwt beam="2">  1       21 0.85792624E-01 0.43206793E+03</pdfrwt>
<totfact> 0.10709361E+02</totfact>
</mgrwt>
</event>
<event>
 4    1  0.4760244E-002  0.4088988E+03  0.7818608E-02  0.1040741E+00
         21   -1    0    0  503  502  0.00000000000E+00  0.00000000000E+00  0.13295566133E+03  0.13295566133E+03  0.00000000000E+00 0. -1.
         21   -1    0    0  501  503 -0.00000000000E+00 -0.00000000000E+00 -0.13987223086E+04  0.13987223086E+04  0.00000000000E+00 0. -1.
    9000007    1    1    2  501    0 -0.55067965920E+02  0.64542529585E+02 -0.87618689188E+03  0.96690314329E+03  0.40000000000E+03 0. -1.
   -9000007    1    1    2    0  502  0.55067965920E+02 -0.64542529585E+02 -0.38957975539E+03  0.56477482664E+03  0.40000000000E+03 0. -1.
<mgrwt>
<rscale>  2 0.40889879E+03</rscale>
<asrwt>0</asrwt>
<pdfrwt beam="1">  1       21 0.20454718E-01 0.40889879E+03</pdfrwt>
<pdfrwt beam="2">  1       21 0.21518804E+00 0.40889879E+03</pdfrwt>
<totfact> 0.20447430E+03</totfact>
</mgrwt>
</event>
<event>
 4    1  0.4760244E-002  0.4195227E+03  0.7818608E-02  0.1037222E+00
         21   -1    0    0  501  502  0.00000000000E+00  0.00000000000E+00  0.80919705109E+03  0.80919705109E+03  0.00000000000E+00 0.  1.
         21   -1    0    0  502  503 -0.00000000000E+00 -0.00000000000E+00 -0.25733906066E+03  0.25733906066E+03  0.00000000000E+00 0.  1.
    9000007    1    1    2  501    0  0.11713347941E+03 -0.47739074326E+02  0.48575271538E+03  0.64183718474E+03  0.40000000000E+03 0.  1.
   -9000007    1    1    2    0  503 -0.11713347941E+03  0.47739074326E+02  0.66105275042E+02  0.42469892701E+03  0.40000000000E+03 0.  1.
<mgrwt>
<rscale>  2 0.41952267E+03</rscale>
<asrwt>0</asrwt>
<pdfrwt beam="1">  1       21 0.12449185E+00 0.41952267E+03</pdfrwt>
<pdfrwt beam="2">  1       21 0.39590625E-01 0.41952267E+03</pdfrwt>
<totfact> 0.25914872E+03</totfact>
</mgrwt>
</event>
<event>
 4    1  0.4760244E-002  0.5287210E+03  0.7818608E-02  0.1006543E+00
         21   -1    0    0  503  502  0.00000000000E+00  0.00000000000E+00  0.36585604627E+03  0.36585604627E+03  0.00000000000E+00 0.  1.
         21   -1    0    0  501  503 -0.00000000000E+00 -0.00000000000E+00 -0.96533483637E+03  0.96533483637E+03  0.00000000000E+00 0.  1.
    9000007    1    1    2  501    0  0.13866272066E+03  0.31673104615E+03 -0.60364365761E+03  0.80245346972E+03  0.40000000000E+03 0.  1.
   -9000007    1    1    2    0  502 -0.13866272066E+03 -0.31673104615E+03  0.41648675108E+01  0.52873741292E+03  0.40000000000E+03 0.  1.
<mgrwt>
<rscale>  2 0.52872101E+03</rscale>
<asrwt>0</asrwt>
<pdfrwt beam="1">  1       21 0.56285546E-01 0.52872101E+03</pdfrwt>
<pdfrwt beam="2">  1       21 0.14851305E+00 0.52872101E+03</pdfrwt>
<totfact> 0.74186642E+02</totfact>
</mgrwt>
</event>
<event>
 4    1  0.4760244E-002  0.4162822E+03  0.7818608E-02  0.1038283E+00
         21   -1    0    0  503  502  0.00000000000E+00  0.00000000000E+00  0.75876781836E+03  0.75876781836E+03  0.00000000000E+00 0. -1.
         21   -1    0    0  501  503 -0.00000000000E+00 -0.00000000000E+00 -0.23361829033E+03  0.23361829033E+03  0.00000000000E+00 0. -1.
    9000007    1    1    2  501    0  0.10737724648E+03  0.41964003411E+02  0.18830652391E+03  0.45689188829E+03  0.40000000000E+03 0. -1.
   -9000007    1    1    2    0  502 -0.10737724648E+03 -0.41964003411E+02  0.33684300412E+03  0.53549422039E+03  0.40000000000E+03 0. -1.
<mgrwt>
<rscale>  2 0.41628218E+03</rscale>
<asrwt>0</asrwt>
<pdfrwt beam="1">  1       21 0.11673351E+00 0.41628218E+03</pdfrwt>
<pdfrwt beam="2">  1       21 0.35941276E-01 0.41628218E+03</pdfrwt>
<totfact> 0.37217008E+03</totfact>
</mgrwt>
</event>
<event>
 4    1  0.4760244E-002  0.5225180E+03  0.7818608E-02  0.1008063E+00
         21   -1    0    0  501  502  0.00000000000E+00  0.00000000000E+00  0.24765502842E+03  0.24765502842E+03  0.00000000000E+00 0.  1.
         21   -1    0    0  502  503 -0.00000000000E+00 -0.00000000000E+00 -0.11578495859E+04  0.11578495859E+04  0.00000000000E+00 0.  1.
    9000007    1    1    2  501    0  0.10808589038E+03  0.31834339581E+03 -0.30136522755E+03  0.60319654983E+03  0.40000000000E+03 0.  1.
   -9000007    1    1    2    0  503 -0.10808589038E+03 -0.31834339581E+03 -0.60882932993E+03  0.80230806449E+03  0.40000000000E+03 0.  1.
<mgrwt>
<rscale>  2 0.52251802E+03</rscale>
<asrwt>0</asrwt>
<pdfrwt beam="1">  1       21 0.38100773E-01 0.52251802E+03</pdfrwt>
<pdfrwt beam="2">  1       21 0.17813071E+00 0.52251802E+03</pdfrwt>
<totfact> 0.10152449E+03</totfact>
</mgrwt>
</event>
<event>
 4    1  0.4760244E-002  0.4800228E+03  0.7818608E-02  0.1019129E+00
         21   -1    0    0  503  502  0.00000000000E+00  0.00000000000E+00  0.50851338066E+03  0.50851338066E+03  0.00000000000E+00 0. -1.
         21   -1    0    0  501  503 -0.00000000000E+00 -0.00000000000E+00 -0.96847679815E+03  0.96847679815E+03  0.00000000000E+00 0. -1.
    9000007    1    1    2  501    0  0.25597014433E+03  0.70008071844E+02 -0.76868977034E+03  0.90625923882E+03  0.40000000000E+03 0. -1.
   -9000007    1    1    2    0  502 -0.25597014433E+03 -0.70008071844E+02  0.30872635286E+03  0.57073093999E+03  0.40000000000E+03 0. -1.
<mgrwt>
<rscale>  2 0.48002275E+03</rscale>
<asrwt>0</asrwt>
<pdfrwt beam="1">  1       21 0.78232828E-01 0.48002275E+03</pdfrwt>
<pdfrwt beam="2">  1       21 0.14899643E+00 0.48002275E+03</pdfrwt>
<totfact> 0.35906737E+02</totfact>
</mgrwt>
</event>
<event>
 4    1  0.4760244E-002  0.4246747E+03  0.7818608E-02  0.1035556E+00
         21   -1    0    0  503  502  0.00000000000E+00  0.00000000000E+00  0.42227911265E+03  0.42227911265E+03  0.00000000000E+00 0.  1.
         21   -1    0    0  501  503 -0.00000000000E+00 -0.00000000000E+00 -0.52795500248E+03  0.52795500248E+03  0.00000000000E+00 0.  1.
    9000007    1    1    2  501    0  0.11856373409E+03  0.79317315272E+02 -0.26051361819E+03  0.49821274653E+03  0.40000000000E+03 0.  1.
   -9000007    1    1    2    0  502 -0.11856373409E+03 -0.79317315272E+02  0.15483772835E+03  0.45202136859E+03  0.40000000000E+03 0.  1.
<mgrwt>
<rscale>  2 0.42467469E+03</rscale>
<asrwt>0</asrwt>
<pdfrwt beam="1">  1       21 0.64966017E-01 0.42467469E+03</pdfrwt>
<pdfrwt beam="2">  1       21 0.81223846E-01 0.42467469E+03</pdfrwt>
<totfact> 0.25394854E+03</totfact>
</mgrwt>
</event>
<event>
 4    1  0.4760244E-002  0.4704824E+03  0.7818608E-02  0.1021784E+00
         21   -1    0    0  503  502  0.00000000000E+00  0.00000000000E+00  0.33506845478E+03  0.33506845478E+03  0.00000000000E+00 0. -1.
         21   -1    0    0  501  503 -0.00000000000E+00 -0.00000000000E+00 -0.78305033984E+03  0.78305033984E+03  0.00000000000E+00 0. -1.
    9000007    1    1    2  501    0 -0.13625120473E+03  0.20685579914E+03 -0.29343570805E+01  0.47049157578E+03  0.40000000000E+03 0. -1.
   -9000007    1    1    2    0  502  0.13625120473E+03 -0.20685579914E+03 -0.44504752798E+03  0.64762721884E+03  0.40000000000E+03 0. -1.
<mgrwt>
<rscale>  2 0.47048243E+03</rscale>
<asrwt>0</asrwt>
<pdfrwt beam="1">  1       21 0.51548994E-01 0.47048243E+03</pdfrwt>
<pdfrwt beam="2">  1       21 0.12046928E+00 0.47048243E+03</pdfrwt>
<totfact> 0.15893155E+03</totfact>
</mgrwt>
</event>
<event>
 4    1  0.4760244E-002  0.4433277E+03  0.7818608E-02  0.1029731E+00
         21   -1    0    0  503  502  0.00000000000E+00  0.00000000000E+00  0.27666029188E+03  0.27666029188E+03  0.00000000000E+00 0. -1.
         21   -1    0    0  501  503 -0.00000000000E+00 -0.00000000000E+00 -0.85120891224E+03  0.85120891224E+03  0.00000000000E+00 0. -1.
    9000007    1    1    2  501    0  0.12763784100E+03  0.14229542426E+03 -0.51663875532E+03  0.68077530046E+03  0.40000000000E+03 0. -1.
   -9000007    1    1    2    0  502 -0.12763784100E+03 -0.14229542426E+03 -0.57909865046E+02  0.44709390366E+03  0.40000000000E+03 0. -1.
<mgrwt>
<rscale>  2 0.44332765E+03</rscale>
<asrwt>0</asrwt>
<pdfrwt beam="1">  1       21 0.42563123E-01 0.44332765E+03</pdfrwt>
<pdfrwt beam="2">  1       21 0.13095521E+00 0.44332765E+03</pdfrwt>
<totfact> 0.19398033E+03</totfact>
</mgrwt>
</event>
<event>
 4    1  0.4760244E-002  0.4179711E+03  0.7818608E-02  0.1037729E+00
         21   -1    0    0  503  502  0.00000000000E+00  0.00000000000E+00  0.70787730244E+03  0.70787730244E+03  0.00000000000E+00 0.  1.
         21   -1    0    0  501  503 -0.00000000000E+00 -0.00000000000E+00 -0.26244041883E+03  0.26244041883E+03  0.00000000000E+00 0.  1.
    9000007    1    1    2  501    0  0.94464940739E+02 -0.76001687178E+02  0.10425731039E+03  0.43077774809E+03  0.40000000000E+03 0.  1.
   -9000007    1    1    2    0  502 -0.94464940739E+02  0.76001687178E+02  0.34117957322E+03  0.53953997318E+03  0.40000000000E+03 0.  1.
<mgrwt>
<rscale>  2 0.41797115E+03</rscale>
<asrwt>0</asrwt>
<pdfrwt beam="1">  1       21 0.10890420E+00 0.41797115E+03</pdfrwt>
<pdfrwt beam="2">  1       21 0.40375449E-01 0.41797115E+03</pdfrwt>
<totfact> 0.34852955E+03</totfact>
</mgrwt>
</event>
<event>
 4    1  0.4760244E-002  0.5156728E+03  0.7818608E-02  0.1009767E+00
         21   -1    0    0  503  502  0.00000000000E+00  0.00000000000E+00  0.25347597558E+04  0.25347597558E+04  0.00000000000E+00 0.  1.
         21   -1    0    0  501  503 -0.00000000000E+00 -0.00000000000E+00 -0.11396406144E+03  0.11396406144E+03  0.00000000000E+00 0.  1.
    9000007    1    1    2  501    0 -0.96990532326E+02 -0.31066269145E+03  0.83708367497E+03  0.98317218742E+03  0.40000000000E+03 0.  1.
   -9000007    1    1    2    0  502  0.96990532326E+02  0.31066269145E+03  0.15837120194E+04  0.16655516298E+04  0.40000000000E+03 0.  1.
<mgrwt>
<rscale>  2 0.51567283E+03</rscale>
<asrwt>0</asrwt>
<pdfrwt beam="1">  1       21 0.38996300E+00 0.51567283E+03</pdfrwt>
<pdfrwt beam="2">  1       21 0.17532934E-01 0.51567283E+03</pdfrwt>
<totfact> 0.21796276E+02</totfact>
</mgrwt>
</event>
<event>
 4    1  0.4760244E-002  0.4618840E+03  0.7818608E-02  0.1024236E+00
         21   -1    0    0  503  502  0.00000000000E+00  0.00000000000E+00  0.25062065054E+03  0.25062065054E+03  0.00000000000E+00 0.  1.
         21   -1    0    0  501  503 -0.00000000000E+00 -0.00000000000E+00 -0.99944215186E+03  0.99944215186E+03  0.00000000000E+00 0. -1.
    9000007    1    1    2  501    0  0.17471013907E+02  0.23028593338E+03 -0.61510121471E+03  0.76921151303E+03  0.40000000000E+03 0. -1.
   -9000007    1    1    2    0  502 -0.17471013907E+02 -0.23028593338E+03 -0.13372028661E+03  0.48085128937E+03  0.40000000000E+03 0. -1.
<mgrwt>
<rscale>  2 0.46188402E+03</rscale>
<asrwt>0</asrwt>
<pdfrwt beam="1">  1       21 0.38557023E-01 0.46188402E+03</pdfrwt>
<pdfrwt beam="2">  1       21 0.15376033E+00 0.46188402E+03</pdfrwt>
<totfact> 0.15384797E+03</totfact>
</mgrwt>
</event>
<event>
 4    1  0.4760244E-002  0.5141836E+03  0.7818608E-02  0.1010142E+00
         21   -1    0    0  503  502  0.00000000000E+00  0.00000000000E+00  0.51027249486E+03  0.51027249486E+03  0.00000000000E+00 0.  1.
         21   -1    0    0  501  503 -0.00000000000E+00 -0.00000000000E+00 -0.73300499160E+03  0.73300499160E+03  0.00000000000E+00 0.  1.
    9000007    1    1    2  501    0 -0.14795646937E+03 -0.28721712362E+03 -0.44794204394E+03  0.68193611699E+03  0.40000000000E+03 0.  1.
   -9000007    1    1    2    0  502  0.14795646937E+03  0.28721712362E+03  0.22520954720E+03  0.56134136947E+03  0.40000000000E+03 0.  1.
<mgrwt>
<rscale>  2 0.51418362E+03</rscale>
<asrwt>0</asrwt>
<pdfrwt beam="1">  1       21 0.78503461E-01 0.51418362E+03</pdfrwt>
<pdfrwt beam="2">  1       21 0.11277000E+00 0.51418362E+03</pdfrwt>
<totfact> 0.72588405E+02</totfact>
</mgrwt>
</event>
<event>
 4    1  0.4760244E-002  0.4104104E+03  0.7818608E-02  0.1040233E+00
         21   -1    0    0  503  502  0.00000000000E+00  0.00000000000E+00  0.39238158675E+03  0.39238158675E+03  0.00000000000E+00 0.  1.
         21   -1    0    0  501  503 -0.00000000000E+00 -0.00000000000E+00 -0.44599533541E+03  0.44599533541E+03  0.00000000000E+00 0.  1.
    9000007    1    1    2  501    0  0.42928985968E+02 -0.81202315257E+02 -0.10798936020E+03  0.42438003694E+03  0.40000000000E+03 0.  1.
   -9000007    1    1    2    0  502 -0.42928985968E+02  0.81202315257E+02  0.54375611534E+02  0.41399688522E+03  0.40000000000E+03 0.  1.
<mgrwt>
<rscale>  2 0.41041042E+03</rscale>
<asrwt>0</asrwt>
<pdfrwt beam="1">  1       21 0.60366398E-01 0.41041042E+03</pdfrwt>
<pdfrwt beam="2">  1       21 0.68614667E-01 0.41041042E+03</pdfrwt>
<totfact> 0.44063794E+03</totfact>
</mgrwt>
</event>
<event>
 4    1  0.4760244E-002  0.4661211E+03  0.7818608E-02  0.1023021E+00
         21   -1    0    0  501  502  0.00000000000E+00  0.00000000000E+00  0.32514814759E+03  0.32514814759E+03  0.00000000000E+00 0.  1.
         21   -1    0    0  502  503 -0.00000000000E+00 -0.00000000000E+00 -0.90093974504E+03  0.90093974504E+03  0.00000000000E+00 0.  1.
    9000007    1    1    2  501    0  0.22175303731E+03 -0.89969296563E+02  0.23680902698E+02  0.46672226113E+03  0.40000000000E+03 0.  1.
   -9000007    1    1    2    0  503 -0.22175303731E+03  0.89969296563E+02 -0.59947250015E+03  0.75936563150E+03  0.40000000000E+03 0.  1.
<mgrwt>
<rscale>  2 0.46612110E+03</rscale>
<asrwt>0</asrwt>
<pdfrwt beam="1">  1       21 0.50022793E-01 0.46612110E+03</pdfrwt>
<pdfrwt beam="2">  1       21 0.13860611E+00 0.46612110E+03</pdfrwt>
<totfact> 0.11794012E+03</totfact>
</mgrwt>
</event>
<event>
 4    1  0.4760244E-002  0.4124216E+03  0.7818608E-02  0.1039561E+00
         21   -1    0    0  503  502  0.00000000000E+00  0.00000000000E+00  0.14634517832E+04  0.14634517832E+04  0.00000000000E+00 0. -1.
         21   -1    0    0  501  503 -0.00000000000E+00 -0.00000000000E+00 -0.11640355249E+03  0.11640355249E+03  0.00000000000E+00 0. -1.
    9000007    1    1    2  501    0  0.92342645220E+02 -0.39552337055E+02  0.70435097285E+03  0.81621188698E+03  0.40000000000E+03 0.  1.
   -9000007    1    1    2    0  502 -0.92342645220E+02  0.39552337055E+02  0.64269725785E+03  0.76364344870E+03  0.40000000000E+03 0.  1.
<mgrwt>
<rscale>  2 0.41242157E+03</rscale>
<asrwt>0</asrwt>
<pdfrwt beam="1">  1       21 0.22514641E+00 0.41242157E+03</pdfrwt>
<pdfrwt beam="2">  1       21 0.17908240E-01 0.41242157E+03</pdfrwt>
<totfact> 0.22684089E+03</totfact>
</mgrwt>
</event>
<event>
 4    1  0.4760244E-002  0.4592261E+03  0.7818608E-02  0.1025006E+00
         21   -1    0    0  503  502  0.00000000000E+00  0.00000000000E+00  0.12468350648E+03  0.12468350648E+03  0.00000000000E+00 0. -1.
         21   -1    0    0  501  503 -0.00000000000E+00 -0.00000000000E+00 -0.19381203130E+04  0.19381203130E+04  0.00000000000E+00 0. -1.
    9000007    1    1    2  501    0 -0.19918157337E+03  0.10590236218E+03 -0.12747182137E+04  0.13549151759E+04  0.40000000000E+03 0. -1.
   -9000007    1    1    2    0  502  0.19918157337E+03 -0.10590236218E+03 -0.53871859279E+03  0.70788864358E+03  0.40000000000E+03 0. -1.
<mgrwt>
<rscale>  2 0.45922610E+03</rscale>
<asrwt>0</asrwt>
<pdfrwt beam="1">  1       21 0.19182077E-01 0.45922610E+03</pdfrwt>
<pdfrwt beam="2">  1       21 0.29817236E+00 0.45922610E+03</pdfrwt>
<totfact> 0.69694181E+02</totfact>
</mgrwt>
</event>
<event>
 4    1  0.4760244E-002  0.6556768E+03  0.7818608E-02  0.9796185E-01
         21   -1    0    0  501  502  0.00000000000E+00  0.00000000000E+00  0.66968515393E+03  0.66968515393E+03  0.00000000000E+00 0. -1.
         21   -1    0    0  502  503 -0.00000000000E+00 -0.00000000000E+00 -0.67839440303E+03  0.67839440303E+03  0.00000000000E+00 0. -1.
    9000007    1    1    2  501    0 -0.16946641506E+01 -0.51952787004E+03 -0.16055833438E+03  0.67504893036E+03  0.40000000000E+03 0. -1.
   -9000007    1    1    2    0  503  0.16946641506E+01  0.51952787004E+03  0.15184908528E+03  0.67303062660E+03  0.40000000000E+03 0. -1.
<mgrwt>
<rscale>  2 0.65567681E+03</rscale>
<asrwt>0</asrwt>
<pdfrwt beam="1">  1       21 0.10302848E+00 0.65567681E+03</pdfrwt>
<pdfrwt beam="2">  1       21 0.10436837E+00 0.65567681E+03</pdfrwt>
<totfact> 0.43888521E+02</totfact>
</mgrwt>
</event>
<event>
 4    1  0.4760244E-002  0.4240861E+03  0.7818608E-02  0.1035745E+00
         21   -1    0    0  503  502  0.00000000000E+00  0.00000000000E+00  0.11906952337E+04  0.11906952337E+04  0.00000000000E+00 0.  1.
         21   -1    0    0  501  503 -0.00000000000E+00 -0.00000000000E+00 -0.23897884356E+03  0.23897884356E+03  0.00000000000E+00 0.  1.
    9000007    1    1    2  501    0  0.14088541240E+03 -0.53881245525E+00  0.42243033014E+02  0.42618477634E+03  0.40000000000E+03 0.  1.
   -9000007    1    1    2    0  502 -0.14088541240E+03  0.53881245525E+00  0.90947335708E+03  0.10034893009E+04  0.40000000000E+03 0.  1.
<mgrwt>
<rscale>  2 0.42408606E+03</rscale>
<asrwt>0</asrwt>
<pdfrwt beam="1">  1       21 0.18318388E+00 0.42408606E+03</pdfrwt>
<pdfrwt beam="2">  1       21 0.36765977E-01 0.42408606E+03</pdfrwt>
<totfact> 0.10487396E+03</totfact>
</mgrwt>
</event>
<event>
 4    1  0.4760244E-002  0.5836203E+03  0.7818608E-02  0.9939984E-01
         21   -1    0    0  503  502  0.00000000000E+00  0.00000000000E+00  0.85470123821E+03  0.85470123821E+03  0.00000000000E+00 0. -1.
         21   -1    0    0  501  503 -0.00000000000E+00 -0.00000000000E+00 -0.40364298707E+03  0.40364298707E+03  0.00000000000E+00 0. -1.
    9000007    1    1    2  501    0 -0.39243733364E+03  0.16311228838E+03  0.15462457997E+03  0.60375610985E+03  0.40000000000E+03 0. -1.
   -9000007    1    1    2    0  502  0.39243733364E+03 -0.16311228838E+03  0.29643367117E+03  0.65458811543E+03  0.40000000000E+03 0. -1.
<mgrwt>
<rscale>  2 0.58362032E+03</rscale>
<asrwt>0</asrwt>
<pdfrwt beam="1">  1       21 0.13149250E+00 0.58362032E+03</pdfrwt>
<pdfrwt beam="2">  1       21 0.62098921E-01 0.58362032E+03</pdfrwt>
<totfact> 0.81204633E+02</totfact>
</mgrwt>
</event>
<event>
 4    1  0.4760244E-002  0.6148517E+03  0.7818608E-02  0.9875064E-01
         21   -1    0    0  503  502  0.00000000000E+00  0.00000000000E+00  0.17977873697E+04  0.17977873697E+04  0.00000000000E+00 0. -1.
         21   -1    0    0  501  503 -0.00000000000E+00 -0.00000000000E+00 -0.21634726335E+03  0.21634726335E+03  0.00000000000E+00 0.  1.
    9000007    1    1    2  501    0 -0.40756194878E+02 -0.46516836039E+03  0.95933680332E+03  0.11394602991E+04  0.40000000000E+03 0. -1.
   -9000007    1    1    2    0  502  0.40756194878E+02  0.46516836039E+03  0.62210330305E+03  0.87467433402E+03  0.40000000000E+03 0.  1.
<mgrwt>
<rscale>  2 0.61485175E+03</rscale>
<asrwt>0</asrwt>
<pdfrwt beam="1">  1       21 0.27658266E+00 0.61485175E+03</pdfrwt>
<pdfrwt beam="2">  1       21 0.33284196E-01 0.61485175E+03</pdfrwt>
<totfact> 0.29791896E+02</totfact>
</mgrwt>
</event>
<event>
 4    1  0.4760244E-002  0.4991610E+03  0.7818608E-02  0.1013998E+00
         21   -1    0    0  503  502  0.00000000000E+00  0.00000000000E+00  0.25391806881E+03  0.25391806881E+03  0.00000000000E+00 0. -1.
         21   -1    0    0  501  503 -0.00000000000E+00 -0.00000000000E+00 -0.13849597722E+04  0.13849597722E+04  0.00000000000E+00 0. -1.
    9000007    1    1    2  501    0  0.29111157264E+03  0.66451023995E+02 -0.10079288136E+04  0.11247587206E+04  0.40000000000E+03 0. -1.
   -9000007    1    1    2    0  502 -0.29111157264E+03 -0.66451023995E+02 -0.12311288979E+03  0.51411912038E+03  0.40000000000E+03 0. -1.
<mgrwt>
<rscale>  2 0.49916098E+03</rscale>
<asrwt>0</asrwt>
<pdfrwt beam="1">  1       21 0.39064318E-01 0.49916098E+03</pdfrwt>
<pdfrwt beam="2">  1       21 0.21307074E+00 0.49916098E+03</pdfrwt>
<totfact> 0.56377794E+02</totfact>
</mgrwt>
</event>
<event>
 4    1  0.4760244E-002  0.4574365E+03  0.7818608E-02  0.1025527E+00
         21   -1    0    0  501  502  0.00000000000E+00  0.00000000000E+00  0.10151621484E+04  0.10151621484E+04  0.00000000000E+00 0.  1.
         21   -1    0    0  502  503 -0.00000000000E+00 -0.00000000000E+00 -0.21606725642E+03  0.21606725642E+03  0.00000000000E+00 0. -1.
    9000007    1    1    2  501    0 -0.11334224511E+03  0.19079226432E+03  0.53161712820E+03  0.70133082326E+03  0.40000000000E+03 0.  1.
   -9000007    1    1    2    0  503  0.11334224511E+03 -0.19079226432E+03  0.26747776379E+03  0.52989858159E+03  0.40000000000E+03 0. -1.
<mgrwt>
<rscale>  2 0.45743650E+03</rscale>
<asrwt>0</asrwt>
<pdfrwt beam="1">  1       21 0.15617879E+00 0.45743650E+03</pdfrwt>
<pdfrwt beam="2">  1       21 0.33241117E-01 0.45743650E+03</pdfrwt>
<totfact> 0.19954368E+03</totfact>
</mgrwt>
</event>
<event>
 4    1  0.4760244E-002  0.4091226E+03  0.7818608E-02  0.1040666E+00
         21   -1    0    0  501  502  0.00000000000E+00  0.00000000000E+00  0.33146695753E+03  0.33146695753E+03  0.00000000000E+00 0.  1.
         21   -1    0    0  502  503 -0.00000000000E+00 -0.00000000000E+00 -0.63712506264E+03  0.63712506264E+03  0.00000000000E+00 0.  1.
    9000007    1    1    2  501    0 -0.50710534947E+02  0.69352321810E+02  0.67736812060E+02  0.41469214919E+03  0.40000000000E+03 0.  1.
   -9000007    1    1    2    0  503  0.50710534947E+02 -0.69352321810E+02 -0.37339491717E+03  0.55389987097E+03  0.40000000000E+03 0.  1.
<mgrwt>
<rscale>  2 0.40912260E+03</rscale>
<asrwt>0</asrwt>
<pdfrwt beam="1">  1       21 0.50994917E-01 0.40912260E+03</pdfrwt>
<pdfrwt beam="2">  1       21 0.98019239E-01 0.40912260E+03</pdfrwt>
<totfact> 0.27746537E+03</totfact>
</mgrwt>
</event>
<event>
 4    1  0.4760244E-002  0.4601791E+03  0.7818608E-02  0.1024729E+00
         21   -1    0    0  501  502  0.00000000000E+00  0.00000000000E+00  0.10604984578E+04  0.10604984578E+04  0.00000000000E+00 0.  1.
         21   -1    0    0  502  503 -0.00000000000E+00 -0.00000000000E+00 -0.21833416367E+03  0.21833416367E+03  0.00000000000E+00 0.  1.
    9000007    1    1    2  501    0 -0.62967946096E+02  0.21863184089E+03  0.60796145656E+03  0.76248408295E+03  0.40000000000E+03 0.  1.
   -9000007    1    1    2    0  503  0.62967946096E+02 -0.21863184089E+03  0.23420283752E+03  0.51634853848E+03  0.40000000000E+03 0.  1.
<mgrwt>
<rscale>  2 0.46017914E+03</rscale>
<asrwt>0</asrwt>
<pdfrwt beam="1">  1       21 0.16315361E+00 0.46017914E+03</pdfrwt>
<pdfrwt beam="2">  1       21 0.33589872E-01 0.46017914E+03</pdfrwt>
<totfact> 0.17280925E+03</totfact>
</mgrwt>
</event>
<event>
 4    1  0.4760244E-002  0.5418538E+03  0.7818608E-02  0.1003397E+00
         21   -1    0    0  501  502  0.00000000000E+00  0.00000000000E+00  0.57189955692E+03  0.57189955692E+03  0.00000000000E+00 0. -1.
         21   -1    0    0  502  503 -0.00000000000E+00 -0.00000000000E+00 -0.60672464616E+03  0.60672464616E+03  0.00000000000E+00 0.  1.
    9000007    1    1    2  501    0 -0.15232846171E+03  0.33226728396E+03  0.21372960141E+03  0.58248248965E+03  0.40000000000E+03 0. -1.
   -9000007    1    1    2    0  503  0.15232846171E+03 -0.33226728396E+03 -0.24855469064E+03  0.59614171342E+03  0.40000000000E+03 0.  1.
<mgrwt>
<rscale>  2 0.54185377E+03</rscale>
<asrwt>0</asrwt>
<pdfrwt beam="1">  1       21 0.87984548E-01 0.54185377E+03</pdfrwt>
<pdfrwt beam="2">  1       21 0.93342253E-01 0.54185377E+03</pdfrwt>
<totfact> 0.87570558E+02</totfact>
</mgrwt>
</event>
<event>
 4    1  0.4760244E-002  0.4829591E+03  0.7818608E-02  0.1018325E+00
         21   -1    0    0  501  502  0.00000000000E+00  0.00000000000E+00  0.73186306188E+03  0.73186306188E+03  0.00000000000E+00 0. -1.
         21   -1    0    0  502  503 -0.00000000000E+00 -0.00000000000E+00 -0.70326659346E+03  0.70326659346E+03  0.00000000000E+00 0.  1.
    9000007    1    1    2  501    0  0.20906040272E+03  0.17188156039E+03  0.54491778829E+03  0.72813798060E+03  0.40000000000E+03 0. -1.
   -9000007    1    1    2    0  503 -0.20906040272E+03 -0.17188156039E+03 -0.51632131988E+03  0.70699167474E+03  0.40000000000E+03 0.  1.
<mgrwt>
<rscale>  2 0.48295913E+03</rscale>
<asrwt>0</asrwt>
<pdfrwt beam="1">  1       21 0.11259432E+00 0.48295913E+03</pdfrwt>
<pdfrwt beam="2">  1       21 0.10819486E+00 0.48295913E+03</pdfrwt>
<totfact> 0.34272341E+02</totfact>
</mgrwt>
</event>
<event>
 4    1  0.4760244E-002  0.5777025E+03  0.7818608E-02  0.9952777E-01
         21   -1    0    0  503  502  0.00000000000E+00  0.00000000000E+00  0.28742146494E+03  0.28742146494E+03  0.00000000000E+00 0. -1.
         21   -1    0    0  501  503 -0.00000000000E+00 -0.00000000000E+00 -0.11866204748E+04  0.11866204748E+04  0.00000000000E+00 0.  1.
    9000007    1    1    2  501    0  0.39188562168E+03 -0.14200665263E+03 -0.34162559242E+03  0.67115443474E+03  0.40000000000E+03 0.  1.
   -9000007    1    1    2    0  502 -0.39188562168E+03  0.14200665263E+03 -0.55757341749E+03  0.80288750505E+03  0.40000000000E+03 0. -1.
<mgrwt>
<rscale>  2 0.57770254E+03</rscale>
<asrwt>0</asrwt>
<pdfrwt beam="1">  1       21 0.44218687E-01 0.57770254E+03</pdfrwt>
<pdfrwt beam="2">  1       21 0.18255699E+00 0.57770254E+03</pdfrwt>
<totfact> 0.67931506E+02</totfact>
</mgrwt>
</event>
<event>
 4    1  0.4760244E-002  0.4418646E+03  0.7818608E-02  0.1030176E+00
         21   -1    0    0  503  502  0.00000000000E+00  0.00000000000E+00  0.37447517042E+03  0.37447517042E+03  0.00000000000E+00 0.  1.
         21   -1    0    0  501  503 -0.00000000000E+00 -0.00000000000E+00 -0.17565324625E+04  0.17565324625E+04  0.00000000000E+00 0.  1.
    9000007    1    1    2  501    0 -0.12219183104E+03 -0.14252527854E+03 -0.15845130987E+04  0.16449699263E+04  0.40000000000E+03 0.  1.
   -9000007    1    1    2    0  502  0.12219183104E+03  0.14252527854E+03  0.20245580661E+03  0.48603770659E+03  0.40000000000E+03 0.  1.
<mgrwt>
<rscale>  2 0.44186457E+03</rscale>
<asrwt>0</asrwt>
<pdfrwt beam="1">  1       21 0.57611564E-01 0.44186457E+03</pdfrwt>
<pdfrwt beam="2">  1       21 0.27023577E+00 0.44186457E+03</pdfrwt>
<totfact> 0.11258509E+02</totfact>
</mgrwt>
</event>
<event>
 4    1  0.4760244E-002  0.4544908E+03  0.7818608E-02  0.1026391E+00
         21   -1    0    0  501  502  0.00000000000E+00  0.00000000000E+00  0.22343802484E+03  0.22343802484E+03  0.00000000000E+00 0.  1.
         21   -1    0    0  502  503 -0.00000000000E+00 -0.00000000000E+00 -0.11097021193E+04  0.11097021193E+04  0.00000000000E+00 0. -1.
    9000007    1    1    2  501    0 -0.46567839881E+02  0.21069726548E+03 -0.17079924128E+03  0.48552474933E+03  0.40000000000E+03 0.  1.
   -9000007    1    1    2    0  503  0.46567839881E+02 -0.21069726548E+03 -0.71546485323E+03  0.84761539486E+03  0.40000000000E+03 0.  1.
<mgrwt>
<rscale>  2 0.45449082E+03</rscale>
<asrwt>0</asrwt>
<pdfrwt beam="1">  1       21 0.34375081E-01 0.45449082E+03</pdfrwt>
<pdfrwt beam="2">  1       21 0.17072340E+00 0.45449082E+03</pdfrwt>
<totfact> 0.14541415E+03</totfact>
</mgrwt>
</event>
<event>
 4    1  0.4760244E-002  0.4889845E+03  0.7818608E-02  0.1016695E+00
         21   -1    0    0  501  502  0.00000000000E+00  0.00000000000E+00  0.10001679370E+04  0.10001679370E+04  0.00000000000E+00 0. -1.
         21   -1    0    0  502  503 -0.00000000000E+00 -0.00000000000E+00 -0.23920151057E+03  0.23920151057E+03  0.00000000000E+00 0.  1.
    9000007    1    1    2  501    0  0.27418260434E+03  0.62688028798E+02  0.39524671076E+03  0.62874943486E+03  0.40000000000E+03 0.  1.
   -9000007    1    1    2    0  503 -0.27418260434E+03 -0.62688028798E+02  0.36571971564E+03  0.61062001268E+03  0.40000000000E+03 0. -1.
<mgrwt>
<rscale>  2 0.48898455E+03</rscale>
<asrwt>0</asrwt>
<pdfrwt beam="1">  1       21 0.15387199E+00 0.48898455E+03</pdfrwt>
<pdfrwt beam="2">  1       21 0.36800233E-01 0.48898455E+03</pdfrwt>
<totfact> 0.16713367E+03</totfact>
</mgrwt>
</event>
<event>
 4    1  0.4760244E-002  0.4592944E+03  0.7818608E-02  0.1024986E+00
         21   -1    0    0  501  502  0.00000000000E+00  0.00000000000E+00  0.22708319338E+03  0.22708319338E+03  0.00000000000E+00 0. -1.
         21   -1    0    0  502  503 -0.00000000000E+00 -0.00000000000E+00 -0.10441640005E+04  0.10441640005E+04  0.00000000000E+00 0. -1.
    9000007    1    1    2  501    0  0.84005834837E+02  0.20950972317E+03 -0.61966974588E+03  0.77132476840E+03  0.40000000000E+03 0. -1.
   -9000007    1    1    2    0  503 -0.84005834837E+02 -0.20950972317E+03 -0.19741106123E+03  0.49992242547E+03  0.40000000000E+03 0. -1.
<mgrwt>
<rscale>  2 0.45929435E+03</rscale>
<asrwt>0</asrwt>
<pdfrwt beam="1">  1       21 0.34935876E-01 0.45929435E+03</pdfrwt>
<pdfrwt beam="2">  1       21 0.16064062E+00 0.45929435E+03</pdfrwt>
<totfact> 0.16677940E+03</totfact>
</mgrwt>
</event>
<event>
 4    1  0.4760244E-002  0.4134056E+03  0.7818608E-02  0.1039234E+00
         21   -1    0    0  501  502  0.00000000000E+00  0.00000000000E+00  0.42504603039E+03  0.42504603039E+03  0.00000000000E+00 0. -1.
         21   -1    0    0  502  503 -0.00000000000E+00 -0.00000000000E+00 -0.55237705365E+03  0.55237705365E+03  0.00000000000E+00 0. -1.
    9000007    1    1    2  501    0  0.43100240731E+01  0.10433418015E+03  0.19125470084E+03  0.45550253353E+03  0.40000000000E+03 0. -1.
   -9000007    1    1    2    0  503 -0.43100240731E+01 -0.10433418015E+03 -0.31858572410E+03  0.52192055052E+03  0.40000000000E+03 0. -1.
<mgrwt>
<rscale>  2 0.41340561E+03</rscale>
<asrwt>0</asrwt>
<pdfrwt beam="1">  1       21 0.65391697E-01 0.41340561E+03</pdfrwt>
<pdfrwt beam="2">  1       21 0.84981085E-01 0.41340561E+03</pdfrwt>
<totfact> 0.22631605E+03</totfact>
</mgrwt>
</event>
<event>
 4    1  0.4760244E-002  0.4380234E+03  0.7818608E-02  0.1031355E+00
         21   -1    0    0  503  502  0.00000000000E+00  0.00000000000E+00  0.44489656168E+03  0.44489656168E+03  0.00000000000E+00 0.  1.
         21   -1    0    0  501  503 -0.00000000000E+00 -0.00000000000E+00 -0.62844115181E+03  0.62844115181E+03  0.00000000000E+00 0.  1.
    9000007    1    1    2  501    0  0.18466473620E+02  0.17754858002E+03 -0.39238733295E+03  0.58807510402E+03  0.40000000000E+03 0.  1.
   -9000007    1    1    2    0  502 -0.18466473620E+02 -0.17754858002E+03  0.20884274281E+03  0.48526260946E+03  0.40000000000E+03 0.  1.
<mgrwt>
<rscale>  2 0.43802341E+03</rscale>
<asrwt>0</asrwt>
<pdfrwt beam="1">  1       21 0.68445626E-01 0.43802341E+03</pdfrwt>
<pdfrwt beam="2">  1       21 0.96683253E-01 0.43802341E+03</pdfrwt>
<totfact> 0.14909720E+03</totfact>
</mgrwt>
</event>
<event>
 4    1  0.4760244E-002  0.5856175E+03  0.7818608E-02  0.9935703E-01
         21   -1    0    0  503  502  0.00000000000E+00  0.00000000000E+00  0.46962286353E+03  0.46962286353E+03  0.00000000000E+00 0. -1.
         21   -1    0    0  501  503 -0.00000000000E+00 -0.00000000000E+00 -0.75724649808E+03  0.75724649808E+03  0.00000000000E+00 0.  1.
    9000007    1    1    2  501    0 -0.88621209064E+02 -0.41844256518E+03 -0.25961059912E+03  0.64058220568E+03  0.40000000000E+03 0.  1.
   -9000007    1    1    2    0  502  0.88621209064E+02  0.41844256518E+03 -0.28013035432E+02  0.58628715593E+03  0.40000000000E+03 0. -1.
<mgrwt>
<rscale>  2 0.58561754E+03</rscale>
<asrwt>0</asrwt>
<pdfrwt beam="1">  1       21 0.72249671E-01 0.58561754E+03</pdfrwt>
<pdfrwt beam="2">  1       21 0.11649946E+00 0.58561754E+03</pdfrwt>
<totfact> 0.78937671E+02</totfact>
</mgrwt>
</event>
<event>
 4    1  0.4760244E-002  0.6695298E+03  0.7818608E-02  0.9770808E-01
         21   -1    0    0  503  502  0.00000000000E+00  0.00000000000E+00  0.33864365795E+04  0.33864365795E+04  0.00000000000E+00 0.  1.
         21   -1    0    0  501  503 -0.00000000000E+00 -0.00000000000E+00 -0.60958555414E+03  0.60958555414E+03  0.00000000000E+00 0. -1.
    9000007    1    1    2  501    0  0.15474718259E+03 -0.51412401287E+03 -0.37938956088E+03  0.76954962805E+03  0.40000000000E+03 0. -1.
   -9000007    1    1    2    0  502 -0.15474718259E+03  0.51412401287E+03  0.31562405863E+04  0.32264725056E+04  0.40000000000E+03 0.  1.
<mgrwt>
<rscale>  2 0.66952983E+03</rscale>
<asrwt>0</asrwt>
<pdfrwt beam="1">  1       21 0.52099023E+00 0.66952983E+03</pdfrwt>
<pdfrwt beam="2">  1       21 0.93782395E-01 0.66952983E+03</pdfrwt>
<totfact> 0.74776668E-01</totfact>
</mgrwt>
</event>
<event>
 4    1  0.4760244E-002  0.5292367E+03  0.7818608E-02  0.1006417E+00
         21   -1    0    0  501  502  0.00000000000E+00  0.00000000000E+00  0.14928803110E+03  0.14928803110E+03  0.00000000000E+00 0.  1.
         21   -1    0    0  502  503 -0.00000000000E+00 -0.00000000000E+00 -0.26732551701E+04  0.26732551701E+04  0.00000000000E+00 0. -1.
    9000007    1    1    2  501    0 -0.26816083185E+03 -0.21950240085E+03 -0.49136502597E+03  0.72217111855E+03  0.40000000000E+03 0.  1.
   -9000007    1    1    2    0  503  0.26816083185E+03  0.21950240085E+03 -0.20326021130E+04  0.21003720826E+04  0.40000000000E+03 0. -1.
<mgrwt>
<rscale>  2 0.52923675E+03</rscale>
<asrwt>0</asrwt>
<pdfrwt beam="1">  1       21 0.22967389E-01 0.52923675E+03</pdfrwt>
<pdfrwt beam="2">  1       21 0.41127004E+00 0.52923675E+03</pdfrwt>
<totfact> 0.94115791E+01</totfact>
</mgrwt>
</event>
<event>
 4    1  0.4760244E-002  0.4426030E+03  0.7818608E-02  0.1029951E+00
         21   -1    0    0  501  502  0.00000000000E+00  0.00000000000E+00  0.12633654455E+04  0.12633654455E+04  0.00000000000E+00 0. -1.
         21   -1    0    0  502  503 -0.00000000000E+00 -0.00000000000E+00 -0.15510101874E+03  0.15510101874E+03  0.00000000000E+00 0. -1.
    9000007    1    1    2  501    0 -0.90277469542E+02  0.16657544606E+03  0.54259336706E+03  0.70021779663E+03  0.40000000000E+03 0. -1.
   -9000007    1    1    2    0  503  0.90277469542E+02 -0.16657544606E+03  0.56567105968E+03  0.71824866759E+03  0.40000000000E+03 0. -1.
<mgrwt>
<rscale>  2 0.44260298E+03</rscale>
<asrwt>0</asrwt>
<pdfrwt beam="1">  1       21 0.19436391E+00 0.44260298E+03</pdfrwt>
<pdfrwt beam="2">  1       21 0.23861696E-01 0.44260298E+03</pdfrwt>
<totfact> 0.20544872E+03</totfact>
</mgrwt>
</event>
<event>
 4    1  0.4760244E-002  0.4914858E+03  0.7818608E-02  0.1016025E+00
         21   -1    0    0  503  502  0.00000000000E+00  0.00000000000E+00  0.12213195779E+04  0.12213195779E+04  0.00000000000E+00 0.  1.
         21   -1    0    0  501  503 -0.00000000000E+00 -0.00000000000E+00 -0.21449802850E+03  0.21449802850E+03  0.00000000000E+00 0. -1.
    9000007    1    1    2  501    0 -0.25761045851E+03 -0.12326868955E+03  0.30301471041E+03  0.57738742009E+03  0.40000000000E+03 0.  1.
   -9000007    1    1    2    0  502  0.25761045851E+03  0.12326868955E+03  0.70380683904E+03  0.85843018635E+03  0.40000000000E+03 0. -1.
<mgrwt>
<rscale>  2 0.49148583E+03</rscale>
<asrwt>0</asrwt>
<pdfrwt beam="1">  1       21 0.18789532E+00 0.49148583E+03</pdfrwt>
<pdfrwt beam="2">  1       21 0.32999697E-01 0.49148583E+03</pdfrwt>
<totfact> 0.11752247E+03</totfact>
</mgrwt>
</event>
<event>
 4    1  0.4760244E-002  0.5751073E+03  0.7818608E-02  0.9958440E-01
         21   -1    0    0  503  502  0.00000000000E+00  0.00000000000E+00  0.11883107193E+04  0.11883107193E+04  0.00000000000E+00 0. -1.
         21   -1    0    0  501  503 -0.00000000000E+00 -0.00000000000E+00 -0.65136945005E+03  0.65136945005E+03  0.00000000000E+00 0.  1.
    9000007    1    1    2  501    0  0.19424515550E+03 -0.36471534056E+03  0.96457300219E+03  0.11230091436E+04  0.40000000000E+03 0. -1.
   -9000007    1    1    2    0  502 -0.19424515550E+03  0.36471534056E+03 -0.42763173296E+03  0.71667102573E+03  0.40000000000E+03 0.  1.
<mgrwt>
<rscale>  2 0.57510735E+03</rscale>
<asrwt>0</asrwt>
<pdfrwt beam="1">  1       21 0.18281703E+00 0.57510735E+03</pdfrwt>
<pdfrwt beam="2">  1       21 0.10021068E+00 0.57510735E+03</pdfrwt>
<totfact> 0.10721587E+02</totfact>
</mgrwt>
</event>
<event>
 4    1  0.4760244E-002  0.4501352E+03  0.7818608E-02  0.1027682E+00
         21   -1    0    0  501  502  0.00000000000E+00  0.00000000000E+00  0.30079763606E+03  0.30079763606E+03  0.00000000000E+00 0. -1.
         21   -1    0    0  502  503 -0.00000000000E+00 -0.00000000000E+00 -0.11157956123E+04  0.11157956123E+04  0.00000000000E+00 0. -1.
    9000007    1    1    2  501    0 -0.12595997540E+03 -0.16357201081E+03  0.38385977138E+02  0.45176896901E+03  0.40000000000E+03 0. -1.
   -9000007    1    1    2    0  503  0.12595997540E+03  0.16357201081E+03 -0.85338395340E+03  0.96482427936E+03  0.40000000000E+03 0. -1.
<mgrwt>
<rscale>  2 0.45013522E+03</rscale>
<asrwt>0</asrwt>
<pdfrwt beam="1">  1       21 0.46276560E-01 0.45013522E+03</pdfrwt>
<pdfrwt beam="2">  1       21 0.17166086E+00 0.45013522E+03</pdfrwt>
<totfact> 0.77741049E+02</totfact>
</mgrwt>
</event>
<event>
 4    1  0.4760244E-002  0.4552805E+03  0.7818608E-02  0.1026159E+00
         21   -1    0    0  501  502  0.00000000000E+00  0.00000000000E+00  0.13796391468E+04  0.13796391468E+04  0.00000000000E+00 0.  1.
         21   -1    0    0  502  503 -0.00000000000E+00 -0.00000000000E+00 -0.17047730463E+03  0.17047730463E+03  0.00000000000E+00 0.  1.
    9000007    1    1    2  501    0  0.19622768365E+03 -0.93675313095E+02  0.87160539556E+03  0.98334954806E+03  0.40000000000E+03 0.  1.
   -9000007    1    1    2    0  503 -0.19622768365E+03  0.93675313095E+02  0.33755644662E+03  0.56676690338E+03  0.40000000000E+03 0.  1.
<mgrwt>
<rscale>  2 0.45528054E+03</rscale>
<asrwt>0</asrwt>
<pdfrwt beam="1">  1       21 0.21225217E+00 0.45528054E+03</pdfrwt>
<pdfrwt beam="2">  1       21 0.26227279E-01 0.45528054E+03</pdfrwt>
<totfact> 0.12941312E+03</totfact>
</mgrwt>
</event>
<event>
 4    1  0.4760244E-002  0.5476629E+03  0.7818608E-02  0.1002036E+00
         21   -1    0    0  501  502  0.00000000000E+00  0.00000000000E+00  0.66579917657E+03  0.66579917657E+03  0.00000000000E+00 0.  1.
         21   -1    0    0  502  503 -0.00000000000E+00 -0.00000000000E+00 -0.59818050036E+03  0.59818050036E+03  0.00000000000E+00 0. -1.
    9000007    1    1    2  501    0  0.87213002840E+02  0.36376991596E+03  0.34784062993E+03  0.64878946004E+03  0.40000000000E+03 0.  1.
   -9000007    1    1    2    0  503 -0.87213002840E+02 -0.36376991596E+03 -0.28022195372E+03  0.61519021690E+03  0.40000000000E+03 0. -1.
<mgrwt>
<rscale>  2 0.54766291E+03</rscale>
<asrwt>0</asrwt>
<pdfrwt beam="1">  1       21 0.10243064E+00 0.54766291E+03</pdfrwt>
<pdfrwt beam="2">  1       21 0.92027769E-01 0.54766291E+03</pdfrwt>
<totfact> 0.62673107E+02</totfact>
</mgrwt>
</event>
<event>
 4    1  0.4760244E-002  0.9022568E+03  0.7818608E-02  0.9422765E-01
         21   -1    0    0  501  502  0.00000000000E+00  0.00000000000E+00  0.11464175419E+04  0.11464175419E+04  0.00000000000E+00 0. -1.
         21   -1    0    0  502  503 -0.00000000000E+00 -0.00000000000E+00 -0.83231322391E+03  0.83231322391E+03  0.00000000000E+00 0.  1.
    9000007    1    1    2  501    0 -0.44203192833E+03 -0.67725560937E+03 -0.22206912294E+03  0.92918355638E+03  0.40000000000E+03 0.  1.
   -9000007    1    1    2    0  503  0.44203192833E+03  0.67725560937E+03  0.53617344093E+03  0.10495472094E+04  0.40000000000E+03 0. -1.
<mgrwt>
<rscale>  2 0.90225683E+03</rscale>
<asrwt>0</asrwt>
<pdfrwt beam="1">  1       21 0.17637193E+00 0.90225683E+03</pdfrwt>
<pdfrwt beam="2">  1       21 0.12804819E+00 0.90225683E+03</pdfrwt>
<totfact> 0.57277037E+01</totfact>
</mgrwt>
</event>
<event>
 4    1  0.4760244E-002  0.4347332E+03  0.7818608E-02  0.1032375E+00
         21   -1    0    0  501  502  0.00000000000E+00  0.00000000000E+00  0.17635597634E+03  0.17635597634E+03  0.00000000000E+00 0. -1.
         21   -1    0    0  502  503 -0.00000000000E+00 -0.00000000000E+00 -0.10730003000E+04  0.10730003000E+04  0.00000000000E+00 0.  1.
    9000007    1    1    2  501    0 -0.14712384669E+03  0.85717494062E+02 -0.47043413472E+03  0.64054757057E+03  0.40000000000E+03 0. -1.
   -9000007    1    1    2    0  503  0.14712384669E+03 -0.85717494062E+02 -0.42621018890E+03  0.60880870573E+03  0.40000000000E+03 0.  1.
<mgrwt>
<rscale>  2 0.43473315E+03</rscale>
<asrwt>0</asrwt>
<pdfrwt beam="1">  1       21 0.27131689E-01 0.43473315E+03</pdfrwt>
<pdfrwt beam="2">  1       21 0.16507697E+00 0.43473315E+03</pdfrwt>
<totfact> 0.25829069E+03</totfact>
</mgrwt>
</event>
<event>
 4    1  0.4760244E-002  0.5730044E+03  0.7818608E-02  0.9963052E-01
         21   -1    0    0  501  502  0.00000000000E+00  0.00000000000E+00  0.97014565388E+03  0.97014565388E+03  0.00000000000E+00 0. -1.
         21   -1    0    0  502  503 -0.00000000000E+00 -0.00000000000E+00 -0.93547779286E+03  0.93547779286E+03  0.00000000000E+00 0. -1.
    9000007    1    1    2  501    0  0.32420894832E+03  0.25144106159E+03  0.77852209913E+03  0.96665956182E+03  0.40000000000E+03 0. -1.
   -9000007    1    1    2    0  503 -0.32420894832E+03 -0.25144106159E+03 -0.74385423811E+03  0.93896388492E+03  0.40000000000E+03 0. -1.
<mgrwt>
<rscale>  2 0.57300441E+03</rscale>
<asrwt>0</asrwt>
<pdfrwt beam="1">  1       21 0.14925318E+00 0.57300441E+03</pdfrwt>
<pdfrwt beam="2">  1       21 0.14391966E+00 0.57300441E+03</pdfrwt>
<totfact> 0.75574105E+01</totfact>
</mgrwt>
</event>
<event>
 4    1  0.4760244E-002  0.7860408E+03  0.7818608E-02  0.9580445E-01
         21   -1    0    0  503  502  0.00000000000E+00  0.00000000000E+00  0.68534508160E+03  0.68534508160E+03  0.00000000000E+00 0. -1.
         21   -1    0    0  501  503 -0.00000000000E+00 -0.00000000000E+00 -0.92906202198E+03  0.92906202198E+03  0.00000000000E+00 0.  1.
    9000007    1    1    2  501    0  0.60001865400E+03 -0.31279029268E+03 -0.26081157175E+03  0.82818043221E+03  0.40000000000E+03 0.  1.
   -9000007    1    1    2    0  502 -0.60001865400E+03  0.31279029268E+03  0.17094631364E+02  0.78622667137E+03  0.40000000000E+03 0. -1.
<mgrwt>
<rscale>  2 0.78604081E+03</rscale>
<asrwt>0</asrwt>
<pdfrwt beam="1">  1       21 0.10543770E+00 0.78604081E+03</pdfrwt>
<pdfrwt beam="2">  1       21 0.14293262E+00 0.78604081E+03</pdfrwt>
<totfact> 0.17671087E+02</totfact>
</mgrwt>
</event>
<event>
 4    1  0.4760244E-002  0.6285043E+03  0.7818608E-02  0.9847972E-01
         21   -1    0    0  503  502  0.00000000000E+00  0.00000000000E+00  0.14014798534E+04  0.14014798534E+04  0.00000000000E+00 0.  1.
         21   -1    0    0  501  503 -0.00000000000E+00 -0.00000000000E+00 -0.43487841162E+03  0.43487841162E+03  0.00000000000E+00 0. -1.
    9000007    1    1    2  501    0 -0.31708177996E+03 -0.36671071360E+03  0.10279524561E+04  0.12048667373E+04  0.40000000000E+03 0.  1.
   -9000007    1    1    2    0  502  0.31708177996E+03  0.36671071360E+03 -0.61351014306E+02  0.63149152774E+03  0.40000000000E+03 0. -1.
<mgrwt>
<rscale>  2 0.62850426E+03</rscale>
<asrwt>0</asrwt>
<pdfrwt beam="1">  1       21 0.21561228E+00 0.62850426E+03</pdfrwt>
<pdfrwt beam="2">  1       21 0.66904372E-01 0.62850426E+03</pdfrwt>
<totfact> 0.16197311E+02</totfact>
</mgrwt>
</event>
<event>
 4    1  0.4760244E-002  0.6469542E+03  0.7818608E-02  0.9812511E-01
         21   -1    0    0  501  502  0.00000000000E+00  0.00000000000E+00  0.72340841467E+03  0.72340841467E+03  0.00000000000E+00 0. -1.
         21   -1    0    0  502  503 -0.00000000000E+00 -0.00000000000E+00 -0.60752603088E+03  0.60752603088E+03  0.00000000000E+00 0. -1.
    9000007    1    1    2  501    0 -0.46631031270E+03 -0.20274232761E+03  0.20319833718E+03  0.67811453558E+03  0.40000000000E+03 0. -1.
   -9000007    1    1    2    0  503  0.46631031270E+03  0.20274232761E+03 -0.87315953385E+02  0.65281990997E+03  0.40000000000E+03 0. -1.
<mgrwt>
<rscale>  2 0.64695422E+03</rscale>
<asrwt>0</asrwt>
<pdfrwt beam="1">  1       21 0.11129360E+00 0.64695422E+03</pdfrwt>
<pdfrwt beam="2">  1       21 0.93465543E-01 0.64695422E+03</pdfrwt>
<totfact> 0.47545437E+02</totfact>
</mgrwt>
</event>
<event>
 4    1  0.4760244E-002  0.5622334E+03  0.7818608E-02  0.9987014E-01
         21   -1    0    0  503  502  0.00000000000E+00  0.00000000000E+00  0.20522649156E+03  0.20522649156E+03  0.00000000000E+00 0.  1.
         21   -1    0    0  501  503 -0.00000000000E+00 -0.00000000000E+00 -0.18380932222E+04  0.18380932222E+04  0.00000000000E+00 0.  1.
    9000007    1    1    2  501    0 -0.31416444295E+03  0.23959771728E+03 -0.12276722614E+04  0.13502909112E+04  0.40000000000E+03 0.  1.
   -9000007    1    1    2    0  502  0.31416444295E+03 -0.23959771728E+03 -0.40519446924E+03  0.69302880261E+03  0.40000000000E+03 0.  1.
<mgrwt>
<rscale>  2 0.56223337E+03</rscale>
<asrwt>0</asrwt>
<pdfrwt beam="1">  1       21 0.31573307E-01 0.56223337E+03</pdfrwt>
<pdfrwt beam="2">  1       21 0.28278357E+00 0.56223337E+03</pdfrwt>
<totfact> 0.31067627E+02</totfact>
</mgrwt>
</event>
<event>
 4    1  0.4760244E-002  0.7065270E+03  0.7818608E-02  0.9706135E-01
         21   -1    0    0  503  502  0.00000000000E+00  0.00000000000E+00  0.16449451489E+04  0.16449451489E+04  0.00000000000E+00 0.  1.
         21   -1    0    0  501  503 -0.00000000000E+00 -0.00000000000E+00 -0.33740669763E+03  0.33740669763E+03  0.00000000000E+00 0. -1.
    9000007    1    1    2  501    0  0.26724848612E+03  0.51745401247E+03  0.96814700459E+03  0.11985362034E+04  0.40000000000E+03 0.  1.
   -9000007    1    1    2    0  502 -0.26724848612E+03 -0.51745401247E+03  0.33939144667E+03  0.78381564314E+03  0.40000000000E+03 0. -1.
<mgrwt>
<rscale>  2 0.70652700E+03</rscale>
<asrwt>0</asrwt>
<pdfrwt beam="1">  1       21 0.25306848E+00 0.70652700E+03</pdfrwt>
<pdfrwt beam="2">  1       21 0.51908723E-01 0.70652700E+03</pdfrwt>
<totfact> 0.15887722E+02</totfact>
</mgrwt>
</event>
<event>
 4    1  0.4760244E-002  0.4337837E+03  0.7818608E-02  0.1032671E+00
         21   -1    0    0  503  502  0.00000000000E+00  0.00000000000E+00  0.28081938138E+03  0.28081938138E+03  0.00000000000E+00 0. -1.
         21   -1    0    0  501  503 -0.00000000000E+00 -0.00000000000E+00 -0.70719570211E+03  0.70719570211E+03  0.00000000000E+00 0. -1.
    9000007    1    1    2  501    0 -0.16510999763E+03 -0.30115551780E+02 -0.99997881060E+02  0.44516045870E+03  0.40000000000E+03 0. -1.
   -9000007    1    1    2    0  502  0.16510999763E+03  0.30115551780E+02 -0.32637843966E+03  0.54285462479E+03  0.40000000000E+03 0. -1.
<mgrwt>
<rscale>  2 0.43378365E+03</rscale>
<asrwt>0</asrwt>
<pdfrwt beam="1">  1       21 0.43202982E-01 0.43378365E+03</pdfrwt>
<pdfrwt beam="2">  1       21 0.10879934E+00 0.43378365E+03</pdfrwt>
<totfact> 0.30187450E+03</totfact>
</mgrwt>
</event>
<event>
 4    1  0.4760244E-002  0.4898506E+03  0.7818608E-02  0.1016463E+00
         21   -1    0    0  503  502  0.00000000000E+00  0.00000000000E+00  0.30787675252E+03  0.30787675252E+03  0.00000000000E+00 0.  1.
         21   -1    0    0  501  503 -0.00000000000E+00 -0.00000000000E+00 -0.86632023380E+03  0.86632023380E+03  0.00000000000E+00 0.  1.
    9000007    1    1    2  501    0  0.13177897919E+03  0.25017573409E+03 -0.46520641484E+03  0.67555207475E+03  0.40000000000E+03 0.  1.
   -9000007    1    1    2    0  502 -0.13177897919E+03 -0.25017573409E+03 -0.93237066441E+02  0.49864491158E+03  0.40000000000E+03 0.  1.
<mgrwt>
<rscale>  2 0.48985059E+03</rscale>
<asrwt>0</asrwt>
<pdfrwt beam="1">  1       21 0.47365655E-01 0.48985059E+03</pdfrwt>
<pdfrwt beam="2">  1       21 0.13328003E+00 0.48985059E+03</pdfrwt>
<totfact> 0.14546900E+03</totfact>
</mgrwt>
</event>
<event>
 4    1  0.4760244E-002  0.4405744E+03  0.7818608E-02  0.1030571E+00
         21   -1    0    0  501  502  0.00000000000E+00  0.00000000000E+00  0.83638716077E+03  0.83638716077E+03  0.00000000000E+00 0. -1.
         21   -1    0    0  502  503 -0.00000000000E+00 -0.00000000000E+00 -0.27970124809E+03  0.27970124809E+03  0.00000000000E+00 0. -1.
    9000007    1    1    2  501    0 -0.15072021336E+03  0.10672034202E+03  0.50861313376E+03  0.67289905182E+03  0.40000000000E+03 0. -1.
   -9000007    1    1    2    0  503  0.15072021336E+03 -0.10672034202E+03  0.48072778934E+02  0.44318935704E+03  0.40000000000E+03 0. -1.
<mgrwt>
<rscale>  2 0.44057441E+03</rscale>
<asrwt>0</asrwt>
<pdfrwt beam="1">  1       21 0.12867495E+00 0.44057441E+03</pdfrwt>
<pdfrwt beam="2">  1       21 0.43030962E-01 0.44057441E+03</pdfrwt>
<totfact> 0.19867048E+03</totfact>
</mgrwt>
</event>
<event>
 4    1  0.4760244E-002  0.4669698E+03  0.7818608E-02  0.1022779E+00
         21   -1    0    0  501  502  0.00000000000E+00  0.00000000000E+00  0.33482772932E+03  0.33482772932E+03  0.00000000000E+00 0.  1.
         21   -1    0    0  502  503 -0.00000000000E+00 -0.00000000000E+00 -0.10494848854E+04  0.10494848854E+04  0.00000000000E+00 0.  1.
    9000007    1    1    2  501    0  0.15436207195E+03  0.18502212572E+03  0.69033697344E+02  0.47204500594E+03  0.40000000000E+03 0.  1.
   -9000007    1    1    2    0  503 -0.15436207195E+03 -0.18502212572E+03 -0.78369085338E+03  0.91226760873E+03  0.40000000000E+03 0.  1.
<mgrwt>
<rscale>  2 0.46696985E+03</rscale>
<asrwt>0</asrwt>
<pdfrwt beam="1">  1       21 0.51511959E-01 0.46696985E+03</pdfrwt>
<pdfrwt beam="2">  1       21 0.16145921E+00 0.46696985E+03</pdfrwt>
<totfact> 0.73101215E+02</totfact>
</mgrwt>
</event>
<event>
 4    1  0.4760244E-002  0.4270942E+03  0.7818608E-02  0.1034782E+00
         21   -1    0    0  503  502  0.00000000000E+00  0.00000000000E+00  0.16005025788E+04  0.16005025788E+04  0.00000000000E+00 0.  1.
         21   -1    0    0  501  503 -0.00000000000E+00 -0.00000000000E+00 -0.11586230186E+03  0.11586230186E+03  0.00000000000E+00 0.  1.
    9000007    1    1    2  501    0 -0.89582063891E+02  0.11993553596E+03  0.85199053462E+03  0.95304635252E+03  0.40000000000E+03 0.  1.
   -9000007    1    1    2    0  502  0.89582063891E+02 -0.11993553596E+03  0.63264974233E+03  0.76331852816E+03  0.40000000000E+03 0.  1.
<mgrwt>
<rscale>  2 0.42709423E+03</rscale>
<asrwt>0</asrwt>
<pdfrwt beam="1">  1       21 0.24623115E+00 0.42709423E+03</pdfrwt>
<pdfrwt beam="2">  1       21 0.17824971E-01 0.42709423E+03</pdfrwt>
<totfact> 0.16795098E+03</totfact>
</mgrwt>
</event>
<event>
 4    1  0.4760244E-002  0.5108538E+03  0.7818608E-02  0.1010984E+00
         21   -1    0    0  503  502  0.00000000000E+00  0.00000000000E+00  0.38276250989E+03  0.38276250989E+03  0.00000000000E+00 0. -1.
         21   -1    0    0  501  503 -0.00000000000E+00 -0.00000000000E+00 -0.72252619866E+03  0.72252619866E+03  0.00000000000E+00 0. -1.
    9000007    1    1    2  501    0 -0.93176023012E+02 -0.30379249465E+03 -0.38692743842E+02  0.51231706930E+03  0.40000000000E+03 0. -1.
   -9000007    1    1    2    0  502  0.93176023012E+02  0.30379249465E+03 -0.30107094493E+03  0.59297163925E+03  0.40000000000E+03 0. -1.
<mgrwt>
<rscale>  2 0.51085385E+03</rscale>
<asrwt>0</asrwt>
<pdfrwt beam="1">  1       21 0.58886540E-01 0.51085385E+03</pdfrwt>
<pdfrwt beam="2">  1       21 0.11115788E+00 0.51085385E+03</pdfrwt>
<totfact> 0.14377879E+03</totfact>
</mgrwt>
</event>
<event>
 4    1  0.4760244E-002  0.5263051E+03  0.7818608E-02  0.1007132E+00
         21   -1    0    0  501  502  0.00000000000E+00  0.00000000000E+00  0.37644622467E+03  0.37644622467E+03  0.00000000000E+00 0.  1.
         21   -1    0    0  502  503 -0.00000000000E+00 -0.00000000000E+00 -0.91012952593E+03  0.91012952593E+03  0.00000000000E+00 0. -1.
    9000007    1    1    2  501    0 -0.32915625016E+03 -0.93022485255E+02 -0.54836416826E+03  0.76006597136E+03  0.40000000000E+03 0. -1.
   -9000007    1    1    2    0  503  0.32915625016E+03  0.93022485255E+02  0.14680867009E+02  0.52650977924E+03  0.40000000000E+03 0.  1.
<mgrwt>
<rscale>  2 0.52630506E+03</rscale>
<asrwt>0</asrwt>
<pdfrwt beam="1">  1       21 0.57914804E-01 0.52630506E+03</pdfrwt>
<pdfrwt beam="2">  1       21 0.14001993E+00 0.52630506E+03</pdfrwt>
<totfact> 0.81791861E+02</totfact>
</mgrwt>
</event>
<event>
 4    1  0.4760244E-002  0.7391165E+03  0.7818608E-02  0.9652581E-01
         21   -1    0    0  503  502  0.00000000000E+00  0.00000000000E+00  0.40882810227E+03  0.40882810227E+03  0.00000000000E+00 0. -1.
         21   -1    0    0  501  503 -0.00000000000E+00 -0.00000000000E+00 -0.16299219758E+04  0.16299219758E+04  0.00000000000E+00 0. -1.
    9000007    1    1    2  501    0 -0.51249747497E+03  0.35162404335E+03 -0.10432480664E+04  0.12785380939E+04  0.40000000000E+03 0. -1.
   -9000007    1    1    2    0  502  0.51249747497E+03 -0.35162404335E+03 -0.17784580721E+03  0.76021198415E+03  0.40000000000E+03 0. -1.
<mgrwt>
<rscale>  2 0.73911645E+03</rscale>
<asrwt>0</asrwt>
<pdfrwt beam="1">  1       21 0.62896630E-01 0.73911645E+03</pdfrwt>
<pdfrwt beam="2">  1       21 0.25075723E+00 0.73911645E+03</pdfrwt>
<totfact> 0.10653115E+02</totfact>
</mgrwt>
</event>
<event>
 4    1  0.4760244E-002  0.4118470E+03  0.7818608E-02  0.1039753E+00
         21   -1    0    0  501  502  0.00000000000E+00  0.00000000000E+00  0.61378234344E+03  0.61378234344E+03  0.00000000000E+00 0. -1.
         21   -1    0    0  502  503 -0.00000000000E+00 -0.00000000000E+00 -0.44779708537E+03  0.44779708537E+03  0.00000000000E+00 0. -1.
    9000007    1    1    2  501    0  0.91386171680E+02  0.35587954301E+02  0.41142700278E+03  0.58214269168E+03  0.40000000000E+03 0. -1.
   -9000007    1    1    2    0  503 -0.91386171680E+02 -0.35587954301E+02 -0.24544174471E+03  0.47943673713E+03  0.40000000000E+03 0. -1.
<mgrwt>
<rscale>  2 0.41184698E+03</rscale>
<asrwt>0</asrwt>
<pdfrwt beam="1">  1       21 0.94428053E-01 0.41184698E+03</pdfrwt>
<pdfrwt beam="2">  1       21 0.68891859E-01 0.41184698E+03</pdfrwt>
<totfact> 0.15717842E+03</totfact>
</mgrwt>
</event>
<event>
 4    1  0.4760244E-002  0.4125816E+03  0.7818608E-02  0.1039508E+00
         21   -1    0    0  501  502  0.00000000000E+00  0.00000000000E+00  0.60828768223E+03  0.60828768223E+03  0.00000000000E+00 0. -1.
         21   -1    0    0  502  503 -0.00000000000E+00 -0.00000000000E+00 -0.27984359132E+03  0.27984359132E+03  0.00000000000E+00 0. -1.
    9000007    1    1    2  501    0  0.69765357680E+02 -0.73187188726E+02  0.16276214448E+03  0.44352574379E+03  0.40000000000E+03 0. -1.
   -9000007    1    1    2    0  503 -0.69765357680E+02  0.73187188726E+02  0.16568194643E+03  0.44460552977E+03  0.40000000000E+03 0. -1.
<mgrwt>
<rscale>  2 0.41258159E+03</rscale>
<asrwt>0</asrwt>
<pdfrwt beam="1">  1       21 0.93582720E-01 0.41258159E+03</pdfrwt>
<pdfrwt beam="2">  1       21 0.43052860E-01 0.41258159E+03</pdfrwt>
<totfact> 0.44203091E+03</totfact>
</mgrwt>
</event>
<event>
 4    1  0.4760244E-002  0.4087205E+03  0.7818608E-02  0.1040801E+00
         21   -1    0    0  501  502  0.00000000000E+00  0.00000000000E+00  0.19678570257E+03  0.19678570257E+03  0.00000000000E+00 0. -1.
         21   -1    0    0  502  503 -0.00000000000E+00 -0.00000000000E+00 -0.94340678852E+03  0.94340678852E+03  0.00000000000E+00 0. -1.
    9000007    1    1    2  501    0 -0.36642857053E+02 -0.75562741901E+02 -0.19287670185E+03  0.45194451989E+03  0.40000000000E+03 0. -1.
   -9000007    1    1    2    0  503  0.36642857053E+02  0.75562741901E+02 -0.55374438410E+03  0.68824797120E+03  0.40000000000E+03 0. -1.
<mgrwt>
<rscale>  2 0.40872048E+03</rscale>
<asrwt>0</asrwt>
<pdfrwt beam="1">  1       21 0.30274724E-01 0.40872048E+03</pdfrwt>
<pdfrwt beam="2">  1       21 0.14513950E+00 0.40872048E+03</pdfrwt>
<totfact> 0.29931918E+03</totfact>
</mgrwt>
</event>
<event>
 4    1  0.4760244E-002  0.4212012E+03  0.7818608E-02  0.1036676E+00
         21   -1    0    0  501  502  0.00000000000E+00  0.00000000000E+00  0.14858304334E+04  0.14858304334E+04  0.00000000000E+00 0. -1.
         21   -1    0    0  502  503 -0.00000000000E+00 -0.00000000000E+00 -0.41728300481E+03  0.41728300481E+03  0.00000000000E+00 0. -1.
    9000007    1    1    2  501    0  0.53407103708E+02 -0.12065712331E+03  0.13382459723E+04  0.14029656954E+04  0.40000000000E+03 0. -1.
   -9000007    1    1    2    0  503 -0.53407103708E+02  0.12065712331E+03 -0.26969854371E+03  0.50014774278E+03  0.40000000000E+03 0. -1.
<mgrwt>
<rscale>  2 0.42120121E+03</rscale>
<asrwt>0</asrwt>
<pdfrwt beam="1">  1       21 0.22858930E+00 0.42120121E+03</pdfrwt>
<pdfrwt beam="2">  1       21 0.64197386E-01 0.42120121E+03</pdfrwt>
<totfact> 0.16208407E+02</totfact>
</mgrwt>
</event>
<event>
 4    1  0.4760244E-002  0.4045099E+03  0.7818608E-02  0.1042229E+00
         21   -1    0    0  501  502  0.00000000000E+00  0.00000000000E+00  0.60773306923E+03  0.60773306923E+03  0.00000000000E+00 0. -1.
         21   -1    0    0  502  503 -0.00000000000E+00 -0.00000000000E+00 -0.52508644643E+03  0.52508644643E+03  0.00000000000E+00 0. -1.
    9000007    1    1    2  501    0 -0.59199975486E+02 -0.11120301092E+02  0.43669164240E+03  0.59525447393E+03  0.40000000000E+03 0. -1.
   -9000007    1    1    2    0  503  0.59199975486E+02  0.11120301092E+02 -0.35404501960E+03  0.53756504173E+03  0.40000000000E+03 0. -1.
<mgrwt>
<rscale>  2 0.40450995E+03</rscale>
<asrwt>0</asrwt>
<pdfrwt beam="1">  1       21 0.93497394E-01 0.40450995E+03</pdfrwt>
<pdfrwt beam="2">  1       21 0.80782531E-01 0.40450995E+03</pdfrwt>
<totfact> 0.11241415E+03</totfact>
</mgrwt>
</event>
<event>
 4    1  0.4760244E-002  0.4306768E+03  0.7818608E-02  0.1033646E+00
         21   -1    0    0  501  502  0.00000000000E+00  0.00000000000E+00  0.11317092162E+04  0.11317092162E+04  0.00000000000E+00 0.  1.
         21   -1    0    0  502  503 -0.00000000000E+00 -0.00000000000E+00 -0.20732989560E+03  0.20732989560E+03  0.00000000000E+00 0. -1.
    9000007    1    1    2  501    0 -0.13393643700E+03  0.86853398648E+02  0.15574837474E+03  0.45797384013E+03  0.40000000000E+03 0. -1.
   -9000007    1    1    2    0  503  0.13393643700E+03 -0.86853398648E+02  0.76863094584E+03  0.88106527166E+03  0.40000000000E+03 0.  1.
<mgrwt>
<rscale>  2 0.43067677E+03</rscale>
<asrwt>0</asrwt>
<pdfrwt beam="1">  1       21 0.17410911E+00 0.43067677E+03</pdfrwt>
<pdfrwt beam="2">  1       21 0.31896908E-01 0.43067677E+03</pdfrwt>
<totfact> 0.16140786E+03</totfact>
</mgrwt>
</event>
<event>
 4    1  0.4760244E-002  0.5099732E+03  0.7818608E-02  0.1011208E+00
         21   -1    0    0  503  502  0.00000000000E+00  0.00000000000E+00  0.18512762508E+04  0.18512762508E+04  0.00000000000E+00 0. -1.
         21   -1    0    0  501  503 -0.00000000000E+00 -0.00000000000E+00 -0.22722086942E+03  0.22722086942E+03  0.00000000000E+00 0. -1.
    9000007    1    1    2  501    0  0.10059210834E+03  0.29992317589E+03  0.16993176916E+03  0.53754022163E+03  0.40000000000E+03 0. -1.
   -9000007    1    1    2    0  502 -0.10059210834E+03 -0.29992317589E+03  0.14541236122E+04  0.15409568986E+04  0.40000000000E+03 0. -1.
<mgrwt>
<rscale>  2 0.50997322E+03</rscale>
<asrwt>0</asrwt>
<pdfrwt beam="1">  1       21 0.28481172E+00 0.50997322E+03</pdfrwt>
<pdfrwt beam="2">  1       21 0.34957058E-01 0.50997322E+03</pdfrwt>
<totfact> 0.25213542E+02</totfact>
</mgrwt>
</event>
<event>
 4    1  0.4760244E-002  0.5848916E+03  0.7818608E-02  0.9937257E-01
         21   -1    0    0  501  502  0.00000000000E+00  0.00000000000E+00  0.35945416410E+03  0.35945416410E+03  0.00000000000E+00 0. -1.
         21   -1    0    0  502  503 -0.00000000000E+00 -0.00000000000E+00 -0.18184965860E+04  0.18184965860E+04  0.00000000000E+00 0.  1.
    9000007    1    1    2  501    0 -0.25500602662E+03  0.34215504390E+03  0.22303322747E+02  0.58531665437E+03  0.40000000000E+03 0. -1.
   -9000007    1    1    2    0  503  0.25500602662E+03 -0.34215504390E+03 -0.14813457447E+04  0.15926340957E+04  0.40000000000E+03 0.  1.
<mgrwt>
<rscale>  2 0.58489157E+03</rscale>
<asrwt>0</asrwt>
<pdfrwt beam="1">  1       21 0.55300641E-01 0.58489157E+03</pdfrwt>
<pdfrwt beam="2">  1       21 0.27976871E+00 0.58489157E+03</pdfrwt>
<totfact> 0.99639558E+01</totfact>
</mgrwt>
</event>
<event>
 4    1  0.4760244E-002  0.5017181E+03  0.7818608E-02  0.1013331E+00
         21   -1    0    0  501  502  0.00000000000E+00  0.00000000000E+00  0.68868574364E+03  0.68868574364E+03  0.00000000000E+00 0. -1.
         21   -1    0    0  502  503 -0.00000000000E+00 -0.00000000000E+00 -0.46852876703E+03  0.46852876703E+03  0.00000000000E+00 0. -1.
    9000007    1    1    2  501    0 -0.18853610037E+03 -0.23701308547E+03 -0.16123746659E+03  0.52699011799E+03  0.40000000000E+03 0. -1.
   -9000007    1    1    2    0  503  0.18853610037E+03  0.23701308547E+03  0.38139444320E+03  0.63022439268E+03  0.40000000000E+03 0. -1.
<mgrwt>
<rscale>  2 0.50171811E+03</rscale>
<asrwt>0</asrwt>
<pdfrwt beam="1">  1       21 0.10595165E+00 0.50171811E+03</pdfrwt>
<pdfrwt beam="2">  1       21 0.72081348E-01 0.50171811E+03</pdfrwt>
<totfact> 0.10352831E+03</totfact>
</mgrwt>
</event>
<event>
 4    1  0.4760244E-002  0.5720669E+03  0.7818608E-02  0.9965115E-01
         21   -1    0    0  501  502  0.00000000000E+00  0.00000000000E+00  0.29237764666E+03  0.29237764666E+03  0.00000000000E+00 0.  1.
         21   -1    0    0  502  503 -0.00000000000E+00 -0.00000000000E+00 -0.14882536143E+04  0.14882536143E+04  0.00000000000E+00 0.  1.
    9000007    1    1    2  501    0  0.70712411574E+02  0.40281541124E+03 -0.15464895854E+03  0.59260172212E+03  0.40000000000E+03 0.  1.
   -9000007    1    1    2    0  503 -0.70712411574E+02 -0.40281541124E+03 -0.10412270091E+04  0.11880295389E+04  0.40000000000E+03 0.  1.
<mgrwt>
<rscale>  2 0.57206687E+03</rscale>
<asrwt>0</asrwt>
<pdfrwt beam="1">  1       21 0.44981177E-01 0.57206687E+03</pdfrwt>
<pdfrwt beam="2">  1       21 0.22896209E+00 0.57206687E+03</pdfrwt>
<totfact> 0.32205426E+02</totfact>
</mgrwt>
</event>
<event>
 4    1  0.4760244E-002  0.4909856E+03  0.7818608E-02  0.1016159E+00
         21   -1    0    0  501  502  0.00000000000E+00  0.00000000000E+00  0.78005119590E+03  0.78005119590E+03  0.00000000000E+00 0.  1.
         21   -1    0    0  502  503 -0.00000000000E+00 -0.00000000000E+00 -0.32545789954E+03  0.32545789954E+03  0.00000000000E+00 0. -1.
    9000007    1    1    2  501    0  0.22743900777E+03  0.17128443515E+03  0.35144657065E+03  0.60380588934E+03  0.40000000000E+03 0. -1.
   -9000007    1    1    2    0  503 -0.22743900777E+03 -0.17128443515E+03  0.10314672571E+03  0.50170320610E+03  0.40000000000E+03 0.  1.
<mgrwt>
<rscale>  2 0.49098560E+03</rscale>
<asrwt>0</asrwt>
<pdfrwt beam="1">  1       21 0.12000788E+00 0.49098560E+03</pdfrwt>
<pdfrwt beam="2">  1       21 0.50070446E-01 0.49098560E+03</pdfrwt>
<totfact> 0.16949670E+03</totfact>
</mgrwt>
</event>
<event>
 4    1  0.4760244E-002  0.4551732E+03  0.7818608E-02  0.1026190E+00
         21   -1    0    0  503  502  0.00000000000E+00  0.00000000000E+00  0.66882641905E+03  0.66882641905E+03  0.00000000000E+00 0. -1.
         21   -1    0    0  501  503 -0.00000000000E+00 -0.00000000000E+00 -0.47699120255E+03  0.47699120255E+03  0.00000000000E+00 0. -1.
    9000007    1    1    2  501    0 -0.50482930139E+02  0.21126779858E+03 -0.24329774778E+03  0.51611665641E+03  0.40000000000E+03 0. -1.
   -9000007    1    1    2    0  502  0.50482930139E+02 -0.21126779858E+03  0.43513296428E+03  0.62970096518E+03  0.40000000000E+03 0. -1.
<mgrwt>
<rscale>  2 0.45517316E+03</rscale>
<asrwt>0</asrwt>
<pdfrwt beam="1">  1       21 0.10289637E+00 0.45517316E+03</pdfrwt>
<pdfrwt beam="2">  1       21 0.73383262E-01 0.45517316E+03</pdfrwt>
<totfact> 0.10877068E+03</totfact>
</mgrwt>
</event>
<event>
 4    1  0.4760244E-002  0.4109954E+03  0.7818608E-02  0.1040037E+00
         21   -1    0    0  501  502  0.00000000000E+00  0.00000000000E+00  0.59505053352E+03  0.59505053352E+03  0.00000000000E+00 0.  1.
         21   -1    0    0  502  503 -0.00000000000E+00 -0.00000000000E+00 -0.63653555622E+03  0.63653555622E+03  0.00000000000E+00 0.  1.
    9000007    1    1    2  501    0  0.61103061132E+02  0.71997721583E+02 -0.47910038718E+03  0.63123247460E+03  0.40000000000E+03 0.  1.
   -9000007    1    1    2    0  503 -0.61103061132E+02 -0.71997721583E+02  0.43761536447E+03  0.60035361514E+03  0.40000000000E+03 0.  1.
<mgrwt>
<rscale>  2 0.41099545E+03</rscale>
<asrwt>0</asrwt>
<pdfrwt beam="1">  1       21 0.91546236E-01 0.41099545E+03</pdfrwt>
<pdfrwt beam="2">  1       21 0.97928547E-01 0.41099545E+03</pdfrwt>
<totfact> 0.74856272E+02</totfact>
</mgrwt>
</event>
<event>
 4    1  0.4760244E-002  0.6253429E+03  0.7818608E-02  0.9854179E-01
         21   -1    0    0  503  502  0.00000000000E+00  0.00000000000E+00  0.76621361098E+03  0.76621361098E+03  0.00000000000E+00 0. -1.
         21   -1    0    0  501  503 -0.00000000000E+00 -0.00000000000E+00 -0.54852351385E+03  0.54852351385E+03  0.00000000000E+00 0.  1.
    9000007    1    1    2  501    0 -0.47423395050E+03 -0.78459768256E+02 -0.64522841916E+02  0.62866284459E+03  0.40000000000E+03 0.  1.
   -9000007    1    1    2    0  502  0.47423395050E+03  0.78459768256E+02  0.28221293905E+03  0.68607428024E+03  0.40000000000E+03 0. -1.
<mgrwt>
<rscale>  2 0.62534293E+03</rscale>
<asrwt>0</asrwt>
<pdfrwt beam="1">  1       21 0.11787902E+00 0.62534293E+03</pdfrwt>
<pdfrwt beam="2">  1       21 0.84388232E-01 0.62534293E+03</pdfrwt>
<totfact> 0.52809325E+02</totfact>
</mgrwt>
</event>
<event>
 4    1  0.4760244E-002  0.7566952E+03  0.7818608E-02  0.9624905E-01
         21   -1    0    0  503  502  0.00000000000E+00  0.00000000000E+00  0.49099247089E+03  0.49099247089E+03  0.00000000000E+00 0.  1.
         21   -1    0    0  501  503 -0.00000000000E+00 -0.00000000000E+00 -0.16620687151E+04  0.16620687151E+04  0.00000000000E+00 0. -1.
    9000007    1    1    2  501    0  0.17828640209E+03 -0.61709128547E+03 -0.11735581684E+04  0.13963618694E+04  0.40000000000E+03 0. -1.
   -9000007    1    1    2    0  502 -0.17828640209E+03  0.61709128547E+03  0.24819241711E+01  0.75669931659E+03  0.40000000000E+03 0.  1.
<mgrwt>
<rscale>  2 0.75669525E+03</rscale>
<asrwt>0</asrwt>
<pdfrwt beam="1">  1       21 0.75537305E-01 0.75669525E+03</pdfrwt>
<pdfrwt beam="2">  1       21 0.25570287E+00 0.75669525E+03</pdfrwt>
<totfact> 0.65039746E+01</totfact>
</mgrwt>
</event>
<event>
 4    1  0.4760244E-002  0.4406466E+03  0.7818608E-02  0.1030549E+00
         21   -1    0    0  503  502  0.00000000000E+00  0.00000000000E+00  0.77722152957E+02  0.77722152957E+02  0.00000000000E+00 0.  1.
         21   -1    0    0  501  503 -0.00000000000E+00 -0.00000000000E+00 -0.26820893607E+04  0.26820893607E+04  0.00000000000E+00 0.  1.
    9000007    1    1    2  501    0 -0.11570780923E+03  0.14415653282E+03 -0.16634532983E+04  0.17208272077E+04  0.40000000000E+03 0.  1.
   -9000007    1    1    2    0  502  0.11570780923E+03 -0.14415653282E+03 -0.94091390940E+03  0.10389843059E+04  0.40000000000E+03 0.  1.
<mgrwt>
<rscale>  2 0.44064657E+03</rscale>
<asrwt>0</asrwt>
<pdfrwt beam="1">  1       21 0.11957254E-01 0.44064657E+03</pdfrwt>
<pdfrwt beam="2">  1       21 0.41262915E+00 0.44064657E+03</pdfrwt>
<totfact> 0.33155446E+02</totfact>
</mgrwt>
</event>
<event>
 4    1  0.4760244E-002  0.4522796E+03  0.7818608E-02  0.1027044E+00
         21   -1    0    0  501  502  0.00000000000E+00  0.00000000000E+00  0.95298791858E+03  0.95298791858E+03  0.00000000000E+00 0. -1.
         21   -1    0    0  502  503 -0.00000000000E+00 -0.00000000000E+00 -0.27616655956E+03  0.27616655956E+03  0.00000000000E+00 0. -1.
    9000007    1    1    2  501    0  0.65964983591E+02  0.20051296755E+03  0.62847509682E+03  0.77429824779E+03  0.40000000000E+03 0.  1.
   -9000007    1    1    2    0  503 -0.65964983591E+02 -0.20051296755E+03  0.48346262212E+02  0.45485623035E+03  0.40000000000E+03 0.  1.
<mgrwt>
<rscale>  2 0.45227959E+03</rscale>
<asrwt>0</asrwt>
<pdfrwt beam="1">  1       21 0.14661352E+00 0.45227959E+03</pdfrwt>
<pdfrwt beam="2">  1       21 0.42487164E-01 0.45227959E+03</pdfrwt>
<totfact> 0.14385488E+03</totfact>
</mgrwt>
</event>
<event>
 4    1  0.4760244E-002  0.4268033E+03  0.7818608E-02  0.1034875E+00
         21   -1    0    0  501  502  0.00000000000E+00  0.00000000000E+00  0.80074089930E+03  0.80074089930E+03  0.00000000000E+00 0. -1.
         21   -1    0    0  502  503 -0.00000000000E+00 -0.00000000000E+00 -0.28018566425E+03  0.28018566425E+03  0.00000000000E+00 0. -1.
    9000007    1    1    2  501    0  0.10530354920E+03  0.10522481394E+03  0.25893682759E+02  0.42758809823E+03  0.40000000000E+03 0. -1.
   -9000007    1    1    2    0  503 -0.10530354920E+03 -0.10522481394E+03  0.49466155229E+03  0.65333846532E+03  0.40000000000E+03 0. -1.
<mgrwt>
<rscale>  2 0.42680335E+03</rscale>
<asrwt>0</asrwt>
<pdfrwt beam="1">  1       21 0.12319091E+00 0.42680335E+03</pdfrwt>
<pdfrwt beam="2">  1       21 0.43105487E-01 0.42680335E+03</pdfrwt>
<totfact> 0.22264515E+03</totfact>
</mgrwt>
</event>
<event>
 4    1  0.4760244E-002  0.4325479E+03  0.7818608E-02  0.1033058E+00
         21   -1    0    0  501  502  0.00000000000E+00  0.00000000000E+00  0.34902289598E+03  0.34902289598E+03  0.00000000000E+00 0. -1.
         21   -1    0    0  502  503 -0.00000000000E+00 -0.00000000000E+00 -0.65517405610E+03  0.65517405610E+03  0.00000000000E+00 0. -1.
    9000007    1    1    2  501    0  0.16184716465E+03  0.30053516443E+02  0.61010991233E+02  0.43682955441E+03  0.40000000000E+03 0. -1.
   -9000007    1    1    2    0  503 -0.16184716465E+03 -0.30053516443E+02 -0.36716215135E+03  0.56736739767E+03  0.40000000000E+03 0. -1.
<mgrwt>
<rscale>  2 0.43254794E+03</rscale>
<asrwt>0</asrwt>
<pdfrwt beam="1">  1       21 0.53695831E-01 0.43254794E+03</pdfrwt>
<pdfrwt beam="2">  1       21 0.10079601E+00 0.43254794E+03</pdfrwt>
<totfact> 0.23010767E+03</totfact>
</mgrwt>
</event>
<event>
 4    1  0.4760244E-002  0.4016356E+03  0.7818608E-02  0.1043215E+00
         21   -1    0    0  503  502  0.00000000000E+00  0.00000000000E+00  0.19876079873E+03  0.19876079873E+03  0.00000000000E+00 0.  1.
         21   -1    0    0  501  503 -0.00000000000E+00 -0.00000000000E+00 -0.95593388633E+03  0.95593388633E+03  0.00000000000E+00 0.  1.
    9000007    1    1    2  501    0 -0.36057692484E+01 -0.36030196401E+02 -0.15423412023E+03  0.43023172880E+03  0.40000000000E+03 0.  1.
   -9000007    1    1    2    0  502  0.36057692484E+01  0.36030196401E+02 -0.60293896737E+03  0.72446295626E+03  0.40000000000E+03 0.  1.
<mgrwt>
<rscale>  2 0.40163563E+03</rscale>
<asrwt>0</asrwt>
<pdfrwt beam="1">  1       21 0.30578585E-01 0.40163563E+03</pdfrwt>
<pdfrwt beam="2">  1       21 0.14706675E+00 0.40163563E+03</pdfrwt>
<totfact> 0.28409049E+03</totfact>
</mgrwt>
</event>
<event>
 4    1  0.4760244E-002  0.4742066E+03  0.7818608E-02  0.1020740E+00
         21   -1    0    0  503  502  0.00000000000E+00  0.00000000000E+00  0.15992078705E+04  0.15992078705E+04  0.00000000000E+00 0.  1.
         21   -1    0    0  501  503 -0.00000000000E+00 -0.00000000000E+00 -0.15134942543E+03  0.15134942543E+03  0.00000000000E+00 0. -1.
    9000007    1    1    2  501    0  0.25438789463E+03 -0.12595903873E+02  0.49082243325E+03  0.68247968373E+03  0.40000000000E+03 0. -1.
   -9000007    1    1    2    0  502 -0.25438789463E+03  0.12595903873E+02  0.95703601178E+03  0.10680776121E+04  0.40000000000E+03 0.  1.
<mgrwt>
<rscale>  2 0.47420656E+03</rscale>
<asrwt>0</asrwt>
<pdfrwt beam="1">  1       21 0.24603197E+00 0.47420656E+03</pdfrwt>
<pdfrwt beam="2">  1       21 0.23284528E-01 0.47420656E+03</pdfrwt>
<totfact> 0.98912457E+02</totfact>
</mgrwt>
</event>
<event>
 4    1  0.4760244E-002  0.4471968E+03  0.7818608E-02  0.1028561E+00
         21   -1    0    0  503  502  0.00000000000E+00  0.00000000000E+00  0.32924424554E+03  0.32924424554E+03  0.00000000000E+00 0. -1.
         21   -1    0    0  501  503 -0.00000000000E+00 -0.00000000000E+00 -0.62934607165E+03  0.62934607165E+03  0.00000000000E+00 0.  1.
    9000007    1    1    2  501    0  0.89570942689E+02  0.17877936513E+03 -0.60560864034E+02  0.45127888652E+03  0.40000000000E+03 0.  1.
   -9000007    1    1    2    0  502 -0.89570942689E+02 -0.17877936513E+03 -0.23954096208E+03  0.50731143067E+03  0.40000000000E+03 0. -1.
<mgrwt>
<rscale>  2 0.44719684E+03</rscale>
<asrwt>0</asrwt>
<pdfrwt beam="1">  1       21 0.50652961E-01 0.44719684E+03</pdfrwt>
<pdfrwt beam="2">  1       21 0.96822472E-01 0.44719684E+03</pdfrwt>
<totfact> 0.28577671E+03</totfact>
</mgrwt>
</event>
<event>
 4    1  0.4760244E-002  0.4713365E+03  0.7818608E-02  0.1021544E+00
         21   -1    0    0  501  502  0.00000000000E+00  0.00000000000E+00  0.41967608526E+03  0.41967608526E+03  0.00000000000E+00 0.  1.
         21   -1    0    0  502  503 -0.00000000000E+00 -0.00000000000E+00 -0.58016393473E+03  0.58016393473E+03  0.00000000000E+00 0.  1.
    9000007    1    1    2  501    0  0.26522883096E+02  0.24790047953E+03  0.67697686350E+02  0.47617337999E+03  0.40000000000E+03 0.  1.
   -9000007    1    1    2    0  503 -0.26522883096E+02 -0.24790047953E+03 -0.22818553582E+03  0.52366663999E+03  0.40000000000E+03 0.  1.
<mgrwt>
<rscale>  2 0.47133652E+03</rscale>
<asrwt>0</asrwt>
<pdfrwt beam="1">  1       21 0.64565552E-01 0.47133652E+03</pdfrwt>
<pdfrwt beam="2">  1       21 0.89255990E-01 0.47133652E+03</pdfrwt>
<totfact> 0.20293044E+03</totfact>
</mgrwt>
</event>
<event>
 4    1  0.4760244E-002  0.4342402E+03  0.7818608E-02  0.1032529E+00
         21   -1    0    0  503  502  0.00000000000E+00  0.00000000000E+00  0.71051453692E+03  0.71051453692E+03  0.00000000000E+00 0. -1.
         21   -1    0    0  501  503 -0.00000000000E+00 -0.00000000000E+00 -0.53432714021E+03  0.53432714021E+03  0.00000000000E+00 0. -1.
    9000007    1    1    2  501    0  0.10857742225E+03 -0.12952025386E+03 -0.35348147562E+03  0.55992294683E+03  0.40000000000E+03 0. -1.
   -9000007    1    1    2    0  502 -0.10857742225E+03  0.12952025386E+03  0.52966887234E+03  0.68491873029E+03  0.40000000000E+03 0. -1.
<mgrwt>
<rscale>  2 0.43424020E+03</rscale>
<asrwt>0</asrwt>
<pdfrwt beam="1">  1       21 0.10930993E+00 0.43424020E+03</pdfrwt>
<pdfrwt beam="2">  1       21 0.82204176E-01 0.43424020E+03</pdfrwt>
<totfact> 0.72855377E+02</totfact>
</mgrwt>
</event>
<event>
 4    1  0.4760244E-002  0.4225964E+03  0.7818608E-02  0.1036225E+00
         21   -1    0    0  501  502  0.00000000000E+00  0.00000000000E+00  0.44731276453E+03  0.44731276453E+03  0.00000000000E+00 0. -1.
         21   -1    0    0  502  503 -0.00000000000E+00 -0.00000000000E+00 -0.40491184702E+03  0.40491184702E+03  0.00000000000E+00 0. -1.
    9000007    1    1    2  501    0  0.13062636258E+03 -0.39044039472E+02  0.71607240258E+02  0.42862020540E+03  0.40000000000E+03 0. -1.
   -9000007    1    1    2    0  503 -0.13062636258E+03  0.39044039472E+02 -0.29206322751E+02  0.42360440615E+03  0.40000000000E+03 0. -1.
<mgrwt>
<rscale>  2 0.42259636E+03</rscale>
<asrwt>0</asrwt>
<pdfrwt beam="1">  1       21 0.68817349E-01 0.42259636E+03</pdfrwt>
<pdfrwt beam="2">  1       21 0.62294130E-01 0.42259636E+03</pdfrwt>
<totfact> 0.40673927E+03</totfact>
</mgrwt>
</event>
<event>
 4    1  0.4760244E-002  0.4287821E+03  0.7818608E-02  0.1034245E+00
         21   -1    0    0  501  502  0.00000000000E+00  0.00000000000E+00  0.18952866861E+04  0.18952866861E+04  0.00000000000E+00 0.  1.
         21   -1    0    0  502  503 -0.00000000000E+00 -0.00000000000E+00 -0.11798083739E+03  0.11798083739E+03  0.00000000000E+00 0. -1.
    9000007    1    1    2  501    0 -0.70881530023E+02 -0.13722219367E+03  0.13130920157E+04  0.13813271747E+04  0.40000000000E+03 0.  1.
   -9000007    1    1    2    0  503  0.70881530023E+02  0.13722219367E+03  0.46421383302E+03  0.63194034885E+03  0.40000000000E+03 0. -1.
<mgrwt>
<rscale>  2 0.42878214E+03</rscale>
<asrwt>0</asrwt>
<pdfrwt beam="1">  1       21 0.29158254E+00 0.42878214E+03</pdfrwt>
<pdfrwt beam="2">  1       21 0.18150899E-01 0.42878214E+03</pdfrwt>
<totfact> 0.86187955E+02</totfact>
</mgrwt>
</event>
<event>
 4    1  0.4760244E-002  0.4706751E+03  0.7818608E-02  0.1021730E+00
         21   -1    0    0  503  502  0.00000000000E+00  0.00000000000E+00  0.62899813799E+03  0.62899813799E+03  0.00000000000E+00 0. -1.
         21   -1    0    0  501  503 -0.00000000000E+00 -0.00000000000E+00 -0.36844582662E+03  0.36844582662E+03  0.00000000000E+00 0. -1.
    9000007    1    1    2  501    0  0.23853691192E+03 -0.68082222957E+02  0.25562782613E+02  0.47136875510E+03  0.40000000000E+03 0. -1.
   -9000007    1    1    2    0  502 -0.23853691192E+03  0.68082222957E+02  0.23498952876E+03  0.52607520951E+03  0.40000000000E+03 0. -1.
<mgrwt>
<rscale>  2 0.47067510E+03</rscale>
<asrwt>0</asrwt>
<pdfrwt beam="1">  1       21 0.96768945E-01 0.47067510E+03</pdfrwt>
<pdfrwt beam="2">  1       21 0.56683973E-01 0.47067510E+03</pdfrwt>
<totfact> 0.22277207E+03</totfact>
</mgrwt>
</event>
<event>
 4    1  0.4760244E-002  0.4274299E+03  0.7818608E-02  0.1034675E+00
         21   -1    0    0  501  502  0.00000000000E+00  0.00000000000E+00  0.15957156909E+03  0.15957156909E+03  0.00000000000E+00 0.  1.
         21   -1    0    0  502  503 -0.00000000000E+00 -0.00000000000E+00 -0.11722370498E+04  0.11722370498E+04  0.00000000000E+00 0.  1.
    9000007    1    1    2  501    0  0.15064356878E+03 -0.16777306023E+01 -0.40467510724E+03  0.58860703531E+03  0.40000000000E+03 0.  1.
   -9000007    1    1    2    0  503 -0.15064356878E+03  0.16777306023E+01 -0.60799037343E+03  0.74320158354E+03  0.40000000000E+03 0.  1.
<mgrwt>
<rscale>  2 0.42742988E+03</rscale>
<asrwt>0</asrwt>
<pdfrwt beam="1">  1       21 0.24549472E-01 0.42742988E+03</pdfrwt>
<pdfrwt beam="2">  1       21 0.18034416E+00 0.42742988E+03</pdfrwt>
<totfact> 0.24441938E+03</totfact>
</mgrwt>
</event>
<event>
 4    1  0.4760244E-002  0.4142447E+03  0.7818608E-02  0.1038956E+00
         21   -1    0    0  501  502  0.00000000000E+00  0.00000000000E+00  0.32319023135E+03  0.32319023135E+03  0.00000000000E+00 0.  1.
         21   -1    0    0  502  503 -0.00000000000E+00 -0.00000000000E+00 -0.53134556335E+03  0.53134556335E+03  0.00000000000E+00 0.  1.
    9000007    1    1    2  501    0 -0.45278751592E+02 -0.97716430900E+02 -0.92456903389E+02  0.42443720996E+03  0.40000000000E+03 0.  1.
   -9000007    1    1    2    0  503  0.45278751592E+02  0.97716430900E+02 -0.11569842861E+03  0.43009858474E+03  0.40000000000E+03 0.  1.
<mgrwt>
<rscale>  2 0.41424469E+03</rscale>
<asrwt>0</asrwt>
<pdfrwt beam="1">  1       21 0.49721574E-01 0.41424469E+03</pdfrwt>
<pdfrwt beam="2">  1       21 0.81745472E-01 0.41424469E+03</pdfrwt>
<totfact> 0.44860430E+03</totfact>
</mgrwt>
</event>
<event>
 4    1  0.4760244E-002  0.4113139E+03  0.7818608E-02  0.1039931E+00
         21   -1    0    0  503  502  0.00000000000E+00  0.00000000000E+00  0.48503248338E+03  0.48503248338E+03  0.00000000000E+00 0.  1.
         21   -1    0    0  501  503 -0.00000000000E+00 -0.00000000000E+00 -0.34921897767E+03  0.34921897767E+03  0.00000000000E+00 0.  1.
    9000007    1    1    2  501    0 -0.39910482933E+02 -0.87099183152E+02  0.82362615907E+02  0.41947909942E+03  0.40000000000E+03 0.  1.
   -9000007    1    1    2    0  502  0.39910482933E+02  0.87099183152E+02  0.53450889800E+02  0.41477236163E+03  0.40000000000E+03 0.  1.
<mgrwt>
<rscale>  2 0.41131389E+03</rscale>
<asrwt>0</asrwt>
<pdfrwt beam="1">  1       21 0.74620382E-01 0.41131389E+03</pdfrwt>
<pdfrwt beam="2">  1       21 0.53725996E-01 0.41131389E+03</pdfrwt>
<totfact> 0.46926587E+03</totfact>
</mgrwt>
</event>
<event>
 4    1  0.4760244E-002  0.4204370E+03  0.7818608E-02  0.1036924E+00
         21   -1    0    0  501  502  0.00000000000E+00  0.00000000000E+00  0.37207609231E+03  0.37207609231E+03  0.00000000000E+00 0.  1.
         21   -1    0    0  502  503 -0.00000000000E+00 -0.00000000000E+00 -0.99060123320E+03  0.99060123320E+03  0.00000000000E+00 0.  1.
    9000007    1    1    2  501    0  0.23667480675E+02 -0.12730729359E+03  0.18225077095E+03  0.45823862796E+03  0.40000000000E+03 0.  1.
   -9000007    1    1    2    0  503 -0.23667480675E+02  0.12730729359E+03 -0.80077591184E+03  0.90443869755E+03  0.40000000000E+03 0.  1.
<mgrwt>
<rscale>  2 0.42043703E+03</rscale>
<asrwt>0</asrwt>
<pdfrwt beam="1">  1       21 0.57242476E-01 0.42043703E+03</pdfrwt>
<pdfrwt beam="2">  1       21 0.15240019E+00 0.42043703E+03</pdfrwt>
<totfact> 0.69782223E+02</totfact>
</mgrwt>
</event>
<event>
 4    1  0.4760244E-002  0.4886330E+03  0.7818608E-02  0.1016789E+00
         21   -1    0    0  501  502  0.00000000000E+00  0.00000000000E+00  0.71126400537E+03  0.71126400537E+03  0.00000000000E+00 0.  1.
         21   -1    0    0  502  503 -0.00000000000E+00 -0.00000000000E+00 -0.60229315278E+03  0.60229315278E+03  0.00000000000E+00 0. -1.
    9000007    1    1    2  501    0 -0.26965191354E+03  0.77782333983E+02  0.49145370501E+03  0.69302885231E+03  0.40000000000E+03 0.  1.
   -9000007    1    1    2    0  503  0.26965191354E+03 -0.77782333983E+02 -0.38248285242E+03  0.62052830584E+03  0.40000000000E+03 0. -1.
<mgrwt>
<rscale>  2 0.48863304E+03</rscale>
<asrwt>0</asrwt>
<pdfrwt beam="1">  1       21 0.10942523E+00 0.48863304E+03</pdfrwt>
<pdfrwt beam="2">  1       21 0.92660485E-01 0.48863304E+03</pdfrwt>
<totfact> 0.53544159E+02</totfact>
</mgrwt>
</event>
<event>
 4    1  0.4760244E-002  0.5549913E+03  0.7818608E-02  0.1000345E+00
         21   -1    0    0  501  502  0.00000000000E+00  0.00000000000E+00  0.20337712992E+03  0.20337712992E+03  0.00000000000E+00 0.  1.
         21   -1    0    0  502  503 -0.00000000000E+00 -0.00000000000E+00 -0.35719728457E+04  0.35719728457E+04  0.00000000000E+00 0. -1.
    9000007    1    1    2  501    0 -0.98358577039E+02  0.37194214076E+03 -0.25164873405E+03  0.60937874191E+03  0.40000000000E+03 0.  1.
   -9000007    1    1    2    0  503  0.98358577039E+02 -0.37194214076E+03 -0.31169469817E+04  0.31659712337E+04  0.40000000000E+03 0. -1.
<mgrwt>
<rscale>  2 0.55499132E+03</rscale>
<asrwt>0</asrwt>
<pdfrwt beam="1">  1       21 0.31288792E-01 0.55499132E+03</pdfrwt>
<pdfrwt beam="2">  1       21 0.54953424E+00 0.55499132E+03</pdfrwt>
<totfact> 0.54069365E+00</totfact>
</mgrwt>
</event>
<event>
 4    1  0.4760244E-002  0.4078053E+03  0.7818608E-02  0.1041110E+00
         21   -1    0    0  501  502  0.00000000000E+00  0.00000000000E+00  0.15583802343E+03  0.15583802343E+03  0.00000000000E+00 0.  1.
         21   -1    0    0  502  503 -0.00000000000E+00 -0.00000000000E+00 -0.10754517052E+04  0.10754517052E+04  0.00000000000E+00 0.  1.
    9000007    1    1    2  501    0  0.61883936105E+02  0.49754655894E+02 -0.40577105000E+03  0.57528713905E+03  0.40000000000E+03 0. -1.
   -9000007    1    1    2    0  503 -0.61883936105E+02 -0.49754655894E+02 -0.51384263181E+03  0.65600258963E+03  0.40000000000E+03 0. -1.
<mgrwt>
<rscale>  2 0.40780528E+03</rscale>
<asrwt>0</asrwt>
<pdfrwt beam="1">  1       21 0.23975082E-01 0.40780528E+03</pdfrwt>
<pdfrwt beam="2">  1       21 0.16545410E+00 0.40780528E+03</pdfrwt>
<totfact> 0.33017500E+03</totfact>
</mgrwt>
</event>
<event>
 4    1  0.4760244E-002  0.4523037E+03  0.7818608E-02  0.1027037E+00
         21   -1    0    0  503  502  0.00000000000E+00  0.00000000000E+00  0.69024057313E+03  0.69024057313E+03  0.00000000000E+00 0. -1.
         21   -1    0    0  501  503 -0.00000000000E+00 -0.00000000000E+00 -0.53298843381E+03  0.53298843381E+03  0.00000000000E+00 0. -1.
    9000007    1    1    2  501    0 -0.20929620670E+03  0.27816367419E+02  0.48612562965E+03  0.66400058753E+03  0.40000000000E+03 0. -1.
   -9000007    1    1    2    0  502  0.20929620670E+03 -0.27816367419E+02 -0.32887349033E+03  0.55922841941E+03  0.40000000000E+03 0. -1.
<mgrwt>
<rscale>  2 0.45230372E+03</rscale>
<asrwt>0</asrwt>
<pdfrwt beam="1">  1       21 0.10619086E+00 0.45230372E+03</pdfrwt>
<pdfrwt beam="2">  1       21 0.81998221E-01 0.45230372E+03</pdfrwt>
<totfact> 0.78098933E+02</totfact>
</mgrwt>
</event>
<event>
 4    1  0.4760244E-002  0.5406906E+03  0.7818608E-02  0.1003672E+00
         21   -1    0    0  501  502  0.00000000000E+00  0.00000000000E+00  0.34372920414E+03  0.34372920414E+03  0.00000000000E+00 0. -1.
         21   -1    0    0  502  503 -0.00000000000E+00 -0.00000000000E+00 -0.12675418217E+04  0.12675418217E+04  0.00000000000E+00 0.  1.
    9000007    1    1    2  501    0  0.34431779092E+03  0.11743771151E+03 -0.92401079497E+03  0.10705803596E+04  0.40000000000E+03 0. -1.
   -9000007    1    1    2    0  503 -0.34431779092E+03 -0.11743771151E+03  0.19817741989E+00  0.54069066619E+03  0.40000000000E+03 0. -1.
<mgrwt>
<rscale>  2 0.54069063E+03</rscale>
<asrwt>0</asrwt>
<pdfrwt beam="1">  1       21 0.52881416E-01 0.54069063E+03</pdfrwt>
<pdfrwt beam="2">  1       21 0.19500643E+00 0.54069063E+03</pdfrwt>
<totfact> 0.38616703E+02</totfact>
</mgrwt>
</event>
<event>
 4    1  0.4760244E-002  0.5167368E+03  0.7818608E-02  0.1009500E+00
         21   -1    0    0  501  502  0.00000000000E+00  0.00000000000E+00  0.74556071844E+03  0.74556071844E+03  0.00000000000E+00 0.  1.
         21   -1    0    0  502  503 -0.00000000000E+00 -0.00000000000E+00 -0.37641061907E+03  0.37641061907E+03  0.00000000000E+00 0.  1.
    9000007    1    1    2  501    0  0.11031383105E+03  0.30797364896E+03  0.60989167160E+02  0.52032354193E+03  0.40000000000E+03 0.  1.
   -9000007    1    1    2    0  503 -0.11031383105E+03 -0.30797364896E+03  0.30816093221E+03  0.60164779557E+03  0.40000000000E+03 0.  1.
<mgrwt>
<rscale>  2 0.51673679E+03</rscale>
<asrwt>0</asrwt>
<pdfrwt beam="1">  1       21 0.11470165E+00 0.51673679E+03</pdfrwt>
<pdfrwt beam="2">  1       21 0.57909326E-01 0.51673679E+03</pdfrwt>
<totfact> 0.13760252E+03</totfact>
</mgrwt>
</event>
<event>
 4    1  0.4760244E-002  0.4388149E+03  0.7818608E-02  0.1031111E+00
         21   -1    0    0  501  502  0.00000000000E+00  0.00000000000E+00  0.58822942118E+03  0.58822942118E+03  0.00000000000E+00 0.  1.
         21   -1    0    0  502  503 -0.00000000000E+00 -0.00000000000E+00 -0.90535448479E+03  0.90535448479E+03  0.00000000000E+00 0.  1.
    9000007    1    1    2  501    0 -0.16886036651E+03 -0.63598080911E+02  0.43813584815E+03  0.62009802508E+03  0.40000000000E+03 0.  1.
   -9000007    1    1    2    0  503  0.16886036651E+03  0.63598080911E+02 -0.75526091176E+03  0.87348588089E+03  0.40000000000E+03 0.  1.
<mgrwt>
<rscale>  2 0.43881493E+03</rscale>
<asrwt>0</asrwt>
<pdfrwt beam="1">  1       21 0.90496834E-01 0.43881493E+03</pdfrwt>
<pdfrwt beam="2">  1       21 0.13928530E+00 0.43881493E+03</pdfrwt>
<totfact> 0.31226976E+02</totfact>
</mgrwt>
</event>
<event>
 4    1  0.4760244E-002  0.6134787E+03  0.7818608E-02  0.9877830E-01
         21   -1    0    0  501  502  0.00000000000E+00  0.00000000000E+00  0.36058485068E+03  0.36058485068E+03  0.00000000000E+00 0.  1.
         21   -1    0    0  502  503 -0.00000000000E+00 -0.00000000000E+00 -0.11153437461E+04  0.11153437461E+04  0.00000000000E+00 0.  1.
    9000007    1    1    2  501    0 -0.25348214487E+03  0.39000377236E+03 -0.19039534960E+03  0.64234455658E+03  0.40000000000E+03 0.  1.
   -9000007    1    1    2    0  503  0.25348214487E+03 -0.39000377236E+03 -0.56436354581E+03  0.83358404020E+03  0.40000000000E+03 0.  1.
<mgrwt>
<rscale>  2 0.61347872E+03</rscale>
<asrwt>0</asrwt>
<pdfrwt beam="1">  1       21 0.55474593E-01 0.61347872E+03</pdfrwt>
<pdfrwt beam="2">  1       21 0.17159134E+00 0.61347872E+03</pdfrwt>
<totfact> 0.49549148E+02</totfact>
</mgrwt>
</event>
<event>
 4    1  0.4760244E-002  0.4705814E+03  0.7818608E-02  0.1021756E+00
         21   -1    0    0  503  502  0.00000000000E+00  0.00000000000E+00  0.26683189955E+03  0.26683189955E+03  0.00000000000E+00 0.  1.
         21   -1    0    0  501  503 -0.00000000000E+00 -0.00000000000E+00 -0.89516378293E+03  0.89516378293E+03  0.00000000000E+00 0.  1.
    9000007    1    1    2  501    0 -0.93839137996E+02 -0.22943645425E+03 -0.47102912291E+03  0.66581927352E+03  0.40000000000E+03 0.  1.
   -9000007    1    1    2    0  502  0.93839137996E+02  0.22943645425E+03 -0.15730276047E+03  0.49617640896E+03  0.40000000000E+03 0.  1.
<mgrwt>
<rscale>  2 0.47058142E+03</rscale>
<asrwt>0</asrwt>
<pdfrwt beam="1">  1       21 0.41051061E-01 0.47058142E+03</pdfrwt>
<pdfrwt beam="2">  1       21 0.13771751E+00 0.47058142E+03</pdfrwt>
<totfact> 0.18134520E+03</totfact>
</mgrwt>
</event>
<event>
 4    1  0.4760244E-002  0.4466104E+03  0.7818608E-02  0.1028738E+00
         21   -1    0    0  501  502  0.00000000000E+00  0.00000000000E+00  0.88785637627E+03  0.88785637627E+03  0.00000000000E+00 0. -1.
         21   -1    0    0  502  503 -0.00000000000E+00 -0.00000000000E+00 -0.23018477036E+03  0.23018477036E+03  0.00000000000E+00 0. -1.
    9000007    1    1    2  501    0 -0.19408637606E+03 -0.42324456953E+02  0.41548506297E+03  0.60999075286E+03  0.40000000000E+03 0. -1.
   -9000007    1    1    2    0  503  0.19408637606E+03  0.42324456953E+02  0.24218654294E+03  0.50805039377E+03  0.40000000000E+03 0. -1.
<mgrwt>
<rscale>  2 0.44661044E+03</rscale>
<asrwt>0</asrwt>
<pdfrwt beam="1">  1       21 0.13659329E+00 0.44661044E+03</pdfrwt>
<pdfrwt beam="2">  1       21 0.35413042E-01 0.44661044E+03</pdfrwt>
<totfact> 0.25307283E+03</totfact>
</mgrwt>
</event>
<event>
 4    1  0.4760244E-002  0.5277249E+03  0.7818608E-02  0.1006785E+00
         21   -1    0    0  503  502  0.00000000000E+00  0.00000000000E+00  0.10745174454E+04  0.10745174454E+04  0.00000000000E+00 0. -1.
         21   -1    0    0  501  503 -0.00000000000E+00 -0.00000000000E+00 -0.34069922943E+03  0.34069922943E+03  0.00000000000E+00 0.  1.
    9000007    1    1    2  501    0 -0.34418378541E+03  0.55793449254E+01  0.20780924672E+02  0.52813393572E+03  0.40000000000E+03 0.  1.
   -9000007    1    1    2    0  502  0.34418378541E+03 -0.55793449254E+01  0.71303729130E+03  0.88708273910E+03  0.40000000000E+03 0. -1.
<mgrwt>
<rscale>  2 0.52772494E+03</rscale>
<asrwt>0</asrwt>
<pdfrwt beam="1">  1       21 0.16531037E+00 0.52772494E+03</pdfrwt>
<pdfrwt beam="2">  1       21 0.52415267E-01 0.52772494E+03</pdfrwt>
<totfact> 0.64288012E+02</totfact>
</mgrwt>
</event>
<event>
 4    1  0.4760244E-002  0.5154162E+03  0.7818608E-02  0.1009832E+00
         21   -1    0    0  501  502  0.00000000000E+00  0.00000000000E+00  0.42938863947E+03  0.42938863947E+03  0.00000000000E+00 0.  1.
         21   -1    0    0  502  503 -0.00000000000E+00 -0.00000000000E+00 -0.61891377262E+03  0.61891377262E+03  0.00000000000E+00 0. -1.
    9000007    1    1    2  501    0  0.29777194475E+03  0.13032941526E+03 -0.84561763274E+02  0.52230697810E+03  0.40000000000E+03 0. -1.
   -9000007    1    1    2    0  503 -0.29777194475E+03 -0.13032941526E+03 -0.10496336987E+03  0.52599543399E+03  0.40000000000E+03 0. -1.
<mgrwt>
<rscale>  2 0.51541623E+03</rscale>
<asrwt>0</asrwt>
<pdfrwt beam="1">  1       21 0.66059790E-01 0.51541623E+03</pdfrwt>
<pdfrwt beam="2">  1       21 0.95217504E-01 0.51541623E+03</pdfrwt>
<totfact> 0.16277156E+03</totfact>
</mgrwt>
</event>
<event>
 4    1  0.4760244E-002  0.4143773E+03  0.7818608E-02  0.1038912E+00
         21   -1    0    0  503  502  0.00000000000E+00  0.00000000000E+00  0.20930043390E+04  0.20930043390E+04  0.00000000000E+00 0.  1.
         21   -1    0    0  501  503 -0.00000000000E+00 -0.00000000000E+00 -0.21589791286E+03  0.21589791286E+03  0.00000000000E+00 0.  1.
    9000007    1    1    2  501    0 -0.74918390724E+02 -0.78075255965E+02  0.29530850474E+02  0.41542819114E+03  0.40000000000E+03 0.  1.
   -9000007    1    1    2    0  502  0.74918390724E+02  0.78075255965E+02  0.18475755756E+04  0.18934740607E+04  0.40000000000E+03 0.  1.
<mgrwt>
<rscale>  2 0.41437726E+03</rscale>
<asrwt>0</asrwt>
<pdfrwt beam="1">  1       21 0.32200065E+00 0.41437726E+03</pdfrwt>
<pdfrwt beam="2">  1       21 0.33215065E-01 0.41437726E+03</pdfrwt>
<totfact> 0.17663863E+02</totfact>
</mgrwt>
</event>
<event>
 4    1  0.4760244E-002  0.4139176E+03  0.7818608E-02  0.1039064E+00
         21   -1    0    0  501  502  0.00000000000E+00  0.00000000000E+00  0.27343764594E+03  0.27343764594E+03  0.00000000000E+00 0.  1.
         21   -1    0    0  502  503 -0.00000000000E+00 -0.00000000000E+00 -0.64038769351E+03  0.64038769351E+03  0.00000000000E+00 0.  1.
    9000007    1    1    2  501    0 -0.36849847953E+01 -0.10636806204E+03 -0.25059228204E+03  0.48386386056E+03  0.40000000000E+03 0.  1.
   -9000007    1    1    2    0  503  0.36849847953E+01  0.10636806204E+03 -0.11635776553E+03  0.42996147890E+03  0.40000000000E+03 0.  1.
<mgrwt>
<rscale>  2 0.41391756E+03</rscale>
<asrwt>0</asrwt>
<pdfrwt beam="1">  1       21 0.42067331E-01 0.41391756E+03</pdfrwt>
<pdfrwt beam="2">  1       21 0.98521181E-01 0.41391756E+03</pdfrwt>
<totfact> 0.40978806E+03</totfact>
</mgrwt>
</event>
<event>
 4    1  0.4760244E-002  0.5447655E+03  0.7818608E-02  0.1002713E+00
         21   -1    0    0  503  502  0.00000000000E+00  0.00000000000E+00  0.54542783870E+03  0.54542783870E+03  0.00000000000E+00 0.  1.
         21   -1    0    0  501  503 -0.00000000000E+00 -0.00000000000E+00 -0.54639435766E+03  0.54639435766E+03  0.00000000000E+00 0.  1.
    9000007    1    1    2  501    0 -0.15351173707E+03  0.33645739031E+03 -0.35828211669E+02  0.54594238676E+03  0.40000000000E+03 0.  1.
   -9000007    1    1    2    0  502  0.15351173707E+03 -0.33645739031E+03  0.34861692713E+02  0.54587980960E+03  0.40000000000E+03 0.  1.
<mgrwt>
<rscale>  2 0.54476548E+03</rscale>
<asrwt>0</asrwt>
<pdfrwt beam="1">  1       21 0.83911975E-01 0.54476548E+03</pdfrwt>
<pdfrwt beam="2">  1       21 0.84060670E-01 0.54476548E+03</pdfrwt>
<totfact> 0.12540423E+03</totfact>
</mgrwt>
</event>
<event>
 4    1  0.4760244E-002  0.4248449E+03  0.7818608E-02  0.1035501E+00
         21   -1    0    0  501  502  0.00000000000E+00  0.00000000000E+00  0.48325644520E+03  0.48325644520E+03  0.00000000000E+00 0.  1.
         21   -1    0    0  502  503 -0.00000000000E+00 -0.00000000000E+00 -0.37349432281E+03  0.37349432281E+03  0.00000000000E+00 0.  1.
    9000007    1    1    2  501    0 -0.13635769799E+02 -0.14250342528E+03  0.54260882201E+02  0.42829593014E+03  0.40000000000E+03 0.  1.
   -9000007    1    1    2    0  503  0.13635769799E+02  0.14250342528E+03  0.55501240193E+02  0.42845483787E+03  0.40000000000E+03 0.  1.
<mgrwt>
<rscale>  2 0.42484487E+03</rscale>
<asrwt>0</asrwt>
<pdfrwt beam="1">  1       21 0.74347145E-01 0.42484487E+03</pdfrwt>
<pdfrwt beam="2">  1       21 0.57460665E-01 0.42484487E+03</pdfrwt>
<totfact> 0.40730814E+03</totfact>
</mgrwt>
</event>
<event>
 4    1  0.4760244E-002  0.4515650E+03  0.7818608E-02  0.1027256E+00
         21   -1    0    0  501  502  0.00000000000E+00  0.00000000000E+00  0.94697413480E+03  0.94697413480E+03  0.00000000000E+00 0. -1.
         21   -1    0    0  502  503 -0.00000000000E+00 -0.00000000000E+00 -0.56824776866E+03  0.56824776866E+03  0.00000000000E+00 0. -1.
    9000007    1    1    2  501    0 -0.19452000915E+03  0.77928867103E+02  0.78641879587E+03  0.90684368266E+03  0.40000000000E+03 0. -1.
   -9000007    1    1    2    0  503  0.19452000915E+03 -0.77928867103E+02 -0.40769242972E+03  0.60837822080E+03  0.40000000000E+03 0. -1.
<mgrwt>
<rscale>  2 0.45156499E+03</rscale>
<asrwt>0</asrwt>
<pdfrwt beam="1">  1       21 0.14568833E+00 0.45156499E+03</pdfrwt>
<pdfrwt beam="2">  1       21 0.87422734E-01 0.45156499E+03</pdfrwt>
<totfact> 0.29857201E+02</totfact>
</mgrwt>
</event>
<event>
 4    1  0.4760244E-002  0.4978535E+03  0.7818608E-02  0.1014341E+00
         21   -1    0    0  503  502  0.00000000000E+00  0.00000000000E+00  0.13825452024E+04  0.13825452024E+04  0.00000000000E+00 0. -1.
         21   -1    0    0  501  503 -0.00000000000E+00 -0.00000000000E+00 -0.29017279637E+03  0.29017279637E+03  0.00000000000E+00 0. -1.
    9000007    1    1    2  501    0 -0.17918029288E+03  0.23611974943E+03  0.29148092211E+02  0.49870605040E+03  0.40000000000E+03 0. -1.
   -9000007    1    1    2    0  502  0.17918029288E+03 -0.23611974943E+03  0.10632243138E+04  0.11740119484E+04  0.40000000000E+03 0. -1.
<mgrwt>
<rscale>  2 0.49785351E+03</rscale>
<asrwt>0</asrwt>
<pdfrwt beam="1">  1       21 0.21269926E+00 0.49785351E+03</pdfrwt>
<pdfrwt beam="2">  1       21 0.44641970E-01 0.49785351E+03</pdfrwt>
<totfact> 0.42989004E+02</totfact>
</mgrwt>
</event>
<event>
 4    1  0.4760244E-002  0.4474288E+03  0.7818608E-02  0.1028492E+00
         21   -1    0    0  503  502  0.00000000000E+00  0.00000000000E+00  0.41772590259E+03  0.41772590259E+03  0.00000000000E+00 0. -1.
         21   -1    0    0  501  503 -0.00000000000E+00 -0.00000000000E+00 -0.11047949761E+04  0.11047949761E+04  0.00000000000E+00 0.  1.
    9000007    1    1    2  501    0  0.16925532988E+03  0.10744837857E+03 -0.91636204018E+03  0.10197607119E+04  0.40000000000E+03 0.  1.
   -9000007    1    1    2    0  502 -0.16925532988E+03 -0.10744837857E+03  0.22929296670E+03  0.50276016681E+03  0.40000000000E+03 0. -1.
<mgrwt>
<rscale>  2 0.44742879E+03</rscale>
<asrwt>0</asrwt>
<pdfrwt beam="1">  1       21 0.64265526E-01 0.44742879E+03</pdfrwt>
<pdfrwt beam="2">  1       21 0.16996845E+00 0.44742879E+03</pdfrwt>
<totfact> 0.39423399E+02</totfact>
</mgrwt>
</event>
<event>
 4    1  0.4760244E-002  0.5912435E+03  0.7818608E-02  0.9923741E-01
         21   -1    0    0  501  502  0.00000000000E+00  0.00000000000E+00  0.15382325285E+04  0.15382325285E+04  0.00000000000E+00 0.  1.
         21   -1    0    0  502  503 -0.00000000000E+00 -0.00000000000E+00 -0.24759879789E+03  0.24759879789E+03  0.00000000000E+00 0.  1.
    9000007    1    1    2  501    0 -0.32806432728E+03 -0.28625626873E+03  0.38935968832E+03  0.70793348636E+03  0.40000000000E+03 0.  1.
   -9000007    1    1    2    0  503  0.32806432728E+03  0.28625626873E+03  0.90127404229E+03  0.10778978400E+04  0.40000000000E+03 0.  1.
<mgrwt>
<rscale>  2 0.59124348E+03</rscale>
<asrwt>0</asrwt>
<pdfrwt beam="1">  1       21 0.23665115E+00 0.59124348E+03</pdfrwt>
<pdfrwt beam="2">  1       21 0.38092124E-01 0.59124348E+03</pdfrwt>
<totfact> 0.40368500E+02</totfact>
</mgrwt>
</event>
<event>
 4    1  0.4760244E-002  0.4551425E+03  0.7818608E-02  0.1026200E+00
         21   -1    0    0  503  502  0.00000000000E+00  0.00000000000E+00  0.86349697595E+03  0.86349697595E+03  0.00000000000E+00 0.  1.
         21   -1    0    0  501  503 -0.00000000000E+00 -0.00000000000E+00 -0.26693302709E+03  0.26693302709E+03  0.00000000000E+00 0.  1.
    9000007    1    1    2  501    0 -0.18614402115E+03 -0.11182628625E+03  0.11841840471E+03  0.47029526202E+03  0.40000000000E+03 0. -1.
   -9000007    1    1    2    0  502  0.18614402115E+03  0.11182628625E+03  0.47814554415E+03  0.66013474101E+03  0.40000000000E+03 0. -1.
<mgrwt>
<rscale>  2 0.45514252E+03</rscale>
<asrwt>0</asrwt>
<pdfrwt beam="1">  1       21 0.13284569E+00 0.45514252E+03</pdfrwt>
<pdfrwt beam="2">  1       21 0.41066620E-01 0.45514252E+03</pdfrwt>
<totfact> 0.20034804E+03</totfact>
</mgrwt>
</event>
<event>
 4    1  0.4760244E-002  0.4795197E+03  0.7818608E-02  0.1019267E+00
         21   -1    0    0  501  502  0.00000000000E+00  0.00000000000E+00  0.10282991091E+04  0.10282991091E+04  0.00000000000E+00 0. -1.
         21   -1    0    0  502  503 -0.00000000000E+00 -0.00000000000E+00 -0.35396293324E+03  0.35396293324E+03  0.00000000000E+00 0. -1.
    9000007    1    1    2  501    0  0.27838031686E+02 -0.26299080312E+03  0.75657929133E+03  0.89574066705E+03  0.40000000000E+03 0. -1.
   -9000007    1    1    2    0  503 -0.27838031686E+02  0.26299080312E+03 -0.82243115513E+02  0.48652137526E+03  0.40000000000E+03 0. -1.
<mgrwt>
<rscale>  2 0.47951967E+03</rscale>
<asrwt>0</asrwt>
<pdfrwt beam="1">  1       21 0.15819986E+00 0.47951967E+03</pdfrwt>
<pdfrwt beam="2">  1       21 0.54455836E-01 0.47951967E+03</pdfrwt>
<totfact> 0.68302289E+02</totfact>
</mgrwt>
</event>
<event>
 4    1  0.4760244E-002  0.4119653E+03  0.7818608E-02  0.1039714E+00
         21   -1    0    0  501  502  0.00000000000E+00  0.00000000000E+00  0.29472201985E+03  0.29472201985E+03  0.00000000000E+00 0. -1.
         21   -1    0    0  502  503 -0.00000000000E+00 -0.00000000000E+00 -0.77486793858E+03  0.77486793858E+03  0.00000000000E+00 0. -1.
    9000007    1    1    2  501    0 -0.13841246819E+02  0.97590087490E+02  0.30959050880E+02  0.41312693948E+03  0.40000000000E+03 0. -1.
   -9000007    1    1    2    0  503  0.13841246819E+02 -0.97590087490E+02 -0.51110496961E+03  0.65646301895E+03  0.40000000000E+03 0. -1.
<mgrwt>
<rscale>  2 0.41196530E+03</rscale>
<asrwt>0</asrwt>
<pdfrwt beam="1">  1       21 0.45341849E-01 0.41196530E+03</pdfrwt>
<pdfrwt beam="2">  1       21 0.11921045E+00 0.41196530E+03</pdfrwt>
<totfact> 0.21914882E+03</totfact>
</mgrwt>
</event>
<event>
 4    1  0.4760244E-002  0.6934909E+03  0.7818608E-02  0.9728429E-01
         21   -1    0    0  501  502  0.00000000000E+00  0.00000000000E+00  0.10210713569E+04  0.10210713569E+04  0.00000000000E+00 0. -1.
         21   -1    0    0  502  503 -0.00000000000E+00 -0.00000000000E+00 -0.61227490082E+03  0.61227490082E+03  0.00000000000E+00 0.  1.
    9000007    1    1    2  501    0 -0.51502915730E+03 -0.23595450569E+03  0.59668177012E+03  0.91485446734E+03  0.40000000000E+03 0. -1.
   -9000007    1    1    2    0  503  0.51502915730E+03  0.23595450569E+03 -0.18788531404E+03  0.71849179039E+03  0.40000000000E+03 0.  1.
<mgrwt>
<rscale>  2 0.69349085E+03</rscale>
<asrwt>0</asrwt>
<pdfrwt beam="1">  1       21 0.15708790E+00 0.69349085E+03</pdfrwt>
<pdfrwt beam="2">  1       21 0.94196139E-01 0.69349085E+03</pdfrwt>
<totfact> 0.18471133E+02</totfact>
</mgrwt>
</event>
<event>
 4    1  0.4760244E-002  0.4819187E+03  0.7818608E-02  0.1018609E+00
         21   -1    0    0  501  502  0.00000000000E+00  0.00000000000E+00  0.11351340919E+04  0.11351340919E+04  0.00000000000E+00 0. -1.
         21   -1    0    0  502  503 -0.00000000000E+00 -0.00000000000E+00 -0.21093742609E+03  0.21093742609E+03  0.00000000000E+00 0. -1.
    9000007    1    1    2  501    0  0.65784228799E+02  0.26061097305E+03  0.57877983396E+03  0.75314788736E+03  0.40000000000E+03 0. -1.
   -9000007    1    1    2    0  503 -0.65784228799E+02 -0.26061097305E+03  0.34541683184E+03  0.59292363063E+03  0.40000000000E+03 0. -1.
<mgrwt>
<rscale>  2 0.48191871E+03</rscale>
<asrwt>0</asrwt>
<pdfrwt beam="1">  1       21 0.17463601E+00 0.48191871E+03</pdfrwt>
<pdfrwt beam="2">  1       21 0.32451912E-01 0.48191871E+03</pdfrwt>
<totfact> 0.15130117E+03</totfact>
</mgrwt>
</event>
<event>
 4    1  0.4760244E-002  0.5089692E+03  0.7818608E-02  0.1011464E+00
         21   -1    0    0  501  502  0.00000000000E+00  0.00000000000E+00  0.55952977415E+03  0.55952977415E+03  0.00000000000E+00 0. -1.
         21   -1    0    0  502  503 -0.00000000000E+00 -0.00000000000E+00 -0.52933022328E+03  0.52933022328E+03  0.00000000000E+00 0.  1.
    9000007    1    1    2  501    0  0.77083197738E+02 -0.30513580268E+03  0.20785590000E+03  0.54977609317E+03  0.40000000000E+03 0. -1.
   -9000007    1    1    2    0  503 -0.77083197738E+02  0.30513580268E+03 -0.17765634913E+03  0.53908390426E+03  0.40000000000E+03 0.  1.
<mgrwt>
<rscale>  2 0.50896923E+03</rscale>
<asrwt>0</asrwt>
<pdfrwt beam="1">  1       21 0.86081503E-01 0.50896923E+03</pdfrwt>
<pdfrwt beam="2">  1       21 0.81435419E-01 0.50896923E+03</pdfrwt>
<totfact> 0.12872163E+03</totfact>
</mgrwt>
</event>
<event>
 4    1  0.4760244E-002  0.4769192E+03  0.7818608E-02  0.1019985E+00
         21   -1    0    0  503  502  0.00000000000E+00  0.00000000000E+00  0.12304658932E+04  0.12304658932E+04  0.00000000000E+00 0. -1.
         21   -1    0    0  501  503 -0.00000000000E+00 -0.00000000000E+00 -0.19387476945E+03  0.19387476945E+03  0.00000000000E+00 0. -1.
    9000007    1    1    2  501    0 -0.12026737235E+03 -0.23019059126E+03  0.36464475034E+03  0.60034801833E+03  0.40000000000E+03 0. -1.
   -9000007    1    1    2    0  502  0.12026737235E+03  0.23019059126E+03  0.67194637340E+03  0.82399264432E+03  0.40000000000E+03 0. -1.
<mgrwt>
<rscale>  2 0.47691923E+03</rscale>
<asrwt>0</asrwt>
<pdfrwt beam="1">  1       21 0.18930244E+00 0.47691923E+03</pdfrwt>
<pdfrwt beam="2">  1       21 0.29826888E-01 0.47691923E+03</pdfrwt>
<totfact> 0.14153626E+03</totfact>
</mgrwt>
</event>
<event>
 4    1  0.4760244E-002  0.4700272E+03  0.7818608E-02  0.1021913E+00
         21   -1    0    0  501  502  0.00000000000E+00  0.00000000000E+00  0.35426704579E+03  0.35426704579E+03  0.00000000000E+00 0.  1.
         21   -1    0    0  502  503 -0.00000000000E+00 -0.00000000000E+00 -0.75733367941E+03  0.75733367941E+03  0.00000000000E+00 0. -1.
    9000007    1    1    2  501    0  0.10957024376E+03  0.22117856522E+03  0.32013632599E+02  0.47111619448E+03  0.40000000000E+03 0.  1.
   -9000007    1    1    2    0  503 -0.10957024376E+03 -0.22117856522E+03 -0.43508026623E+03  0.64048453072E+03  0.40000000000E+03 0. -1.
<mgrwt>
<rscale>  2 0.47002723E+03</rscale>
<asrwt>0</asrwt>
<pdfrwt beam="1">  1       21 0.54502623E-01 0.47002723E+03</pdfrwt>
<pdfrwt beam="2">  1       21 0.11651287E+00 0.47002723E+03</pdfrwt>
<totfact> 0.15346849E+03</totfact>
</mgrwt>
</event>
<event>
 4    1  0.4760244E-002  0.4048873E+03  0.7818608E-02  0.1042100E+00
         21   -1    0    0  503  502  0.00000000000E+00  0.00000000000E+00  0.13272111550E+03  0.13272111550E+03  0.00000000000E+00 0. -1.
         21   -1    0    0  501  503 -0.00000000000E+00 -0.00000000000E+00 -0.18452846932E+04  0.18452846932E+04  0.00000000000E+00 0. -1.
    9000007    1    1    2  501    0  0.41385560538E+02  0.47126840964E+02 -0.14249646087E+04  0.14813702575E+04  0.40000000000E+03 0. -1.
   -9000007    1    1    2    0  502 -0.41385560538E+02 -0.47126840964E+02 -0.28759896904E+03  0.49663555124E+03  0.40000000000E+03 0. -1.
<mgrwt>
<rscale>  2 0.40488727E+03</rscale>
<asrwt>0</asrwt>
<pdfrwt beam="1">  1       21 0.20418633E-01 0.40488727E+03</pdfrwt>
<pdfrwt beam="2">  1       21 0.28388995E+00 0.40488727E+03</pdfrwt>
<totfact> 0.77765631E+02</totfact>
</mgrwt>
</event>
<event>
 4    1  0.4760244E-002  0.4274170E+03  0.7818608E-02  0.1034679E+00
         21   -1    0    0  503  502  0.00000000000E+00  0.00000000000E+00  0.65417848239E+02  0.65417848239E+02  0.00000000000E+00 0.  1.
         21   -1    0    0  501  503 -0.00000000000E+00 -0.00000000000E+00 -0.28473518206E+04  0.28473518206E+04  0.00000000000E+00 0.  1.
    9000007    1    1    2  501    0 -0.12204509139E+03  0.88262539508E+02 -0.11889948749E+04  0.12634849001E+04  0.40000000000E+03 0.  1.
   -9000007    1    1    2    0  502  0.12204509139E+03 -0.88262539508E+02 -0.15929390974E+04  0.16492847687E+04  0.40000000000E+03 0.  1.
<mgrwt>
<rscale>  2 0.42741699E+03</rscale>
<asrwt>0</asrwt>
<pdfrwt beam="1">  1       21 0.10064284E-01 0.42741699E+03</pdfrwt>
<pdfrwt beam="2">  1       21 0.43805413E+00 0.42741699E+03</pdfrwt>
<totfact> 0.31079849E+02</totfact>
</mgrwt>
</event>
<event>
 4    1  0.4760244E-002  0.4448155E+03  0.7818608E-02  0.1029279E+00
         21   -1    0    0  501  502  0.00000000000E+00  0.00000000000E+00  0.82460711560E+03  0.82460711560E+03  0.00000000000E+00 0. -1.
         21   -1    0    0  502  503 -0.00000000000E+00 -0.00000000000E+00 -0.11207903992E+04  0.11207903992E+04  0.00000000000E+00 0. -1.
    9000007    1    1    2  501    0  0.35794076242E+01 -0.19454563296E+03  0.71422321245E+03  0.84141286694E+03  0.40000000000E+03 0. -1.
   -9000007    1    1    2    0  503 -0.35794076242E+01  0.19454563296E+03 -0.10104064961E+04  0.11039846479E+04  0.40000000000E+03 0. -1.
<mgrwt>
<rscale>  2 0.44481548E+03</rscale>
<asrwt>0</asrwt>
<pdfrwt beam="1">  1       21 0.12686263E+00 0.44481548E+03</pdfrwt>
<pdfrwt beam="2">  1       21 0.17242929E+00 0.44481548E+03</pdfrwt>
<totfact> 0.75127312E+01</totfact>
</mgrwt>
</event>
<event>
 4    1  0.4760244E-002  0.5348252E+03  0.7818608E-02  0.1005069E+00
         21   -1    0    0  501  502  0.00000000000E+00  0.00000000000E+00  0.42380047782E+03  0.42380047782E+03  0.00000000000E+00 0.  1.
         21   -1    0    0  502  503 -0.00000000000E+00 -0.00000000000E+00 -0.69489209069E+03  0.69489209069E+03  0.00000000000E+00 0. -1.
    9000007    1    1    2  501    0 -0.70282652108E+02  0.34799190017E+03 -0.40755359474E+02  0.53637581330E+03  0.40000000000E+03 0. -1.
   -9000007    1    1    2    0  503  0.70282652108E+02 -0.34799190017E+03 -0.23033625340E+03  0.58231675521E+03  0.40000000000E+03 0.  1.
<mgrwt>
<rscale>  2 0.53482522E+03</rscale>
<asrwt>0</asrwt>
<pdfrwt beam="1">  1       21 0.65200073E-01 0.53482522E+03</pdfrwt>
<pdfrwt beam="2">  1       21 0.10690648E+00 0.53482522E+03</pdfrwt>
<totfact> 0.12545781E+03</totfact>
</mgrwt>
</event>
<event>
 4    1  0.4760244E-002  0.4258526E+03  0.7818608E-02  0.1035178E+00
         21   -1    0    0  501  502  0.00000000000E+00  0.00000000000E+00  0.16050044974E+04  0.16050044974E+04  0.00000000000E+00 0. -1.
         21   -1    0    0  502  503 -0.00000000000E+00 -0.00000000000E+00 -0.17566217308E+03  0.17566217308E+03  0.00000000000E+00 0. -1.
    9000007    1    1    2  501    0 -0.78327482183E+02 -0.12335001194E+03  0.12464717454E+04  0.13172100182E+04  0.40000000000E+03 0. -1.
   -9000007    1    1    2    0  503  0.78327482183E+02  0.12335001194E+03  0.18287057890E+03  0.46345665228E+03  0.40000000000E+03 0. -1.
<mgrwt>
<rscale>  2 0.42585258E+03</rscale>
<asrwt>0</asrwt>
<pdfrwt beam="1">  1       21 0.24692376E+00 0.42585258E+03</pdfrwt>
<pdfrwt beam="2">  1       21 0.27024951E-01 0.42585258E+03</pdfrwt>
<totfact> 0.74881887E+02</totfact>
</mgrwt>
</event>
<event>
 4    1  0.4760244E-002  0.4159480E+03  0.7818608E-02  0.1038393E+00
         21   -1    0    0  503  502  0.00000000000E+00  0.00000000000E+00  0.17355892335E+04  0.17355892335E+04  0.00000000000E+00 0.  1.
         21   -1    0    0  501  503 -0.00000000000E+00 -0.00000000000E+00 -0.11999055433E+03  0.11999055433E+03  0.00000000000E+00 0.  1.
    9000007    1    1    2  501    0  0.95085741695E+01 -0.11367627961E+03  0.42613597747E+03  0.59548684354E+03  0.40000000000E+03 0.  1.
   -9000007    1    1    2    0  502 -0.95085741695E+01  0.11367627961E+03  0.11894627017E+04  0.12600929443E+04  0.40000000000E+03 0.  1.
<mgrwt>
<rscale>  2 0.41594796E+03</rscale>
<asrwt>0</asrwt>
<pdfrwt beam="1">  1       21 0.26701371E+00 0.41594796E+03</pdfrwt>
<pdfrwt beam="2">  1       21 0.18460087E-01 0.41594796E+03</pdfrwt>
<totfact> 0.11816081E+03</totfact>
</mgrwt>
</event>
<event>
 4    1  0.4760244E-002  0.5763312E+03  0.7818608E-02  0.9955766E-01
         21   -1    0    0  503  502  0.00000000000E+00  0.00000000000E+00  0.78057891002E+03  0.78057891002E+03  0.00000000000E+00 0.  1.
         21   -1    0    0  501  503 -0.00000000000E+00 -0.00000000000E+00 -0.42708202965E+03  0.42708202965E+03  0.00000000000E+00 0.  1.
    9000007    1    1    2  501    0 -0.39700137323E+03  0.12061326264E+03  0.14031632320E+03  0.59316635106E+03  0.40000000000E+03 0.  1.
   -9000007    1    1    2    0  502  0.39700137323E+03 -0.12061326264E+03  0.21318055717E+03  0.61449458861E+03  0.40000000000E+03 0.  1.
<mgrwt>
<rscale>  2 0.57633120E+03</rscale>
<asrwt>0</asrwt>
<pdfrwt beam="1">  1       21 0.12008906E+00 0.57633120E+03</pdfrwt>
<pdfrwt beam="2">  1       21 0.65704927E-01 0.57633120E+03</pdfrwt>
<totfact> 0.90823981E+02</totfact>
</mgrwt>
</event>
<event>
 4    1  0.4760244E-002  0.4080756E+03  0.7818608E-02  0.1041019E+00
         21   -1    0    0  503  502  0.00000000000E+00  0.00000000000E+00  0.14330474760E+04  0.14330474760E+04  0.00000000000E+00 0.  1.
         21   -1    0    0  501  503 -0.00000000000E+00 -0.00000000000E+00 -0.16976317902E+03  0.16976317902E+03  0.00000000000E+00 0. -1.
    9000007    1    1    2  501    0 -0.21441958956E+02 -0.77884191143E+02  0.18150190785E+03  0.44661913012E+03  0.40000000000E+03 0. -1.
   -9000007    1    1    2    0  502  0.21441958956E+02  0.77884191143E+02  0.10817823891E+04  0.11561915249E+04  0.40000000000E+03 0.  1.
<mgrwt>
<rscale>  2 0.40807561E+03</rscale>
<asrwt>0</asrwt>
<pdfrwt beam="1">  1       21 0.22046883E+00 0.40807561E+03</pdfrwt>
<pdfrwt beam="2">  1       21 0.26117413E-01 0.40807561E+03</pdfrwt>
<totfact> 0.11818101E+03</totfact>
</mgrwt>
</event>
<event>
 4    1  0.4760244E-002  0.4040662E+03  0.7818608E-02  0.1042381E+00
         21   -1    0    0  501  502  0.00000000000E+00  0.00000000000E+00  0.46770937635E+03  0.46770937635E+03  0.00000000000E+00 0. -1.
         21   -1    0    0  502  503 -0.00000000000E+00 -0.00000000000E+00 -0.35131809312E+03  0.35131809312E+03  0.00000000000E+00 0. -1.
    9000007    1    1    2  501    0  0.53563841150E+02  0.20010470354E+02  0.90857643883E+02  0.41415530355E+03  0.40000000000E+03 0.  1.
   -9000007    1    1    2    0  503 -0.53563841150E+02 -0.20010470354E+02  0.25533639353E+02  0.40487216593E+03  0.40000000000E+03 0.  1.
<mgrwt>
<rscale>  2 0.40406621E+03</rscale>
<asrwt>0</asrwt>
<pdfrwt beam="1">  1       21 0.71955289E-01 0.40406621E+03</pdfrwt>
<pdfrwt beam="2">  1       21 0.54048937E-01 0.40406621E+03</pdfrwt>
<totfact> 0.50440608E+03</totfact>
</mgrwt>
</event>
<event>
 4    1  0.4760244E-002  0.5733880E+03  0.7818608E-02  0.9962209E-01
         21   -1    0    0  503  502  0.00000000000E+00  0.00000000000E+00  0.69718798264E+03  0.69718798264E+03  0.00000000000E+00 0.  1.
         21   -1    0    0  501  503 -0.00000000000E+00 -0.00000000000E+00 -0.47469229557E+03  0.47469229557E+03  0.00000000000E+00 0.  1.
    9000007    1    1    2  501    0  0.25124437805E+03 -0.32503853101E+03  0.63736245284E+02  0.57691948581E+03  0.40000000000E+03 0.  1.
   -9000007    1    1    2    0  502 -0.25124437805E+03  0.32503853101E+03  0.15875944179E+03  0.59496079241E+03  0.40000000000E+03 0.  1.
<mgrwt>
<rscale>  2 0.57338799E+03</rscale>
<asrwt>0</asrwt>
<pdfrwt beam="1">  1       21 0.10725969E+00 0.57338799E+03</pdfrwt>
<pdfrwt beam="2">  1       21 0.73029584E-01 0.57338799E+03</pdfrwt>
<totfact> 0.95125252E+02</totfact>
</mgrwt>
</event>
<event>
 4    1  0.4760244E-002  0.4428252E+03  0.7818608E-02  0.1029884E+00
         21   -1    0    0  501  502  0.00000000000E+00  0.00000000000E+00  0.22887025874E+03  0.22887025874E+03  0.00000000000E+00 0.  1.
         21   -1    0    0  502  503 -0.00000000000E+00 -0.00000000000E+00 -0.14118068313E+04  0.14118068313E+04  0.00000000000E+00 0.  1.
    9000007    1    1    2  501    0 -0.12053368576E+03  0.14685286075E+03 -0.77119285479E+02  0.44949028500E+03  0.40000000000E+03 0.  1.
   -9000007    1    1    2    0  503  0.12053368576E+03 -0.14685286075E+03 -0.11058172871E+04  0.11911868050E+04  0.40000000000E+03 0.  1.
<mgrwt>
<rscale>  2 0.44282517E+03</rscale>
<asrwt>0</asrwt>
<pdfrwt beam="1">  1       21 0.35210809E-01 0.44282517E+03</pdfrwt>
<pdfrwt beam="2">  1       21 0.21720105E+00 0.44282517E+03</pdfrwt>
<totfact> 0.67296432E+02</totfact>
</mgrwt>
</event>
<event>
 4    1  0.4760244E-002  0.4583046E+03  0.7818608E-02  0.1025274E+00
         21   -1    0    0  503  502  0.00000000000E+00  0.00000000000E+00  0.11263722453E+04  0.11263722453E+04  0.00000000000E+00 0. -1.
         21   -1    0    0  501  503 -0.00000000000E+00 -0.00000000000E+00 -0.29821271997E+03  0.29821271997E+03  0.00000000000E+00 0.  1.
    9000007    1    1    2  501    0  0.11755104778E+03 -0.19032828746E+03 -0.21924042165E+02  0.45882869294E+03  0.40000000000E+03 0.  1.
   -9000007    1    1    2    0  502 -0.11755104778E+03  0.19032828746E+03  0.85008356753E+03  0.96575627237E+03  0.40000000000E+03 0. -1.
<mgrwt>
<rscale>  2 0.45830460E+03</rscale>
<asrwt>0</asrwt>
<pdfrwt beam="1">  1       21 0.17328803E+00 0.45830460E+03</pdfrwt>
<pdfrwt beam="2">  1       21 0.45878881E-01 0.45830460E+03</pdfrwt>
<totfact> 0.76771689E+02</totfact>
</mgrwt>
</event>
<event>
 4    1  0.4760244E-002  0.8237587E+03  0.7818608E-02  0.9526250E-01
         21   -1    0    0  501  502  0.00000000000E+00  0.00000000000E+00  0.14522027045E+04  0.14522027045E+04  0.00000000000E+00 0.  1.
         21   -1    0    0  502  503 -0.00000000000E+00 -0.00000000000E+00 -0.47295872051E+03  0.47295872051E+03  0.00000000000E+00 0. -1.
    9000007    1    1    2  501    0 -0.70189366770E+03  0.16100846930E+03  0.59514097614E+03  0.10162535262E+04  0.40000000000E+03 0.  1.
   -9000007    1    1    2    0  503  0.70189366770E+03 -0.16100846930E+03  0.38410300785E+03  0.90890789885E+03  0.40000000000E+03 0. -1.
<mgrwt>
<rscale>  2 0.82375873E+03</rscale>
<asrwt>0</asrwt>
<pdfrwt beam="1">  1       21 0.22341580E+00 0.82375873E+03</pdfrwt>
<pdfrwt beam="2">  1       21 0.72762881E-01 0.82375873E+03</pdfrwt>
<totfact> 0.11140347E+02</totfact>
</mgrwt>
</event>
<event>
 4    1  0.4760244E-002  0.4573360E+03  0.7818608E-02  0.1025557E+00
         21   -1    0    0  501  502  0.00000000000E+00  0.00000000000E+00  0.97580677281E+03  0.97580677281E+03  0.00000000000E+00 0. -1.
         21   -1    0    0  502  503 -0.00000000000E+00 -0.00000000000E+00 -0.21846918876E+03  0.21846918876E+03  0.00000000000E+00 0. -1.
    9000007    1    1    2  501    0  0.22162738894E+03 -0.61219692063E+01  0.46074502184E+03  0.64918576170E+03  0.40000000000E+03 0. -1.
   -9000007    1    1    2    0  503 -0.22162738894E+03  0.61219692063E+01  0.29659256221E+03  0.54509019987E+03  0.40000000000E+03 0. -1.
<mgrwt>
<rscale>  2 0.45733596E+03</rscale>
<asrwt>0</asrwt>
<pdfrwt beam="1">  1       21 0.15012412E+00 0.45733596E+03</pdfrwt>
<pdfrwt beam="2">  1       21 0.33610645E-01 0.45733596E+03</pdfrwt>
<totfact> 0.21745649E+03</totfact>
</mgrwt>
</event>
<event>
 4    1  0.4760244E-002  0.4322552E+03  0.7818608E-02  0.1033150E+00
         21   -1    0    0  503  502  0.00000000000E+00  0.00000000000E+00  0.30520225615E+03  0.30520225615E+03  0.00000000000E+00 0. -1.
         21   -1    0    0  501  503 -0.00000000000E+00 -0.00000000000E+00 -0.18713568237E+04  0.18713568237E+04  0.00000000000E+00 0. -1.
    9000007    1    1    2  501    0  0.15479227607E+03 -0.53702300638E+02 -0.16757704424E+04  0.17306216113E+04  0.40000000000E+03 0. -1.
   -9000007    1    1    2    0  502 -0.15479227607E+03  0.53702300638E+02  0.10961587488E+03  0.44593746854E+03  0.40000000000E+03 0. -1.
<mgrwt>
<rscale>  2 0.43225523E+03</rscale>
<asrwt>0</asrwt>
<pdfrwt beam="1">  1       21 0.46954193E-01 0.43225523E+03</pdfrwt>
<pdfrwt beam="2">  1       21 0.28790105E+00 0.43225523E+03</pdfrwt>
<totfact> 0.13732805E+02</totfact>
</mgrwt>
</event>
<event>
 4    1  0.4760244E-002  0.4305221E+03  0.7818608E-02  0.1033695E+00
         21   -1    0    0  501  502  0.00000000000E+00  0.00000000000E+00  0.98007448875E+03  0.98007448875E+03  0.00000000000E+00 0. -1.
         21   -1    0    0  502  503 -0.00000000000E+00 -0.00000000000E+00 -0.34059322277E+03  0.34059322277E+03  0.00000000000E+00 0. -1.
    9000007    1    1    2  501    0  0.15916991801E+03  0.37747787666E+01  0.76010986822E+03  0.87356529436E+03  0.40000000000E+03 0. -1.
   -9000007    1    1    2    0  503 -0.15916991801E+03 -0.37747787666E+01 -0.12062860223E+03  0.44710241716E+03  0.40000000000E+03 0. -1.
<mgrwt>
<rscale>  2 0.43052214E+03</rscale>
<asrwt>0</asrwt>
<pdfrwt beam="1">  1       21 0.15078069E+00 0.43052214E+03</pdfrwt>
<pdfrwt beam="2">  1       21 0.52398958E-01 0.43052214E+03</pdfrwt>
<totfact> 0.86505905E+02</totfact>
</mgrwt>
</event>
<event>
 4    1  0.4760244E-002  0.5416822E+03  0.7818608E-02  0.1003438E+00
         21   -1    0    0  501  502  0.00000000000E+00  0.00000000000E+00  0.11438646514E+04  0.11438646514E+04  0.00000000000E+00 0. -1.
         21   -1    0    0  502  503 -0.00000000000E+00 -0.00000000000E+00 -0.41054507952E+03  0.41054507952E+03  0.00000000000E+00 0. -1.
    9000007    1    1    2  501    0  0.19918414952E+03  0.30617846024E+03  0.84271404766E+03  0.10017916655E+04  0.40000000000E+03 0. -1.
   -9000007    1    1    2    0  503 -0.19918414952E+03 -0.30617846024E+03 -0.10939447575E+03  0.55261806545E+03  0.40000000000E+03 0. -1.
<mgrwt>
<rscale>  2 0.54168217E+03</rscale>
<asrwt>0</asrwt>
<pdfrwt beam="1">  1       21 0.17597918E+00 0.54168217E+03</pdfrwt>
<pdfrwt beam="2">  1       21 0.63160782E-01 0.54168217E+03</pdfrwt>
<totfact> 0.35551347E+02</totfact>
</mgrwt>
</event>
<event>
 4    1  0.4760244E-002  0.4273428E+03  0.7818608E-02  0.1034703E+00
         21   -1    0    0  501  502  0.00000000000E+00  0.00000000000E+00  0.12002472713E+04  0.12002472713E+04  0.00000000000E+00 0. -1.
         21   -1    0    0  502  503 -0.00000000000E+00 -0.00000000000E+00 -0.34989605979E+03  0.34989605979E+03  0.00000000000E+00 0. -1.
    9000007    1    1    2  501    0  0.14469089104E+03 -0.41066217147E+02  0.10078451939E+04  0.10947026185E+04  0.40000000000E+03 0. -1.
   -9000007    1    1    2    0  503 -0.14469089104E+03  0.41066217147E+02 -0.15749398242E+03  0.45544071254E+03  0.40000000000E+03 0. -1.
<mgrwt>
<rscale>  2 0.42734282E+03</rscale>
<asrwt>0</asrwt>
<pdfrwt beam="1">  1       21 0.18465342E+00 0.42734282E+03</pdfrwt>
<pdfrwt beam="2">  1       21 0.53830164E-01 0.42734282E+03</pdfrwt>
<totfact> 0.46107163E+02</totfact>
</mgrwt>
</event>
<event>
 4    1  0.4760244E-002  0.4129629E+03  0.7818608E-02  0.1039381E+00
         21   -1    0    0  503  502  0.00000000000E+00  0.00000000000E+00  0.10926738396E+04  0.10926738396E+04  0.00000000000E+00 0. -1.
         21   -1    0    0  501  503 -0.00000000000E+00 -0.00000000000E+00 -0.15682841124E+03  0.15682841124E+03  0.00000000000E+00 0. -1.
    9000007    1    1    2  501    0  0.56248730794E+02  0.85874708449E+02  0.42460244589E+03  0.59230534552E+03  0.40000000000E+03 0.  1.
   -9000007    1    1    2    0  502 -0.56248730794E+02 -0.85874708449E+02  0.51124298250E+03  0.65719690537E+03  0.40000000000E+03 0.  1.
<mgrwt>
<rscale>  2 0.41296293E+03</rscale>
<asrwt>0</asrwt>
<pdfrwt beam="1">  1       21 0.16810366E+00 0.41296293E+03</pdfrwt>
<pdfrwt beam="2">  1       21 0.24127449E-01 0.41296293E+03</pdfrwt>
<totfact> 0.31119758E+03</totfact>
</mgrwt>
</event>
<event>
 4    1  0.4760244E-002  0.6474638E+03  0.7818608E-02  0.9811550E-01
         21   -1    0    0  501  502  0.00000000000E+00  0.00000000000E+00  0.19661016858E+04  0.19661016858E+04  0.00000000000E+00 0.  1.
         21   -1    0    0  502  503 -0.00000000000E+00 -0.00000000000E+00 -0.38734649739E+03  0.38734649739E+03  0.00000000000E+00 0. -1.
    9000007    1    1    2  501    0  0.22693708248E+03  0.45575100775E+03  0.15783449321E+04  0.17059842160E+04  0.40000000000E+03 0.  1.
   -9000007    1    1    2    0  503 -0.22693708248E+03 -0.45575100775E+03  0.41025626557E+00  0.64746396717E+03  0.40000000000E+03 0. -1.
<mgrwt>
<rscale>  2 0.64746384E+03</rscale>
<asrwt>0</asrwt>
<pdfrwt beam="1">  1       21 0.30247718E+00 0.64746384E+03</pdfrwt>
<pdfrwt beam="2">  1       21 0.59591770E-01 0.64746384E+03</pdfrwt>
<totfact> 0.59766657E+01</totfact>
</mgrwt>
</event>
<event>
 4    1  0.4760244E-002  0.5455982E+03  0.7818608E-02  0.1002518E+00
         21   -1    0    0  501  502  0.00000000000E+00  0.00000000000E+00  0.67878610640E+03  0.67878610640E+03  0.00000000000E+00 0. -1.
         21   -1    0    0  502  503 -0.00000000000E+00 -0.00000000000E+00 -0.61971569334E+03  0.61971569334E+03  0.00000000000E+00 0. -1.
    9000007    1    1    2  501    0 -0.32258332159E+03 -0.18335034978E+03  0.38057947015E+03  0.66522032683E+03  0.40000000000E+03 0. -1.
   -9000007    1    1    2    0  503  0.32258332159E+03  0.18335034978E+03 -0.32150905709E+03  0.63328147290E+03  0.40000000000E+03 0. -1.
<mgrwt>
<rscale>  2 0.54559816E+03</rscale>
<asrwt>0</asrwt>
<pdfrwt beam="1">  1       21 0.10442863E+00 0.54559816E+03</pdfrwt>
<pdfrwt beam="2">  1       21 0.95340876E-01 0.54559816E+03</pdfrwt>
<totfact> 0.54931880E+02</totfact>
</mgrwt>
</event>
<event>
 4    1  0.4760244E-002  0.5492940E+03  0.7818608E-02  0.1001657E+00
         21   -1    0    0  503  502  0.00000000000E+00  0.00000000000E+00  0.98993760110E+03  0.98993760110E+03  0.00000000000E+00 0. -1.
         21   -1    0    0  501  503 -0.00000000000E+00 -0.00000000000E+00 -0.57940370807E+03  0.57940370807E+03  0.00000000000E+00 0.  1.
    9000007    1    1    2  501    0  0.14785274727E+03  0.34621303024E+03 -0.33493635048E+03  0.64335546633E+03  0.40000000000E+03 0.  1.
   -9000007    1    1    2    0  502 -0.14785274727E+03 -0.34621303024E+03  0.74547024351E+03  0.92598584284E+03  0.40000000000E+03 0. -1.
<mgrwt>
<rscale>  2 0.54929400E+03</rscale>
<asrwt>0</asrwt>
<pdfrwt beam="1">  1       21 0.15229809E+00 0.54929400E+03</pdfrwt>
<pdfrwt beam="2">  1       21 0.89139032E-01 0.54929400E+03</pdfrwt>
<totfact> 0.24202943E+02</totfact>
</mgrwt>
</event>
<event>
 4    1  0.4760244E-002  0.6035514E+03  0.7818608E-02  0.9898065E-01
         21   -1    0    0  501  502  0.00000000000E+00  0.00000000000E+00  0.34324300743E+03  0.34324300743E+03  0.00000000000E+00 0. -1.
         21   -1    0    0  502  503 -0.00000000000E+00 -0.00000000000E+00 -0.11032519523E+04  0.11032519523E+04  0.00000000000E+00 0.  1.
    9000007    1    1    2  501    0 -0.47878192232E+02 -0.44942408793E+03 -0.23892349797E+03  0.64912153714E+03  0.40000000000E+03 0.  1.
   -9000007    1    1    2    0  503  0.47878192232E+02  0.44942408793E+03 -0.52108544692E+03  0.79737342261E+03  0.40000000000E+03 0. -1.
<mgrwt>
<rscale>  2 0.60355143E+03</rscale>
<asrwt>0</asrwt>
<pdfrwt beam="1">  1       21 0.52806616E-01 0.60355143E+03</pdfrwt>
<pdfrwt beam="2">  1       21 0.16973107E+00 0.60355143E+03</pdfrwt>
<totfact> 0.57083522E+02</totfact>
</mgrwt>
</event>
<event>
 4    1  0.4760244E-002  0.4815438E+03  0.7818608E-02  0.1018712E+00
         21   -1    0    0  503  502  0.00000000000E+00  0.00000000000E+00  0.47266429370E+03  0.47266429370E+03  0.00000000000E+00 0. -1.
         21   -1    0    0  501  503 -0.00000000000E+00 -0.00000000000E+00 -0.10895527448E+04  0.10895527448E+04  0.00000000000E+00 0. -1.
    9000007    1    1    2  501    0  0.22920995444E+03  0.13909428584E+03 -0.88758896190E+03  0.10098012621E+04  0.40000000000E+03 0. -1.
   -9000007    1    1    2    0  502 -0.22920995444E+03 -0.13909428584E+03  0.27070051076E+03  0.55241577647E+03  0.40000000000E+03 0. -1.
<mgrwt>
<rscale>  2 0.48154379E+03</rscale>
<asrwt>0</asrwt>
<pdfrwt beam="1">  1       21 0.72717584E-01 0.48154379E+03</pdfrwt>
<pdfrwt beam="2">  1       21 0.16762350E+00 0.48154379E+03</pdfrwt>
<totfact> 0.30577231E+02</totfact>
</mgrwt>
</event>
<event>
 4    1  0.4760244E-002  0.4679104E+03  0.7818608E-02  0.1022512E+00
         21   -1    0    0  501  502  0.00000000000E+00  0.00000000000E+00  0.26980302263E+03  0.26980302263E+03  0.00000000000E+00 0. -1.
         21   -1    0    0  502  503 -0.00000000000E+00 -0.00000000000E+00 -0.92866706305E+03  0.92866706305E+03  0.00000000000E+00 0.  1.
    9000007    1    1    2  501    0  0.62675695285E+02  0.23454617910E+03 -0.11656700219E+03  0.48221159143E+03  0.40000000000E+03 0. -1.
   -9000007    1    1    2    0  503 -0.62675695285E+02 -0.23454617910E+03 -0.54229703824E+03  0.71625849426E+03  0.40000000000E+03 0.  1.
<mgrwt>
<rscale>  2 0.46791041E+03</rscale>
<asrwt>0</asrwt>
<pdfrwt beam="1">  1       21 0.41508157E-01 0.46791041E+03</pdfrwt>
<pdfrwt beam="2">  1       21 0.14287186E+00 0.46791041E+03</pdfrwt>
<totfact> 0.16085160E+03</totfact>
</mgrwt>
</event>
<event>
 4    1  0.4760244E-002  0.4404221E+03  0.7818608E-02  0.1030617E+00
         21   -1    0    0  503  502  0.00000000000E+00  0.00000000000E+00  0.20911734265E+03  0.20911734265E+03  0.00000000000E+00 0. -1.
         21   -1    0    0  501  503 -0.00000000000E+00 -0.00000000000E+00 -0.10927576508E+04  0.10927576508E+04  0.00000000000E+00 0.  1.
    9000007    1    1    2  501    0  0.10941055325E+03  0.14832730782E+03 -0.69490249240E+03  0.82271570627E+03  0.40000000000E+03 0.  1.
   -9000007    1    1    2    0  502 -0.10941055325E+03 -0.14832730782E+03 -0.18873781577E+03  0.47915928720E+03  0.40000000000E+03 0. -1.
<mgrwt>
<rscale>  2 0.44042214E+03</rscale>
<asrwt>0</asrwt>
<pdfrwt beam="1">  1       21 0.32171898E-01 0.44042214E+03</pdfrwt>
<pdfrwt beam="2">  1       21 0.16811656E+00 0.44042214E+03</pdfrwt>
<totfact> 0.17458945E+03</totfact>
</mgrwt>
</event>
<event>
 4    1  0.4760244E-002  0.5182444E+03  0.7818608E-02  0.1009124E+00
         21   -1    0    0  503  502  0.00000000000E+00  0.00000000000E+00  0.13370649820E+04  0.13370649820E+04  0.00000000000E+00 0. -1.
         21   -1    0    0  501  503 -0.00000000000E+00 -0.00000000000E+00 -0.21853890137E+03  0.21853890137E+03  0.00000000000E+00 0.  1.
    9000007    1    1    2  501    0  0.14085377372E+03  0.29788835699E+03  0.33810635062E+03  0.61878361576E+03  0.40000000000E+03 0.  1.
   -9000007    1    1    2    0  502 -0.14085377372E+03 -0.29788835699E+03  0.78041972998E+03  0.93682026757E+03  0.40000000000E+03 0. -1.
<mgrwt>
<rscale>  2 0.51824440E+03</rscale>
<asrwt>0</asrwt>
<pdfrwt beam="1">  1       21 0.20570230E+00 0.51824440E+03</pdfrwt>
<pdfrwt beam="2">  1       21 0.33621370E-01 0.51824440E+03</pdfrwt>
<totfact> 0.84880458E+02</totfact>
</mgrwt>
</event>
<event>
 4    1  0.4760244E-002  0.5197933E+03  0.7818608E-02  0.1008738E+00
         21   -1    0    0  503  502  0.00000000000E+00  0.00000000000E+00  0.49347647634E+03  0.49347647634E+03  0.00000000000E+00 0. -1.
         21   -1    0    0  501  503 -0.00000000000E+00 -0.00000000000E+00 -0.80327116222E+03  0.80327116222E+03  0.00000000000E+00 0. -1.
    9000007    1    1    2  501    0  0.79090446360E+02  0.32238143875E+03 -0.52075201809E+03  0.73577697375E+03  0.40000000000E+03 0. -1.
   -9000007    1    1    2    0  502 -0.79090446360E+02 -0.32238143875E+03  0.21095733222E+03  0.56097066481E+03  0.40000000000E+03 0. -1.
<mgrwt>
<rscale>  2 0.51979332E+03</rscale>
<asrwt>0</asrwt>
<pdfrwt beam="1">  1       21 0.75919458E-01 0.51979332E+03</pdfrwt>
<pdfrwt beam="2">  1       21 0.12358018E+00 0.51979332E+03</pdfrwt>
<totfact> 0.62027103E+02</totfact>
</mgrwt>
</event>
<event>
 4    1  0.4760244E-002  0.7468113E+03  0.7818608E-02  0.9640366E-01
         21   -1    0    0  501  502  0.00000000000E+00  0.00000000000E+00  0.31719684377E+03  0.31719684377E+03  0.00000000000E+00 0. -1.
         21   -1    0    0  502  503 -0.00000000000E+00 -0.00000000000E+00 -0.20044954524E+04  0.20044954524E+04  0.00000000000E+00 0.  1.
    9000007    1    1    2  501    0 -0.43927326975E+03  0.45251092962E+03 -0.12504786917E+04  0.14565109355E+04  0.40000000000E+03 0.  1.
   -9000007    1    1    2    0  503  0.43927326975E+03 -0.45251092962E+03 -0.43681991690E+03  0.86518136060E+03  0.40000000000E+03 0. -1.
<mgrwt>
<rscale>  2 0.74681132E+03</rscale>
<asrwt>0</asrwt>
<pdfrwt beam="1">  1       21 0.48799514E-01 0.74681132E+03</pdfrwt>
<pdfrwt beam="2">  1       21 0.30838392E+00 0.74681132E+03</pdfrwt>
<totfact> 0.81490352E+01</totfact>
</mgrwt>
</event>
<event>
 4    1  0.4760244E-002  0.4374826E+03  0.7818608E-02  0.1031522E+00
         21   -1    0    0  501  502  0.00000000000E+00  0.00000000000E+00  0.69591699290E+03  0.69591699290E+03  0.00000000000E+00 0.  1.
         21   -1    0    0  502  503 -0.00000000000E+00 -0.00000000000E+00 -0.98350476504E+03  0.98350476504E+03  0.00000000000E+00 0.  1.
    9000007    1    1    2  501    0  0.17521283343E+03  0.26296915144E+02  0.56890620650E+03  0.71766659149E+03  0.40000000000E+03 0.  1.
   -9000007    1    1    2    0  503 -0.17521283343E+03 -0.26296915144E+02 -0.85649397864E+03  0.96175516645E+03  0.40000000000E+03 0.  1.
<mgrwt>
<rscale>  2 0.43748265E+03</rscale>
<asrwt>0</asrwt>
<pdfrwt beam="1">  1       21 0.10706415E+00 0.43748265E+03</pdfrwt>
<pdfrwt beam="2">  1       21 0.15130843E+00 0.43748265E+03</pdfrwt>
<totfact> 0.16656775E+02</totfact>
</mgrwt>
</event>
<event>
 4    1  0.4760244E-002  0.4287141E+03  0.7818608E-02  0.1034267E+00
         21   -1    0    0  503  502  0.00000000000E+00  0.00000000000E+00  0.21781636349E+04  0.21781636349E+04  0.00000000000E+00 0.  1.
         21   -1    0    0  501  503 -0.00000000000E+00 -0.00000000000E+00 -0.14868013232E+03  0.14868013232E+03  0.00000000000E+00 0.  1.
    9000007    1    1    2  501    0  0.43202015473E+02  0.14808567789E+03  0.24965078763E+03  0.49610613572E+03  0.40000000000E+03 0.  1.
   -9000007    1    1    2    0  502 -0.43202015473E+02 -0.14808567789E+03  0.17798327149E+04  0.18307376315E+04  0.40000000000E+03 0.  1.
<mgrwt>
<rscale>  2 0.42871410E+03</rscale>
<asrwt>0</asrwt>
<pdfrwt beam="1">  1       21 0.33510207E+00 0.42871410E+03</pdfrwt>
<pdfrwt beam="2">  1       21 0.22873868E-01 0.42871410E+03</pdfrwt>
<totfact> 0.30352667E+02</totfact>
</mgrwt>
</event>
<event>
 4    1  0.4760244E-002  0.4249206E+03  0.7818608E-02  0.1035477E+00
         21   -1    0    0  503  502  0.00000000000E+00  0.00000000000E+00  0.44631146546E+03  0.44631146546E+03  0.00000000000E+00 0. -1.
         21   -1    0    0  501  503 -0.00000000000E+00 -0.00000000000E+00 -0.44166210493E+03  0.44166210493E+03  0.00000000000E+00 0. -1.
    9000007    1    1    2  501    0  0.46691832690E+02 -0.13556326620E+03 -0.12636793393E+03  0.44331296068E+03  0.40000000000E+03 0.  1.
   -9000007    1    1    2    0  502 -0.46691832690E+02  0.13556326620E+03  0.13101729445E+03  0.44466060971E+03  0.40000000000E+03 0.  1.
<mgrwt>
<rscale>  2 0.42492061E+03</rscale>
<asrwt>0</asrwt>
<pdfrwt beam="1">  1       21 0.68663303E-01 0.42492061E+03</pdfrwt>
<pdfrwt beam="2">  1       21 0.67948016E-01 0.42492061E+03</pdfrwt>
<totfact> 0.33681009E+03</totfact>
</mgrwt>
</event>
<event>
 4    1  0.4760244E-002  0.4492309E+03  0.7818608E-02  0.1027952E+00
         21   -1    0    0  503  502  0.00000000000E+00  0.00000000000E+00  0.20531547815E+03  0.20531547815E+03  0.00000000000E+00 0.  1.
         21   -1    0    0  501  503 -0.00000000000E+00 -0.00000000000E+00 -0.10600323659E+04  0.10600323659E+04  0.00000000000E+00 0.  1.
    9000007    1    1    2  501    0 -0.10398298294E+03  0.17605657117E+03 -0.59800073554E+03  0.74793934025E+03  0.40000000000E+03 0.  1.
   -9000007    1    1    2    0  502  0.10398298294E+03 -0.17605657117E+03 -0.25671615220E+03  0.51740850379E+03  0.40000000000E+03 0.  1.
<mgrwt>
<rscale>  2 0.44923087E+03</rscale>
<asrwt>0</asrwt>
<pdfrwt beam="1">  1       21 0.31586996E-01 0.44923087E+03</pdfrwt>
<pdfrwt beam="2">  1       21 0.16308191E+00 0.44923087E+03</pdfrwt>
<totfact> 0.19660747E+03</totfact>
</mgrwt>
</event>
<event>
 4    1  0.4760244E-002  0.4856595E+03  0.7818608E-02  0.1017591E+00
         21   -1    0    0  503  502  0.00000000000E+00  0.00000000000E+00  0.43767973132E+03  0.43767973132E+03  0.00000000000E+00 0.  1.
         21   -1    0    0  501  503 -0.00000000000E+00 -0.00000000000E+00 -0.69191314158E+03  0.69191314158E+03  0.00000000000E+00 0.  1.
    9000007    1    1    2  501    0  0.27494828870E+03 -0.16387699593E+02 -0.39271917540E+03  0.62457463036E+03  0.40000000000E+03 0.  1.
   -9000007    1    1    2    0  502 -0.27494828870E+03  0.16387699593E+02  0.13848576514E+03  0.50501824255E+03  0.40000000000E+03 0.  1.
<mgrwt>
<rscale>  2 0.48565947E+03</rscale>
<asrwt>0</asrwt>
<pdfrwt beam="1">  1       21 0.67335343E-01 0.48565947E+03</pdfrwt>
<pdfrwt beam="2">  1       21 0.10644818E+00 0.48565947E+03</pdfrwt>
<totfact> 0.12003756E+03</totfact>
</mgrwt>
</event>
<event>
 4    1  0.4760244E-002  0.4224871E+03  0.7818608E-02  0.1036260E+00
         21   -1    0    0  503  502  0.00000000000E+00  0.00000000000E+00  0.26699552553E+03  0.26699552553E+03  0.00000000000E+00 0. -1.
         21   -1    0    0  501  503 -0.00000000000E+00 -0.00000000000E+00 -0.12970972756E+04  0.12970972756E+04  0.00000000000E+00 0. -1.
    9000007    1    1    2  501    0 -0.66332589743E+02 -0.11872361014E+03 -0.10594546275E+04  0.11405873118E+04  0.40000000000E+03 0. -1.
   -9000007    1    1    2    0  502  0.66332589743E+02  0.11872361014E+03  0.29352877463E+02  0.42350548932E+03  0.40000000000E+03 0. -1.
<mgrwt>
<rscale>  2 0.42248705E+03</rscale>
<asrwt>0</asrwt>
<pdfrwt beam="1">  1       21 0.41076235E-01 0.42248705E+03</pdfrwt>
<pdfrwt beam="2">  1       21 0.19955343E+00 0.42248705E+03</pdfrwt>
<totfact> 0.64710152E+02</totfact>
</mgrwt>
</event>
<event>
 4    1  0.4760244E-002  0.4023522E+03  0.7818608E-02  0.1042968E+00
         21   -1    0    0  501  502  0.00000000000E+00  0.00000000000E+00  0.31239928763E+03  0.31239928763E+03  0.00000000000E+00 0. -1.
         21   -1    0    0  502  503 -0.00000000000E+00 -0.00000000000E+00 -0.88090182296E+03  0.88090182296E+03  0.00000000000E+00 0. -1.
    9000007    1    1    2  501    0 -0.24319046200E+02 -0.35997955027E+02  0.98597639461E+02  0.41425688079E+03  0.40000000000E+03 0. -1.
   -9000007    1    1    2    0  503  0.24319046200E+02  0.35997955027E+02 -0.66710017479E+03  0.77904422980E+03  0.40000000000E+03 0. -1.
<mgrwt>
<rscale>  2 0.40235217E+03</rscale>
<asrwt>0</asrwt>
<pdfrwt beam="1">  1       21 0.48061429E-01 0.40235217E+03</pdfrwt>
<pdfrwt beam="2">  1       21 0.13552336E+00 0.40235217E+03</pdfrwt>
<totfact> 0.13998038E+03</totfact>
</mgrwt>
</event>
<event>
 4    1  0.4760244E-002  0.5443794E+03  0.7818608E-02  0.1002803E+00
         21   -1    0    0  501  502  0.00000000000E+00  0.00000000000E+00  0.18834559684E+03  0.18834559684E+03  0.00000000000E+00 0. -1.
         21   -1    0    0  502  503 -0.00000000000E+00 -0.00000000000E+00 -0.24671594555E+04  0.24671594555E+04  0.00000000000E+00 0.  1.
    9000007    1    1    2  501    0  0.35178681767E+03 -0.11222730788E+03 -0.34027009658E+03  0.64197560105E+03  0.40000000000E+03 0. -1.
   -9000007    1    1    2    0  503 -0.35178681767E+03  0.11222730788E+03 -0.19385437621E+04  0.20135294513E+04  0.40000000000E+03 0.  1.
<mgrwt>
<rscale>  2 0.54437940E+03</rscale>
<asrwt>0</asrwt>
<pdfrwt beam="1">  1       21 0.28976244E-01 0.54437940E+03</pdfrwt>
<pdfrwt beam="2">  1       21 0.37956301E+00 0.54437940E+03</pdfrwt>
<totfact> 0.94556041E+01</totfact>
</mgrwt>
</event>
<event>
 4    1  0.4760244E-002  0.4319925E+03  0.7818608E-02  0.1033232E+00
         21   -1    0    0  501  502  0.00000000000E+00  0.00000000000E+00  0.20043982653E+04  0.20043982653E+04  0.00000000000E+00 0.  1.
         21   -1    0    0  502  503 -0.00000000000E+00 -0.00000000000E+00 -0.13393746956E+03  0.13393746956E+03  0.00000000000E+00 0.  1.
    9000007    1    1    2  501    0  0.15426375544E+03  0.53105738379E+02  0.15255713564E+04  0.15855552621E+04  0.40000000000E+03 0.  1.
   -9000007    1    1    2    0  503 -0.15426375544E+03 -0.53105738379E+02  0.34488943933E+03  0.55278047275E+03  0.40000000000E+03 0.  1.
<mgrwt>
<rscale>  2 0.43199251E+03</rscale>
<asrwt>0</asrwt>
<pdfrwt beam="1">  1       21 0.30836894E+00 0.43199251E+03</pdfrwt>
<pdfrwt beam="2">  1       21 0.20605766E-01 0.43199251E+03</pdfrwt>
<totfact> 0.53638094E+02</totfact>
</mgrwt>
</event>
<event>
 4    1  0.4760244E-002  0.4030291E+03  0.7818608E-02  0.1042736E+00
         21   -1    0    0  501  502  0.00000000000E+00  0.00000000000E+00  0.60673559240E+03  0.60673559240E+03  0.00000000000E+00 0.  1.
         21   -1    0    0  502  503 -0.00000000000E+00 -0.00000000000E+00 -0.44643336150E+03  0.44643336150E+03  0.00000000000E+00 0.  1.
    9000007    1    1    2  501    0  0.39776135087E+02 -0.29160718936E+02  0.41332716883E+03  0.57729700930E+03  0.40000000000E+03 0. -1.
   -9000007    1    1    2    0  503 -0.39776135087E+02  0.29160718936E+02 -0.25302493793E+03  0.47587194461E+03  0.40000000000E+03 0. -1.
<mgrwt>
<rscale>  2 0.40302914E+03</rscale>
<asrwt>0</asrwt>
<pdfrwt beam="1">  1       21 0.93343937E-01 0.40302914E+03</pdfrwt>
<pdfrwt beam="2">  1       21 0.68682056E-01 0.40302914E+03</pdfrwt>
<totfact> 0.16329870E+03</totfact>
</mgrwt>
</event>
<event>
 4    1  0.4760244E-002  0.4293839E+03  0.7818608E-02  0.1034055E+00
         21   -1    0    0  501  502  0.00000000000E+00  0.00000000000E+00  0.14982740887E+04  0.14982740887E+04  0.00000000000E+00 0. -1.
         21   -1    0    0  502  503 -0.00000000000E+00 -0.00000000000E+00 -0.23886666571E+03  0.23886666571E+03  0.00000000000E+00 0. -1.
    9000007    1    1    2  501    0  0.21217962463E+02  0.15466208806E+03  0.12344912534E+04  0.13070345130E+04  0.40000000000E+03 0. -1.
   -9000007    1    1    2    0  503 -0.21217962463E+02 -0.15466208806E+03  0.24916169605E+02  0.43010624144E+03  0.40000000000E+03 0. -1.
<mgrwt>
<rscale>  2 0.42938393E+03</rscale>
<asrwt>0</asrwt>
<pdfrwt beam="1">  1       21 0.23050370E+00 0.42938393E+03</pdfrwt>
<pdfrwt beam="2">  1       21 0.36748719E-01 0.42938393E+03</pdfrwt>
<totfact> 0.51160531E+02</totfact>
</mgrwt>
</event>
<event>
 4    1  0.4760244E-002  0.4273545E+03  0.7818608E-02  0.1034699E+00
         21   -1    0    0  503  502  0.00000000000E+00  0.00000000000E+00  0.28870292439E+03  0.28870292439E+03  0.00000000000E+00 0.  1.
         21   -1    0    0  501  503 -0.00000000000E+00 -0.00000000000E+00 -0.15065099299E+04  0.15065099299E+04  0.00000000000E+00 0.  1.
    9000007    1    1    2  501    0  0.12205652667E+03  0.87943530983E+02 -0.12925548543E+04  0.13613706004E+04  0.40000000000E+03 0.  1.
   -9000007    1    1    2    0  502 -0.12205652667E+03 -0.87943530983E+02  0.74747848778E+02  0.43384225387E+03  0.40000000000E+03 0.  1.
<mgrwt>
<rscale>  2 0.42735449E+03</rscale>
<asrwt>0</asrwt>
<pdfrwt beam="1">  1       21 0.44415834E-01 0.42735449E+03</pdfrwt>
<pdfrwt beam="2">  1       21 0.23177076E+00 0.42735449E+03</pdfrwt>
<totfact> 0.34029758E+02</totfact>
</mgrwt>
</event>
<event>
 4    1  0.4760244E-002  0.5241628E+03  0.7818608E-02  0.1007658E+00
         21   -1    0    0  503  502  0.00000000000E+00  0.00000000000E+00  0.11845464288E+04  0.11845464288E+04  0.00000000000E+00 0.  1.
         21   -1    0    0  501  503 -0.00000000000E+00 -0.00000000000E+00 -0.23279339972E+03  0.23279339972E+03  0.00000000000E+00 0. -1.
    9000007    1    1    2  501    0 -0.68798811801E+02 -0.33168264929E+03  0.43303166159E+03  0.67989931335E+03  0.40000000000E+03 0.  1.
   -9000007    1    1    2    0  502  0.68798811801E+02  0.33168264929E+03  0.51872136749E+03  0.73744051519E+03  0.40000000000E+03 0.  1.
<mgrwt>
<rscale>  2 0.52416281E+03</rscale>
<asrwt>0</asrwt>
<pdfrwt beam="1">  1       21 0.18223791E+00 0.52416281E+03</pdfrwt>
<pdfrwt beam="2">  1       21 0.35814370E-01 0.52416281E+03</pdfrwt>
<totfact> 0.10767747E+03</totfact>
</mgrwt>
</event>
<event>
 4    1  0.4760244E-002  0.4703960E+03  0.7818608E-02  0.1021808E+00
         21   -1    0    0  503  502  0.00000000000E+00  0.00000000000E+00  0.38521316404E+03  0.38521316404E+03  0.00000000000E+00 0.  1.
         21   -1    0    0  501  503 -0.00000000000E+00 -0.00000000000E+00 -0.70543551754E+03  0.70543551754E+03  0.00000000000E+00 0. -1.
    9000007    1    1    2  501    0 -0.69290392055E+02 -0.23763687374E+03 -0.39512581824E+03  0.61432634196E+03  0.40000000000E+03 0. -1.
   -9000007    1    1    2    0  502  0.69290392055E+02  0.23763687374E+03  0.74903464731E+02  0.47632233962E+03  0.40000000000E+03 0.  1.
<mgrwt>
<rscale>  2 0.47039605E+03</rscale>
<asrwt>0</asrwt>
<pdfrwt beam="1">  1       21 0.59263565E-01 0.47039605E+03</pdfrwt>
<pdfrwt beam="2">  1       21 0.10852854E+00 0.47039605E+03</pdfrwt>
<totfact> 0.15269035E+03</totfact>
</mgrwt>
</event>
<event>
 4    1  0.4760244E-002  0.4409859E+03  0.7818608E-02  0.1030445E+00
         21   -1    0    0  501  502  0.00000000000E+00  0.00000000000E+00  0.64573119183E+03  0.64573119183E+03  0.00000000000E+00 0.  1.
         21   -1    0    0  502  503 -0.00000000000E+00 -0.00000000000E+00 -0.38275614751E+03  0.38275614751E+03  0.00000000000E+00 0.  1.
    9000007    1    1    2  501    0  0.16420389573E+03 -0.86635033095E+02  0.36892108336E+03  0.57495331469E+03  0.40000000000E+03 0.  1.
   -9000007    1    1    2    0  503 -0.16420389573E+03  0.86635033095E+02 -0.10594603904E+03  0.45353402465E+03  0.40000000000E+03 0.  1.
<mgrwt>
<rscale>  2 0.44098588E+03</rscale>
<asrwt>0</asrwt>
<pdfrwt beam="1">  1       21 0.99343260E-01 0.44098588E+03</pdfrwt>
<pdfrwt beam="2">  1       21 0.58885561E-01 0.44098588E+03</pdfrwt>
<totfact> 0.19456432E+03</totfact>
</mgrwt>
</event>
<event>
 4    1  0.4760244E-002  0.6031788E+03  0.7818608E-02  0.9898833E-01
         21   -1    0    0  503  502  0.00000000000E+00  0.00000000000E+00  0.66653157792E+03  0.66653157792E+03  0.00000000000E+00 0.  1.
         21   -1    0    0  501  503 -0.00000000000E+00 -0.00000000000E+00 -0.56527198824E+03  0.56527198824E+03  0.00000000000E+00 0.  1.
    9000007    1    1    2  501    0 -0.38951950163E+03  0.22825248772E+03  0.16480104855E+03  0.62528715476E+03  0.40000000000E+03 0.  1.
   -9000007    1    1    2    0  502  0.38951950163E+03 -0.22825248772E+03 -0.63541458861E+02  0.60651641140E+03  0.40000000000E+03 0.  1.
<mgrwt>
<rscale>  2 0.60317878E+03</rscale>
<asrwt>0</asrwt>
<pdfrwt beam="1">  1       21 0.10254332E+00 0.60317878E+03</pdfrwt>
<pdfrwt beam="2">  1       21 0.86964921E-01 0.60317878E+03</pdfrwt>
<totfact> 0.70195098E+02</totfact>
</mgrwt>
</event>
<event>
 4    1  0.4760244E-002  0.4252980E+03  0.7818608E-02  0.1035356E+00
         21   -1    0    0  501  502  0.00000000000E+00  0.00000000000E+00  0.30297630176E+03  0.30297630176E+03  0.00000000000E+00 0. -1.
         21   -1    0    0  502  503 -0.00000000000E+00 -0.00000000000E+00 -0.10625788598E+04  0.10625788598E+04  0.00000000000E+00 0. -1.
    9000007    1    1    2  501    0  0.13836301830E+03 -0.41642369284E+02  0.72151324113E+02  0.43137480840E+03  0.40000000000E+03 0. -1.
   -9000007    1    1    2    0  503 -0.13836301830E+03  0.41642369284E+02 -0.83175388210E+03  0.93418035311E+03  0.40000000000E+03 0. -1.
<mgrwt>
<rscale>  2 0.42529803E+03</rscale>
<asrwt>0</asrwt>
<pdfrwt beam="1">  1       21 0.46611739E-01 0.42529803E+03</pdfrwt>
<pdfrwt beam="2">  1       21 0.16347367E+00 0.42529803E+03</pdfrwt>
<totfact> 0.88930802E+02</totfact>
</mgrwt>
</event>
<event>
 4    1  0.4760244E-002  0.4767080E+03  0.7818608E-02  0.1020044E+00
         21   -1    0    0  501  502  0.00000000000E+00  0.00000000000E+00  0.82759489428E+03  0.82759489428E+03  0.00000000000E+00 0. -1.
         21   -1    0    0  502  503 -0.00000000000E+00 -0.00000000000E+00 -0.32881890250E+03  0.32881890250E+03  0.00000000000E+00 0. -1.
    9000007    1    1    2  501    0  0.22683147565E+03 -0.12569015584E+03  0.14579269582E+02  0.47693090561E+03  0.40000000000E+03 0. -1.
   -9000007    1    1    2    0  503 -0.22683147565E+03  0.12569015584E+03  0.48419672220E+03  0.67948289118E+03  0.40000000000E+03 0. -1.
<mgrwt>
<rscale>  2 0.47670802E+03</rscale>
<asrwt>0</asrwt>
<pdfrwt beam="1">  1       21 0.12732229E+00 0.47670802E+03</pdfrwt>
<pdfrwt beam="2">  1       21 0.50587524E-01 0.47670802E+03</pdfrwt>
<totfact> 0.14318321E+03</totfact>
</mgrwt>
</event>
<event>
 4    1  0.4760244E-002  0.4036448E+03  0.7818608E-02  0.1042525E+00
         21   -1    0    0  503  502  0.00000000000E+00  0.00000000000E+00  0.28961899571E+03  0.28961899571E+03  0.00000000000E+00 0.  1.
         21   -1    0    0  501  503 -0.00000000000E+00 -0.00000000000E+00 -0.78951759627E+03  0.78951759627E+03  0.00000000000E+00 0.  1.
    9000007    1    1    2  501    0  0.47858304626E+02 -0.25273200294E+02 -0.53923987086E+03  0.67357908986E+03  0.40000000000E+03 0. -1.
   -9000007    1    1    2    0  502 -0.47858304626E+02  0.25273200294E+02  0.39341270306E+02  0.40555750212E+03  0.40000000000E+03 0. -1.
<mgrwt>
<rscale>  2 0.40364483E+03</rscale>
<asrwt>0</asrwt>
<pdfrwt beam="1">  1       21 0.44556770E-01 0.40364483E+03</pdfrwt>
<pdfrwt beam="2">  1       21 0.12146424E+00 0.40364483E+03</pdfrwt>
<totfact> 0.21749608E+03</totfact>
</mgrwt>
</event>
<event>
 4    1  0.4760244E-002  0.4171051E+03  0.7818608E-02  0.1038013E+00
         21   -1    0    0  501  502  0.00000000000E+00  0.00000000000E+00  0.29102933680E+03  0.29102933680E+03  0.00000000000E+00 0.  1.
         21   -1    0    0  502  503 -0.00000000000E+00 -0.00000000000E+00 -0.68141660320E+03  0.68141660320E+03  0.00000000000E+00 0.  1.
    9000007    1    1    2  501    0 -0.88093783919E+02 -0.78842707507E+02 -0.36551972401E+03  0.55460017665E+03  0.40000000000E+03 0. -1.
   -9000007    1    1    2    0  503  0.88093783919E+02  0.78842707507E+02 -0.24867542380E+02  0.41784576336E+03  0.40000000000E+03 0. -1.
<mgrwt>
<rscale>  2 0.41710513E+03</rscale>
<asrwt>0</asrwt>
<pdfrwt beam="1">  1       21 0.44773745E-01 0.41710513E+03</pdfrwt>
<pdfrwt beam="2">  1       21 0.10483332E+00 0.41710513E+03</pdfrwt>
<totfact> 0.30901076E+03</totfact>
</mgrwt>
</event>
<event>
 4    1  0.4760244E-002  0.5429098E+03  0.7818608E-02  0.1003148E+00
         21   -1    0    0  503  502  0.00000000000E+00  0.00000000000E+00  0.49994880992E+03  0.49994880992E+03  0.00000000000E+00 0.  1.
         21   -1    0    0  501  503 -0.00000000000E+00 -0.00000000000E+00 -0.60297137259E+03  0.60297137259E+03  0.00000000000E+00 0. -1.
    9000007    1    1    2  501    0  0.26110694250E+03  0.25801975972E+03  0.30724934571E+02  0.54377849667E+03  0.40000000000E+03 0. -1.
   -9000007    1    1    2    0  502 -0.26110694250E+03 -0.25801975972E+03 -0.13374749723E+03  0.55914168584E+03  0.40000000000E+03 0.  1.
<mgrwt>
<rscale>  2 0.54290978E+03</rscale>
<asrwt>0</asrwt>
<pdfrwt beam="1">  1       21 0.76915201E-01 0.54290978E+03</pdfrwt>
<pdfrwt beam="2">  1       21 0.92764827E-01 0.54290978E+03</pdfrwt>
<totfact> 0.12161405E+03</totfact>
</mgrwt>
</event>
<event>
 4    1  0.4760244E-002  0.4819890E+03  0.7818608E-02  0.1018590E+00
         21   -1    0    0  501  502  0.00000000000E+00  0.00000000000E+00  0.37439523078E+03  0.37439523078E+03  0.00000000000E+00 0. -1.
         21   -1    0    0  502  503 -0.00000000000E+00 -0.00000000000E+00 -0.92246807408E+03  0.92246807408E+03  0.00000000000E+00 0. -1.
    9000007    1    1    2  501    0  0.10376628430E+02  0.26871130367E+03  0.96957459424E+02  0.49164437155E+03  0.40000000000E+03 0. -1.
   -9000007    1    1    2    0  503 -0.10376628430E+02 -0.26871130367E+03 -0.64503030272E+03  0.80521893331E+03  0.40000000000E+03 0. -1.
<mgrwt>
<rscale>  2 0.48198904E+03</rscale>
<asrwt>0</asrwt>
<pdfrwt beam="1">  1       21 0.57599267E-01 0.48198904E+03</pdfrwt>
<pdfrwt beam="2">  1       21 0.14191816E+00 0.48198904E+03</pdfrwt>
<totfact> 0.81210960E+02</totfact>
</mgrwt>
</event>
<event>
 4    1  0.4760244E-002  0.6969825E+03  0.7818608E-02  0.9722406E-01
         21   -1    0    0  501  502  0.00000000000E+00  0.00000000000E+00  0.16563128489E+04  0.16563128489E+04  0.00000000000E+00 0.  1.
         21   -1    0    0  502  503 -0.00000000000E+00 -0.00000000000E+00 -0.29877086179E+03  0.29877086179E+03  0.00000000000E+00 0. -1.
    9000007    1    1    2  501    0  0.54705273170E+03 -0.16284326387E+03  0.54640390314E+03  0.88563076122E+03  0.40000000000E+03 0.  1.
   -9000007    1    1    2    0  503 -0.54705273170E+03  0.16284326387E+03  0.81113808394E+03  0.10694529494E+04  0.40000000000E+03 0.  1.
<mgrwt>
<rscale>  2 0.69698251E+03</rscale>
<asrwt>0</asrwt>
<pdfrwt beam="1">  1       21 0.25481736E+00 0.69698251E+03</pdfrwt>
<pdfrwt beam="2">  1       21 0.45964749E-01 0.69698251E+03</pdfrwt>
<totfact> 0.20167899E+02</totfact>
</mgrwt>
</event>
<event>
 4    1  0.4760244E-002  0.5716515E+03  0.7818608E-02  0.9966031E-01
         21   -1    0    0  501  502  0.00000000000E+00  0.00000000000E+00  0.41670749846E+03  0.41670749846E+03  0.00000000000E+00 0.  1.
         21   -1    0    0  502  503 -0.00000000000E+00 -0.00000000000E+00 -0.17745885240E+04  0.17745885240E+04  0.00000000000E+00 0.  1.
    9000007    1    1    2  501    0 -0.26897935386E+03 -0.30730371341E+03  0.13956801321E+03  0.58844260161E+03  0.40000000000E+03 0.  1.
   -9000007    1    1    2    0  503  0.26897935386E+03  0.30730371341E+03 -0.14974490387E+04  0.16028534208E+04  0.40000000000E+03 0.  1.
<mgrwt>
<rscale>  2 0.57165152E+03</rscale>
<asrwt>0</asrwt>
<pdfrwt beam="1">  1       21 0.64108846E-01 0.57165152E+03</pdfrwt>
<pdfrwt beam="2">  1       21 0.27301362E+00 0.57165152E+03</pdfrwt>
<totfact> 0.79651691E+01</totfact>
</mgrwt>
</event>
<event>
 4    1  0.4760244E-002  0.4383534E+03  0.7818608E-02  0.1031253E+00
         21   -1    0    0  501  502  0.00000000000E+00  0.00000000000E+00  0.62557417975E+03  0.62557417975E+03  0.00000000000E+00 0.  1.
         21   -1    0    0  502  503 -0.00000000000E+00 -0.00000000000E+00 -0.33172995695E+03  0.33172995695E+03  0.00000000000E+00 0.  1.
    9000007    1    1    2  501    0 -0.93800408546E+02  0.15282412141E+03  0.27717770897E+03  0.51863398566E+03  0.40000000000E+03 0.  1.
   -9000007    1    1    2    0  503  0.93800408546E+02 -0.15282412141E+03  0.16666513831E+02  0.43867015104E+03  0.40000000000E+03 0.  1.
<mgrwt>
<rscale>  2 0.43835343E+03</rscale>
<asrwt>0</asrwt>
<pdfrwt beam="1">  1       21 0.96242182E-01 0.43835343E+03</pdfrwt>
<pdfrwt beam="2">  1       21 0.51035378E-01 0.43835343E+03</pdfrwt>
<totfact> 0.28624806E+03</totfact>
</mgrwt>
</event>
<event>
 4    1  0.4760244E-002  0.4658135E+03  0.7818608E-02  0.1023109E+00
         21   -1    0    0  501  502  0.00000000000E+00  0.00000000000E+00  0.10365004346E+04  0.10365004346E+04  0.00000000000E+00 0.  1.
         21   -1    0    0  502  503 -0.00000000000E+00 -0.00000000000E+00 -0.25602223809E+03  0.25602223809E+03  0.00000000000E+00 0.  1.
    9000007    1    1    2  501    0 -0.23201687329E+03  0.56128177776E+02  0.11428314044E+03  0.47962781198E+03  0.40000000000E+03 0.  1.
   -9000007    1    1    2    0  503  0.23201687329E+03 -0.56128177776E+02  0.66619505606E+03  0.81289486070E+03  0.40000000000E+03 0.  1.
<mgrwt>
<rscale>  2 0.46581348E+03</rscale>
<asrwt>0</asrwt>
<pdfrwt beam="1">  1       21 0.15946160E+00 0.46581348E+03</pdfrwt>
<pdfrwt beam="2">  1       21 0.39388037E-01 0.46581348E+03</pdfrwt>
<totfact> 0.13294052E+03</totfact>
</mgrwt>
</event>
<event>
 4    1  0.4760244E-002  0.4333195E+03  0.7818608E-02  0.1032816E+00
         21   -1    0    0  503  502  0.00000000000E+00  0.00000000000E+00  0.74165240008E+03  0.74165240008E+03  0.00000000000E+00 0. -1.
         21   -1    0    0  501  503 -0.00000000000E+00 -0.00000000000E+00 -0.26422228489E+03  0.26422228489E+03  0.00000000000E+00 0. -1.
    9000007    1    1    2  501    0  0.13814972584E+03 -0.93168888763E+02  0.13586335882E+03  0.45411963275E+03  0.40000000000E+03 0. -1.
   -9000007    1    1    2    0  502 -0.13814972584E+03  0.93168888763E+02  0.34156675637E+03  0.55175505221E+03  0.40000000000E+03 0. -1.
<mgrwt>
<rscale>  2 0.43331950E+03</rscale>
<asrwt>0</asrwt>
<pdfrwt beam="1">  1       21 0.11410037E+00 0.43331950E+03</pdfrwt>
<pdfrwt beam="2">  1       21 0.40649583E-01 0.43331950E+03</pdfrwt>
<totfact> 0.30437007E+03</totfact>
</mgrwt>
</event>
<event>
 4    1  0.4760244E-002  0.4215250E+03  0.7818608E-02  0.1036571E+00
         21   -1    0    0  503  502  0.00000000000E+00  0.00000000000E+00  0.63418634724E+03  0.63418634724E+03  0.00000000000E+00 0. -1.
         21   -1    0    0  501  503 -0.00000000000E+00 -0.00000000000E+00 -0.31657066661E+03  0.31657066661E+03  0.00000000000E+00 0. -1.
    9000007    1    1    2  501    0  0.64110785287E+02 -0.11650377499E+03 -0.23782335143E+01  0.42153170506E+03  0.40000000000E+03 0. -1.
   -9000007    1    1    2    0  502 -0.64110785287E+02  0.11650377499E+03  0.31999391415E+03  0.52922530879E+03  0.40000000000E+03 0. -1.
<mgrwt>
<rscale>  2 0.42152500E+03</rscale>
<asrwt>0</asrwt>
<pdfrwt beam="1">  1       21 0.97567130E-01 0.42152500E+03</pdfrwt>
<pdfrwt beam="2">  1       21 0.48703180E-01 0.42152500E+03</pdfrwt>
<totfact> 0.30785283E+03</totfact>
</mgrwt>
</event>
<event>
 4    1  0.4760244E-002  0.4403011E+03  0.7818608E-02  0.1030654E+00
         21   -1    0    0  503  502  0.00000000000E+00  0.00000000000E+00  0.45658418038E+03  0.45658418038E+03  0.00000000000E+00 0. -1.
         21   -1    0    0  501  503 -0.00000000000E+00 -0.00000000000E+00 -0.42499033965E+03  0.42499033965E+03  0.00000000000E+00 0.  1.
    9000007    1    1    2  501    0  0.16203196172E+03 -0.87239194229E+02  0.24155059524E+01  0.44030769729E+03  0.40000000000E+03 0. -1.
   -9000007    1    1    2    0  502 -0.16203196172E+03  0.87239194229E+02  0.29178334784E+02  0.44126682274E+03  0.40000000000E+03 0. -1.
<mgrwt>
<rscale>  2 0.44030107E+03</rscale>
<asrwt>0</asrwt>
<pdfrwt beam="1">  1       21 0.70243720E-01 0.44030107E+03</pdfrwt>
<pdfrwt beam="2">  1       21 0.65383129E-01 0.44030107E+03</pdfrwt>
<totfact> 0.34677141E+03</totfact>
</mgrwt>
</event>
<event>
 4    1  0.4760244E-002  0.4755981E+03  0.7818608E-02  0.1020352E+00
         21   -1    0    0  503  502  0.00000000000E+00  0.00000000000E+00  0.74116105295E+03  0.74116105295E+03  0.00000000000E+00 0.  1.
         21   -1    0    0  501  503 -0.00000000000E+00 -0.00000000000E+00 -0.31170165411E+03  0.31170165411E+03  0.00000000000E+00 0.  1.
    9000007    1    1    2  501    0  0.14462136365E+03 -0.21278678053E+03  0.29082894319E+03  0.55747199659E+03  0.40000000000E+03 0.  1.
   -9000007    1    1    2    0  502 -0.14462136365E+03  0.21278678053E+03  0.13863045565E+03  0.49539071047E+03  0.40000000000E+03 0.  1.
<mgrwt>
<rscale>  2 0.47559810E+03</rscale>
<asrwt>0</asrwt>
<pdfrwt beam="1">  1       21 0.11402478E+00 0.47559810E+03</pdfrwt>
<pdfrwt beam="2">  1       21 0.47954101E-01 0.47559810E+03</pdfrwt>
<totfact> 0.21252167E+03</totfact>
</mgrwt>
</event>
<event>
 4    1  0.4760244E-002  0.4981901E+03  0.7818608E-02  0.1014252E+00
         21   -1    0    0  501  502  0.00000000000E+00  0.00000000000E+00  0.10886778021E+04  0.10886778021E+04  0.00000000000E+00 0. -1.
         21   -1    0    0  502  503 -0.00000000000E+00 -0.00000000000E+00 -0.36363512627E+03  0.36363512627E+03  0.00000000000E+00 0. -1.
    9000007    1    1    2  501    0 -0.24751962625E+03 -0.16409561227E+03  0.80604872481E+03  0.94758001357E+03  0.40000000000E+03 0. -1.
   -9000007    1    1    2    0  503  0.24751962625E+03  0.16409561227E+03 -0.81006048951E+02  0.50473291483E+03  0.40000000000E+03 0. -1.
<mgrwt>
<rscale>  2 0.49819006E+03</rscale>
<asrwt>0</asrwt>
<pdfrwt beam="1">  1       21 0.16748889E+00 0.49819006E+03</pdfrwt>
<pdfrwt beam="2">  1       21 0.55943866E-01 0.49819006E+03</pdfrwt>
<totfact> 0.54448488E+02</totfact>
</mgrwt>
</event>
<event>
 4    1  0.4760244E-002  0.4506866E+03  0.7818608E-02  0.1027517E+00
         21   -1    0    0  501  502  0.00000000000E+00  0.00000000000E+00  0.56928717455E+03  0.56928717455E+03  0.00000000000E+00 0. -1.
         21   -1    0    0  502  503 -0.00000000000E+00 -0.00000000000E+00 -0.35782042042E+03  0.35782042042E+03  0.00000000000E+00 0. -1.
    9000007    1    1    2  501    0 -0.20684057851E+03  0.18314296570E+02  0.80910076574E+02  0.45789177637E+03  0.40000000000E+03 0. -1.
   -9000007    1    1    2    0  503  0.20684057851E+03 -0.18314296570E+02  0.13055667756E+03  0.46921581861E+03  0.40000000000E+03 0. -1.
<mgrwt>
<rscale>  2 0.45068663E+03</rscale>
<asrwt>0</asrwt>
<pdfrwt beam="1">  1       21 0.87582642E-01 0.45068663E+03</pdfrwt>
<pdfrwt beam="2">  1       21 0.55049296E-01 0.45068663E+03</pdfrwt>
<totfact> 0.30313627E+03</totfact>
</mgrwt>
</event>
<event>
 4    1  0.4760244E-002  0.4757246E+03  0.7818608E-02  0.1020317E+00
         21   -1    0    0  501  502  0.00000000000E+00  0.00000000000E+00  0.19774226587E+04  0.19774226587E+04  0.00000000000E+00 0.  1.
         21   -1    0    0  502  503 -0.00000000000E+00 -0.00000000000E+00 -0.11678544574E+03  0.11678544574E+03  0.00000000000E+00 0. -1.
    9000007    1    1    2  501    0  0.21584849040E+03 -0.14043980857E+03  0.10784270045E+04  0.11786936475E+04  0.40000000000E+03 0. -1.
   -9000007    1    1    2    0  503 -0.21584849040E+03  0.14043980857E+03  0.78221020846E+03  0.91551445694E+03  0.40000000000E+03 0. -1.
<mgrwt>
<rscale>  2 0.47572462E+03</rscale>
<asrwt>0</asrwt>
<pdfrwt beam="1">  1       21 0.30421885E+00 0.47572462E+03</pdfrwt>
<pdfrwt beam="2">  1       21 0.17966993E-01 0.47572462E+03</pdfrwt>
<totfact> 0.71889715E+02</totfact>
</mgrwt>
</event>
<event>
 4    1  0.4760244E-002  0.4087226E+03  0.7818608E-02  0.1040801E+00
         21   -1    0    0  503  502  0.00000000000E+00  0.00000000000E+00  0.51280972676E+03  0.51280972676E+03  0.00000000000E+00 0.  1.
         21   -1    0    0  501  503 -0.00000000000E+00 -0.00000000000E+00 -0.40496059175E+03  0.40496059175E+03  0.00000000000E+00 0.  1.
    9000007    1    1    2  501    0  0.41537783991E+02  0.72998461890E+02 -0.14900955308E+03  0.43503794070E+03  0.40000000000E+03 0.  1.
   -9000007    1    1    2    0  502 -0.41537783991E+02 -0.72998461890E+02  0.25685868809E+03  0.48273237781E+03  0.40000000000E+03 0.  1.
<mgrwt>
<rscale>  2 0.40872260E+03</rscale>
<asrwt>0</asrwt>
<pdfrwt beam="1">  1       21 0.78893804E-01 0.40872260E+03</pdfrwt>
<pdfrwt beam="2">  1       21 0.62301629E-01 0.40872260E+03</pdfrwt>
<totfact> 0.29975432E+03</totfact>
</mgrwt>
</event>
<event>
 4    1  0.4760244E-002  0.4699440E+03  0.7818608E-02  0.1021936E+00
         21   -1    0    0  503  502  0.00000000000E+00  0.00000000000E+00  0.21738564225E+03  0.21738564225E+03  0.00000000000E+00 0.  1.
         21   -1    0    0  501  503 -0.00000000000E+00 -0.00000000000E+00 -0.16539035400E+04  0.16539035400E+04  0.00000000000E+00 0. -1.
    9000007    1    1    2  501    0 -0.58683683036E+02 -0.23959048472E+03 -0.12993699099E+04  0.13817414874E+04  0.40000000000E+03 0. -1.
   -9000007    1    1    2    0  502  0.58683683036E+02  0.23959048472E+03 -0.13714798783E+03  0.48954769491E+03  0.40000000000E+03 0.  1.
<mgrwt>
<rscale>  2 0.46994401E+03</rscale>
<asrwt>0</asrwt>
<pdfrwt beam="1">  1       21 0.33443943E-01 0.46994401E+03</pdfrwt>
<pdfrwt beam="2">  1       21 0.25444671E+00 0.46994401E+03</pdfrwt>
<totfact> 0.43067804E+02</totfact>
</mgrwt>
</event>
<event>
 4    1  0.4760244E-002  0.4775207E+03  0.7818608E-02  0.1019819E+00
         21   -1    0    0  501  502  0.00000000000E+00  0.00000000000E+00  0.47716743039E+03  0.47716743039E+03  0.00000000000E+00 0. -1.
         21   -1    0    0  502  503 -0.00000000000E+00 -0.00000000000E+00 -0.47865734617E+03  0.47865734617E+03  0.00000000000E+00 0. -1.
    9000007    1    1    2  501    0 -0.10751007020E+03 -0.23762909502E+03 -0.20076145729E+02  0.47794252125E+03  0.40000000000E+03 0. -1.
   -9000007    1    1    2    0  503  0.10751007020E+03  0.23762909502E+03  0.18586229944E+02  0.47788225531E+03  0.40000000000E+03 0. -1.
<mgrwt>
<rscale>  2 0.47752068E+03</rscale>
<asrwt>0</asrwt>
<pdfrwt beam="1">  1       21 0.73410374E-01 0.47752068E+03</pdfrwt>
<pdfrwt beam="2">  1       21 0.73639591E-01 0.47752068E+03</pdfrwt>
<totfact> 0.23706386E+03</totfact>
</mgrwt>
</event>
<event>
 4    1  0.4760244E-002  0.6883416E+03  0.7818608E-02  0.9737380E-01
         21   -1    0    0  503  502  0.00000000000E+00  0.00000000000E+00  0.60528966760E+03  0.60528966760E+03  0.00000000000E+00 0. -1.
         21   -1    0    0  501  503 -0.00000000000E+00 -0.00000000000E+00 -0.11188495138E+04  0.11188495138E+04  0.00000000000E+00 0.  1.
    9000007    1    1    2  501    0 -0.47327402002E+03 -0.29970956012E+03 -0.72924009536E+03  0.10027987012E+04  0.40000000000E+03 0.  1.
   -9000007    1    1    2    0  502  0.47327402002E+03  0.29970956012E+03  0.21568024918E+03  0.72134048017E+03  0.40000000000E+03 0. -1.
<mgrwt>
<rscale>  2 0.68834157E+03</rscale>
<asrwt>0</asrwt>
<pdfrwt beam="1">  1       21 0.93121487E-01 0.68834157E+03</pdfrwt>
<pdfrwt beam="2">  1       21 0.17213069E+00 0.68834157E+03</pdfrwt>
<totfact> 0.14650153E+02</totfact>
</mgrwt>
</event>
<event>
 4    1  0.4760244E-002  0.4656405E+03  0.7818608E-02  0.1023158E+00
         21   -1    0    0  501  502  0.00000000000E+00  0.00000000000E+00  0.25933403363E+03  0.25933403363E+03  0.00000000000E+00 0. -1.
         21   -1    0    0  502  503 -0.00000000000E+00 -0.00000000000E+00 -0.14716233833E+04  0.14716233833E+04  0.00000000000E+00 0.  1.
    9000007    1    1    2  501    0  0.20517086050E+03 -0.12135057330E+03 -0.37377475756E+02  0.46713822294E+03  0.40000000000E+03 0. -1.
   -9000007    1    1    2    0  503 -0.20517086050E+03  0.12135057330E+03 -0.11749118739E+04  0.12638191940E+04  0.40000000000E+03 0.  1.
<mgrwt>
<rscale>  2 0.46564047E+03</rscale>
<asrwt>0</asrwt>
<pdfrwt beam="1">  1       21 0.39897544E-01 0.46564047E+03</pdfrwt>
<pdfrwt beam="2">  1       21 0.22640359E+00 0.46564047E+03</pdfrwt>
<totfact> 0.45033979E+02</totfact>
</mgrwt>
</event>
<event>
 4    1  0.4760244E-002  0.5878101E+03  0.7818608E-02  0.9931024E-01
         21   -1    0    0  503  502  0.00000000000E+00  0.00000000000E+00  0.16211772973E+04  0.16211772973E+04  0.00000000000E+00 0.  1.
         21   -1    0    0  501  503 -0.00000000000E+00 -0.00000000000E+00 -0.24383359886E+03  0.24383359886E+03  0.00000000000E+00 0.  1.
    9000007    1    1    2  501    0  0.43069094733E+03  0.51039337367E+01  0.10195763138E+04  0.11768842772E+04  0.40000000000E+03 0.  1.
   -9000007    1    1    2    0  502 -0.43069094733E+03 -0.51039337367E+01  0.35776738472E+03  0.68812661903E+03  0.40000000000E+03 0.  1.
<mgrwt>
<rscale>  2 0.58781012E+03</rscale>
<asrwt>0</asrwt>
<pdfrwt beam="1">  1       21 0.24941189E+00 0.58781012E+03</pdfrwt>
<pdfrwt beam="2">  1       21 0.37512862E-01 0.58781012E+03</pdfrwt>
<totfact> 0.34706976E+02</totfact>
</mgrwt>
</event>
<event>
 4    1  0.4760244E-002  0.4006888E+03  0.7818608E-02  0.1043541E+00
         21   -1    0    0  503  502  0.00000000000E+00  0.00000000000E+00  0.84210549159E+03  0.84210549159E+03  0.00000000000E+00 0. -1.
         21   -1    0    0  501  503 -0.00000000000E+00 -0.00000000000E+00 -0.43113594349E+03  0.43113594349E+03  0.00000000000E+00 0. -1.
    9000007    1    1    2  501    0  0.22097914487E+02 -0.79500997984E+01 -0.26997534372E+03  0.48315443507E+03  0.40000000000E+03 0. -1.
   -9000007    1    1    2    0  502 -0.22097914487E+02  0.79500997984E+01  0.68094489181E+03  0.79008700002E+03  0.40000000000E+03 0. -1.
<mgrwt>
<rscale>  2 0.40068881E+03</rscale>
<asrwt>0</asrwt>
<pdfrwt beam="1">  1       21 0.12955469E+00 0.40068881E+03</pdfrwt>
<pdfrwt beam="2">  1       21 0.66328607E-01 0.40068881E+03</pdfrwt>
<totfact> 0.78413271E+02</totfact>
</mgrwt>
</event>
<event>
 4    1  0.4760244E-002  0.4907102E+03  0.7818608E-02  0.1016233E+00
         21   -1    0    0  503  502  0.00000000000E+00  0.00000000000E+00  0.23133964560E+03  0.23133964560E+03  0.00000000000E+00 0.  1.
         21   -1    0    0  501  503 -0.00000000000E+00 -0.00000000000E+00 -0.11447689469E+04  0.11447689469E+04  0.00000000000E+00 0.  1.
    9000007    1    1    2  501    0 -0.28062723927E+03 -0.45219978822E+02 -0.66399174952E+03  0.82564007735E+03  0.40000000000E+03 0.  1.
   -9000007    1    1    2    0  502  0.28062723927E+03  0.45219978822E+02 -0.24943755176E+03  0.55046851512E+03  0.40000000000E+03 0.  1.
<mgrwt>
<rscale>  2 0.49071019E+03</rscale>
<asrwt>0</asrwt>
<pdfrwt beam="1">  1       21 0.35590715E-01 0.49071019E+03</pdfrwt>
<pdfrwt beam="2">  1       21 0.17611830E+00 0.49071019E+03</pdfrwt>
<totfact> 0.12208992E+03</totfact>
</mgrwt>
</event>
<event>
 4    1  0.4760244E-002  0.4650699E+03  0.7818608E-02  0.1023321E+00
         21   -1    0    0  503  502  0.00000000000E+00  0.00000000000E+00  0.98801773953E+02  0.98801773953E+02  0.00000000000E+00 0.  1.
         21   -1    0    0  501  503 -0.00000000000E+00 -0.00000000000E+00 -0.21910582030E+04  0.21910582030E+04  0.00000000000E+00 0.  1.
    9000007    1    1    2  501    0  0.99337904605E+02 -0.21545764436E+03 -0.10121713499E+04  0.11139034327E+04  0.40000000000E+03 0.  1.
   -9000007    1    1    2    0  502 -0.99337904605E+02  0.21545764436E+03 -0.10800850792E+04  0.11759565443E+04  0.40000000000E+03 0.  1.
<mgrwt>
<rscale>  2 0.46506990E+03</rscale>
<asrwt>0</asrwt>
<pdfrwt beam="1">  1       21 0.15200272E-01 0.46506990E+03</pdfrwt>
<pdfrwt beam="2">  1       21 0.33708590E+00 0.46506990E+03</pdfrwt>
<totfact> 0.62544617E+02</totfact>
</mgrwt>
</event>
<event>
 4    1  0.4760244E-002  0.4475689E+03  0.7818608E-02  0.1028450E+00
         21   -1    0    0  503  502  0.00000000000E+00  0.00000000000E+00  0.85161404749E+03  0.85161404749E+03  0.00000000000E+00 0. -1.
         21   -1    0    0  501  503 -0.00000000000E+00 -0.00000000000E+00 -0.25729922788E+03  0.25729922788E+03  0.00000000000E+00 0. -1.
    9000007    1    1    2  501    0  0.44062935661E+02 -0.19589887274E+03  0.45957228382E+03  0.64150182751E+03  0.40000000000E+03 0. -1.
   -9000007    1    1    2    0  502 -0.44062935661E+02  0.19589887274E+03  0.13474253579E+03  0.46741144786E+03  0.40000000000E+03 0. -1.
<mgrwt>
<rscale>  2 0.44756889E+03</rscale>
<asrwt>0</asrwt>
<pdfrwt beam="1">  1       21 0.13101755E+00 0.44756889E+03</pdfrwt>
<pdfrwt beam="2">  1       21 0.39584497E-01 0.44756889E+03</pdfrwt>
<totfact> 0.22472583E+03</totfact>
</mgrwt>
</event>
<event>
 4    1  0.4760244E-002  0.4564568E+03  0.7818608E-02  0.1025814E+00
         21   -1    0    0  503  502  0.00000000000E+00  0.00000000000E+00  0.29360168219E+03  0.29360168219E+03  0.00000000000E+00 0.  1.
         21   -1    0    0  501  503 -0.00000000000E+00 -0.00000000000E+00 -0.82352949014E+03  0.82352949014E+03  0.00000000000E+00 0.  1.
    9000007    1    1    2  501    0  0.11962431152E+03 -0.18450711462E+03 -0.47267879472E+03  0.65709823789E+03  0.40000000000E+03 0.  1.
   -9000007    1    1    2    0  502 -0.11962431152E+03  0.18450711462E+03 -0.57249013230E+02  0.46003293444E+03  0.40000000000E+03 0.  1.
<mgrwt>
<rscale>  2 0.45645684E+03</rscale>
<asrwt>0</asrwt>
<pdfrwt beam="1">  1       21 0.45169490E-01 0.45645684E+03</pdfrwt>
<pdfrwt beam="2">  1       21 0.12669684E+00 0.45645684E+03</pdfrwt>
<totfact> 0.18571021E+03</totfact>
</mgrwt>
</event>
<event>
 4    1  0.4760244E-002  0.4722355E+03  0.7818608E-02  0.1021291E+00
         21   -1    0    0  503  502  0.00000000000E+00  0.00000000000E+00  0.91517137545E+03  0.91517137545E+03  0.00000000000E+00 0.  1.
         21   -1    0    0  501  503 -0.00000000000E+00 -0.00000000000E+00 -0.28672754528E+03  0.28672754528E+03  0.00000000000E+00 0.  1.
    9000007    1    1    2  501    0  0.10598853110E+03 -0.22753635202E+03  0.81363589326E+02  0.47919348272E+03  0.40000000000E+03 0.  1.
   -9000007    1    1    2    0  502 -0.10598853110E+03  0.22753635202E+03  0.54708024084E+03  0.72270543801E+03  0.40000000000E+03 0.  1.
<mgrwt>
<rscale>  2 0.47223549E+03</rscale>
<asrwt>0</asrwt>
<pdfrwt beam="1">  1       21 0.14079559E+00 0.47223549E+03</pdfrwt>
<pdfrwt beam="2">  1       21 0.44111931E-01 0.47223549E+03</pdfrwt>
<totfact> 0.14712795E+03</totfact>
</mgrwt>
</event>
<event>
 4    1  0.4760244E-002  0.4191911E+03  0.7818608E-02  0.1037330E+00
         21   -1    0    0  503  502  0.00000000000E+00  0.00000000000E+00  0.13951674071E+04  0.13951674071E+04  0.00000000000E+00 0. -1.
         21   -1    0    0  501  503 -0.00000000000E+00 -0.00000000000E+00 -0.13110836170E+03  0.13110836170E+03  0.00000000000E+00 0. -1.
    9000007    1    1    2  501    0  0.89757475542E+02  0.87548921442E+02  0.48065693339E+03  0.63777135847E+03  0.40000000000E+03 0. -1.
   -9000007    1    1    2    0  502 -0.89757475542E+02 -0.87548921442E+02  0.78340211197E+03  0.88850441029E+03  0.40000000000E+03 0. -1.
<mgrwt>
<rscale>  2 0.41919115E+03</rscale>
<asrwt>0</asrwt>
<pdfrwt beam="1">  1       21 0.21464113E+00 0.41919115E+03</pdfrwt>
<pdfrwt beam="2">  1       21 0.20170518E-01 0.41919115E+03</pdfrwt>
<totfact> 0.21067767E+03</totfact>
</mgrwt>
</event>
<event>
 4    1  0.4760244E-002  0.4230949E+03  0.7818608E-02  0.1036064E+00
         21   -1    0    0  501  502  0.00000000000E+00  0.00000000000E+00  0.15588223860E+03  0.15588223860E+03  0.00000000000E+00 0. -1.
         21   -1    0    0  502  503 -0.00000000000E+00 -0.00000000000E+00 -0.11824961293E+04  0.11824961293E+04  0.00000000000E+00 0. -1.
    9000007    1    1    2  501    0 -0.48565571060E+02 -0.12903765089E+03 -0.39961236581E+03  0.58197884235E+03  0.40000000000E+03 0. -1.
   -9000007    1    1    2    0  503  0.48565571060E+02  0.12903765089E+03 -0.62700152487E+03  0.75639952553E+03  0.40000000000E+03 0. -1.
<mgrwt>
<rscale>  2 0.42309494E+03</rscale>
<asrwt>0</asrwt>
<pdfrwt beam="1">  1       21 0.23981883E-01 0.42309494E+03</pdfrwt>
<pdfrwt beam="2">  1       21 0.18192248E+00 0.42309494E+03</pdfrwt>
<totfact> 0.24977953E+03</totfact>
</mgrwt>
</event>
<event>
 4    1  0.4760244E-002  0.9610836E+03  0.7818608E-02  0.9352289E-01
         21   -1    0    0  501  502  0.00000000000E+00  0.00000000000E+00  0.83983302263E+03  0.83983302263E+03  0.00000000000E+00 0.  1.
         21   -1    0    0  502  503 -0.00000000000E+00 -0.00000000000E+00 -0.16088980364E+04  0.16088980364E+04  0.00000000000E+00 0. -1.
    9000007    1    1    2  501    0  0.29271304402E+03 -0.82340798232E+03 -0.10732333978E+04  0.14406635824E+04  0.40000000000E+03 0. -1.
   -9000007    1    1    2    0  503 -0.29271304402E+03  0.82340798232E+03  0.30416838407E+03  0.10080674766E+04  0.40000000000E+03 0.  1.
<mgrwt>
<rscale>  2 0.96108357E+03</rscale>
<asrwt>0</asrwt>
<pdfrwt beam="1">  1       21 0.12920508E+00 0.96108357E+03</pdfrwt>
<pdfrwt beam="2">  1       21 0.24752277E+00 0.96108357E+03</pdfrwt>
<totfact> 0.18240671E+01</totfact>
</mgrwt>
</event>
<event>
 4    1  0.4760244E-002  0.4416296E+03  0.7818608E-02  0.1030248E+00
         21   -1    0    0  503  502  0.00000000000E+00  0.00000000000E+00  0.64910158617E+03  0.64910158617E+03  0.00000000000E+00 0. -1.
         21   -1    0    0  501  503 -0.00000000000E+00 -0.00000000000E+00 -0.36354003718E+03  0.36354003718E+03  0.00000000000E+00 0.  1.
    9000007    1    1    2  501    0  0.43955306106E+02  0.18194683120E+03 -0.68108756397E+02  0.44685066971E+03  0.40000000000E+03 0.  1.
   -9000007    1    1    2    0  502 -0.43955306106E+02 -0.18194683120E+03  0.35367030538E+03  0.56579095365E+03  0.40000000000E+03 0. -1.
<mgrwt>
<rscale>  2 0.44162962E+03</rscale>
<asrwt>0</asrwt>
<pdfrwt beam="1">  1       21 0.99861782E-01 0.44162962E+03</pdfrwt>
<pdfrwt beam="2">  1       21 0.55929237E-01 0.44162962E+03</pdfrwt>
<totfact> 0.21483664E+03</totfact>
</mgrwt>
</event>
<event>
 4    1  0.4760244E-002  0.6301999E+03  0.7818608E-02  0.9844659E-01
         21   -1    0    0  503  502  0.00000000000E+00  0.00000000000E+00  0.17386851858E+04  0.17386851858E+04  0.00000000000E+00 0. -1.
         21   -1    0    0  501  503 -0.00000000000E+00 -0.00000000000E+00 -0.84061070569E+03  0.84061070569E+03  0.00000000000E+00 0. -1.
    9000007    1    1    2  501    0  0.40394644325E+02 -0.48530424392E+03 -0.65153050136E+03  0.90644576819E+03  0.40000000000E+03 0. -1.
   -9000007    1    1    2    0  502 -0.40394644325E+02  0.48530424392E+03  0.15496049815E+04  0.16728501233E+04  0.40000000000E+03 0. -1.
<mgrwt>
<rscale>  2 0.63019992E+03</rscale>
<asrwt>0</asrwt>
<pdfrwt beam="1">  1       21 0.26749003E+00 0.63019992E+03</pdfrwt>
<pdfrwt beam="2">  1       21 0.12932472E+00 0.63019992E+03</pdfrwt>
<totfact> 0.15501197E+01</totfact>
</mgrwt>
</event>
<event>
 4    1  0.4760244E-002  0.4969062E+03  0.7818608E-02  0.1014590E+00
         21   -1    0    0  501  502  0.00000000000E+00  0.00000000000E+00  0.23799149572E+03  0.23799149572E+03  0.00000000000E+00 0. -1.
         21   -1    0    0  502  503 -0.00000000000E+00 -0.00000000000E+00 -0.13110707321E+04  0.13110707321E+04  0.00000000000E+00 0. -1.
    9000007    1    1    2  501    0 -0.20125842503E+03 -0.21543164898E+03 -0.18273617883E+03  0.52944146049E+03  0.40000000000E+03 0. -1.
   -9000007    1    1    2    0  503  0.20125842503E+03  0.21543164898E+03 -0.89034305751E+03  0.10196207673E+04  0.40000000000E+03 0. -1.
<mgrwt>
<rscale>  2 0.49690618E+03</rscale>
<asrwt>0</asrwt>
<pdfrwt beam="1">  1       21 0.36614077E-01 0.49690618E+03</pdfrwt>
<pdfrwt beam="2">  1       21 0.20170319E+00 0.49690618E+03</pdfrwt>
<totfact> 0.76558802E+02</totfact>
</mgrwt>
</event>
<event>
 4    1  0.4760244E-002  0.4373732E+03  0.7818608E-02  0.1031556E+00
         21   -1    0    0  501  502  0.00000000000E+00  0.00000000000E+00  0.12067133846E+03  0.12067133846E+03  0.00000000000E+00 0. -1.
         21   -1    0    0  502  503 -0.00000000000E+00 -0.00000000000E+00 -0.16310021148E+04  0.16310021148E+04  0.00000000000E+00 0. -1.
    9000007    1    1    2  501    0  0.11409975067E+03 -0.13519074417E+03 -0.90184175084E+03  0.10023042622E+04  0.40000000000E+03 0. -1.
   -9000007    1    1    2    0  503 -0.11409975067E+03  0.13519074417E+03 -0.60848902554E+03  0.74936919113E+03  0.40000000000E+03 0. -1.
<mgrwt>
<rscale>  2 0.43737317E+03</rscale>
<asrwt>0</asrwt>
<pdfrwt beam="1">  1       21 0.18564822E-01 0.43737317E+03</pdfrwt>
<pdfrwt beam="2">  1       21 0.25092340E+00 0.43737317E+03</pdfrwt>
<totfact> 0.14483982E+03</totfact>
</mgrwt>
</event>
<event>
 4    1  0.4760244E-002  0.4429367E+03  0.7818608E-02  0.1029850E+00
         21   -1    0    0  501  502  0.00000000000E+00  0.00000000000E+00  0.84860911290E+03  0.84860911290E+03  0.00000000000E+00 0. -1.
         21   -1    0    0  502  503 -0.00000000000E+00 -0.00000000000E+00 -0.56274163133E+03  0.56274163133E+03  0.00000000000E+00 0. -1.
    9000007    1    1    2  501    0  0.13324497512E+03 -0.13578928374E+03  0.68458991524E+03  0.81538721171E+03  0.40000000000E+03 0. -1.
   -9000007    1    1    2    0  503 -0.13324497512E+03  0.13578928374E+03 -0.39872243368E+03  0.59596353252E+03  0.40000000000E+03 0. -1.
<mgrwt>
<rscale>  2 0.44293674E+03</rscale>
<asrwt>0</asrwt>
<pdfrwt beam="1">  1       21 0.13055525E+00 0.44293674E+03</pdfrwt>
<pdfrwt beam="2">  1       21 0.86575636E-01 0.44293674E+03</pdfrwt>
<totfact> 0.40993670E+02</totfact>
</mgrwt>
</event>
<event>
 4    1  0.4760244E-002  0.4031567E+03  0.7818608E-02  0.1042692E+00
         21   -1    0    0  503  502  0.00000000000E+00  0.00000000000E+00  0.70908985221E+03  0.70908985221E+03  0.00000000000E+00 0. -1.
         21   -1    0    0  501  503 -0.00000000000E+00 -0.00000000000E+00 -0.23089757889E+03  0.23089757889E+03  0.00000000000E+00 0. -1.
    9000007    1    1    2  501    0  0.43535082469E+02  0.25298137252E+02  0.27919564550E+03  0.49039321735E+03  0.40000000000E+03 0.  1.
   -9000007    1    1    2    0  502 -0.43535082469E+02 -0.25298137252E+02  0.19899662781E+03  0.44959421375E+03  0.40000000000E+03 0.  1.
<mgrwt>
<rscale>  2 0.40315667E+03</rscale>
<asrwt>0</asrwt>
<pdfrwt beam="1">  1       21 0.10909075E+00 0.40315667E+03</pdfrwt>
<pdfrwt beam="2">  1       21 0.35522705E-01 0.40315667E+03</pdfrwt>
<totfact> 0.45325296E+03</totfact>
</mgrwt>
</event>
<event>
 4    1  0.4760244E-002  0.4671474E+03  0.7818608E-02  0.1022728E+00
         21   -1    0    0  503  502  0.00000000000E+00  0.00000000000E+00  0.21525203300E+03  0.21525203300E+03  0.00000000000E+00 0. -1.
         21   -1    0    0  501  503 -0.00000000000E+00 -0.00000000000E+00 -0.16629147343E+04  0.16629147343E+04  0.00000000000E+00 0. -1.
    9000007    1    1    2  501    0  0.13438607929E+02  0.24092754313E+03 -0.13105412611E+04  0.13913105600E+04  0.40000000000E+03 0. -1.
   -9000007    1    1    2    0  502 -0.13438607929E+02 -0.24092754313E+03 -0.13712144015E+03  0.48685620728E+03  0.40000000000E+03 0. -1.
<mgrwt>
<rscale>  2 0.46714738E+03</rscale>
<asrwt>0</asrwt>
<pdfrwt beam="1">  1       21 0.33115697E-01 0.46714738E+03</pdfrwt>
<pdfrwt beam="2">  1       21 0.25583304E+00 0.46714738E+03</pdfrwt>
<totfact> 0.43143792E+02</totfact>
</mgrwt>
</event>
<event>
 4    1  0.4760244E-002  0.4391883E+03  0.7818608E-02  0.1030996E+00
         21   -1    0    0  501  502  0.00000000000E+00  0.00000000000E+00  0.35880531254E+03  0.35880531254E+03  0.00000000000E+00 0. -1.
         21   -1    0    0  502  503 -0.00000000000E+00 -0.00000000000E+00 -0.57878843038E+03  0.57878843038E+03  0.00000000000E+00 0. -1.
    9000007    1    1    2  501    0 -0.14409705352E+03  0.11010171949E+03  0.15097956782E+02  0.43944771904E+03  0.40000000000E+03 0.  1.
   -9000007    1    1    2    0  503  0.14409705352E+03 -0.11010171949E+03 -0.23508107462E+03  0.49814602389E+03  0.40000000000E+03 0.  1.
<mgrwt>
<rscale>  2 0.43918828E+03</rscale>
<asrwt>0</asrwt>
<pdfrwt beam="1">  1       21 0.55200818E-01 0.43918828E+03</pdfrwt>
<pdfrwt beam="2">  1       21 0.89044373E-01 0.43918828E+03</pdfrwt>
<totfact> 0.29100821E+03</totfact>
</mgrwt>
</event>
<event>
 4    1  0.4760244E-002  0.4086179E+03  0.7818608E-02  0.1040836E+00
         21   -1    0    0  501  502  0.00000000000E+00  0.00000000000E+00  0.31168057928E+04  0.31168057928E+04  0.00000000000E+00 0. -1.
         21   -1    0    0  502  503 -0.00000000000E+00 -0.00000000000E+00 -0.10974618839E+03  0.10974618839E+03  0.00000000000E+00 0. -1.
    9000007    1    1    2  501    0  0.48498870885E+02 -0.67944200521E+02  0.26577495719E+04  0.26889777503E+04  0.40000000000E+03 0. -1.
   -9000007    1    1    2    0  503 -0.48498870885E+02  0.67944200521E+02  0.34931003250E+03  0.53757423084E+03  0.40000000000E+03 0. -1.
<mgrwt>
<rscale>  2 0.40861786E+03</rscale>
<asrwt>0</asrwt>
<pdfrwt beam="1">  1       21 0.47950852E+00 0.40861786E+03</pdfrwt>
<pdfrwt beam="2">  1       21 0.16884031E-01 0.40861786E+03</pdfrwt>
<totfact> 0.63665295E+01</totfact>
</mgrwt>
</event>
<event>
 4    1  0.4760244E-002  0.4706197E+03  0.7818608E-02  0.1021745E+00
         21   -1    0    0  501  502  0.00000000000E+00  0.00000000000E+00  0.51350810435E+03  0.51350810435E+03  0.00000000000E+00 0.  1.
         21   -1    0    0  502  503 -0.00000000000E+00 -0.00000000000E+00 -0.44358254549E+03  0.44358254549E+03  0.00000000000E+00 0.  1.
    9000007    1    1    2  501    0  0.14274243458E+03  0.20274973306E+03  0.11455037934E+03  0.48436003788E+03  0.40000000000E+03 0.  1.
   -9000007    1    1    2    0  503 -0.14274243458E+03 -0.20274973306E+03 -0.44624820479E+02  0.47273061197E+03  0.40000000000E+03 0.  1.
<mgrwt>
<rscale>  2 0.47061965E+03</rscale>
<asrwt>0</asrwt>
<pdfrwt beam="1">  1       21 0.79001247E-01 0.47061965E+03</pdfrwt>
<pdfrwt beam="2">  1       21 0.68243468E-01 0.47061965E+03</pdfrwt>
<totfact> 0.23855019E+03</totfact>
</mgrwt>
</event>
<event>
 4    1  0.4760244E-002  0.4151845E+03  0.7818608E-02  0.1038645E+00
         21   -1    0    0  501  502  0.00000000000E+00  0.00000000000E+00  0.64400804530E+03  0.64400804530E+03  0.00000000000E+00 0.  1.
         21   -1    0    0  502  503 -0.00000000000E+00 -0.00000000000E+00 -0.87556294002E+03  0.87556294002E+03  0.00000000000E+00 0.  1.
    9000007    1    1    2  501    0 -0.10870108761E+03 -0.23711044538E+02  0.51730868271E+03  0.66331471663E+03  0.40000000000E+03 0.  1.
   -9000007    1    1    2    0  503  0.10870108761E+03  0.23711044538E+02 -0.74886357743E+03  0.85625626870E+03  0.40000000000E+03 0.  1.
<mgrwt>
<rscale>  2 0.41518447E+03</rscale>
<asrwt>0</asrwt>
<pdfrwt beam="1">  1       21 0.99078161E-01 0.41518447E+03</pdfrwt>
<pdfrwt beam="2">  1       21 0.13470199E+00 0.41518447E+03</pdfrwt>
<totfact> 0.27793243E+02</totfact>
</mgrwt>
</event>
<event>
 4    1  0.4760244E-002  0.4034355E+03  0.7818608E-02  0.1042597E+00
         21   -1    0    0  503  502  0.00000000000E+00  0.00000000000E+00  0.10768754094E+03  0.10768754094E+03  0.00000000000E+00 0.  1.
         21   -1    0    0  501  503 -0.00000000000E+00 -0.00000000000E+00 -0.22222181440E+04  0.22222181440E+04  0.00000000000E+00 0. -1.
    9000007    1    1    2  501    0  0.46132160512E+02  0.25139847356E+02 -0.17161216561E+04  0.17629049114E+04  0.40000000000E+03 0. -1.
   -9000007    1    1    2    0  502 -0.46132160512E+02 -0.25139847356E+02 -0.39840894698E+03  0.56700077354E+03  0.40000000000E+03 0.  1.
<mgrwt>
<rscale>  2 0.40343548E+03</rscale>
<asrwt>0</asrwt>
<pdfrwt beam="1">  1       21 0.16567315E-01 0.40343548E+03</pdfrwt>
<pdfrwt beam="2">  1       21 0.34187970E+00 0.40343548E+03</pdfrwt>
<totfact> 0.51740896E+02</totfact>
</mgrwt>
</event>
<event>
 4    1  0.4760244E-002  0.6378348E+03  0.7818608E-02  0.9829878E-01
         21   -1    0    0  503  502  0.00000000000E+00  0.00000000000E+00  0.14391898047E+04  0.14391898047E+04  0.00000000000E+00 0. -1.
         21   -1    0    0  501  503 -0.00000000000E+00 -0.00000000000E+00 -0.29069543361E+03  0.29069543361E+03  0.00000000000E+00 0.  1.
    9000007    1    1    2  501    0 -0.40331168531E+03 -0.29012576120E+03  0.43064092849E+03  0.76960046915E+03  0.40000000000E+03 0.  1.
   -9000007    1    1    2    0  502  0.40331168531E+03  0.29012576120E+03  0.71785344260E+03  0.96028476916E+03  0.40000000000E+03 0. -1.
<mgrwt>
<rscale>  2 0.63783483E+03</rscale>
<asrwt>0</asrwt>
<pdfrwt beam="1">  1       21 0.22141381E+00 0.63783483E+03</pdfrwt>
<pdfrwt beam="2">  1       21 0.44722375E-01 0.63783483E+03</pdfrwt>
<totfact> 0.35543010E+02</totfact>
</mgrwt>
</event>
<event>
 4    1  0.4760244E-002  0.4762283E+03  0.7818608E-02  0.1020177E+00
         21   -1    0    0  503  502  0.00000000000E+00  0.00000000000E+00  0.39258313500E+03  0.39258313500E+03  0.00000000000E+00 0.  1.
         21   -1    0    0  501  503 -0.00000000000E+00 -0.00000000000E+00 -0.91101291719E+03  0.91101291719E+03  0.00000000000E+00 0. -1.
    9000007    1    1    2  501    0  0.10754786703E+03  0.23500392180E+03 -0.65347240806E+03  0.80859110498E+03  0.40000000000E+03 0.  1.
   -9000007    1    1    2    0  502 -0.10754786703E+03 -0.23500392180E+03  0.13504262587E+03  0.49500494721E+03  0.40000000000E+03 0.  1.
<mgrwt>
<rscale>  2 0.47622829E+03</rscale>
<asrwt>0</asrwt>
<pdfrwt beam="1">  1       21 0.60397406E-01 0.47622829E+03</pdfrwt>
<pdfrwt beam="2">  1       21 0.14015583E+00 0.47622829E+03</pdfrwt>
<totfact> 0.75869302E+02</totfact>
</mgrwt>
</event>
<event>
 4    1  0.4760244E-002  0.4198592E+03  0.7818608E-02  0.1037112E+00
         21   -1    0    0  503  502  0.00000000000E+00  0.00000000000E+00  0.14512250695E+04  0.14512250695E+04  0.00000000000E+00 0. -1.
         21   -1    0    0  501  503 -0.00000000000E+00 -0.00000000000E+00 -0.13106916621E+03  0.13106916621E+03  0.00000000000E+00 0. -1.
    9000007    1    1    2  501    0 -0.10249796914E+03  0.75999332528E+02  0.44598540180E+03  0.61252323290E+03  0.40000000000E+03 0. -1.
   -9000007    1    1    2    0  502  0.10249796914E+03 -0.75999332528E+02  0.87417050145E+03  0.96977100278E+03  0.40000000000E+03 0. -1.
<mgrwt>
<rscale>  2 0.41985918E+03</rscale>
<asrwt>0</asrwt>
<pdfrwt beam="1">  1       21 0.22326538E+00 0.41985918E+03</pdfrwt>
<pdfrwt beam="2">  1       21 0.20164488E-01 0.41985918E+03</pdfrwt>
<totfact> 0.18562138E+03</totfact>
</mgrwt>
</event>
<event>
 4    1  0.4760244E-002  0.4066624E+03  0.7818608E-02  0.1041497E+00
         21   -1    0    0  503  502  0.00000000000E+00  0.00000000000E+00  0.14813779590E+03  0.14813779590E+03  0.00000000000E+00 0.  1.
         21   -1    0    0  501  503 -0.00000000000E+00 -0.00000000000E+00 -0.12676101819E+04  0.12676101819E+04  0.00000000000E+00 0.  1.
    9000007    1    1    2  501    0  0.66154095148E+02  0.31590251265E+02 -0.80425868641E+03  0.90122491252E+03  0.40000000000E+03 0.  1.
   -9000007    1    1    2    0  502 -0.66154095148E+02 -0.31590251265E+02 -0.31521369955E+03  0.51452306524E+03  0.40000000000E+03 0.  1.
<mgrwt>
<rscale>  2 0.40666240E+03</rscale>
<asrwt>0</asrwt>
<pdfrwt beam="1">  1       21 0.22790430E-01 0.40666240E+03</pdfrwt>
<pdfrwt beam="2">  1       21 0.19501695E+00 0.40666240E+03</pdfrwt>
<totfact> 0.22580045E+03</totfact>
</mgrwt>
</event>
<event>
 4    1  0.4760244E-002  0.4051198E+03  0.7818608E-02  0.1042021E+00
         21   -1    0    0  503  502  0.00000000000E+00  0.00000000000E+00  0.10945330027E+04  0.10945330027E+04  0.00000000000E+00 0.  1.
         21   -1    0    0  501  503 -0.00000000000E+00 -0.00000000000E+00 -0.27808437426E+03  0.27808437426E+03  0.00000000000E+00 0.  1.
    9000007    1    1    2  501    0  0.63948794032E+02  0.57088912902E+01 -0.57650207500E+02  0.40920115606E+03  0.40000000000E+03 0.  1.
   -9000007    1    1    2    0  502 -0.63948794032E+02 -0.57088912902E+01  0.87409883591E+03  0.96341622087E+03  0.40000000000E+03 0.  1.
<mgrwt>
<rscale>  2 0.40511978E+03</rscale>
<asrwt>0</asrwt>
<pdfrwt beam="1">  1       21 0.16838969E+00 0.40511978E+03</pdfrwt>
<pdfrwt beam="2">  1       21 0.42782212E-01 0.40511978E+03</pdfrwt>
<totfact> 0.98812978E+02</totfact>
</mgrwt>
</event>
<event>
 4    1  0.4760244E-002  0.5243187E+03  0.7818608E-02  0.1007619E+00
         21   -1    0    0  501  502  0.00000000000E+00  0.00000000000E+00  0.13844160493E+03  0.13844160493E+03  0.00000000000E+00 0. -1.
         21   -1    0    0  502  503 -0.00000000000E+00 -0.00000000000E+00 -0.21056768127E+04  0.21056768127E+04  0.00000000000E+00 0. -1.
    9000007    1    1    2  501    0  0.17882967991E+03  0.28797581606E+03 -0.71583529561E+03  0.88731634466E+03  0.40000000000E+03 0. -1.
   -9000007    1    1    2    0  503 -0.17882967991E+03 -0.28797581606E+03 -0.12513999121E+04  0.13568020729E+04  0.40000000000E+03 0. -1.
<mgrwt>
<rscale>  2 0.52431872E+03</rscale>
<asrwt>0</asrwt>
<pdfrwt beam="1">  1       21 0.21298709E-01 0.52431872E+03</pdfrwt>
<pdfrwt beam="2">  1       21 0.32395026E+00 0.52431872E+03</pdfrwt>
<totfact> 0.38524926E+02</totfact>
</mgrwt>
</event>
<event>
 4    1  0.4760244E-002  0.4087023E+03  0.7818608E-02  0.1040807E+00
         21   -1    0    0  501  502  0.00000000000E+00  0.00000000000E+00  0.62023355739E+03  0.62023355739E+03  0.00000000000E+00 0.  1.
         21   -1    0    0  502  503 -0.00000000000E+00 -0.00000000000E+00 -0.76969422565E+03  0.76969422565E+03  0.00000000000E+00 0.  1.
    9000007    1    1    2  501    0  0.34022324094E+02 -0.76681676729E+02  0.48561167508E+03  0.63470961632E+03  0.40000000000E+03 0.  1.
   -9000007    1    1    2    0  503 -0.34022324094E+02  0.76681676729E+02 -0.63507234333E+03  0.75521816672E+03  0.40000000000E+03 0.  1.
<mgrwt>
<rscale>  2 0.40870233E+03</rscale>
<asrwt>0</asrwt>
<pdfrwt beam="1">  1       21 0.95420547E-01 0.40870233E+03</pdfrwt>
<pdfrwt beam="2">  1       21 0.11841450E+00 0.40870233E+03</pdfrwt>
<totfact> 0.42517068E+02</totfact>
</mgrwt>
</event>
<event>
 4    1  0.4760244E-002  0.4128329E+03  0.7818608E-02  0.1039425E+00
         21   -1    0    0  503  502  0.00000000000E+00  0.00000000000E+00  0.62244559686E+03  0.62244559686E+03  0.00000000000E+00 0. -1.
         21   -1    0    0  501  503 -0.00000000000E+00 -0.00000000000E+00 -0.27529981914E+03  0.27529981914E+03  0.00000000000E+00 0. -1.
    9000007    1    1    2  501    0 -0.16219010811E+02  0.10083631644E+03  0.14053771729E+03  0.43609846251E+03  0.40000000000E+03 0. -1.
   -9000007    1    1    2    0  502  0.16219010811E+02 -0.10083631644E+03  0.20660806043E+03  0.46164695348E+03  0.40000000000E+03 0. -1.
<mgrwt>
<rscale>  2 0.41283292E+03</rscale>
<asrwt>0</asrwt>
<pdfrwt beam="1">  1       21 0.95760861E-01 0.41283292E+03</pdfrwt>
<pdfrwt beam="2">  1       21 0.42353818E-01 0.41283292E+03</pdfrwt>
<totfact> 0.43280278E+03</totfact>
</mgrwt>
</event>
<event>
 4    1  0.4760244E-002  0.5416787E+03  0.7818608E-02  0.1003439E+00
         21   -1    0    0  501  502  0.00000000000E+00  0.00000000000E+00  0.32197080390E+03  0.32197080390E+03  0.00000000000E+00 0.  1.
         21   -1    0    0  502  503 -0.00000000000E+00 -0.00000000000E+00 -0.94986541628E+03  0.94986541628E+03  0.00000000000E+00 0. -1.
    9000007    1    1    2  501    0 -0.28212693146E+03  0.23199192119E+03 -0.18583183024E+03  0.57266860057E+03  0.40000000000E+03 0.  1.
   -9000007    1    1    2    0  503  0.28212693146E+03 -0.23199192119E+03 -0.44206278215E+03  0.69916761961E+03  0.40000000000E+03 0. -1.
<mgrwt>
<rscale>  2 0.54167874E+03</rscale>
<asrwt>0</asrwt>
<pdfrwt beam="1">  1       21 0.49533970E-01 0.54167874E+03</pdfrwt>
<pdfrwt beam="2">  1       21 0.14613314E+00 0.54167874E+03</pdfrwt>
<totfact> 0.10158990E+03</totfact>
</mgrwt>
</event>
<event>
 4    1  0.4760244E-002  0.4430128E+03  0.7818608E-02  0.1029826E+00
         21   -1    0    0  501  502  0.00000000000E+00  0.00000000000E+00  0.73149877459E+03  0.73149877459E+03  0.00000000000E+00 0.  1.
         21   -1    0    0  502  503 -0.00000000000E+00 -0.00000000000E+00 -0.46128196646E+03  0.46128196646E+03  0.00000000000E+00 0. -1.
    9000007    1    1    2  501    0 -0.17265537288E+03  0.80314883298E+02  0.52085928074E+03  0.68377975153E+03  0.40000000000E+03 0.  1.
   -9000007    1    1    2    0  503  0.17265537288E+03 -0.80314883298E+02 -0.25064247261E+03  0.50900098953E+03  0.40000000000E+03 0. -1.
<mgrwt>
<rscale>  2 0.44301282E+03</rscale>
<asrwt>0</asrwt>
<pdfrwt beam="1">  1       21 0.11253827E+00 0.44301282E+03</pdfrwt>
<pdfrwt beam="2">  1       21 0.70966456E-01 0.44301282E+03</pdfrwt>
<totfact> 0.94512670E+02</totfact>
</mgrwt>
</event>
<event>
 4    1  0.4760244E-002  0.4533104E+03  0.7818608E-02  0.1026739E+00
         21   -1    0    0  503  502  0.00000000000E+00  0.00000000000E+00  0.58822738583E+03  0.58822738583E+03  0.00000000000E+00 0. -1.
         21   -1    0    0  501  503 -0.00000000000E+00 -0.00000000000E+00 -0.35590385080E+03  0.35590385080E+03  0.00000000000E+00 0. -1.
    9000007    1    1    2  501    0 -0.67470427948E+02 -0.20233147308E+03  0.52044409164E+02  0.45628818106E+03  0.40000000000E+03 0.  1.
   -9000007    1    1    2    0  502  0.67470427948E+02  0.20233147308E+03  0.18027912586E+03  0.48784305557E+03  0.40000000000E+03 0.  1.
<mgrwt>
<rscale>  2 0.45331036E+03</rscale>
<asrwt>0</asrwt>
<pdfrwt beam="1">  1       21 0.90496521E-01 0.45331036E+03</pdfrwt>
<pdfrwt beam="2">  1       21 0.54754438E-01 0.45331036E+03</pdfrwt>
<totfact> 0.28358053E+03</totfact>
</mgrwt>
</event>
<event>
 4    1  0.4760244E-002  0.4376865E+03  0.7818608E-02  0.1031459E+00
         21   -1    0    0  501  502  0.00000000000E+00  0.00000000000E+00  0.21649182315E+03  0.21649182315E+03  0.00000000000E+00 0. -1.
         21   -1    0    0  502  503 -0.00000000000E+00 -0.00000000000E+00 -0.16204320518E+04  0.16204320518E+04  0.00000000000E+00 0. -1.
    9000007    1    1    2  501    0  0.49528854825E+02  0.17063530078E+03 -0.83167493684E+02  0.44551806399E+03  0.40000000000E+03 0. -1.
   -9000007    1    1    2    0  503 -0.49528854825E+02 -0.17063530078E+03 -0.13207727350E+04  0.13914058110E+04  0.40000000000E+03 0. -1.
<mgrwt>
<rscale>  2 0.43768655E+03</rscale>
<asrwt>0</asrwt>
<pdfrwt beam="1">  1       21 0.33306433E-01 0.43768655E+03</pdfrwt>
<pdfrwt beam="2">  1       21 0.24929725E+00 0.43768655E+03</pdfrwt>
<totfact> 0.47513455E+02</totfact>
</mgrwt>
</event>
<event>
 4    1  0.4760244E-002  0.5071169E+03  0.7818608E-02  0.1011938E+00
         21   -1    0    0  501  502  0.00000000000E+00  0.00000000000E+00  0.42047174569E+03  0.42047174569E+03  0.00000000000E+00 0.  1.
         21   -1    0    0  502  503 -0.00000000000E+00 -0.00000000000E+00 -0.61326031163E+03  0.61326031163E+03  0.00000000000E+00 0.  1.
    9000007    1    1    2  501    0 -0.30332746710E+03  0.71833183646E+02 -0.12315204658E+03  0.52185628783E+03  0.40000000000E+03 0.  1.
   -9000007    1    1    2    0  503  0.30332746710E+03 -0.71833183646E+02 -0.69636519365E+02  0.51187576950E+03  0.40000000000E+03 0.  1.
<mgrwt>
<rscale>  2 0.50711691E+03</rscale>
<asrwt>0</asrwt>
<pdfrwt beam="1">  1       21 0.64687961E-01 0.50711691E+03</pdfrwt>
<pdfrwt beam="2">  1       21 0.94347740E-01 0.50711691E+03</pdfrwt>
<totfact> 0.17485868E+03</totfact>
</mgrwt>
</event>
<event>
 4    1  0.4760244E-002  0.4575788E+03  0.7818608E-02  0.1025486E+00
         21   -1    0    0  503  502  0.00000000000E+00  0.00000000000E+00  0.17256119913E+03  0.17256119913E+03  0.00000000000E+00 0. -1.
         21   -1    0    0  501  503 -0.00000000000E+00 -0.00000000000E+00 -0.13300219153E+04  0.13300219153E+04  0.00000000000E+00 0. -1.
    9000007    1    1    2  501    0 -0.51659928350E+02 -0.21612402777E+03 -0.80124018427E+03  0.92269397769E+03  0.40000000000E+03 0. -1.
   -9000007    1    1    2    0  502  0.51659928350E+02  0.21612402777E+03 -0.35622053192E+03  0.57988913676E+03  0.40000000000E+03 0. -1.
<mgrwt>
<rscale>  2 0.45757878E+03</rscale>
<asrwt>0</asrwt>
<pdfrwt beam="1">  1       21 0.26547876E-01 0.45757878E+03</pdfrwt>
<pdfrwt beam="2">  1       21 0.20461876E+00 0.45757878E+03</pdfrwt>
<totfact> 0.14163019E+03</totfact>
</mgrwt>
</event>
<event>
 4    1  0.4760244E-002  0.7389721E+03  0.7818608E-02  0.9652812E-01
         21   -1    0    0  501  502  0.00000000000E+00  0.00000000000E+00  0.10949872081E+04  0.10949872081E+04  0.00000000000E+00 0.  1.
         21   -1    0    0  502  503 -0.00000000000E+00 -0.00000000000E+00 -0.60930899905E+03  0.60930899905E+03  0.00000000000E+00 0.  1.
    9000007    1    1    2  501    0  0.48796143650E+03 -0.38467307299E+03  0.60589565391E+03  0.95560937628E+03  0.40000000000E+03 0.  1.
   -9000007    1    1    2    0  503 -0.48796143650E+03  0.38467307299E+03 -0.12021744492E+03  0.74868683083E+03  0.40000000000E+03 0.  1.
<mgrwt>
<rscale>  2 0.73897208E+03</rscale>
<asrwt>0</asrwt>
<pdfrwt beam="1">  1       21 0.16845957E+00 0.73897208E+03</pdfrwt>
<pdfrwt beam="2">  1       21 0.93739846E-01 0.73897208E+03</pdfrwt>
<totfact> 0.15096575E+02</totfact>
</mgrwt>
</event>
<event>
 4    1  0.4760244E-002  0.4234169E+03  0.7818608E-02  0.1035960E+00
         21   -1    0    0  503  502  0.00000000000E+00  0.00000000000E+00  0.10420052830E+04  0.10420052830E+04  0.00000000000E+00 0.  1.
         21   -1    0    0  501  503 -0.00000000000E+00 -0.00000000000E+00 -0.22365740865E+03  0.22365740865E+03  0.00000000000E+00 0.  1.
    9000007    1    1    2  501    0 -0.13453588886E+03  0.34379270905E+02  0.10520244383E+03  0.43629049250E+03  0.40000000000E+03 0.  1.
   -9000007    1    1    2    0  502  0.13453588886E+03 -0.34379270905E+02  0.71314543052E+03  0.82937219916E+03  0.40000000000E+03 0.  1.
<mgrwt>
<rscale>  2 0.42341686E+03</rscale>
<asrwt>0</asrwt>
<pdfrwt beam="1">  1       21 0.16030850E+00 0.42341686E+03</pdfrwt>
<pdfrwt beam="2">  1       21 0.34408833E-01 0.42341686E+03</pdfrwt>
<totfact> 0.17558412E+03</totfact>
</mgrwt>
</event>
<event>
 4    1  0.4760244E-002  0.4892864E+03  0.7818608E-02  0.1016614E+00
         21   -1    0    0  501  502  0.00000000000E+00  0.00000000000E+00  0.28533075658E+04  0.28533075658E+04  0.00000000000E+00 0.  1.
         21   -1    0    0  502  503 -0.00000000000E+00 -0.00000000000E+00 -0.34489657931E+03  0.34489657931E+03  0.00000000000E+00 0.  1.
    9000007    1    1    2  501    0 -0.26863324736E+03  0.85072683395E+02  0.26452679186E+04  0.26901382017E+04  0.40000000000E+03 0.  1.
   -9000007    1    1    2    0  503  0.26863324736E+03 -0.85072683395E+02 -0.13685693206E+03  0.50806594346E+03  0.40000000000E+03 0.  1.
<mgrwt>
<rscale>  2 0.48928640E+03</rscale>
<asrwt>0</asrwt>
<pdfrwt beam="1">  1       21 0.43897038E+00 0.48928640E+03</pdfrwt>
<pdfrwt beam="2">  1       21 0.53061014E-01 0.48928640E+03</pdfrwt>
<totfact> 0.11543463E+01</totfact>
</mgrwt>
</event>
<event>
 4    1  0.4760244E-002  0.4107932E+03  0.7818608E-02  0.1040105E+00
         21   -1    0    0  503  502  0.00000000000E+00  0.00000000000E+00  0.74541924025E+03  0.74541924025E+03  0.00000000000E+00 0.  1.
         21   -1    0    0  501  503 -0.00000000000E+00 -0.00000000000E+00 -0.24187640624E+03  0.24187640624E+03  0.00000000000E+00 0.  1.
    9000007    1    1    2  501    0  0.34854798070E+02 -0.86811272188E+02  0.12683797785E+03  0.42992897850E+03  0.40000000000E+03 0.  1.
   -9000007    1    1    2    0  502 -0.34854798070E+02  0.86811272188E+02  0.37670485616E+03  0.55736666799E+03  0.40000000000E+03 0.  1.
<mgrwt>
<rscale>  2 0.41079320E+03</rscale>
<asrwt>0</asrwt>
<pdfrwt beam="1">  1       21 0.11467988E+00 0.41079320E+03</pdfrwt>
<pdfrwt beam="2">  1       21 0.37211755E-01 0.41079320E+03</pdfrwt>
<totfact> 0.36329642E+03</totfact>
</mgrwt>
</event>
<event>
 4    1  0.4760244E-002  0.4184056E+03  0.7818608E-02  0.1037586E+00
         21   -1    0    0  503  502  0.00000000000E+00  0.00000000000E+00  0.40769243591E+03  0.40769243591E+03  0.00000000000E+00 0.  1.
         21   -1    0    0  501  503 -0.00000000000E+00 -0.00000000000E+00 -0.92469929742E+03  0.92469929742E+03  0.00000000000E+00 0.  1.
    9000007    1    1    2  501    0  0.61256497473E+02  0.10635278954E+03 -0.74607163124E+03  0.85538655195E+03  0.40000000000E+03 0.  1.
   -9000007    1    1    2    0  502 -0.61256497473E+02 -0.10635278954E+03  0.22906476973E+03  0.47700518137E+03  0.40000000000E+03 0.  1.
<mgrwt>
<rscale>  2 0.41840563E+03</rscale>
<asrwt>0</asrwt>
<pdfrwt beam="1">  1       21 0.62721914E-01 0.41840563E+03</pdfrwt>
<pdfrwt beam="2">  1       21 0.14226143E+00 0.41840563E+03</pdfrwt>
<totfact> 0.68842512E+02</totfact>
</mgrwt>
</event>
<event>
 4    1  0.4760244E-002  0.6089884E+03  0.7818608E-02  0.9886932E-01
         21   -1    0    0  503  502  0.00000000000E+00  0.00000000000E+00  0.83141389842E+03  0.83141389842E+03  0.00000000000E+00 0. -1.
         21   -1    0    0  501  503 -0.00000000000E+00 -0.00000000000E+00 -0.45385539516E+03  0.45385539516E+03  0.00000000000E+00 0. -1.
    9000007    1    1    2  501    0  0.30195756659E+03 -0.34596021017E+03  0.27295973434E+03  0.66736336101E+03  0.40000000000E+03 0. -1.
   -9000007    1    1    2    0  502 -0.30195756659E+03  0.34596021017E+03  0.10459876891E+03  0.61790593257E+03  0.40000000000E+03 0. -1.
<mgrwt>
<rscale>  2 0.60898837E+03</rscale>
<asrwt>0</asrwt>
<pdfrwt beam="1">  1       21 0.12790983E+00 0.60898837E+03</pdfrwt>
<pdfrwt beam="2">  1       21 0.69823907E-01 0.60898837E+03</pdfrwt>
<totfact> 0.66569586E+02</totfact>
</mgrwt>
</event>
<event>
 4    1  0.4760244E-002  0.4269267E+03  0.7818608E-02  0.1034835E+00
         21   -1    0    0  503  502  0.00000000000E+00  0.00000000000E+00  0.16827310819E+03  0.16827310819E+03  0.00000000000E+00 0. -1.
         21   -1    0    0  501  503 -0.00000000000E+00 -0.00000000000E+00 -0.10831641988E+04  0.10831641988E+04  0.00000000000E+00 0.  1.
    9000007    1    1    2  501    0 -0.14594649408E+03 -0.31080418696E+02 -0.45893649991E+03  0.62680864904E+03  0.40000000000E+03 0.  1.
   -9000007    1    1    2    0  502  0.14594649408E+03  0.31080418696E+02 -0.45595459071E+03  0.62462865796E+03  0.40000000000E+03 0. -1.
<mgrwt>
<rscale>  2 0.42692666E+03</rscale>
<asrwt>0</asrwt>
<pdfrwt beam="1">  1       21 0.25888169E-01 0.42692666E+03</pdfrwt>
<pdfrwt beam="2">  1       21 0.16664065E+00 0.42692666E+03</pdfrwt>
<totfact> 0.27657430E+03</totfact>
</mgrwt>
</event>
<event>
 4    1  0.4760244E-002  0.4459983E+03  0.7818608E-02  0.1028922E+00
         21   -1    0    0  501  502  0.00000000000E+00  0.00000000000E+00  0.29075978131E+03  0.29075978131E+03  0.00000000000E+00 0. -1.
         21   -1    0    0  502  503 -0.00000000000E+00 -0.00000000000E+00 -0.70247115490E+03  0.70247115490E+03  0.00000000000E+00 0. -1.
    9000007    1    1    2  501    0  0.16767184639E+03 -0.10392611340E+03 -0.12558783849E+03  0.46334305897E+03  0.40000000000E+03 0.  1.
   -9000007    1    1    2    0  503 -0.16767184639E+03  0.10392611340E+03 -0.28612353510E+03  0.52988787725E+03  0.40000000000E+03 0.  1.
<mgrwt>
<rscale>  2 0.44599830E+03</rscale>
<asrwt>0</asrwt>
<pdfrwt beam="1">  1       21 0.44732274E-01 0.44599830E+03</pdfrwt>
<pdfrwt beam="2">  1       21 0.10807248E+00 0.44599830E+03</pdfrwt>
<totfact> 0.28414632E+03</totfact>
</mgrwt>
</event>
<event>
 4    1  0.4760244E-002  0.5713720E+03  0.7818608E-02  0.9966647E-01
         21   -1    0    0  501  502  0.00000000000E+00  0.00000000000E+00  0.11812222473E+04  0.11812222473E+04  0.00000000000E+00 0.  1.
         21   -1    0    0  502  503 -0.00000000000E+00 -0.00000000000E+00 -0.32019169317E+03  0.32019169317E+03  0.00000000000E+00 0. -1.
    9000007    1    1    2  501    0  0.36223793115E+02  0.40639112760E+03  0.70820618840E+03  0.90995709628E+03  0.40000000000E+03 0.  1.
   -9000007    1    1    2    0  503 -0.36223793115E+02 -0.40639112760E+03  0.15282436573E+03  0.59145684419E+03  0.40000000000E+03 0. -1.
<mgrwt>
<rscale>  2 0.57137196E+03</rscale>
<asrwt>0</asrwt>
<pdfrwt beam="1">  1       21 0.18172650E+00 0.57137196E+03</pdfrwt>
<pdfrwt beam="2">  1       21 0.49260261E-01 0.57137196E+03</pdfrwt>
<totfact> 0.54913781E+02</totfact>
</mgrwt>
</event>
<event>
 4    1  0.4760244E-002  0.4801649E+03  0.7818608E-02  0.1019090E+00
         21   -1    0    0  501  502  0.00000000000E+00  0.00000000000E+00  0.22970250097E+03  0.22970250097E+03  0.00000000000E+00 0.  1.
         21   -1    0    0  502  503 -0.00000000000E+00 -0.00000000000E+00 -0.12766932850E+04  0.12766932850E+04  0.00000000000E+00 0.  1.
    9000007    1    1    2  501    0 -0.24069830902E+03  0.11235044958E+03 -0.17522114471E+03  0.51113672245E+03  0.40000000000E+03 0.  1.
   -9000007    1    1    2    0  503  0.24069830902E+03 -0.11235044958E+03 -0.87176963937E+03  0.99525906357E+03  0.40000000000E+03 0.  1.
<mgrwt>
<rscale>  2 0.48016487E+03</rscale>
<asrwt>0</asrwt>
<pdfrwt beam="1">  1       21 0.35338846E-01 0.48016487E+03</pdfrwt>
<pdfrwt beam="2">  1       21 0.19641435E+00 0.48016487E+03</pdfrwt>
<totfact> 0.89938785E+02</totfact>
</mgrwt>
</event>
<event>
 4    1  0.4760244E-002  0.5042854E+03  0.7818608E-02  0.1012666E+00
         21   -1    0    0  501  502  0.00000000000E+00  0.00000000000E+00  0.96045614330E+03  0.96045614330E+03  0.00000000000E+00 0.  1.
         21   -1    0    0  502  503 -0.00000000000E+00 -0.00000000000E+00 -0.40515900959E+03  0.40515900959E+03  0.00000000000E+00 0.  1.
    9000007    1    1    2  501    0 -0.24927067070E+02 -0.30607589861E+03  0.67957442696E+03  0.84624181896E+03  0.40000000000E+03 0.  1.
   -9000007    1    1    2    0  503  0.24927067070E+02  0.30607589861E+03 -0.12427729326E+03  0.51937333393E+03  0.40000000000E+03 0.  1.
<mgrwt>
<rscale>  2 0.50428545E+03</rscale>
<asrwt>0</asrwt>
<pdfrwt beam="1">  1       21 0.14776248E+00 0.50428545E+03</pdfrwt>
<pdfrwt beam="2">  1       21 0.62332156E-01 0.50428545E+03</pdfrwt>
<totfact> 0.60694838E+02</totfact>
</mgrwt>
</event>
<event>
 4    1  0.4760244E-002  0.5531585E+03  0.7818608E-02  0.1000766E+00
         21   -1    0    0  503  502  0.00000000000E+00  0.00000000000E+00  0.17237816457E+03  0.17237816457E+03  0.00000000000E+00 0.  1.
         21   -1    0    0  501  503 -0.00000000000E+00 -0.00000000000E+00 -0.19558449946E+04  0.19558449946E+04  0.00000000000E+00 0. -1.
    9000007    1    1    2  501    0  0.19508210486E+03 -0.32852285186E+03 -0.12152393701E+04  0.13352119751E+04  0.40000000000E+03 0. -1.
   -9000007    1    1    2    0  502 -0.19508210486E+03  0.32852285186E+03 -0.56822745993E+03  0.79301118407E+03  0.40000000000E+03 0.  1.
<mgrwt>
<rscale>  2 0.55315847E+03</rscale>
<asrwt>0</asrwt>
<pdfrwt beam="1">  1       21 0.26519718E-01 0.55315847E+03</pdfrwt>
<pdfrwt beam="2">  1       21 0.30089922E+00 0.55315847E+03</pdfrwt>
<totfact> 0.34249297E+02</totfact>
</mgrwt>
</event>
<event>
 4    1  0.4760244E-002  0.5557281E+03  0.7818608E-02  0.1000177E+00
         21   -1    0    0  501  502  0.00000000000E+00  0.00000000000E+00  0.18473579579E+03  0.18473579579E+03  0.00000000000E+00 0. -1.
         21   -1    0    0  502  503 -0.00000000000E+00 -0.00000000000E+00 -0.21226734246E+04  0.21226734246E+04  0.00000000000E+00 0.  1.
    9000007    1    1    2  501    0  0.36014579624E+03  0.13830660141E+03 -0.43722781230E+03  0.70710810376E+03  0.40000000000E+03 0. -1.
   -9000007    1    1    2    0  503 -0.36014579624E+03 -0.13830660141E+03 -0.15007098165E+04  0.16003011167E+04  0.40000000000E+03 0.  1.
<mgrwt>
<rscale>  2 0.55572809E+03</rscale>
<asrwt>0</asrwt>
<pdfrwt beam="1">  1       21 0.28420893E-01 0.55572809E+03</pdfrwt>
<pdfrwt beam="2">  1       21 0.32656512E+00 0.55572809E+03</pdfrwt>
<totfact> 0.20825675E+02</totfact>
</mgrwt>
</event>
<event>
 4    1  0.4760244E-002  0.4238631E+03  0.7818608E-02  0.1035816E+00
         21   -1    0    0  501  502  0.00000000000E+00  0.00000000000E+00  0.68302162774E+02  0.68302162774E+02  0.00000000000E+00 0. -1.
         21   -1    0    0  502  503 -0.00000000000E+00 -0.00000000000E+00 -0.26649609157E+04  0.26649609157E+04  0.00000000000E+00 0. -1.
    9000007    1    1    2  501    0  0.37285531788E+01 -0.14016413415E+03 -0.11426275230E+04  0.12187114273E+04  0.40000000000E+03 0. -1.
   -9000007    1    1    2    0  503 -0.37285531788E+01  0.14016413415E+03 -0.14540312299E+04  0.15145516512E+04  0.40000000000E+03 0. -1.
<mgrwt>
<rscale>  2 0.42386305E+03</rscale>
<asrwt>0</asrwt>
<pdfrwt beam="1">  1       21 0.10508026E-01 0.42386305E+03</pdfrwt>
<pdfrwt beam="2">  1       21 0.40999396E+00 0.42386305E+03</pdfrwt>
<totfact> 0.44072092E+02</totfact>
</mgrwt>
</event>
<event>
 4    1  0.4760244E-002  0.4509972E+03  0.7818608E-02  0.1027425E+00
         21   -1    0    0  503  502  0.00000000000E+00  0.00000000000E+00  0.47169417395E+03  0.47169417395E+03  0.00000000000E+00 0. -1.
         21   -1    0    0  501  503 -0.00000000000E+00 -0.00000000000E+00 -0.44435106601E+03  0.44435106601E+03  0.00000000000E+00 0. -1.
    9000007    1    1    2  501    0 -0.93580812046E+02 -0.18612123451E+03 -0.65099348217E+02  0.45567138099E+03  0.40000000000E+03 0. -1.
   -9000007    1    1    2    0  502  0.93580812046E+02  0.18612123451E+03  0.92442456159E+02  0.46037385897E+03  0.40000000000E+03 0. -1.
<mgrwt>
<rscale>  2 0.45099721E+03</rscale>
<asrwt>0</asrwt>
<pdfrwt beam="1">  1       21 0.72568334E-01 0.45099721E+03</pdfrwt>
<pdfrwt beam="2">  1       21 0.68361702E-01 0.45099721E+03</pdfrwt>
<totfact> 0.29056870E+03</totfact>
</mgrwt>
</event>
<event>
 4    1  0.4760244E-002  0.4452773E+03  0.7818608E-02  0.1029140E+00
         21   -1    0    0  501  502  0.00000000000E+00  0.00000000000E+00  0.47568092528E+03  0.47568092528E+03  0.00000000000E+00 0.  1.
         21   -1    0    0  502  503 -0.00000000000E+00 -0.00000000000E+00 -0.10977877815E+04  0.10977877815E+04  0.00000000000E+00 0.  1.
    9000007    1    1    2  501    0 -0.11216826124E+03 -0.16028148398E+03  0.30857762234E+03  0.54174903964E+03  0.40000000000E+03 0.  1.
   -9000007    1    1    2    0  503  0.11216826124E+03  0.16028148398E+03 -0.93068447858E+03  0.10317196672E+04  0.40000000000E+03 0.  1.
<mgrwt>
<rscale>  2 0.44527730E+03</rscale>
<asrwt>0</asrwt>
<pdfrwt beam="1">  1       21 0.73181681E-01 0.44527730E+03</pdfrwt>
<pdfrwt beam="2">  1       21 0.16889043E+00 0.44527730E+03</pdfrwt>
<totfact> 0.30025684E+02</totfact>
</mgrwt>
</event>
<event>
 4    1  0.4760244E-002  0.5146497E+03  0.7818608E-02  0.1010024E+00
         21   -1    0    0  501  502  0.00000000000E+00  0.00000000000E+00  0.49946367781E+03  0.49946367781E+03  0.00000000000E+00 0.  1.
         21   -1    0    0  502  503 -0.00000000000E+00 -0.00000000000E+00 -0.59371708832E+03  0.59371708832E+03  0.00000000000E+00 0.  1.
    9000007    1    1    2  501    0  0.31556949482E+03  0.72664726763E+02  0.13151563874E+03  0.53118794396E+03  0.40000000000E+03 0.  1.
   -9000007    1    1    2    0  503 -0.31556949482E+03 -0.72664726763E+02 -0.22576904924E+03  0.56199282217E+03  0.40000000000E+03 0.  1.
<mgrwt>
<rscale>  2 0.51464966E+03</rscale>
<asrwt>0</asrwt>
<pdfrwt beam="1">  1       21 0.76840566E-01 0.51464966E+03</pdfrwt>
<pdfrwt beam="2">  1       21 0.91341090E-01 0.51464966E+03</pdfrwt>
<totfact> 0.12767752E+03</totfact>
</mgrwt>
</event>
<event>
 4    1  0.4760244E-002  0.4211433E+03  0.7818608E-02  0.1036695E+00
         21   -1    0    0  503  502  0.00000000000E+00  0.00000000000E+00  0.57077825809E+03  0.57077825809E+03  0.00000000000E+00 0.  1.
         21   -1    0    0  501  503 -0.00000000000E+00 -0.00000000000E+00 -0.31387693776E+03  0.31387693776E+03  0.00000000000E+00 0.  1.
    9000007    1    1    2  501    0 -0.13143918501E+03  0.92423685362E+01  0.84206671116E+02  0.42947927097E+03  0.40000000000E+03 0.  1.
   -9000007    1    1    2    0  502  0.13143918501E+03 -0.92423685362E+01  0.17269464921E+03  0.45517592489E+03  0.40000000000E+03 0.  1.
<mgrwt>
<rscale>  2 0.42114330E+03</rscale>
<asrwt>0</asrwt>
<pdfrwt beam="1">  1       21 0.87812040E-01 0.42114330E+03</pdfrwt>
<pdfrwt beam="2">  1       21 0.48288760E-01 0.42114330E+03</pdfrwt>
<totfact> 0.40281207E+03</totfact>
</mgrwt>
</event>
<event>
 4    1  0.4760244E-002  0.4052046E+03  0.7818608E-02  0.1041992E+00
         21   -1    0    0  501  502  0.00000000000E+00  0.00000000000E+00  0.52475203641E+03  0.52475203641E+03  0.00000000000E+00 0. -1.
         21   -1    0    0  502  503 -0.00000000000E+00 -0.00000000000E+00 -0.35745737134E+03  0.35745737134E+03  0.00000000000E+00 0. -1.
    9000007    1    1    2  501    0  0.63457869673E+02  0.12802520654E+02  0.23939712435E+03  0.47063976554E+03  0.40000000000E+03 0. -1.
   -9000007    1    1    2    0  503 -0.63457869673E+02 -0.12802520654E+02 -0.72102459272E+02  0.41156964221E+03  0.40000000000E+03 0. -1.
<mgrwt>
<rscale>  2 0.40520465E+03</rscale>
<asrwt>0</asrwt>
<pdfrwt beam="1">  1       21 0.80731082E-01 0.40520465E+03</pdfrwt>
<pdfrwt beam="2">  1       21 0.54993442E-01 0.40520465E+03</pdfrwt>
<totfact> 0.37353059E+03</totfact>
</mgrwt>
</event>
<event>
 4    1  0.4760244E-002  0.4186910E+03  0.7818608E-02  0.1037493E+00
         21   -1    0    0  501  502  0.00000000000E+00  0.00000000000E+00  0.44785340727E+03  0.44785340727E+03  0.00000000000E+00 0. -1.
         21   -1    0    0  502  503 -0.00000000000E+00 -0.00000000000E+00 -0.44951175390E+03  0.44951175390E+03  0.00000000000E+00 0. -1.
    9000007    1    1    2  501    0  0.12287002861E+03 -0.14321074422E+02  0.16045728715E+03  0.44838452036E+03  0.40000000000E+03 0. -1.
   -9000007    1    1    2    0  503 -0.12287002861E+03  0.14321074422E+02 -0.16211563378E+03  0.44898064081E+03  0.40000000000E+03 0. -1.
<mgrwt>
<rscale>  2 0.41869098E+03</rscale>
<asrwt>0</asrwt>
<pdfrwt beam="1">  1       21 0.68900524E-01 0.41869098E+03</pdfrwt>
<pdfrwt beam="2">  1       21 0.69155655E-01 0.41869098E+03</pdfrwt>
<totfact> 0.32202756E+03</totfact>
</mgrwt>
</event>
<event>
 4    1  0.4760244E-002  0.4283009E+03  0.7818608E-02  0.1034398E+00
         21   -1    0    0  501  502  0.00000000000E+00  0.00000000000E+00  0.38351400555E+03  0.38351400555E+03  0.00000000000E+00 0. -1.
         21   -1    0    0  502  503 -0.00000000000E+00 -0.00000000000E+00 -0.93226817993E+03  0.93226817993E+03  0.00000000000E+00 0. -1.
    9000007    1    1    2  501    0 -0.22545275143E+02 -0.15143767707E+03  0.18470216231E+03  0.46642957478E+03  0.40000000000E+03 0. -1.
   -9000007    1    1    2    0  503  0.22545275143E+02  0.15143767707E+03 -0.73345633669E+03  0.84935261069E+03  0.40000000000E+03 0. -1.
<mgrwt>
<rscale>  2 0.42830090E+03</rscale>
<asrwt>0</asrwt>
<pdfrwt beam="1">  1       21 0.59002155E-01 0.42830090E+03</pdfrwt>
<pdfrwt beam="2">  1       21 0.14342587E+00 0.42830090E+03</pdfrwt>
<totfact> 0.76672681E+02</totfact>
</mgrwt>
</event>
<event>
 4    1  0.4760244E-002  0.4116578E+03  0.7818608E-02  0.1039816E+00
         21   -1    0    0  501  502  0.00000000000E+00  0.00000000000E+00  0.29185585431E+03  0.29185585431E+03  0.00000000000E+00 0.  1.
         21   -1    0    0  502  503 -0.00000000000E+00 -0.00000000000E+00 -0.72613176307E+03  0.72613176307E+03  0.00000000000E+00 0.  1.
    9000007    1    1    2  501    0 -0.84811203061E+02 -0.47636314547E+02  0.10701654013E+02  0.41179689657E+03  0.40000000000E+03 0. -1.
   -9000007    1    1    2    0  503  0.84811203061E+02  0.47636314547E+02 -0.44497756277E+03  0.60619072081E+03  0.40000000000E+03 0. -1.
<mgrwt>
<rscale>  2 0.41165782E+03</rscale>
<asrwt>0</asrwt>
<pdfrwt beam="1">  1       21 0.44900901E-01 0.41165782E+03</pdfrwt>
<pdfrwt beam="2">  1       21 0.11171258E+00 0.41165782E+03</pdfrwt>
<totfact> 0.26313588E+03</totfact>
</mgrwt>
</event>
<event>
 4    1  0.4760244E-002  0.5435024E+03  0.7818608E-02  0.1003009E+00
         21   -1    0    0  501  502  0.00000000000E+00  0.00000000000E+00  0.34829311798E+03  0.34829311798E+03  0.00000000000E+00 0. -1.
         21   -1    0    0  502  503 -0.00000000000E+00 -0.00000000000E+00 -0.85592175702E+03  0.85592175702E+03  0.00000000000E+00 0.  1.
    9000007    1    1    2  501    0  0.34256191334E+03  0.13433594643E+03 -0.31129435998E+03  0.62633775994E+03  0.40000000000E+03 0. -1.
   -9000007    1    1    2    0  503 -0.34256191334E+03 -0.13433594643E+03 -0.19633427906E+03  0.57787711506E+03  0.40000000000E+03 0.  1.
<mgrwt>
<rscale>  2 0.54350236E+03</rscale>
<asrwt>0</asrwt>
<pdfrwt beam="1">  1       21 0.53583557E-01 0.54350236E+03</pdfrwt>
<pdfrwt beam="2">  1       21 0.13168027E+00 0.54350236E+03</pdfrwt>
<totfact> 0.11321180E+03</totfact>
</mgrwt>
</event>
<event>
 4    1  0.4760244E-002  0.4174689E+03  0.7818608E-02  0.1037893E+00
         21   -1    0    0  501  502  0.00000000000E+00  0.00000000000E+00  0.32670624676E+03  0.32670624676E+03  0.00000000000E+00 0. -1.
         21   -1    0    0  502  503 -0.00000000000E+00 -0.00000000000E+00 -0.70772882074E+03  0.70772882074E+03  0.00000000000E+00 0. -1.
    9000007    1    1    2  501    0 -0.10136672161E+03 -0.63285572013E+02  0.66153666812E+02  0.42267787203E+03  0.40000000000E+03 0. -1.
   -9000007    1    1    2    0  503  0.10136672161E+03  0.63285572013E+02 -0.44717624079E+03  0.61175719546E+03  0.40000000000E+03 0. -1.
<mgrwt>
<rscale>  2 0.41746889E+03</rscale>
<asrwt>0</asrwt>
<pdfrwt beam="1">  1       21 0.50262501E-01 0.41746889E+03</pdfrwt>
<pdfrwt beam="2">  1       21 0.10888135E+00 0.41746889E+03</pdfrwt>
<totfact> 0.22056464E+03</totfact>
</mgrwt>
</event>
<event>
 4    1  0.4760244E-002  0.4327738E+03  0.7818608E-02  0.1032987E+00
         21   -1    0    0  501  502  0.00000000000E+00  0.00000000000E+00  0.79695487380E+03  0.79695487380E+03  0.00000000000E+00 0. -1.
         21   -1    0    0  502  503 -0.00000000000E+00 -0.00000000000E+00 -0.11584996866E+04  0.11584996866E+04  0.00000000000E+00 0. -1.
    9000007    1    1    2  501    0 -0.66738187603E+02 -0.15112647407E+03  0.69216992054E+03  0.81632860770E+03  0.40000000000E+03 0. -1.
   -9000007    1    1    2    0  503  0.66738187603E+02  0.15112647407E+03 -0.10537147333E+04  0.11391259527E+04  0.40000000000E+03 0. -1.
<mgrwt>
<rscale>  2 0.43277384E+03</rscale>
<asrwt>0</asrwt>
<pdfrwt beam="1">  1       21 0.12260844E+00 0.43277384E+03</pdfrwt>
<pdfrwt beam="2">  1       21 0.17823072E+00 0.43277384E+03</pdfrwt>
<totfact> 0.75072084E+01</totfact>
</mgrwt>
</event>
<event>
 4    1  0.4760244E-002  0.4647750E+03  0.7818608E-02  0.1023405E+00
         21   -1    0    0  503  502  0.00000000000E+00  0.00000000000E+00  0.70556618629E+03  0.70556618629E+03  0.00000000000E+00 0.  1.
         21   -1    0    0  501  503 -0.00000000000E+00 -0.00000000000E+00 -0.63061447851E+03  0.63061447851E+03  0.00000000000E+00 0.  1.
    9000007    1    1    2  501    0 -0.64799031632E+02  0.22763325203E+03 -0.44173916397E+03  0.64120924893E+03  0.40000000000E+03 0.  1.
   -9000007    1    1    2    0  502  0.64799031632E+02 -0.22763325203E+03  0.51669087174E+03  0.69497141587E+03  0.40000000000E+03 0.  1.
<mgrwt>
<rscale>  2 0.46477501E+03</rscale>
<asrwt>0</asrwt>
<pdfrwt beam="1">  1       21 0.10854864E+00 0.46477501E+03</pdfrwt>
<pdfrwt beam="2">  1       21 0.97017612E-01 0.46477501E+03</pdfrwt>
<totfact> 0.49423221E+02</totfact>
</mgrwt>
</event>
<event>
 4    1  0.4760244E-002  0.4894003E+03  0.7818608E-02  0.1016583E+00
         21   -1    0    0  501  502  0.00000000000E+00  0.00000000000E+00  0.37282169589E+03  0.37282169589E+03  0.00000000000E+00 0. -1.
         21   -1    0    0  502  503 -0.00000000000E+00 -0.00000000000E+00 -0.79271733151E+03  0.79271733151E+03  0.00000000000E+00 0. -1.
    9000007    1    1    2  501    0  0.14995370464E+03 -0.23880220878E+03  0.43796230429E+02  0.49135599951E+03  0.40000000000E+03 0. -1.
   -9000007    1    1    2    0  503 -0.14995370464E+03  0.23880220878E+03 -0.46369186605E+03  0.67418302789E+03  0.40000000000E+03 0. -1.
<mgrwt>
<rscale>  2 0.48940025E+03</rscale>
<asrwt>0</asrwt>
<pdfrwt beam="1">  1       21 0.57357185E-01 0.48940025E+03</pdfrwt>
<pdfrwt beam="2">  1       21 0.12195651E+00 0.48940025E+03</pdfrwt>
<totfact> 0.12145184E+03</totfact>
</mgrwt>
</event>
<event>
 4    1  0.4760244E-002  0.4509471E+03  0.7818608E-02  0.1027440E+00
         21   -1    0    0  501  502  0.00000000000E+00  0.00000000000E+00  0.15478276723E+03  0.15478276723E+03  0.00000000000E+00 0. -1.
         21   -1    0    0  502  503 -0.00000000000E+00 -0.00000000000E+00 -0.13139341418E+04  0.13139341418E+04  0.00000000000E+00 0.  1.
    9000007    1    1    2  501    0 -0.20509719461E+03 -0.35894264428E+02 -0.57209481264E+03  0.72845434456E+03  0.40000000000E+03 0.  1.
   -9000007    1    1    2    0  503  0.20509719461E+03  0.35894264428E+02 -0.58705656195E+03  0.74026256449E+03  0.40000000000E+03 0. -1.
<mgrwt>
<rscale>  2 0.45094707E+03</rscale>
<asrwt>0</asrwt>
<pdfrwt beam="1">  1       21 0.23812733E-01 0.45094707E+03</pdfrwt>
<pdfrwt beam="2">  1       21 0.20214372E+00 0.45094707E+03</pdfrwt>
<totfact> 0.18228343E+03</totfact>
</mgrwt>
</event>
<event>
 4    1  0.4760244E-002  0.4344276E+03  0.7818608E-02  0.1032470E+00
         21   -1    0    0  501  502  0.00000000000E+00  0.00000000000E+00  0.30737094653E+03  0.30737094653E+03  0.00000000000E+00 0. -1.
         21   -1    0    0  502  503 -0.00000000000E+00 -0.00000000000E+00 -0.77688585485E+03  0.77688585485E+03  0.00000000000E+00 0. -1.
    9000007    1    1    2  501    0 -0.16661393008E+03 -0.31099083803E+02  0.13474865983E+02  0.43463654554E+03  0.40000000000E+03 0. -1.
   -9000007    1    1    2    0  503  0.16661393008E+03  0.31099083803E+02 -0.48298977431E+03  0.64962025584E+03  0.40000000000E+03 0. -1.
<mgrwt>
<rscale>  2 0.43442762E+03</rscale>
<asrwt>0</asrwt>
<pdfrwt beam="1">  1       21 0.47287838E-01 0.43442762E+03</pdfrwt>
<pdfrwt beam="2">  1       21 0.11952090E+00 0.43442762E+03</pdfrwt>
<totfact> 0.19751258E+03</totfact>
</mgrwt>
</event>
<event>
 4    1  0.4760244E-002  0.4907977E+03  0.7818608E-02  0.1016209E+00
         21   -1    0    0  501  502  0.00000000000E+00  0.00000000000E+00  0.70969064386E+03  0.70969064386E+03  0.00000000000E+00 0.  1.
         21   -1    0    0  502  503 -0.00000000000E+00 -0.00000000000E+00 -0.49941113990E+03  0.49941113990E+03  0.00000000000E+00 0.  1.
    9000007    1    1    2  501    0 -0.17723284496E+03 -0.22242053916E+03  0.44731870208E+03  0.66406053851E+03  0.40000000000E+03 0.  1.
   -9000007    1    1    2    0  503  0.17723284496E+03  0.22242053916E+03 -0.23703919812E+03  0.54504124524E+03  0.40000000000E+03 0.  1.
<mgrwt>
<rscale>  2 0.49079770E+03</rscale>
<asrwt>0</asrwt>
<pdfrwt beam="1">  1       21 0.10918318E+00 0.49079770E+03</pdfrwt>
<pdfrwt beam="2">  1       21 0.76832483E-01 0.49079770E+03</pdfrwt>
<totfact> 0.83406933E+02</totfact>
</mgrwt>
</event>
<event>
 4    1  0.4760244E-002  0.4459505E+03  0.7818608E-02  0.1028937E+00
         21   -1    0    0  501  502  0.00000000000E+00  0.00000000000E+00  0.16362366751E+03  0.16362366751E+03  0.00000000000E+00 0.  1.
         21   -1    0    0  502  503 -0.00000000000E+00 -0.00000000000E+00 -0.12314451184E+04  0.12314451184E+04  0.00000000000E+00 0.  1.
    9000007    1    1    2  501    0  0.13920505806E+03 -0.13962007403E+03 -0.45434409810E+03  0.63663205444E+03  0.40000000000E+03 0.  1.
   -9000007    1    1    2    0  503 -0.13920505806E+03  0.13962007403E+03 -0.61347735275E+03  0.75843673144E+03  0.40000000000E+03 0.  1.
<mgrwt>
<rscale>  2 0.44595046E+03</rscale>
<asrwt>0</asrwt>
<pdfrwt beam="1">  1       21 0.25172871E-01 0.44595046E+03</pdfrwt>
<pdfrwt beam="2">  1       21 0.18945310E+00 0.44595046E+03</pdfrwt>
<totfact> 0.19970950E+03</totfact>
</mgrwt>
</event>
<event>
 4    1  0.4760244E-002  0.4181002E+03  0.7818608E-02  0.1037686E+00
         21   -1    0    0  503  502  0.00000000000E+00  0.00000000000E+00  0.70030098263E+02  0.70030098263E+02  0.00000000000E+00 0.  1.
         21   -1    0    0  501  503 -0.00000000000E+00 -0.00000000000E+00 -0.34878704242E+04  0.34878704242E+04  0.00000000000E+00 0.  1.
    9000007    1    1    2  501    0 -0.65942930773E+02 -0.10227085085E+03 -0.26574947528E+04  0.26901832945E+04  0.40000000000E+03 0.  1.
   -9000007    1    1    2    0  502  0.65942930773E+02  0.10227085085E+03 -0.76034557316E+03  0.86771722794E+03  0.40000000000E+03 0.  1.
<mgrwt>
<rscale>  2 0.41810022E+03</rscale>
<asrwt>0</asrwt>
<pdfrwt beam="1">  1       21 0.10773861E-01 0.41810022E+03</pdfrwt>
<pdfrwt beam="2">  1       21 0.53659544E+00 0.41810022E+03</pdfrwt>
<totfact> 0.56063258E+01</totfact>
</mgrwt>
</event>
<event>
 4    1  0.4760244E-002  0.4047080E+03  0.7818608E-02  0.1042162E+00
         21   -1    0    0  501  502  0.00000000000E+00  0.00000000000E+00  0.93258981518E+03  0.93258981518E+03  0.00000000000E+00 0. -1.
         21   -1    0    0  502  503 -0.00000000000E+00 -0.00000000000E+00 -0.18410635434E+03  0.18410635434E+03  0.00000000000E+00 0. -1.
    9000007    1    1    2  501    0 -0.10426344567E+02  0.60661529275E+02  0.49406361678E+03  0.63866061975E+03  0.40000000000E+03 0.  1.
   -9000007    1    1    2    0  503  0.10426344567E+02 -0.60661529275E+02  0.25441984405E+03  0.47803554977E+03  0.40000000000E+03 0.  1.
<mgrwt>
<rscale>  2 0.40470796E+03</rscale>
<asrwt>0</asrwt>
<pdfrwt beam="1">  1       21 0.14347535E+00 0.40470796E+03</pdfrwt>
<pdfrwt beam="2">  1       21 0.28324055E-01 0.40470796E+03</pdfrwt>
<totfact> 0.35274581E+03</totfact>
</mgrwt>
</event>
<event>
 4    1  0.4760244E-002  0.4149998E+03  0.7818608E-02  0.1038706E+00
         21   -1    0    0  503  502  0.00000000000E+00  0.00000000000E+00  0.63950167802E+03  0.63950167802E+03  0.00000000000E+00 0. -1.
         21   -1    0    0  501  503 -0.00000000000E+00 -0.00000000000E+00 -0.27833153224E+03  0.27833153224E+03  0.00000000000E+00 0. -1.
    9000007    1    1    2  501    0  0.10957370476E+03 -0.14780794053E+02  0.97968450665E+02  0.42640671427E+03  0.40000000000E+03 0.  1.
   -9000007    1    1    2    0  502 -0.10957370476E+03  0.14780794053E+02  0.26320169512E+03  0.49142649599E+03  0.40000000000E+03 0.  1.
<mgrwt>
<rscale>  2 0.41499984E+03</rscale>
<asrwt>0</asrwt>
<pdfrwt beam="1">  1       21 0.98384873E-01 0.41499984E+03</pdfrwt>
<pdfrwt beam="2">  1       21 0.42820236E-01 0.41499984E+03</pdfrwt>
<totfact> 0.39614731E+03</totfact>
</mgrwt>
</event>
<event>
 4    1  0.4760244E-002  0.4066922E+03  0.7818608E-02  0.1041487E+00
         21   -1    0    0  503  502  0.00000000000E+00  0.00000000000E+00  0.40777628272E+03  0.40777628272E+03  0.00000000000E+00 0. -1.
         21   -1    0    0  501  503 -0.00000000000E+00 -0.00000000000E+00 -0.42317843267E+03  0.42317843267E+03  0.00000000000E+00 0. -1.
    9000007    1    1    2  501    0  0.82698904710E+01 -0.73007749408E+02 -0.92353704261E+02  0.41704643537E+03  0.40000000000E+03 0. -1.
   -9000007    1    1    2    0  502 -0.82698904710E+01  0.73007749408E+02  0.76951554305E+02  0.41390828002E+03  0.40000000000E+03 0. -1.
<mgrwt>
<rscale>  2 0.40669217E+03</rscale>
<asrwt>0</asrwt>
<pdfrwt beam="1">  1       21 0.62734813E-01 0.40669217E+03</pdfrwt>
<pdfrwt beam="2">  1       21 0.65104374E-01 0.40669217E+03</pdfrwt>
<totfact> 0.45581854E+03</totfact>
</mgrwt>
</event>
<event>
 4    1  0.4760244E-002  0.4321265E+03  0.7818608E-02  0.1033190E+00
         21   -1    0    0  501  502  0.00000000000E+00  0.00000000000E+00  0.35746742971E+03  0.35746742971E+03  0.00000000000E+00 0. -1.
         21   -1    0    0  502  503 -0.00000000000E+00 -0.00000000000E+00 -0.62627054169E+03  0.62627054169E+03  0.00000000000E+00 0. -1.
    9000007    1    1    2  501    0 -0.16262057261E+03  0.16965870570E+02 -0.33473785052E+03  0.54661020844E+03  0.40000000000E+03 0. -1.
   -9000007    1    1    2    0  503  0.16262057261E+03 -0.16965870570E+02  0.65934738540E+02  0.43712776296E+03  0.40000000000E+03 0. -1.
<mgrwt>
<rscale>  2 0.43212648E+03</rscale>
<asrwt>0</asrwt>
<pdfrwt beam="1">  1       21 0.54994989E-01 0.43212648E+03</pdfrwt>
<pdfrwt beam="2">  1       21 0.96349314E-01 0.43212648E+03</pdfrwt>
<totfact> 0.24378189E+03</totfact>
</mgrwt>
</event>
<event>
 4    1  0.4760244E-002  0.4234539E+03  0.7818608E-02  0.1035948E+00
         21   -1    0    0  503  502  0.00000000000E+00  0.00000000000E+00  0.17578170932E+03  0.17578170932E+03  0.00000000000E+00 0.  1.
         21   -1    0    0  501  503 -0.00000000000E+00 -0.00000000000E+00 -0.10341490844E+04  0.10341490844E+04  0.00000000000E+00 0.  1.
    9000007    1    1    2  501    0 -0.10759170934E+03 -0.87961646057E+02 -0.49971986506E+03  0.65500623710E+03  0.40000000000E+03 0.  1.
   -9000007    1    1    2    0  502  0.10759170934E+03  0.87961646057E+02 -0.35864751001E+03  0.55492455661E+03  0.40000000000E+03 0.  1.
<mgrwt>
<rscale>  2 0.42345393E+03</rscale>
<asrwt>0</asrwt>
<pdfrwt beam="1">  1       21 0.27043340E-01 0.42345393E+03</pdfrwt>
<pdfrwt beam="2">  1       21 0.15909986E+00 0.42345393E+03</pdfrwt>
<totfact> 0.28948665E+03</totfact>
</mgrwt>
</event>
<event>
 4    1  0.4760244E-002  0.4766964E+03  0.7818608E-02  0.1020047E+00
         21   -1    0    0  501  502  0.00000000000E+00  0.00000000000E+00  0.59849259602E+03  0.59849259602E+03  0.00000000000E+00 0.  1.
         21   -1    0    0  502  503 -0.00000000000E+00 -0.00000000000E+00 -0.40461508145E+03  0.40461508145E+03  0.00000000000E+00 0.  1.
    9000007    1    1    2  501    0  0.16237339068E+02 -0.25879690693E+03 -0.27554637652E+02  0.47749214473E+03  0.40000000000E+03 0.  1.
   -9000007    1    1    2    0  503 -0.16237339068E+02  0.25879690693E+03  0.22143215223E+03  0.52561553274E+03  0.40000000000E+03 0.  1.
<mgrwt>
<rscale>  2 0.47669643E+03</rscale>
<asrwt>0</asrwt>
<pdfrwt beam="1">  1       21 0.92075784E-01 0.47669643E+03</pdfrwt>
<pdfrwt beam="2">  1       21 0.62248474E-01 0.47669643E+03</pdfrwt>
<totfact> 0.20398049E+03</totfact>
</mgrwt>
</event>
<event>
 4    1  0.4760244E-002  0.8284757E+03  0.7818608E-02  0.9519690E-01
         21   -1    0    0  501  502  0.00000000000E+00  0.00000000000E+00  0.21477443834E+04  0.21477443834E+04  0.00000000000E+00 0. -1.
         21   -1    0    0  502  503 -0.00000000000E+00 -0.00000000000E+00 -0.42349969823E+03  0.42349969823E+03  0.00000000000E+00 0.  1.
    9000007    1    1    2  501    0 -0.52531697397E+03  0.50041394361E+03  0.14989760711E+04  0.17126883253E+04  0.40000000000E+03 0. -1.
   -9000007    1    1    2    0  503  0.52531697397E+03 -0.50041394361E+03  0.22526861407E+03  0.85855575625E+03  0.40000000000E+03 0.  1.
<mgrwt>
<rscale>  2 0.82847573E+03</rscale>
<asrwt>0</asrwt>
<pdfrwt beam="1">  1       21 0.33042221E+00 0.82847573E+03</pdfrwt>
<pdfrwt beam="2">  1       21 0.65153801E-01 0.82847573E+03</pdfrwt>
<totfact> 0.30642936E+01</totfact>
</mgrwt>
</event>
<event>
 4    1  0.4760244E-002  0.4971867E+03  0.7818608E-02  0.1014516E+00
         21   -1    0    0  503  502  0.00000000000E+00  0.00000000000E+00  0.53004517622E+03  0.53004517622E+03  0.00000000000E+00 0.  1.
         21   -1    0    0  501  503 -0.00000000000E+00 -0.00000000000E+00 -0.50573788510E+03  0.50573788510E+03  0.00000000000E+00 0.  1.
    9000007    1    1    2  501    0 -0.27131267020E+03  0.11655054412E+03  0.15665565835E+03  0.52128263892E+03  0.40000000000E+03 0.  1.
   -9000007    1    1    2    0  502  0.27131267020E+03 -0.11655054412E+03 -0.13234836723E+03  0.51450042240E+03  0.40000000000E+03 0.  1.
<mgrwt>
<rscale>  2 0.49718668E+03</rscale>
<asrwt>0</asrwt>
<pdfrwt beam="1">  1       21 0.81545412E-01 0.49718668E+03</pdfrwt>
<pdfrwt beam="2">  1       21 0.77805828E-01 0.49718668E+03</pdfrwt>
<totfact> 0.16301309E+03</totfact>
</mgrwt>
</event>
<event>
 4    1  0.4760244E-002  0.5268660E+03  0.7818608E-02  0.1006995E+00
         21   -1    0    0  503  502  0.00000000000E+00  0.00000000000E+00  0.29609660019E+03  0.29609660019E+03  0.00000000000E+00 0. -1.
         21   -1    0    0  501  503 -0.00000000000E+00 -0.00000000000E+00 -0.16604998295E+04  0.16604998295E+04  0.00000000000E+00 0.  1.
    9000007    1    1    2  501    0 -0.23313440708E+03 -0.25146786682E+03 -0.13277425753E+04  0.14284565398E+04  0.40000000000E+03 0.  1.
   -9000007    1    1    2    0  502  0.23313440708E+03  0.25146786682E+03 -0.36660654068E+02  0.52813988995E+03  0.40000000000E+03 0.  1.
<mgrwt>
<rscale>  2 0.52686596E+03</rscale>
<asrwt>0</asrwt>
<pdfrwt beam="1">  1       21 0.45553324E-01 0.52686596E+03</pdfrwt>
<pdfrwt beam="2">  1       21 0.25546150E+00 0.52686596E+03</pdfrwt>
<totfact> 0.21846986E+02</totfact>
</mgrwt>
</event>
<event>
 4    1  0.4760244E-002  0.4918235E+03  0.7818608E-02  0.1015935E+00
         21   -1    0    0  503  502  0.00000000000E+00  0.00000000000E+00  0.70585038926E+03  0.70585038926E+03  0.00000000000E+00 0.  1.
         21   -1    0    0  501  503 -0.00000000000E+00 -0.00000000000E+00 -0.36512275613E+03  0.36512275613E+03  0.00000000000E+00 0. -1.
    9000007    1    1    2  501    0 -0.61784865350E+02 -0.27941550936E+03  0.37643991444E+02  0.49326206681E+03  0.40000000000E+03 0. -1.
   -9000007    1    1    2    0  502  0.61784865350E+02  0.27941550936E+03  0.30308364169E+03  0.57771107858E+03  0.40000000000E+03 0.  1.
<mgrwt>
<rscale>  2 0.49182354E+03</rscale>
<asrwt>0</asrwt>
<pdfrwt beam="1">  1       21 0.10859237E+00 0.49182354E+03</pdfrwt>
<pdfrwt beam="2">  1       21 0.56172732E-01 0.49182354E+03</pdfrwt>
<totfact> 0.17001050E+03</totfact>
</mgrwt>
</event>
<event>
 4    1  0.4760244E-002  0.6037824E+03  0.7818608E-02  0.9897590E-01
         21   -1    0    0  503  502  0.00000000000E+00  0.00000000000E+00  0.25835258460E+03  0.25835258460E+03  0.00000000000E+00 0.  1.
         21   -1    0    0  501  503 -0.00000000000E+00 -0.00000000000E+00 -0.19904308028E+04  0.19904308028E+04  0.00000000000E+00 0.  1.
    9000007    1    1    2  501    0  0.23888075491E+03 -0.38404311605E+03 -0.14726627011E+04  0.15916307867E+04  0.40000000000E+03 0.  1.
   -9000007    1    1    2    0  502 -0.23888075491E+03  0.38404311605E+03 -0.25941551709E+03  0.65715260066E+03  0.40000000000E+03 0.  1.
<mgrwt>
<rscale>  2 0.60378235E+03</rscale>
<asrwt>0</asrwt>
<pdfrwt beam="1">  1       21 0.39746553E-01 0.60378235E+03</pdfrwt>
<pdfrwt beam="2">  1       21 0.30622011E+00 0.60378235E+03</pdfrwt>
<totfact> 0.13728729E+02</totfact>
</mgrwt>
</event>
<event>
 4    1  0.4760244E-002  0.4598990E+03  0.7818608E-02  0.1024811E+00
         21   -1    0    0  503  502  0.00000000000E+00  0.00000000000E+00  0.75989965334E+03  0.75989965334E+03  0.00000000000E+00 0. -1.
         21   -1    0    0  501  503 -0.00000000000E+00 -0.00000000000E+00 -0.27882518193E+03  0.27882518193E+03  0.00000000000E+00 0. -1.
    9000007    1    1    2  501    0 -0.52936810210E+02  0.22069152359E+03  0.26230224892E+03  0.52944265435E+03  0.40000000000E+03 0. -1.
   -9000007    1    1    2    0  502  0.52936810210E+02 -0.22069152359E+03  0.21877222249E+03  0.50928218091E+03  0.40000000000E+03 0. -1.
<mgrwt>
<rscale>  2 0.45989896E+03</rscale>
<asrwt>0</asrwt>
<pdfrwt beam="1">  1       21 0.11690764E+00 0.45989896E+03</pdfrwt>
<pdfrwt beam="2">  1       21 0.42896182E-01 0.45989896E+03</pdfrwt>
<totfact> 0.25369193E+03</totfact>
</mgrwt>
</event>
<event>
 4    1  0.4760244E-002  0.4256463E+03  0.7818608E-02  0.1035244E+00
         21   -1    0    0  503  502  0.00000000000E+00  0.00000000000E+00  0.10366895412E+04  0.10366895412E+04  0.00000000000E+00 0.  1.
         21   -1    0    0  501  503 -0.00000000000E+00 -0.00000000000E+00 -0.24723394639E+03  0.24723394639E+03  0.00000000000E+00 0.  1.
    9000007    1    1    2  501    0  0.14301356703E+03 -0.26867550408E+02  0.47161446097E+02  0.42825103341E+03  0.40000000000E+03 0.  1.
   -9000007    1    1    2    0  502 -0.14301356703E+03  0.26867550408E+02  0.74229414867E+03  0.85567245414E+03  0.40000000000E+03 0.  1.
<mgrwt>
<rscale>  2 0.42564627E+03</rscale>
<asrwt>0</asrwt>
<pdfrwt beam="1">  1       21 0.15949070E+00 0.42564627E+03</pdfrwt>
<pdfrwt beam="2">  1       21 0.38035992E-01 0.42564627E+03</pdfrwt>
<totfact> 0.14517745E+03</totfact>
</mgrwt>
</event>
<event>
 4    1  0.4760244E-002  0.4765910E+03  0.7818608E-02  0.1020076E+00
         21   -1    0    0  503  502  0.00000000000E+00  0.00000000000E+00  0.13884070536E+04  0.13884070536E+04  0.00000000000E+00 0. -1.
         21   -1    0    0  501  503 -0.00000000000E+00 -0.00000000000E+00 -0.16371535305E+03  0.16371535305E+03  0.00000000000E+00 0. -1.
    9000007    1    1    2  501    0 -0.25866278100E+03 -0.15251038050E+02  0.63322465052E+03  0.79253547962E+03  0.40000000000E+03 0. -1.
   -9000007    1    1    2    0  502  0.25866278100E+03  0.15251038050E+02  0.59146705001E+03  0.75958692701E+03  0.40000000000E+03 0. -1.
<mgrwt>
<rscale>  2 0.47659105E+03</rscale>
<asrwt>0</asrwt>
<pdfrwt beam="1">  1       21 0.21360108E+00 0.47659105E+03</pdfrwt>
<pdfrwt beam="2">  1       21 0.25186978E-01 0.47659105E+03</pdfrwt>
<totfact> 0.13597103E+03</totfact>
</mgrwt>
</event>
<event>
 4    1  0.4760244E-002  0.5380365E+03  0.7818608E-02  0.1004302E+00
         21   -1    0    0  501  502  0.00000000000E+00  0.00000000000E+00  0.25355536124E+04  0.25355536124E+04  0.00000000000E+00 0. -1.
         21   -1    0    0  502  503 -0.00000000000E+00 -0.00000000000E+00 -0.13273916849E+03  0.13273916849E+03  0.00000000000E+00 0.  1.
    9000007    1    1    2  501    0  0.22608886103E+03  0.27994115728E+03  0.17004117228E+04  0.17835030843E+04  0.40000000000E+03 0. -1.
   -9000007    1    1    2    0  503 -0.22608886103E+03 -0.27994115728E+03  0.70240272114E+03  0.88478969664E+03  0.40000000000E+03 0.  1.
<mgrwt>
<rscale>  2 0.53803645E+03</rscale>
<asrwt>0</asrwt>
<pdfrwt beam="1">  1       21 0.39008514E+00 0.53803645E+03</pdfrwt>
<pdfrwt beam="2">  1       21 0.20421412E-01 0.53803645E+03</pdfrwt>
<totfact> 0.16084956E+02</totfact>
</mgrwt>
</event>
<event>
 4    1  0.4760244E-002  0.4753508E+03  0.7818608E-02  0.1020421E+00
         21   -1    0    0  501  502  0.00000000000E+00  0.00000000000E+00  0.18459424268E+04  0.18459424268E+04  0.00000000000E+00 0. -1.
         21   -1    0    0  502  503 -0.00000000000E+00 -0.00000000000E+00 -0.14485480355E+03  0.14485480355E+03  0.00000000000E+00 0. -1.
    9000007    1    1    2  501    0  0.21107127709E+03 -0.14631243475E+03  0.12423815888E+04  0.13302144281E+04  0.40000000000E+03 0. -1.
   -9000007    1    1    2    0  503 -0.21107127709E+03  0.14631243475E+03  0.45870603445E+03  0.66058280224E+03  0.40000000000E+03 0. -1.
<mgrwt>
<rscale>  2 0.47535083E+03</rscale>
<asrwt>0</asrwt>
<pdfrwt beam="1">  1       21 0.28399113E+00 0.47535083E+03</pdfrwt>
<pdfrwt beam="2">  1       21 0.22285356E-01 0.47535083E+03</pdfrwt>
<totfact> 0.63163061E+02</totfact>
</mgrwt>
</event>
<event>
 4    1  0.4760244E-002  0.5949170E+03  0.7818608E-02  0.9916008E-01
         21   -1    0    0  501  502  0.00000000000E+00  0.00000000000E+00  0.30098024686E+03  0.30098024686E+03  0.00000000000E+00 0. -1.
         21   -1    0    0  502  503 -0.00000000000E+00 -0.00000000000E+00 -0.11763030009E+04  0.11763030009E+04  0.00000000000E+00 0. -1.
    9000007    1    1    2  501    0  0.41876501232E+03 -0.13624277092E+03 -0.45113133066E+03  0.74662286709E+03  0.40000000000E+03 0. -1.
   -9000007    1    1    2    0  503 -0.41876501232E+03  0.13624277092E+03 -0.42419142334E+03  0.73066038062E+03  0.40000000000E+03 0. -1.
<mgrwt>
<rscale>  2 0.59491699E+03</rscale>
<asrwt>0</asrwt>
<pdfrwt beam="1">  1       21 0.46304653E-01 0.59491699E+03</pdfrwt>
<pdfrwt beam="2">  1       21 0.18096969E+00 0.59491699E+03</pdfrwt>
<totfact> 0.62870964E+02</totfact>
</mgrwt>
</event>
<event>
 4    1  0.4760244E-002  0.4550268E+03  0.7818608E-02  0.1026234E+00
         21   -1    0    0  503  502  0.00000000000E+00  0.00000000000E+00  0.35298008665E+03  0.35298008665E+03  0.00000000000E+00 0. -1.
         21   -1    0    0  501  503 -0.00000000000E+00 -0.00000000000E+00 -0.61114296526E+03  0.61114296526E+03  0.00000000000E+00 0. -1.
    9000007    1    1    2  501    0 -0.17611968541E+03 -0.12661439048E+03 -0.32428664484E+02  0.45618084763E+03  0.40000000000E+03 0. -1.
   -9000007    1    1    2    0  502  0.17611968541E+03  0.12661439048E+03 -0.22573421412E+03  0.50794220428E+03  0.40000000000E+03 0. -1.
<mgrwt>
<rscale>  2 0.45502675E+03</rscale>
<asrwt>0</asrwt>
<pdfrwt beam="1">  1       21 0.54304629E-01 0.45502675E+03</pdfrwt>
<pdfrwt beam="2">  1       21 0.94021994E-01 0.45502675E+03</pdfrwt>
<totfact> 0.26339150E+03</totfact>
</mgrwt>
</event>
<event>
 4    1  0.4760244E-002  0.4198916E+03  0.7818608E-02  0.1037102E+00
         21   -1    0    0  503  502  0.00000000000E+00  0.00000000000E+00  0.35846846534E+04  0.35846846534E+04  0.00000000000E+00 0. -1.
         21   -1    0    0  501  503 -0.00000000000E+00 -0.00000000000E+00 -0.55338832969E+02  0.55338832969E+02  0.00000000000E+00 0.  1.
    9000007    1    1    2  501    0  0.12454020052E+03 -0.28261780405E+02  0.23716449810E+04  0.24085283693E+04  0.40000000000E+03 0.  1.
   -9000007    1    1    2    0  502 -0.12454020052E+03  0.28261780405E+02  0.11577008395E+04  0.12314951171E+04  0.40000000000E+03 0.  1.
<mgrwt>
<rscale>  2 0.41989164E+03</rscale>
<asrwt>0</asrwt>
<pdfrwt beam="1">  1       21 0.55148976E+00 0.41989164E+03</pdfrwt>
<pdfrwt beam="2">  1       21 0.85136694E-02 0.41989164E+03</pdfrwt>
<totfact> 0.66118113E+01</totfact>
</mgrwt>
</event>
<event>
 4    1  0.4760244E-002  0.5223172E+03  0.7818608E-02  0.1008113E+00
         21   -1    0    0  503  502  0.00000000000E+00  0.00000000000E+00  0.59442195405E+03  0.59442195405E+03  0.00000000000E+00 0. -1.
         21   -1    0    0  501  503 -0.00000000000E+00 -0.00000000000E+00 -0.48639006008E+03  0.48639006008E+03  0.00000000000E+00 0. -1.
    9000007    1    1    2  501    0 -0.18181478284E+03 -0.28241576892E+03 -0.74320329662E+02  0.52757823420E+03  0.40000000000E+03 0. -1.
   -9000007    1    1    2    0  502  0.18181478284E+03  0.28241576892E+03  0.18235222362E+03  0.55323377993E+03  0.40000000000E+03 0. -1.
<mgrwt>
<rscale>  2 0.52231722E+03</rscale>
<asrwt>0</asrwt>
<pdfrwt beam="1">  1       21 0.91449532E-01 0.52231722E+03</pdfrwt>
<pdfrwt beam="2">  1       21 0.74829240E-01 0.52231722E+03</pdfrwt>
<totfact> 0.13495191E+03</totfact>
</mgrwt>
</event>
<event>
 4    1  0.4760244E-002  0.4675845E+03  0.7818608E-02  0.1022604E+00
         21   -1    0    0  503  502  0.00000000000E+00  0.00000000000E+00  0.41095358583E+03  0.41095358583E+03  0.00000000000E+00 0.  1.
         21   -1    0    0  501  503 -0.00000000000E+00 -0.00000000000E+00 -0.61001030993E+03  0.61001030993E+03  0.00000000000E+00 0. -1.
    9000007    1    1    2  501    0 -0.94520243896E+02 -0.22293765330E+03 -0.28205818739E+03  0.54606967947E+03  0.40000000000E+03 0.  1.
   -9000007    1    1    2    0  502  0.94520243896E+02  0.22293765330E+03  0.83001463287E+02  0.47489421630E+03  0.40000000000E+03 0. -1.
<mgrwt>
<rscale>  2 0.46758451E+03</rscale>
<asrwt>0</asrwt>
<pdfrwt beam="1">  1       21 0.63223629E-01 0.46758451E+03</pdfrwt>
<pdfrwt beam="2">  1       21 0.93847739E-01 0.46758451E+03</pdfrwt>
<totfact> 0.18893818E+03</totfact>
</mgrwt>
</event>
<event>
 4    1  0.4760244E-002  0.5265224E+03  0.7818608E-02  0.1007079E+00
         21   -1    0    0  501  502  0.00000000000E+00  0.00000000000E+00  0.19935970898E+04  0.19935970898E+04  0.00000000000E+00 0.  1.
         21   -1    0    0  502  503 -0.00000000000E+00 -0.00000000000E+00 -0.14256481124E+03  0.14256481124E+03  0.00000000000E+00 0. -1.
    9000007    1    1    2  501    0  0.31584298850E+03  0.13217031719E+03  0.10930293876E+04  0.12132349436E+04  0.40000000000E+03 0. -1.
   -9000007    1    1    2    0  503 -0.31584298850E+03 -0.13217031719E+03  0.75800289095E+03  0.92292695746E+03  0.40000000000E+03 0.  1.
<mgrwt>
<rscale>  2 0.52652235E+03</rscale>
<asrwt>0</asrwt>
<pdfrwt beam="1">  1       21 0.30670723E+00 0.52652235E+03</pdfrwt>
<pdfrwt beam="2">  1       21 0.21933049E-01 0.52652235E+03</pdfrwt>
<totfact> 0.46282218E+02</totfact>
</mgrwt>
</event>
<event>
 4    1  0.4760244E-002  0.4143112E+03  0.7818608E-02  0.1038934E+00
         21   -1    0    0  501  502  0.00000000000E+00  0.00000000000E+00  0.80752876579E+03  0.80752876579E+03  0.00000000000E+00 0. -1.
         21   -1    0    0  502  503 -0.00000000000E+00 -0.00000000000E+00 -0.21296709050E+03  0.21296709050E+03  0.00000000000E+00 0. -1.
    9000007    1    1    2  501    0  0.10717382267E+03 -0.12942913961E+02  0.27515743881E+03  0.49735838529E+03  0.40000000000E+03 0.  1.
   -9000007    1    1    2    0  503 -0.10717382267E+03  0.12942913961E+02  0.31940423648E+03  0.52313747101E+03  0.40000000000E+03 0.  1.
<mgrwt>
<rscale>  2 0.41431117E+03</rscale>
<asrwt>0</asrwt>
<pdfrwt beam="1">  1       21 0.12423519E+00 0.41431117E+03</pdfrwt>
<pdfrwt beam="2">  1       21 0.32764168E-01 0.41431117E+03</pdfrwt>
<totfact> 0.38319148E+03</totfact>
</mgrwt>
</event>
<event>
 4    1  0.4760244E-002  0.4457372E+03  0.7818608E-02  0.1029001E+00
         21   -1    0    0  501  502  0.00000000000E+00  0.00000000000E+00  0.17043849729E+04  0.17043849729E+04  0.00000000000E+00 0. -1.
         21   -1    0    0  502  503 -0.00000000000E+00 -0.00000000000E+00 -0.11781917616E+03  0.11781917616E+03  0.00000000000E+00 0.  1.
    9000007    1    1    2  501    0  0.50602206585E+01  0.19661139838E+03  0.88706473055E+03  0.99275650791E+03  0.40000000000E+03 0. -1.
   -9000007    1    1    2    0  503 -0.50602206585E+01 -0.19661139838E+03  0.69950106620E+03  0.82944764116E+03  0.40000000000E+03 0.  1.
<mgrwt>
<rscale>  2 0.44573720E+03</rscale>
<asrwt>0</asrwt>
<pdfrwt beam="1">  1       21 0.26221306E+00 0.44573720E+03</pdfrwt>
<pdfrwt beam="2">  1       21 0.18126028E-01 0.44573720E+03</pdfrwt>
<totfact> 0.12876224E+03</totfact>
</mgrwt>
</event>
<event>
 4    1  0.4760244E-002  0.6296106E+03  0.7818608E-02  0.9845809E-01
         21   -1    0    0  503  502  0.00000000000E+00  0.00000000000E+00  0.60914869588E+03  0.60914869588E+03  0.00000000000E+00 0. -1.
         21   -1    0    0  501  503 -0.00000000000E+00 -0.00000000000E+00 -0.19031126305E+04  0.19031126305E+04  0.00000000000E+00 0. -1.
    9000007    1    1    2  501    0 -0.45148040858E+03  0.18048527565E+03 -0.16659625757E+04  0.17809662539E+04  0.40000000000E+03 0. -1.
   -9000007    1    1    2    0  502  0.45148040858E+03 -0.18048527565E+03  0.37199864105E+03  0.73129507246E+03  0.40000000000E+03 0. -1.
<mgrwt>
<rscale>  2 0.62961059E+03</rscale>
<asrwt>0</asrwt>
<pdfrwt beam="1">  1       21 0.93715183E-01 0.62961059E+03</pdfrwt>
<pdfrwt beam="2">  1       21 0.29278656E+00 0.62961059E+03</pdfrwt>
<totfact> 0.24358828E+01</totfact>
</mgrwt>
</event>
<event>
 4    1  0.4760244E-002  0.4148958E+03  0.7818608E-02  0.1038740E+00
         21   -1    0    0  503  502  0.00000000000E+00  0.00000000000E+00  0.23142647572E+03  0.23142647572E+03  0.00000000000E+00 0. -1.
         21   -1    0    0  501  503 -0.00000000000E+00 -0.00000000000E+00 -0.85614904937E+03  0.85614904937E+03  0.00000000000E+00 0. -1.
    9000007    1    1    2  501    0  0.58462009369E+01  0.11001984297E+03 -0.50933576002E+03  0.65693337588E+03  0.40000000000E+03 0. -1.
   -9000007    1    1    2    0  502 -0.58462009369E+01 -0.11001984297E+03 -0.11538681364E+03  0.43064214921E+03  0.40000000000E+03 0. -1.
<mgrwt>
<rscale>  2 0.41489582E+03</rscale>
<asrwt>0</asrwt>
<pdfrwt beam="1">  1       21 0.35604073E-01 0.41489582E+03</pdfrwt>
<pdfrwt beam="2">  1       21 0.13171524E+00 0.41489582E+03</pdfrwt>
<totfact> 0.27869109E+03</totfact>
</mgrwt>
</event>
<event>
 4    1  0.4760244E-002  0.4315306E+03  0.7818608E-02  0.1033378E+00
         21   -1    0    0  501  502  0.00000000000E+00  0.00000000000E+00  0.28088337243E+03  0.28088337243E+03  0.00000000000E+00 0. -1.
         21   -1    0    0  502  503 -0.00000000000E+00 -0.00000000000E+00 -0.72219634849E+03  0.72219634849E+03  0.00000000000E+00 0. -1.
    9000007    1    1    2  501    0 -0.81955037455E+02 -0.13964957960E+03 -0.77035726391E+02  0.43835275337E+03  0.40000000000E+03 0. -1.
   -9000007    1    1    2    0  503  0.81955037455E+02  0.13964957960E+03 -0.36427724968E+03  0.56472696755E+03  0.40000000000E+03 0. -1.
<mgrwt>
<rscale>  2 0.43153057E+03</rscale>
<asrwt>0</asrwt>
<pdfrwt beam="1">  1       21 0.43212827E-01 0.43153057E+03</pdfrwt>
<pdfrwt beam="2">  1       21 0.11110713E+00 0.43153057E+03</pdfrwt>
<totfact> 0.28667762E+03</totfact>
</mgrwt>
</event>
<event>
 4    1  0.4760244E-002  0.4331715E+03  0.7818608E-02  0.1032863E+00
         21   -1    0    0  501  502  0.00000000000E+00  0.00000000000E+00  0.17617878009E+03  0.17617878009E+03  0.00000000000E+00 0.  1.
         21   -1    0    0  502  503 -0.00000000000E+00 -0.00000000000E+00 -0.11273197692E+04  0.11273197692E+04  0.00000000000E+00 0.  1.
    9000007    1    1    2  501    0 -0.14477052608E+03 -0.81725294356E+02 -0.62875995590E+03  0.76352905060E+03  0.40000000000E+03 0.  1.
   -9000007    1    1    2    0  503  0.14477052608E+03  0.81725294356E+02 -0.32238103322E+03  0.53996949871E+03  0.40000000000E+03 0.  1.
<mgrwt>
<rscale>  2 0.43317148E+03</rscale>
<asrwt>0</asrwt>
<pdfrwt beam="1">  1       21 0.27104427E-01 0.43317148E+03</pdfrwt>
<pdfrwt beam="2">  1       21 0.17343381E+00 0.43317148E+03</pdfrwt>
<totfact> 0.22509853E+03</totfact>
</mgrwt>
</event>
<event>
 4    1  0.4760244E-002  0.4052085E+03  0.7818608E-02  0.1041991E+00
         21   -1    0    0  503  502  0.00000000000E+00  0.00000000000E+00  0.57144307627E+03  0.57144307627E+03  0.00000000000E+00 0.  1.
         21   -1    0    0  501  503 -0.00000000000E+00 -0.00000000000E+00 -0.31801048042E+03  0.31801048042E+03  0.00000000000E+00 0.  1.
    9000007    1    1    2  501    0  0.38770050278E+02  0.51872925143E+02 -0.11414032393E+02  0.40536921109E+03  0.40000000000E+03 0.  1.
   -9000007    1    1    2    0  502 -0.38770050278E+02 -0.51872925143E+02  0.26484662825E+03  0.48408434560E+03  0.40000000000E+03 0.  1.
<mgrwt>
<rscale>  2 0.40520849E+03</rscale>
<asrwt>0</asrwt>
<pdfrwt beam="1">  1       21 0.87914320E-01 0.40520849E+03</pdfrwt>
<pdfrwt beam="2">  1       21 0.48924689E-01 0.40520849E+03</pdfrwt>
<totfact> 0.39307909E+03</totfact>
</mgrwt>
</event>
<event>
 4    1  0.4760244E-002  0.7305211E+03  0.7818608E-02  0.9666415E-01
         21   -1    0    0  501  502  0.00000000000E+00  0.00000000000E+00  0.10130158605E+04  0.10130158605E+04  0.00000000000E+00 0. -1.
         21   -1    0    0  502  503 -0.00000000000E+00 -0.00000000000E+00 -0.54681168271E+03  0.54681168271E+03  0.00000000000E+00 0.  1.
    9000007    1    1    2  501    0 -0.44908190388E+02 -0.60962639852E+03  0.38228636455E+03  0.82450224733E+03  0.40000000000E+03 0. -1.
   -9000007    1    1    2    0  503  0.44908190388E+02  0.60962639852E+03  0.83917813204E+02  0.73532529585E+03  0.40000000000E+03 0.  1.
<mgrwt>
<rscale>  2 0.73052111E+03</rscale>
<asrwt>0</asrwt>
<pdfrwt beam="1">  1       21 0.15584859E+00 0.73052111E+03</pdfrwt>
<pdfrwt beam="2">  1       21 0.84124874E-01 0.73052111E+03</pdfrwt>
<totfact> 0.24463650E+02</totfact>
</mgrwt>
</event>
<event>
 4    1  0.4760244E-002  0.4390552E+03  0.7818608E-02  0.1031037E+00
         21   -1    0    0  501  502  0.00000000000E+00  0.00000000000E+00  0.60741881882E+03  0.60741881882E+03  0.00000000000E+00 0.  1.
         21   -1    0    0  502  503 -0.00000000000E+00 -0.00000000000E+00 -0.32971061925E+03  0.32971061925E+03  0.00000000000E+00 0. -1.
    9000007    1    1    2  501    0 -0.34195863747E+02 -0.17776426261E+03  0.22954732987E+03  0.49544067941E+03  0.40000000000E+03 0.  1.
   -9000007    1    1    2    0  503  0.34195863747E+02  0.17776426261E+03  0.48160869691E+02  0.44168875866E+03  0.40000000000E+03 0. -1.
<mgrwt>
<rscale>  2 0.43905522E+03</rscale>
<asrwt>0</asrwt>
<pdfrwt beam="1">  1       21 0.93449049E-01 0.43905522E+03</pdfrwt>
<pdfrwt beam="2">  1       21 0.50724711E-01 0.43905522E+03</pdfrwt>
<totfact> 0.31110663E+03</totfact>
</mgrwt>
</event>
<event>
 4    1  0.4760244E-002  0.4657601E+03  0.7818608E-02  0.1023124E+00
         21   -1    0    0  501  502  0.00000000000E+00  0.00000000000E+00  0.78463663756E+03  0.78463663756E+03  0.00000000000E+00 0. -1.
         21   -1    0    0  502  503 -0.00000000000E+00 -0.00000000000E+00 -0.43678359649E+03  0.43678359649E+03  0.00000000000E+00 0. -1.
    9000007    1    1    2  501    0  0.16365119351E+03 -0.17363980929E+03  0.54390819938E+03  0.71607864502E+03  0.40000000000E+03 0. -1.
   -9000007    1    1    2    0  503 -0.16365119351E+03  0.17363980929E+03 -0.19605515830E+03  0.50534158903E+03  0.40000000000E+03 0. -1.
<mgrwt>
<rscale>  2 0.46576013E+03</rscale>
<asrwt>0</asrwt>
<pdfrwt beam="1">  1       21 0.12071333E+00 0.46576013E+03</pdfrwt>
<pdfrwt beam="2">  1       21 0.67197477E-01 0.46576013E+03</pdfrwt>
<totfact> 0.88718329E+02</totfact>
</mgrwt>
</event>
<event>
 4    1  0.4760244E-002  0.4937944E+03  0.7818608E-02  0.1015411E+00
         21   -1    0    0  501  502  0.00000000000E+00  0.00000000000E+00  0.19025436267E+03  0.19025436267E+03  0.00000000000E+00 0.  1.
         21   -1    0    0  502  503 -0.00000000000E+00 -0.00000000000E+00 -0.15092323475E+04  0.15092323475E+04  0.00000000000E+00 0. -1.
    9000007    1    1    2  501    0  0.28446835410E+03 -0.53950815873E+02 -0.98948748220E+03  0.11058564158E+04  0.40000000000E+03 0. -1.
   -9000007    1    1    2    0  503 -0.28446835410E+03  0.53950815873E+02 -0.32949050263E+03  0.59363029433E+03  0.40000000000E+03 0.  1.
<mgrwt>
<rscale>  2 0.49379443E+03</rscale>
<asrwt>0</asrwt>
<pdfrwt beam="1">  1       21 0.29269902E-01 0.49379443E+03</pdfrwt>
<pdfrwt beam="2">  1       21 0.23218960E+00 0.49379443E+03</pdfrwt>
<totfact> 0.76388675E+02</totfact>
</mgrwt>
</event>
<event>
 4    1  0.4760244E-002  0.4811847E+03  0.7818608E-02  0.1018810E+00
         21   -1    0    0  503  502  0.00000000000E+00  0.00000000000E+00  0.31826372111E+03  0.31826372111E+03  0.00000000000E+00 0. -1.
         21   -1    0    0  501  503 -0.00000000000E+00 -0.00000000000E+00 -0.18123348534E+04  0.18123348534E+04  0.00000000000E+00 0. -1.
    9000007    1    1    2  501    0  0.26195876128E+03 -0.54003139943E+02 -0.15712364028E+04  0.16432658230E+04  0.40000000000E+03 0. -1.
   -9000007    1    1    2    0  502 -0.26195876128E+03  0.54003139943E+02  0.77165270449E+02  0.48733275151E+03  0.40000000000E+03 0. -1.
<mgrwt>
<rscale>  2 0.48118472E+03</rscale>
<asrwt>0</asrwt>
<pdfrwt beam="1">  1       21 0.48963651E-01 0.48118472E+03</pdfrwt>
<pdfrwt beam="2">  1       21 0.27882074E+00 0.48118472E+03</pdfrwt>
<totfact> 0.13836190E+02</totfact>
</mgrwt>
</event>
<event>
 4    1  0.4760244E-002  0.5306925E+03  0.7818608E-02  0.1006064E+00
         21   -1    0    0  503  502  0.00000000000E+00  0.00000000000E+00  0.31631773521E+03  0.31631773521E+03  0.00000000000E+00 0.  1.
         21   -1    0    0  501  503 -0.00000000000E+00 -0.00000000000E+00 -0.11199184812E+04  0.11199184812E+04  0.00000000000E+00 0.  1.
    9000007    1    1    2  501    0 -0.15904173721E+03 -0.31038731527E+03 -0.76671438486E+02  0.53620245163E+03  0.40000000000E+03 0.  1.
   -9000007    1    1    2    0  502  0.15904173721E+03  0.31038731527E+03 -0.72692930750E+03  0.90003376479E+03  0.40000000000E+03 0.  1.
<mgrwt>
<rscale>  2 0.53069253E+03</rscale>
<asrwt>0</asrwt>
<pdfrwt beam="1">  1       21 0.48664268E-01 0.53069253E+03</pdfrwt>
<pdfrwt beam="2">  1       21 0.17229515E+00 0.53069253E+03</pdfrwt>
<totfact> 0.66872804E+02</totfact>
</mgrwt>
</event>
<event>
 4    1  0.4760244E-002  0.4104710E+03  0.7818608E-02  0.1040213E+00
         21   -1    0    0  503  502  0.00000000000E+00  0.00000000000E+00  0.11628998398E+04  0.11628998398E+04  0.00000000000E+00 0.  1.
         21   -1    0    0  501  503 -0.00000000000E+00 -0.00000000000E+00 -0.14510860972E+03  0.14510860972E+03  0.00000000000E+00 0.  1.
    9000007    1    1    2  501    0 -0.69474613361E+02  0.60495711971E+02  0.48320813374E+03  0.63401620924E+03  0.40000000000E+03 0.  1.
   -9000007    1    1    2    0  502  0.69474613361E+02 -0.60495711971E+02  0.53458309632E+03  0.67399224027E+03  0.40000000000E+03 0.  1.
<mgrwt>
<rscale>  2 0.41047101E+03</rscale>
<asrwt>0</asrwt>
<pdfrwt beam="1">  1       21 0.17890766E+00 0.41047101E+03</pdfrwt>
<pdfrwt beam="2">  1       21 0.22324402E-01 0.41047101E+03</pdfrwt>
<totfact> 0.30270766E+03</totfact>
</mgrwt>
</event>
<event>
 4    1  0.4760244E-002  0.4170966E+03  0.7818608E-02  0.1038015E+00
         21   -1    0    0  501  502  0.00000000000E+00  0.00000000000E+00  0.16487461198E+03  0.16487461198E+03  0.00000000000E+00 0. -1.
         21   -1    0    0  502  503 -0.00000000000E+00 -0.00000000000E+00 -0.10769533965E+04  0.10769533965E+04  0.00000000000E+00 0. -1.
    9000007    1    1    2  501    0 -0.31999850476E+02  0.11377882584E+03 -0.36771833271E+03  0.55604530737E+03  0.40000000000E+03 0. -1.
   -9000007    1    1    2    0  503  0.31999850476E+02 -0.11377882584E+03 -0.54436045186E+03  0.68578270115E+03  0.40000000000E+03 0. -1.
<mgrwt>
<rscale>  2 0.41709665E+03</rscale>
<asrwt>0</asrwt>
<pdfrwt beam="1">  1       21 0.25365324E-01 0.41709665E+03</pdfrwt>
<pdfrwt beam="2">  1       21 0.16568514E+00 0.41709665E+03</pdfrwt>
<totfact> 0.29367688E+03</totfact>
</mgrwt>
</event>
<event>
 4    1  0.4760244E-002  0.4006856E+03  0.7818608E-02  0.1043543E+00
         21   -1    0    0  503  502  0.00000000000E+00  0.00000000000E+00  0.73303256590E+03  0.73303256590E+03  0.00000000000E+00 0. -1.
         21   -1    0    0  501  503 -0.00000000000E+00 -0.00000000000E+00 -0.26111729722E+03  0.26111729722E+03  0.00000000000E+00 0. -1.
    9000007    1    1    2  501    0 -0.51856134638E+01 -0.22848025579E+02  0.36371562552E+02  0.40233296338E+03  0.40000000000E+03 0.  1.
   -9000007    1    1    2    0  502  0.51856134638E+01  0.22848025579E+02  0.43554370613E+03  0.59181689973E+03  0.40000000000E+03 0.  1.
<mgrwt>
<rscale>  2 0.40068557E+03</rscale>
<asrwt>0</asrwt>
<pdfrwt beam="1">  1       21 0.11277424E+00 0.40068557E+03</pdfrwt>
<pdfrwt beam="2">  1       21 0.40171892E-01 0.40068557E+03</pdfrwt>
<totfact> 0.32518854E+03</totfact>
</mgrwt>
</event>
<event>
 4    1  0.4760244E-002  0.8383999E+03  0.7818608E-02  0.9506040E-01
         21   -1    0    0  501  502  0.00000000000E+00  0.00000000000E+00  0.74407462022E+03  0.74407462022E+03  0.00000000000E+00 0. -1.
         21   -1    0    0  502  503 -0.00000000000E+00 -0.00000000000E+00 -0.13504783006E+04  0.13504783006E+04  0.00000000000E+00 0. -1.
    9000007    1    1    2  501    0  0.39294306791E+03  0.62330575328E+03  0.27087665575E+03  0.88107234625E+03  0.40000000000E+03 0. -1.
   -9000007    1    1    2    0  503 -0.39294306791E+03 -0.62330575328E+03 -0.87728033608E+03  0.12134805745E+04  0.40000000000E+03 0. -1.
<mgrwt>
<rscale>  2 0.83839985E+03</rscale>
<asrwt>0</asrwt>
<pdfrwt beam="1">  1       21 0.11447302E+00 0.83839985E+03</pdfrwt>
<pdfrwt beam="2">  1       21 0.20776589E+00 0.83839985E+03</pdfrwt>
<totfact> 0.47085500E+01</totfact>
</mgrwt>
</event>
<event>
 4    1  0.4760244E-002  0.4282777E+03  0.7818608E-02  0.1034405E+00
         21   -1    0    0  501  502  0.00000000000E+00  0.00000000000E+00  0.76342685402E+03  0.76342685402E+03  0.00000000000E+00 0. -1.
         21   -1    0    0  502  503 -0.00000000000E+00 -0.00000000000E+00 -0.27489720261E+03  0.27489720261E+03  0.00000000000E+00 0. -1.
    9000007    1    1    2  501    0  0.14868640641E+03  0.36250935242E+02  0.59983107725E+02  0.43245780253E+03  0.40000000000E+03 0. -1.
   -9000007    1    1    2    0  503 -0.14868640641E+03 -0.36250935242E+02  0.42854654368E+03  0.60586625410E+03  0.40000000000E+03 0. -1.
<mgrwt>
<rscale>  2 0.42827769E+03</rscale>
<asrwt>0</asrwt>
<pdfrwt beam="1">  1       21 0.11745028E+00 0.42827769E+03</pdfrwt>
<pdfrwt beam="2">  1       21 0.42291878E-01 0.42827769E+03</pdfrwt>
<totfact> 0.26134656E+03</totfact>
</mgrwt>
</event>
<event>
 4    1  0.4760244E-002  0.4656377E+03  0.7818608E-02  0.1023159E+00
         21   -1    0    0  503  502  0.00000000000E+00  0.00000000000E+00  0.14485376708E+03  0.14485376708E+03  0.00000000000E+00 0. -1.
         21   -1    0    0  501  503 -0.00000000000E+00 -0.00000000000E+00 -0.16897628716E+04  0.16897628716E+04  0.00000000000E+00 0. -1.
    9000007    1    1    2  501    0  0.21516454130E+03  0.10258014955E+03 -0.10824311107E+04  0.11783359353E+04  0.40000000000E+03 0. -1.
   -9000007    1    1    2    0  502 -0.21516454130E+03 -0.10258014955E+03 -0.46247799380E+03  0.65628070341E+03  0.40000000000E+03 0. -1.
<mgrwt>
<rscale>  2 0.46563770E+03</rscale>
<asrwt>0</asrwt>
<pdfrwt beam="1">  1       21 0.22285193E-01 0.46563770E+03</pdfrwt>
<pdfrwt beam="2">  1       21 0.25996354E+00 0.46563770E+03</pdfrwt>
<totfact> 0.88772242E+02</totfact>
</mgrwt>
</event>
<event>
 4    1  0.4760244E-002  0.4134360E+03  0.7818608E-02  0.1039224E+00
         21   -1    0    0  503  502  0.00000000000E+00  0.00000000000E+00  0.23935944395E+03  0.23935944395E+03  0.00000000000E+00 0.  1.
         21   -1    0    0  501  503 -0.00000000000E+00 -0.00000000000E+00 -0.14235765913E+04  0.14235765913E+04  0.00000000000E+00 0.  1.
    9000007    1    1    2  501    0 -0.87283354879E+02  0.57540703907E+02 -0.11790850062E+04  0.12494681943E+04  0.40000000000E+03 0.  1.
   -9000007    1    1    2    0  502  0.87283354879E+02 -0.57540703907E+02 -0.51321411445E+01  0.41346784097E+03  0.40000000000E+03 0.  1.
<mgrwt>
<rscale>  2 0.41343599E+03</rscale>
<asrwt>0</asrwt>
<pdfrwt beam="1">  1       21 0.36824529E-01 0.41343599E+03</pdfrwt>
<pdfrwt beam="2">  1       21 0.21901179E+00 0.41343599E+03</pdfrwt>
<totfact> 0.60743581E+02</totfact>
</mgrwt>
</event>
<event>
 4    1  0.4760244E-002  0.5167054E+03  0.7818608E-02  0.1009508E+00
         21   -1    0    0  501  502  0.00000000000E+00  0.00000000000E+00  0.54466602979E+03  0.54466602979E+03  0.00000000000E+00 0. -1.
         21   -1    0    0  502  503 -0.00000000000E+00 -0.00000000000E+00 -0.69456836931E+03  0.69456836931E+03  0.00000000000E+00 0.  1.
    9000007    1    1    2  501    0 -0.24631335664E+03 -0.21520733506E+03  0.26116848763E+03  0.57895893261E+03  0.40000000000E+03 0. -1.
   -9000007    1    1    2    0  503  0.24631335664E+03  0.21520733506E+03 -0.41107082714E+03  0.66027546649E+03  0.40000000000E+03 0.  1.
<mgrwt>
<rscale>  2 0.51670540E+03</rscale>
<asrwt>0</asrwt>
<pdfrwt beam="1">  1       21 0.83794774E-01 0.51670540E+03</pdfrwt>
<pdfrwt beam="2">  1       21 0.10685667E+00 0.51670540E+03</pdfrwt>
<totfact> 0.71262291E+02</totfact>
</mgrwt>
</event>
<event>
 4    1  0.4760244E-002  0.4427130E+03  0.7818608E-02  0.1029918E+00
         21   -1    0    0  501  502  0.00000000000E+00  0.00000000000E+00  0.42301965774E+03  0.42301965774E+03  0.00000000000E+00 0. -1.
         21   -1    0    0  502  503 -0.00000000000E+00 -0.00000000000E+00 -0.49600090448E+03  0.49600090448E+03  0.00000000000E+00 0. -1.
    9000007    1    1    2  501    0 -0.12165776759E+02 -0.18933249590E+03  0.81454531374E+02  0.45014402230E+03  0.40000000000E+03 0. -1.
   -9000007    1    1    2    0  503  0.12165776759E+02  0.18933249590E+03 -0.15443577811E+03  0.46887653992E+03  0.40000000000E+03 0. -1.
<mgrwt>
<rscale>  2 0.44271300E+03</rscale>
<asrwt>0</asrwt>
<pdfrwt beam="1">  1       21 0.65079947E-01 0.44271300E+03</pdfrwt>
<pdfrwt beam="2">  1       21 0.76307831E-01 0.44271300E+03</pdfrwt>
<totfact> 0.29008681E+03</totfact>
</mgrwt>
</event>
<event>
 4    1  0.4760244E-002  0.4125444E+03  0.7818608E-02  0.1039521E+00
         21   -1    0    0  503  502  0.00000000000E+00  0.00000000000E+00  0.37202131961E+03  0.37202131961E+03  0.00000000000E+00 0. -1.
         21   -1    0    0  501  503 -0.00000000000E+00 -0.00000000000E+00 -0.82589702913E+03  0.82589702913E+03  0.00000000000E+00 0. -1.
    9000007    1    1    2  501    0 -0.89901309495E+02 -0.45941779741E+02 -0.62697765323E+03  0.75052906021E+03  0.40000000000E+03 0. -1.
   -9000007    1    1    2    0  502  0.89901309495E+02  0.45941779741E+02  0.17310194370E+03  0.44738928853E+03  0.40000000000E+03 0. -1.
<mgrwt>
<rscale>  2 0.41254441E+03</rscale>
<asrwt>0</asrwt>
<pdfrwt beam="1">  1       21 0.57234050E-01 0.41254441E+03</pdfrwt>
<pdfrwt beam="2">  1       21 0.12706108E+00 0.41254441E+03</pdfrwt>
<totfact> 0.11334656E+03</totfact>
</mgrwt>
</event>
<event>
 4    1  0.4760244E-002  0.4198259E+03  0.7818608E-02  0.1037123E+00
         21   -1    0    0  503  502  0.00000000000E+00  0.00000000000E+00  0.48362195726E+03  0.48362195726E+03  0.00000000000E+00 0. -1.
         21   -1    0    0  501  503 -0.00000000000E+00 -0.00000000000E+00 -0.38694826854E+03  0.38694826854E+03  0.00000000000E+00 0. -1.
    9000007    1    1    2  501    0 -0.12650175395E+03 -0.15845084998E+02  0.15330729072E+03  0.44694170298E+03  0.40000000000E+03 0. -1.
   -9000007    1    1    2    0  502  0.12650175395E+03  0.15845084998E+02 -0.56633602006E+02  0.42362852282E+03  0.40000000000E+03 0. -1.
<mgrwt>
<rscale>  2 0.41982587E+03</rscale>
<asrwt>0</asrwt>
<pdfrwt beam="1">  1       21 0.74403378E-01 0.41982587E+03</pdfrwt>
<pdfrwt beam="2">  1       21 0.59530503E-01 0.41982587E+03</pdfrwt>
<totfact> 0.37711081E+03</totfact>
</mgrwt>
</event>
<event>
 4    1  0.4760244E-002  0.5797494E+03  0.7818608E-02  0.9948334E-01
         21   -1    0    0  503  502  0.00000000000E+00  0.00000000000E+00  0.13588879228E+03  0.13588879228E+03  0.00000000000E+00 0.  1.
         21   -1    0    0  501  503 -0.00000000000E+00 -0.00000000000E+00 -0.26112210425E+04  0.26112210425E+04  0.00000000000E+00 0.  1.
    9000007    1    1    2  501    0  0.84830226975E+02  0.41099050115E+03 -0.15532091216E+04  0.16578805551E+04  0.40000000000E+03 0.  1.
   -9000007    1    1    2    0  502 -0.84830226975E+02 -0.41099050115E+03 -0.92212312856E+03  0.10892292797E+04  0.40000000000E+03 0.  1.
<mgrwt>
<rscale>  2 0.57974939E+03</rscale>
<asrwt>0</asrwt>
<pdfrwt beam="1">  1       21 0.20905969E-01 0.57974939E+03</pdfrwt>
<pdfrwt beam="2">  1       21 0.40172629E+00 0.57974939E+03</pdfrwt>
<totfact> 0.12652951E+02</totfact>
</mgrwt>
</event>
<event>
 4    1  0.4760244E-002  0.4213823E+03  0.7818608E-02  0.1036617E+00
         21   -1    0    0  501  502  0.00000000000E+00  0.00000000000E+00  0.18180081398E+03  0.18180081398E+03  0.00000000000E+00 0.  1.
         21   -1    0    0  502  503 -0.00000000000E+00 -0.00000000000E+00 -0.12884371808E+04  0.12884371808E+04  0.00000000000E+00 0.  1.
    9000007    1    1    2  501    0 -0.64565963541E+02 -0.11573369377E+03 -0.19171917281E+03  0.46294631735E+03  0.40000000000E+03 0.  1.
   -9000007    1    1    2    0  503  0.64565963541E+02  0.11573369377E+03 -0.91491719400E+03  0.10072916774E+04  0.40000000000E+03 0.  1.
<mgrwt>
<rscale>  2 0.42138231E+03</rscale>
<asrwt>0</asrwt>
<pdfrwt beam="1">  1       21 0.27969356E-01 0.42138231E+03</pdfrwt>
<pdfrwt beam="2">  1       21 0.19822110E+00 0.42138231E+03</pdfrwt>
<totfact> 0.14331411E+03</totfact>
</mgrwt>
</event>
<event>
 4    1  0.4760244E-002  0.4416792E+03  0.7818608E-02  0.1030233E+00
         21   -1    0    0  501  502  0.00000000000E+00  0.00000000000E+00  0.30029997304E+04  0.30029997304E+04  0.00000000000E+00 0.  1.
         21   -1    0    0  502  503 -0.00000000000E+00 -0.00000000000E+00 -0.10856258921E+03  0.10856258921E+03  0.00000000000E+00 0.  1.
    9000007    1    1    2  501    0  0.15192647922E+03 -0.10953917249E+03  0.24331693306E+04  0.24729321618E+04  0.40000000000E+03 0.  1.
   -9000007    1    1    2    0  503 -0.15192647922E+03  0.10953917249E+03  0.46126781055E+03  0.63863015780E+03  0.40000000000E+03 0.  1.
<mgrwt>
<rscale>  2 0.44167917E+03</rscale>
<asrwt>0</asrwt>
<pdfrwt beam="1">  1       21 0.46199990E+00 0.44167917E+03</pdfrwt>
<pdfrwt beam="2">  1       21 0.16701939E-01 0.44167917E+03</pdfrwt>
<totfact> 0.83730930E+01</totfact>
</mgrwt>
</event>
<event>
 4    1  0.4760244E-002  0.4098357E+03  0.7818608E-02  0.1040426E+00
         21   -1    0    0  501  502  0.00000000000E+00  0.00000000000E+00  0.36161241144E+03  0.36161241144E+03  0.00000000000E+00 0. -1.
         21   -1    0    0  502  503 -0.00000000000E+00 -0.00000000000E+00 -0.48404459847E+03  0.48404459847E+03  0.00000000000E+00 0. -1.
    9000007    1    1    2  501    0 -0.85363792871E+02  0.26044218860E+02  0.23770062333E+02  0.41052441381E+03  0.40000000000E+03 0. -1.
   -9000007    1    1    2    0  503  0.85363792871E+02 -0.26044218860E+02 -0.14620224937E+03  0.43513259610E+03  0.40000000000E+03 0. -1.
<mgrwt>
<rscale>  2 0.40983567E+03</rscale>
<asrwt>0</asrwt>
<pdfrwt beam="1">  1       21 0.55632679E-01 0.40983567E+03</pdfrwt>
<pdfrwt beam="2">  1       21 0.74468400E-01 0.40983567E+03</pdfrwt>
<totfact> 0.43759024E+03</totfact>
</mgrwt>
</event>
<event>
 4    1  0.4760244E-002  0.4883262E+03  0.7818608E-02  0.1016872E+00
         21   -1    0    0  501  502  0.00000000000E+00  0.00000000000E+00  0.11913522757E+04  0.11913522757E+04  0.00000000000E+00 0. -1.
         21   -1    0    0  502  503 -0.00000000000E+00 -0.00000000000E+00 -0.23712261804E+03  0.23712261804E+03  0.00000000000E+00 0. -1.
    9000007    1    1    2  501    0  0.89451190353E+02  0.26544486572E+03  0.75910273446E+03  0.90260703169E+03  0.40000000000E+03 0. -1.
   -9000007    1    1    2    0  503 -0.89451190353E+02 -0.26544486572E+03  0.19512692320E+03  0.52586786206E+03  0.40000000000E+03 0. -1.
<mgrwt>
<rscale>  2 0.48832621E+03</rscale>
<asrwt>0</asrwt>
<pdfrwt beam="1">  1       21 0.18328496E+00 0.48832621E+03</pdfrwt>
<pdfrwt beam="2">  1       21 0.36480403E-01 0.48832621E+03</pdfrwt>
<totfact> 0.10340211E+03</totfact>
</mgrwt>
</event>
<event>
 4    1  0.4760244E-002  0.4469366E+03  0.7818608E-02  0.1028640E+00
         21   -1    0    0  501  502  0.00000000000E+00  0.00000000000E+00  0.60654434608E+03  0.60654434608E+03  0.00000000000E+00 0. -1.
         21   -1    0    0  502  503 -0.00000000000E+00 -0.00000000000E+00 -0.11366410396E+04  0.11366410396E+04  0.00000000000E+00 0. -1.
    9000007    1    1    2  501    0 -0.26409369988E+02 -0.19762296019E+03  0.46950405953E+03  0.64821782692E+03  0.40000000000E+03 0. -1.
   -9000007    1    1    2    0  503  0.26409369988E+02  0.19762296019E+03 -0.99960075302E+03  0.10949675587E+04  0.40000000000E+03 0. -1.
<mgrwt>
<rscale>  2 0.44693656E+03</rscale>
<asrwt>0</asrwt>
<pdfrwt beam="1">  1       21 0.93314516E-01 0.44693656E+03</pdfrwt>
<pdfrwt beam="2">  1       21 0.17486785E+00 0.44693656E+03</pdfrwt>
<totfact> 0.15430345E+02</totfact>
</mgrwt>
</event>
<event>
 4    1  0.4760244E-002  0.4734981E+03  0.7818608E-02  0.1020938E+00
         21   -1    0    0  503  502  0.00000000000E+00  0.00000000000E+00  0.15622788873E+03  0.15622788873E+03  0.00000000000E+00 0.  1.
         21   -1    0    0  501  503 -0.00000000000E+00 -0.00000000000E+00 -0.14651099745E+04  0.14651099745E+04  0.00000000000E+00 0.  1.
    9000007    1    1    2  501    0 -0.24242589683E+03 -0.73689622501E+02 -0.77049009107E+03  0.90435361246E+03  0.40000000000E+03 0.  1.
   -9000007    1    1    2    0  502  0.24242589683E+03  0.73689622501E+02 -0.53839199474E+03  0.71698425082E+03  0.40000000000E+03 0.  1.
<mgrwt>
<rscale>  2 0.47349813E+03</rscale>
<asrwt>0</asrwt>
<pdfrwt beam="1">  1       21 0.24035059E-01 0.47349813E+03</pdfrwt>
<pdfrwt beam="2">  1       21 0.22540154E+00 0.47349813E+03</pdfrwt>
<totfact> 0.12526892E+03</totfact>
</mgrwt>
</event>
<event>
 4    1  0.4760244E-002  0.6089228E+03  0.7818608E-02  0.9887065E-01
         21   -1    0    0  501  502  0.00000000000E+00  0.00000000000E+00  0.30835566228E+03  0.30835566228E+03  0.00000000000E+00 0.  1.
         21   -1    0    0  502  503 -0.00000000000E+00 -0.00000000000E+00 -0.12383196403E+04  0.12383196403E+04  0.00000000000E+00 0.  1.
    9000007    1    1    2  501    0  0.29106390898E+03 -0.35506167304E+03 -0.33339180060E+03  0.69421688504E+03  0.40000000000E+03 0.  1.
   -9000007    1    1    2    0  503 -0.29106390898E+03  0.35506167304E+03 -0.59657217745E+03  0.85245841756E+03  0.40000000000E+03 0.  1.
<mgrwt>
<rscale>  2 0.60892281E+03</rscale>
<asrwt>0</asrwt>
<pdfrwt beam="1">  1       21 0.47439334E-01 0.60892281E+03</pdfrwt>
<pdfrwt beam="2">  1       21 0.19051071E+00 0.60892281E+03</pdfrwt>
<totfact> 0.50964335E+02</totfact>
</mgrwt>
</event>
<event>
 4    1  0.4760244E-002  0.4358030E+03  0.7818608E-02  0.1032042E+00
         21   -1    0    0  503  502  0.00000000000E+00  0.00000000000E+00  0.52215837122E+03  0.52215837122E+03  0.00000000000E+00 0.  1.
         21   -1    0    0  501  503 -0.00000000000E+00 -0.00000000000E+00 -0.43502799217E+03  0.43502799217E+03  0.00000000000E+00 0.  1.
    9000007    1    1    2  501    0  0.12610971414E+03 -0.11840860718E+03 -0.15018802848E+03  0.46095629094E+03  0.40000000000E+03 0.  1.
   -9000007    1    1    2    0  502 -0.12610971414E+03  0.11840860718E+03  0.23731840753E+03  0.49623007245E+03  0.40000000000E+03 0.  1.
<mgrwt>
<rscale>  2 0.43580300E+03</rscale>
<asrwt>0</asrwt>
<pdfrwt beam="1">  1       21 0.80332057E-01 0.43580300E+03</pdfrwt>
<pdfrwt beam="2">  1       21 0.66927383E-01 0.43580300E+03</pdfrwt>
<totfact> 0.24279975E+03</totfact>
</mgrwt>
</event>
<event>
 4    1  0.4760244E-002  0.4195508E+03  0.7818608E-02  0.1037213E+00
         21   -1    0    0  501  502  0.00000000000E+00  0.00000000000E+00  0.68049265060E+03  0.68049265060E+03  0.00000000000E+00 0. -1.
         21   -1    0    0  502  503 -0.00000000000E+00 -0.00000000000E+00 -0.29634355531E+03  0.29634355531E+03  0.00000000000E+00 0. -1.
    9000007    1    1    2  501    0  0.49719724581E+01  0.12648388892E+03  0.36622054311E+03  0.55690248775E+03  0.40000000000E+03 0. -1.
   -9000007    1    1    2    0  503 -0.49719724581E+01 -0.12648388892E+03  0.17928552182E+02  0.41993371816E+03  0.40000000000E+03 0. -1.
<mgrwt>
<rscale>  2 0.41955082E+03</rscale>
<asrwt>0</asrwt>
<pdfrwt beam="1">  1       21 0.10469118E+00 0.41955082E+03</pdfrwt>
<pdfrwt beam="2">  1       21 0.45591316E-01 0.41955082E+03</pdfrwt>
<totfact> 0.29824050E+03</totfact>
</mgrwt>
</event>
<event>
 4    1  0.4760244E-002  0.4077313E+03  0.7818608E-02  0.1041135E+00
         21   -1    0    0  501  502  0.00000000000E+00  0.00000000000E+00  0.81951780776E+03  0.81951780776E+03  0.00000000000E+00 0.  1.
         21   -1    0    0  502  503 -0.00000000000E+00 -0.00000000000E+00 -0.20340512351E+03  0.20340512351E+03  0.00000000000E+00 0.  1.
    9000007    1    1    2  501    0 -0.68811125025E+01 -0.78723780847E+02  0.28150178135E+03  0.49546749266E+03  0.40000000000E+03 0. -1.
   -9000007    1    1    2    0  503  0.68811125025E+01  0.78723780847E+02  0.33461090291E+03  0.52745543861E+03  0.40000000000E+03 0. -1.
<mgrwt>
<rscale>  2 0.40773126E+03</rscale>
<asrwt>0</asrwt>
<pdfrwt beam="1">  1       21 0.12607966E+00 0.40773126E+03</pdfrwt>
<pdfrwt beam="2">  1       21 0.31293096E-01 0.40773126E+03</pdfrwt>
<totfact> 0.40547964E+03</totfact>
</mgrwt>
</event>
<event>
 4    1  0.4760244E-002  0.4255341E+03  0.7818608E-02  0.1035280E+00
         21   -1    0    0  503  502  0.00000000000E+00  0.00000000000E+00  0.48432155348E+03  0.48432155348E+03  0.00000000000E+00 0.  1.
         21   -1    0    0  501  503 -0.00000000000E+00 -0.00000000000E+00 -0.40633393316E+03  0.40633393316E+03  0.00000000000E+00 0.  1.
    9000007    1    1    2  501    0  0.12727458171E+03  0.69860087373E+02 -0.86857157598E+02  0.43430797458E+03  0.40000000000E+03 0.  1.
   -9000007    1    1    2    0  502 -0.12727458171E+03 -0.69860087373E+02  0.16484477792E+03  0.45634751206E+03  0.40000000000E+03 0.  1.
<mgrwt>
<rscale>  2 0.42553408E+03</rscale>
<asrwt>0</asrwt>
<pdfrwt beam="1">  1       21 0.74511008E-01 0.42553408E+03</pdfrwt>
<pdfrwt beam="2">  1       21 0.62512913E-01 0.42553408E+03</pdfrwt>
<totfact> 0.33692580E+03</totfact>
</mgrwt>
</event>
<event>
 4    1  0.4760244E-002  0.5138680E+03  0.7818608E-02  0.1010221E+00
         21   -1    0    0  501  502  0.00000000000E+00  0.00000000000E+00  0.30021548685E+03  0.30021548685E+03  0.00000000000E+00 0.  1.
         21   -1    0    0  502  503 -0.00000000000E+00 -0.00000000000E+00 -0.10438468215E+04  0.10438468215E+04  0.00000000000E+00 0. -1.
    9000007    1    1    2  501    0  0.30413086774E+03  0.10753923852E+03 -0.63841577761E+03  0.81953339019E+03  0.40000000000E+03 0. -1.
   -9000007    1    1    2    0  503 -0.30413086774E+03 -0.10753923852E+03 -0.10521555702E+03  0.52452891815E+03  0.40000000000E+03 0.  1.
<mgrwt>
<rscale>  2 0.51386795E+03</rscale>
<asrwt>0</asrwt>
<pdfrwt beam="1">  1       21 0.46186999E-01 0.51386795E+03</pdfrwt>
<pdfrwt beam="2">  1       21 0.16059181E+00 0.51386795E+03</pdfrwt>
<totfact> 0.91797519E+02</totfact>
</mgrwt>
</event>
<event>
 4    1  0.4760244E-002  0.4459203E+03  0.7818608E-02  0.1028946E+00
         21   -1    0    0  503  502  0.00000000000E+00  0.00000000000E+00  0.11371809900E+04  0.11371809900E+04  0.00000000000E+00 0.  1.
         21   -1    0    0  501  503 -0.00000000000E+00 -0.00000000000E+00 -0.36246794577E+03  0.36246794577E+03  0.00000000000E+00 0.  1.
    9000007    1    1    2  501    0  0.14746491404E+03  0.13076335217E+03 -0.15209568753E+03  0.47114546937E+03  0.40000000000E+03 0.  1.
   -9000007    1    1    2    0  502 -0.14746491404E+03 -0.13076335217E+03  0.92680873174E+03  0.10285034664E+04  0.40000000000E+03 0.  1.
<mgrwt>
<rscale>  2 0.44592035E+03</rscale>
<asrwt>0</asrwt>
<pdfrwt beam="1">  1       21 0.17495092E+00 0.44592035E+03</pdfrwt>
<pdfrwt beam="2">  1       21 0.55764300E-01 0.44592035E+03</pdfrwt>
<totfact> 0.49557723E+02</totfact>
</mgrwt>
</event>
<event>
 4    1  0.4760244E-002  0.7058835E+03  0.7818608E-02  0.9707223E-01
         21   -1    0    0  503  502  0.00000000000E+00  0.00000000000E+00  0.11438778728E+04  0.11438778728E+04  0.00000000000E+00 0.  1.
         21   -1    0    0  501  503 -0.00000000000E+00 -0.00000000000E+00 -0.50978798842E+03  0.50978798842E+03  0.00000000000E+00 0. -1.
    9000007    1    1    2  501    0  0.78091993073E+02 -0.57634470077E+03  0.16215274178E+01  0.70588540347E+03  0.40000000000E+03 0.  1.
   -9000007    1    1    2    0  502 -0.78091993073E+02  0.57634470077E+03  0.63246835693E+03  0.94778045770E+03  0.40000000000E+03 0. -1.
<mgrwt>
<rscale>  2 0.70588354E+03</rscale>
<asrwt>0</asrwt>
<pdfrwt beam="1">  1       21 0.17598121E+00 0.70588354E+03</pdfrwt>
<pdfrwt beam="2">  1       21 0.78428922E-01 0.70588354E+03</pdfrwt>
<totfact> 0.20500689E+02</totfact>
</mgrwt>
</event>
<event>
 4    1  0.4760244E-002  0.9323722E+03  0.7818608E-02  0.9385995E-01
         21   -1    0    0  503  502  0.00000000000E+00  0.00000000000E+00  0.48174125547E+03  0.48174125547E+03  0.00000000000E+00 0. -1.
         21   -1    0    0  501  503 -0.00000000000E+00 -0.00000000000E+00 -0.22717412768E+04  0.22717412768E+04  0.00000000000E+00 0.  1.
    9000007    1    1    2  501    0  0.43883250697E+02 -0.84106607508E+03 -0.15193502265E+04  0.17826225044E+04  0.40000000000E+03 0.  1.
   -9000007    1    1    2    0  502 -0.43883250697E+02  0.84106607508E+03 -0.27064979484E+03  0.97086002791E+03  0.40000000000E+03 0.  1.
<mgrwt>
<rscale>  2 0.93237218E+03</rscale>
<asrwt>0</asrwt>
<pdfrwt beam="1">  1       21 0.74114038E-01 0.93237218E+03</pdfrwt>
<pdfrwt beam="2">  1       21 0.34949866E+00 0.93237218E+03</pdfrwt>
<totfact> 0.16732063E+01</totfact>
</mgrwt>
</event>
<event>
 4    1  0.4760244E-002  0.4453765E+03  0.7818608E-02  0.1029110E+00
         21   -1    0    0  501  502  0.00000000000E+00  0.00000000000E+00  0.55975500775E+03  0.55975500775E+03  0.00000000000E+00 0. -1.
         21   -1    0    0  502  503 -0.00000000000E+00 -0.00000000000E+00 -0.35720252568E+03  0.35720252568E+03  0.00000000000E+00 0. -1.
    9000007    1    1    2  501    0  0.13063141639E+03 -0.14593041007E+03  0.60447426033E+02  0.44945983452E+03  0.40000000000E+03 0. -1.
   -9000007    1    1    2    0  503 -0.13063141639E+03  0.14593041007E+03  0.14210505603E+03  0.46749769891E+03  0.40000000000E+03 0. -1.
<mgrwt>
<rscale>  2 0.44537653E+03</rscale>
<asrwt>0</asrwt>
<pdfrwt beam="1">  1       21 0.86116155E-01 0.44537653E+03</pdfrwt>
<pdfrwt beam="2">  1       21 0.54954235E-01 0.44537653E+03</pdfrwt>
<totfact> 0.31718468E+03</totfact>
</mgrwt>
</event>
<event>
 4    1  0.4760244E-002  0.4275587E+03  0.7818608E-02  0.1034634E+00
         21   -1    0    0  503  502  0.00000000000E+00  0.00000000000E+00  0.52466734218E+03  0.52466734218E+03  0.00000000000E+00 0.  1.
         21   -1    0    0  501  503 -0.00000000000E+00 -0.00000000000E+00 -0.34887665687E+03  0.34887665687E+03  0.00000000000E+00 0.  1.
    9000007    1    1    2  501    0 -0.16612241416E+02 -0.15010161887E+03  0.10363571261E+03  0.43993956799E+03  0.40000000000E+03 0.  1.
   -9000007    1    1    2    0  502  0.16612241416E+02  0.15010161887E+03  0.72154972708E+02  0.43360443106E+03  0.40000000000E+03 0.  1.
<mgrwt>
<rscale>  2 0.42755872E+03</rscale>
<asrwt>0</asrwt>
<pdfrwt beam="1">  1       21 0.80718053E-01 0.42755872E+03</pdfrwt>
<pdfrwt beam="2">  1       21 0.53673332E-01 0.42755872E+03</pdfrwt>
<totfact> 0.39047160E+03</totfact>
</mgrwt>
</event>
<event>
 4    1  0.4760244E-002  0.4049121E+03  0.7818608E-02  0.1042092E+00
         21   -1    0    0  501  502  0.00000000000E+00  0.00000000000E+00  0.25919287264E+03  0.25919287264E+03  0.00000000000E+00 0.  1.
         21   -1    0    0  502  503 -0.00000000000E+00 -0.00000000000E+00 -0.12939048363E+04  0.12939048363E+04  0.00000000000E+00 0.  1.
    9000007    1    1    2  501    0 -0.34633155469E+02 -0.52481935787E+02  0.37823187307E+02  0.40667481178E+03  0.40000000000E+03 0.  1.
   -9000007    1    1    2    0  503  0.34633155469E+02  0.52481935787E+02 -0.10725351509E+04  0.11464228971E+04  0.40000000000E+03 0.  1.
<mgrwt>
<rscale>  2 0.40491210E+03</rscale>
<asrwt>0</asrwt>
<pdfrwt beam="1">  1       21 0.39875827E-01 0.40491210E+03</pdfrwt>
<pdfrwt beam="2">  1       21 0.19906228E+00 0.40491210E+03</pdfrwt>
<totfact> 0.69945080E+02</totfact>
</mgrwt>
</event>
<event>
 4    1  0.4760244E-002  0.5163308E+03  0.7818608E-02  0.1009602E+00
         21   -1    0    0  501  502  0.00000000000E+00  0.00000000000E+00  0.27130599700E+04  0.27130599700E+04  0.00000000000E+00 0. -1.
         21   -1    0    0  502  503 -0.00000000000E+00 -0.00000000000E+00 -0.11605799058E+03  0.11605799058E+03  0.00000000000E+00 0.  1.
    9000007    1    1    2  501    0  0.11191590955E+03  0.30671216082E+03  0.18523787632E+04  0.19229936565E+04  0.40000000000E+03 0. -1.
   -9000007    1    1    2    0  503 -0.11191590955E+03 -0.30671216082E+03  0.74462321623E+03  0.90612430414E+03  0.40000000000E+03 0.  1.
<mgrwt>
<rscale>  2 0.51633082E+03</rscale>
<asrwt>0</asrwt>
<pdfrwt beam="1">  1       21 0.41739379E+00 0.51633082E+03</pdfrwt>
<pdfrwt beam="2">  1       21 0.17855077E-01 0.51633082E+03</pdfrwt>
<totfact> 0.13993009E+02</totfact>
</mgrwt>
</event>
<event>
 4    1  0.4760244E-002  0.5896379E+03  0.7818608E-02  0.9927140E-01
         21   -1    0    0  503  502  0.00000000000E+00  0.00000000000E+00  0.87588778655E+03  0.87588778655E+03  0.00000000000E+00 0. -1.
         21   -1    0    0  501  503 -0.00000000000E+00 -0.00000000000E+00 -0.63944574802E+03  0.63944574802E+03  0.00000000000E+00 0.  1.
    9000007    1    1    2  501    0 -0.37258747721E+03  0.22102360119E+03  0.58481538280E+03  0.83047088595E+03  0.40000000000E+03 0. -1.
   -9000007    1    1    2    0  502  0.37258747721E+03 -0.22102360119E+03 -0.34837334427E+03  0.68486264861E+03  0.40000000000E+03 0. -1.
<mgrwt>
<rscale>  2 0.58963791E+03</rscale>
<asrwt>0</asrwt>
<pdfrwt beam="1">  1       21 0.13475197E+00 0.58963791E+03</pdfrwt>
<pdfrwt beam="2">  1       21 0.98376269E-01 0.58963791E+03</pdfrwt>
<totfact> 0.26155320E+02</totfact>
</mgrwt>
</event>
<event>
 4    1  0.4760244E-002  0.4495181E+03  0.7818608E-02  0.1027866E+00
         21   -1    0    0  503  502  0.00000000000E+00  0.00000000000E+00  0.67849766036E+03  0.67849766036E+03  0.00000000000E+00 0. -1.
         21   -1    0    0  501  503 -0.00000000000E+00 -0.00000000000E+00 -0.30561519769E+03  0.30561519769E+03  0.00000000000E+00 0. -1.
    9000007    1    1    2  501    0  0.53229470449E+02 -0.19807368889E+03  0.26505329272E+03  0.52184270689E+03  0.40000000000E+03 0. -1.
   -9000007    1    1    2    0  502 -0.53229470449E+02  0.19807368889E+03  0.10782916995E+03  0.46227015115E+03  0.40000000000E+03 0. -1.
<mgrwt>
<rscale>  2 0.44951815E+03</rscale>
<asrwt>0</asrwt>
<pdfrwt beam="1">  1       21 0.10438425E+00 0.44951815E+03</pdfrwt>
<pdfrwt beam="2">  1       21 0.47017723E-01 0.44951815E+03</pdfrwt>
<totfact> 0.27843254E+03</totfact>
</mgrwt>
</event>
<event>
 4    1  0.4760244E-002  0.4232339E+03  0.7818608E-02  0.1036019E+00
         21   -1    0    0  501  502  0.00000000000E+00  0.00000000000E+00  0.39424170661E+03  0.39424170661E+03  0.00000000000E+00 0.  1.
         21   -1    0    0  502  503 -0.00000000000E+00 -0.00000000000E+00 -0.59136011893E+03  0.59136011893E+03  0.00000000000E+00 0.  1.
    9000007    1    1    2  501    0 -0.35389795208E+02 -0.13369547182E+03  0.13863766428E+03  0.44536200865E+03  0.40000000000E+03 0.  1.
   -9000007    1    1    2    0  503  0.35389795208E+02  0.13369547182E+03 -0.33575607659E+03  0.54023981690E+03  0.40000000000E+03 0.  1.
<mgrwt>
<rscale>  2 0.42323388E+03</rscale>
<asrwt>0</asrwt>
<pdfrwt beam="1">  1       21 0.60652570E-01 0.42323388E+03</pdfrwt>
<pdfrwt beam="2">  1       21 0.90978480E-01 0.42323388E+03</pdfrwt>
<totfact> 0.22669771E+03</totfact>
</mgrwt>
</event>
<event>
 4    1  0.4760244E-002  0.4085049E+03  0.7818608E-02  0.1040874E+00
         21   -1    0    0  501  502  0.00000000000E+00  0.00000000000E+00  0.44555818106E+03  0.44555818106E+03  0.00000000000E+00 0. -1.
         21   -1    0    0  502  503 -0.00000000000E+00 -0.00000000000E+00 -0.51141456244E+03  0.51141456244E+03  0.00000000000E+00 0. -1.
    9000007    1    1    2  501    0  0.79354751302E+02 -0.24064747611E+02  0.21461748219E+03  0.46145092079E+03  0.40000000000E+03 0. -1.
   -9000007    1    1    2    0  503 -0.79354751302E+02  0.24064747611E+02 -0.28047386358E+03  0.49552182271E+03  0.40000000000E+03 0. -1.
<mgrwt>
<rscale>  2 0.40850494E+03</rscale>
<asrwt>0</asrwt>
<pdfrwt beam="1">  1       21 0.68547413E-01 0.40850494E+03</pdfrwt>
<pdfrwt beam="2">  1       21 0.78679163E-01 0.40850494E+03</pdfrwt>
<totfact> 0.24402233E+03</totfact>
</mgrwt>
</event>
<event>
 4    1  0.4760244E-002  0.4678996E+03  0.7818608E-02  0.1022515E+00
         21   -1    0    0  501  502  0.00000000000E+00  0.00000000000E+00  0.97020471256E+03  0.97020471256E+03  0.00000000000E+00 0. -1.
         21   -1    0    0  502  503 -0.00000000000E+00 -0.00000000000E+00 -0.24529566263E+03  0.24529566263E+03  0.00000000000E+00 0. -1.
    9000007    1    1    2  501    0 -0.73126079500E+02  0.23147909554E+03  0.53443371080E+03  0.71031639881E+03  0.40000000000E+03 0. -1.
   -9000007    1    1    2    0  503  0.73126079500E+02 -0.23147909554E+03  0.19047533913E+03  0.50518397638E+03  0.40000000000E+03 0. -1.
<mgrwt>
<rscale>  2 0.46789956E+03</rscale>
<asrwt>0</asrwt>
<pdfrwt beam="1">  1       21 0.14926226E+00 0.46789956E+03</pdfrwt>
<pdfrwt beam="2">  1       21 0.37737795E-01 0.46789956E+03</pdfrwt>
<totfact> 0.17390255E+03</totfact>
</mgrwt>
</event>
<event>
 4    1  0.4760244E-002  0.4493992E+03  0.7818608E-02  0.1027901E+00
         21   -1    0    0  501  502  0.00000000000E+00  0.00000000000E+00  0.16039108730E+03  0.16039108730E+03  0.00000000000E+00 0.  1.
         21   -1    0    0  502  503 -0.00000000000E+00 -0.00000000000E+00 -0.13981806247E+04  0.13981806247E+04  0.00000000000E+00 0.  1.
    9000007    1    1    2  501    0 -0.15912891345E+03  0.12898690884E+03 -0.37317547117E+03  0.58414002262E+03  0.40000000000E+03 0.  1.
   -9000007    1    1    2    0  503  0.15912891345E+03 -0.12898690884E+03 -0.86461406624E+03  0.97443168939E+03  0.40000000000E+03 0.  1.
<mgrwt>
<rscale>  2 0.44939919E+03</rscale>
<asrwt>0</asrwt>
<pdfrwt beam="1">  1       21 0.24675552E-01 0.44939919E+03</pdfrwt>
<pdfrwt beam="2">  1       21 0.21510471E+00 0.44939919E+03</pdfrwt>
<totfact> 0.14005397E+03</totfact>
</mgrwt>
</event>
<event>
 4    1  0.4760244E-002  0.4077705E+03  0.7818608E-02  0.1041122E+00
         21   -1    0    0  501  502  0.00000000000E+00  0.00000000000E+00  0.35222278557E+03  0.35222278557E+03  0.00000000000E+00 0. -1.
         21   -1    0    0  502  503 -0.00000000000E+00 -0.00000000000E+00 -0.54036005089E+03  0.54036005089E+03  0.00000000000E+00 0. -1.
    9000007    1    1    2  501    0  0.29268898438E+02  0.73621511849E+02  0.64577206843E+02  0.41285228722E+03  0.40000000000E+03 0.  1.
   -9000007    1    1    2    0  503 -0.29268898438E+02 -0.73621511849E+02 -0.25271447216E+03  0.47973054923E+03  0.40000000000E+03 0.  1.
<mgrwt>
<rscale>  2 0.40777052E+03</rscale>
<asrwt>0</asrwt>
<pdfrwt beam="1">  1       21 0.54188121E-01 0.40777052E+03</pdfrwt>
<pdfrwt beam="2">  1       21 0.83132315E-01 0.40777052E+03</pdfrwt>
<totfact> 0.35991488E+03</totfact>
</mgrwt>
</event>
<event>
 4    1  0.4760244E-002  0.7244399E+03  0.7818608E-02  0.9676326E-01
         21   -1    0    0  503  502  0.00000000000E+00  0.00000000000E+00  0.14688340791E+04  0.14688340791E+04  0.00000000000E+00 0. -1.
         21   -1    0    0  501  503 -0.00000000000E+00 -0.00000000000E+00 -0.56047861249E+03  0.56047861249E+03  0.00000000000E+00 0.  1.
    9000007    1    1    2  501    0  0.27239008263E+03 -0.53908891321E+03 -0.15673520620E+03  0.74120114566E+03  0.40000000000E+03 0.  1.
   -9000007    1    1    2    0  502 -0.27239008263E+03  0.53908891321E+03  0.10650906728E+04  0.12881115459E+04  0.40000000000E+03 0. -1.
<mgrwt>
<rscale>  2 0.72443993E+03</rscale>
<asrwt>0</asrwt>
<pdfrwt beam="1">  1       21 0.22597447E+00 0.72443993E+03</pdfrwt>
<pdfrwt beam="2">  1       21 0.86227479E-01 0.72443993E+03</pdfrwt>
<totfact> 0.74489512E+01</totfact>
</mgrwt>
</event>
<event>
 4    1  0.4760244E-002  0.5921272E+03  0.7818608E-02  0.9921875E-01
         21   -1    0    0  501  502  0.00000000000E+00  0.00000000000E+00  0.21759969242E+03  0.21759969242E+03  0.00000000000E+00 0.  1.
         21   -1    0    0  502  503 -0.00000000000E+00 -0.00000000000E+00 -0.18945726637E+04  0.18945726637E+04  0.00000000000E+00 0.  1.
    9000007    1    1    2  501    0 -0.35195388568E+03  0.25834690126E+03 -0.43011145328E+03  0.73185416667E+03  0.40000000000E+03 0.  1.
   -9000007    1    1    2    0  503  0.35195388568E+03 -0.25834690126E+03 -0.12468615180E+04  0.13803181895E+04  0.40000000000E+03 0.  1.
<mgrwt>
<rscale>  2 0.59212723E+03</rscale>
<asrwt>0</asrwt>
<pdfrwt beam="1">  1       21 0.33476876E-01 0.59212723E+03</pdfrwt>
<pdfrwt beam="2">  1       21 0.29147272E+00 0.59212723E+03</pdfrwt>
<totfact> 0.24114118E+02</totfact>
</mgrwt>
</event>
<event>
 4    1  0.4760244E-002  0.4269911E+03  0.7818608E-02  0.1034815E+00
         21   -1    0    0  503  502  0.00000000000E+00  0.00000000000E+00  0.62780540891E+03  0.62780540891E+03  0.00000000000E+00 0.  1.
         21   -1    0    0  501  503 -0.00000000000E+00 -0.00000000000E+00 -0.29141610530E+03  0.29141610530E+03  0.00000000000E+00 0.  1.
    9000007    1    1    2  501    0  0.11642831462E+03  0.93626229394E+02  0.19519061528E+03  0.46948993553E+03  0.40000000000E+03 0.  1.
   -9000007    1    1    2    0  502 -0.11642831462E+03 -0.93626229394E+02  0.14119868833E+03  0.44973157868E+03  0.40000000000E+03 0.  1.
<mgrwt>
<rscale>  2 0.42699113E+03</rscale>
<asrwt>0</asrwt>
<pdfrwt beam="1">  1       21 0.96585447E-01 0.42699113E+03</pdfrwt>
<pdfrwt beam="2">  1       21 0.44833247E-01 0.42699113E+03</pdfrwt>
<totfact> 0.37467960E+03</totfact>
</mgrwt>
</event>
<event>
 4    1  0.4760244E-002  0.4932000E+03  0.7818608E-02  0.1015569E+00
         21   -1    0    0  501  502  0.00000000000E+00  0.00000000000E+00  0.22764052613E+03  0.22764052613E+03  0.00000000000E+00 0.  1.
         21   -1    0    0  502  503 -0.00000000000E+00 -0.00000000000E+00 -0.15888602635E+04  0.15888602635E+04  0.00000000000E+00 0.  1.
    9000007    1    1    2  501    0  0.28812707070E+03 -0.15133784571E+02 -0.16086263447E+03  0.51877068872E+03  0.40000000000E+03 0.  1.
   -9000007    1    1    2    0  503 -0.28812707070E+03  0.15133784571E+02 -0.12003571029E+04  0.12977301009E+04  0.40000000000E+03 0.  1.
<mgrwt>
<rscale>  2 0.49320000E+03</rscale>
<asrwt>0</asrwt>
<pdfrwt beam="1">  1       21 0.35021618E-01 0.49320000E+03</pdfrwt>
<pdfrwt beam="2">  1       21 0.24444005E+00 0.49320000E+03</pdfrwt>
<totfact> 0.44697930E+02</totfact>
</mgrwt>
</event>
<event>
 4    1  0.4760244E-002  0.4066763E+03  0.7818608E-02  0.1041492E+00
         21   -1    0    0  503  502  0.00000000000E+00  0.00000000000E+00  0.15748569856E+04  0.15748569856E+04  0.00000000000E+00 0.  1.
         21   -1    0    0  501  503 -0.00000000000E+00 -0.00000000000E+00 -0.42993239702E+03  0.42993239702E+03  0.00000000000E+00 0. -1.
    9000007    1    1    2  501    0 -0.68503978737E+02  0.26321905635E+02 -0.29895122325E+03  0.50473505099E+03  0.40000000000E+03 0. -1.
   -9000007    1    1    2    0  502  0.68503978737E+02 -0.26321905635E+02  0.14438758118E+04  0.15000543316E+04  0.40000000000E+03 0.  1.
<mgrwt>
<rscale>  2 0.40667633E+03</rscale>
<asrwt>0</asrwt>
<pdfrwt beam="1">  1       21 0.24228569E+00 0.40667633E+03</pdfrwt>
<pdfrwt beam="2">  1       21 0.66143447E-01 0.40667633E+03</pdfrwt>
<totfact> 0.12580181E+02</totfact>
</mgrwt>
</event>
<event>
 4    1  0.4760244E-002  0.4842774E+03  0.7818608E-02  0.1017966E+00
         21   -1    0    0  501  502  0.00000000000E+00  0.00000000000E+00  0.81000644734E+03  0.81000644734E+03  0.00000000000E+00 0.  1.
         21   -1    0    0  502  503 -0.00000000000E+00 -0.00000000000E+00 -0.29331630601E+03  0.29331630601E+03  0.00000000000E+00 0.  1.
    9000007    1    1    2  501    0  0.25219290460E+03  0.10451498320E+03  0.19570300497E+03  0.52232586476E+03  0.40000000000E+03 0.  1.
   -9000007    1    1    2    0  503 -0.25219290460E+03 -0.10451498320E+03  0.32098713636E+03  0.58099688859E+03  0.40000000000E+03 0.  1.
<mgrwt>
<rscale>  2 0.48427744E+03</rscale>
<asrwt>0</asrwt>
<pdfrwt beam="1">  1       21 0.12461638E+00 0.48427744E+03</pdfrwt>
<pdfrwt beam="2">  1       21 0.45125586E-01 0.48427744E+03</pdfrwt>
<totfact> 0.19220080E+03</totfact>
</mgrwt>
</event>
<event>
 4    1  0.4760244E-002  0.4369038E+03  0.7818608E-02  0.1031701E+00
         21   -1    0    0  503  502  0.00000000000E+00  0.00000000000E+00  0.18103975935E+04  0.18103975935E+04  0.00000000000E+00 0. -1.
         21   -1    0    0  501  503 -0.00000000000E+00 -0.00000000000E+00 -0.10664722575E+03  0.10664722575E+03  0.00000000000E+00 0. -1.
    9000007    1    1    2  501    0 -0.10921609284E+03 -0.13768368031E+03  0.95393539310E+03  0.10492271846E+04  0.40000000000E+03 0. -1.
   -9000007    1    1    2    0  502  0.10921609284E+03  0.13768368031E+03  0.74981497463E+03  0.86781763461E+03  0.40000000000E+03 0. -1.
<mgrwt>
<rscale>  2 0.43690382E+03</rscale>
<asrwt>0</asrwt>
<pdfrwt beam="1">  1       21 0.27852268E+00 0.43690382E+03</pdfrwt>
<pdfrwt beam="2">  1       21 0.16407267E-01 0.43690382E+03</pdfrwt>
<totfact> 0.12424740E+03</totfact>
</mgrwt>
</event>
<event>
 4    1  0.4760244E-002  0.4159213E+03  0.7818608E-02  0.1038402E+00
         21   -1    0    0  503  502  0.00000000000E+00  0.00000000000E+00  0.55824314065E+03  0.55824314065E+03  0.00000000000E+00 0. -1.
         21   -1    0    0  501  503 -0.00000000000E+00 -0.00000000000E+00 -0.31062451796E+03  0.31062451796E+03  0.00000000000E+00 0. -1.
    9000007    1    1    2  501    0 -0.38295645166E+02 -0.10734961771E+03  0.14502401041E+03  0.44047980709E+03  0.40000000000E+03 0.  1.
   -9000007    1    1    2    0  502  0.38295645166E+02  0.10734961771E+03  0.10259461228E+03  0.42838785152E+03  0.40000000000E+03 0.  1.
<mgrwt>
<rscale>  2 0.41592126E+03</rscale>
<asrwt>0</asrwt>
<pdfrwt beam="1">  1       21 0.85883560E-01 0.41592126E+03</pdfrwt>
<pdfrwt beam="2">  1       21 0.47788387E-01 0.41592126E+03</pdfrwt>
<totfact> 0.43461411E+03</totfact>
</mgrwt>
</event>
<event>
 4    1  0.4760244E-002  0.7991729E+03  0.7818608E-02  0.9561215E-01
         21   -1    0    0  501  502  0.00000000000E+00  0.00000000000E+00  0.18252106617E+04  0.18252106617E+04  0.00000000000E+00 0.  1.
         21   -1    0    0  502  503 -0.00000000000E+00 -0.00000000000E+00 -0.35330439253E+03  0.35330439253E+03  0.00000000000E+00 0. -1.
    9000007    1    1    2  501    0  0.57447339980E+03 -0.38556137331E+03  0.84256668644E+03  0.11612906100E+04  0.40000000000E+03 0. -1.
   -9000007    1    1    2    0  503 -0.57447339980E+03  0.38556137331E+03  0.62933958274E+03  0.10172244443E+04  0.40000000000E+03 0.  1.
<mgrwt>
<rscale>  2 0.79917286E+03</rscale>
<asrwt>0</asrwt>
<pdfrwt beam="1">  1       21 0.28080163E+00 0.79917286E+03</pdfrwt>
<pdfrwt beam="2">  1       21 0.54354523E-01 0.79917286E+03</pdfrwt>
<totfact> 0.93710744E+01</totfact>
</mgrwt>
</event>
<event>
 4    1  0.4760244E-002  0.5003976E+03  0.7818608E-02  0.1013675E+00
         21   -1    0    0  503  502  0.00000000000E+00  0.00000000000E+00  0.10401114865E+04  0.10401114865E+04  0.00000000000E+00 0. -1.
         21   -1    0    0  501  503 -0.00000000000E+00 -0.00000000000E+00 -0.35154565901E+03  0.35154565901E+03  0.00000000000E+00 0. -1.
    9000007    1    1    2  501    0 -0.19016944422E+03  0.23288054446E+03 -0.46368913570E+02  0.50254138302E+03  0.40000000000E+03 0. -1.
   -9000007    1    1    2    0  502  0.19016944422E+03 -0.23288054446E+03  0.73493474108E+03  0.88911576251E+03  0.40000000000E+03 0. -1.
<mgrwt>
<rscale>  2 0.50039761E+03</rscale>
<asrwt>0</asrwt>
<pdfrwt beam="1">  1       21 0.16001715E+00 0.50039761E+03</pdfrwt>
<pdfrwt beam="2">  1       21 0.54083948E-01 0.50039761E+03</pdfrwt>
<totfact> 0.66565745E+02</totfact>
</mgrwt>
</event>
<event>
 4    1  0.4760244E-002  0.4357623E+03  0.7818608E-02  0.1032055E+00
         21   -1    0    0  501  502  0.00000000000E+00  0.00000000000E+00  0.62110805534E+03  0.62110805534E+03  0.00000000000E+00 0.  1.
         21   -1    0    0  502  503 -0.00000000000E+00 -0.00000000000E+00 -0.39593550552E+03  0.39593550552E+03  0.00000000000E+00 0. -1.
    9000007    1    1    2  501    0 -0.85201519481E+02 -0.15043105016E+03  0.35531646815E+03  0.56226203172E+03  0.40000000000E+03 0.  1.
   -9000007    1    1    2    0  503  0.85201519481E+02  0.15043105016E+03 -0.13014391833E+03  0.45478152914E+03  0.40000000000E+03 0. -1.
<mgrwt>
<rscale>  2 0.43576232E+03</rscale>
<asrwt>0</asrwt>
<pdfrwt beam="1">  1       21 0.95555086E-01 0.43576232E+03</pdfrwt>
<pdfrwt beam="2">  1       21 0.60913154E-01 0.43576232E+03</pdfrwt>
<totfact> 0.19880235E+03</totfact>
</mgrwt>
</event>
<event>
 4    1  0.4760244E-002  0.4702861E+03  0.7818608E-02  0.1021839E+00
         21   -1    0    0  503  502  0.00000000000E+00  0.00000000000E+00  0.98375757878E+03  0.98375757878E+03  0.00000000000E+00 0.  1.
         21   -1    0    0  501  503 -0.00000000000E+00 -0.00000000000E+00 -0.32914989208E+03  0.32914989208E+03  0.00000000000E+00 0.  1.
    9000007    1    1    2  501    0 -0.73559254120E+02  0.23613143926E+03 -0.42277710477E+02  0.47218261857E+03  0.40000000000E+03 0.  1.
   -9000007    1    1    2    0  502  0.73559254120E+02 -0.23613143926E+03  0.69688539717E+03  0.84072485230E+03  0.40000000000E+03 0.  1.
<mgrwt>
<rscale>  2 0.47028610E+03</rscale>
<asrwt>0</asrwt>
<pdfrwt beam="1">  1       21 0.15134732E+00 0.47028610E+03</pdfrwt>
<pdfrwt beam="2">  1       21 0.50638445E-01 0.47028610E+03</pdfrwt>
<totfact> 0.90531125E+02</totfact>
</mgrwt>
</event>
<event>
 4    1  0.4760244E-002  0.4228925E+03  0.7818608E-02  0.1036129E+00
         21   -1    0    0  501  502  0.00000000000E+00  0.00000000000E+00  0.14914539967E+03  0.14914539967E+03  0.00000000000E+00 0. -1.
         21   -1    0    0  502  503 -0.00000000000E+00 -0.00000000000E+00 -0.16145297063E+04  0.16145297063E+04  0.00000000000E+00 0. -1.
    9000007    1    1    2  501    0  0.13718077606E+03 -0.44165347546E+01 -0.28536838449E+03  0.51016976191E+03  0.40000000000E+03 0. -1.
   -9000007    1    1    2    0  503 -0.13718077606E+03  0.44165347546E+01 -0.11800159222E+04  0.12535053441E+04  0.40000000000E+03 0. -1.
<mgrwt>
<rscale>  2 0.42289251E+03</rscale>
<asrwt>0</asrwt>
<pdfrwt beam="1">  1       21 0.22945447E-01 0.42289251E+03</pdfrwt>
<pdfrwt beam="2">  1       21 0.24838918E+00 0.42289251E+03</pdfrwt>
<totfact> 0.10095436E+03</totfact>
</mgrwt>
</event>
<event>
 4    1  0.4760244E-002  0.5436693E+03  0.7818608E-02  0.1002970E+00
         21   -1    0    0  501  502  0.00000000000E+00  0.00000000000E+00  0.10122626398E+04  0.10122626398E+04  0.00000000000E+00 0.  1.
         21   -1    0    0  502  503 -0.00000000000E+00 -0.00000000000E+00 -0.55053138274E+03  0.55053138274E+03  0.00000000000E+00 0. -1.
    9000007    1    1    2  501    0 -0.27634478393E+02 -0.36716835212E+03  0.76634286541E+03  0.93960505031E+03  0.40000000000E+03 0.  1.
   -9000007    1    1    2    0  503  0.27634478393E+02  0.36716835212E+03 -0.30461160834E+03  0.62318897225E+03  0.40000000000E+03 0. -1.
<mgrwt>
<rscale>  2 0.54366926E+03</rscale>
<asrwt>0</asrwt>
<pdfrwt beam="1">  1       21 0.15573271E+00 0.54366926E+03</pdfrwt>
<pdfrwt beam="2">  1       21 0.84697136E-01 0.54366926E+03</pdfrwt>
<totfact> 0.25738880E+02</totfact>
</mgrwt>
</event>
<event>
 4    1  0.4760244E-002  0.8568480E+03  0.7818608E-02  0.9481192E-01
         21   -1    0    0  503  502  0.00000000000E+00  0.00000000000E+00  0.33020415931E+03  0.33020415931E+03  0.00000000000E+00 0.  1.
         21   -1    0    0  501  503 -0.00000000000E+00 -0.00000000000E+00 -0.24245675696E+04  0.24245675696E+04  0.00000000000E+00 0. -1.
    9000007    1    1    2  501    0 -0.75750690024E+03 -0.19282397869E+02 -0.65046881708E+03  0.10757779496E+04  0.40000000000E+03 0.  1.
   -9000007    1    1    2    0  502  0.75750690024E+03  0.19282397869E+02 -0.14438945932E+04  0.16789937794E+04  0.40000000000E+03 0. -1.
<mgrwt>
<rscale>  2 0.85684801E+03</rscale>
<asrwt>0</asrwt>
<pdfrwt beam="1">  1       21 0.50800639E-01 0.85684801E+03</pdfrwt>
<pdfrwt beam="2">  1       21 0.37301041E+00 0.85684801E+03</pdfrwt>
<totfact> 0.28324342E+01</totfact>
</mgrwt>
</event>
<event>
 4    1  0.4760244E-002  0.5767169E+03  0.7818608E-02  0.9954924E-01
         21   -1    0    0  501  502  0.00000000000E+00  0.00000000000E+00  0.13415183890E+04  0.13415183890E+04  0.00000000000E+00 0. -1.
         21   -1    0    0  502  503 -0.00000000000E+00 -0.00000000000E+00 -0.45769393596E+03  0.45769393596E+03  0.00000000000E+00 0. -1.
    9000007    1    1    2  501    0  0.36355212278E+03 -0.20107778671E+03  0.10509306535E+04  0.11987733984E+04  0.40000000000E+03 0. -1.
   -9000007    1    1    2    0  503 -0.36355212278E+03  0.20107778671E+03 -0.16710620046E+03  0.60043892655E+03  0.40000000000E+03 0. -1.
<mgrwt>
<rscale>  2 0.57671693E+03</rscale>
<asrwt>0</asrwt>
<pdfrwt beam="1">  1       21 0.20638744E+00 0.57671693E+03</pdfrwt>
<pdfrwt beam="2">  1       21 0.70414452E-01 0.57671693E+03</pdfrwt>
<totfact> 0.16946019E+02</totfact>
</mgrwt>
</event>
<event>
 4    1  0.4760244E-002  0.5759422E+03  0.7818608E-02  0.9956615E-01
         21   -1    0    0  501  502  0.00000000000E+00  0.00000000000E+00  0.48093115426E+03  0.48093115426E+03  0.00000000000E+00 0.  1.
         21   -1    0    0  502  503 -0.00000000000E+00 -0.00000000000E+00 -0.13871854294E+04  0.13871854294E+04  0.00000000000E+00 0. -1.
    9000007    1    1    2  501    0 -0.40574092959E+03  0.84164528199E+02  0.20919164442E+03  0.61275648822E+03  0.40000000000E+03 0.  1.
   -9000007    1    1    2    0  503  0.40574092959E+03 -0.84164528199E+02 -0.11154459195E+04  0.12553600954E+04  0.40000000000E+03 0. -1.
<mgrwt>
<rscale>  2 0.57594216E+03</rscale>
<asrwt>0</asrwt>
<pdfrwt beam="1">  1       21 0.73989409E-01 0.57594216E+03</pdfrwt>
<pdfrwt beam="2">  1       21 0.21341314E+00 0.57594216E+03</pdfrwt>
<totfact> 0.13612246E+02</totfact>
</mgrwt>
</event>
<event>
 4    1  0.4760244E-002  0.5583075E+03  0.7818608E-02  0.9995892E-01
         21   -1    0    0  503  502  0.00000000000E+00  0.00000000000E+00  0.44140971073E+03  0.44140971073E+03  0.00000000000E+00 0.  1.
         21   -1    0    0  501  503 -0.00000000000E+00 -0.00000000000E+00 -0.75602714401E+03  0.75602714401E+03  0.00000000000E+00 0.  1.
    9000007    1    1    2  501    0 -0.23623350765E+03 -0.30967885539E+03 -0.31107019367E+03  0.63911808690E+03  0.40000000000E+03 0.  1.
   -9000007    1    1    2    0  502  0.23623350765E+03  0.30967885539E+03 -0.35472396175E+01  0.55831876784E+03  0.40000000000E+03 0.  1.
<mgrwt>
<rscale>  2 0.55830750E+03</rscale>
<asrwt>0</asrwt>
<pdfrwt beam="1">  1       21 0.67909186E-01 0.55830750E+03</pdfrwt>
<pdfrwt beam="2">  1       21 0.11631187E+00 0.55830750E+03</pdfrwt>
<totfact> 0.92022905E+02</totfact>
</mgrwt>
</event>
<event>
 4    1  0.4760244E-002  0.4016720E+03  0.7818608E-02  0.1043202E+00
         21   -1    0    0  501  502  0.00000000000E+00  0.00000000000E+00  0.79666440286E+03  0.79666440286E+03  0.00000000000E+00 0.  1.
         21   -1    0    0  502  503 -0.00000000000E+00 -0.00000000000E+00 -0.21243458946E+03  0.21243458946E+03  0.00000000000E+00 0.  1.
    9000007    1    1    2  501    0 -0.76557512773E+01  0.35802283036E+02  0.40111583641E+03  0.56765687542E+03  0.40000000000E+03 0. -1.
   -9000007    1    1    2    0  503  0.76557512773E+01 -0.35802283036E+02  0.18311397699E+03  0.44144211689E+03  0.40000000000E+03 0. -1.
<mgrwt>
<rscale>  2 0.40167202E+03</rscale>
<asrwt>0</asrwt>
<pdfrwt beam="1">  1       21 0.12256375E+00 0.40167202E+03</pdfrwt>
<pdfrwt beam="2">  1       21 0.32682245E-01 0.40167202E+03</pdfrwt>
<totfact> 0.40067633E+03</totfact>
</mgrwt>
</event>
<event>
 4    1  0.4760244E-002  0.5692550E+03  0.7818608E-02  0.9971329E-01
         21   -1    0    0  501  502  0.00000000000E+00  0.00000000000E+00  0.36807562685E+03  0.36807562685E+03  0.00000000000E+00 0. -1.
         21   -1    0    0  502  503 -0.00000000000E+00 -0.00000000000E+00 -0.21649625176E+04  0.21649625176E+04  0.00000000000E+00 0.  1.
    9000007    1    1    2  501    0 -0.25661269041E+03  0.31337066437E+03 -0.18740289313E+04  0.19585800166E+04  0.40000000000E+03 0.  1.
   -9000007    1    1    2    0  503  0.25661269041E+03 -0.31337066437E+03  0.77142040586E+02  0.57445812780E+03  0.40000000000E+03 0. -1.
<mgrwt>
<rscale>  2 0.56925499E+03</rscale>
<asrwt>0</asrwt>
<pdfrwt beam="1">  1       21 0.56627020E-01 0.56925499E+03</pdfrwt>
<pdfrwt beam="2">  1       21 0.33307115E+00 0.56925499E+03</pdfrwt>
<totfact> 0.45155721E+01</totfact>
</mgrwt>
</event>
<event>
 4    1  0.4760244E-002  0.4732071E+03  0.7818608E-02  0.1021019E+00
         21   -1    0    0  501  502  0.00000000000E+00  0.00000000000E+00  0.15932380434E+03  0.15932380434E+03  0.00000000000E+00 0.  1.
         21   -1    0    0  502  503 -0.00000000000E+00 -0.00000000000E+00 -0.23159733754E+04  0.23159733754E+04  0.00000000000E+00 0.  1.
    9000007    1    1    2  501    0 -0.24865110543E+03 -0.45799276593E+02 -0.30230789771E+03  0.56152917198E+03  0.40000000000E+03 0.  1.
   -9000007    1    1    2    0  503  0.24865110543E+03  0.45799276593E+02 -0.18543416733E+04  0.19137680077E+04  0.40000000000E+03 0.  1.
<mgrwt>
<rscale>  2 0.47320709E+03</rscale>
<asrwt>0</asrwt>
<pdfrwt beam="1">  1       21 0.24511355E-01 0.47320709E+03</pdfrwt>
<pdfrwt beam="2">  1       21 0.35630358E+00 0.47320709E+03</pdfrwt>
<totfact> 0.19145633E+02</totfact>
</mgrwt>
</event>
<event>
 4    1  0.4760244E-002  0.4285577E+03  0.7818608E-02  0.1034317E+00
         21   -1    0    0  503  502  0.00000000000E+00  0.00000000000E+00  0.85577041995E+03  0.85577041995E+03  0.00000000000E+00 0. -1.
         21   -1    0    0  501  503 -0.00000000000E+00 -0.00000000000E+00 -0.11837435457E+04  0.11837435457E+04  0.00000000000E+00 0. -1.
    9000007    1    1    2  501    0 -0.20996525505E+02 -0.15238386688E+03 -0.10866821221E+04  0.11681351512E+04  0.40000000000E+03 0. -1.
   -9000007    1    1    2    0  502  0.20996525505E+02  0.15238386688E+03  0.75870899640E+03  0.87137881440E+03  0.40000000000E+03 0. -1.
<mgrwt>
<rscale>  2 0.42855769E+03</rscale>
<asrwt>0</asrwt>
<pdfrwt beam="1">  1       21 0.13165699E+00 0.42855769E+03</pdfrwt>
<pdfrwt beam="2">  1       21 0.18211439E+00 0.42855769E+03</pdfrwt>
<totfact> 0.58825913E+01</totfact>
</mgrwt>
</event>
<event>
 4    1  0.4760244E-002  0.4127278E+03  0.7818608E-02  0.1039459E+00
         21   -1    0    0  503  502  0.00000000000E+00  0.00000000000E+00  0.82507820919E+02  0.82507820919E+02  0.00000000000E+00 0. -1.
         21   -1    0    0  501  503 -0.00000000000E+00 -0.00000000000E+00 -0.21738758094E+04  0.21738758094E+04  0.00000000000E+00 0. -1.
    9000007    1    1    2  501    0 -0.53276784642E+02 -0.86636363418E+02 -0.12986491084E+04  0.13626568835E+04  0.40000000000E+03 0. -1.
   -9000007    1    1    2    0  502  0.53276784642E+02  0.86636363418E+02 -0.79271888009E+03  0.89372674688E+03  0.40000000000E+03 0. -1.
<mgrwt>
<rscale>  2 0.41272785E+03</rscale>
<asrwt>0</asrwt>
<pdfrwt beam="1">  1       21 0.12693512E-01 0.41272785E+03</pdfrwt>
<pdfrwt beam="2">  1       21 0.33444240E+00 0.41272785E+03</pdfrwt>
<totfact> 0.93297257E+02</totfact>
</mgrwt>
</event>
<event>
 4    1  0.4760244E-002  0.4923129E+03  0.7818608E-02  0.1015805E+00
         21   -1    0    0  503  502  0.00000000000E+00  0.00000000000E+00  0.72659091436E+03  0.72659091436E+03  0.00000000000E+00 0. -1.
         21   -1    0    0  501  503 -0.00000000000E+00 -0.00000000000E+00 -0.34968990554E+03  0.34968990554E+03  0.00000000000E+00 0. -1.
    9000007    1    1    2  501    0 -0.57902022424E+02 -0.28110387911E+03  0.72925031874E+02  0.49768473487E+03  0.40000000000E+03 0. -1.
   -9000007    1    1    2    0  502  0.57902022424E+02  0.28110387911E+03  0.30397597695E+03  0.57859608503E+03  0.40000000000E+03 0. -1.
<mgrwt>
<rscale>  2 0.49231294E+03</rscale>
<asrwt>0</asrwt>
<pdfrwt beam="1">  1       21 0.11178322E+00 0.49231294E+03</pdfrwt>
<pdfrwt beam="2">  1       21 0.53798447E-01 0.49231294E+03</pdfrwt>
<totfact> 0.17364752E+03</totfact>
</mgrwt>
</event>
<event>
 4    1  0.4760244E-002  0.4422396E+03  0.7818608E-02  0.1030062E+00
         21   -1    0    0  503  502  0.00000000000E+00  0.00000000000E+00  0.11396742255E+04  0.11396742255E+04  0.00000000000E+00 0.  1.
         21   -1    0    0  501  503 -0.00000000000E+00 -0.00000000000E+00 -0.18009776631E+03  0.18009776631E+03  0.00000000000E+00 0.  1.
    9000007    1    1    2  501    0 -0.37629257533E+02 -0.18482396794E+03  0.62307068314E+03  0.76406343738E+03  0.40000000000E+03 0.  1.
   -9000007    1    1    2    0  502  0.37629257533E+02  0.18482396794E+03  0.33650577604E+03  0.55570855442E+03  0.40000000000E+03 0.  1.
<mgrwt>
<rscale>  2 0.44223960E+03</rscale>
<asrwt>0</asrwt>
<pdfrwt beam="1">  1       21 0.17533449E+00 0.44223960E+03</pdfrwt>
<pdfrwt beam="2">  1       21 0.27707349E-01 0.44223960E+03</pdfrwt>
<totfact> 0.20811830E+03</totfact>
</mgrwt>
</event>
<event>
 4    1  0.4760244E-002  0.5266928E+03  0.7818608E-02  0.1007037E+00
         21   -1    0    0  501  502  0.00000000000E+00  0.00000000000E+00  0.23219962390E+03  0.23219962390E+03  0.00000000000E+00 0.  1.
         21   -1    0    0  502  503 -0.00000000000E+00 -0.00000000000E+00 -0.12189032646E+04  0.12189032646E+04  0.00000000000E+00 0.  1.
    9000007    1    1    2  501    0  0.28699622342E+03 -0.18718563780E+03 -0.39107918614E+03  0.65600931784E+03  0.40000000000E+03 0.  1.
   -9000007    1    1    2    0  503 -0.28699622342E+03  0.18718563780E+03 -0.59562445460E+03  0.79509357071E+03  0.40000000000E+03 0.  1.
<mgrwt>
<rscale>  2 0.52669279E+03</rscale>
<asrwt>0</asrwt>
<pdfrwt beam="1">  1       21 0.35723019E-01 0.52669279E+03</pdfrwt>
<pdfrwt beam="2">  1       21 0.18752358E+00 0.52669279E+03</pdfrwt>
<totfact> 0.99324329E+02</totfact>
</mgrwt>
</event>
<event>
 4    1  0.4760244E-002  0.5392708E+03  0.7818608E-02  0.1004008E+00
         21   -1    0    0  503  502  0.00000000000E+00  0.00000000000E+00  0.52877451616E+03  0.52877451616E+03  0.00000000000E+00 0. -1.
         21   -1    0    0  501  503 -0.00000000000E+00 -0.00000000000E+00 -0.55475498046E+03  0.55475498046E+03  0.00000000000E+00 0.  1.
    9000007    1    1    2  501    0 -0.82772048886E+02 -0.35208207693E+03 -0.63276902841E+02  0.54297050326E+03  0.40000000000E+03 0.  1.
   -9000007    1    1    2    0  502  0.82772048886E+02  0.35208207693E+03  0.37296438541E+02  0.54055899336E+03  0.40000000000E+03 0. -1.
<mgrwt>
<rscale>  2 0.53927080E+03</rscale>
<asrwt>0</asrwt>
<pdfrwt beam="1">  1       21 0.81349926E-01 0.53927080E+03</pdfrwt>
<pdfrwt beam="2">  1       21 0.85346920E-01 0.53927080E+03</pdfrwt>
<totfact> 0.13033391E+03</totfact>
</mgrwt>
</event>
<event>
 4    1  0.4760244E-002  0.4829841E+03  0.7818608E-02  0.1018318E+00
         21   -1    0    0  503  502  0.00000000000E+00  0.00000000000E+00  0.25802600729E+04  0.25802600729E+04  0.00000000000E+00 0.  1.
         21   -1    0    0  501  503 -0.00000000000E+00 -0.00000000000E+00 -0.14429877332E+03  0.14429877332E+03  0.00000000000E+00 0.  1.
    9000007    1    1    2  501    0 -0.17170197380E+03 -0.20926566181E+03  0.38545822874E+03  0.61794152727E+03  0.40000000000E+03 0.  1.
   -9000007    1    1    2    0  502  0.17170197380E+03  0.20926566181E+03  0.20505030708E+04  0.21066173189E+04  0.40000000000E+03 0.  1.
<mgrwt>
<rscale>  2 0.48298415E+03</rscale>
<asrwt>0</asrwt>
<pdfrwt beam="1">  1       21 0.39696306E+00 0.48298415E+03</pdfrwt>
<pdfrwt beam="2">  1       21 0.22199813E-01 0.48298415E+03</pdfrwt>
<totfact> 0.12790073E+02</totfact>
</mgrwt>
</event>
<event>
 4    1  0.4760244E-002  0.4051503E+03  0.7818608E-02  0.1042011E+00
         21   -1    0    0  503  502  0.00000000000E+00  0.00000000000E+00  0.34615341385E+03  0.34615341385E+03  0.00000000000E+00 0. -1.
         21   -1    0    0  501  503 -0.00000000000E+00 -0.00000000000E+00 -0.55151423531E+03  0.55151423531E+03  0.00000000000E+00 0. -1.
    9000007    1    1    2  501    0  0.51083246001E+02  0.39208360110E+02 -0.27072715146E+03  0.48727813830E+03  0.40000000000E+03 0.  1.
   -9000007    1    1    2    0  502 -0.51083246001E+02 -0.39208360110E+02  0.65366330000E+02  0.41038951086E+03  0.40000000000E+03 0.  1.
<mgrwt>
<rscale>  2 0.40515033E+03</rscale>
<asrwt>0</asrwt>
<pdfrwt beam="1">  1       21 0.53254372E-01 0.40515033E+03</pdfrwt>
<pdfrwt beam="2">  1       21 0.84848343E-01 0.40515033E+03</pdfrwt>
<totfact> 0.35660155E+03</totfact>
</mgrwt>
</event>
<event>
 4    1  0.4760244E-002  0.5479400E+03  0.7818608E-02  0.1001972E+00
         21   -1    0    0  503  502  0.00000000000E+00  0.00000000000E+00  0.18517499388E+04  0.18517499388E+04  0.00000000000E+00 0.  1.
         21   -1    0    0  501  503 -0.00000000000E+00 -0.00000000000E+00 -0.16391363355E+03  0.16391363355E+03  0.00000000000E+00 0. -1.
    9000007    1    1    2  501    0 -0.27089890092E+03 -0.25855755380E+03  0.94882662611E+03  0.10956779589E+04  0.40000000000E+03 0. -1.
   -9000007    1    1    2    0  502  0.27089890092E+03  0.25855755380E+03  0.73900967911E+03  0.91998561346E+03  0.40000000000E+03 0.  1.
<mgrwt>
<rscale>  2 0.54793998E+03</rscale>
<asrwt>0</asrwt>
<pdfrwt beam="1">  1       21 0.28488459E+00 0.54793998E+03</pdfrwt>
<pdfrwt beam="2">  1       21 0.25217483E-01 0.54793998E+03</pdfrwt>
<totfact> 0.47399203E+02</totfact>
</mgrwt>
</event>
<event>
 4    1  0.4760244E-002  0.4130867E+03  0.7818608E-02  0.1039340E+00
         21   -1    0    0  503  502  0.00000000000E+00  0.00000000000E+00  0.23467773021E+03  0.23467773021E+03  0.00000000000E+00 0.  1.
         21   -1    0    0  501  503 -0.00000000000E+00 -0.00000000000E+00 -0.80384810956E+03  0.80384810956E+03  0.00000000000E+00 0.  1.
    9000007    1    1    2  501    0 -0.10253684342E+03  0.11261954066E+02 -0.44500436547E+03  0.60718162123E+03  0.40000000000E+03 0. -1.
   -9000007    1    1    2    0  502  0.10253684342E+03 -0.11261954066E+02 -0.12416601388E+03  0.43134421854E+03  0.40000000000E+03 0. -1.
<mgrwt>
<rscale>  2 0.41308672E+03</rscale>
<asrwt>0</asrwt>
<pdfrwt beam="1">  1       21 0.36104267E-01 0.41308672E+03</pdfrwt>
<pdfrwt beam="2">  1       21 0.12366894E+00 0.41308672E+03</pdfrwt>
<totfact> 0.31894362E+03</totfact>
</mgrwt>
</event>
<event>
 4    1  0.4760244E-002  0.4051810E+03  0.7818608E-02  0.1042000E+00
         21   -1    0    0  501  502  0.00000000000E+00  0.00000000000E+00  0.46350229591E+03  0.46350229591E+03  0.00000000000E+00 0.  1.
         21   -1    0    0  502  503 -0.00000000000E+00 -0.00000000000E+00 -0.40529476467E+03  0.40529476467E+03  0.00000000000E+00 0.  1.
    9000007    1    1    2  501    0  0.48685870324E+02 -0.42442131696E+02 -0.12513693180E+03  0.42406473588E+03  0.40000000000E+03 0.  1.
   -9000007    1    1    2    0  503 -0.48685870324E+02  0.42442131696E+02  0.18334446304E+03  0.44473232471E+03  0.40000000000E+03 0.  1.
<mgrwt>
<rscale>  2 0.40518101E+03</rscale>
<asrwt>0</asrwt>
<pdfrwt beam="1">  1       21 0.71308045E-01 0.40518101E+03</pdfrwt>
<pdfrwt beam="2">  1       21 0.62353041E-01 0.40518101E+03</pdfrwt>
<totfact> 0.37714312E+03</totfact>
</mgrwt>
</event>
<event>
 4    1  0.4760244E-002  0.4051139E+03  0.7818608E-02  0.1042023E+00
         21   -1    0    0  501  502  0.00000000000E+00  0.00000000000E+00  0.50414473975E+03  0.50414473975E+03  0.00000000000E+00 0. -1.
         21   -1    0    0  502  503 -0.00000000000E+00 -0.00000000000E+00 -0.43033228790E+03  0.43033228790E+03  0.00000000000E+00 0. -1.
    9000007    1    1    2  501    0 -0.40339407195E+02  0.49900067233E+02  0.26747979646E+03  0.48545105417E+03  0.40000000000E+03 0. -1.
   -9000007    1    1    2    0  503  0.40339407195E+02 -0.49900067233E+02 -0.19366734461E+03  0.44902597347E+03  0.40000000000E+03 0. -1.
<mgrwt>
<rscale>  2 0.40511392E+03</rscale>
<asrwt>0</asrwt>
<pdfrwt beam="1">  1       21 0.77560729E-01 0.40511392E+03</pdfrwt>
<pdfrwt beam="2">  1       21 0.66204967E-01 0.40511392E+03</pdfrwt>
<totfact> 0.27288876E+03</totfact>
</mgrwt>
</event>
<event>
 4    1  0.4760244E-002  0.4382959E+03  0.7818608E-02  0.1031271E+00
         21   -1    0    0  503  502  0.00000000000E+00  0.00000000000E+00  0.12046705212E+04  0.12046705212E+04  0.00000000000E+00 0.  1.
         21   -1    0    0  501  503 -0.00000000000E+00 -0.00000000000E+00 -0.15965563669E+03  0.15965563669E+03  0.00000000000E+00 0. -1.
    9000007    1    1    2  501    0 -0.17856794684E+03 -0.14722774617E+02  0.54605458909E+03  0.70019917595E+03  0.40000000000E+03 0. -1.
   -9000007    1    1    2    0  502  0.17856794684E+03  0.14722774617E+02  0.49896029542E+03  0.66412698194E+03  0.40000000000E+03 0. -1.
<mgrwt>
<rscale>  2 0.43829587E+03</rscale>
<asrwt>0</asrwt>
<pdfrwt beam="1">  1       21 0.18533392E+00 0.43829587E+03</pdfrwt>
<pdfrwt beam="2">  1       21 0.24562406E-01 0.43829587E+03</pdfrwt>
<totfact> 0.22432867E+03</totfact>
</mgrwt>
</event>
<event>
 4    1  0.4760244E-002  0.5310746E+03  0.7818608E-02  0.1005972E+00
         21   -1    0    0  501  502  0.00000000000E+00  0.00000000000E+00  0.77541206157E+03  0.77541206157E+03  0.00000000000E+00 0.  1.
         21   -1    0    0  502  503 -0.00000000000E+00 -0.00000000000E+00 -0.38141432015E+03  0.38141432015E+03  0.00000000000E+00 0. -1.
    9000007    1    1    2  501    0 -0.33954264941E+03  0.82164473180E+02  0.32154794116E+03  0.62083273906E+03  0.40000000000E+03 0.  1.
   -9000007    1    1    2    0  503  0.33954264941E+03 -0.82164473180E+02  0.72449800268E+02  0.53599364267E+03  0.40000000000E+03 0. -1.
<mgrwt>
<rscale>  2 0.53107458E+03</rscale>
<asrwt>0</asrwt>
<pdfrwt beam="1">  1       21 0.11929416E+00 0.53107458E+03</pdfrwt>
<pdfrwt beam="2">  1       21 0.58679126E-01 0.53107458E+03</pdfrwt>
<totfact> 0.12047830E+03</totfact>
</mgrwt>
</event>
<event>
 4    1  0.4760244E-002  0.5262804E+03  0.7818608E-02  0.1007138E+00
         21   -1    0    0  503  502  0.00000000000E+00  0.00000000000E+00  0.11426097956E+04  0.11426097956E+04  0.00000000000E+00 0. -1.
         21   -1    0    0  501  503 -0.00000000000E+00 -0.00000000000E+00 -0.24335339439E+03  0.24335339439E+03  0.00000000000E+00 0. -1.
    9000007    1    1    2  501    0 -0.22069113052E+03  0.26127850763E+03  0.49295499220E+03  0.72109337674E+03  0.40000000000E+03 0. -1.
   -9000007    1    1    2    0  502  0.22069113052E+03 -0.26127850763E+03  0.40630140904E+03  0.66486981329E+03  0.40000000000E+03 0. -1.
<mgrwt>
<rscale>  2 0.52628038E+03</rscale>
<asrwt>0</asrwt>
<pdfrwt beam="1">  1       21 0.17578612E+00 0.52628038E+03</pdfrwt>
<pdfrwt beam="2">  1       21 0.37438984E-01 0.52628038E+03</pdfrwt>
<totfact> 0.10923457E+03</totfact>
</mgrwt>
</event>
<event>
 4    1  0.4760244E-002  0.5437852E+03  0.7818608E-02  0.1002943E+00
         21   -1    0    0  501  502  0.00000000000E+00  0.00000000000E+00  0.25915902988E+03  0.25915902988E+03  0.00000000000E+00 0.  1.
         21   -1    0    0  502  503 -0.00000000000E+00 -0.00000000000E+00 -0.13645009164E+04  0.13645009164E+04  0.00000000000E+00 0.  1.
    9000007    1    1    2  501    0  0.23550937823E+03 -0.28326254969E+03 -0.22411392501E+03  0.58815762400E+03  0.40000000000E+03 0.  1.
   -9000007    1    1    2    0  503 -0.23550937823E+03  0.28326254969E+03 -0.88122796150E+03  0.10355023223E+04  0.40000000000E+03 0.  1.
<mgrwt>
<rscale>  2 0.54378520E+03</rscale>
<asrwt>0</asrwt>
<pdfrwt beam="1">  1       21 0.39870621E-01 0.54378520E+03</pdfrwt>
<pdfrwt beam="2">  1       21 0.20992321E+00 0.54378520E+03</pdfrwt>
<totfact> 0.55631416E+02</totfact>
</mgrwt>
</event>
<event>
 4    1  0.4760244E-002  0.5239347E+03  0.7818608E-02  0.1007714E+00
         21   -1    0    0  501  502  0.00000000000E+00  0.00000000000E+00  0.10817109783E+03  0.10817109783E+03  0.00000000000E+00 0. -1.
         21   -1    0    0  502  503 -0.00000000000E+00 -0.00000000000E+00 -0.28809542948E+04  0.28809542948E+04  0.00000000000E+00 0. -1.
    9000007    1    1    2  501    0  0.41490912438E+01 -0.33836416495E+03 -0.87051736423E+03  0.10160255924E+04  0.40000000000E+03 0. -1.
   -9000007    1    1    2    0  503 -0.41490912438E+01  0.33836416495E+03 -0.19022658328E+04  0.19730998002E+04  0.40000000000E+03 0. -1.
<mgrwt>
<rscale>  2 0.52393466E+03</rscale>
<asrwt>0</asrwt>
<pdfrwt beam="1">  1       21 0.16641710E-01 0.52393466E+03</pdfrwt>
<pdfrwt beam="2">  1       21 0.44322368E+00 0.52393466E+03</pdfrwt>
<totfact> 0.10709358E+02</totfact>
</mgrwt>
</event>
<event>
 4    1  0.4760244E-002  0.7081777E+03  0.7818608E-02  0.9703349E-01
         21   -1    0    0  501  502  0.00000000000E+00  0.00000000000E+00  0.60471884995E+03  0.60471884995E+03  0.00000000000E+00 0.  1.
         21   -1    0    0  502  503 -0.00000000000E+00 -0.00000000000E+00 -0.17083712639E+04  0.17083712639E+04  0.00000000000E+00 0. -1.
    9000007    1    1    2  501    0 -0.52381507389E+03 -0.25910106158E+03  0.27778456210E+03  0.76071009898E+03  0.40000000000E+03 0.  1.
   -9000007    1    1    2    0  503  0.52381507389E+03  0.25910106158E+03 -0.13814369760E+04  0.15523800148E+04  0.40000000000E+03 0. -1.
<mgrwt>
<rscale>  2 0.70817766E+03</rscale>
<asrwt>0</asrwt>
<pdfrwt beam="1">  1       21 0.93033670E-01 0.70817766E+03</pdfrwt>
<pdfrwt beam="2">  1       21 0.26282635E+00 0.70817766E+03</pdfrwt>
<totfact> 0.36572557E+01</totfact>
</mgrwt>
</event>
<event>
 4    1  0.4760244E-002  0.4262375E+03  0.7818608E-02  0.1035055E+00
         21   -1    0    0  501  502  0.00000000000E+00  0.00000000000E+00  0.31693505225E+03  0.31693505225E+03  0.00000000000E+00 0. -1.
         21   -1    0    0  502  503 -0.00000000000E+00 -0.00000000000E+00 -0.12781562485E+04  0.12781562485E+04  0.00000000000E+00 0. -1.
    9000007    1    1    2  501    0 -0.61674221185E+02 -0.13369629620E+03  0.11167849805E+03  0.44062511969E+03  0.40000000000E+03 0. -1.
   -9000007    1    1    2    0  503  0.61674221185E+02  0.13369629620E+03 -0.10728996943E+04  0.11544661811E+04  0.40000000000E+03 0. -1.
<mgrwt>
<rscale>  2 0.42623750E+03</rscale>
<asrwt>0</asrwt>
<pdfrwt beam="1">  1       21 0.48759239E-01 0.42623750E+03</pdfrwt>
<pdfrwt beam="2">  1       21 0.19663942E+00 0.42623750E+03</pdfrwt>
<totfact> 0.47199627E+02</totfact>
</mgrwt>
</event>
<event>
 4    1  0.4760244E-002  0.5833010E+03  0.7818608E-02  0.9940670E-01
         21   -1    0    0  503  502  0.00000000000E+00  0.00000000000E+00  0.15580515545E+04  0.15580515545E+04  0.00000000000E+00 0.  1.
         21   -1    0    0  501  503 -0.00000000000E+00 -0.00000000000E+00 -0.22856416194E+03  0.22856416194E+03  0.00000000000E+00 0.  1.
    9000007    1    1    2  501    0  0.22153303294E+03 -0.36216451559E+03  0.85335134655E+03  0.10336578456E+04  0.40000000000E+03 0.  1.
   -9000007    1    1    2    0  502 -0.22153303294E+03  0.36216451559E+03  0.47613604605E+03  0.75295787092E+03  0.40000000000E+03 0.  1.
<mgrwt>
<rscale>  2 0.58330097E+03</rscale>
<asrwt>0</asrwt>
<pdfrwt beam="1">  1       21 0.23970023E+00 0.58330097E+03</pdfrwt>
<pdfrwt beam="2">  1       21 0.35163718E-01 0.58330097E+03</pdfrwt>
<totfact> 0.45637043E+02</totfact>
</mgrwt>
</event>
<event>
 4    1  0.4760244E-002  0.6599987E+03  0.7818608E-02  0.9788196E-01
         21   -1    0    0  503  502  0.00000000000E+00  0.00000000000E+00  0.63805496686E+03  0.63805496686E+03  0.00000000000E+00 0.  1.
         21   -1    0    0  501  503 -0.00000000000E+00 -0.00000000000E+00 -0.70542372382E+03  0.70542372382E+03  0.00000000000E+00 0. -1.
    9000007    1    1    2  501    0  0.41755657848E+03  0.31818994254E+03  0.86886469565E+02  0.66569331855E+03  0.40000000000E+03 0.  1.
   -9000007    1    1    2    0  502 -0.41755657848E+03 -0.31818994254E+03 -0.15425522652E+03  0.67778537213E+03  0.40000000000E+03 0. -1.
<mgrwt>
<rscale>  2 0.65999874E+03</rscale>
<asrwt>0</asrwt>
<pdfrwt beam="1">  1       21 0.98162302E-01 0.65999874E+03</pdfrwt>
<pdfrwt beam="2">  1       21 0.10852673E+00 0.65999874E+03</pdfrwt>
<totfact> 0.44789037E+02</totfact>
</mgrwt>
</event>
<event>
 4    1  0.4760244E-002  0.4010844E+03  0.7818608E-02  0.1043405E+00
         21   -1    0    0  503  502  0.00000000000E+00  0.00000000000E+00  0.29476261415E+03  0.29476261415E+03  0.00000000000E+00 0. -1.
         21   -1    0    0  501  503 -0.00000000000E+00 -0.00000000000E+00 -0.57160079605E+03  0.57160079605E+03  0.00000000000E+00 0. -1.
    9000007    1    1    2  501    0  0.25448256611E+01 -0.29363431917E+02 -0.23052848387E+03  0.46261438493E+03  0.40000000000E+03 0. -1.
   -9000007    1    1    2    0  502 -0.25448256611E+01  0.29363431917E+02 -0.46309698028E+02  0.40374902527E+03  0.40000000000E+03 0. -1.
<mgrwt>
<rscale>  2 0.40108439E+03</rscale>
<asrwt>0</asrwt>
<pdfrwt beam="1">  1       21 0.45348095E-01 0.40108439E+03</pdfrwt>
<pdfrwt beam="2">  1       21 0.87938583E-01 0.40108439E+03</pdfrwt>
<totfact> 0.46157298E+03</totfact>
</mgrwt>
</event>
<event>
 4    1  0.4760244E-002  0.4114632E+03  0.7818608E-02  0.1039881E+00
         21   -1    0    0  503  502  0.00000000000E+00  0.00000000000E+00  0.45630391540E+03  0.45630391540E+03  0.00000000000E+00 0. -1.
         21   -1    0    0  501  503 -0.00000000000E+00 -0.00000000000E+00 -0.43176695447E+03  0.43176695447E+03  0.00000000000E+00 0. -1.
    9000007    1    1    2  501    0 -0.40351548001E+02 -0.87599645669E+02 -0.15427334621E+03  0.43943396625E+03  0.40000000000E+03 0. -1.
   -9000007    1    1    2    0  502  0.40351548001E+02  0.87599645669E+02  0.17881030714E+03  0.44863690362E+03  0.40000000000E+03 0. -1.
<mgrwt>
<rscale>  2 0.41146318E+03</rscale>
<asrwt>0</asrwt>
<pdfrwt beam="1">  1       21 0.70200602E-01 0.41146318E+03</pdfrwt>
<pdfrwt beam="2">  1       21 0.66425686E-01 0.41146318E+03</pdfrwt>
<totfact> 0.33879459E+03</totfact>
</mgrwt>
</event>
<event>
 4    1  0.4760244E-002  0.4284989E+03  0.7818608E-02  0.1034335E+00
         21   -1    0    0  503  502  0.00000000000E+00  0.00000000000E+00  0.38101452359E+03  0.38101452359E+03  0.00000000000E+00 0.  1.
         21   -1    0    0  501  503 -0.00000000000E+00 -0.00000000000E+00 -0.14214570639E+04  0.14214570639E+04  0.00000000000E+00 0.  1.
    9000007    1    1    2  501    0  0.12458848477E+03 -0.89939196545E+02 -0.12529325317E+04  0.13241794738E+04  0.40000000000E+03 0.  1.
   -9000007    1    1    2    0  502 -0.12458848477E+03  0.89939196545E+02  0.21248999143E+03  0.47829211374E+03  0.40000000000E+03 0.  1.
<mgrwt>
<rscale>  2 0.42849895E+03</rscale>
<asrwt>0</asrwt>
<pdfrwt beam="1">  1       21 0.58617617E-01 0.42849895E+03</pdfrwt>
<pdfrwt beam="2">  1       21 0.21868571E+00 0.42849895E+03</pdfrwt>
<totfact> 0.22772641E+02</totfact>
</mgrwt>
</event>
<event>
 4    1  0.4760244E-002  0.4573566E+03  0.7818608E-02  0.1025551E+00
         21   -1    0    0  501  502  0.00000000000E+00  0.00000000000E+00  0.47744087698E+03  0.47744087698E+03  0.00000000000E+00 0. -1.
         21   -1    0    0  502  503 -0.00000000000E+00 -0.00000000000E+00 -0.84368166869E+03  0.84368166869E+03  0.00000000000E+00 0.  1.
    9000007    1    1    2  501    0  0.54067744900E+02  0.21506219306E+03  0.27486722888E+03  0.53359822098E+03  0.40000000000E+03 0. -1.
   -9000007    1    1    2    0  503 -0.54067744900E+02 -0.21506219306E+03 -0.64110802058E+03  0.78752432469E+03  0.40000000000E+03 0.  1.
<mgrwt>
<rscale>  2 0.45735661E+03</rscale>
<asrwt>0</asrwt>
<pdfrwt beam="1">  1       21 0.73452443E-01 0.45735661E+03</pdfrwt>
<pdfrwt beam="2">  1       21 0.12979718E+00 0.45735661E+03</pdfrwt>
<totfact> 0.60434642E+02</totfact>
</mgrwt>
</event>
<event>
 4    1  0.4760244E-002  0.5021313E+03  0.7818608E-02  0.1013224E+00
         21   -1    0    0  503  502  0.00000000000E+00  0.00000000000E+00  0.31986994138E+03  0.31986994138E+03  0.00000000000E+00 0. -1.
         21   -1    0    0  501  503 -0.00000000000E+00 -0.00000000000E+00 -0.10213808120E+04  0.10213808120E+04  0.00000000000E+00 0. -1.
    9000007    1    1    2  501    0 -0.20416512740E+03  0.22461613503E+03 -0.67115421135E+03  0.83820270984E+03  0.40000000000E+03 0. -1.
   -9000007    1    1    2    0  502  0.20416512740E+03 -0.22461613503E+03 -0.30356659285E+02  0.50304804356E+03  0.40000000000E+03 0. -1.
<mgrwt>
<rscale>  2 0.50213127E+03</rscale>
<asrwt>0</asrwt>
<pdfrwt beam="1">  1       21 0.49210759E-01 0.50213127E+03</pdfrwt>
<pdfrwt beam="2">  1       21 0.15713551E+00 0.50213127E+03</pdfrwt>
<totfact> 0.85669105E+02</totfact>
</mgrwt>
</event>
<event>
 4    1  0.4760244E-002  0.4528443E+03  0.7818608E-02  0.1026877E+00
         21   -1    0    0  503  502  0.00000000000E+00  0.00000000000E+00  0.10983505910E+04  0.10983505910E+04  0.00000000000E+00 0. -1.
         21   -1    0    0  501  503 -0.00000000000E+00 -0.00000000000E+00 -0.28275774233E+03  0.28275774233E+03  0.00000000000E+00 0. -1.
    9000007    1    1    2  501    0 -0.17148330043E+03 -0.12514555981E+03  0.53161629202E+01  0.45287547412E+03  0.40000000000E+03 0. -1.
   -9000007    1    1    2    0  502  0.17148330043E+03  0.12514555981E+03  0.81027668572E+03  0.92823285919E+03  0.40000000000E+03 0. -1.
<mgrwt>
<rscale>  2 0.45284427E+03</rscale>
<asrwt>0</asrwt>
<pdfrwt beam="1">  1       21 0.16897701E+00 0.45284427E+03</pdfrwt>
<pdfrwt beam="2">  1       21 0.43501192E-01 0.45284427E+03</pdfrwt>
<totfact> 0.92441727E+02</totfact>
</mgrwt>
</event>
<event>
 4    1  0.4760244E-002  0.4235239E+03  0.7818608E-02  0.1035925E+00
         21   -1    0    0  501  502  0.00000000000E+00  0.00000000000E+00  0.92889971605E+03  0.92889971605E+03  0.00000000000E+00 0. -1.
         21   -1    0    0  502  503 -0.00000000000E+00 -0.00000000000E+00 -0.24849205082E+03  0.24849205082E+03  0.00000000000E+00 0. -1.
    9000007    1    1    2  501    0  0.10675968498E+02 -0.13877504336E+03  0.61814330288E+03  0.74931544216E+03  0.40000000000E+03 0. -1.
   -9000007    1    1    2    0  503 -0.10675968498E+02  0.13877504336E+03  0.62264362347E+02  0.42807632471E+03  0.40000000000E+03 0. -1.
<mgrwt>
<rscale>  2 0.42352389E+03</rscale>
<asrwt>0</asrwt>
<pdfrwt beam="1">  1       21 0.14290765E+00 0.42352389E+03</pdfrwt>
<pdfrwt beam="2">  1       21 0.38229547E-01 0.42352389E+03</pdfrwt>
<totfact> 0.19384655E+03</totfact>
</mgrwt>
</event>
<event>
 4    1  0.4760244E-002  0.5033019E+03  0.7818608E-02  0.1012921E+00
         21   -1    0    0  501  502  0.00000000000E+00  0.00000000000E+00  0.97140485798E+02  0.97140485798E+02  0.00000000000E+00 0.  1.
         21   -1    0    0  502  503 -0.00000000000E+00 -0.00000000000E+00 -0.26077691286E+04  0.26077691286E+04  0.00000000000E+00 0.  1.
    9000007    1    1    2  501    0  0.16483517512E+03 -0.25718122448E+03 -0.12481326948E+04  0.13457890031E+04  0.40000000000E+03 0.  1.
   -9000007    1    1    2    0  503 -0.16483517512E+03  0.25718122448E+03 -0.12624959480E+04  0.13591206112E+04  0.40000000000E+03 0.  1.
<mgrwt>
<rscale>  2 0.50330191E+03</rscale>
<asrwt>0</asrwt>
<pdfrwt beam="1">  1       21 0.14944692E-01 0.50330191E+03</pdfrwt>
<pdfrwt beam="2">  1       21 0.40119519E+00 0.50330191E+03</pdfrwt>
<totfact> 0.25072650E+02</totfact>
</mgrwt>
</event>
<event>
 4    1  0.4760244E-002  0.4099131E+03  0.7818608E-02  0.1040400E+00
         21   -1    0    0  501  502  0.00000000000E+00  0.00000000000E+00  0.61621935757E+03  0.61621935757E+03  0.00000000000E+00 0. -1.
         21   -1    0    0  502  503 -0.00000000000E+00 -0.00000000000E+00 -0.29582557453E+03  0.29582557453E+03  0.00000000000E+00 0. -1.
    9000007    1    1    2  501    0  0.74430684944E+02 -0.49887967900E+02  0.28776207987E+03  0.50083505350E+03  0.40000000000E+03 0. -1.
   -9000007    1    1    2    0  503 -0.74430684944E+02  0.49887967900E+02  0.32631703175E+02  0.41120987860E+03  0.40000000000E+03 0. -1.
<mgrwt>
<rscale>  2 0.40991308E+03</rscale>
<asrwt>0</asrwt>
<pdfrwt beam="1">  1       21 0.94802978E-01 0.40991308E+03</pdfrwt>
<pdfrwt beam="2">  1       21 0.45511627E-01 0.40991308E+03</pdfrwt>
<totfact> 0.38206971E+03</totfact>
</mgrwt>
</event>
<event>
 4    1  0.4760244E-002  0.4014289E+03  0.7818608E-02  0.1043286E+00
         21   -1    0    0  501  502  0.00000000000E+00  0.00000000000E+00  0.36684815257E+03  0.36684815257E+03  0.00000000000E+00 0.  1.
         21   -1    0    0  502  503 -0.00000000000E+00 -0.00000000000E+00 -0.50706105381E+03  0.50706105381E+03  0.00000000000E+00 0.  1.
    9000007    1    1    2  501    0 -0.31839032612E+02 -0.11464968265E+02  0.89663202326E+02  0.41132062840E+03  0.40000000000E+03 0. -1.
   -9000007    1    1    2    0  503  0.31839032612E+02  0.11464968265E+02 -0.22987610357E+03  0.46258857799E+03  0.40000000000E+03 0. -1.
<mgrwt>
<rscale>  2 0.40142891E+03</rscale>
<asrwt>0</asrwt>
<pdfrwt beam="1">  1       21 0.56438178E-01 0.40142891E+03</pdfrwt>
<pdfrwt beam="2">  1       21 0.78009392E-01 0.40142891E+03</pdfrwt>
<totfact> 0.38275881E+03</totfact>
</mgrwt>
</event>
<event>
 4    1  0.4760244E-002  0.4947272E+03  0.7818608E-02  0.1015164E+00
         21   -1    0    0  501  502  0.00000000000E+00  0.00000000000E+00  0.42818065964E+03  0.42818065964E+03  0.00000000000E+00 0. -1.
         21   -1    0    0  502  503 -0.00000000000E+00 -0.00000000000E+00 -0.22133232772E+04  0.22133232772E+04  0.00000000000E+00 0. -1.
    9000007    1    1    2  501    0 -0.28066026463E+03 -0.77361573810E+02  0.24491630800E+03  0.55203169761E+03  0.40000000000E+03 0. -1.
   -9000007    1    1    2    0  503  0.28066026463E+03  0.77361573810E+02 -0.20300589255E+04  0.20894722392E+04  0.40000000000E+03 0. -1.
<mgrwt>
<rscale>  2 0.49472719E+03</rscale>
<asrwt>0</asrwt>
<pdfrwt beam="1">  1       21 0.65873948E-01 0.49472719E+03</pdfrwt>
<pdfrwt beam="2">  1       21 0.34051127E+00 0.49472719E+03</pdfrwt>
<totfact> 0.30433768E+01</totfact>
</mgrwt>
</event>
<event>
 4    1  0.4760244E-002  0.4807527E+03  0.7818608E-02  0.1018929E+00
         21   -1    0    0  503  502  0.00000000000E+00  0.00000000000E+00  0.58760576395E+03  0.58760576395E+03  0.00000000000E+00 0.  1.
         21   -1    0    0  501  503 -0.00000000000E+00 -0.00000000000E+00 -0.66423220177E+03  0.66423220177E+03  0.00000000000E+00 0.  1.
    9000007    1    1    2  501    0  0.17924356624E+03 -0.19747136609E+03 -0.43804080911E+03  0.65038676717E+03  0.40000000000E+03 0.  1.
   -9000007    1    1    2    0  502 -0.17924356624E+03  0.19747136609E+03  0.36141437129E+03  0.60145119855E+03  0.40000000000E+03 0.  1.
<mgrwt>
<rscale>  2 0.48075274E+03</rscale>
<asrwt>0</asrwt>
<pdfrwt beam="1">  1       21 0.90400886E-01 0.48075274E+03</pdfrwt>
<pdfrwt beam="2">  1       21 0.10218957E+00 0.48075274E+03</pdfrwt>
<totfact> 0.67456039E+02</totfact>
</mgrwt>
</event>
<event>
 4    1  0.4760244E-002  0.4503904E+03  0.7818608E-02  0.1027606E+00
         21   -1    0    0  501  502  0.00000000000E+00  0.00000000000E+00  0.16087983575E+04  0.16087983575E+04  0.00000000000E+00 0.  1.
         21   -1    0    0  502  503 -0.00000000000E+00 -0.00000000000E+00 -0.12618252805E+03  0.12618252805E+03  0.00000000000E+00 0.  1.
    9000007    1    1    2  501    0  0.89394518992E+02  0.18670858760E+03  0.71766681616E+03  0.84728810668E+03  0.40000000000E+03 0.  1.
   -9000007    1    1    2    0  503 -0.89394518992E+02 -0.18670858760E+03  0.76494901331E+03  0.88769277887E+03  0.40000000000E+03 0.  1.
<mgrwt>
<rscale>  2 0.45039036E+03</rscale>
<asrwt>0</asrwt>
<pdfrwt beam="1">  1       21 0.24750743E+00 0.45039036E+03</pdfrwt>
<pdfrwt beam="2">  1       21 0.19412698E-01 0.45039036E+03</pdfrwt>
<totfact> 0.13880472E+03</totfact>
</mgrwt>
</event>
<event>
 4    1  0.4760244E-002  0.4023165E+03  0.7818608E-02  0.1042981E+00
         21   -1    0    0  501  502  0.00000000000E+00  0.00000000000E+00  0.38850476558E+03  0.38850476558E+03  0.00000000000E+00 0. -1.
         21   -1    0    0  502  503 -0.00000000000E+00 -0.00000000000E+00 -0.60995862017E+03  0.60995862017E+03  0.00000000000E+00 0. -1.
    9000007    1    1    2  501    0 -0.45472912087E+01 -0.42870173385E+02  0.17034159515E+03  0.43689219341E+03  0.40000000000E+03 0. -1.
   -9000007    1    1    2    0  503  0.45472912087E+01  0.42870173385E+02 -0.39179544975E+03  0.56157119234E+03  0.40000000000E+03 0. -1.
<mgrwt>
<rscale>  2 0.40231645E+03</rscale>
<asrwt>0</asrwt>
<pdfrwt beam="1">  1       21 0.59769964E-01 0.40231645E+03</pdfrwt>
<pdfrwt beam="2">  1       21 0.93839787E-01 0.40231645E+03</pdfrwt>
<totfact> 0.21933457E+03</totfact>
</mgrwt>
</event>
<event>
 4    1  0.4760244E-002  0.4995930E+03  0.7818608E-02  0.1013885E+00
         21   -1    0    0  501  502  0.00000000000E+00  0.00000000000E+00  0.31674777194E+03  0.31674777194E+03  0.00000000000E+00 0. -1.
         21   -1    0    0  502  503 -0.00000000000E+00 -0.00000000000E+00 -0.83217865748E+03  0.83217865748E+03  0.00000000000E+00 0. -1.
    9000007    1    1    2  501    0  0.20717908015E+02  0.29860333750E+03 -0.12533519846E+03  0.51507484587E+03  0.40000000000E+03 0.  1.
   -9000007    1    1    2    0  503 -0.20717908015E+02 -0.29860333750E+03 -0.39009568708E+03  0.63385158354E+03  0.40000000000E+03 0.  1.
<mgrwt>
<rscale>  2 0.49959302E+03</rscale>
<asrwt>0</asrwt>
<pdfrwt beam="1">  1       21 0.48730426E-01 0.49959302E+03</pdfrwt>
<pdfrwt beam="2">  1       21 0.12802749E+00 0.49959302E+03</pdfrwt>
<totfact> 0.15155953E+03</totfact>
</mgrwt>
</event>
<event>
 4    1  0.4760244E-002  0.4425664E+03  0.7818608E-02  0.1029962E+00
         21   -1    0    0  503  502  0.00000000000E+00  0.00000000000E+00  0.51221886347E+03  0.51221886347E+03  0.00000000000E+00 0.  1.
         21   -1    0    0  501  503 -0.00000000000E+00 -0.00000000000E+00 -0.39079022396E+03  0.39079022396E+03  0.00000000000E+00 0.  1.
    9000007    1    1    2  501    0  0.18588605234E+03  0.36213011650E+02 -0.55004709592E+01  0.44260056693E+03  0.40000000000E+03 0.  1.
   -9000007    1    1    2    0  502 -0.18588605234E+03 -0.36213011650E+02  0.12692911047E+03  0.46040852050E+03  0.40000000000E+03 0.  1.
<mgrwt>
<rscale>  2 0.44256639E+03</rscale>
<asrwt>0</asrwt>
<pdfrwt beam="1">  1       21 0.78802902E-01 0.44256639E+03</pdfrwt>
<pdfrwt beam="2">  1       21 0.60121573E-01 0.44256639E+03</pdfrwt>
<totfact> 0.32094395E+03</totfact>
</mgrwt>
</event>
<event>
 4    1  0.4760244E-002  0.4469855E+03  0.7818608E-02  0.1028625E+00
         21   -1    0    0  503  502  0.00000000000E+00  0.00000000000E+00  0.42773663810E+03  0.42773663810E+03  0.00000000000E+00 0. -1.
         21   -1    0    0  501  503 -0.00000000000E+00 -0.00000000000E+00 -0.50966892453E+03  0.50966892453E+03  0.00000000000E+00 0. -1.
    9000007    1    1    2  501    0  0.75742652848E+01 -0.19934565453E+03  0.94489312910E+02  0.45686353513E+03  0.40000000000E+03 0. -1.
   -9000007    1    1    2    0  502 -0.75742652848E+01  0.19934565453E+03 -0.17642159934E+03  0.48054202749E+03  0.40000000000E+03 0. -1.
<mgrwt>
<rscale>  2 0.44698552E+03</rscale>
<asrwt>0</asrwt>
<pdfrwt beam="1">  1       21 0.65805636E-01 0.44698552E+03</pdfrwt>
<pdfrwt beam="2">  1       21 0.78410604E-01 0.44698552E+03</pdfrwt>
<totfact> 0.26549715E+03</totfact>
</mgrwt>
</event>
<event>
 4    1  0.4760244E-002  0.4444673E+03  0.7818608E-02  0.1029385E+00
         21   -1    0    0  503  502  0.00000000000E+00  0.00000000000E+00  0.84576107043E+03  0.84576107043E+03  0.00000000000E+00 0.  1.
         21   -1    0    0  501  503 -0.00000000000E+00 -0.00000000000E+00 -0.24454436769E+03  0.24454436769E+03  0.00000000000E+00 0.  1.
    9000007    1    1    2  501    0 -0.18953114169E+03  0.40362359171E+02  0.18516447979E+03  0.48149460878E+03  0.40000000000E+03 0.  1.
   -9000007    1    1    2    0  502  0.18953114169E+03 -0.40362359171E+02  0.41605222295E+03  0.60881082935E+03  0.40000000000E+03 0.  1.
<mgrwt>
<rscale>  2 0.44446729E+03</rscale>
<asrwt>0</asrwt>
<pdfrwt beam="1">  1       21 0.13011709E+00 0.44446729E+03</pdfrwt>
<pdfrwt beam="2">  1       21 0.37622211E-01 0.44446729E+03</pdfrwt>
<totfact> 0.25420409E+03</totfact>
</mgrwt>
</event>
<event>
 4    1  0.4760244E-002  0.4455707E+03  0.7818608E-02  0.1029051E+00
         21   -1    0    0  503  502  0.00000000000E+00  0.00000000000E+00  0.11286951527E+04  0.11286951527E+04  0.00000000000E+00 0.  1.
         21   -1    0    0  501  503 -0.00000000000E+00 -0.00000000000E+00 -0.19403655427E+03  0.19403655427E+03  0.00000000000E+00 0.  1.
    9000007    1    1    2  501    0  0.86082268720E+02  0.17641749743E+03  0.26511037710E+03  0.51847545982E+03  0.40000000000E+03 0.  1.
   -9000007    1    1    2    0  502 -0.86082268720E+02 -0.17641749743E+03  0.66954822133E+03  0.80425624715E+03  0.40000000000E+03 0.  1.
<mgrwt>
<rscale>  2 0.44557075E+03</rscale>
<asrwt>0</asrwt>
<pdfrwt beam="1">  1       21 0.17364540E+00 0.44557075E+03</pdfrwt>
<pdfrwt beam="2">  1       21 0.29851778E-01 0.44557075E+03</pdfrwt>
<totfact> 0.18443004E+03</totfact>
</mgrwt>
</event>
<event>
 4    1  0.4760244E-002  0.4450490E+03  0.7818608E-02  0.1029209E+00
         21   -1    0    0  501  502  0.00000000000E+00  0.00000000000E+00  0.18733204064E+03  0.18733204064E+03  0.00000000000E+00 0. -1.
         21   -1    0    0  502  503 -0.00000000000E+00 -0.00000000000E+00 -0.13050253051E+04  0.13050253051E+04  0.00000000000E+00 0. -1.
    9000007    1    1    2  501    0  0.44878374968E+02  0.18988031155E+03 -0.23375397613E+03  0.50270222061E+03  0.40000000000E+03 0. -1.
   -9000007    1    1    2    0  503 -0.44878374968E+02 -0.18988031155E+03 -0.88393928837E+03  0.98965512517E+03  0.40000000000E+03 0. -1.
<mgrwt>
<rscale>  2 0.44504899E+03</rscale>
<asrwt>0</asrwt>
<pdfrwt beam="1">  1       21 0.28820314E-01 0.44504899E+03</pdfrwt>
<pdfrwt beam="2">  1       21 0.20077313E+00 0.44504899E+03</pdfrwt>
<totfact> 0.12848617E+03</totfact>
</mgrwt>
</event>
<event>
 4    1  0.4760244E-002  0.4910069E+03  0.7818608E-02  0.1016153E+00
         21   -1    0    0  501  502  0.00000000000E+00  0.00000000000E+00  0.87696022890E+03  0.87696022890E+03  0.00000000000E+00 0. -1.
         21   -1    0    0  502  503 -0.00000000000E+00 -0.00000000000E+00 -0.38897441162E+03  0.38897441162E+03  0.00000000000E+00 0. -1.
    9000007    1    1    2  501    0 -0.87086211705E+02 -0.27111585025E+03  0.58675283831E+03  0.76509261256E+03  0.40000000000E+03 0. -1.
   -9000007    1    1    2    0  503  0.87086211705E+02  0.27111585025E+03 -0.98767021032E+02  0.50084202796E+03  0.40000000000E+03 0. -1.
<mgrwt>
<rscale>  2 0.49100694E+03</rscale>
<asrwt>0</asrwt>
<pdfrwt beam="1">  1       21 0.13491696E+00 0.49100694E+03</pdfrwt>
<pdfrwt beam="2">  1       21 0.59842217E-01 0.49100694E+03</pdfrwt>
<totfact> 0.85129571E+02</totfact>
</mgrwt>
</event>
<event>
 4    1  0.4760244E-002  0.4037386E+03  0.7818608E-02  0.1042493E+00
         21   -1    0    0  503  502  0.00000000000E+00  0.00000000000E+00  0.12271390483E+03  0.12271390483E+03  0.00000000000E+00 0. -1.
         21   -1    0    0  501  503 -0.00000000000E+00 -0.00000000000E+00 -0.16389868748E+04  0.16389868748E+04  0.00000000000E+00 0. -1.
    9000007    1    1    2  501    0  0.45425632342E+02  0.30682096688E+02 -0.37464733016E+03  0.55078625720E+03  0.40000000000E+03 0. -1.
   -9000007    1    1    2    0  502 -0.45425632342E+02 -0.30682096688E+02 -0.11416256398E+04  0.12109145225E+04  0.40000000000E+03 0. -1.
<mgrwt>
<rscale>  2 0.40373863E+03</rscale>
<asrwt>0</asrwt>
<pdfrwt beam="1">  1       21 0.18879063E-01 0.40373863E+03</pdfrwt>
<pdfrwt beam="2">  1       21 0.25215182E+00 0.40373863E+03</pdfrwt>
<totfact> 0.14032992E+03</totfact>
</mgrwt>
</event>
<event>
 4    1  0.4760244E-002  0.4336076E+03  0.7818608E-02  0.1032726E+00
         21   -1    0    0  503  502  0.00000000000E+00  0.00000000000E+00  0.54970225067E+03  0.54970225067E+03  0.00000000000E+00 0. -1.
         21   -1    0    0  501  503 -0.00000000000E+00 -0.00000000000E+00 -0.34416527738E+03  0.34416527738E+03  0.00000000000E+00 0. -1.
    9000007    1    1    2  501    0  0.16179636651E+03 -0.42865904828E+02  0.13795872597E+03  0.45502544993E+03  0.40000000000E+03 0. -1.
   -9000007    1    1    2    0  502 -0.16179636651E+03  0.42865904828E+02  0.67578247314E+02  0.43884207811E+03  0.40000000000E+03 0. -1.
<mgrwt>
<rscale>  2 0.43360760E+03</rscale>
<asrwt>0</asrwt>
<pdfrwt beam="1">  1       21 0.84569577E-01 0.43360760E+03</pdfrwt>
<pdfrwt beam="2">  1       21 0.52948504E-01 0.43360760E+03</pdfrwt>
<totfact> 0.35999000E+03</totfact>
</mgrwt>
</event>
<event>
 4    1  0.4760244E-002  0.4488614E+03  0.7818608E-02  0.1028062E+00
         21   -1    0    0  503  502  0.00000000000E+00  0.00000000000E+00  0.18729303121E+03  0.18729303121E+03  0.00000000000E+00 0. -1.
         21   -1    0    0  501  503 -0.00000000000E+00 -0.00000000000E+00 -0.12309157323E+04  0.12309157323E+04  0.00000000000E+00 0. -1.
    9000007    1    1    2  501    0 -0.72724946995E+02  0.19023046195E+03 -0.27003015486E+03  0.52382519136E+03  0.40000000000E+03 0. -1.
   -9000007    1    1    2    0  502  0.72724946995E+02 -0.19023046195E+03 -0.77359254623E+03  0.89438357216E+03  0.40000000000E+03 0. -1.
<mgrwt>
<rscale>  2 0.44886139E+03</rscale>
<asrwt>0</asrwt>
<pdfrwt beam="1">  1       21 0.28814312E-01 0.44886139E+03</pdfrwt>
<pdfrwt beam="2">  1       21 0.18937165E+00 0.44886139E+03</pdfrwt>
<totfact> 0.15321416E+03</totfact>
</mgrwt>
</event>
<event>
 4    1  0.4760244E-002  0.4491143E+03  0.7818608E-02  0.1027986E+00
         21   -1    0    0  501  502  0.00000000000E+00  0.00000000000E+00  0.42635438695E+03  0.42635438695E+03  0.00000000000E+00 0. -1.
         21   -1    0    0  502  503 -0.00000000000E+00 -0.00000000000E+00 -0.98570886865E+03  0.98570886865E+03  0.00000000000E+00 0. -1.
    9000007    1    1    2  501    0 -0.13514365116E+03  0.15310087776E+03  0.22947472858E+03  0.50434347054E+03  0.40000000000E+03 0. -1.
   -9000007    1    1    2    0  503  0.13514365116E+03 -0.15310087776E+03 -0.78882921027E+03  0.90771978506E+03  0.40000000000E+03 0. -1.
<mgrwt>
<rscale>  2 0.44911433E+03</rscale>
<asrwt>0</asrwt>
<pdfrwt beam="1">  1       21 0.65592983E-01 0.44911433E+03</pdfrwt>
<pdfrwt beam="2">  1       21 0.15164752E+00 0.44911433E+03</pdfrwt>
<totfact> 0.51730083E+02</totfact>
</mgrwt>
</event>
<event>
 4    1  0.4760244E-002  0.4733857E+03  0.7818608E-02  0.1020969E+00
         21   -1    0    0  503  502  0.00000000000E+00  0.00000000000E+00  0.12690137798E+04  0.12690137798E+04  0.00000000000E+00 0.  1.
         21   -1    0    0  501  503 -0.00000000000E+00 -0.00000000000E+00 -0.17659278868E+03  0.17659278868E+03  0.00000000000E+00 0.  1.
    9000007    1    1    2  501    0 -0.13726105357E+03  0.21272861953E+03  0.54949231296E+03  0.72528329940E+03  0.40000000000E+03 0.  1.
   -9000007    1    1    2    0  502  0.13726105357E+03 -0.21272861953E+03  0.54292867813E+03  0.72032326905E+03  0.40000000000E+03 0.  1.
<mgrwt>
<rscale>  2 0.47338574E+03</rscale>
<asrwt>0</asrwt>
<pdfrwt beam="1">  1       21 0.19523288E+00 0.47338574E+03</pdfrwt>
<pdfrwt beam="2">  1       21 0.27168122E-01 0.47338574E+03</pdfrwt>
<totfact> 0.15533037E+03</totfact>
</mgrwt>
</event>
<event>
 4    1  0.4760244E-002  0.5336094E+03  0.7818608E-02  0.1005361E+00
         21   -1    0    0  501  502  0.00000000000E+00  0.00000000000E+00  0.21782949399E+03  0.21782949399E+03  0.00000000000E+00 0. -1.
         21   -1    0    0  502  503 -0.00000000000E+00 -0.00000000000E+00 -0.13615888126E+04  0.13615888126E+04  0.00000000000E+00 0.  1.
    9000007    1    1    2  501    0  0.28016797590E+03  0.21504634364E+03 -0.72976429614E+03  0.90404366739E+03  0.40000000000E+03 0. -1.
   -9000007    1    1    2    0  503 -0.28016797590E+03 -0.21504634364E+03 -0.41399502247E+03  0.67537463919E+03  0.40000000000E+03 0. -1.
<mgrwt>
<rscale>  2 0.53360943E+03</rscale>
<asrwt>0</asrwt>
<pdfrwt beam="1">  1       21 0.33512231E-01 0.53360943E+03</pdfrwt>
<pdfrwt beam="2">  1       21 0.20947519E+00 0.53360943E+03</pdfrwt>
<totfact> 0.80194646E+02</totfact>
</mgrwt>
</event>
<event>
 4    1  0.4760244E-002  0.4112806E+03  0.7818608E-02  0.1039942E+00
         21   -1    0    0  501  502  0.00000000000E+00  0.00000000000E+00  0.20032295576E+04  0.20032295576E+04  0.00000000000E+00 0.  1.
         21   -1    0    0  502  503 -0.00000000000E+00 -0.00000000000E+00 -0.92767164230E+02  0.92767164230E+02  0.00000000000E+00 0.  1.
    9000007    1    1    2  501    0 -0.81152845362E+02  0.50654953440E+02  0.64123456968E+03  0.76179622076E+03  0.40000000000E+03 0. -1.
   -9000007    1    1    2    0  503  0.81152845362E+02 -0.50654953440E+02  0.12692278237E+04  0.13342005011E+04  0.40000000000E+03 0. -1.
<mgrwt>
<rscale>  2 0.41128057E+03</rscale>
<asrwt>0</asrwt>
<pdfrwt beam="1">  1       21 0.30818913E+00 0.41128057E+03</pdfrwt>
<pdfrwt beam="2">  1       21 0.14271873E-01 0.41128057E+03</pdfrwt>
<totfact> 0.10834563E+03</totfact>
</mgrwt>
</event>
<event>
 4    1  0.4760244E-002  0.5697572E+03  0.7818608E-02  0.9970216E-01
         21   -1    0    0  503  502  0.00000000000E+00  0.00000000000E+00  0.47415165998E+03  0.47415165998E+03  0.00000000000E+00 0.  1.
         21   -1    0    0  501  503 -0.00000000000E+00 -0.00000000000E+00 -0.88887066860E+03  0.88887066860E+03  0.00000000000E+00 0. -1.
    9000007    1    1    2  501    0  0.89199224750E+02 -0.39581158889E+03 -0.53403299296E+03  0.78090623839E+03  0.40000000000E+03 0. -1.
   -9000007    1    1    2    0  502 -0.89199224750E+02  0.39581158889E+03  0.11931398434E+03  0.58211609018E+03  0.40000000000E+03 0.  1.
<mgrwt>
<rscale>  2 0.56975724E+03</rscale>
<asrwt>0</asrwt>
<pdfrwt beam="1">  1       21 0.72946410E-01 0.56975724E+03</pdfrwt>
<pdfrwt beam="2">  1       21 0.13674933E+00 0.56975724E+03</pdfrwt>
<totfact> 0.51235236E+02</totfact>
</mgrwt>
</event>
<event>
 4    1  0.4760244E-002  0.4456723E+03  0.7818608E-02  0.1029021E+00
         21   -1    0    0  503  502  0.00000000000E+00  0.00000000000E+00  0.16524990554E+04  0.16524990554E+04  0.00000000000E+00 0.  1.
         21   -1    0    0  501  503 -0.00000000000E+00 -0.00000000000E+00 -0.27775509532E+03  0.27775509532E+03  0.00000000000E+00 0. -1.
    9000007    1    1    2  501    0 -0.15044469544E+03  0.12645247353E+03 -0.39528863613E+02  0.44742190995E+03  0.40000000000E+03 0. -1.
   -9000007    1    1    2    0  502  0.15044469544E+03 -0.12645247353E+03  0.14142728237E+04  0.14828322408E+04  0.40000000000E+03 0.  1.
<mgrwt>
<rscale>  2 0.44567234E+03</rscale>
<asrwt>0</asrwt>
<pdfrwt beam="1">  1       21 0.25423062E+00 0.44567234E+03</pdfrwt>
<pdfrwt beam="2">  1       21 0.42731554E-01 0.44567234E+03</pdfrwt>
<totfact> 0.26516448E+02</totfact>
</mgrwt>
</event>
<event>
 4    1  0.4760244E-002  0.5463696E+03  0.7818608E-02  0.1002338E+00
         21   -1    0    0  501  502  0.00000000000E+00  0.00000000000E+00  0.77315569093E+03  0.77315569093E+03  0.00000000000E+00 0. -1.
         21   -1    0    0  502  503 -0.00000000000E+00 -0.00000000000E+00 -0.40872597015E+03  0.40872597015E+03  0.00000000000E+00 0. -1.
    9000007    1    1    2  501    0  0.21861261901E+03 -0.30121133331E+03  0.32123499457E+03  0.63380727847E+03  0.40000000000E+03 0. -1.
   -9000007    1    1    2    0  503 -0.21861261901E+03  0.30121133331E+03  0.43194726214E+02  0.54807438262E+03  0.40000000000E+03 0. -1.
<mgrwt>
<rscale>  2 0.54636960E+03</rscale>
<asrwt>0</asrwt>
<pdfrwt beam="1">  1       21 0.11894703E+00 0.54636960E+03</pdfrwt>
<pdfrwt beam="2">  1       21 0.62880919E-01 0.54636960E+03</pdfrwt>
<totfact> 0.10367220E+03</totfact>
</mgrwt>
</event>
<event>
 4    1  0.4760244E-002  0.5335640E+03  0.7818608E-02  0.1005371E+00
         21   -1    0    0  501  502  0.00000000000E+00  0.00000000000E+00  0.53065806523E+03  0.53065806523E+03  0.00000000000E+00 0. -1.
         21   -1    0    0  502  503 -0.00000000000E+00 -0.00000000000E+00 -0.53658225873E+03  0.53658225873E+03  0.00000000000E+00 0.  1.
    9000007    1    1    2  501    0  0.14861931550E+03  0.32031673130E+03 -0.10117202857E+02  0.53365987959E+03  0.40000000000E+03 0.  1.
   -9000007    1    1    2    0  503 -0.14861931550E+03 -0.32031673130E+03  0.41930093650E+01  0.53358044437E+03  0.40000000000E+03 0. -1.
<mgrwt>
<rscale>  2 0.53356397E+03</rscale>
<asrwt>0</asrwt>
<pdfrwt beam="1">  1       21 0.81639703E-01 0.53356397E+03</pdfrwt>
<pdfrwt beam="2">  1       21 0.82551116E-01 0.53356397E+03</pdfrwt>
<totfact> 0.14001422E+03</totfact>
</mgrwt>
</event>
<event>
 4    1  0.4760244E-002  0.5825229E+03  0.7818608E-02  0.9942344E-01
         21   -1    0    0  501  502  0.00000000000E+00  0.00000000000E+00  0.24958539515E+04  0.24958539515E+04  0.00000000000E+00 0.  1.
         21   -1    0    0  502  503 -0.00000000000E+00 -0.00000000000E+00 -0.13882782393E+03  0.13882782393E+03  0.00000000000E+00 0. -1.
    9000007    1    1    2  501    0 -0.23424875660E+03 -0.35278948032E+03  0.98913073333E+03  0.11479165932E+04  0.40000000000E+03 0. -1.
   -9000007    1    1    2    0  503  0.23424875660E+03  0.35278948032E+03  0.13678953942E+04  0.14867651822E+04  0.40000000000E+03 0.  1.
<mgrwt>
<rscale>  2 0.58252287E+03</rscale>
<asrwt>0</asrwt>
<pdfrwt beam="1">  1       21 0.38397750E+00 0.58252287E+03</pdfrwt>
<pdfrwt beam="2">  1       21 0.21358129E-01 0.58252287E+03</pdfrwt>
<totfact> 0.15763908E+02</totfact>
</mgrwt>
</event>
<event>
 4    1  0.4760244E-002  0.4563755E+03  0.7818608E-02  0.1025838E+00
         21   -1    0    0  503  502  0.00000000000E+00  0.00000000000E+00  0.78899219537E+02  0.78899219537E+02  0.00000000000E+00 0.  1.
         21   -1    0    0  501  503 -0.00000000000E+00 -0.00000000000E+00 -0.26404518149E+04  0.26404518149E+04  0.00000000000E+00 0.  1.
    9000007    1    1    2  501    0  0.21161371343E+03  0.59145870979E+02 -0.12595046639E+04  0.13396382333E+04  0.40000000000E+03 0.  1.
   -9000007    1    1    2    0  502 -0.21161371343E+03 -0.59145870979E+02 -0.13020479314E+04  0.13797128011E+04  0.40000000000E+03 0.  1.
<mgrwt>
<rscale>  2 0.45637550E+03</rscale>
<asrwt>0</asrwt>
<pdfrwt beam="1">  1       21 0.12138344E-01 0.45637550E+03</pdfrwt>
<pdfrwt beam="2">  1       21 0.40622327E+00 0.45637550E+03</pdfrwt>
<totfact> 0.35129986E+02</totfact>
</mgrwt>
</event>
<event>
 4    1  0.4760244E-002  0.4441680E+03  0.7818608E-02  0.1029476E+00
         21   -1    0    0  501  502  0.00000000000E+00  0.00000000000E+00  0.17330823386E+03  0.17330823386E+03  0.00000000000E+00 0.  1.
         21   -1    0    0  502  503 -0.00000000000E+00 -0.00000000000E+00 -0.12981205237E+04  0.12981205237E+04  0.00000000000E+00 0.  1.
    9000007    1    1    2  501    0  0.26455709537E+02  0.19127282753E+03 -0.30429791037E+03  0.53840729692E+03  0.40000000000E+03 0.  1.
   -9000007    1    1    2    0  503 -0.26455709537E+02 -0.19127282753E+03 -0.82051437946E+03  0.93302146064E+03  0.40000000000E+03 0.  1.
<mgrwt>
<rscale>  2 0.44416799E+03</rscale>
<asrwt>0</asrwt>
<pdfrwt beam="1">  1       21 0.26662805E-01 0.44416799E+03</pdfrwt>
<pdfrwt beam="2">  1       21 0.19971085E+00 0.44416799E+03</pdfrwt>
<totfact> 0.15227300E+03</totfact>
</mgrwt>
</event>
<event>
 4    1  0.4760244E-002  0.4478422E+03  0.7818608E-02  0.1028367E+00
         21   -1    0    0  503  502  0.00000000000E+00  0.00000000000E+00  0.19823875385E+03  0.19823875385E+03  0.00000000000E+00 0. -1.
         21   -1    0    0  501  503 -0.00000000000E+00 -0.00000000000E+00 -0.10310931575E+04  0.10310931575E+04  0.00000000000E+00 0. -1.
    9000007    1    1    2  501    0 -0.45211660628E+02  0.19626143688E+03 -0.50067532360E+03  0.67174282692E+03  0.40000000000E+03 0. -1.
   -9000007    1    1    2    0  502  0.45211660628E+02 -0.19626143688E+03 -0.33217908010E+03  0.55758908447E+03  0.40000000000E+03 0. -1.
<mgrwt>
<rscale>  2 0.44784221E+03</rscale>
<asrwt>0</asrwt>
<pdfrwt beam="1">  1       21 0.30498270E-01 0.44784221E+03</pdfrwt>
<pdfrwt beam="2">  1       21 0.15862972E+00 0.44784221E+03</pdfrwt>
<totfact> 0.22792058E+03</totfact>
</mgrwt>
</event>
<event>
 4    1  0.4760244E-002  0.4945205E+03  0.7818608E-02  0.1015219E+00
         21   -1    0    0  501  502  0.00000000000E+00  0.00000000000E+00  0.63544179276E+03  0.63544179276E+03  0.00000000000E+00 0. -1.
         21   -1    0    0  502  503 -0.00000000000E+00 -0.00000000000E+00 -0.49158630074E+03  0.49158630074E+03  0.00000000000E+00 0.  1.
    9000007    1    1    2  501    0  0.45963177823E+02 -0.28711996012E+03  0.33450593982E+03  0.59702990628E+03  0.40000000000E+03 0. -1.
   -9000007    1    1    2    0  503 -0.45963177823E+02  0.28711996012E+03 -0.19065044780E+03  0.52999818723E+03  0.40000000000E+03 0.  1.
<mgrwt>
<rscale>  2 0.49452046E+03</rscale>
<asrwt>0</asrwt>
<pdfrwt beam="1">  1       21 0.97760276E-01 0.49452046E+03</pdfrwt>
<pdfrwt beam="2">  1       21 0.75628662E-01 0.49452046E+03</pdfrwt>
<totfact> 0.11329275E+03</totfact>
</mgrwt>
</event>
<event>
 4    1  0.4760244E-002  0.6324357E+03  0.7818608E-02  0.9840307E-01
         21   -1    0    0  501  502  0.00000000000E+00  0.00000000000E+00  0.11154322412E+04  0.11154322412E+04  0.00000000000E+00 0. -1.
         21   -1    0    0  502  503 -0.00000000000E+00 -0.00000000000E+00 -0.36008285625E+03  0.36008285625E+03  0.00000000000E+00 0. -1.
    9000007    1    1    2  501    0 -0.48427280939E+03  0.73856166431E+02  0.33005824419E+03  0.71338161723E+03  0.40000000000E+03 0. -1.
   -9000007    1    1    2    0  503  0.48427280939E+03 -0.73856166431E+02  0.42529114073E+03  0.76213348018E+03  0.40000000000E+03 0. -1.
<mgrwt>
<rscale>  2 0.63243568E+03</rscale>
<asrwt>0</asrwt>
<pdfrwt beam="1">  1       21 0.17160496E+00 0.63243568E+03</pdfrwt>
<pdfrwt beam="2">  1       21 0.55397363E-01 0.63243568E+03</pdfrwt>
<totfact> 0.49378937E+02</totfact>
</mgrwt>
</event>
<event>
 4    1  0.4760244E-002  0.4678825E+03  0.7818608E-02  0.1022520E+00
         21   -1    0    0  503  502  0.00000000000E+00  0.00000000000E+00  0.82577337927E+03  0.82577337927E+03  0.00000000000E+00 0.  1.
         21   -1    0    0  501  503 -0.00000000000E+00 -0.00000000000E+00 -0.31240345845E+03  0.31240345845E+03  0.00000000000E+00 0.  1.
    9000007    1    1    2  501    0  0.15419979459E+03  0.18744710079E+03  0.35242902124E+02  0.46920790104E+03  0.40000000000E+03 0.  1.
   -9000007    1    1    2    0  502 -0.15419979459E+03 -0.18744710079E+03  0.47812701869E+03  0.66896893669E+03  0.40000000000E+03 0.  1.
<mgrwt>
<rscale>  2 0.46788246E+03</rscale>
<asrwt>0</asrwt>
<pdfrwt beam="1">  1       21 0.12704206E+00 0.46788246E+03</pdfrwt>
<pdfrwt beam="2">  1       21 0.48062071E-01 0.46788246E+03</pdfrwt>
<totfact> 0.16109972E+03</totfact>
</mgrwt>
</event>
<event>
 4    1  0.4760244E-002  0.4555783E+03  0.7818608E-02  0.1026071E+00
         21   -1    0    0  503  502  0.00000000000E+00  0.00000000000E+00  0.98275509740E+02  0.98275509740E+02  0.00000000000E+00 0.  1.
         21   -1    0    0  501  503 -0.00000000000E+00 -0.00000000000E+00 -0.23328069347E+04  0.23328069347E+04  0.00000000000E+00 0.  1.
    9000007    1    1    2  501    0  0.12547772732E+03  0.17834501711E+03 -0.74324177775E+03  0.87175681550E+03  0.40000000000E+03 0.  1.
   -9000007    1    1    2    0  502 -0.12547772732E+03 -0.17834501711E+03 -0.14912896472E+04  0.15593256289E+04  0.40000000000E+03 0.  1.
<mgrwt>
<rscale>  2 0.45557832E+03</rscale>
<asrwt>0</asrwt>
<pdfrwt beam="1">  1       21 0.15119310E-01 0.45557832E+03</pdfrwt>
<pdfrwt beam="2">  1       21 0.35889335E+00 0.45557832E+03</pdfrwt>
<totfact> 0.46682349E+02</totfact>
</mgrwt>
</event>
<event>
 4    1  0.4760244E-002  0.4708177E+03  0.7818608E-02  0.1021690E+00
         21   -1    0    0  503  502  0.00000000000E+00  0.00000000000E+00  0.18795103183E+04  0.18795103183E+04  0.00000000000E+00 0.  1.
         21   -1    0    0  501  503 -0.00000000000E+00 -0.00000000000E+00 -0.15048124489E+03  0.15048124489E+03  0.00000000000E+00 0.  1.
    9000007    1    1    2  501    0  0.22975411170E+03  0.94246257451E+02  0.13365130398E+04  0.14170167305E+04  0.40000000000E+03 0.  1.
   -9000007    1    1    2    0  502 -0.22975411170E+03 -0.94246257451E+02  0.39251603357E+03  0.61297483268E+03  0.40000000000E+03 0.  1.
<mgrwt>
<rscale>  2 0.47081770E+03</rscale>
<asrwt>0</asrwt>
<pdfrwt beam="1">  1       21 0.28915542E+00 0.47081770E+03</pdfrwt>
<pdfrwt beam="2">  1       21 0.23150962E-01 0.47081770E+03</pdfrwt>
<totfact> 0.54754054E+02</totfact>
</mgrwt>
</event>
<event>
 4    1  0.4760244E-002  0.4256129E+03  0.7818608E-02  0.1035255E+00
         21   -1    0    0  503  502  0.00000000000E+00  0.00000000000E+00  0.12121742439E+04  0.12121742439E+04  0.00000000000E+00 0. -1.
         21   -1    0    0  501  503 -0.00000000000E+00 -0.00000000000E+00 -0.17753833528E+03  0.17753833528E+03  0.00000000000E+00 0. -1.
    9000007    1    1    2  501    0  0.14294908835E+03 -0.26681567583E+02  0.24088144039E+03  0.48905032075E+03  0.40000000000E+03 0. -1.
   -9000007    1    1    2    0  502 -0.14294908835E+03  0.26681567583E+02  0.79375446827E+03  0.90066225845E+03  0.40000000000E+03 0. -1.
<mgrwt>
<rscale>  2 0.42561291E+03</rscale>
<asrwt>0</asrwt>
<pdfrwt beam="1">  1       21 0.18648834E+00 0.42561291E+03</pdfrwt>
<pdfrwt beam="2">  1       21 0.27313591E-01 0.42561291E+03</pdfrwt>
<totfact> 0.18001760E+03</totfact>
</mgrwt>
</event>
<event>
 4    1  0.4760244E-002  0.4382112E+03  0.7818608E-02  0.1031297E+00
         21   -1    0    0  503  502  0.00000000000E+00  0.00000000000E+00  0.61548234859E+03  0.61548234859E+03  0.00000000000E+00 0.  1.
         21   -1    0    0  501  503 -0.00000000000E+00 -0.00000000000E+00 -0.58491851987E+03  0.58491851987E+03  0.00000000000E+00 0.  1.
    9000007    1    1    2  501    0 -0.11192960771E+03 -0.13964542893E+03 -0.39470212056E+03  0.58976168651E+03  0.40000000000E+03 0.  1.
   -9000007    1    1    2    0  502  0.11192960771E+03  0.13964542893E+03  0.42526594929E+03  0.61063918195E+03  0.40000000000E+03 0.  1.
<mgrwt>
<rscale>  2 0.43821123E+03</rscale>
<asrwt>0</asrwt>
<pdfrwt beam="1">  1       21 0.94689592E-01 0.43821123E+03</pdfrwt>
<pdfrwt beam="2">  1       21 0.89987465E-01 0.43821123E+03</pdfrwt>
<totfact> 0.83492942E+02</totfact>
</mgrwt>
</event>
<event>
 4    1  0.4760244E-002  0.4458012E+03  0.7818608E-02  0.1028982E+00
         21   -1    0    0  503  502  0.00000000000E+00  0.00000000000E+00  0.50120050308E+03  0.50120050308E+03  0.00000000000E+00 0.  1.
         21   -1    0    0  501  503 -0.00000000000E+00 -0.00000000000E+00 -0.39747003237E+03  0.39747003237E+03  0.00000000000E+00 0.  1.
    9000007    1    1    2  501    0 -0.19680464692E+03 -0.25715179381E+01  0.73771676755E+02  0.45186385344E+03  0.40000000000E+03 0. -1.
   -9000007    1    1    2    0  502  0.19680464692E+03  0.25715179381E+01  0.29958793955E+02  0.44680668201E+03  0.40000000000E+03 0. -1.
<mgrwt>
<rscale>  2 0.44580117E+03</rscale>
<asrwt>0</asrwt>
<pdfrwt beam="1">  1       21 0.77107770E-01 0.44580117E+03</pdfrwt>
<pdfrwt beam="2">  1       21 0.61149236E-01 0.44580117E+03</pdfrwt>
<totfact> 0.32469234E+03</totfact>
</mgrwt>
</event>
<event>
 4    1  0.4760244E-002  0.4643332E+03  0.7818608E-02  0.1023532E+00
         21   -1    0    0  501  502  0.00000000000E+00  0.00000000000E+00  0.14450962827E+04  0.14450962827E+04  0.00000000000E+00 0. -1.
         21   -1    0    0  502  503 -0.00000000000E+00 -0.00000000000E+00 -0.15933028734E+03  0.15933028734E+03  0.00000000000E+00 0.  1.
    9000007    1    1    2  501    0  0.23270846156E+03  0.38106795776E+02  0.44058285136E+03  0.64009265335E+03  0.40000000000E+03 0. -1.
   -9000007    1    1    2    0  503 -0.23270846156E+03 -0.38106795776E+02  0.84518314401E+03  0.96433391669E+03  0.40000000000E+03 0. -1.
<mgrwt>
<rscale>  2 0.46433324E+03</rscale>
<asrwt>0</asrwt>
<pdfrwt beam="1">  1       21 0.22232250E+00 0.46433324E+03</pdfrwt>
<pdfrwt beam="2">  1       21 0.24512353E-01 0.46433324E+03</pdfrwt>
<totfact> 0.12666063E+03</totfact>
</mgrwt>
</event>
<event>
 4    1  0.4760244E-002  0.4577033E+03  0.7818608E-02  0.1025449E+00
         21   -1    0    0  501  502  0.00000000000E+00  0.00000000000E+00  0.11184036070E+04  0.11184036070E+04  0.00000000000E+00 0.  1.
         21   -1    0    0  502  503 -0.00000000000E+00 -0.00000000000E+00 -0.20581594331E+03  0.20581594331E+03  0.00000000000E+00 0.  1.
    9000007    1    1    2  501    0 -0.12909015608E+03 -0.18118515480E+03  0.65481305695E+03  0.79891956308E+03  0.40000000000E+03 0.  1.
   -9000007    1    1    2    0  503  0.12909015608E+03  0.18118515480E+03  0.25777460679E+03  0.52529998727E+03  0.40000000000E+03 0.  1.
<mgrwt>
<rscale>  2 0.45770332E+03</rscale>
<asrwt>0</asrwt>
<pdfrwt beam="1">  1       21 0.17206209E+00 0.45770332E+03</pdfrwt>
<pdfrwt beam="2">  1       21 0.31663992E-01 0.45770332E+03</pdfrwt>
<totfact> 0.16751159E+03</totfact>
</mgrwt>
</event>
<event>
 4    1  0.4760244E-002  0.5828156E+03  0.7818608E-02  0.9941714E-01
         21   -1    0    0  501  502  0.00000000000E+00  0.00000000000E+00  0.39866747302E+03  0.39866747302E+03  0.00000000000E+00 0. -1.
         21   -1    0    0  502  503 -0.00000000000E+00 -0.00000000000E+00 -0.14656347847E+04  0.14656347847E+04  0.00000000000E+00 0.  1.
    9000007    1    1    2  501    0  0.27027605451E+03  0.32653461425E+03  0.69659170018E+02  0.58696371260E+03  0.40000000000E+03 0. -1.
   -9000007    1    1    2    0  503 -0.27027605451E+03 -0.32653461425E+03 -0.11366264817E+04  0.12773385451E+04  0.40000000000E+03 0.  1.
<mgrwt>
<rscale>  2 0.58281558E+03</rscale>
<asrwt>0</asrwt>
<pdfrwt beam="1">  1       21 0.61333457E-01 0.58281558E+03</pdfrwt>
<pdfrwt beam="2">  1       21 0.22548228E+00 0.58281558E+03</pdfrwt>
<totfact> 0.17289752E+02</totfact>
</mgrwt>
</event>
<event>
 4    1  0.4760244E-002  0.4086299E+03  0.7818608E-02  0.1040832E+00
         21   -1    0    0  503  502  0.00000000000E+00  0.00000000000E+00  0.43781623157E+03  0.43781623157E+03  0.00000000000E+00 0.  1.
         21   -1    0    0  501  503 -0.00000000000E+00 -0.00000000000E+00 -0.38142770538E+03  0.38142770538E+03  0.00000000000E+00 0.  1.
    9000007    1    1    2  501    0  0.15050409778E+02  0.82169810187E+02  0.32308658234E+02  0.40990516213E+03  0.40000000000E+03 0. -1.
   -9000007    1    1    2    0  502 -0.15050409778E+02 -0.82169810187E+02  0.24079867955E+02  0.40933877483E+03  0.40000000000E+03 0. -1.
<mgrwt>
<rscale>  2 0.40862990E+03</rscale>
<asrwt>0</asrwt>
<pdfrwt beam="1">  1       21 0.67356343E-01 0.40862990E+03</pdfrwt>
<pdfrwt beam="2">  1       21 0.58681186E-01 0.40862990E+03</pdfrwt>
<totfact> 0.48886798E+03</totfact>
</mgrwt>
</event>
<event>
 4    1  0.4760244E-002  0.4268046E+03  0.7818608E-02  0.1034874E+00
         21   -1    0    0  501  502  0.00000000000E+00  0.00000000000E+00  0.10400839851E+04  0.10400839851E+04  0.00000000000E+00 0.  1.
         21   -1    0    0  502  503 -0.00000000000E+00 -0.00000000000E+00 -0.34706908520E+03  0.34706908520E+03  0.00000000000E+00 0.  1.
    9000007    1    1    2  501    0  0.77219593707E+02  0.12727658983E+03  0.83466365174E+03  0.93745698968E+03  0.40000000000E+03 0.  1.
   -9000007    1    1    2    0  503 -0.77219593707E+02 -0.12727658983E+03 -0.14164875189E+03  0.44969608057E+03  0.40000000000E+03 0.  1.
<mgrwt>
<rscale>  2 0.42680463E+03</rscale>
<asrwt>0</asrwt>
<pdfrwt beam="1">  1       21 0.16001292E+00 0.42680463E+03</pdfrwt>
<pdfrwt beam="2">  1       21 0.53395244E-01 0.42680463E+03</pdfrwt>
<totfact> 0.70688122E+02</totfact>
</mgrwt>
</event>
<event>
 4    1  0.4760244E-002  0.5465746E+03  0.7818608E-02  0.1002290E+00
         21   -1    0    0  503  502  0.00000000000E+00  0.00000000000E+00  0.13747767031E+04  0.13747767031E+04  0.00000000000E+00 0. -1.
         21   -1    0    0  501  503 -0.00000000000E+00 -0.00000000000E+00 -0.28616983978E+03  0.28616983978E+03  0.00000000000E+00 0.  1.
    9000007    1    1    2  501    0 -0.18979153992E+02 -0.37199948249E+03  0.13690706466E+03  0.56346017394E+03  0.40000000000E+03 0.  1.
   -9000007    1    1    2    0  502  0.18979153992E+02  0.37199948249E+03  0.95169979868E+03  0.10974863690E+04  0.40000000000E+03 0.  1.
<mgrwt>
<rscale>  2 0.54657463E+03</rscale>
<asrwt>0</asrwt>
<pdfrwt beam="1">  1       21 0.21150410E+00 0.54657463E+03</pdfrwt>
<pdfrwt beam="2">  1       21 0.44026130E-01 0.54657463E+03</pdfrwt>
<totfact> 0.44134715E+02</totfact>
</mgrwt>
</event>
<event>
 4    1  0.4760244E-002  0.4045764E+03  0.7818608E-02  0.1042206E+00
         21   -1    0    0  501  502  0.00000000000E+00  0.00000000000E+00  0.61388337919E+03  0.61388337919E+03  0.00000000000E+00 0. -1.
         21   -1    0    0  502  503 -0.00000000000E+00 -0.00000000000E+00 -0.28147093326E+03  0.28147093326E+03  0.00000000000E+00 0. -1.
    9000007    1    1    2  501    0 -0.31662627842E+02  0.51764237050E+02  0.26898966422E+03  0.48583690442E+03  0.40000000000E+03 0.  1.
   -9000007    1    1    2    0  503  0.31662627842E+02 -0.51764237050E+02  0.63422781710E+02  0.40951740803E+03  0.40000000000E+03 0.  1.
<mgrwt>
<rscale>  2 0.40457639E+03</rscale>
<asrwt>0</asrwt>
<pdfrwt beam="1">  1       21 0.94443597E-01 0.40457639E+03</pdfrwt>
<pdfrwt beam="2">  1       21 0.43303221E-01 0.40457639E+03</pdfrwt>
<totfact> 0.42859059E+03</totfact>
</mgrwt>
</event>
<event>
 4    1  0.4760244E-002  0.4235227E+03  0.7818608E-02  0.1035926E+00
         21   -1    0    0  503  502  0.00000000000E+00  0.00000000000E+00  0.30205712685E+03  0.30205712685E+03  0.00000000000E+00 0.  1.
         21   -1    0    0  501  503 -0.00000000000E+00 -0.00000000000E+00 -0.61107366614E+03  0.61107366614E+03  0.00000000000E+00 0.  1.
    9000007    1    1    2  501    0 -0.50410204297E+02  0.12973164599E+03 -0.23119730539E+03  0.48251806462E+03  0.40000000000E+03 0.  1.
   -9000007    1    1    2    0  502  0.50410204297E+02 -0.12973164599E+03 -0.77819233898E+02  0.43061272837E+03  0.40000000000E+03 0.  1.
<mgrwt>
<rscale>  2 0.42352271E+03</rscale>
<asrwt>0</asrwt>
<pdfrwt beam="1">  1       21 0.46470327E-01 0.42352271E+03</pdfrwt>
<pdfrwt beam="2">  1       21 0.94011333E-01 0.42352271E+03</pdfrwt>
<totfact> 0.37123903E+03</totfact>
</mgrwt>
</event>
<event>
 4    1  0.4760244E-002  0.4395830E+03  0.7818608E-02  0.1030875E+00
         21   -1    0    0  503  502  0.00000000000E+00  0.00000000000E+00  0.25356635742E+03  0.25356635742E+03  0.00000000000E+00 0. -1.
         21   -1    0    0  501  503 -0.00000000000E+00 -0.00000000000E+00 -0.77189333014E+03  0.77189333014E+03  0.00000000000E+00 0. -1.
    9000007    1    1    2  501    0 -0.71385164314E+02  0.16774190131E+03 -0.31702964557E+03  0.54197876648E+03  0.40000000000E+03 0. -1.
   -9000007    1    1    2    0  502  0.71385164314E+02 -0.16774190131E+03 -0.20129732715E+03  0.48348092109E+03  0.40000000000E+03 0. -1.
<mgrwt>
<rscale>  2 0.43958297E+03</rscale>
<asrwt>0</asrwt>
<pdfrwt beam="1">  1       21 0.39010209E-01 0.43958297E+03</pdfrwt>
<pdfrwt beam="2">  1       21 0.11875282E+00 0.43958297E+03</pdfrwt>
<totfact> 0.29899824E+03</totfact>
</mgrwt>
</event>
<event>
 4    1  0.4760244E-002  0.5018571E+03  0.7818608E-02  0.1013295E+00
         21   -1    0    0  501  502  0.00000000000E+00  0.00000000000E+00  0.49839336084E+03  0.49839336084E+03  0.00000000000E+00 0. -1.
         21   -1    0    0  502  503 -0.00000000000E+00 -0.00000000000E+00 -0.10408479952E+04  0.10408479952E+04  0.00000000000E+00 0. -1.
    9000007    1    1    2  501    0  0.30228694745E+03 -0.21980670102E+02  0.28080443819E+03  0.57507536981E+03  0.40000000000E+03 0. -1.
   -9000007    1    1    2    0  503 -0.30228694745E+03  0.21980670102E+02 -0.82325907253E+03  0.96416598620E+03  0.40000000000E+03 0. -1.
<mgrwt>
<rscale>  2 0.50185710E+03</rscale>
<asrwt>0</asrwt>
<pdfrwt beam="1">  1       21 0.76675902E-01 0.50185710E+03</pdfrwt>
<pdfrwt beam="2">  1       21 0.16013046E+00 0.50185710E+03</pdfrwt>
<totfact> 0.30536334E+02</totfact>
</mgrwt>
</event>
<event>
 4    1  0.4760244E-002  0.4028704E+03  0.7818608E-02  0.1042790E+00
         21   -1    0    0  503  502  0.00000000000E+00  0.00000000000E+00  0.11347671553E+04  0.11347671553E+04  0.00000000000E+00 0. -1.
         21   -1    0    0  501  503 -0.00000000000E+00 -0.00000000000E+00 -0.17113229722E+03  0.17113229722E+03  0.00000000000E+00 0. -1.
    9000007    1    1    2  501    0  0.26273813968E+02  0.40178169633E+02  0.21721582063E+03  0.45769783848E+03  0.40000000000E+03 0. -1.
   -9000007    1    1    2    0  502 -0.26273813968E+02 -0.40178169633E+02  0.74641903749E+03  0.84820161409E+03  0.40000000000E+03 0. -1.
<mgrwt>
<rscale>  2 0.40287045E+03</rscale>
<asrwt>0</asrwt>
<pdfrwt beam="1">  1       21 0.17457956E+00 0.40287045E+03</pdfrwt>
<pdfrwt beam="2">  1       21 0.26328046E-01 0.40287045E+03</pdfrwt>
<totfact> 0.23690233E+03</totfact>
</mgrwt>
</event>
<event>
 4    1  0.4760244E-002  0.4137744E+03  0.7818608E-02  0.1039112E+00
         21   -1    0    0  503  502  0.00000000000E+00  0.00000000000E+00  0.45394876450E+03  0.45394876450E+03  0.00000000000E+00 0.  1.
         21   -1    0    0  501  503 -0.00000000000E+00 -0.00000000000E+00 -0.60521017367E+03  0.60521017367E+03  0.00000000000E+00 0.  1.
    9000007    1    1    2  501    0  0.67027380659E+02  0.81954907602E+02 -0.40071613906E+03  0.57600581659E+03  0.40000000000E+03 0.  1.
   -9000007    1    1    2    0  502 -0.67027380659E+02 -0.81954907602E+02  0.24945472989E+03  0.48315312159E+03  0.40000000000E+03 0.  1.
<mgrwt>
<rscale>  2 0.41377443E+03</rscale>
<asrwt>0</asrwt>
<pdfrwt beam="1">  1       21 0.69838272E-01 0.41377443E+03</pdfrwt>
<pdfrwt beam="2">  1       21 0.93109257E-01 0.41377443E+03</pdfrwt>
<totfact> 0.15751082E+03</totfact>
</mgrwt>
</event>
<event>
 4    1  0.4760244E-002  0.4267058E+03  0.7818608E-02  0.1034906E+00
         21   -1    0    0  503  502  0.00000000000E+00  0.00000000000E+00  0.60298522500E+03  0.60298522500E+03  0.00000000000E+00 0. -1.
         21   -1    0    0  501  503 -0.00000000000E+00 -0.00000000000E+00 -0.31395254081E+03  0.31395254081E+03  0.00000000000E+00 0. -1.
    9000007    1    1    2  501    0  0.92549090100E+02  0.11624322056E+03  0.54913579813E+02  0.43022473389E+03  0.40000000000E+03 0. -1.
   -9000007    1    1    2    0  502 -0.92549090100E+02 -0.11624322056E+03  0.23411910437E+03  0.48671303192E+03  0.40000000000E+03 0. -1.
<mgrwt>
<rscale>  2 0.42670578E+03</rscale>
<asrwt>0</asrwt>
<pdfrwt beam="1">  1       21 0.92766958E-01 0.42670578E+03</pdfrwt>
<pdfrwt beam="2">  1       21 0.48300391E-01 0.42670578E+03</pdfrwt>
<totfact> 0.35284737E+03</totfact>
</mgrwt>
</event>
<event>
 4    1  0.4760244E-002  0.4333490E+03  0.7818608E-02  0.1032807E+00
         21   -1    0    0  501  502  0.00000000000E+00  0.00000000000E+00  0.17104915018E+03  0.17104915018E+03  0.00000000000E+00 0. -1.
         21   -1    0    0  502  503 -0.00000000000E+00 -0.00000000000E+00 -0.19768368857E+04  0.19768368857E+04  0.00000000000E+00 0. -1.
    9000007    1    1    2  501    0 -0.37554854817E+02  0.16242218578E+03 -0.18678382813E+03  0.47188932177E+03  0.40000000000E+03 0. -1.
   -9000007    1    1    2    0  503  0.37554854817E+02 -0.16242218578E+03 -0.16190039074E+04  0.16759967141E+04  0.40000000000E+03 0. -1.
<mgrwt>
<rscale>  2 0.43334897E+03</rscale>
<asrwt>0</asrwt>
<pdfrwt beam="1">  1       21 0.26315254E-01 0.43334897E+03</pdfrwt>
<pdfrwt beam="2">  1       21 0.30412875E+00 0.43334897E+03</pdfrwt>
<totfact> 0.35443325E+02</totfact>
</mgrwt>
</event>
<event>
 4    1  0.4760244E-002  0.4374621E+03  0.7818608E-02  0.1031528E+00
         21   -1    0    0  503  502  0.00000000000E+00  0.00000000000E+00  0.43946969569E+03  0.43946969569E+03  0.00000000000E+00 0.  1.
         21   -1    0    0  501  503 -0.00000000000E+00 -0.00000000000E+00 -0.68548221634E+03  0.68548221634E+03  0.00000000000E+00 0.  1.
    9000007    1    1    2  501    0  0.11548632432E+03 -0.13429823786E+03 -0.46270343695E+03  0.63676336136E+03  0.40000000000E+03 0.  1.
   -9000007    1    1    2    0  502 -0.11548632432E+03  0.13429823786E+03  0.21669091630E+03  0.48818855067E+03  0.40000000000E+03 0.  1.
<mgrwt>
<rscale>  2 0.43746212E+03</rscale>
<asrwt>0</asrwt>
<pdfrwt beam="1">  1       21 0.67610722E-01 0.43746212E+03</pdfrwt>
<pdfrwt beam="2">  1       21 0.10545880E+00 0.43746212E+03</pdfrwt>
<totfact> 0.12405729E+03</totfact>
</mgrwt>
</event>
<event>
 4    1  0.4760244E-002  0.4124756E+03  0.7818608E-02  0.1039543E+00
         21   -1    0    0  501  502  0.00000000000E+00  0.00000000000E+00  0.92345550444E+03  0.92345550444E+03  0.00000000000E+00 0.  1.
         21   -1    0    0  502  503 -0.00000000000E+00 -0.00000000000E+00 -0.30577889171E+03  0.30577889171E+03  0.00000000000E+00 0.  1.
    9000007    1    1    2  501    0 -0.19802622596E+02  0.98711424863E+02  0.69632894122E+03  0.80932693248E+03  0.40000000000E+03 0.  1.
   -9000007    1    1    2    0  503  0.19802622596E+02 -0.98711424863E+02 -0.78652328490E+02  0.41990746366E+03  0.40000000000E+03 0.  1.
<mgrwt>
<rscale>  2 0.41247556E+03</rscale>
<asrwt>0</asrwt>
<pdfrwt beam="1">  1       21 0.14207008E+00 0.41247556E+03</pdfrwt>
<pdfrwt beam="2">  1       21 0.47042907E-01 0.41247556E+03</pdfrwt>
<totfact> 0.12867091E+03</totfact>
</mgrwt>
</event>
<event>
 4    1  0.4760244E-002  0.4080901E+03  0.7818608E-02  0.1041014E+00
         21   -1    0    0  503  502  0.00000000000E+00  0.00000000000E+00  0.38288427785E+03  0.38288427785E+03  0.00000000000E+00 0. -1.
         21   -1    0    0  501  503 -0.00000000000E+00 -0.00000000000E+00 -0.54177831320E+03  0.54177831320E+03  0.00000000000E+00 0. -1.
    9000007    1    1    2  501    0 -0.80473786444E+02  0.78404061551E+01 -0.28474048397E+03  0.49760892826E+03  0.40000000000E+03 0. -1.
   -9000007    1    1    2    0  502  0.80473786444E+02 -0.78404061551E+01  0.12584644862E+03  0.42705366279E+03  0.40000000000E+03 0. -1.
<mgrwt>
<rscale>  2 0.40809007E+03</rscale>
<asrwt>0</asrwt>
<pdfrwt beam="1">  1       21 0.58905274E-01 0.40809007E+03</pdfrwt>
<pdfrwt beam="2">  1       21 0.83350509E-01 0.40809007E+03</pdfrwt>
<totfact> 0.29857247E+03</totfact>
</mgrwt>
</event>
<event>
 4    1  0.4760244E-002  0.4049350E+03  0.7818608E-02  0.1042084E+00
         21   -1    0    0  503  502  0.00000000000E+00  0.00000000000E+00  0.10755692698E+03  0.10755692698E+03  0.00000000000E+00 0.  1.
         21   -1    0    0  501  503 -0.00000000000E+00 -0.00000000000E+00 -0.16639434529E+04  0.16639434529E+04  0.00000000000E+00 0.  1.
    9000007    1    1    2  501    0  0.49898298376E+02 -0.38503618296E+02 -0.10345911768E+04  0.11110136237E+04  0.40000000000E+03 0. -1.
   -9000007    1    1    2    0  502 -0.49898298376E+02  0.38503618296E+02 -0.52179534909E+03  0.66048675621E+03  0.40000000000E+03 0. -1.
<mgrwt>
<rscale>  2 0.40493502E+03</rscale>
<asrwt>0</asrwt>
<pdfrwt beam="1">  1       21 0.16547221E-01 0.40493502E+03</pdfrwt>
<pdfrwt beam="2">  1       21 0.25599127E+00 0.40493502E+03</pdfrwt>
<totfact> 0.17019189E+03</totfact>
</mgrwt>
</event>
<event>
 4    1  0.4760244E-002  0.5402765E+03  0.7818608E-02  0.1003770E+00
         21   -1    0    0  501  502  0.00000000000E+00  0.00000000000E+00  0.70651532260E+03  0.70651532260E+03  0.00000000000E+00 0.  1.
         21   -1    0    0  502  503 -0.00000000000E+00 -0.00000000000E+00 -0.49308771520E+03  0.49308771520E+03  0.00000000000E+00 0.  1.
    9000007    1    1    2  501    0 -0.23023856470E+02  0.36244803345E+03  0.34821214252E+03  0.64276774275E+03  0.40000000000E+03 0.  1.
   -9000007    1    1    2    0  503  0.23023856470E+02 -0.36244803345E+03 -0.13478453512E+03  0.55683529506E+03  0.40000000000E+03 0.  1.
<mgrwt>
<rscale>  2 0.54027648E+03</rscale>
<asrwt>0</asrwt>
<pdfrwt beam="1">  1       21 0.10869467E+00 0.54027648E+03</pdfrwt>
<pdfrwt beam="2">  1       21 0.75859648E-01 0.54027648E+03</pdfrwt>
<totfact> 0.85299652E+02</totfact>
</mgrwt>
</event>
<event>
 4    1  0.4760244E-002  0.5328460E+03  0.7818608E-02  0.1005544E+00
         21   -1    0    0  503  502  0.00000000000E+00  0.00000000000E+00  0.16877954458E+04  0.16877954458E+04  0.00000000000E+00 0. -1.
         21   -1    0    0  501  503 -0.00000000000E+00 -0.00000000000E+00 -0.25963742150E+03  0.25963742150E+03  0.00000000000E+00 0. -1.
    9000007    1    1    2  501    0 -0.19616783950E+03  0.29230638893E+03  0.13630519631E+03  0.55000359344E+03  0.40000000000E+03 0. -1.
   -9000007    1    1    2    0  502  0.19616783950E+03 -0.29230638893E+03  0.12918528280E+04  0.13974292739E+04  0.40000000000E+03 0. -1.
<mgrwt>
<rscale>  2 0.53284599E+03</rscale>
<asrwt>0</asrwt>
<pdfrwt beam="1">  1       21 0.25966083E+00 0.53284599E+03</pdfrwt>
<pdfrwt beam="2">  1       21 0.39944220E-01 0.53284599E+03</pdfrwt>
<totfact> 0.27003327E+02</totfact>
</mgrwt>
</event>
<event>
 4    1  0.4760244E-002  0.4122500E+03  0.7818608E-02  0.1039619E+00
         21   -1    0    0  501  502  0.00000000000E+00  0.00000000000E+00  0.13253844708E+04  0.13253844708E+04  0.00000000000E+00 0.  1.
         21   -1    0    0  502  503 -0.00000000000E+00 -0.00000000000E+00 -0.14778216815E+03  0.14778216815E+03  0.00000000000E+00 0.  1.
    9000007    1    1    2  501    0 -0.12914937506E+02  0.98910235309E+02  0.32085840094E+03  0.52239845301E+03  0.40000000000E+03 0.  1.
   -9000007    1    1    2    0  503  0.12914937506E+02 -0.98910235309E+02  0.85674390170E+03  0.95076818592E+03  0.40000000000E+03 0.  1.
<mgrwt>
<rscale>  2 0.41224996E+03</rscale>
<asrwt>0</asrwt>
<pdfrwt beam="1">  1       21 0.20390530E+00 0.41224996E+03</pdfrwt>
<pdfrwt beam="2">  1       21 0.22735719E-01 0.41224996E+03</pdfrwt>
<totfact> 0.19744130E+03</totfact>
</mgrwt>
</event>
<event>
 4    1  0.4760244E-002  0.5792830E+03  0.7818608E-02  0.9949344E-01
         21   -1    0    0  503  502  0.00000000000E+00  0.00000000000E+00  0.67770577093E+03  0.67770577093E+03  0.00000000000E+00 0.  1.
         21   -1    0    0  501  503 -0.00000000000E+00 -0.00000000000E+00 -0.82783318070E+03  0.82783318070E+03  0.00000000000E+00 0. -1.
    9000007    1    1    2  501    0  0.35001487410E+03  0.23034409537E+03 -0.55226686354E+03  0.80035461074E+03  0.40000000000E+03 0. -1.
   -9000007    1    1    2    0  502 -0.35001487410E+03 -0.23034409537E+03  0.40213945376E+03  0.70518434089E+03  0.40000000000E+03 0.  1.
<mgrwt>
<rscale>  2 0.57928302E+03</rscale>
<asrwt>0</asrwt>
<pdfrwt beam="1">  1       21 0.10426243E+00 0.57928302E+03</pdfrwt>
<pdfrwt beam="2">  1       21 0.12735895E+00 0.57928302E+03</pdfrwt>
<totfact> 0.26390068E+02</totfact>
</mgrwt>
</event>
<event>
 4    1  0.4760244E-002  0.4210499E+03  0.7818608E-02  0.1036725E+00
         21   -1    0    0  503  502  0.00000000000E+00  0.00000000000E+00  0.11930305699E+03  0.11930305699E+03  0.00000000000E+00 0. -1.
         21   -1    0    0  501  503 -0.00000000000E+00 -0.00000000000E+00 -0.15218435119E+04  0.15218435119E+04  0.00000000000E+00 0.  1.
    9000007    1    1    2  501    0  0.12420902515E+03 -0.43071506465E+02 -0.57531854740E+03  0.71293370490E+03  0.40000000000E+03 0.  1.
   -9000007    1    1    2    0  502 -0.12420902515E+03  0.43071506465E+02 -0.82722190749E+03  0.92821286397E+03  0.40000000000E+03 0.  1.
<mgrwt>
<rscale>  2 0.42104992E+03</rscale>
<asrwt>0</asrwt>
<pdfrwt beam="1">  1       21 0.18354317E-01 0.42104992E+03</pdfrwt>
<pdfrwt beam="2">  1       21 0.23412977E+00 0.42104992E+03</pdfrwt>
<totfact> 0.18942866E+03</totfact>
</mgrwt>
</event>
<event>
 4    1  0.4760244E-002  0.4689482E+03  0.7818608E-02  0.1022218E+00
         21   -1    0    0  503  502  0.00000000000E+00  0.00000000000E+00  0.19972430579E+04  0.19972430579E+04  0.00000000000E+00 0. -1.
         21   -1    0    0  501  503 -0.00000000000E+00 -0.00000000000E+00 -0.11771091538E+03  0.11771091538E+03  0.00000000000E+00 0. -1.
    9000007    1    1    2  501    0  0.27555520393E+02  0.24321405301E+03  0.67101299733E+03  0.81863961843E+03  0.40000000000E+03 0. -1.
   -9000007    1    1    2    0  502 -0.27555520393E+02 -0.24321405301E+03  0.12085191452E+04  0.12963143548E+04  0.40000000000E+03 0. -1.
<mgrwt>
<rscale>  2 0.46894817E+03</rscale>
<asrwt>0</asrwt>
<pdfrwt beam="1">  1       21 0.30726814E+00 0.46894817E+03</pdfrwt>
<pdfrwt beam="2">  1       21 0.18109373E-01 0.46894817E+03</pdfrwt>
<totfact> 0.68138829E+02</totfact>
</mgrwt>
</event>
<event>
 4    1  0.4760244E-002  0.4807960E+03  0.7818608E-02  0.1018917E+00
         21   -1    0    0  503  502  0.00000000000E+00  0.00000000000E+00  0.55890137634E+03  0.55890137634E+03  0.00000000000E+00 0.  1.
         21   -1    0    0  501  503 -0.00000000000E+00 -0.00000000000E+00 -0.41696191443E+03  0.41696191443E+03  0.00000000000E+00 0. -1.
    9000007    1    1    2  501    0 -0.19712492469E+03  0.17974013418E+03  0.27193270367E+02  0.48156435263E+03  0.40000000000E+03 0.  1.
   -9000007    1    1    2    0  502  0.19712492469E+03 -0.17974013418E+03  0.11474619155E+03  0.49429893814E+03  0.40000000000E+03 0. -1.
<mgrwt>
<rscale>  2 0.48079596E+03</rscale>
<asrwt>0</asrwt>
<pdfrwt beam="1">  1       21 0.85984827E-01 0.48079596E+03</pdfrwt>
<pdfrwt beam="2">  1       21 0.64147987E-01 0.48079596E+03</pdfrwt>
<totfact> 0.22407596E+03</totfact>
</mgrwt>
</event>
<event>
 4    1  0.4760244E-002  0.4337693E+03  0.7818608E-02  0.1032676E+00
         21   -1    0    0  501  502  0.00000000000E+00  0.00000000000E+00  0.89437001283E+03  0.89437001283E+03  0.00000000000E+00 0. -1.
         21   -1    0    0  502  503 -0.00000000000E+00 -0.00000000000E+00 -0.22012648574E+03  0.22012648574E+03  0.00000000000E+00 0. -1.
    9000007    1    1    2  501    0 -0.14941890252E+03 -0.76352863733E+02  0.21985328229E+03  0.48630364379E+03  0.40000000000E+03 0. -1.
   -9000007    1    1    2    0  503  0.14941890252E+03  0.76352863733E+02  0.45439024480E+03  0.62819285478E+03  0.40000000000E+03 0. -1.
<mgrwt>
<rscale>  2 0.43376926E+03</rscale>
<asrwt>0</asrwt>
<pdfrwt beam="1">  1       21 0.13759539E+00 0.43376926E+03</pdfrwt>
<pdfrwt beam="2">  1       21 0.33865614E-01 0.43376926E+03</pdfrwt>
<totfact> 0.27302804E+03</totfact>
</mgrwt>
</event>
<event>
 4    1  0.4760244E-002  0.4576464E+03  0.7818608E-02  0.1025466E+00
         21   -1    0    0  501  502  0.00000000000E+00  0.00000000000E+00  0.45221554548E+03  0.45221554548E+03  0.00000000000E+00 0.  1.
         21   -1    0    0  502  503 -0.00000000000E+00 -0.00000000000E+00 -0.90440258380E+03  0.90440258380E+03  0.00000000000E+00 0.  1.
    9000007    1    1    2  501    0  0.90017293133E+02 -0.20331534895E+03  0.24770537065E+03  0.52038273879E+03  0.40000000000E+03 0.  1.
   -9000007    1    1    2    0  503 -0.90017293133E+02  0.20331534895E+03 -0.69989240897E+03  0.83623539049E+03  0.40000000000E+03 0.  1.
<mgrwt>
<rscale>  2 0.45764642E+03</rscale>
<asrwt>0</asrwt>
<pdfrwt beam="1">  1       21 0.69571623E-01 0.45764642E+03</pdfrwt>
<pdfrwt beam="2">  1       21 0.13913886E+00 0.45764642E+03</pdfrwt>
<totfact> 0.56941647E+02</totfact>
</mgrwt>
</event>
<event>
 4    1  0.4760244E-002  0.4090456E+03  0.7818608E-02  0.1040692E+00
         21   -1    0    0  501  502  0.00000000000E+00  0.00000000000E+00  0.25235700095E+03  0.25235700095E+03  0.00000000000E+00 0. -1.
         21   -1    0    0  502  503 -0.00000000000E+00 -0.00000000000E+00 -0.11196475290E+04  0.11196475290E+04  0.00000000000E+00 0. -1.
    9000007    1    1    2  501    0 -0.54350232983E+02  0.66063325627E+02  0.44462632102E+01  0.40906977409E+03  0.40000000000E+03 0. -1.
   -9000007    1    1    2    0  503  0.54350232983E+02 -0.66063325627E+02 -0.87173679124E+03  0.96293475585E+03  0.40000000000E+03 0. -1.
<mgrwt>
<rscale>  2 0.40904561E+03</rscale>
<asrwt>0</asrwt>
<pdfrwt beam="1">  1       21 0.38824154E-01 0.40904561E+03</pdfrwt>
<pdfrwt beam="2">  1       21 0.17225346E+00 0.40904561E+03</pdfrwt>
<totfact> 0.11295737E+03</totfact>
</mgrwt>
</event>
<event>
 4    1  0.4760244E-002  0.5311050E+03  0.7818608E-02  0.1005964E+00
         21   -1    0    0  501  502  0.00000000000E+00  0.00000000000E+00  0.10342607353E+04  0.10342607353E+04  0.00000000000E+00 0. -1.
         21   -1    0    0  502  503 -0.00000000000E+00 -0.00000000000E+00 -0.28548331707E+03  0.28548331707E+03  0.00000000000E+00 0.  1.
    9000007    1    1    2  501    0 -0.32234678425E+03  0.13477804356E+03  0.51386594019E+03  0.73900661352E+03  0.40000000000E+03 0.  1.
   -9000007    1    1    2    0  503  0.32234678425E+03 -0.13477804356E+03  0.23491147799E+03  0.58073743881E+03  0.40000000000E+03 0.  1.
<mgrwt>
<rscale>  2 0.53110505E+03</rscale>
<asrwt>0</asrwt>
<pdfrwt beam="1">  1       21 0.15911703E+00 0.53110505E+03</pdfrwt>
<pdfrwt beam="2">  1       21 0.43920511E-01 0.53110505E+03</pdfrwt>
<totfact> 0.10404680E+03</totfact>
</mgrwt>
</event>
<event>
 4    1  0.4760244E-002  0.4576768E+03  0.7818608E-02  0.1025457E+00
         21   -1    0    0  501  502  0.00000000000E+00  0.00000000000E+00  0.14088531391E+03  0.14088531391E+03  0.00000000000E+00 0.  1.
         21   -1    0    0  502  503 -0.00000000000E+00 -0.00000000000E+00 -0.17290600105E+04  0.17290600105E+04  0.00000000000E+00 0.  1.
    9000007    1    1    2  501    0  0.79864318816E+02  0.20758060158E+03 -0.44411280328E+03  0.63773364158E+03  0.40000000000E+03 0. -1.
   -9000007    1    1    2    0  503 -0.79864318816E+02 -0.20758060158E+03 -0.11440618933E+04  0.12322116828E+04  0.40000000000E+03 0. -1.
<mgrwt>
<rscale>  2 0.45767676E+03</rscale>
<asrwt>0</asrwt>
<pdfrwt beam="1">  1       21 0.21674664E-01 0.45767676E+03</pdfrwt>
<pdfrwt beam="2">  1       21 0.26600923E+00 0.45767676E+03</pdfrwt>
<totfact> 0.86383147E+02</totfact>
</mgrwt>
</event>
<event>
 4    1  0.4760244E-002  0.4033568E+03  0.7818608E-02  0.1042624E+00
         21   -1    0    0  501  502  0.00000000000E+00  0.00000000000E+00  0.88924250873E+02  0.88924250873E+02  0.00000000000E+00 0.  1.
         21   -1    0    0  502  503 -0.00000000000E+00 -0.00000000000E+00 -0.18625618204E+04  0.18625618204E+04  0.00000000000E+00 0.  1.
    9000007    1    1    2  501    0 -0.29719331469E+02 -0.42584644737E+02 -0.10166025626E+04  0.10936989809E+04  0.40000000000E+03 0.  1.
   -9000007    1    1    2    0  503  0.29719331469E+02  0.42584644737E+02 -0.75703500696E+03  0.85778709036E+03  0.40000000000E+03 0.  1.
<mgrwt>
<rscale>  2 0.40335678E+03</rscale>
<asrwt>0</asrwt>
<pdfrwt beam="1">  1       21 0.13680656E-01 0.40335678E+03</pdfrwt>
<pdfrwt beam="2">  1       21 0.28654794E+00 0.40335678E+03</pdfrwt>
<totfact> 0.15858151E+03</totfact>
</mgrwt>
</event>
<event>
 4    1  0.4760244E-002  0.4325273E+03  0.7818608E-02  0.1033065E+00
         21   -1    0    0  503  502  0.00000000000E+00  0.00000000000E+00  0.12795186942E+04  0.12795186942E+04  0.00000000000E+00 0. -1.
         21   -1    0    0  501  503 -0.00000000000E+00 -0.00000000000E+00 -0.21877105921E+03  0.21877105921E+03  0.00000000000E+00 0.  1.
    9000007    1    1    2  501    0  0.88317267492E+02  0.13885231178E+03  0.98934983217E+02  0.44369813514E+03  0.40000000000E+03 0.  1.
   -9000007    1    1    2    0  502 -0.88317267492E+02 -0.13885231178E+03  0.96181265180E+03  0.10545916183E+04  0.40000000000E+03 0. -1.
<mgrwt>
<rscale>  2 0.43252735E+03</rscale>
<asrwt>0</asrwt>
<pdfrwt beam="1">  1       21 0.19684903E+00 0.43252735E+03</pdfrwt>
<pdfrwt beam="2">  1       21 0.33657087E-01 0.43252735E+03</pdfrwt>
<totfact> 0.10074189E+03</totfact>
</mgrwt>
</event>
<event>
 4    1  0.4760244E-002  0.4219369E+03  0.7818608E-02  0.1036438E+00
         21   -1    0    0  501  502  0.00000000000E+00  0.00000000000E+00  0.20440606792E+03  0.20440606792E+03  0.00000000000E+00 0. -1.
         21   -1    0    0  502  503 -0.00000000000E+00 -0.00000000000E+00 -0.10294355855E+04  0.10294355855E+04  0.00000000000E+00 0. -1.
    9000007    1    1    2  501    0 -0.12701795228E+03 -0.43556786939E+02 -0.17046610020E+03  0.45507081340E+03  0.40000000000E+03 0. -1.
   -9000007    1    1    2    0  503  0.12701795228E+03  0.43556786939E+02 -0.65456341738E+03  0.77877084002E+03  0.40000000000E+03 0. -1.
<mgrwt>
<rscale>  2 0.42193691E+03</rscale>
<asrwt>0</asrwt>
<pdfrwt beam="1">  1       21 0.31447088E-01 0.42193691E+03</pdfrwt>
<pdfrwt beam="2">  1       21 0.15837470E+00 0.42193691E+03</pdfrwt>
<totfact> 0.21767320E+03</totfact>
</mgrwt>
</event>
<event>
 4    1  0.4760244E-002  0.4320188E+03  0.7818608E-02  0.1033224E+00
         21   -1    0    0  501  502  0.00000000000E+00  0.00000000000E+00  0.31098793455E+03  0.31098793455E+03  0.00000000000E+00 0. -1.
         21   -1    0    0  502  503 -0.00000000000E+00 -0.00000000000E+00 -0.78139551646E+03  0.78139551646E+03  0.00000000000E+00 0. -1.
    9000007    1    1    2  501    0  0.13091438518E+03  0.97476299241E+02  0.27847372839E+02  0.43291532813E+03  0.40000000000E+03 0. -1.
   -9000007    1    1    2    0  503 -0.13091438518E+03 -0.97476299241E+02 -0.49825495475E+03  0.65946812288E+03  0.40000000000E+03 0. -1.
<mgrwt>
<rscale>  2 0.43201876E+03</rscale>
<asrwt>0</asrwt>
<pdfrwt beam="1">  1       21 0.47844297E-01 0.43201876E+03</pdfrwt>
<pdfrwt beam="2">  1       21 0.12021470E+00 0.43201876E+03</pdfrwt>
<totfact> 0.19006308E+03</totfact>
</mgrwt>
</event>
<event>
 4    1  0.4760244E-002  0.4840692E+03  0.7818608E-02  0.1018023E+00
         21   -1    0    0  501  502  0.00000000000E+00  0.00000000000E+00  0.41341805704E+03  0.41341805704E+03  0.00000000000E+00 0.  1.
         21   -1    0    0  502  503 -0.00000000000E+00 -0.00000000000E+00 -0.64851282449E+03  0.64851282449E+03  0.00000000000E+00 0.  1.
    9000007    1    1    2  501    0  0.27262148523E+03  0.74212682442E+00  0.70933390446E+02  0.48923876670E+03  0.40000000000E+03 0.  1.
   -9000007    1    1    2    0  503 -0.27262148523E+03 -0.74212682442E+00 -0.30602815790E+03  0.57269211483E+03  0.40000000000E+03 0.  1.
<mgrwt>
<rscale>  2 0.48406924E+03</rscale>
<asrwt>0</asrwt>
<pdfrwt beam="1">  1       21 0.63602778E-01 0.48406924E+03</pdfrwt>
<pdfrwt beam="2">  1       21 0.99771204E-01 0.48406924E+03</pdfrwt>
<totfact> 0.15991213E+03</totfact>
</mgrwt>
</event>
<event>
 4    1  0.4760244E-002  0.4862879E+03  0.7818608E-02  0.1017421E+00
         21   -1    0    0  503  502  0.00000000000E+00  0.00000000000E+00  0.10254969331E+04  0.10254969331E+04  0.00000000000E+00 0. -1.
         21   -1    0    0  501  503 -0.00000000000E+00 -0.00000000000E+00 -0.54278169660E+03  0.54278169660E+03  0.00000000000E+00 0. -1.
    9000007    1    1    2  501    0  0.14310243154E+03 -0.23663806257E+03 -0.35332722440E+03  0.60109567131E+03  0.40000000000E+03 0. -1.
   -9000007    1    1    2    0  502 -0.14310243154E+03  0.23663806257E+03  0.83604246093E+03  0.96718295842E+03  0.40000000000E+03 0. -1.
<mgrwt>
<rscale>  2 0.48628786E+03</rscale>
<asrwt>0</asrwt>
<pdfrwt beam="1">  1       21 0.15776876E+00 0.48628786E+03</pdfrwt>
<pdfrwt beam="2">  1       21 0.83504877E-01 0.48628786E+03</pdfrwt>
<totfact> 0.26305957E+02</totfact>
</mgrwt>
</event>
<event>
 4    1  0.4760244E-002  0.5124886E+03  0.7818608E-02  0.1010570E+00
         21   -1    0    0  503  502  0.00000000000E+00  0.00000000000E+00  0.19327139668E+03  0.19327139668E+03  0.00000000000E+00 0.  1.
         21   -1    0    0  501  503 -0.00000000000E+00 -0.00000000000E+00 -0.14913123890E+04  0.14913123890E+04  0.00000000000E+00 0.  1.
    9000007    1    1    2  501    0 -0.29083877617E+03  0.13437761901E+03 -0.89996310599E+03  0.10356534799E+04  0.40000000000E+03 0.  1.
   -9000007    1    1    2    0  502  0.29083877617E+03 -0.13437761901E+03 -0.39807788631E+03  0.64893030580E+03  0.40000000000E+03 0.  1.
<mgrwt>
<rscale>  2 0.51248857E+03</rscale>
<asrwt>0</asrwt>
<pdfrwt beam="1">  1       21 0.29734062E-01 0.51248857E+03</pdfrwt>
<pdfrwt beam="2">  1       21 0.22943267E+00 0.51248857E+03</pdfrwt>
<totfact> 0.76450053E+02</totfact>
</mgrwt>
</event>
<event>
 4    1  0.4760244E-002  0.4690308E+03  0.7818608E-02  0.1022194E+00
         21   -1    0    0  501  502  0.00000000000E+00  0.00000000000E+00  0.47726970670E+03  0.47726970670E+03  0.00000000000E+00 0.  1.
         21   -1    0    0  502  503 -0.00000000000E+00 -0.00000000000E+00 -0.49274438152E+03  0.49274438152E+03  0.00000000000E+00 0.  1.
    9000007    1    1    2  501    0  0.14606380309E+03  0.19660940856E+03 -0.13096857190E+03  0.48697295709E+03  0.40000000000E+03 0.  1.
   -9000007    1    1    2    0  503 -0.14606380309E+03 -0.19660940856E+03  0.11549389708E+03  0.48304113114E+03  0.40000000000E+03 0.  1.
<mgrwt>
<rscale>  2 0.46903080E+03</rscale>
<asrwt>0</asrwt>
<pdfrwt beam="1">  1       21 0.73426108E-01 0.46903080E+03</pdfrwt>
<pdfrwt beam="2">  1       21 0.75806828E-01 0.46903080E+03</pdfrwt>
<totfact> 0.22243179E+03</totfact>
</mgrwt>
</event>
<event>
 4    1  0.4760244E-002  0.4133014E+03  0.7818608E-02  0.1039269E+00
         21   -1    0    0  503  502  0.00000000000E+00  0.00000000000E+00  0.17821062568E+03  0.17821062568E+03  0.00000000000E+00 0.  1.
         21   -1    0    0  501  503 -0.00000000000E+00 -0.00000000000E+00 -0.11135916754E+04  0.11135916754E+04  0.00000000000E+00 0.  1.
    9000007    1    1    2  501    0  0.92399627037E+02 -0.47753432150E+02 -0.22665991592E+03  0.47137331155E+03  0.40000000000E+03 0.  1.
   -9000007    1    1    2    0  502 -0.92399627037E+02  0.47753432150E+02 -0.70872113376E+03  0.82042898949E+03  0.40000000000E+03 0.  1.
<mgrwt>
<rscale>  2 0.41330144E+03</rscale>
<asrwt>0</asrwt>
<pdfrwt beam="1">  1       21 0.27417019E-01 0.41330144E+03</pdfrwt>
<pdfrwt beam="2">  1       21 0.17132180E+00 0.41330144E+03</pdfrwt>
<totfact> 0.22986236E+03</totfact>
</mgrwt>
</event>
<event>
 4    1  0.4760244E-002  0.4436850E+03  0.7818608E-02  0.1029622E+00
         21   -1    0    0  503  502  0.00000000000E+00  0.00000000000E+00  0.52151278171E+03  0.52151278171E+03  0.00000000000E+00 0.  1.
         21   -1    0    0  501  503 -0.00000000000E+00 -0.00000000000E+00 -0.39252323570E+03  0.39252323570E+03  0.00000000000E+00 0.  1.
    9000007    1    1    2  501    0  0.49036031448E+02  0.18561206262E+03  0.15398787143E+03  0.46964735144E+03  0.40000000000E+03 0. -1.
   -9000007    1    1    2    0  502 -0.49036031448E+02 -0.18561206262E+03 -0.24998325424E+02  0.44438866597E+03  0.40000000000E+03 0. -1.
<mgrwt>
<rscale>  2 0.44368499E+03</rscale>
<asrwt>0</asrwt>
<pdfrwt beam="1">  1       21 0.80232736E-01 0.44368499E+03</pdfrwt>
<pdfrwt beam="2">  1       21 0.60388190E-01 0.44368499E+03</pdfrwt>
<totfact> 0.30481032E+03</totfact>
</mgrwt>
</event>
<event>
 4    1  0.4760244E-002  0.4497766E+03  0.7818608E-02  0.1027789E+00
         21   -1    0    0  501  502  0.00000000000E+00  0.00000000000E+00  0.10288283928E+04  0.10288283928E+04  0.00000000000E+00 0. -1.
         21   -1    0    0  502  503 -0.00000000000E+00 -0.00000000000E+00 -0.45841638371E+03  0.45841638371E+03  0.00000000000E+00 0. -1.
    9000007    1    1    2  501    0  0.18267377032E+03  0.94494811325E+02  0.84715326224E+03  0.95914942811E+03  0.40000000000E+03 0. -1.
   -9000007    1    1    2    0  503 -0.18267377032E+03 -0.94494811325E+02 -0.27674125319E+03  0.52809534835E+03  0.40000000000E+03 0. -1.
<mgrwt>
<rscale>  2 0.44977658E+03</rscale>
<asrwt>0</asrwt>
<pdfrwt beam="1">  1       21 0.15828129E+00 0.44977658E+03</pdfrwt>
<pdfrwt beam="2">  1       21 0.70525598E-01 0.44977658E+03</pdfrwt>
<totfact> 0.39079518E+02</totfact>
</mgrwt>
</event>
<event>
 4    1  0.4760244E-002  0.4267750E+03  0.7818608E-02  0.1034884E+00
         21   -1    0    0  501  502  0.00000000000E+00  0.00000000000E+00  0.21443609017E+04  0.21443609017E+04  0.00000000000E+00 0. -1.
         21   -1    0    0  502  503 -0.00000000000E+00 -0.00000000000E+00 -0.13379059464E+03  0.13379059464E+03  0.00000000000E+00 0. -1.
    9000007    1    1    2  501    0  0.13544705986E+03  0.61571212070E+02  0.16935970912E+04  0.17465417337E+04  0.40000000000E+03 0. -1.
   -9000007    1    1    2    0  503 -0.13544705986E+03 -0.61571212070E+02  0.31697321587E+03  0.53160976266E+03  0.40000000000E+03 0. -1.
<mgrwt>
<rscale>  2 0.42677502E+03</rscale>
<asrwt>0</asrwt>
<pdfrwt beam="1">  1       21 0.32990165E+00 0.42677502E+03</pdfrwt>
<pdfrwt beam="2">  1       21 0.20583170E-01 0.42677502E+03</pdfrwt>
<totfact> 0.39999230E+02</totfact>
</mgrwt>
</event>
<event>
 4    1  0.4760244E-002  0.4172734E+03  0.7818608E-02  0.1037957E+00
         21   -1    0    0  503  502  0.00000000000E+00  0.00000000000E+00  0.10632305478E+03  0.10632305478E+03  0.00000000000E+00 0. -1.
         21   -1    0    0  501  503 -0.00000000000E+00 -0.00000000000E+00 -0.17625741569E+04  0.17625741569E+04  0.00000000000E+00 0. -1.
    9000007    1    1    2  501    0 -0.93748185286E+02  0.72995387421E+02 -0.10769266936E+04  0.11549407570E+04  0.40000000000E+03 0. -1.
   -9000007    1    1    2    0  502  0.93748185286E+02 -0.72995387421E+02 -0.57932440848E+03  0.71395645462E+03  0.40000000000E+03 0. -1.
<mgrwt>
<rscale>  2 0.41727335E+03</rscale>
<asrwt>0</asrwt>
<pdfrwt beam="1">  1       21 0.16357392E-01 0.41727335E+03</pdfrwt>
<pdfrwt beam="2">  1       21 0.27116528E+00 0.41727335E+03</pdfrwt>
<totfact> 0.13982535E+03</totfact>
</mgrwt>
</event>
<event>
 4    1  0.4760244E-002  0.4732491E+03  0.7818608E-02  0.1021007E+00
         21   -1    0    0  503  502  0.00000000000E+00  0.00000000000E+00  0.59056614954E+03  0.59056614954E+03  0.00000000000E+00 0. -1.
         21   -1    0    0  501  503 -0.00000000000E+00 -0.00000000000E+00 -0.46503078799E+03  0.46503078799E+03  0.00000000000E+00 0. -1.
    9000007    1    1    2  501    0 -0.65581637222E+01 -0.25282746725E+03 -0.16393378323E+03  0.50083832021E+03  0.40000000000E+03 0. -1.
   -9000007    1    1    2    0  502  0.65581637222E+01  0.25282746725E+03  0.28946914478E+03  0.55475861732E+03  0.40000000000E+03 0. -1.
<mgrwt>
<rscale>  2 0.47324913E+03</rscale>
<asrwt>0</asrwt>
<pdfrwt beam="1">  1       21 0.90856332E-01 0.47324913E+03</pdfrwt>
<pdfrwt beam="2">  1       21 0.71543198E-01 0.47324913E+03</pdfrwt>
<totfact> 0.15445235E+03</totfact>
</mgrwt>
</event>
<event>
 4    1  0.4760244E-002  0.4113206E+03  0.7818608E-02  0.1039929E+00
         21   -1    0    0  501  502  0.00000000000E+00  0.00000000000E+00  0.85201522390E+03  0.85201522390E+03  0.00000000000E+00 0.  1.
         21   -1    0    0  502  503 -0.00000000000E+00 -0.00000000000E+00 -0.19947060151E+03  0.19947060151E+03  0.00000000000E+00 0.  1.
    9000007    1    1    2  501    0 -0.73831112441E+02  0.61103182328E+02  0.36159949957E+03  0.54766671447E+03  0.40000000000E+03 0.  1.
   -9000007    1    1    2    0  503  0.73831112441E+02 -0.61103182328E+02  0.29094512283E+03  0.50381911094E+03  0.40000000000E+03 0.  1.
<mgrwt>
<rscale>  2 0.41132060E+03</rscale>
<asrwt>0</asrwt>
<pdfrwt beam="1">  1       21 0.13107926E+00 0.41132060E+03</pdfrwt>
<pdfrwt beam="2">  1       21 0.30687785E-01 0.41132060E+03</pdfrwt>
<totfact> 0.38076606E+03</totfact>
</mgrwt>
</event>
<event>
 4    1  0.4760244E-002  0.4247842E+03  0.7818608E-02  0.1035520E+00
         21   -1    0    0  503  502  0.00000000000E+00  0.00000000000E+00  0.65280937076E+03  0.65280937076E+03  0.00000000000E+00 0.  1.
         21   -1    0    0  501  503 -0.00000000000E+00 -0.00000000000E+00 -0.60005246654E+03  0.60005246654E+03  0.00000000000E+00 0.  1.
    9000007    1    1    2  501    0 -0.89913921503E+02  0.11116249575E+03 -0.43367976021E+03  0.60705827410E+03  0.40000000000E+03 0.  1.
   -9000007    1    1    2    0  502  0.89913921503E+02 -0.11116249575E+03  0.48643666443E+03  0.64580356320E+03  0.40000000000E+03 0.  1.
<mgrwt>
<rscale>  2 0.42478420E+03</rscale>
<asrwt>0</asrwt>
<pdfrwt beam="1">  1       21 0.10043221E+00 0.42478420E+03</pdfrwt>
<pdfrwt beam="2">  1       21 0.92315764E-01 0.42478420E+03</pdfrwt>
<totfact> 0.68598922E+02</totfact>
</mgrwt>
</event>
<event>
 4    1  0.4760244E-002  0.4745015E+03  0.7818608E-02  0.1020657E+00
         21   -1    0    0  501  502  0.00000000000E+00  0.00000000000E+00  0.12910877041E+04  0.12910877041E+04  0.00000000000E+00 0. -1.
         21   -1    0    0  502  503 -0.00000000000E+00 -0.00000000000E+00 -0.21114587124E+03  0.21114587124E+03  0.00000000000E+00 0. -1.
    9000007    1    1    2  501    0 -0.14789624268E+03 -0.20803463015E+03  0.22658139669E+03  0.52582395844E+03  0.40000000000E+03 0. -1.
   -9000007    1    1    2    0  503  0.14789624268E+03  0.20803463015E+03  0.85336043612E+03  0.97640961685E+03  0.40000000000E+03 0. -1.
<mgrwt>
<rscale>  2 0.47450153E+03</rscale>
<asrwt>0</asrwt>
<pdfrwt beam="1">  1       21 0.19862887E+00 0.47450153E+03</pdfrwt>
<pdfrwt beam="2">  1       21 0.32483981E-01 0.47450153E+03</pdfrwt>
<totfact> 0.10326412E+03</totfact>
</mgrwt>
</event>
<event>
 4    1  0.4760244E-002  0.5172365E+03  0.7818608E-02  0.1009375E+00
         21   -1    0    0  503  502  0.00000000000E+00  0.00000000000E+00  0.37193523942E+03  0.37193523942E+03  0.00000000000E+00 0.  1.
         21   -1    0    0  501  503 -0.00000000000E+00 -0.00000000000E+00 -0.10329707324E+04  0.10329707324E+04  0.00000000000E+00 0. -1.
    9000007    1    1    2  501    0  0.28396978718E+03 -0.16399627566E+03  0.56569743047E+02  0.52032081862E+03  0.40000000000E+03 0.  1.
   -9000007    1    1    2    0  502 -0.28396978718E+03  0.16399627566E+03 -0.71760523601E+03  0.88458515318E+03  0.40000000000E+03 0. -1.
<mgrwt>
<rscale>  2 0.51723652E+03</rscale>
<asrwt>0</asrwt>
<pdfrwt beam="1">  1       21 0.57220806E-01 0.51723652E+03</pdfrwt>
<pdfrwt beam="2">  1       21 0.15891857E+00 0.51723652E+03</pdfrwt>
<totfact> 0.59653067E+02</totfact>
</mgrwt>
</event>
<event>
 4    1  0.4760244E-002  0.4761861E+03  0.7818608E-02  0.1020189E+00
         21   -1    0    0  501  502  0.00000000000E+00  0.00000000000E+00  0.58844899481E+03  0.58844899481E+03  0.00000000000E+00 0.  1.
         21   -1    0    0  502  503 -0.00000000000E+00 -0.00000000000E+00 -0.50527857632E+03  0.50527857632E+03  0.00000000000E+00 0.  1.
    9000007    1    1    2  501    0  0.10213714511E+03 -0.23732090141E+03  0.30802085838E+03  0.56712437424E+03  0.40000000000E+03 0.  1.
   -9000007    1    1    2    0  503 -0.10213714511E+03  0.23732090141E+03 -0.22485043989E+03  0.52660319689E+03  0.40000000000E+03 0.  1.
<mgrwt>
<rscale>  2 0.47618611E+03</rscale>
<asrwt>0</asrwt>
<pdfrwt beam="1">  1       21 0.90530614E-01 0.47618611E+03</pdfrwt>
<pdfrwt beam="2">  1       21 0.77735166E-01 0.47618611E+03</pdfrwt>
<totfact> 0.12875636E+03</totfact>
</mgrwt>
</event>
<event>
 4    1  0.4760244E-002  0.4418535E+03  0.7818608E-02  0.1030180E+00
         21   -1    0    0  501  502  0.00000000000E+00  0.00000000000E+00  0.10806871414E+04  0.10806871414E+04  0.00000000000E+00 0. -1.
         21   -1    0    0  502  503 -0.00000000000E+00 -0.00000000000E+00 -0.18143624041E+03  0.18143624041E+03  0.00000000000E+00 0. -1.
    9000007    1    1    2  501    0  0.16816255441E+03  0.83401988560E+02  0.40828940257E+03  0.60161015006E+03  0.40000000000E+03 0. -1.
   -9000007    1    1    2    0  503 -0.16816255441E+03 -0.83401988560E+02  0.49096149843E+03  0.66051323177E+03  0.40000000000E+03 0. -1.
<mgrwt>
<rscale>  2 0.44185352E+03</rscale>
<asrwt>0</asrwt>
<pdfrwt beam="1">  1       21 0.16625956E+00 0.44185352E+03</pdfrwt>
<pdfrwt beam="2">  1       21 0.27913268E-01 0.44185352E+03</pdfrwt>
<totfact> 0.23870859E+03</totfact>
</mgrwt>
</event>
<event>
 4    1  0.4760244E-002  0.4561374E+03  0.7818608E-02  0.1025907E+00
         21   -1    0    0  501  502  0.00000000000E+00  0.00000000000E+00  0.16092720005E+04  0.16092720005E+04  0.00000000000E+00 0. -1.
         21   -1    0    0  502  503 -0.00000000000E+00 -0.00000000000E+00 -0.27487982352E+03  0.27487982352E+03  0.00000000000E+00 0. -1.
    9000007    1    1    2  501    0  0.20611069373E+03 -0.74697278158E+02  0.13528127216E+04  0.14276426588E+04  0.40000000000E+03 0. -1.
   -9000007    1    1    2    0  503 -0.20611069373E+03  0.74697278158E+02 -0.18420544685E+02  0.45650916519E+03  0.40000000000E+03 0. -1.
<mgrwt>
<rscale>  2 0.45613737E+03</rscale>
<asrwt>0</asrwt>
<pdfrwt beam="1">  1       21 0.24758030E+00 0.45613737E+03</pdfrwt>
<pdfrwt beam="2">  1       21 0.42289205E-01 0.45613737E+03</pdfrwt>
<totfact> 0.29594344E+02</totfact>
</mgrwt>
</event>
<event>
 4    1  0.4760244E-002  0.6218032E+03  0.7818608E-02  0.9861176E-01
         21   -1    0    0  501  502  0.00000000000E+00  0.00000000000E+00  0.16538186395E+03  0.16538186395E+03  0.00000000000E+00 0. -1.
         21   -1    0    0  502  503 -0.00000000000E+00 -0.00000000000E+00 -0.23386723731E+04  0.23386723731E+04  0.00000000000E+00 0. -1.
    9000007    1    1    2  501    0 -0.37250801069E+03 -0.29644044881E+03 -0.11100224333E+04  0.12723163759E+04  0.40000000000E+03 0. -1.
   -9000007    1    1    2    0  503  0.37250801069E+03  0.29644044881E+03 -0.10632680758E+04  0.12317378612E+04  0.40000000000E+03 0. -1.
<mgrwt>
<rscale>  2 0.62180315E+03</rscale>
<asrwt>0</asrwt>
<pdfrwt beam="1">  1       21 0.25443365E-01 0.62180315E+03</pdfrwt>
<pdfrwt beam="2">  1       21 0.35979573E+00 0.62180315E+03</pdfrwt>
<totfact> 0.15644915E+02</totfact>
</mgrwt>
</event>
<event>
 4    1  0.4760244E-002  0.6144354E+03  0.7818608E-02  0.9875902E-01
         21   -1    0    0  503  502  0.00000000000E+00  0.00000000000E+00  0.20751949373E+03  0.20751949373E+03  0.00000000000E+00 0. -1.
         21   -1    0    0  501  503 -0.00000000000E+00 -0.00000000000E+00 -0.18891709144E+04  0.18891709144E+04  0.00000000000E+00 0.  1.
    9000007    1    1    2  501    0  0.27109565978E+03 -0.37952337083E+03 -0.10425030805E+04  0.12101006233E+04  0.40000000000E+03 0.  1.
   -9000007    1    1    2    0  502 -0.27109565978E+03  0.37952337083E+03 -0.63914834019E+03  0.88658978481E+03  0.40000000000E+03 0. -1.
<mgrwt>
<rscale>  2 0.61443539E+03</rscale>
<asrwt>0</asrwt>
<pdfrwt beam="1">  1       21 0.31926076E-01 0.61443539E+03</pdfrwt>
<pdfrwt beam="2">  1       21 0.29064168E+00 0.61443539E+03</pdfrwt>
<totfact> 0.26597007E+02</totfact>
</mgrwt>
</event>
<event>
 4    1  0.4760244E-002  0.4011490E+03  0.7818608E-02  0.1043383E+00
         21   -1    0    0  501  502  0.00000000000E+00  0.00000000000E+00  0.28092791989E+03  0.28092791989E+03  0.00000000000E+00 0. -1.
         21   -1    0    0  502  503 -0.00000000000E+00 -0.00000000000E+00 -0.57467448328E+03  0.57467448328E+03  0.00000000000E+00 0. -1.
    9000007    1    1    2  501    0  0.24904927607E+01 -0.30238218328E+02 -0.17118880192E+03  0.43614923857E+03  0.40000000000E+03 0. -1.
   -9000007    1    1    2    0  503 -0.24904927607E+01  0.30238218328E+02 -0.12255776147E+03  0.41945316461E+03  0.40000000000E+03 0. -1.
<mgrwt>
<rscale>  2 0.40114904E+03</rscale>
<asrwt>0</asrwt>
<pdfrwt beam="1">  1       21 0.43219680E-01 0.40114904E+03</pdfrwt>
<pdfrwt beam="2">  1       21 0.88411459E-01 0.40114904E+03</pdfrwt>
<totfact> 0.50382254E+03</totfact>
</mgrwt>
</event>
<event>
 4    1  0.4760244E-002  0.4009077E+03  0.7818608E-02  0.1043466E+00
         21   -1    0    0  503  502  0.00000000000E+00  0.00000000000E+00  0.18938247090E+03  0.18938247090E+03  0.00000000000E+00 0. -1.
         21   -1    0    0  501  503 -0.00000000000E+00 -0.00000000000E+00 -0.14196160958E+04  0.14196160958E+04  0.00000000000E+00 0. -1.
    9000007    1    1    2  501    0  0.16131528686E+02 -0.21604727168E+02 -0.10492887182E+03  0.41441170181E+03  0.40000000000E+03 0. -1.
   -9000007    1    1    2    0  502 -0.16131528686E+02  0.21604727168E+02 -0.11253047531E+04  0.11945868649E+04  0.40000000000E+03 0. -1.
<mgrwt>
<rscale>  2 0.40090771E+03</rscale>
<asrwt>0</asrwt>
<pdfrwt beam="1">  1       21 0.29135765E-01 0.40090771E+03</pdfrwt>
<pdfrwt beam="2">  1       21 0.21840248E+00 0.40090771E+03</pdfrwt>
<totfact> 0.98661283E+02</totfact>
</mgrwt>
</event>
<event>
 4    1  0.4760244E-002  0.4697009E+03  0.7818608E-02  0.1022005E+00
         21   -1    0    0  503  502  0.00000000000E+00  0.00000000000E+00  0.35962192295E+03  0.35962192295E+03  0.00000000000E+00 0.  1.
         21   -1    0    0  501  503 -0.00000000000E+00 -0.00000000000E+00 -0.12167385730E+04  0.12167385730E+04  0.00000000000E+00 0.  1.
    9000007    1    1    2  501    0 -0.24500375560E+03  0.24332620431E+02 -0.98354250380E+03  0.10899425551E+04  0.40000000000E+03 0.  1.
   -9000007    1    1    2    0  502  0.24500375560E+03 -0.24332620431E+02  0.12642585375E+03  0.48641794084E+03  0.40000000000E+03 0.  1.
<mgrwt>
<rscale>  2 0.46970088E+03</rscale>
<asrwt>0</asrwt>
<pdfrwt beam="1">  1       21 0.55326449E-01 0.46970088E+03</pdfrwt>
<pdfrwt beam="2">  1       21 0.18719055E+00 0.46970088E+03</pdfrwt>
<totfact> 0.40878261E+02</totfact>
</mgrwt>
</event>
<event>
 4    1  0.4760244E-002  0.5615241E+03  0.7818608E-02  0.9988612E-01
         21   -1    0    0  503  502  0.00000000000E+00  0.00000000000E+00  0.82936062138E+03  0.82936062138E+03  0.00000000000E+00 0. -1.
         21   -1    0    0  501  503 -0.00000000000E+00 -0.00000000000E+00 -0.10271650324E+04  0.10271650324E+04  0.00000000000E+00 0.  1.
    9000007    1    1    2  501    0  0.82597676199E+01  0.39400645102E+03 -0.83561252663E+03  0.10067559793E+04  0.40000000000E+03 0.  1.
   -9000007    1    1    2    0  502 -0.82597676199E+01 -0.39400645102E+03  0.63780811565E+03  0.84976967443E+03  0.40000000000E+03 0. -1.
<mgrwt>
<rscale>  2 0.56152409E+03</rscale>
<asrwt>0</asrwt>
<pdfrwt beam="1">  1       21 0.12759394E+00 0.56152409E+03</pdfrwt>
<pdfrwt beam="2">  1       21 0.15802539E+00 0.56152409E+03</pdfrwt>
<totfact> 0.89249412E+01</totfact>
</mgrwt>
</event>
<event>
 4    1  0.4760244E-002  0.4365216E+03  0.7818608E-02  0.1031819E+00
         21   -1    0    0  501  502  0.00000000000E+00  0.00000000000E+00  0.35740165128E+03  0.35740165128E+03  0.00000000000E+00 0.  1.
         21   -1    0    0  502  503 -0.00000000000E+00 -0.00000000000E+00 -0.10025191734E+04  0.10025191734E+04  0.00000000000E+00 0.  1.
    9000007    1    1    2  501    0  0.10846601539E+03 -0.13706277488E+03  0.14269669229E+03  0.45925311838E+03  0.40000000000E+03 0. -1.
   -9000007    1    1    2    0  503 -0.10846601539E+03  0.13706277488E+03 -0.78781421438E+03  0.90066770628E+03  0.40000000000E+03 0. -1.
<mgrwt>
<rscale>  2 0.43652157E+03</rscale>
<asrwt>0</asrwt>
<pdfrwt beam="1">  1       21 0.54984871E-01 0.43652157E+03</pdfrwt>
<pdfrwt beam="2">  1       21 0.15423372E+00 0.43652157E+03</pdfrwt>
<totfact> 0.73131644E+02</totfact>
</mgrwt>
</event>
<event>
 4    1  0.4760244E-002  0.8840105E+03  0.7818608E-02  0.9445793E-01
         21   -1    0    0  503  502  0.00000000000E+00  0.00000000000E+00  0.39316374873E+03  0.39316374873E+03  0.00000000000E+00 0.  1.
         21   -1    0    0  501  503 -0.00000000000E+00 -0.00000000000E+00 -0.20010385153E+04  0.20010385153E+04  0.00000000000E+00 0. -1.
    9000007    1    1    2  501    0 -0.29012696488E+03  0.73300809556E+03 -0.90183274092E+03  0.12628447317E+04  0.40000000000E+03 0. -1.
   -9000007    1    1    2    0  502  0.29012696488E+03 -0.73300809556E+03 -0.70604202568E+03  0.11313575323E+04  0.40000000000E+03 0.  1.
<mgrwt>
<rscale>  2 0.88401048E+03</rscale>
<asrwt>0</asrwt>
<pdfrwt beam="1">  1       21 0.60486731E-01 0.88401048E+03</pdfrwt>
<pdfrwt beam="2">  1       21 0.30785208E+00 0.88401048E+03</pdfrwt>
<totfact> 0.49000514E+01</totfact>
</mgrwt>
</event>
<event>
 4    1  0.4760244E-002  0.4625457E+03  0.7818608E-02  0.1024045E+00
         21   -1    0    0  501  502  0.00000000000E+00  0.00000000000E+00  0.17757237343E+03  0.17757237343E+03  0.00000000000E+00 0.  1.
         21   -1    0    0  502  503 -0.00000000000E+00 -0.00000000000E+00 -0.20288600354E+04  0.20288600354E+04  0.00000000000E+00 0.  1.
    9000007    1    1    2  501    0  0.60647493473E+02  0.22421060221E+03 -0.22257120633E+03  0.51330931659E+03  0.40000000000E+03 0.  1.
   -9000007    1    1    2    0  503 -0.60647493473E+02 -0.22421060221E+03 -0.16287164556E+04  0.16931230922E+04  0.40000000000E+03 0.  1.
<mgrwt>
<rscale>  2 0.46254569E+03</rscale>
<asrwt>0</asrwt>
<pdfrwt beam="1">  1       21 0.27318828E-01 0.46254569E+03</pdfrwt>
<pdfrwt beam="2">  1       21 0.31213230E+00 0.46254569E+03</pdfrwt>
<totfact> 0.28967388E+02</totfact>
</mgrwt>
</event>
<event>
 4    1  0.4760244E-002  0.4015574E+03  0.7818608E-02  0.1043242E+00
         21   -1    0    0  503  502  0.00000000000E+00  0.00000000000E+00  0.70597974278E+03  0.70597974278E+03  0.00000000000E+00 0. -1.
         21   -1    0    0  501  503 -0.00000000000E+00 -0.00000000000E+00 -0.23136901783E+03  0.23136901783E+03  0.00000000000E+00 0. -1.
    9000007    1    1    2  501    0 -0.32666730528E+02 -0.13461709980E+02  0.18424628710E+03  0.44180881298E+03  0.40000000000E+03 0. -1.
   -9000007    1    1    2    0  502  0.32666730528E+02  0.13461709980E+02  0.29036443785E+03  0.49553994762E+03  0.40000000000E+03 0. -1.
<mgrwt>
<rscale>  2 0.40155738E+03</rscale>
<asrwt>0</asrwt>
<pdfrwt beam="1">  1       21 0.10861227E+00 0.40155738E+03</pdfrwt>
<pdfrwt beam="2">  1       21 0.35595234E-01 0.40155738E+03</pdfrwt>
<totfact> 0.45659658E+03</totfact>
</mgrwt>
</event>
<event>
 4    1  0.4760244E-002  0.5404394E+03  0.7818608E-02  0.1003731E+00
         21   -1    0    0  501  502  0.00000000000E+00  0.00000000000E+00  0.12165723225E+04  0.12165723225E+04  0.00000000000E+00 0. -1.
         21   -1    0    0  502  503 -0.00000000000E+00 -0.00000000000E+00 -0.25703450283E+03  0.25703450283E+03  0.00000000000E+00 0. -1.
    9000007    1    1    2  501    0  0.26656639315E+03  0.24701648215E+03  0.29053568934E+03  0.61358436355E+03  0.40000000000E+03 0. -1.
   -9000007    1    1    2    0  503 -0.26656639315E+03 -0.24701648215E+03  0.66900213036E+03  0.86002246182E+03  0.40000000000E+03 0. -1.
<mgrwt>
<rscale>  2 0.54043944E+03</rscale>
<asrwt>0</asrwt>
<pdfrwt beam="1">  1       21 0.18716497E+00 0.54043944E+03</pdfrwt>
<pdfrwt beam="2">  1       21 0.39543770E-01 0.54043944E+03</pdfrwt>
<totfact> 0.80695545E+02</totfact>
</mgrwt>
</event>
<event>
 4    1  0.4760244E-002  0.4576583E+03  0.7818608E-02  0.1025463E+00
         21   -1    0    0  503  502  0.00000000000E+00  0.00000000000E+00  0.20261846694E+03  0.20261846694E+03  0.00000000000E+00 0.  1.
         21   -1    0    0  501  503 -0.00000000000E+00 -0.00000000000E+00 -0.12372509929E+04  0.12372509929E+04  0.00000000000E+00 0.  1.
    9000007    1    1    2  501    0 -0.22275543688E+02  0.22125762372E+03 -0.80931268116E+03  0.92975166135E+03  0.40000000000E+03 0.  1.
   -9000007    1    1    2    0  502  0.22275543688E+02 -0.22125762372E+03 -0.22531984484E+03  0.51011779854E+03  0.40000000000E+03 0.  1.
<mgrwt>
<rscale>  2 0.45765832E+03</rscale>
<asrwt>0</asrwt>
<pdfrwt beam="1">  1       21 0.31172071E-01 0.45765832E+03</pdfrwt>
<pdfrwt beam="2">  1       21 0.19034631E+00 0.45765832E+03</pdfrwt>
<totfact> 0.12855860E+03</totfact>
</mgrwt>
</event>
<event>
 4    1  0.4760244E-002  0.4248365E+03  0.7818608E-02  0.1035504E+00
         21   -1    0    0  501  502  0.00000000000E+00  0.00000000000E+00  0.57196289993E+03  0.57196289993E+03  0.00000000000E+00 0.  1.
         21   -1    0    0  502  503 -0.00000000000E+00 -0.00000000000E+00 -0.50412359807E+03  0.50412359807E+03  0.00000000000E+00 0.  1.
    9000007    1    1    2  501    0 -0.14217797883E+03  0.16476866777E+02  0.36298543796E+03  0.55878841521E+03  0.40000000000E+03 0.  1.
   -9000007    1    1    2    0  503  0.14217797883E+03 -0.16476866777E+02 -0.29514613610E+03  0.51729808279E+03  0.40000000000E+03 0.  1.
<mgrwt>
<rscale>  2 0.42483652E+03</rscale>
<asrwt>0</asrwt>
<pdfrwt beam="1">  1       21 0.87994292E-01 0.42483652E+03</pdfrwt>
<pdfrwt beam="2">  1       21 0.77557477E-01 0.42483652E+03</pdfrwt>
<totfact> 0.14127468E+03</totfact>
</mgrwt>
</event>
<event>
 4    1  0.4760244E-002  0.4874791E+03  0.7818608E-02  0.1017100E+00
         21   -1    0    0  501  502  0.00000000000E+00  0.00000000000E+00  0.13212039619E+04  0.13212039619E+04  0.00000000000E+00 0.  1.
         21   -1    0    0  502  503 -0.00000000000E+00 -0.00000000000E+00 -0.56360842603E+03  0.56360842603E+03  0.00000000000E+00 0.  1.
    9000007    1    1    2  501    0 -0.90516163260E+01 -0.27848512451E+03  0.11564240290E+04  0.12549710878E+04  0.40000000000E+03 0.  1.
   -9000007    1    1    2    0  503  0.90516163260E+01  0.27848512451E+03 -0.39882849318E+03  0.62984130009E+03  0.40000000000E+03 0.  1.
<mgrwt>
<rscale>  2 0.48747912E+03</rscale>
<asrwt>0</asrwt>
<pdfrwt beam="1">  1       21 0.20326215E+00 0.48747912E+03</pdfrwt>
<pdfrwt beam="2">  1       21 0.86708989E-01 0.48747912E+03</pdfrwt>
<totfact> 0.11457394E+02</totfact>
</mgrwt>
</event>
<event>
 4    1  0.4760244E-002  0.4578461E+03  0.7818608E-02  0.1025408E+00
         21   -1    0    0  501  502  0.00000000000E+00  0.00000000000E+00  0.82157563458E+03  0.82157563458E+03  0.00000000000E+00 0.  1.
         21   -1    0    0  502  503 -0.00000000000E+00 -0.00000000000E+00 -0.55434070199E+03  0.55434070199E+03  0.00000000000E+00 0. -1.
    9000007    1    1    2  501    0 -0.21828835836E+03  0.44420975861E+02  0.63903401112E+03  0.78612180854E+03  0.40000000000E+03 0.  1.
   -9000007    1    1    2    0  503  0.21828835836E+03 -0.44420975861E+02 -0.37179907853E+03  0.58979452803E+03  0.40000000000E+03 0. -1.
<mgrwt>
<rscale>  2 0.45784608E+03</rscale>
<asrwt>0</asrwt>
<pdfrwt beam="1">  1       21 0.12639625E+00 0.45784608E+03</pdfrwt>
<pdfrwt beam="2">  1       21 0.85283185E-01 0.45784608E+03</pdfrwt>
<totfact> 0.45858087E+02</totfact>
</mgrwt>
</event>
<event>
 4    1  0.4760244E-002  0.4737857E+03  0.7818608E-02  0.1020857E+00
         21   -1    0    0  503  502  0.00000000000E+00  0.00000000000E+00  0.12148347457E+04  0.12148347457E+04  0.00000000000E+00 0.  1.
         21   -1    0    0  501  503 -0.00000000000E+00 -0.00000000000E+00 -0.19369570279E+03  0.19369570279E+03  0.00000000000E+00 0. -1.
    9000007    1    1    2  501    0  0.18082240525E+03  0.17825868936E+03  0.66169561866E+03  0.81382675940E+03  0.40000000000E+03 0. -1.
   -9000007    1    1    2    0  502 -0.18082240525E+03 -0.17825868936E+03  0.35944342424E+03  0.59470368908E+03  0.40000000000E+03 0.  1.
<mgrwt>
<rscale>  2 0.47378571E+03</rscale>
<asrwt>0</asrwt>
<pdfrwt beam="1">  1       21 0.18689765E+00 0.47378571E+03</pdfrwt>
<pdfrwt beam="2">  1       21 0.29799340E-01 0.47378571E+03</pdfrwt>
<totfact> 0.14750057E+03</totfact>
</mgrwt>
</event>
<event>
 4    1  0.4760244E-002  0.4379584E+03  0.7818608E-02  0.1031375E+00
         21   -1    0    0  501  502  0.00000000000E+00  0.00000000000E+00  0.34616960309E+03  0.34616960309E+03  0.00000000000E+00 0.  1.
         21   -1    0    0  502  503 -0.00000000000E+00 -0.00000000000E+00 -0.88220571363E+03  0.88220571363E+03  0.00000000000E+00 0. -1.
    9000007    1    1    2  501    0 -0.94701617481E+02 -0.15112629147E+03  0.10655165513E+03  0.45073363258E+03  0.40000000000E+03 0.  1.
   -9000007    1    1    2    0  503  0.94701617481E+02  0.15112629147E+03 -0.64258776567E+03  0.77764168414E+03  0.40000000000E+03 0. -1.
<mgrwt>
<rscale>  2 0.43795839E+03</rscale>
<asrwt>0</asrwt>
<pdfrwt beam="1">  1       21 0.53256862E-01 0.43795839E+03</pdfrwt>
<pdfrwt beam="2">  1       21 0.13572396E+00 0.43795839E+03</pdfrwt>
<totfact> 0.11032755E+03</totfact>
</mgrwt>
</event>
<event>
 4    1  0.4760244E-002  0.4083646E+03  0.7818608E-02  0.1040921E+00
         21   -1    0    0  501  502  0.00000000000E+00  0.00000000000E+00  0.92864739733E+03  0.92864739733E+03  0.00000000000E+00 0.  1.
         21   -1    0    0  502  503 -0.00000000000E+00 -0.00000000000E+00 -0.21771253545E+03  0.21771253545E+03  0.00000000000E+00 0.  1.
    9000007    1    1    2  501    0  0.78494972416E+02 -0.24497964999E+02  0.59536569292E+03  0.72195700654E+03  0.40000000000E+03 0.  1.
   -9000007    1    1    2    0  503 -0.78494972416E+02  0.24497964999E+02  0.11556916896E+03  0.42440292624E+03  0.40000000000E+03 0.  1.
<mgrwt>
<rscale>  2 0.40836456E+03</rscale>
<asrwt>0</asrwt>
<pdfrwt beam="1">  1       21 0.14286883E+00 0.40836456E+03</pdfrwt>
<pdfrwt beam="2">  1       21 0.33494237E-01 0.40836456E+03</pdfrwt>
<totfact> 0.25519996E+03</totfact>
</mgrwt>
</event>
<event>
 4    1  0.4760244E-002  0.5089672E+03  0.7818608E-02  0.1011464E+00
         21   -1    0    0  501  502  0.00000000000E+00  0.00000000000E+00  0.12046432585E+04  0.12046432585E+04  0.00000000000E+00 0. -1.
         21   -1    0    0  502  503 -0.00000000000E+00 -0.00000000000E+00 -0.28904495720E+03  0.28904495720E+03  0.00000000000E+00 0. -1.
    9000007    1    1    2  501    0  0.13852000844E+02 -0.31441330837E+03  0.83569745062E+03  0.97848752438E+03  0.40000000000E+03 0. -1.
   -9000007    1    1    2    0  503 -0.13852000844E+02  0.31441330837E+03  0.79900850701E+02  0.51520069133E+03  0.40000000000E+03 0. -1.
<mgrwt>
<rscale>  2 0.50896720E+03</rscale>
<asrwt>0</asrwt>
<pdfrwt beam="1">  1       21 0.18532973E+00 0.50896720E+03</pdfrwt>
<pdfrwt beam="2">  1       21 0.44468456E-01 0.50896720E+03</pdfrwt>
<totfact> 0.65897771E+02</totfact>
</mgrwt>
</event>
<event>
 4    1  0.4760244E-002  0.4015567E+03  0.7818608E-02  0.1043242E+00
         21   -1    0    0  501  502  0.00000000000E+00  0.00000000000E+00  0.20929643213E+03  0.20929643213E+03  0.00000000000E+00 0.  1.
         21   -1    0    0  502  503 -0.00000000000E+00 -0.00000000000E+00 -0.11538441138E+04  0.11538441138E+04  0.00000000000E+00 0.  1.
    9000007    1    1    2  501    0  0.34807333921E+02  0.60225730311E+01 -0.79382662531E+02  0.40932802126E+03  0.40000000000E+03 0.  1.
   -9000007    1    1    2    0  503 -0.34807333921E+02 -0.60225730311E+01 -0.86516501912E+03  0.95381252466E+03  0.40000000000E+03 0.  1.
<mgrwt>
<rscale>  2 0.40155675E+03</rscale>
<asrwt>0</asrwt>
<pdfrwt beam="1">  1       21 0.32199451E-01 0.40155675E+03</pdfrwt>
<pdfrwt beam="2">  1       21 0.17751448E+00 0.40155675E+03</pdfrwt>
<totfact> 0.15179210E+03</totfact>
</mgrwt>
</event>
<event>
 4    1  0.4760244E-002  0.4575250E+03  0.7818608E-02  0.1025501E+00
         21   -1    0    0  503  502  0.00000000000E+00  0.00000000000E+00  0.24313915808E+03  0.24313915808E+03  0.00000000000E+00 0.  1.
         21   -1    0    0  501  503 -0.00000000000E+00 -0.00000000000E+00 -0.10990573662E+04  0.10990573662E+04  0.00000000000E+00 0.  1.
    9000007    1    1    2  501    0  0.11252016648E+03 -0.19148974622E+03 -0.74032826643E+03  0.87029595705E+03  0.40000000000E+03 0.  1.
   -9000007    1    1    2    0  502 -0.11252016648E+03  0.19148974622E+03 -0.11558994173E+03  0.47190056728E+03  0.40000000000E+03 0.  1.
<mgrwt>
<rscale>  2 0.45752498E+03</rscale>
<asrwt>0</asrwt>
<pdfrwt beam="1">  1       21 0.37406024E-01 0.45752498E+03</pdfrwt>
<pdfrwt beam="2">  1       21 0.16908575E+00 0.45752498E+03</pdfrwt>
<totfact> 0.12573542E+03</totfact>
</mgrwt>
</event>
<event>
 4    1  0.4760244E-002  0.4442870E+03  0.7818608E-02  0.1029440E+00
         21   -1    0    0  501  502  0.00000000000E+00  0.00000000000E+00  0.25163508814E+04  0.25163508814E+04  0.00000000000E+00 0.  1.
         21   -1    0    0  502  503 -0.00000000000E+00 -0.00000000000E+00 -0.10697575490E+03  0.10697575490E+03  0.00000000000E+00 0.  1.
    9000007    1    1    2  501    0 -0.10210351133E+03 -0.16421277631E+03  0.18820934607E+04  0.19338218009E+04  0.40000000000E+03 0.  1.
   -9000007    1    1    2    0  503  0.10210351133E+03  0.16421277631E+03  0.52728166583E+03  0.68950483541E+03  0.40000000000E+03 0.  1.
<mgrwt>
<rscale>  2 0.44428703E+03</rscale>
<asrwt>0</asrwt>
<pdfrwt beam="1">  1       21 0.38713086E+00 0.44428703E+03</pdfrwt>
<pdfrwt beam="2">  1       21 0.16457810E-01 0.44428703E+03</pdfrwt>
<totfact> 0.26734130E+02</totfact>
</mgrwt>
</event>
<event>
 4    1  0.4760244E-002  0.5195318E+03  0.7818608E-02  0.1008803E+00
         21   -1    0    0  501  502  0.00000000000E+00  0.00000000000E+00  0.55075540959E+03  0.55075540959E+03  0.00000000000E+00 0.  1.
         21   -1    0    0  502  503 -0.00000000000E+00 -0.00000000000E+00 -0.11224309066E+04  0.11224309066E+04  0.00000000000E+00 0. -1.
    9000007    1    1    2  501    0  0.33047575606E+03 -0.26440201103E+02  0.34209644829E+03  0.62204765855E+03  0.40000000000E+03 0.  1.
   -9000007    1    1    2    0  503 -0.33047575606E+03  0.26440201103E+02 -0.91377194532E+03  0.10511386577E+04  0.40000000000E+03 0. -1.
<mgrwt>
<rscale>  2 0.51953182E+03</rscale>
<asrwt>0</asrwt>
<pdfrwt beam="1">  1       21 0.84731601E-01 0.51953182E+03</pdfrwt>
<pdfrwt beam="2">  1       21 0.17268168E+00 0.51953182E+03</pdfrwt>
<totfact> 0.19398135E+02</totfact>
</mgrwt>
</event>
<event>
 4    1  0.4760244E-002  0.4858490E+03  0.7818608E-02  0.1017540E+00
         21   -1    0    0  501  502  0.00000000000E+00  0.00000000000E+00  0.76889494889E+03  0.76889494889E+03  0.00000000000E+00 0.  1.
         21   -1    0    0  502  503 -0.00000000000E+00 -0.00000000000E+00 -0.64018022089E+03  0.64018022089E+03  0.00000000000E+00 0. -1.
    9000007    1    1    2  501    0 -0.26116767979E+03 -0.88547649142E+02  0.57262671579E+03  0.75096644317E+03  0.40000000000E+03 0.  1.
   -9000007    1    1    2    0  503  0.26116767979E+03  0.88547649142E+02 -0.44391198779E+03  0.65810872661E+03  0.40000000000E+03 0. -1.
<mgrwt>
<rscale>  2 0.48584899E+03</rscale>
<asrwt>0</asrwt>
<pdfrwt beam="1">  1       21 0.11829153E+00 0.48584899E+03</pdfrwt>
<pdfrwt beam="2">  1       21 0.98489265E-01 0.48584899E+03</pdfrwt>
<totfact> 0.38093834E+02</totfact>
</mgrwt>
</event>
<event>
 4    1  0.4760244E-002  0.7283072E+03  0.7818608E-02  0.9670011E-01
         21   -1    0    0  501  502  0.00000000000E+00  0.00000000000E+00  0.17732061077E+04  0.17732061077E+04  0.00000000000E+00 0. -1.
         21   -1    0    0  502  503 -0.00000000000E+00 -0.00000000000E+00 -0.65548398761E+03  0.65548398761E+03  0.00000000000E+00 0.  1.
    9000007    1    1    2  501    0 -0.22587161217E+03  0.56516669832E+03  0.14542210178E+04  0.16264040552E+04  0.40000000000E+03 0. -1.
   -9000007    1    1    2    0  503  0.22587161217E+03 -0.56516669832E+03 -0.33649889769E+03  0.80228604015E+03  0.40000000000E+03 0.  1.
<mgrwt>
<rscale>  2 0.72830720E+03</rscale>
<asrwt>0</asrwt>
<pdfrwt beam="1">  1       21 0.27280094E+00 0.72830720E+03</pdfrwt>
<pdfrwt beam="2">  1       21 0.10084369E+00 0.72830720E+03</pdfrwt>
<totfact> 0.25854684E+01</totfact>
</mgrwt>
</event>
<event>
 4    1  0.4760244E-002  0.5210180E+03  0.7818608E-02  0.1008434E+00
         21   -1    0    0  501  502  0.00000000000E+00  0.00000000000E+00  0.29340367610E+03  0.29340367610E+03  0.00000000000E+00 0.  1.
         21   -1    0    0  502  503 -0.00000000000E+00 -0.00000000000E+00 -0.93605640199E+03  0.93605640199E+03  0.00000000000E+00 0.  1.
    9000007    1    1    2  501    0  0.26670977740E+03  0.20081242137E+03 -0.38750159358E+03  0.64932058258E+03  0.40000000000E+03 0.  1.
   -9000007    1    1    2    0  503 -0.26670977740E+03 -0.20081242137E+03 -0.25515113230E+03  0.58013949551E+03  0.40000000000E+03 0.  1.
<mgrwt>
<rscale>  2 0.52101798E+03</rscale>
<asrwt>0</asrwt>
<pdfrwt beam="1">  1       21 0.45139026E-01 0.52101798E+03</pdfrwt>
<pdfrwt beam="2">  1       21 0.14400868E+00 0.52101798E+03</pdfrwt>
<totfact> 0.12960535E+03</totfact>
</mgrwt>
</event>
<event>
 4    1  0.4760244E-002  0.8618082E+03  0.7818608E-02  0.9474624E-01
         21   -1    0    0  501  502  0.00000000000E+00  0.00000000000E+00  0.11526520373E+04  0.11526520373E+04  0.00000000000E+00 0.  1.
         21   -1    0    0  502  503 -0.00000000000E+00 -0.00000000000E+00 -0.68935913813E+03  0.68935913813E+03  0.00000000000E+00 0.  1.
    9000007    1    1    2  501    0 -0.27910282962E+02  0.76284629440E+03  0.46697845869E+03  0.98019504878E+03  0.40000000000E+03 0.  1.
   -9000007    1    1    2    0  503  0.27910282962E+02 -0.76284629440E+03 -0.36855595309E+01  0.86181612664E+03  0.40000000000E+03 0.  1.
<mgrwt>
<rscale>  2 0.86180825E+03</rscale>
<asrwt>0</asrwt>
<pdfrwt beam="1">  1       21 0.17733108E+00 0.86180825E+03</pdfrwt>
<pdfrwt beam="2">  1       21 0.10605525E+00 0.86180825E+03</pdfrwt>
<totfact> 0.92438991E+01</totfact>
</mgrwt>
</event>
<event>
 4    1  0.4760244E-002  0.4572896E+03  0.7818608E-02  0.1025570E+00
         21   -1    0    0  503  502  0.00000000000E+00  0.00000000000E+00  0.59687182403E+03  0.59687182403E+03  0.00000000000E+00 0. -1.
         21   -1    0    0  501  503 -0.00000000000E+00 -0.00000000000E+00 -0.35703231300E+03  0.35703231300E+03  0.00000000000E+00 0. -1.
    9000007    1    1    2  501    0  0.75448822131E+02 -0.20837773016E+03  0.54667208591E+02  0.46054566210E+03  0.40000000000E+03 0. -1.
   -9000007    1    1    2    0  502 -0.75448822131E+02  0.20837773016E+03  0.18517230244E+03  0.49335847492E+03  0.40000000000E+03 0. -1.
<mgrwt>
<rscale>  2 0.45728963E+03</rscale>
<asrwt>0</asrwt>
<pdfrwt beam="1">  1       21 0.91826434E-01 0.45728963E+03</pdfrwt>
<pdfrwt beam="2">  1       21 0.54928048E-01 0.45728963E+03</pdfrwt>
<totfact> 0.27166992E+03</totfact>
</mgrwt>
</event>
<event>
 4    1  0.4760244E-002  0.4631140E+03  0.7818608E-02  0.1023882E+00
         21   -1    0    0  501  502  0.00000000000E+00  0.00000000000E+00  0.84127133704E+03  0.84127133704E+03  0.00000000000E+00 0. -1.
         21   -1    0    0  502  503 -0.00000000000E+00 -0.00000000000E+00 -0.25494371838E+03  0.25494371838E+03  0.00000000000E+00 0. -1.
    9000007    1    1    2  501    0 -0.19703784826E+03  0.12510252126E+03  0.29137346028E+03  0.54714993176E+03  0.40000000000E+03 0. -1.
   -9000007    1    1    2    0  503  0.19703784826E+03 -0.12510252126E+03  0.29495415837E+03  0.54906512365E+03  0.40000000000E+03 0. -1.
<mgrwt>
<rscale>  2 0.46311398E+03</rscale>
<asrwt>0</asrwt>
<pdfrwt beam="1">  1       21 0.12942636E+00 0.46311398E+03</pdfrwt>
<pdfrwt beam="2">  1       21 0.39222111E-01 0.46311398E+03</pdfrwt>
<totfact> 0.23501720E+03</totfact>
</mgrwt>
</event>
<event>
 4    1  0.4760244E-002  0.5645230E+03  0.7818608E-02  0.9981872E-01
         21   -1    0    0  501  502  0.00000000000E+00  0.00000000000E+00  0.21913510603E+03  0.21913510603E+03  0.00000000000E+00 0. -1.
         21   -1    0    0  502  503 -0.00000000000E+00 -0.00000000000E+00 -0.14673837010E+04  0.14673837010E+04  0.00000000000E+00 0.  1.
    9000007    1    1    2  501    0 -0.25657203762E+03  0.30472443933E+03 -0.54447071017E+03  0.78430513746E+03  0.40000000000E+03 0. -1.
   -9000007    1    1    2    0  503  0.25657203762E+03 -0.30472443933E+03 -0.70377788480E+03  0.90221366956E+03  0.40000000000E+03 0.  1.
<mgrwt>
<rscale>  2 0.56452298E+03</rscale>
<asrwt>0</asrwt>
<pdfrwt beam="1">  1       21 0.33713094E-01 0.56452298E+03</pdfrwt>
<pdfrwt beam="2">  1       21 0.22575133E+00 0.56452298E+03</pdfrwt>
<totfact> 0.61391803E+02</totfact>
</mgrwt>
</event>
<event>
 4    1  0.4760244E-002  0.4079546E+03  0.7818608E-02  0.1041060E+00
         21   -1    0    0  503  502  0.00000000000E+00  0.00000000000E+00  0.13979341591E+03  0.13979341591E+03  0.00000000000E+00 0.  1.
         21   -1    0    0  501  503 -0.00000000000E+00 -0.00000000000E+00 -0.11905800859E+04  0.11905800859E+04  0.00000000000E+00 0.  1.
    9000007    1    1    2  501    0  0.80160955458E+02 -0.10701296896E+01 -0.53010013858E+03  0.66890438844E+03  0.40000000000E+03 0.  1.
   -9000007    1    1    2    0  502 -0.80160955458E+02  0.10701296896E+01 -0.52068653142E+03  0.66146911338E+03  0.40000000000E+03 0.  1.
<mgrwt>
<rscale>  2 0.40795456E+03</rscale>
<asrwt>0</asrwt>
<pdfrwt beam="1">  1       21 0.21506679E-01 0.40795456E+03</pdfrwt>
<pdfrwt beam="2">  1       21 0.18316617E+00 0.40795456E+03</pdfrwt>
<totfact> 0.30391015E+03</totfact>
</mgrwt>
</event>
<event>
 4    1  0.4760244E-002  0.4064972E+03  0.7818608E-02  0.1041553E+00
         21   -1    0    0  503  502  0.00000000000E+00  0.00000000000E+00  0.33737986518E+03  0.33737986518E+03  0.00000000000E+00 0. -1.
         21   -1    0    0  501  503 -0.00000000000E+00 -0.00000000000E+00 -0.98825979480E+03  0.98825979480E+03  0.00000000000E+00 0. -1.
    9000007    1    1    2  501    0  0.57918120817E+02  0.43422288451E+02 -0.79618545779E+03  0.89395262013E+03  0.40000000000E+03 0. -1.
   -9000007    1    1    2    0  502 -0.57918120817E+02 -0.43422288451E+02  0.14530552817E+03  0.43168703984E+03  0.40000000000E+03 0. -1.
<mgrwt>
<rscale>  2 0.40649724E+03</rscale>
<asrwt>0</asrwt>
<pdfrwt beam="1">  1       21 0.51904596E-01 0.40649724E+03</pdfrwt>
<pdfrwt beam="2">  1       21 0.15203997E+00 0.40649724E+03</pdfrwt>
<totfact> 0.87283783E+02</totfact>
</mgrwt>
</event>
<event>
 4    1  0.4760244E-002  0.4436947E+03  0.7818608E-02  0.1029619E+00
         21   -1    0    0  503  502  0.00000000000E+00  0.00000000000E+00  0.48175886984E+03  0.48175886984E+03  0.00000000000E+00 0.  1.
         21   -1    0    0  501  503 -0.00000000000E+00 -0.00000000000E+00 -0.45328508847E+03  0.45328508847E+03  0.00000000000E+00 0. -1.
    9000007    1    1    2  501    0 -0.54578594185E+02  0.18408185788E+03  0.16096494807E+03  0.47199011415E+03  0.40000000000E+03 0.  1.
   -9000007    1    1    2    0  502  0.54578594185E+02 -0.18408185788E+03 -0.13249116670E+03  0.46305384417E+03  0.40000000000E+03 0. -1.
<mgrwt>
<rscale>  2 0.44369466E+03</rscale>
<asrwt>0</asrwt>
<pdfrwt beam="1">  1       21 0.74116749E-01 0.44369466E+03</pdfrwt>
<pdfrwt beam="2">  1       21 0.69736167E-01 0.44369466E+03</pdfrwt>
<totfact> 0.26555081E+03</totfact>
</mgrwt>
</event>
<event>
 4    1  0.4760244E-002  0.5703819E+03  0.7818608E-02  0.9968834E-01
         21   -1    0    0  503  502  0.00000000000E+00  0.00000000000E+00  0.10135828067E+04  0.10135828067E+04  0.00000000000E+00 0.  1.
         21   -1    0    0  501  503 -0.00000000000E+00 -0.00000000000E+00 -0.83990616992E+03  0.83990616992E+03  0.00000000000E+00 0.  1.
    9000007    1    1    2  501    0  0.41994717792E+02  0.40444022923E+03 -0.64161077995E+03  0.85848695290E+03  0.40000000000E+03 0.  1.
   -9000007    1    1    2    0  502 -0.41994717792E+02 -0.40444022923E+03  0.81528741675E+03  0.99500202375E+03  0.40000000000E+03 0.  1.
<mgrwt>
<rscale>  2 0.57038185E+03</rscale>
<asrwt>0</asrwt>
<pdfrwt beam="1">  1       21 0.15593582E+00 0.57038185E+03</pdfrwt>
<pdfrwt beam="2">  1       21 0.12921633E+00 0.57038185E+03</pdfrwt>
<totfact> 0.89276782E+01</totfact>
</mgrwt>
</event>
<event>
 4    1  0.4760244E-002  0.5850163E+03  0.7818608E-02  0.9936990E-01
         21   -1    0    0  501  502  0.00000000000E+00  0.00000000000E+00  0.29988221779E+03  0.29988221779E+03  0.00000000000E+00 0. -1.
         21   -1    0    0  502  503 -0.00000000000E+00 -0.00000000000E+00 -0.13791613583E+04  0.13791613583E+04  0.00000000000E+00 0.  1.
    9000007    1    1    2  501    0  0.14869095198E+03  0.40016878157E+03 -0.19096405408E+03  0.61539525746E+03  0.40000000000E+03 0. -1.
   -9000007    1    1    2    0  503 -0.14869095198E+03 -0.40016878157E+03 -0.88831508643E+03  0.10636483186E+04  0.40000000000E+03 0.  1.
<mgrwt>
<rscale>  2 0.58501628E+03</rscale>
<asrwt>0</asrwt>
<pdfrwt beam="1">  1       21 0.46135727E-01 0.58501628E+03</pdfrwt>
<pdfrwt beam="2">  1       21 0.21217867E+00 0.58501628E+03</pdfrwt>
<totfact> 0.38983390E+02</totfact>
</mgrwt>
</event>
<event>
 4    1  0.4760244E-002  0.5046846E+03  0.7818608E-02  0.1012563E+00
         21   -1    0    0  501  502  0.00000000000E+00  0.00000000000E+00  0.23283537861E+03  0.23283537861E+03  0.00000000000E+00 0. -1.
         21   -1    0    0  502  503 -0.00000000000E+00 -0.00000000000E+00 -0.12634290625E+04  0.12634290625E+04  0.00000000000E+00 0.  1.
    9000007    1    1    2  501    0 -0.29655299982E+03 -0.82236695842E+02 -0.24127741713E+03  0.55939373241E+03  0.40000000000E+03 0. -1.
   -9000007    1    1    2    0  503  0.29655299982E+03  0.82236695842E+02 -0.78931626678E+03  0.93687070871E+03  0.40000000000E+03 0.  1.
<mgrwt>
<rscale>  2 0.50468461E+03</rscale>
<asrwt>0</asrwt>
<pdfrwt beam="1">  1       21 0.35820828E-01 0.50468461E+03</pdfrwt>
<pdfrwt beam="2">  1       21 0.19437370E+00 0.50468461E+03</pdfrwt>
<totfact> 0.89404230E+02</totfact>
</mgrwt>
</event>
<event>
 4    1  0.4760244E-002  0.4242068E+03  0.7818608E-02  0.1035706E+00
         21   -1    0    0  501  502  0.00000000000E+00  0.00000000000E+00  0.63035776281E+03  0.63035776281E+03  0.00000000000E+00 0. -1.
         21   -1    0    0  502  503 -0.00000000000E+00 -0.00000000000E+00 -0.29045476140E+03  0.29045476140E+03  0.00000000000E+00 0. -1.
    9000007    1    1    2  501    0  0.35016920434E+02 -0.13684008604E+03  0.23023596999E+03  0.48265929572E+03  0.40000000000E+03 0.  1.
   -9000007    1    1    2    0  503 -0.35016920434E+02  0.13684008604E+03  0.10966703142E+03  0.43815322850E+03  0.40000000000E+03 0.  1.
<mgrwt>
<rscale>  2 0.42420678E+03</rscale>
<asrwt>0</asrwt>
<pdfrwt beam="1">  1       21 0.96978117E-01 0.42420678E+03</pdfrwt>
<pdfrwt beam="2">  1       21 0.44685348E-01 0.42420678E+03</pdfrwt>
<totfact> 0.37399578E+03</totfact>
</mgrwt>
</event>
<event>
 4    1  0.4760244E-002  0.4150289E+03  0.7818608E-02  0.1038696E+00
         21   -1    0    0  503  502  0.00000000000E+00  0.00000000000E+00  0.12445331334E+04  0.12445331334E+04  0.00000000000E+00 0.  1.
         21   -1    0    0  501  503 -0.00000000000E+00 -0.00000000000E+00 -0.29866835746E+03  0.29866835746E+03  0.00000000000E+00 0.  1.
    9000007    1    1    2  501    0  0.98212224369E+02  0.51022953591E+02 -0.92285413159E+02  0.42516535641E+03  0.40000000000E+03 0.  1.
   -9000007    1    1    2    0  502 -0.98212224369E+02 -0.51022953591E+02  0.10381501891E+04  0.11180361344E+04  0.40000000000E+03 0.  1.
<mgrwt>
<rscale>  2 0.41502889E+03</rscale>
<asrwt>0</asrwt>
<pdfrwt beam="1">  1       21 0.19146663E+00 0.41502889E+03</pdfrwt>
<pdfrwt beam="2">  1       21 0.45948979E-01 0.41502889E+03</pdfrwt>
<totfact> 0.58307907E+02</totfact>
</mgrwt>
</event>
<event>
 4    1  0.4760244E-002  0.4132855E+03  0.7818608E-02  0.1039274E+00
         21   -1    0    0  503  502  0.00000000000E+00  0.00000000000E+00  0.10236265059E+03  0.10236265059E+03  0.00000000000E+00 0. -1.
         21   -1    0    0  501  503 -0.00000000000E+00 -0.00000000000E+00 -0.16688044642E+04  0.16688044642E+04  0.00000000000E+00 0. -1.
    9000007    1    1    2  501    0  0.43214115687E+02  0.94538151494E+02 -0.77404826099E+03  0.87747115749E+03  0.40000000000E+03 0. -1.
   -9000007    1    1    2    0  502 -0.43214115687E+02 -0.94538151494E+02 -0.79239355266E+03  0.89369595735E+03  0.40000000000E+03 0. -1.
<mgrwt>
<rscale>  2 0.41328552E+03</rscale>
<asrwt>0</asrwt>
<pdfrwt beam="1">  1       21 0.15748101E-01 0.41328552E+03</pdfrwt>
<pdfrwt beam="2">  1       21 0.25673914E+00 0.41328552E+03</pdfrwt>
<totfact> 0.18386781E+03</totfact>
</mgrwt>
</event>
<event>
 4    1  0.4760244E-002  0.4803573E+03  0.7818608E-02  0.1019037E+00
         21   -1    0    0  503  502  0.00000000000E+00  0.00000000000E+00  0.10796374656E+04  0.10796374656E+04  0.00000000000E+00 0. -1.
         21   -1    0    0  501  503 -0.00000000000E+00 -0.00000000000E+00 -0.29369392259E+03  0.29369392259E+03  0.00000000000E+00 0.  1.
    9000007    1    1    2  501    0 -0.21295011450E+03 -0.15935935293E+03  0.34657228420E+02  0.48160593654E+03  0.40000000000E+03 0.  1.
   -9000007    1    1    2    0  502  0.21295011450E+03  0.15935935293E+03  0.75128631458E+03  0.89172545165E+03  0.40000000000E+03 0. -1.
<mgrwt>
<rscale>  2 0.48035732E+03</rscale>
<asrwt>0</asrwt>
<pdfrwt beam="1">  1       21 0.16609807E+00 0.48035732E+03</pdfrwt>
<pdfrwt beam="2">  1       21 0.45183681E-01 0.48035732E+03</pdfrwt>
<totfact> 0.88596582E+02</totfact>
</mgrwt>
</event>
<event>
 4    1  0.4760244E-002  0.4649100E+03  0.7818608E-02  0.1023367E+00
         21   -1    0    0  503  502  0.00000000000E+00  0.00000000000E+00  0.14633232415E+04  0.14633232415E+04  0.00000000000E+00 0. -1.
         21   -1    0    0  501  503 -0.00000000000E+00 -0.00000000000E+00 -0.14881589948E+03  0.14881589948E+03  0.00000000000E+00 0. -1.
    9000007    1    1    2  501    0  0.16998431212E+03  0.16506544491E+03  0.58763316519E+03  0.74930234505E+03  0.40000000000E+03 0. -1.
   -9000007    1    1    2    0  502 -0.16998431212E+03 -0.16506544491E+03  0.72687417685E+03  0.86283679595E+03  0.40000000000E+03 0. -1.
<mgrwt>
<rscale>  2 0.46490996E+03</rscale>
<asrwt>0</asrwt>
<pdfrwt beam="1">  1       21 0.22512664E+00 0.46490996E+03</pdfrwt>
<pdfrwt beam="2">  1       21 0.22894755E-01 0.46490996E+03</pdfrwt>
<totfact> 0.13870988E+03</totfact>
</mgrwt>
</event>
<event>
 4    1  0.4760244E-002  0.6488045E+03  0.7818608E-02  0.9809025E-01
         21   -1    0    0  503  502  0.00000000000E+00  0.00000000000E+00  0.27886066220E+03  0.27886066220E+03  0.00000000000E+00 0. -1.
         21   -1    0    0  501  503 -0.00000000000E+00 -0.00000000000E+00 -0.19233414481E+04  0.19233414481E+04  0.00000000000E+00 0.  1.
    9000007    1    1    2  501    0  0.38907653940E+03  0.33100864497E+03 -0.13329836043E+04  0.14824953848E+04  0.40000000000E+03 0.  1.
   -9000007    1    1    2    0  502 -0.38907653940E+03 -0.33100864497E+03 -0.31149718153E+03  0.71970672545E+03  0.40000000000E+03 0. -1.
<mgrwt>
<rscale>  2 0.64880450E+03</rscale>
<asrwt>0</asrwt>
<pdfrwt beam="1">  1       21 0.42901643E-01 0.64880450E+03</pdfrwt>
<pdfrwt beam="2">  1       21 0.29589867E+00 0.64880450E+03</pdfrwt>
<totfact> 0.13275142E+02</totfact>
</mgrwt>
</event>
<event>
 4    1  0.4760244E-002  0.4492087E+03  0.7818608E-02  0.1027958E+00
         21   -1    0    0  501  502  0.00000000000E+00  0.00000000000E+00  0.33676828754E+03  0.33676828754E+03  0.00000000000E+00 0.  1.
         21   -1    0    0  502  503 -0.00000000000E+00 -0.00000000000E+00 -0.78587029867E+03  0.78587029867E+03  0.00000000000E+00 0.  1.
    9000007    1    1    2  501    0 -0.11199181013E+03 -0.17101547895E+03  0.49028049459E+02  0.45187632070E+03  0.40000000000E+03 0.  1.
   -9000007    1    1    2    0  503  0.11199181013E+03  0.17101547895E+03 -0.49813006059E+03  0.67076226551E+03  0.40000000000E+03 0.  1.
<mgrwt>
<rscale>  2 0.44920870E+03</rscale>
<asrwt>0</asrwt>
<pdfrwt beam="1">  1       21 0.51810506E-01 0.44920870E+03</pdfrwt>
<pdfrwt beam="2">  1       21 0.12090312E+00 0.44920870E+03</pdfrwt>
<totfact> 0.15707397E+03</totfact>
</mgrwt>
</event>
<event>
 4    1  0.4760244E-002  0.5011643E+03  0.7818608E-02  0.1013475E+00
         21   -1    0    0  501  502  0.00000000000E+00  0.00000000000E+00  0.90471245934E+03  0.90471245934E+03  0.00000000000E+00 0. -1.
         21   -1    0    0  502  503 -0.00000000000E+00 -0.00000000000E+00 -0.37374180895E+03  0.37374180895E+03  0.00000000000E+00 0.  1.
    9000007    1    1    2  501    0 -0.23894258499E+03 -0.18458616962E+03  0.58966215873E+03  0.77386502336E+03  0.40000000000E+03 0.  1.
   -9000007    1    1    2    0  503  0.23894258499E+03  0.18458616962E+03 -0.58691508343E+02  0.50458924492E+03  0.40000000000E+03 0.  1.
<mgrwt>
<rscale>  2 0.50116426E+03</rscale>
<asrwt>0</asrwt>
<pdfrwt beam="1">  1       21 0.13918653E+00 0.50116426E+03</pdfrwt>
<pdfrwt beam="2">  1       21 0.57498740E-01 0.50116426E+03</pdfrwt>
<totfact> 0.85218421E+02</totfact>
</mgrwt>
</event>
<event>
 4    1  0.4760244E-002  0.5624152E+03  0.7818608E-02  0.9986605E-01
         21   -1    0    0  503  502  0.00000000000E+00  0.00000000000E+00  0.75907937906E+02  0.75907937906E+02  0.00000000000E+00 0.  1.
         21   -1    0    0  501  503 -0.00000000000E+00 -0.00000000000E+00 -0.45228681282E+04  0.45228681282E+04  0.00000000000E+00 0. -1.
    9000007    1    1    2  501    0  0.39325558257E+03  0.40754562825E+02 -0.28684354762E+04  0.29230519955E+04  0.40000000000E+03 0. -1.
   -9000007    1    1    2    0  502 -0.39325558257E+03 -0.40754562825E+02 -0.15785247141E+04  0.16757240706E+04  0.40000000000E+03 0. -1.
<mgrwt>
<rscale>  2 0.56241523E+03</rscale>
<asrwt>0</asrwt>
<pdfrwt beam="1">  1       21 0.11678146E-01 0.56241523E+03</pdfrwt>
<pdfrwt beam="2">  1       21 0.69582578E+00 0.56241523E+03</pdfrwt>
<totfact> 0.22525253E+00</totfact>
</mgrwt>
</event>
<event>
 4    1  0.4760244E-002  0.4253244E+03  0.7818608E-02  0.1035347E+00
         21   -1    0    0  501  502  0.00000000000E+00  0.00000000000E+00  0.10348653187E+03  0.10348653187E+03  0.00000000000E+00 0.  1.
         21   -1    0    0  502  503 -0.00000000000E+00 -0.00000000000E+00 -0.17891267357E+04  0.17891267357E+04  0.00000000000E+00 0.  1.
    9000007    1    1    2  501    0 -0.21292153155E+02 -0.14299463519E+03 -0.98618687993E+03  0.10739950575E+04  0.40000000000E+03 0. -1.
   -9000007    1    1    2    0  503  0.21292153155E+02  0.14299463519E+03 -0.69945332389E+03  0.81861821002E+03  0.40000000000E+03 0. -1.
<mgrwt>
<rscale>  2 0.42532437E+03</rscale>
<asrwt>0</asrwt>
<pdfrwt beam="1">  1       21 0.15921005E-01 0.42532437E+03</pdfrwt>
<pdfrwt beam="2">  1       21 0.27525027E+00 0.42532437E+03</pdfrwt>
<totfact> 0.13835779E+03</totfact>
</mgrwt>
</event>
<event>
 4    1  0.4760244E-002  0.6435193E+03  0.7818608E-02  0.9819016E-01
         21   -1    0    0  503  502  0.00000000000E+00  0.00000000000E+00  0.64932524689E+03  0.64932524689E+03  0.00000000000E+00 0.  1.
         21   -1    0    0  501  503 -0.00000000000E+00 -0.00000000000E+00 -0.65187039903E+03  0.65187039903E+03  0.00000000000E+00 0. -1.
    9000007    1    1    2  501    0 -0.76910004525E+02  0.49819875304E+03 -0.96974177428E+02  0.65078501628E+03  0.40000000000E+03 0. -1.
   -9000007    1    1    2    0  502  0.76910004525E+02 -0.49819875304E+03  0.94429025290E+02  0.65041062964E+03  0.40000000000E+03 0. -1.
<mgrwt>
<rscale>  2 0.64351934E+03</rscale>
<asrwt>0</asrwt>
<pdfrwt beam="1">  1       21 0.99896192E-01 0.64351934E+03</pdfrwt>
<pdfrwt beam="2">  1       21 0.10028775E+00 0.64351934E+03</pdfrwt>
<totfact> 0.52463716E+02</totfact>
</mgrwt>
</event>
<event>
 4    1  0.4760244E-002  0.4533917E+03  0.7818608E-02  0.1026715E+00
         21   -1    0    0  501  502  0.00000000000E+00  0.00000000000E+00  0.25660072890E+03  0.25660072890E+03  0.00000000000E+00 0. -1.
         21   -1    0    0  502  503 -0.00000000000E+00 -0.00000000000E+00 -0.11554617089E+04  0.11554617089E+04  0.00000000000E+00 0. -1.
    9000007    1    1    2  501    0 -0.15709781965E+03 -0.14451402023E+03 -0.58439549752E+02  0.45714243727E+03  0.40000000000E+03 0. -1.
   -9000007    1    1    2    0  503  0.15709781965E+03  0.14451402023E+03 -0.84042143020E+03  0.95492000049E+03  0.40000000000E+03 0. -1.
<mgrwt>
<rscale>  2 0.45339169E+03</rscale>
<asrwt>0</asrwt>
<pdfrwt beam="1">  1       21 0.39477035E-01 0.45339169E+03</pdfrwt>
<pdfrwt beam="2">  1       21 0.17776334E+00 0.45339169E+03</pdfrwt>
<totfact> 0.97681256E+02</totfact>
</mgrwt>
</event>
<event>
 4    1  0.4760244E-002  0.5587722E+03  0.7818608E-02  0.9994837E-01
         21   -1    0    0  503  502  0.00000000000E+00  0.00000000000E+00  0.11834720680E+04  0.11834720680E+04  0.00000000000E+00 0. -1.
         21   -1    0    0  501  503 -0.00000000000E+00 -0.00000000000E+00 -0.39951417634E+03  0.39951417634E+03  0.00000000000E+00 0. -1.
    9000007    1    1    2  501    0  0.23460758998E+03  0.31174613033E+03 -0.69293918812E+02  0.56305241162E+03  0.40000000000E+03 0. -1.
   -9000007    1    1    2    0  502 -0.23460758998E+03 -0.31174613033E+03  0.85325181052E+03  0.10199338328E+04  0.40000000000E+03 0. -1.
<mgrwt>
<rscale>  2 0.55877220E+03</rscale>
<asrwt>0</asrwt>
<pdfrwt beam="1">  1       21 0.18207263E+00 0.55877220E+03</pdfrwt>
<pdfrwt beam="2">  1       21 0.61463720E-01 0.55877220E+03</pdfrwt>
<totfact> 0.33936223E+02</totfact>
</mgrwt>
</event>
<event>
 4    1  0.4760244E-002  0.5283277E+03  0.7818608E-02  0.1006638E+00
         21   -1    0    0  503  502  0.00000000000E+00  0.00000000000E+00  0.28096665580E+03  0.28096665580E+03  0.00000000000E+00 0. -1.
         21   -1    0    0  501  503 -0.00000000000E+00 -0.00000000000E+00 -0.10402217183E+04  0.10402217183E+04  0.00000000000E+00 0. -1.
    9000007    1    1    2  501    0 -0.31904713851E+03 -0.13167812026E+03 -0.51968276203E+03  0.74108054697E+03  0.40000000000E+03 0. -1.
   -9000007    1    1    2    0  502  0.31904713851E+03  0.13167812026E+03 -0.23957230047E+03  0.58010782713E+03  0.40000000000E+03 0. -1.
<mgrwt>
<rscale>  2 0.52832774E+03</rscale>
<asrwt>0</asrwt>
<pdfrwt beam="1">  1       21 0.43225640E-01 0.52832774E+03</pdfrwt>
<pdfrwt beam="2">  1       21 0.16003411E+00 0.52832774E+03</pdfrwt>
<totfact> 0.10596613E+03</totfact>
</mgrwt>
</event>
<event>
 4    1  0.4760244E-002  0.5663460E+03  0.7818608E-02  0.9977797E-01
         21   -1    0    0  501  502  0.00000000000E+00  0.00000000000E+00  0.12336800668E+04  0.12336800668E+04  0.00000000000E+00 0. -1.
         21   -1    0    0  502  503 -0.00000000000E+00 -0.00000000000E+00 -0.26034537763E+03  0.26034537763E+03  0.00000000000E+00 0.  1.
    9000007    1    1    2  501    0 -0.30305052096E+03  0.26250370439E+03  0.51416155364E+03  0.76492477820E+03  0.40000000000E+03 0. -1.
   -9000007    1    1    2    0  503  0.30305052096E+03 -0.26250370439E+03  0.45917313548E+03  0.72910066618E+03  0.40000000000E+03 0.  1.
<mgrwt>
<rscale>  2 0.56634602E+03</rscale>
<asrwt>0</asrwt>
<pdfrwt beam="1">  1       21 0.18979693E+00 0.56634602E+03</pdfrwt>
<pdfrwt beam="2">  1       21 0.40053136E-01 0.56634602E+03</pdfrwt>
<totfact> 0.74637897E+02</totfact>
</mgrwt>
</event>
<event>
 4    1  0.4760244E-002  0.4911307E+03  0.7818608E-02  0.1016120E+00
         21   -1    0    0  503  502  0.00000000000E+00  0.00000000000E+00  0.12932064543E+04  0.12932064543E+04  0.00000000000E+00 0. -1.
         21   -1    0    0  501  503 -0.00000000000E+00 -0.00000000000E+00 -0.59332647677E+03  0.59332647677E+03  0.00000000000E+00 0. -1.
    9000007    1    1    2  501    0  0.28104539621E+03  0.47147406163E+02 -0.43111433920E+03  0.65350513855E+03  0.40000000000E+03 0. -1.
   -9000007    1    1    2    0  502 -0.28104539621E+03 -0.47147406163E+02  0.11309943168E+04  0.12330277926E+04  0.40000000000E+03 0. -1.
<mgrwt>
<rscale>  2 0.49113073E+03</rscale>
<asrwt>0</asrwt>
<pdfrwt beam="1">  1       21 0.19895484E+00 0.49113073E+03</pdfrwt>
<pdfrwt beam="2">  1       21 0.91280997E-01 0.49113073E+03</pdfrwt>
<totfact> 0.10818377E+02</totfact>
</mgrwt>
</event>
<event>
 4    1  0.4760244E-002  0.4437713E+03  0.7818608E-02  0.1029596E+00
         21   -1    0    0  503  502  0.00000000000E+00  0.00000000000E+00  0.43745397808E+03  0.43745397808E+03  0.00000000000E+00 0. -1.
         21   -1    0    0  501  503 -0.00000000000E+00 -0.00000000000E+00 -0.49648209527E+03  0.49648209527E+03  0.00000000000E+00 0. -1.
    9000007    1    1    2  501    0  0.25110365157E+02  0.19053191896E+03 -0.17211967769E+03  0.47598122445E+03  0.40000000000E+03 0. -1.
   -9000007    1    1    2    0  502 -0.25110365157E+02 -0.19053191896E+03  0.11309156049E+03  0.45795484890E+03  0.40000000000E+03 0. -1.
<mgrwt>
<rscale>  2 0.44377127E+03</rscale>
<asrwt>0</asrwt>
<pdfrwt beam="1">  1       21 0.67300612E-01 0.44377127E+03</pdfrwt>
<pdfrwt beam="2">  1       21 0.76381861E-01 0.44377127E+03</pdfrwt>
<totfact> 0.26848736E+03</totfact>
</mgrwt>
</event>
<event>
 4    1  0.4760244E-002  0.4385323E+03  0.7818608E-02  0.1031198E+00
         21   -1    0    0  503  502  0.00000000000E+00  0.00000000000E+00  0.26321242017E+03  0.26321242017E+03  0.00000000000E+00 0.  1.
         21   -1    0    0  501  503 -0.00000000000E+00 -0.00000000000E+00 -0.73069197946E+03  0.73069197946E+03  0.00000000000E+00 0.  1.
    9000007    1    1    2  501    0 -0.44304919069E+02 -0.17420587785E+03 -0.23835534680E+03  0.49912311615E+03  0.40000000000E+03 0.  1.
   -9000007    1    1    2    0  502  0.44304919069E+02  0.17420587785E+03 -0.22912421249E+03  0.49478128348E+03  0.40000000000E+03 0.  1.
<mgrwt>
<rscale>  2 0.43853234E+03</rscale>
<asrwt>0</asrwt>
<pdfrwt beam="1">  1       21 0.40494219E-01 0.43853234E+03</pdfrwt>
<pdfrwt beam="2">  1       21 0.11241415E+00 0.43853234E+03</pdfrwt>
<totfact> 0.31776473E+03</totfact>
</mgrwt>
</event>
<event>
 4    1  0.4760244E-002  0.4966821E+03  0.7818608E-02  0.1014649E+00
         21   -1    0    0  501  502  0.00000000000E+00  0.00000000000E+00  0.29947745180E+03  0.29947745180E+03  0.00000000000E+00 0.  1.
         21   -1    0    0  502  503 -0.00000000000E+00 -0.00000000000E+00 -0.85720733404E+03  0.85720733404E+03  0.00000000000E+00 0.  1.
    9000007    1    1    2  501    0  0.12511172468E+03  0.26653351843E+03 -0.16459814215E+03  0.52324526610E+03  0.40000000000E+03 0.  1.
   -9000007    1    1    2    0  503 -0.12511172468E+03 -0.26653351843E+03 -0.39313174009E+03  0.63343951974E+03  0.40000000000E+03 0.  1.
<mgrwt>
<rscale>  2 0.49668205E+03</rscale>
<asrwt>0</asrwt>
<pdfrwt beam="1">  1       21 0.46073456E-01 0.49668205E+03</pdfrwt>
<pdfrwt beam="2">  1       21 0.13187805E+00 0.49668205E+03</pdfrwt>
<totfact> 0.15813982E+03</totfact>
</mgrwt>
</event>
<event>
 4    1  0.4760244E-002  0.4346343E+03  0.7818608E-02  0.1032406E+00
         21   -1    0    0  501  502  0.00000000000E+00  0.00000000000E+00  0.51734029667E+03  0.51734029667E+03  0.00000000000E+00 0.  1.
         21   -1    0    0  502  503 -0.00000000000E+00 -0.00000000000E+00 -0.37951722071E+03  0.37951722071E+03  0.00000000000E+00 0.  1.
    9000007    1    1    2  501    0  0.32244815455E+02 -0.16693485647E+03  0.15616029970E+03  0.46183656593E+03  0.40000000000E+03 0.  1.
   -9000007    1    1    2    0  503 -0.32244815455E+02  0.16693485647E+03 -0.18337223751E+02  0.43502095145E+03  0.40000000000E+03 0.  1.
<mgrwt>
<rscale>  2 0.43463430E+03</rscale>
<asrwt>0</asrwt>
<pdfrwt beam="1">  1       21 0.79590815E-01 0.43463430E+03</pdfrwt>
<pdfrwt beam="2">  1       21 0.58387265E-01 0.43463430E+03</pdfrwt>
<totfact> 0.33534839E+03</totfact>
</mgrwt>
</event>
<event>
 4    1  0.4760244E-002  0.4868619E+03  0.7818608E-02  0.1017266E+00
         21   -1    0    0  501  502  0.00000000000E+00  0.00000000000E+00  0.17774174278E+04  0.17774174278E+04  0.00000000000E+00 0.  1.
         21   -1    0    0  502  503 -0.00000000000E+00 -0.00000000000E+00 -0.14034027668E+03  0.14034027668E+03  0.00000000000E+00 0.  1.
    9000007    1    1    2  501    0 -0.23825895691E+03 -0.14236286428E+03  0.60467261572E+03  0.77631403947E+03  0.40000000000E+03 0.  1.
   -9000007    1    1    2    0  503  0.23825895691E+03  0.14236286428E+03  0.10324045354E+04  0.11414436650E+04  0.40000000000E+03 0.  1.
<mgrwt>
<rscale>  2 0.48686191E+03</rscale>
<asrwt>0</asrwt>
<pdfrwt beam="1">  1       21 0.27344882E+00 0.48686191E+03</pdfrwt>
<pdfrwt beam="2">  1       21 0.21590813E-01 0.48686191E+03</pdfrwt>
<totfact> 0.77290863E+02</totfact>
</mgrwt>
</event>
<event>
 4    1  0.4760244E-002  0.6028538E+03  0.7818608E-02  0.9899503E-01
         21   -1    0    0  503  502  0.00000000000E+00  0.00000000000E+00  0.41260020927E+03  0.41260020927E+03  0.00000000000E+00 0.  1.
         21   -1    0    0  501  503 -0.00000000000E+00 -0.00000000000E+00 -0.89305281390E+03  0.89305281390E+03  0.00000000000E+00 0. -1.
    9000007    1    1    2  501    0 -0.42939689478E+03 -0.13802551005E+03 -0.16386827489E+03  0.62472837793E+03  0.40000000000E+03 0. -1.
   -9000007    1    1    2    0  502  0.42939689478E+03  0.13802551005E+03 -0.31658432974E+03  0.68092464525E+03  0.40000000000E+03 0. -1.
<mgrwt>
<rscale>  2 0.60285383E+03</rscale>
<asrwt>0</asrwt>
<pdfrwt beam="1">  1       21 0.63476956E-01 0.60285383E+03</pdfrwt>
<pdfrwt beam="2">  1       21 0.13739274E+00 0.60285383E+03</pdfrwt>
<totfact> 0.68449648E+02</totfact>
</mgrwt>
</event>
<event>
 4    1  0.4760244E-002  0.4321497E+03  0.7818608E-02  0.1033183E+00
         21   -1    0    0  501  502  0.00000000000E+00  0.00000000000E+00  0.53948646055E+03  0.53948646055E+03  0.00000000000E+00 0. -1.
         21   -1    0    0  502  503 -0.00000000000E+00 -0.00000000000E+00 -0.34624343757E+03  0.34624343757E+03  0.00000000000E+00 0. -1.
    9000007    1    1    2  501    0 -0.41965944335E+02 -0.15808931526E+03  0.10312438896E+03  0.44428370630E+03  0.40000000000E+03 0. -1.
   -9000007    1    1    2    0  503  0.41965944335E+02  0.15808931526E+03  0.90118634023E+02  0.44144619183E+03  0.40000000000E+03 0. -1.
<mgrwt>
<rscale>  2 0.43214971E+03</rscale>
<asrwt>0</asrwt>
<pdfrwt beam="1">  1       21 0.82997917E-01 0.43214971E+03</pdfrwt>
<pdfrwt beam="2">  1       21 0.53268221E-01 0.43214971E+03</pdfrwt>
<totfact> 0.37144723E+03</totfact>
</mgrwt>
</event>
<event>
 4    1  0.4760244E-002  0.5202213E+03  0.7818608E-02  0.1008632E+00
         21   -1    0    0  503  502  0.00000000000E+00  0.00000000000E+00  0.52964239607E+03  0.52964239607E+03  0.00000000000E+00 0. -1.
         21   -1    0    0  501  503 -0.00000000000E+00 -0.00000000000E+00 -0.61255926023E+03  0.61255926023E+03  0.00000000000E+00 0. -1.
    9000007    1    1    2  501    0  0.30983223646E+02 -0.33116501492E+03  0.19111883687E+03  0.55421713891E+03  0.40000000000E+03 0. -1.
   -9000007    1    1    2    0  502 -0.30983223646E+02  0.33116501492E+03 -0.27403570103E+03  0.58798451739E+03  0.40000000000E+03 0. -1.
<mgrwt>
<rscale>  2 0.52022133E+03</rscale>
<asrwt>0</asrwt>
<pdfrwt beam="1">  1       21 0.81483445E-01 0.52022133E+03</pdfrwt>
<pdfrwt beam="2">  1       21 0.94239886E-01 0.52022133E+03</pdfrwt>
<totfact> 0.10324848E+03</totfact>
</mgrwt>
</event>
<event>
 4    1  0.4760244E-002  0.4563294E+03  0.7818608E-02  0.1025851E+00
         21   -1    0    0  501  502  0.00000000000E+00  0.00000000000E+00  0.12883816288E+03  0.12883816288E+03  0.00000000000E+00 0. -1.
         21   -1    0    0  502  503 -0.00000000000E+00 -0.00000000000E+00 -0.16386307366E+04  0.16386307366E+04  0.00000000000E+00 0. -1.
    9000007    1    1    2  501    0  0.11414389313E+03  0.18763710004E+03 -0.85814405024E+03  0.97192989490E+03  0.40000000000E+03 0. -1.
   -9000007    1    1    2    0  503 -0.11414389313E+03 -0.18763710004E+03 -0.65164852351E+03  0.79553900460E+03  0.40000000000E+03 0. -1.
<mgrwt>
<rscale>  2 0.45632939E+03</rscale>
<asrwt>0</asrwt>
<pdfrwt beam="1">  1       21 0.19821256E-01 0.45632939E+03</pdfrwt>
<pdfrwt beam="2">  1       21 0.25209703E+00 0.45632939E+03</pdfrwt>
<totfact> 0.12466656E+03</totfact>
</mgrwt>
</event>
<event>
 4    1  0.4760244E-002  0.4985547E+03  0.7818608E-02  0.1014157E+00
         21   -1    0    0  503  502  0.00000000000E+00  0.00000000000E+00  0.86337623816E+03  0.86337623816E+03  0.00000000000E+00 0.  1.
         21   -1    0    0  501  503 -0.00000000000E+00 -0.00000000000E+00 -0.28795669663E+03  0.28795669663E+03  0.00000000000E+00 0. -1.
    9000007    1    1    2  501    0  0.12395186379E+03 -0.27054157975E+03  0.29651446302E+03  0.58006692518E+03  0.40000000000E+03 0. -1.
   -9000007    1    1    2    0  502 -0.12395186379E+03  0.27054157975E+03  0.27890507851E+03  0.57126600960E+03  0.40000000000E+03 0.  1.
<mgrwt>
<rscale>  2 0.49855472E+03</rscale>
<asrwt>0</asrwt>
<pdfrwt beam="1">  1       21 0.13282711E+00 0.49855472E+03</pdfrwt>
<pdfrwt beam="2">  1       21 0.44301031E-01 0.49855472E+03</pdfrwt>
<totfact> 0.16842407E+03</totfact>
</mgrwt>
</event>
<event>
 4    1  0.4760244E-002  0.4129273E+03  0.7818608E-02  0.1039393E+00
         21   -1    0    0  503  502  0.00000000000E+00  0.00000000000E+00  0.67268148352E+03  0.67268148352E+03  0.00000000000E+00 0.  1.
         21   -1    0    0  501  503 -0.00000000000E+00 -0.00000000000E+00 -0.51198529202E+03  0.51198529202E+03  0.00000000000E+00 0.  1.
    9000007    1    1    2  501    0  0.93368764403E+02  0.42322990275E+02 -0.34054820874E+03  0.53524017426E+03  0.40000000000E+03 0.  1.
   -9000007    1    1    2    0  502 -0.93368764403E+02 -0.42322990275E+02  0.50124440024E+03  0.64942660128E+03  0.40000000000E+03 0.  1.
<mgrwt>
<rscale>  2 0.41292731E+03</rscale>
<asrwt>0</asrwt>
<pdfrwt beam="1">  1       21 0.10348946E+00 0.41292731E+03</pdfrwt>
<pdfrwt beam="2">  1       21 0.78766968E-01 0.41292731E+03</pdfrwt>
<totfact> 0.92893472E+02</totfact>
</mgrwt>
</event>
<event>
 4    1  0.4760244E-002  0.4179755E+03  0.7818608E-02  0.1037727E+00
         21   -1    0    0  503  502  0.00000000000E+00  0.00000000000E+00  0.76040660970E+03  0.76040660970E+03  0.00000000000E+00 0.  1.
         21   -1    0    0  501  503 -0.00000000000E+00 -0.00000000000E+00 -0.25342963056E+03  0.25342963056E+03  0.00000000000E+00 0.  1.
    9000007    1    1    2  501    0  0.43041199152E+02  0.11336223830E+03  0.98537235889E+02  0.42943349748E+03  0.40000000000E+03 0.  1.
   -9000007    1    1    2    0  502 -0.43041199152E+02 -0.11336223830E+03  0.40843974325E+03  0.58440274278E+03  0.40000000000E+03 0.  1.
<mgrwt>
<rscale>  2 0.41797553E+03</rscale>
<asrwt>0</asrwt>
<pdfrwt beam="1">  1       21 0.11698563E+00 0.41797553E+03</pdfrwt>
<pdfrwt beam="2">  1       21 0.38989174E-01 0.41797553E+03</pdfrwt>
<totfact> 0.31338642E+03</totfact>
</mgrwt>
</event>
<event>
 4    1  0.4760244E-002  0.5409492E+03  0.7818608E-02  0.1003611E+00
         21   -1    0    0  503  502  0.00000000000E+00  0.00000000000E+00  0.52631300673E+03  0.52631300673E+03  0.00000000000E+00 0.  1.
         21   -1    0    0  501  503 -0.00000000000E+00 -0.00000000000E+00 -0.99247564639E+03  0.99247564639E+03  0.00000000000E+00 0.  1.
    9000007    1    1    2  501    0  0.32260897064E+03  0.16896606437E+03 -0.73668763063E+03  0.91396648952E+03  0.40000000000E+03 0.  1.
   -9000007    1    1    2    0  502 -0.32260897064E+03 -0.16896606437E+03  0.27052499097E+03  0.60482216360E+03  0.40000000000E+03 0.  1.
<mgrwt>
<rscale>  2 0.54094924E+03</rscale>
<asrwt>0</asrwt>
<pdfrwt beam="1">  1       21 0.80971232E-01 0.54094924E+03</pdfrwt>
<pdfrwt beam="2">  1       21 0.15268856E+00 0.54094924E+03</pdfrwt>
<totfact> 0.30226196E+02</totfact>
</mgrwt>
</event>
<event>
 4    1  0.4760244E-002  0.6370824E+03  0.7818608E-02  0.9831325E-01
         21   -1    0    0  503  502  0.00000000000E+00  0.00000000000E+00  0.46866677491E+03  0.46866677491E+03  0.00000000000E+00 0.  1.
         21   -1    0    0  501  503 -0.00000000000E+00 -0.00000000000E+00 -0.91850308871E+03  0.91850308871E+03  0.00000000000E+00 0. -1.
    9000007    1    1    2  501    0  0.39510522669E+03 -0.29960940721E+03 -0.39071515147E+03  0.74735016333E+03  0.40000000000E+03 0. -1.
   -9000007    1    1    2    0  502 -0.39510522669E+03  0.29960940721E+03 -0.59121162338E+02  0.63981970029E+03  0.40000000000E+03 0. -1.
<mgrwt>
<rscale>  2 0.63708236E+03</rscale>
<asrwt>0</asrwt>
<pdfrwt beam="1">  1       21 0.72102582E-01 0.63708236E+03</pdfrwt>
<pdfrwt beam="2">  1       21 0.14130816E+00 0.63708236E+03</pdfrwt>
<totfact> 0.47114345E+02</totfact>
</mgrwt>
</event>
<event>
 4    1  0.4760244E-002  0.4836096E+03  0.7818608E-02  0.1018148E+00
         21   -1    0    0  503  502  0.00000000000E+00  0.00000000000E+00  0.38390450568E+03  0.38390450568E+03  0.00000000000E+00 0. -1.
         21   -1    0    0  501  503 -0.00000000000E+00 -0.00000000000E+00 -0.60927471777E+03  0.60927471777E+03  0.00000000000E+00 0.  1.
    9000007    1    1    2  501    0 -0.25909042973E+03  0.82160786679E+02 -0.10754464476E+03  0.49542314869E+03  0.40000000000E+03 0.  1.
   -9000007    1    1    2    0  502  0.25909042973E+03 -0.82160786679E+02 -0.11782556733E+03  0.49775607476E+03  0.40000000000E+03 0. -1.
<mgrwt>
<rscale>  2 0.48360960E+03</rscale>
<asrwt>0</asrwt>
<pdfrwt beam="1">  1       21 0.59062232E-01 0.48360960E+03</pdfrwt>
<pdfrwt beam="2">  1       21 0.93734571E-01 0.48360960E+03</pdfrwt>
<totfact> 0.21887030E+03</totfact>
</mgrwt>
</event>
<event>
 4    1  0.4760244E-002  0.4931497E+03  0.7818608E-02  0.1015583E+00
         21   -1    0    0  501  502  0.00000000000E+00  0.00000000000E+00  0.15874055713E+04  0.15874055713E+04  0.00000000000E+00 0.  1.
         21   -1    0    0  502  503 -0.00000000000E+00 -0.00000000000E+00 -0.15344191286E+03  0.15344191286E+03  0.00000000000E+00 0.  1.
    9000007    1    1    2  501    0 -0.50939407650E+02 -0.28390454279E+03  0.75126832828E+03  0.89866607466E+03  0.40000000000E+03 0.  1.
   -9000007    1    1    2    0  503  0.50939407650E+02  0.28390454279E+03  0.68269533016E+03  0.84218140949E+03  0.40000000000E+03 0.  1.
<mgrwt>
<rscale>  2 0.49314969E+03</rscale>
<asrwt>0</asrwt>
<pdfrwt beam="1">  1       21 0.24421623E+00 0.49314969E+03</pdfrwt>
<pdfrwt beam="2">  1       21 0.23606449E-01 0.49314969E+03</pdfrwt>
<totfact> 0.97974342E+02</totfact>
</mgrwt>
</event>
<event>
 4    1  0.4760244E-002  0.4776112E+03  0.7818608E-02  0.1019794E+00
         21   -1    0    0  503  502  0.00000000000E+00  0.00000000000E+00  0.14578629497E+04  0.14578629497E+04  0.00000000000E+00 0. -1.
         21   -1    0    0  501  503 -0.00000000000E+00 -0.00000000000E+00 -0.34864533100E+03  0.34864533100E+03  0.00000000000E+00 0. -1.
    9000007    1    1    2  501    0 -0.20080405319E+03 -0.16670382695E+03 -0.11599555280E+03  0.49149506810E+03  0.40000000000E+03 0. -1.
   -9000007    1    1    2    0  502  0.20080405319E+03  0.16670382695E+03  0.12252131715E+04  0.13150132126E+04  0.40000000000E+03 0. -1.
<mgrwt>
<rscale>  2 0.47761117E+03</rscale>
<asrwt>0</asrwt>
<pdfrwt beam="1">  1       21 0.22428660E+00 0.47761117E+03</pdfrwt>
<pdfrwt beam="2">  1       21 0.53637744E-01 0.47761117E+03</pdfrwt>
<totfact> 0.24755130E+02</totfact>
</mgrwt>
</event>
<event>
 4    1  0.4760244E-002  0.4486386E+03  0.7818608E-02  0.1028129E+00
         21   -1    0    0  501  502  0.00000000000E+00  0.00000000000E+00  0.12720131526E+03  0.12720131526E+03  0.00000000000E+00 0. -1.
         21   -1    0    0  502  503 -0.00000000000E+00 -0.00000000000E+00 -0.17182588835E+04  0.17182588835E+04  0.00000000000E+00 0. -1.
    9000007    1    1    2  501    0 -0.53609821654E+02 -0.19596570269E+03 -0.10550421509E+04  0.11464687130E+04  0.40000000000E+03 0. -1.
   -9000007    1    1    2    0  503  0.53609821654E+02  0.19596570269E+03 -0.53601541737E+03  0.69899148583E+03  0.40000000000E+03 0. -1.
<mgrwt>
<rscale>  2 0.44863857E+03</rscale>
<asrwt>0</asrwt>
<pdfrwt beam="1">  1       21 0.19569436E-01 0.44863857E+03</pdfrwt>
<pdfrwt beam="2">  1       21 0.26434748E+00 0.44863857E+03</pdfrwt>
<totfact> 0.10795243E+03</totfact>
</mgrwt>
</event>
<event>
 4    1  0.4760244E-002  0.4153853E+03  0.7818608E-02  0.1038579E+00
         21   -1    0    0  503  502  0.00000000000E+00  0.00000000000E+00  0.25403104513E+03  0.25403104513E+03  0.00000000000E+00 0. -1.
         21   -1    0    0  501  503 -0.00000000000E+00 -0.00000000000E+00 -0.10691563741E+04  0.10691563741E+04  0.00000000000E+00 0. -1.
    9000007    1    1    2  501    0  0.10079141488E+03  0.48847226766E+02 -0.80710541494E+03  0.90772468937E+03  0.40000000000E+03 0. -1.
   -9000007    1    1    2    0  502 -0.10079141488E+03 -0.48847226766E+02 -0.80199140269E+01  0.41546272985E+03  0.40000000000E+03 0. -1.
<mgrwt>
<rscale>  2 0.41538532E+03</rscale>
<asrwt>0</asrwt>
<pdfrwt beam="1">  1       21 0.39081699E-01 0.41538532E+03</pdfrwt>
<pdfrwt beam="2">  1       21 0.16448560E+00 0.41538532E+03</pdfrwt>
<totfact> 0.12659332E+03</totfact>
</mgrwt>
</event>
<event>
 4    1  0.4760244E-002  0.4635126E+03  0.7818608E-02  0.1023767E+00
         21   -1    0    0  501  502  0.00000000000E+00  0.00000000000E+00  0.74535156142E+03  0.74535156142E+03  0.00000000000E+00 0. -1.
         21   -1    0    0  502  503 -0.00000000000E+00 -0.00000000000E+00 -0.53301112713E+03  0.53301112713E+03  0.00000000000E+00 0. -1.
    9000007    1    1    2  501    0  0.11377507048E+03  0.20469296247E+03  0.53931339109E+03  0.71112791350E+03  0.40000000000E+03 0. -1.
   -9000007    1    1    2    0  503 -0.11377507048E+03 -0.20469296247E+03 -0.32697295680E+03  0.56723477505E+03  0.40000000000E+03 0. -1.
<mgrwt>
<rscale>  2 0.46351265E+03</rscale>
<asrwt>0</asrwt>
<pdfrwt beam="1">  1       21 0.11466947E+00 0.46351265E+03</pdfrwt>
<pdfrwt beam="2">  1       21 0.82001712E-01 0.46351265E+03</pdfrwt>
<totfact> 0.64217995E+02</totfact>
</mgrwt>
</event>
<event>
 4    1  0.4760244E-002  0.4251588E+03  0.7818608E-02  0.1035400E+00
         21   -1    0    0  503  502  0.00000000000E+00  0.00000000000E+00  0.36419708242E+03  0.36419708242E+03  0.00000000000E+00 0. -1.
         21   -1    0    0  501  503 -0.00000000000E+00 -0.00000000000E+00 -0.53128600760E+03  0.53128600760E+03  0.00000000000E+00 0. -1.
    9000007    1    1    2  501    0 -0.12039695635E+03  0.79148889827E+02 -0.19840150127E+03  0.46917281418E+03  0.40000000000E+03 0. -1.
   -9000007    1    1    2    0  502  0.12039695635E+03 -0.79148889827E+02  0.31312576093E+02  0.42631027583E+03  0.40000000000E+03 0. -1.
<mgrwt>
<rscale>  2 0.42515876E+03</rscale>
<asrwt>0</asrwt>
<pdfrwt beam="1">  1       21 0.56030320E-01 0.42515876E+03</pdfrwt>
<pdfrwt beam="2">  1       21 0.81736309E-01 0.42515876E+03</pdfrwt>
<totfact> 0.34605313E+03</totfact>
</mgrwt>
</event>
<event>
 4    1  0.4760244E-002  0.5029825E+03  0.7818608E-02  0.1013003E+00
         21   -1    0    0  503  502  0.00000000000E+00  0.00000000000E+00  0.57519709081E+03  0.57519709081E+03  0.00000000000E+00 0. -1.
         21   -1    0    0  501  503 -0.00000000000E+00 -0.00000000000E+00 -0.94459540779E+03  0.94459540779E+03  0.00000000000E+00 0. -1.
    9000007    1    1    2  501    0 -0.28920015024E+03  0.96719693869E+02 -0.74018669129E+03  0.89491215437E+03  0.40000000000E+03 0. -1.
   -9000007    1    1    2    0  502  0.28920015024E+03 -0.96719693869E+02  0.37078837431E+03  0.62488034423E+03  0.40000000000E+03 0. -1.
<mgrwt>
<rscale>  2 0.50298253E+03</rscale>
<asrwt>0</asrwt>
<pdfrwt beam="1">  1       21 0.88491860E-01 0.50298253E+03</pdfrwt>
<pdfrwt beam="2">  1       21 0.14532237E+00 0.50298253E+03</pdfrwt>
<totfact> 0.28522859E+02</totfact>
</mgrwt>
</event>
<event>
 4    1  0.4760244E-002  0.4614549E+03  0.7818608E-02  0.1024360E+00
         21   -1    0    0  503  502  0.00000000000E+00  0.00000000000E+00  0.65689640224E+03  0.65689640224E+03  0.00000000000E+00 0.  1.
         21   -1    0    0  501  503 -0.00000000000E+00 -0.00000000000E+00 -0.32532151434E+03  0.32532151434E+03  0.00000000000E+00 0. -1.
    9000007    1    1    2  501    0 -0.20583031999E+03 -0.10283260603E+03  0.19511072489E+03  0.50100784471E+03  0.40000000000E+03 0.  1.
   -9000007    1    1    2    0  502  0.20583031999E+03  0.10283260603E+03  0.13646416301E+03  0.48121007188E+03  0.40000000000E+03 0.  1.
<mgrwt>
<rscale>  2 0.46145494E+03</rscale>
<asrwt>0</asrwt>
<pdfrwt beam="1">  1       21 0.10106098E+00 0.46145494E+03</pdfrwt>
<pdfrwt beam="2">  1       21 0.50049464E-01 0.46145494E+03</pdfrwt>
<totfact> 0.26291419E+03</totfact>
</mgrwt>
</event>
<event>
 4    1  0.4760244E-002  0.5448544E+03  0.7818608E-02  0.1002692E+00
         21   -1    0    0  501  502  0.00000000000E+00  0.00000000000E+00  0.65349245534E+03  0.65349245534E+03  0.00000000000E+00 0.  1.
         21   -1    0    0  502  503 -0.00000000000E+00 -0.00000000000E+00 -0.46702918694E+03  0.46702918694E+03  0.00000000000E+00 0. -1.
    9000007    1    1    2  501    0 -0.15598623167E+03  0.33546179226E+03  0.18581174718E+03  0.57566685151E+03  0.40000000000E+03 0.  1.
   -9000007    1    1    2    0  503  0.15598623167E+03 -0.33546179226E+03  0.65152122465E+00  0.54485479076E+03  0.40000000000E+03 0. -1.
<mgrwt>
<rscale>  2 0.54485440E+03</rscale>
<asrwt>0</asrwt>
<pdfrwt beam="1">  1       21 0.10053730E+00 0.54485440E+03</pdfrwt>
<pdfrwt beam="2">  1       21 0.71850644E-01 0.54485440E+03</pdfrwt>
<totfact> 0.11691249E+03</totfact>
</mgrwt>
</event>
<event>
 4    1  0.4760244E-002  0.5815094E+03  0.7818608E-02  0.9944528E-01
         21   -1    0    0  503  502  0.00000000000E+00  0.00000000000E+00  0.16669343406E+04  0.16669343406E+04  0.00000000000E+00 0. -1.
         21   -1    0    0  501  503 -0.00000000000E+00 -0.00000000000E+00 -0.22941309633E+03  0.22941309633E+03  0.00000000000E+00 0. -1.
    9000007    1    1    2  501    0  0.13459379362E+03 -0.40004717577E+03  0.39617750359E+03  0.70364042413E+03  0.40000000000E+03 0. -1.
   -9000007    1    1    2    0  502 -0.13459379362E+03  0.40004717577E+03  0.10413437407E+04  0.11927070128E+04  0.40000000000E+03 0. -1.
<mgrwt>
<rscale>  2 0.58150944E+03</rscale>
<asrwt>0</asrwt>
<pdfrwt beam="1">  1       21 0.25645143E+00 0.58150944E+03</pdfrwt>
<pdfrwt beam="2">  1       21 0.35294324E-01 0.58150944E+03</pdfrwt>
<totfact> 0.35648649E+02</totfact>
</mgrwt>
</event>
<event>
 4    1  0.4760244E-002  0.4821782E+03  0.7818608E-02  0.1018538E+00
         21   -1    0    0  501  502  0.00000000000E+00  0.00000000000E+00  0.86548442751E+02  0.86548442751E+02  0.00000000000E+00 0. -1.
         21   -1    0    0  502  503 -0.00000000000E+00 -0.00000000000E+00 -0.27238921491E+04  0.27238921491E+04  0.00000000000E+00 0.  1.
    9000007    1    1    2  501    0 -0.13311967068E+03  0.23404050007E+03 -0.14837349296E+04  0.15601170289E+04  0.40000000000E+03 0. -1.
   -9000007    1    1    2    0  503  0.13311967068E+03 -0.23404050007E+03 -0.11536087767E+04  0.12503235630E+04  0.40000000000E+03 0.  1.
<mgrwt>
<rscale>  2 0.48217819E+03</rscale>
<asrwt>0</asrwt>
<pdfrwt beam="1">  1       21 0.13315149E-01 0.48217819E+03</pdfrwt>
<pdfrwt beam="2">  1       21 0.41906022E+00 0.48217819E+03</pdfrwt>
<totfact> 0.24062783E+02</totfact>
</mgrwt>
</event>
<event>
 4    1  0.4760244E-002  0.6172813E+03  0.7818608E-02  0.9870187E-01
         21   -1    0    0  503  502  0.00000000000E+00  0.00000000000E+00  0.19110072524E+03  0.19110072524E+03  0.00000000000E+00 0. -1.
         21   -1    0    0  501  503 -0.00000000000E+00 -0.00000000000E+00 -0.20816252563E+04  0.20816252563E+04  0.00000000000E+00 0.  1.
    9000007    1    1    2  501    0 -0.42455758251E+03  0.20195819844E+03 -0.71198553994E+03  0.94231611674E+03  0.40000000000E+03 0.  1.
   -9000007    1    1    2    0  502  0.42455758251E+03 -0.20195819844E+03 -0.11785389911E+04  0.13304098648E+04  0.40000000000E+03 0. -1.
<mgrwt>
<rscale>  2 0.61728134E+03</rscale>
<asrwt>0</asrwt>
<pdfrwt beam="1">  1       21 0.29400110E-01 0.61728134E+03</pdfrwt>
<pdfrwt beam="2">  1       21 0.32025006E+00 0.61728134E+03</pdfrwt>
<totfact> 0.20673333E+02</totfact>
</mgrwt>
</event>
<event>
 4    1  0.4760244E-002  0.4034900E+03  0.7818608E-02  0.1042578E+00
         21   -1    0    0  503  502  0.00000000000E+00  0.00000000000E+00  0.73029441965E+03  0.73029441965E+03  0.00000000000E+00 0.  1.
         21   -1    0    0  501  503 -0.00000000000E+00 -0.00000000000E+00 -0.22396314332E+03  0.22396314332E+03  0.00000000000E+00 0.  1.
    9000007    1    1    2  501    0 -0.21563119695E+02  0.48365506531E+02  0.28557920204E+03  0.49432749366E+03  0.40000000000E+03 0.  1.
   -9000007    1    1    2    0  502  0.21563119695E+02 -0.48365506531E+02  0.22075207429E+03  0.45993006931E+03  0.40000000000E+03 0.  1.
<mgrwt>
<rscale>  2 0.40349001E+03</rscale>
<asrwt>0</asrwt>
<pdfrwt beam="1">  1       21 0.11235299E+00 0.40349001E+03</pdfrwt>
<pdfrwt beam="2">  1       21 0.34455868E-01 0.40349001E+03</pdfrwt>
<totfact> 0.44805071E+03</totfact>
</mgrwt>
</event>
<event>
 4    1  0.4760244E-002  0.6348836E+03  0.7818608E-02  0.9835565E-01
         21   -1    0    0  501  502  0.00000000000E+00  0.00000000000E+00  0.91499177195E+03  0.91499177195E+03  0.00000000000E+00 0. -1.
         21   -1    0    0  502  503 -0.00000000000E+00 -0.00000000000E+00 -0.69454018914E+03  0.69454018914E+03  0.00000000000E+00 0.  1.
    9000007    1    1    2  501    0  0.57713184517E+02 -0.48963898567E+03  0.59691351401E+03  0.87142578064E+03  0.40000000000E+03 0. -1.
   -9000007    1    1    2    0  503 -0.57713184517E+02  0.48963898567E+03 -0.37646193120E+03  0.73810618044E+03  0.40000000000E+03 0.  1.
<mgrwt>
<rscale>  2 0.63488357E+03</rscale>
<asrwt>0</asrwt>
<pdfrwt beam="1">  1       21 0.14076797E+00 0.63488357E+03</pdfrwt>
<pdfrwt beam="2">  1       21 0.10685234E+00 0.63488357E+03</pdfrwt>
<totfact> 0.18679627E+02</totfact>
</mgrwt>
</event>
<event>
 4    1  0.4760244E-002  0.4299815E+03  0.7818608E-02  0.1033866E+00
         21   -1    0    0  503  502  0.00000000000E+00  0.00000000000E+00  0.62930212587E+03  0.62930212587E+03  0.00000000000E+00 0. -1.
         21   -1    0    0  501  503 -0.00000000000E+00 -0.00000000000E+00 -0.39212937415E+03  0.39212937415E+03  0.00000000000E+00 0. -1.
    9000007    1    1    2  501    0  0.14494425660E+03 -0.62251459294E+02 -0.13716815434E+03  0.45133046016E+03  0.40000000000E+03 0. -1.
   -9000007    1    1    2    0  502 -0.14494425660E+03  0.62251459294E+02  0.37434090605E+03  0.57010103986E+03  0.40000000000E+03 0. -1.
<mgrwt>
<rscale>  2 0.42998149E+03</rscale>
<asrwt>0</asrwt>
<pdfrwt beam="1">  1       21 0.96815712E-01 0.42998149E+03</pdfrwt>
<pdfrwt beam="2">  1       21 0.60327596E-01 0.42998149E+03</pdfrwt>
<totfact> 0.19721493E+03</totfact>
</mgrwt>
</event>
<event>
 4    1  0.4760244E-002  0.6975181E+03  0.7818608E-02  0.9721486E-01
         21   -1    0    0  503  502  0.00000000000E+00  0.00000000000E+00  0.15622942563E+04  0.15622942563E+04  0.00000000000E+00 0. -1.
         21   -1    0    0  501  503 -0.00000000000E+00 -0.00000000000E+00 -0.34096774792E+03  0.34096774792E+03  0.00000000000E+00 0.  1.
    9000007    1    1    2  501    0 -0.13521946119E+03 -0.55520020142E+03  0.89079687702E+03  0.11313932307E+04  0.40000000000E+03 0. -1.
   -9000007    1    1    2    0  502  0.13521946119E+03  0.55520020142E+03  0.33052963137E+03  0.77186877353E+03  0.40000000000E+03 0.  1.
<mgrwt>
<rscale>  2 0.69751815E+03</rscale>
<asrwt>0</asrwt>
<pdfrwt beam="1">  1       21 0.24035296E+00 0.69751815E+03</pdfrwt>
<pdfrwt beam="2">  1       21 0.52456577E-01 0.69751815E+03</pdfrwt>
<totfact> 0.18729551E+02</totfact>
</mgrwt>
</event>
<event>
 4    1  0.4760244E-002  0.5569479E+03  0.7818608E-02  0.9998984E-01
         21   -1    0    0  503  502  0.00000000000E+00  0.00000000000E+00  0.14977831203E+04  0.14977831203E+04  0.00000000000E+00 0. -1.
         21   -1    0    0  501  503 -0.00000000000E+00 -0.00000000000E+00 -0.51476757510E+03  0.51476757510E+03  0.00000000000E+00 0. -1.
    9000007    1    1    2  501    0  0.10484212751E+01  0.38754336857E+03 -0.28644291583E+03  0.62629107110E+03  0.40000000000E+03 0. -1.
   -9000007    1    1    2    0  502 -0.10484212751E+01 -0.38754336857E+03  0.12694584610E+04  0.13862596243E+04  0.40000000000E+03 0. -1.
<mgrwt>
<rscale>  2 0.55694790E+03</rscale>
<asrwt>0</asrwt>
<pdfrwt beam="1">  1       21 0.23042817E+00 0.55694790E+03</pdfrwt>
<pdfrwt beam="2">  1       21 0.79195012E-01 0.55694790E+03</pdfrwt>
<totfact> 0.91226313E+01</totfact>
</mgrwt>
</event>
<event>
 4    1  0.4760244E-002  0.4379401E+03  0.7818608E-02  0.1031381E+00
         21   -1    0    0  503  502  0.00000000000E+00  0.00000000000E+00  0.12992711518E+03  0.12992711518E+03  0.00000000000E+00 0.  1.
         21   -1    0    0  501  503 -0.00000000000E+00 -0.00000000000E+00 -0.14832983902E+04  0.14832983902E+04  0.00000000000E+00 0.  1.
    9000007    1    1    2  501    0 -0.11985442125E+01 -0.17829764854E+03 -0.73269412505E+03  0.85359953659E+03  0.40000000000E+03 0.  1.
   -9000007    1    1    2    0  502  0.11985442125E+01  0.17829764854E+03 -0.62067714998E+03  0.75962596881E+03  0.40000000000E+03 0.  1.
<mgrwt>
<rscale>  2 0.43794005E+03</rscale>
<asrwt>0</asrwt>
<pdfrwt beam="1">  1       21 0.19988787E-01 0.43794005E+03</pdfrwt>
<pdfrwt beam="2">  1       21 0.22819976E+00 0.43794005E+03</pdfrwt>
<totfact> 0.17418038E+03</totfact>
</mgrwt>
</event>
<event>
 4    1  0.4760244E-002  0.4854133E+03  0.7818608E-02  0.1017658E+00
         21   -1    0    0  501  502  0.00000000000E+00  0.00000000000E+00  0.73419546560E+03  0.73419546560E+03  0.00000000000E+00 0. -1.
         21   -1    0    0  502  503 -0.00000000000E+00 -0.00000000000E+00 -0.35251712097E+03  0.35251712097E+03  0.00000000000E+00 0. -1.
    9000007    1    1    2  501    0  0.18568307680E+03  0.20284932567E+03  0.35348503936E+03  0.60048124616E+03  0.40000000000E+03 0. -1.
   -9000007    1    1    2    0  503 -0.18568307680E+03 -0.20284932567E+03  0.28193305271E+02  0.48623134041E+03  0.40000000000E+03 0. -1.
<mgrwt>
<rscale>  2 0.48541328E+03</rscale>
<asrwt>0</asrwt>
<pdfrwt beam="1">  1       21 0.11295315E+00 0.48541328E+03</pdfrwt>
<pdfrwt beam="2">  1       21 0.54233403E-01 0.48541328E+03</pdfrwt>
<totfact> 0.16669354E+03</totfact>
</mgrwt>
</event>
<event>
 4    1  0.4760244E-002  0.4135311E+03  0.7818608E-02  0.1039192E+00
         21   -1    0    0  503  502  0.00000000000E+00  0.00000000000E+00  0.47828872764E+03  0.47828872764E+03  0.00000000000E+00 0. -1.
         21   -1    0    0  501  503 -0.00000000000E+00 -0.00000000000E+00 -0.35786504111E+03  0.35786504111E+03  0.00000000000E+00 0. -1.
    9000007    1    1    2  501    0 -0.51677009833E+02 -0.91309809963E+02  0.72785615568E+02  0.41988777140E+03  0.40000000000E+03 0. -1.
   -9000007    1    1    2    0  502  0.51677009833E+02  0.91309809963E+02  0.47638070959E+02  0.41626599734E+03  0.40000000000E+03 0. -1.
<mgrwt>
<rscale>  2 0.41353113E+03</rscale>
<asrwt>0</asrwt>
<pdfrwt beam="1">  1       21 0.73582882E-01 0.41353113E+03</pdfrwt>
<pdfrwt beam="2">  1       21 0.55056160E-01 0.41353113E+03</pdfrwt>
<totfact> 0.45923898E+03</totfact>
</mgrwt>
</event>
<event>
 4    1  0.4760244E-002  0.4022054E+03  0.7818608E-02  0.1043019E+00
         21   -1    0    0  503  502  0.00000000000E+00  0.00000000000E+00  0.56867325557E+03  0.56867325557E+03  0.00000000000E+00 0. -1.
         21   -1    0    0  501  503 -0.00000000000E+00 -0.00000000000E+00 -0.28684656015E+03  0.28684656015E+03  0.00000000000E+00 0. -1.
    9000007    1    1    2  501    0 -0.14709519265E+02 -0.39405839910E+02  0.10195890793E+03  0.41492747448E+03  0.40000000000E+03 0. -1.
   -9000007    1    1    2    0  502  0.14709519265E+02  0.39405839910E+02  0.17986778749E+03  0.44059234123E+03  0.40000000000E+03 0. -1.
<mgrwt>
<rscale>  2 0.40220541E+03</rscale>
<asrwt>0</asrwt>
<pdfrwt beam="1">  1       21 0.87488193E-01 0.40220541E+03</pdfrwt>
<pdfrwt beam="2">  1       21 0.44130240E-01 0.40220541E+03</pdfrwt>
<totfact> 0.49428515E+03</totfact>
</mgrwt>
</event>
<event>
 4    1  0.4760244E-002  0.5028529E+03  0.7818608E-02  0.1013037E+00
         21   -1    0    0  501  502  0.00000000000E+00  0.00000000000E+00  0.45822020057E+03  0.45822020057E+03  0.00000000000E+00 0.  1.
         21   -1    0    0  502  503 -0.00000000000E+00 -0.00000000000E+00 -0.10164581093E+04  0.10164581093E+04  0.00000000000E+00 0. -1.
    9000007    1    1    2  501    0  0.73124389044E+02 -0.29582747825E+03  0.21939101324E+03  0.54862873590E+03  0.40000000000E+03 0.  1.
   -9000007    1    1    2    0  503 -0.73124389044E+02  0.29582747825E+03 -0.77762892195E+03  0.92604957395E+03  0.40000000000E+03 0. -1.
<mgrwt>
<rscale>  2 0.50285293E+03</rscale>
<asrwt>0</asrwt>
<pdfrwt beam="1">  1       21 0.70495415E-01 0.50285293E+03</pdfrwt>
<pdfrwt beam="2">  1       21 0.15637817E+00 0.50285293E+03</pdfrwt>
<totfact> 0.39490760E+02</totfact>
</mgrwt>
</event>
<event>
 4    1  0.4760244E-002  0.4239612E+03  0.7818608E-02  0.1035785E+00
         21   -1    0    0  503  502  0.00000000000E+00  0.00000000000E+00  0.47619388401E+03  0.47619388401E+03  0.00000000000E+00 0.  1.
         21   -1    0    0  501  503 -0.00000000000E+00 -0.00000000000E+00 -0.14676460080E+04  0.14676460080E+04  0.00000000000E+00 0.  1.
    9000007    1    1    2  501    0  0.91302380220E+02  0.10680351883E+03 -0.13333914437E+04  0.13991697032E+04  0.40000000000E+03 0.  1.
   -9000007    1    1    2    0  502 -0.91302380220E+02 -0.10680351883E+03  0.34193931967E+03  0.54467018884E+03  0.40000000000E+03 0.  1.
<mgrwt>
<rscale>  2 0.42396122E+03</rscale>
<asrwt>0</asrwt>
<pdfrwt beam="1">  1       21 0.73260599E-01 0.42396122E+03</pdfrwt>
<pdfrwt beam="2">  1       21 0.22579169E+00 0.42396122E+03</pdfrwt>
<totfact> 0.12534993E+02</totfact>
</mgrwt>
</event>
<event>
 4    1  0.4760244E-002  0.4035445E+03  0.7818608E-02  0.1042559E+00
         21   -1    0    0  501  502  0.00000000000E+00  0.00000000000E+00  0.31722494212E+03  0.31722494212E+03  0.00000000000E+00 0. -1.
         21   -1    0    0  502  503 -0.00000000000E+00 -0.00000000000E+00 -0.66038656884E+03  0.66038656884E+03  0.00000000000E+00 0. -1.
    9000007    1    1    2  501    0  0.30548698726E+02 -0.43759848798E+02  0.59065494767E+02  0.40784418597E+03  0.40000000000E+03 0.  1.
   -9000007    1    1    2    0  503 -0.30548698726E+02  0.43759848798E+02 -0.40222712149E+03  0.56976732499E+03  0.40000000000E+03 0.  1.
<mgrwt>
<rscale>  2 0.40354448E+03</rscale>
<asrwt>0</asrwt>
<pdfrwt beam="1">  1       21 0.48803838E-01 0.40354448E+03</pdfrwt>
<pdfrwt beam="2">  1       21 0.10159793E+00 0.40354448E+03</pdfrwt>
<totfact> 0.27986045E+03</totfact>
</mgrwt>
</event>
<event>
 4    1  0.4760244E-002  0.4700048E+03  0.7818608E-02  0.1021919E+00
         21   -1    0    0  503  502  0.00000000000E+00  0.00000000000E+00  0.12914201648E+03  0.12914201648E+03  0.00000000000E+00 0.  1.
         21   -1    0    0  501  503 -0.00000000000E+00 -0.00000000000E+00 -0.17284126872E+04  0.17284126872E+04  0.00000000000E+00 0.  1.
    9000007    1    1    2  501    0 -0.17624961532E+03 -0.17274425656E+03 -0.89404187830E+03  0.10100571198E+04  0.40000000000E+03 0.  1.
   -9000007    1    1    2    0  502  0.17624961532E+03  0.17274425656E+03 -0.70522879246E+03  0.84749758395E+03  0.40000000000E+03 0.  1.
<mgrwt>
<rscale>  2 0.47000479E+03</rscale>
<asrwt>0</asrwt>
<pdfrwt beam="1">  1       21 0.19868003E-01 0.47000479E+03</pdfrwt>
<pdfrwt beam="2">  1       21 0.26590964E+00 0.47000479E+03</pdfrwt>
<totfact> 0.10153117E+03</totfact>
</mgrwt>
</event>
<event>
 4    1  0.4760244E-002  0.4943253E+03  0.7818608E-02  0.1015271E+00
         21   -1    0    0  501  502  0.00000000000E+00  0.00000000000E+00  0.35486589501E+03  0.35486589501E+03  0.00000000000E+00 0.  1.
         21   -1    0    0  502  503 -0.00000000000E+00 -0.00000000000E+00 -0.18492689333E+04  0.18492689333E+04  0.00000000000E+00 0. -1.
    9000007    1    1    2  501    0 -0.27871892338E+03 -0.81689890683E+02  0.12589846527E+03  0.51010577339E+03  0.40000000000E+03 0.  1.
   -9000007    1    1    2    0  503  0.27871892338E+03  0.81689890683E+02 -0.16203015035E+04  0.16940290549E+04  0.40000000000E+03 0. -1.
<mgrwt>
<rscale>  2 0.49432527E+03</rscale>
<asrwt>0</asrwt>
<pdfrwt beam="1">  1       21 0.54594754E-01 0.49432527E+03</pdfrwt>
<pdfrwt beam="2">  1       21 0.28450291E+00 0.49432527E+03</pdfrwt>
<totfact> 0.10047756E+02</totfact>
</mgrwt>
</event>
<event>
 4    1  0.4760244E-002  0.4447133E+03  0.7818608E-02  0.1029310E+00
         21   -1    0    0  503  502  0.00000000000E+00  0.00000000000E+00  0.12961572386E+04  0.12961572386E+04  0.00000000000E+00 0. -1.
         21   -1    0    0  501  503 -0.00000000000E+00 -0.00000000000E+00 -0.20589227474E+03  0.20589227474E+03  0.00000000000E+00 0.  1.
    9000007    1    1    2  501    0  0.13713528813E+02  0.19386033639E+03  0.16297632621E+03  0.47363611961E+03  0.40000000000E+03 0.  1.
   -9000007    1    1    2    0  502 -0.13713528813E+02 -0.19386033639E+03  0.92728863766E+03  0.10284133937E+04  0.40000000000E+03 0. -1.
<mgrwt>
<rscale>  2 0.44471327E+03</rscale>
<asrwt>0</asrwt>
<pdfrwt beam="1">  1       21 0.19940880E+00 0.44471327E+03</pdfrwt>
<pdfrwt beam="2">  1       21 0.31675735E-01 0.44471327E+03</pdfrwt>
<totfact> 0.10875462E+03</totfact>
</mgrwt>
</event>
<event>
 4    1  0.4760244E-002  0.6163097E+03  0.7818608E-02  0.9872135E-01
         21   -1    0    0  503  502  0.00000000000E+00  0.00000000000E+00  0.23833249032E+04  0.23833249032E+04  0.00000000000E+00 0. -1.
         21   -1    0    0  501  503 -0.00000000000E+00 -0.00000000000E+00 -0.32844821295E+03  0.32844821295E+03  0.00000000000E+00 0.  1.
    9000007    1    1    2  501    0  0.18407701706E+03  0.43122296420E+03  0.54624147212E+02  0.61872561812E+03  0.40000000000E+03 0.  1.
   -9000007    1    1    2    0  502 -0.18407701706E+03 -0.43122296420E+03  0.20002525430E+04  0.20930474980E+04  0.40000000000E+03 0. -1.
<mgrwt>
<rscale>  2 0.61630966E+03</rscale>
<asrwt>0</asrwt>
<pdfrwt beam="1">  1       21 0.36666536E+00 0.61630966E+03</pdfrwt>
<pdfrwt beam="2">  1       21 0.50530496E-01 0.61630966E+03</pdfrwt>
<totfact> 0.34863371E+01</totfact>
</mgrwt>
</event>
<event>
 4    1  0.4760244E-002  0.5507094E+03  0.7818608E-02  0.1001330E+00
         21   -1    0    0  503  502  0.00000000000E+00  0.00000000000E+00  0.13734375146E+03  0.13734375146E+03  0.00000000000E+00 0.  1.
         21   -1    0    0  501  503 -0.00000000000E+00 -0.00000000000E+00 -0.37456275566E+04  0.37456275566E+04  0.00000000000E+00 0.  1.
    9000007    1    1    2  501    0 -0.37482799763E+03 -0.52771039440E+02 -0.30480002622E+04  0.30973515152E+04  0.40000000000E+03 0.  1.
   -9000007    1    1    2    0  502  0.37482799763E+03  0.52771039440E+02 -0.56028354293E+03  0.78561979283E+03  0.40000000000E+03 0.  1.
<mgrwt>
<rscale>  2 0.55070937E+03</rscale>
<asrwt>0</asrwt>
<pdfrwt beam="1">  1       21 0.21129808E-01 0.55070937E+03</pdfrwt>
<pdfrwt beam="2">  1       21 0.57625039E+00 0.55070937E+03</pdfrwt>
<totfact> 0.73423422E+00</totfact>
</mgrwt>
</event>
<event>
 4    1  0.4760244E-002  0.6776549E+03  0.7818608E-02  0.9756227E-01
         21   -1    0    0  501  502  0.00000000000E+00  0.00000000000E+00  0.10569406352E+04  0.10569406352E+04  0.00000000000E+00 0.  1.
         21   -1    0    0  502  503 -0.00000000000E+00 -0.00000000000E+00 -0.48224741914E+03  0.48224741914E+03  0.00000000000E+00 0. -1.
    9000007    1    1    2  501    0 -0.54497731935E+03  0.47072823139E+02  0.52956516200E+03  0.86003220293E+03  0.40000000000E+03 0.  1.
   -9000007    1    1    2    0  503  0.54497731935E+03 -0.47072823139E+02  0.45128054111E+02  0.67915585144E+03  0.40000000000E+03 0. -1.
<mgrwt>
<rscale>  2 0.67765487E+03</rscale>
<asrwt>0</asrwt>
<pdfrwt beam="1">  1       21 0.16260625E+00 0.67765487E+03</pdfrwt>
<pdfrwt beam="2">  1       21 0.74191911E-01 0.67765487E+03</pdfrwt>
<totfact> 0.29552504E+02</totfact>
</mgrwt>
</event>
<event>
 4    1  0.4760244E-002  0.4215149E+03  0.7818608E-02  0.1036574E+00
         21   -1    0    0  503  502  0.00000000000E+00  0.00000000000E+00  0.39614611149E+03  0.39614611149E+03  0.00000000000E+00 0. -1.
         21   -1    0    0  501  503 -0.00000000000E+00 -0.00000000000E+00 -0.49307599674E+03  0.49307599674E+03  0.00000000000E+00 0. -1.
    9000007    1    1    2  501    0 -0.11128691634E+03 -0.72732678982E+02 -0.18213477526E+03  0.45918176869E+03  0.40000000000E+03 0. -1.
   -9000007    1    1    2    0  502  0.11128691634E+03  0.72732678982E+02  0.85204890012E+02  0.43004033953E+03  0.40000000000E+03 0. -1.
<mgrwt>
<rscale>  2 0.42151491E+03</rscale>
<asrwt>0</asrwt>
<pdfrwt beam="1">  1       21 0.60945556E-01 0.42151491E+03</pdfrwt>
<pdfrwt beam="2">  1       21 0.75857846E-01 0.42151491E+03</pdfrwt>
<totfact> 0.34253153E+03</totfact>
</mgrwt>
</event>
<event>
 4    1  0.4760244E-002  0.4138870E+03  0.7818608E-02  0.1039074E+00
         21   -1    0    0  501  502  0.00000000000E+00  0.00000000000E+00  0.97994275445E+03  0.97994275445E+03  0.00000000000E+00 0.  1.
         21   -1    0    0  502  503 -0.00000000000E+00 -0.00000000000E+00 -0.22268564553E+03  0.22268564553E+03  0.00000000000E+00 0.  1.
    9000007    1    1    2  501    0  0.78683969840E+02 -0.71493382454E+02  0.65744525835E+03  0.77687626980E+03  0.40000000000E+03 0.  1.
   -9000007    1    1    2    0  503 -0.78683969840E+02  0.71493382454E+02  0.99811850563E+02  0.42575213019E+03  0.40000000000E+03 0.  1.
<mgrwt>
<rscale>  2 0.41388703E+03</rscale>
<asrwt>0</asrwt>
<pdfrwt beam="1">  1       21 0.15076042E+00 0.41388703E+03</pdfrwt>
<pdfrwt beam="2">  1       21 0.34259331E-01 0.41388703E+03</pdfrwt>
<totfact> 0.21053235E+03</totfact>
</mgrwt>
</event>
<event>
 4    1  0.4760244E-002  0.4530053E+03  0.7818608E-02  0.1026830E+00
         21   -1    0    0  501  502  0.00000000000E+00  0.00000000000E+00  0.15260167800E+04  0.15260167800E+04  0.00000000000E+00 0.  1.
         21   -1    0    0  502  503 -0.00000000000E+00 -0.00000000000E+00 -0.15239795066E+03  0.15239795066E+03  0.00000000000E+00 0.  1.
    9000007    1    1    2  501    0 -0.19533855651E+03 -0.84003796284E+02  0.97459111601E+03  0.10747286322E+04  0.40000000000E+03 0.  1.
   -9000007    1    1    2    0  503  0.19533855651E+03  0.84003796284E+02  0.39902771329E+03  0.60368609842E+03  0.40000000000E+03 0.  1.
<mgrwt>
<rscale>  2 0.45300529E+03</rscale>
<asrwt>0</asrwt>
<pdfrwt beam="1">  1       21 0.23477180E+00 0.45300529E+03</pdfrwt>
<pdfrwt beam="2">  1       21 0.23445840E-01 0.45300529E+03</pdfrwt>
<totfact> 0.11582176E+03</totfact>
</mgrwt>
</event>
<event>
 4    1  0.4760244E-002  0.5399171E+03  0.7818608E-02  0.1003855E+00
         21   -1    0    0  501  502  0.00000000000E+00  0.00000000000E+00  0.14131002599E+04  0.14131002599E+04  0.00000000000E+00 0. -1.
         21   -1    0    0  502  503 -0.00000000000E+00 -0.00000000000E+00 -0.21596039344E+03  0.21596039344E+03  0.00000000000E+00 0.  1.
    9000007    1    1    2  501    0 -0.16539425295E+03 -0.32273080912E+03  0.77091973457E+03  0.94118418559E+03  0.40000000000E+03 0. -1.
   -9000007    1    1    2    0  503  0.16539425295E+03  0.32273080912E+03  0.42622013193E+03  0.68787646778E+03  0.40000000000E+03 0.  1.
<mgrwt>
<rscale>  2 0.53991706E+03</rscale>
<asrwt>0</asrwt>
<pdfrwt beam="1">  1       21 0.21740003E+00 0.53991706E+03</pdfrwt>
<pdfrwt beam="2">  1       21 0.33224677E-01 0.53991706E+03</pdfrwt>
<totfact> 0.72257857E+02</totfact>
</mgrwt>
</event>
<event>
 4    1  0.4760244E-002  0.4557972E+03  0.7818608E-02  0.1026007E+00
         21   -1    0    0  503  502  0.00000000000E+00  0.00000000000E+00  0.14423673040E+04  0.14423673040E+04  0.00000000000E+00 0.  1.
         21   -1    0    0  501  503 -0.00000000000E+00 -0.00000000000E+00 -0.14657328517E+04  0.14657328517E+04  0.00000000000E+00 0.  1.
    9000007    1    1    2  501    0  0.19789546469E+03 -0.92674236010E+02 -0.13924423791E+04  0.14651439889E+04  0.40000000000E+03 0.  1.
   -9000007    1    1    2    0  502 -0.19789546469E+03  0.92674236010E+02  0.13690768315E+04  0.14429561668E+04  0.40000000000E+03 0.  1.
<mgrwt>
<rscale>  2 0.45579725E+03</rscale>
<asrwt>0</asrwt>
<pdfrwt beam="1">  1       21 0.22190266E+00 0.45579725E+03</pdfrwt>
<pdfrwt beam="2">  1       21 0.22549736E+00 0.45579725E+03</pdfrwt>
<totfact> 0.66243486E+00</totfact>
</mgrwt>
</event>
<event>
 4    1  0.4760244E-002  0.4207148E+03  0.7818608E-02  0.1036834E+00
         21   -1    0    0  501  502  0.00000000000E+00  0.00000000000E+00  0.17028222555E+03  0.17028222555E+03  0.00000000000E+00 0.  1.
         21   -1    0    0  502  503 -0.00000000000E+00 -0.00000000000E+00 -0.11083255198E+04  0.11083255198E+04  0.00000000000E+00 0.  1.
    9000007    1    1    2  501    0  0.42832520068E+02 -0.12315173215E+03 -0.62838390577E+03  0.75621908660E+03  0.40000000000E+03 0.  1.
   -9000007    1    1    2    0  503 -0.42832520068E+02  0.12315173215E+03 -0.30965938847E+03  0.52238865874E+03  0.40000000000E+03 0.  1.
<mgrwt>
<rscale>  2 0.42071484E+03</rscale>
<asrwt>0</asrwt>
<pdfrwt beam="1">  1       21 0.26197265E-01 0.42071484E+03</pdfrwt>
<pdfrwt beam="2">  1       21 0.17051162E+00 0.42071484E+03</pdfrwt>
<totfact> 0.25388251E+03</totfact>
</mgrwt>
</event>
<event>
 4    1  0.4760244E-002  0.5110549E+03  0.7818608E-02  0.1010933E+00
         21   -1    0    0  503  502  0.00000000000E+00  0.00000000000E+00  0.16528927566E+04  0.16528927566E+04  0.00000000000E+00 0. -1.
         21   -1    0    0  501  503 -0.00000000000E+00 -0.00000000000E+00 -0.18101197191E+03  0.18101197191E+03  0.00000000000E+00 0.  1.
    9000007    1    1    2  501    0 -0.25475366590E+03  0.19046708963E+03  0.40908523888E+03  0.65462040542E+03  0.40000000000E+03 0. -1.
   -9000007    1    1    2    0  502  0.25475366590E+03 -0.19046708963E+03  0.10627955458E+04  0.11792843231E+04  0.40000000000E+03 0.  1.
<mgrwt>
<rscale>  2 0.51105493E+03</rscale>
<asrwt>0</asrwt>
<pdfrwt beam="1">  1       21 0.25429118E+00 0.51105493E+03</pdfrwt>
<pdfrwt beam="2">  1       21 0.27847997E-01 0.51105493E+03</pdfrwt>
<totfact> 0.60960910E+02</totfact>
</mgrwt>
</event>
<event>
 4    1  0.4760244E-002  0.4305734E+03  0.7818608E-02  0.1033679E+00
         21   -1    0    0  501  502  0.00000000000E+00  0.00000000000E+00  0.81682788507E+03  0.81682788507E+03  0.00000000000E+00 0. -1.
         21   -1    0    0  502  503 -0.00000000000E+00 -0.00000000000E+00 -0.24186484858E+03  0.24186484858E+03  0.00000000000E+00 0. -1.
    9000007    1    1    2  501    0 -0.11535727510E+03 -0.10993704303E+03  0.41885471747E+03  0.60069353974E+03  0.40000000000E+03 0. -1.
   -9000007    1    1    2    0  503  0.11535727510E+03  0.10993704303E+03  0.15610831902E+03  0.45799919390E+03  0.40000000000E+03 0. -1.
<mgrwt>
<rscale>  2 0.43057340E+03</rscale>
<asrwt>0</asrwt>
<pdfrwt beam="1">  1       21 0.12566583E+00 0.43057340E+03</pdfrwt>
<pdfrwt beam="2">  1       21 0.37209977E-01 0.43057340E+03</pdfrwt>
<totfact> 0.28595009E+03</totfact>
</mgrwt>
</event>
<event>
 4    1  0.4760244E-002  0.4628412E+03  0.7818608E-02  0.1023960E+00
         21   -1    0    0  501  502  0.00000000000E+00  0.00000000000E+00  0.55883814108E+03  0.55883814108E+03  0.00000000000E+00 0.  1.
         21   -1    0    0  502  503 -0.00000000000E+00 -0.00000000000E+00 -0.53535646911E+03  0.53535646911E+03  0.00000000000E+00 0.  1.
    9000007    1    1    2  501    0 -0.19899298619E+03 -0.12092888909E+03  0.30327943182E+03  0.55335379147E+03  0.40000000000E+03 0.  1.
   -9000007    1    1    2    0  503  0.19899298619E+03  0.12092888909E+03 -0.27979775985E+03  0.54084081872E+03  0.40000000000E+03 0.  1.
<mgrwt>
<rscale>  2 0.46284123E+03</rscale>
<asrwt>0</asrwt>
<pdfrwt beam="1">  1       21 0.85975099E-01 0.46284123E+03</pdfrwt>
<pdfrwt beam="2">  1       21 0.82362534E-01 0.46284123E+03</pdfrwt>
<totfact> 0.12789501E+03</totfact>
</mgrwt>
</event>
<event>
 4    1  0.4760244E-002  0.4393519E+03  0.7818608E-02  0.1030946E+00
         21   -1    0    0  503  502  0.00000000000E+00  0.00000000000E+00  0.17921575029E+03  0.17921575029E+03  0.00000000000E+00 0.  1.
         21   -1    0    0  501  503 -0.00000000000E+00 -0.00000000000E+00 -0.11081707591E+04  0.11081707591E+04  0.00000000000E+00 0.  1.
    9000007    1    1    2  501    0 -0.18073261512E+03 -0.19126615295E+02 -0.35666342373E+03  0.56589654833E+03  0.40000000000E+03 0.  1.
   -9000007    1    1    2    0  502  0.18073261512E+03  0.19126615295E+02 -0.57229158511E+03  0.72148996110E+03  0.40000000000E+03 0.  1.
<mgrwt>
<rscale>  2 0.43935192E+03</rscale>
<asrwt>0</asrwt>
<pdfrwt beam="1">  1       21 0.27571654E-01 0.43935192E+03</pdfrwt>
<pdfrwt beam="2">  1       21 0.17048781E+00 0.43935192E+03</pdfrwt>
<totfact> 0.22799421E+03</totfact>
</mgrwt>
</event>
<event>
 4    1  0.4760244E-002  0.5094643E+03  0.7818608E-02  0.1011338E+00
         21   -1    0    0  503  502  0.00000000000E+00  0.00000000000E+00  0.86976575670E+03  0.86976575670E+03  0.00000000000E+00 0. -1.
         21   -1    0    0  501  503 -0.00000000000E+00 -0.00000000000E+00 -0.32272291855E+03  0.32272291855E+03  0.00000000000E+00 0. -1.
    9000007    1    1    2  501    0  0.24565900196E+03 -0.19800398377E+03  0.10989450082E+03  0.52118204511E+03  0.40000000000E+03 0. -1.
   -9000007    1    1    2    0  502 -0.24565900196E+03  0.19800398377E+03  0.43714833734E+03  0.67130663014E+03  0.40000000000E+03 0. -1.
<mgrwt>
<rscale>  2 0.50946435E+03</rscale>
<asrwt>0</asrwt>
<pdfrwt beam="1">  1       21 0.13381012E+00 0.50946435E+03</pdfrwt>
<pdfrwt beam="2">  1       21 0.49649680E-01 0.50946435E+03</pdfrwt>
<totfact> 0.12935192E+03</totfact>
</mgrwt>
</event>
<event>
 4    1  0.4760244E-002  0.4432488E+03  0.7818608E-02  0.1029755E+00
         21   -1    0    0  503  502  0.00000000000E+00  0.00000000000E+00  0.29451725798E+04  0.29451725798E+04  0.00000000000E+00 0. -1.
         21   -1    0    0  501  503 -0.00000000000E+00 -0.00000000000E+00 -0.10544606849E+03  0.10544606849E+03  0.00000000000E+00 0. -1.
    9000007    1    1    2  501    0 -0.18001584762E+03  0.63748076033E+02  0.49536500137E+03  0.66472250389E+03  0.40000000000E+03 0. -1.
   -9000007    1    1    2    0  502  0.18001584762E+03 -0.63748076033E+02  0.23443615100E+04  0.23858961444E+04  0.40000000000E+03 0. -1.
<mgrwt>
<rscale>  2 0.44324883E+03</rscale>
<asrwt>0</asrwt>
<pdfrwt beam="1">  1       21 0.45310341E+00 0.44324883E+03</pdfrwt>
<pdfrwt beam="2">  1       21 0.16222474E-01 0.44324883E+03</pdfrwt>
<totfact> 0.10156226E+02</totfact>
</mgrwt>
</event>
<event>
 4    1  0.4760244E-002  0.4125946E+03  0.7818608E-02  0.1039504E+00
         21   -1    0    0  501  502  0.00000000000E+00  0.00000000000E+00  0.11988129148E+03  0.11988129148E+03  0.00000000000E+00 0. -1.
         21   -1    0    0  502  503 -0.00000000000E+00 -0.00000000000E+00 -0.14248798065E+04  0.14248798065E+04  0.00000000000E+00 0. -1.
    9000007    1    1    2  501    0  0.31886180392E+02  0.96007996092E+02 -0.69759032492E+03  0.81047302561E+03  0.40000000000E+03 0.  1.
   -9000007    1    1    2    0  503 -0.31886180392E+02 -0.96007996092E+02 -0.60740819007E+03  0.73428807234E+03  0.40000000000E+03 0.  1.
<mgrwt>
<rscale>  2 0.41259455E+03</rscale>
<asrwt>0</asrwt>
<pdfrwt beam="1">  1       21 0.18443275E-01 0.41259455E+03</pdfrwt>
<pdfrwt beam="2">  1       21 0.21921229E+00 0.41259455E+03</pdfrwt>
<totfact> 0.23403153E+03</totfact>
</mgrwt>
</event>
<event>
 4    1  0.4760244E-002  0.4641710E+03  0.7818608E-02  0.1023578E+00
         21   -1    0    0  503  502  0.00000000000E+00  0.00000000000E+00  0.56993319158E+03  0.56993319158E+03  0.00000000000E+00 0. -1.
         21   -1    0    0  501  503 -0.00000000000E+00 -0.00000000000E+00 -0.45111279642E+03  0.45111279642E+03  0.00000000000E+00 0. -1.
    9000007    1    1    2  501    0  0.17127580681E+03 -0.16161472465E+03 -0.14606779504E+03  0.48661126371E+03  0.40000000000E+03 0. -1.
   -9000007    1    1    2    0  502 -0.17127580681E+03  0.16161472465E+03  0.26488819021E+03  0.53443472429E+03  0.40000000000E+03 0. -1.
<mgrwt>
<rscale>  2 0.46417100E+03</rscale>
<asrwt>0</asrwt>
<pdfrwt beam="1">  1       21 0.87682030E-01 0.46417100E+03</pdfrwt>
<pdfrwt beam="2">  1       21 0.69401969E-01 0.46417100E+03</pdfrwt>
<totfact> 0.18054744E+03</totfact>
</mgrwt>
</event>
<event>
 4    1  0.4760244E-002  0.6346152E+03  0.7818608E-02  0.9836084E-01
         21   -1    0    0  501  502  0.00000000000E+00  0.00000000000E+00  0.67015125695E+03  0.67015125695E+03  0.00000000000E+00 0. -1.
         21   -1    0    0  502  503 -0.00000000000E+00 -0.00000000000E+00 -0.13178119277E+04  0.13178119277E+04  0.00000000000E+00 0.  1.
    9000007    1    1    2  501    0 -0.79340811302E+02  0.48625247944E+03 -0.10569338410E+04  0.12328201744E+04  0.40000000000E+03 0.  1.
   -9000007    1    1    2    0  503  0.79340811302E+02 -0.48625247944E+03  0.40927317023E+03  0.75514301028E+03  0.40000000000E+03 0. -1.
<mgrwt>
<rscale>  2 0.63461519E+03</rscale>
<asrwt>0</asrwt>
<pdfrwt beam="1">  1       21 0.10310019E+00 0.63461519E+03</pdfrwt>
<pdfrwt beam="2">  1       21 0.20274029E+00 0.63461519E+03</pdfrwt>
<totfact> 0.71132155E+01</totfact>
</mgrwt>
</event>
<event>
 4    1  0.4760244E-002  0.4205007E+03  0.7818608E-02  0.1036903E+00
         21   -1    0    0  501  502  0.00000000000E+00  0.00000000000E+00  0.49211376679E+03  0.49211376679E+03  0.00000000000E+00 0.  1.
         21   -1    0    0  502  503 -0.00000000000E+00 -0.00000000000E+00 -0.60199717271E+03  0.60199717271E+03  0.00000000000E+00 0.  1.
    9000007    1    1    2  501    0  0.12420480647E+03 -0.37336091030E+02  0.29240133975E+03  0.51217122247E+03  0.40000000000E+03 0.  1.
   -9000007    1    1    2    0  503 -0.12420480647E+03  0.37336091030E+02 -0.40228474567E+03  0.58193971702E+03  0.40000000000E+03 0.  1.
<mgrwt>
<rscale>  2 0.42050067E+03</rscale>
<asrwt>0</asrwt>
<pdfrwt beam="1">  1       21 0.75709811E-01 0.42050067E+03</pdfrwt>
<pdfrwt beam="2">  1       21 0.92614949E-01 0.42050067E+03</pdfrwt>
<totfact> 0.13249800E+03</totfact>
</mgrwt>
</event>
<event>
 4    1  0.4760244E-002  0.4643028E+03  0.7818608E-02  0.1023541E+00
         21   -1    0    0  501  502  0.00000000000E+00  0.00000000000E+00  0.28386975304E+03  0.28386975304E+03  0.00000000000E+00 0. -1.
         21   -1    0    0  502  503 -0.00000000000E+00 -0.00000000000E+00 -0.13200704467E+04  0.13200704467E+04  0.00000000000E+00 0.  1.
    9000007    1    1    2  501    0  0.14349078724E+03 -0.18704930581E+03  0.45422217838E+01  0.46432497306E+03  0.40000000000E+03 0. -1.
   -9000007    1    1    2    0  503 -0.14349078724E+03  0.18704930581E+03 -0.10407429155E+04  0.11396152267E+04  0.40000000000E+03 0.  1.
<mgrwt>
<rscale>  2 0.46430276E+03</rscale>
<asrwt>0</asrwt>
<pdfrwt beam="1">  1       21 0.43672270E-01 0.46430276E+03</pdfrwt>
<pdfrwt beam="2">  1       21 0.20308776E+00 0.46430276E+03</pdfrwt>
<totfact> 0.52878347E+02</totfact>
</mgrwt>
</event>
<event>
 4    1  0.4760244E-002  0.5041628E+03  0.7818608E-02  0.1012698E+00
         21   -1    0    0  501  502  0.00000000000E+00  0.00000000000E+00  0.22005378709E+04  0.22005378709E+04  0.00000000000E+00 0.  1.
         21   -1    0    0  502  503 -0.00000000000E+00 -0.00000000000E+00 -0.12880244511E+03  0.12880244511E+03  0.00000000000E+00 0.  1.
    9000007    1    1    2  501    0  0.26281163925E+03  0.15846186903E+03  0.14100412614E+04  0.14974633487E+04  0.40000000000E+03 0.  1.
   -9000007    1    1    2    0  503 -0.26281163925E+03 -0.15846186903E+03  0.66169416438E+03  0.83187696737E+03  0.40000000000E+03 0.  1.
<mgrwt>
<rscale>  2 0.50416279E+03</rscale>
<asrwt>0</asrwt>
<pdfrwt beam="1">  1       21 0.33854426E+00 0.50416279E+03</pdfrwt>
<pdfrwt beam="2">  1       21 0.19815762E-01 0.50416279E+03</pdfrwt>
<totfact> 0.36406156E+02</totfact>
</mgrwt>
</event>
<event>
 4    1  0.4760244E-002  0.8538673E+03  0.7818608E-02  0.9485161E-01
         21   -1    0    0  501  502  0.00000000000E+00  0.00000000000E+00  0.26302279637E+04  0.26302279637E+04  0.00000000000E+00 0. -1.
         21   -1    0    0  502  503 -0.00000000000E+00 -0.00000000000E+00 -0.54382072987E+03  0.54382072987E+03  0.00000000000E+00 0. -1.
    9000007    1    1    2  501    0 -0.47928533762E+03  0.58255900066E+03  0.21544380524E+04  0.23174755114E+04  0.40000000000E+03 0. -1.
   -9000007    1    1    2    0  503  0.47928533762E+03 -0.58255900066E+03 -0.68030818626E+02  0.85657318216E+03  0.40000000000E+03 0. -1.
<mgrwt>
<rscale>  2 0.85386733E+03</rscale>
<asrwt>0</asrwt>
<pdfrwt beam="1">  1       21 0.40465045E+00 0.85386733E+03</pdfrwt>
<pdfrwt beam="2">  1       21 0.83664729E-01 0.85386733E+03</pdfrwt>
<totfact> 0.57381397E+00</totfact>
</mgrwt>
</event>
<event>
 4    1  0.4760244E-002  0.4076624E+03  0.7818608E-02  0.1041158E+00
         21   -1    0    0  501  502  0.00000000000E+00  0.00000000000E+00  0.23070296392E+03  0.23070296392E+03  0.00000000000E+00 0. -1.
         21   -1    0    0  502  503 -0.00000000000E+00 -0.00000000000E+00 -0.95601252087E+03  0.95601252087E+03  0.00000000000E+00 0. -1.
    9000007    1    1    2  501    0  0.54134803888E+02  0.57079345688E+02 -0.68061320145E+02  0.41330493827E+03  0.40000000000E+03 0. -1.
   -9000007    1    1    2    0  503 -0.54134803888E+02 -0.57079345688E+02 -0.65724823680E+03  0.77341054652E+03  0.40000000000E+03 0. -1.
<mgrwt>
<rscale>  2 0.40766240E+03</rscale>
<asrwt>0</asrwt>
<pdfrwt beam="1">  1       21 0.35492763E-01 0.40766240E+03</pdfrwt>
<pdfrwt beam="2">  1       21 0.14707885E+00 0.40766240E+03</pdfrwt>
<totfact> 0.21012345E+03</totfact>
</mgrwt>
</event>
<event>
 4    1  0.4760244E-002  0.4248039E+03  0.7818608E-02  0.1035514E+00
         21   -1    0    0  503  502  0.00000000000E+00  0.00000000000E+00  0.53811527669E+03  0.53811527669E+03  0.00000000000E+00 0. -1.
         21   -1    0    0  501  503 -0.00000000000E+00 -0.00000000000E+00 -0.40853560988E+03  0.40853560988E+03  0.00000000000E+00 0. -1.
    9000007    1    1    2  501    0 -0.96167074591E+02  0.10587836818E+03 -0.13554208351E+03  0.44590356748E+03  0.40000000000E+03 0. -1.
   -9000007    1    1    2    0  502  0.96167074591E+02 -0.10587836818E+03  0.26512175033E+03  0.50074731909E+03  0.40000000000E+03 0. -1.
<mgrwt>
<rscale>  2 0.42480388E+03</rscale>
<asrwt>0</asrwt>
<pdfrwt beam="1">  1       21 0.82786966E-01 0.42480388E+03</pdfrwt>
<pdfrwt beam="2">  1       21 0.62851632E-01 0.42480388E+03</pdfrwt>
<totfact> 0.26141281E+03</totfact>
</mgrwt>
</event>
<event>
 4    1  0.4760244E-002  0.4473281E+03  0.7818608E-02  0.1028522E+00
         21   -1    0    0  501  502  0.00000000000E+00  0.00000000000E+00  0.35317217959E+03  0.35317217959E+03  0.00000000000E+00 0. -1.
         21   -1    0    0  502  503 -0.00000000000E+00 -0.00000000000E+00 -0.60314704638E+03  0.60314704638E+03  0.00000000000E+00 0. -1.
    9000007    1    1    2  501    0 -0.17460384519E+03  0.98060626560E+02 -0.72618126667E+01  0.44738699485E+03  0.40000000000E+03 0. -1.
   -9000007    1    1    2    0  503  0.17460384519E+03 -0.98060626560E+02 -0.24271305412E+03  0.50893223113E+03  0.40000000000E+03 0. -1.
<mgrwt>
<rscale>  2 0.44732806E+03</rscale>
<asrwt>0</asrwt>
<pdfrwt beam="1">  1       21 0.54334182E-01 0.44732806E+03</pdfrwt>
<pdfrwt beam="2">  1       21 0.92791852E-01 0.44732806E+03</pdfrwt>
<totfact> 0.27224410E+03</totfact>
</mgrwt>
</event>
<event>
 4    1  0.4760244E-002  0.4364361E+03  0.7818608E-02  0.1031846E+00
         21   -1    0    0  501  502  0.00000000000E+00  0.00000000000E+00  0.62267713930E+03  0.62267713930E+03  0.00000000000E+00 0.  1.
         21   -1    0    0  502  503 -0.00000000000E+00 -0.00000000000E+00 -0.36353453260E+03  0.36353453260E+03  0.00000000000E+00 0.  1.
    9000007    1    1    2  501    0 -0.17435521696E+03 -0.87578267547E+01  0.32591261769E+03  0.54469760013E+03  0.40000000000E+03 0.  1.
   -9000007    1    1    2    0  503  0.17435521696E+03  0.87578267547E+01 -0.66770010990E+02  0.44151407178E+03  0.40000000000E+03 0.  1.
<mgrwt>
<rscale>  2 0.43643607E+03</rscale>
<asrwt>0</asrwt>
<pdfrwt beam="1">  1       21 0.95796483E-01 0.43643607E+03</pdfrwt>
<pdfrwt beam="2">  1       21 0.55928390E-01 0.43643607E+03</pdfrwt>
<totfact> 0.23795928E+03</totfact>
</mgrwt>
</event>
<event>
 4    1  0.4760244E-002  0.4471685E+03  0.7818608E-02  0.1028570E+00
         21   -1    0    0  503  502  0.00000000000E+00  0.00000000000E+00  0.37056721838E+03  0.37056721838E+03  0.00000000000E+00 0. -1.
         21   -1    0    0  501  503 -0.00000000000E+00 -0.00000000000E+00 -0.16064253461E+04  0.16064253461E+04  0.00000000000E+00 0.  1.
    9000007    1    1    2  501    0 -0.19407555141E+03 -0.47899544083E+02 -0.14234754283E+04  0.14920596439E+04  0.40000000000E+03 0.  1.
   -9000007    1    1    2    0  502  0.19407555141E+03  0.47899544083E+02  0.18761730058E+03  0.48493292057E+03  0.40000000000E+03 0. -1.
<mgrwt>
<rscale>  2 0.44716852E+03</rscale>
<asrwt>0</asrwt>
<pdfrwt beam="1">  1       21 0.57010340E-01 0.44716852E+03</pdfrwt>
<pdfrwt beam="2">  1       21 0.24714236E+00 0.44716852E+03</pdfrwt>
<totfact> 0.15877479E+02</totfact>
</mgrwt>
</event>
<event>
 4    1  0.4760244E-002  0.4905170E+03  0.7818608E-02  0.1016284E+00
         21   -1    0    0  501  502  0.00000000000E+00  0.00000000000E+00  0.85257747485E+03  0.85257747485E+03  0.00000000000E+00 0.  1.
         21   -1    0    0  502  503 -0.00000000000E+00 -0.00000000000E+00 -0.35309957556E+03  0.35309957556E+03  0.00000000000E+00 0. -1.
    9000007    1    1    2  501    0  0.12619133945E+03 -0.25432788587E+03  0.51984844889E+03  0.71473725067E+03  0.40000000000E+03 0.  1.
   -9000007    1    1    2    0  503 -0.12619133945E+03  0.25432788587E+03 -0.20370549590E+02  0.49093979974E+03  0.40000000000E+03 0. -1.
<mgrwt>
<rscale>  2 0.49051700E+03</rscale>
<asrwt>0</asrwt>
<pdfrwt beam="1">  1       21 0.13116576E+00 0.49051700E+03</pdfrwt>
<pdfrwt beam="2">  1       21 0.54323012E-01 0.49051700E+03</pdfrwt>
<totfact> 0.11315113E+03</totfact>
</mgrwt>
</event>
<event>
 4    1  0.4760244E-002  0.4973854E+03  0.7818608E-02  0.1014464E+00
         21   -1    0    0  503  502  0.00000000000E+00  0.00000000000E+00  0.57008074728E+03  0.57008074728E+03  0.00000000000E+00 0. -1.
         21   -1    0    0  501  503 -0.00000000000E+00 -0.00000000000E+00 -0.43509796670E+03  0.43509796670E+03  0.00000000000E+00 0.  1.
    9000007    1    1    2  501    0 -0.22324186123E+03  0.19379195086E+03  0.93194279783E+02  0.50604092977E+03  0.40000000000E+03 0. -1.
   -9000007    1    1    2    0  502  0.22324186123E+03 -0.19379195086E+03  0.41788500792E+02  0.49913778420E+03  0.40000000000E+03 0.  1.
<mgrwt>
<rscale>  2 0.49738541E+03</rscale>
<asrwt>0</asrwt>
<pdfrwt beam="1">  1       21 0.87704731E-01 0.49738541E+03</pdfrwt>
<pdfrwt beam="2">  1       21 0.66938149E-01 0.49738541E+03</pdfrwt>
<totfact> 0.19338907E+03</totfact>
</mgrwt>
</event>
<event>
 4    1  0.4760244E-002  0.4932798E+03  0.7818608E-02  0.1015548E+00
         21   -1    0    0  503  502  0.00000000000E+00  0.00000000000E+00  0.48896890574E+03  0.48896890574E+03  0.00000000000E+00 0.  1.
         21   -1    0    0  501  503 -0.00000000000E+00 -0.00000000000E+00 -0.72327286589E+03  0.72327286589E+03  0.00000000000E+00 0. -1.
    9000007    1    1    2  501    0 -0.83368355723E+02  0.27635972091E+03  0.22139596634E+03  0.54068581634E+03  0.40000000000E+03 0.  1.
   -9000007    1    1    2    0  502  0.83368355723E+02 -0.27635972091E+03 -0.45569992650E+03  0.67155595529E+03  0.40000000000E+03 0. -1.
<mgrwt>
<rscale>  2 0.49327982E+03</rscale>
<asrwt>0</asrwt>
<pdfrwt beam="1">  1       21 0.75225985E-01 0.49327982E+03</pdfrwt>
<pdfrwt beam="2">  1       21 0.11127275E+00 0.49327982E+03</pdfrwt>
<totfact> 0.83430761E+02</totfact>
</mgrwt>
</event>
<event>
 4    1  0.4760244E-002  0.4393234E+03  0.7818608E-02  0.1030955E+00
         21   -1    0    0  503  502  0.00000000000E+00  0.00000000000E+00  0.16997456482E+03  0.16997456482E+03  0.00000000000E+00 0.  1.
         21   -1    0    0  501  503 -0.00000000000E+00 -0.00000000000E+00 -0.20782942090E+04  0.20782942090E+04  0.00000000000E+00 0.  1.
    9000007    1    1    2  501    0  0.12532952653E+03 -0.13152027524E+03 -0.17112970293E+04  0.17667887807E+04  0.40000000000E+03 0.  1.
   -9000007    1    1    2    0  502 -0.12532952653E+03  0.13152027524E+03 -0.19702261486E+03  0.48147999313E+03  0.40000000000E+03 0.  1.
<mgrwt>
<rscale>  2 0.43932343E+03</rscale>
<asrwt>0</asrwt>
<pdfrwt beam="1">  1       21 0.26149934E-01 0.43932343E+03</pdfrwt>
<pdfrwt beam="2">  1       21 0.31973756E+00 0.43932343E+03</pdfrwt>
<totfact> 0.28800785E+02</totfact>
</mgrwt>
</event>
<event>
 4    1  0.4760244E-002  0.4019525E+03  0.7818608E-02  0.1043106E+00
         21   -1    0    0  501  502  0.00000000000E+00  0.00000000000E+00  0.11869137712E+04  0.11869137712E+04  0.00000000000E+00 0. -1.
         21   -1    0    0  502  503 -0.00000000000E+00 -0.00000000000E+00 -0.47152530303E+03  0.47152530303E+03  0.00000000000E+00 0. -1.
    9000007    1    1    2  501    0  0.18890868034E+02  0.34769412255E+02  0.10570534624E+04  0.11308969004E+04  0.40000000000E+03 0. -1.
   -9000007    1    1    2    0  503 -0.18890868034E+02 -0.34769412255E+02 -0.34166499423E+03  0.52754217386E+03  0.40000000000E+03 0. -1.
<mgrwt>
<rscale>  2 0.40195246E+03</rscale>
<asrwt>0</asrwt>
<pdfrwt beam="1">  1       21 0.18260212E+00 0.40195246E+03</pdfrwt>
<pdfrwt beam="2">  1       21 0.72542355E-01 0.40195246E+03</pdfrwt>
<totfact> 0.25034709E+02</totfact>
</mgrwt>
</event>
<event>
 4    1  0.4760244E-002  0.8631530E+03  0.7818608E-02  0.9472851E-01
         21   -1    0    0  501  502  0.00000000000E+00  0.00000000000E+00  0.16682301907E+04  0.16682301907E+04  0.00000000000E+00 0.  1.
         21   -1    0    0  502  503 -0.00000000000E+00 -0.00000000000E+00 -0.45121164867E+03  0.45121164867E+03  0.00000000000E+00 0. -1.
    9000007    1    1    2  501    0  0.74138245389E+03  0.18810954410E+03  0.50138546815E+03  0.99820866115E+03  0.40000000000E+03 0.  1.
   -9000007    1    1    2    0  503 -0.74138245389E+03 -0.18810954410E+03  0.71563307385E+03  0.11212331782E+04  0.40000000000E+03 0.  1.
<mgrwt>
<rscale>  2 0.86315302E+03</rscale>
<asrwt>0</asrwt>
<pdfrwt beam="1">  1       21 0.25665080E+00 0.86315302E+03</pdfrwt>
<pdfrwt beam="2">  1       21 0.69417178E-01 0.86315302E+03</pdfrwt>
<totfact> 0.75206011E+01</totfact>
</mgrwt>
</event>
<event>
 4    1  0.4760244E-002  0.4530246E+03  0.7818608E-02  0.1026824E+00
         21   -1    0    0  503  502  0.00000000000E+00  0.00000000000E+00  0.54511205765E+03  0.54511205765E+03  0.00000000000E+00 0.  1.
         21   -1    0    0  501  503 -0.00000000000E+00 -0.00000000000E+00 -0.43641519395E+03  0.43641519395E+03  0.00000000000E+00 0.  1.
    9000007    1    1    2  501    0  0.10999981033E+03  0.18202023456E+03  0.23619842781E+03  0.51090216418E+03  0.40000000000E+03 0.  1.
   -9000007    1    1    2    0  502 -0.10999981033E+03 -0.18202023456E+03 -0.12750156410E+03  0.47062508742E+03  0.40000000000E+03 0.  1.
<mgrwt>
<rscale>  2 0.45302464E+03</rscale>
<asrwt>0</asrwt>
<pdfrwt beam="1">  1       21 0.83863394E-01 0.45302464E+03</pdfrwt>
<pdfrwt beam="2">  1       21 0.67140799E-01 0.45302464E+03</pdfrwt>
<totfact> 0.21676868E+03</totfact>
</mgrwt>
</event>
<event>
 4    1  0.4760244E-002  0.7433403E+03  0.7818608E-02  0.9645857E-01
         21   -1    0    0  503  502  0.00000000000E+00  0.00000000000E+00  0.11473841804E+04  0.11473841804E+04  0.00000000000E+00 0.  1.
         21   -1    0    0  501  503 -0.00000000000E+00 -0.00000000000E+00 -0.49110915057E+03  0.49110915057E+03  0.00000000000E+00 0. -1.
    9000007    1    1    2  501    0 -0.16569218865E+03 -0.60423580499E+03  0.21400702066E+03  0.77353333109E+03  0.40000000000E+03 0. -1.
   -9000007    1    1    2    0  502  0.16569218865E+03  0.60423580499E+03  0.44226800913E+03  0.86495999984E+03  0.40000000000E+03 0.  1.
<mgrwt>
<rscale>  2 0.74334031E+03</rscale>
<asrwt>0</asrwt>
<pdfrwt beam="1">  1       21 0.17652064E+00 0.74334031E+03</pdfrwt>
<pdfrwt beam="2">  1       21 0.75555254E-01 0.74334031E+03</pdfrwt>
<totfact> 0.21899279E+02</totfact>
</mgrwt>
</event>
<event>
 4    1  0.4760244E-002  0.4321474E+03  0.7818608E-02  0.1033184E+00
         21   -1    0    0  501  502  0.00000000000E+00  0.00000000000E+00  0.84618299339E+03  0.84618299339E+03  0.00000000000E+00 0.  1.
         21   -1    0    0  502  503 -0.00000000000E+00 -0.00000000000E+00 -0.76135213126E+03  0.76135213126E+03  0.00000000000E+00 0.  1.
    9000007    1    1    2  501    0  0.15533583219E+03  0.51206868610E+02  0.71974062713E+03  0.83951053269E+03  0.40000000000E+03 0.  1.
   -9000007    1    1    2    0  503 -0.15533583219E+03 -0.51206868610E+02 -0.63490976500E+03  0.76802459195E+03  0.40000000000E+03 0.  1.
<mgrwt>
<rscale>  2 0.43214739E+03</rscale>
<asrwt>0</asrwt>
<pdfrwt beam="1">  1       21 0.13018200E+00 0.43214739E+03</pdfrwt>
<pdfrwt beam="2">  1       21 0.11713110E+00 0.43214739E+03</pdfrwt>
<totfact> 0.19918128E+02</totfact>
</mgrwt>
</event>
<event>
 4    1  0.4760244E-002  0.5992174E+03  0.7818608E-02  0.9907031E-01
         21   -1    0    0  501  502  0.00000000000E+00  0.00000000000E+00  0.76384132314E+03  0.76384132314E+03  0.00000000000E+00 0.  1.
         21   -1    0    0  502  503 -0.00000000000E+00 -0.00000000000E+00 -0.71065553427E+03  0.71065553427E+03  0.00000000000E+00 0. -1.
    9000007    1    1    2  501    0  0.43553127932E+03 -0.96819640748E+02  0.45555202030E+03  0.75272118431E+03  0.40000000000E+03 0.  1.
   -9000007    1    1    2    0  503 -0.43553127932E+03  0.96819640748E+02 -0.40236623143E+03  0.72177567311E+03  0.40000000000E+03 0. -1.
<mgrwt>
<rscale>  2 0.59921744E+03</rscale>
<asrwt>0</asrwt>
<pdfrwt beam="1">  1       21 0.11751405E+00 0.59921744E+03</pdfrwt>
<pdfrwt beam="2">  1       21 0.10933162E+00 0.59921744E+03</pdfrwt>
<totfact> 0.28643879E+02</totfact>
</mgrwt>
</event>
<event>
 4    1  0.4760244E-002  0.4606751E+03  0.7818608E-02  0.1024586E+00
         21   -1    0    0  503  502  0.00000000000E+00  0.00000000000E+00  0.17126890027E+03  0.17126890027E+03  0.00000000000E+00 0.  1.
         21   -1    0    0  501  503 -0.00000000000E+00 -0.00000000000E+00 -0.19282488112E+04  0.19282488112E+04  0.00000000000E+00 0.  1.
    9000007    1    1    2  501    0 -0.19040413565E+03 -0.12636368610E+03 -0.15060574331E+04  0.15749382552E+04  0.40000000000E+03 0.  1.
   -9000007    1    1    2    0  502  0.19040413565E+03  0.12636368610E+03 -0.25092247788E+03  0.52457945627E+03  0.40000000000E+03 0.  1.
<mgrwt>
<rscale>  2 0.46067507E+03</rscale>
<asrwt>0</asrwt>
<pdfrwt beam="1">  1       21 0.26349062E-01 0.46067507E+03</pdfrwt>
<pdfrwt beam="2">  1       21 0.29665366E+00 0.46067507E+03</pdfrwt>
<totfact> 0.38582862E+02</totfact>
</mgrwt>
</event>
<event>
 4    1  0.4760244E-002  0.4821451E+03  0.7818608E-02  0.1018547E+00
         21   -1    0    0  503  502  0.00000000000E+00  0.00000000000E+00  0.10237638228E+04  0.10237638228E+04  0.00000000000E+00 0. -1.
         21   -1    0    0  501  503 -0.00000000000E+00 -0.00000000000E+00 -0.80544721404E+03  0.80544721404E+03  0.00000000000E+00 0.  1.
    9000007    1    1    2  501    0  0.15136526206E+02 -0.26876531484E+03 -0.66587729060E+03  0.82210490512E+03  0.40000000000E+03 0.  1.
   -9000007    1    1    2    0  502 -0.15136526206E+02  0.26876531484E+03  0.88419389938E+03  0.10071061317E+04  0.40000000000E+03 0. -1.
<mgrwt>
<rscale>  2 0.48214511E+03</rscale>
<asrwt>0</asrwt>
<pdfrwt beam="1">  1       21 0.15750213E+00 0.48214511E+03</pdfrwt>
<pdfrwt beam="2">  1       21 0.12391496E+00 0.48214511E+03</pdfrwt>
<totfact> 0.10090935E+02</totfact>
</mgrwt>
</event>
<event>
 4    1  0.4760244E-002  0.4310820E+03  0.7818608E-02  0.1033519E+00
         21   -1    0    0  503  502  0.00000000000E+00  0.00000000000E+00  0.10530841596E+03  0.10530841596E+03  0.00000000000E+00 0.  1.
         21   -1    0    0  501  503 -0.00000000000E+00 -0.00000000000E+00 -0.23808735284E+04  0.23808735284E+04  0.00000000000E+00 0.  1.
    9000007    1    1    2  501    0 -0.12737925756E+03  0.98011509052E+02 -0.17702037963E+04  0.18219366651E+04  0.40000000000E+03 0.  1.
   -9000007    1    1    2    0  502  0.12737925756E+03 -0.98011509052E+02 -0.50536131611E+03  0.66424527923E+03  0.40000000000E+03 0.  1.
<mgrwt>
<rscale>  2 0.43108205E+03</rscale>
<asrwt>0</asrwt>
<pdfrwt beam="1">  1       21 0.16201298E-01 0.43108205E+03</pdfrwt>
<pdfrwt beam="2">  1       21 0.36628816E+00 0.43108205E+03</pdfrwt>
<totfact> 0.37512780E+02</totfact>
</mgrwt>
</event>
<event>
 4    1  0.4760244E-002  0.5752882E+03  0.7818608E-02  0.9958044E-01
         21   -1    0    0  501  502  0.00000000000E+00  0.00000000000E+00  0.10861872211E+04  0.10861872211E+04  0.00000000000E+00 0.  1.
         21   -1    0    0  502  503 -0.00000000000E+00 -0.00000000000E+00 -0.34735182855E+03  0.34735182855E+03  0.00000000000E+00 0.  1.
    9000007    1    1    2  501    0 -0.57162569707E+02 -0.40949836050E+03  0.62059822280E+03  0.84622610499E+03  0.40000000000E+03 0.  1.
   -9000007    1    1    2    0  503  0.57162569707E+02  0.40949836050E+03  0.11823716972E+03  0.58731294463E+03  0.40000000000E+03 0.  1.
<mgrwt>
<rscale>  2 0.57528816E+03</rscale>
<asrwt>0</asrwt>
<pdfrwt beam="1">  1       21 0.16710572E+00 0.57528816E+03</pdfrwt>
<pdfrwt beam="2">  1       21 0.53438743E-01 0.57528816E+03</pdfrwt>
<totfact> 0.58752739E+02</totfact>
</mgrwt>
</event>
<event>
 4    1  0.4760244E-002  0.4452696E+03  0.7818608E-02  0.1029142E+00
         21   -1    0    0  503  502  0.00000000000E+00  0.00000000000E+00  0.51595979426E+03  0.51595979426E+03  0.00000000000E+00 0.  1.
         21   -1    0    0  501  503 -0.00000000000E+00 -0.00000000000E+00 -0.44475415845E+03  0.44475415845E+03  0.00000000000E+00 0. -1.
    9000007    1    1    2  501    0 -0.13488261775E+03  0.14167466839E+03 -0.14154861144E+03  0.46722697015E+03  0.40000000000E+03 0. -1.
   -9000007    1    1    2    0  502  0.13488261775E+03 -0.14167466839E+03  0.21275424725E+03  0.49348698256E+03  0.40000000000E+03 0.  1.
<mgrwt>
<rscale>  2 0.44526962E+03</rscale>
<asrwt>0</asrwt>
<pdfrwt beam="1">  1       21 0.79378430E-01 0.44526962E+03</pdfrwt>
<pdfrwt beam="2">  1       21 0.68423717E-01 0.44526962E+03</pdfrwt>
<totfact> 0.23670289E+03</totfact>
</mgrwt>
</event>
<event>
 4    1  0.4760244E-002  0.6566363E+03  0.7818608E-02  0.9794406E-01
         21   -1    0    0  503  502  0.00000000000E+00  0.00000000000E+00  0.12015388585E+04  0.12015388585E+04  0.00000000000E+00 0. -1.
         21   -1    0    0  501  503 -0.00000000000E+00 -0.00000000000E+00 -0.53742567743E+03  0.53742567743E+03  0.00000000000E+00 0. -1.
    9000007    1    1    2  501    0  0.25617185761E+03  0.45337314049E+03 -0.16914643339E+03  0.67807207661E+03  0.40000000000E+03 0. -1.
   -9000007    1    1    2    0  502 -0.25617185761E+03 -0.45337314049E+03  0.83325961443E+03  0.10608924593E+04  0.40000000000E+03 0. -1.
<mgrwt>
<rscale>  2 0.65663630E+03</rscale>
<asrwt>0</asrwt>
<pdfrwt beam="1">  1       21 0.18485213E+00 0.65663630E+03</pdfrwt>
<pdfrwt beam="2">  1       21 0.82680873E-01 0.65663630E+03</pdfrwt>
<totfact> 0.15922730E+02</totfact>
</mgrwt>
</event>
<event>
 4    1  0.4760244E-002  0.4613111E+03  0.7818608E-02  0.1024402E+00
         21   -1    0    0  503  502  0.00000000000E+00  0.00000000000E+00  0.86186192732E+03  0.86186192732E+03  0.00000000000E+00 0. -1.
         21   -1    0    0  501  503 -0.00000000000E+00 -0.00000000000E+00 -0.25935789163E+03  0.25935789163E+03  0.00000000000E+00 0. -1.
    9000007    1    1    2  501    0  0.17910177334E+03 -0.14398071719E+03  0.42403729521E+03  0.62659039242E+03  0.40000000000E+03 0. -1.
   -9000007    1    1    2    0  502 -0.17910177334E+03  0.14398071719E+03  0.17846674047E+03  0.49462942653E+03  0.40000000000E+03 0. -1.
<mgrwt>
<rscale>  2 0.46131106E+03</rscale>
<asrwt>0</asrwt>
<pdfrwt beam="1">  1       21 0.13259414E+00 0.46131106E+03</pdfrwt>
<pdfrwt beam="2">  1       21 0.39901214E-01 0.46131106E+03</pdfrwt>
<totfact> 0.21317241E+03</totfact>
</mgrwt>
</event>
<event>
 4    1  0.4760244E-002  0.4057686E+03  0.7818608E-02  0.1041800E+00
         21   -1    0    0  501  502  0.00000000000E+00  0.00000000000E+00  0.55445630412E+03  0.55445630412E+03  0.00000000000E+00 0.  1.
         21   -1    0    0  502  503 -0.00000000000E+00 -0.00000000000E+00 -0.34996816508E+03  0.34996816508E+03  0.00000000000E+00 0.  1.
    9000007    1    1    2  501    0  0.66291371658E+02 -0.15924723629E+02  0.27824828677E+03  0.49200635349E+03  0.40000000000E+03 0.  1.
   -9000007    1    1    2    0  503 -0.66291371658E+02  0.15924723629E+02 -0.73760147730E+02  0.41241811572E+03  0.40000000000E+03 0.  1.
<mgrwt>
<rscale>  2 0.40576858E+03</rscale>
<asrwt>0</asrwt>
<pdfrwt beam="1">  1       21 0.85300970E-01 0.40576858E+03</pdfrwt>
<pdfrwt beam="2">  1       21 0.53841256E-01 0.40576858E+03</pdfrwt>
<totfact> 0.34393419E+03</totfact>
</mgrwt>
</event>
<event>
 4    1  0.4760244E-002  0.4089021E+03  0.7818608E-02  0.1040740E+00
         21   -1    0    0  501  502  0.00000000000E+00  0.00000000000E+00  0.90958265361E+03  0.90958265361E+03  0.00000000000E+00 0. -1.
         21   -1    0    0  502  503 -0.00000000000E+00 -0.00000000000E+00 -0.19916855991E+03  0.19916855991E+03  0.00000000000E+00 0. -1.
    9000007    1    1    2  501    0  0.80821081821E+02 -0.25863110691E+02  0.50909504832E+03  0.65297681122E+03  0.40000000000E+03 0. -1.
   -9000007    1    1    2    0  503 -0.80821081821E+02  0.25863110691E+02  0.20131904537E+03  0.45577440230E+03  0.40000000000E+03 0. -1.
<mgrwt>
<rscale>  2 0.40890212E+03</rscale>
<asrwt>0</asrwt>
<pdfrwt beam="1">  1       21 0.13993579E+00 0.40890212E+03</pdfrwt>
<pdfrwt beam="2">  1       21 0.30641317E-01 0.40890212E+03</pdfrwt>
<totfact> 0.32211717E+03</totfact>
</mgrwt>
</event>
<event>
 4    1  0.4760244E-002  0.4179315E+03  0.7818608E-02  0.1037742E+00
         21   -1    0    0  501  502  0.00000000000E+00  0.00000000000E+00  0.56211103996E+03  0.56211103996E+03  0.00000000000E+00 0. -1.
         21   -1    0    0  502  503 -0.00000000000E+00 -0.00000000000E+00 -0.36820295484E+03  0.36820295484E+03  0.00000000000E+00 0. -1.
    9000007    1    1    2  501    0  0.44958122946E+02  0.11245234540E+03  0.28072388695E+03  0.50346068715E+03  0.40000000000E+03 0.  1.
   -9000007    1    1    2    0  503 -0.44958122946E+02 -0.11245234540E+03 -0.86815801833E+02  0.42685330765E+03  0.40000000000E+03 0.  1.
<mgrwt>
<rscale>  2 0.41793153E+03</rscale>
<asrwt>0</asrwt>
<pdfrwt beam="1">  1       21 0.86478622E-01 0.41793153E+03</pdfrwt>
<pdfrwt beam="2">  1       21 0.56646608E-01 0.41793153E+03</pdfrwt>
<totfact> 0.29713135E+03</totfact>
</mgrwt>
</event>
<event>
 4    1  0.4760244E-002  0.4145402E+03  0.7818608E-02  0.1038858E+00
         21   -1    0    0  501  502  0.00000000000E+00  0.00000000000E+00  0.95051648761E+03  0.95051648761E+03  0.00000000000E+00 0.  1.
         21   -1    0    0  502  503 -0.00000000000E+00 -0.00000000000E+00 -0.18520312972E+03  0.18520312972E+03  0.00000000000E+00 0.  1.
    9000007    1    1    2  501    0  0.45239539875E+02 -0.98979572009E+02  0.47031760658E+03  0.62693079578E+03  0.40000000000E+03 0. -1.
   -9000007    1    1    2    0  503 -0.45239539875E+02  0.98979572009E+02  0.29499575131E+03  0.50878882155E+03  0.40000000000E+03 0. -1.
<mgrwt>
<rscale>  2 0.41454019E+03</rscale>
<asrwt>0</asrwt>
<pdfrwt beam="1">  1       21 0.14623330E+00 0.41454019E+03</pdfrwt>
<pdfrwt beam="2">  1       21 0.28492790E-01 0.41454019E+03</pdfrwt>
<totfact> 0.32997158E+03</totfact>
</mgrwt>
</event>
<event>
 4    1  0.4760244E-002  0.5196290E+03  0.7818608E-02  0.1008779E+00
         21   -1    0    0  503  502  0.00000000000E+00  0.00000000000E+00  0.30377302149E+03  0.30377302149E+03  0.00000000000E+00 0.  1.
         21   -1    0    0  501  503 -0.00000000000E+00 -0.00000000000E+00 -0.10037480738E+04  0.10037480738E+04  0.00000000000E+00 0.  1.
    9000007    1    1    2  501    0 -0.84602480940E+02 -0.32071278655E+03 -0.57115830440E+03  0.77216324694E+03  0.40000000000E+03 0.  1.
   -9000007    1    1    2    0  502  0.84602480940E+02  0.32071278655E+03 -0.12881674789E+03  0.53535784833E+03  0.40000000000E+03 0.  1.
<mgrwt>
<rscale>  2 0.51962897E+03</rscale>
<asrwt>0</asrwt>
<pdfrwt beam="1">  1       21 0.46734311E-01 0.51962897E+03</pdfrwt>
<pdfrwt beam="2">  1       21 0.15442278E+00 0.51962897E+03</pdfrwt>
<totfact> 0.99644847E+02</totfact>
</mgrwt>
</event>
<event>
 4    1  0.4760244E-002  0.4667138E+03  0.7818608E-02  0.1022852E+00
         21   -1    0    0  501  502  0.00000000000E+00  0.00000000000E+00  0.47135152407E+03  0.47135152407E+03  0.00000000000E+00 0. -1.
         21   -1    0    0  502  503 -0.00000000000E+00 -0.00000000000E+00 -0.67489679873E+03  0.67489679873E+03  0.00000000000E+00 0. -1.
    9000007    1    1    2  501    0 -0.14915532456E+03 -0.18861199910E+03  0.22003057133E+03  0.51597989241E+03  0.40000000000E+03 0. -1.
   -9000007    1    1    2    0  503  0.14915532456E+03  0.18861199910E+03 -0.42357584598E+03  0.63026843039E+03  0.40000000000E+03 0. -1.
<mgrwt>
<rscale>  2 0.46671383E+03</rscale>
<asrwt>0</asrwt>
<pdfrwt beam="1">  1       21 0.72515619E-01 0.46671383E+03</pdfrwt>
<pdfrwt beam="2">  1       21 0.10383028E+00 0.46671383E+03</pdfrwt>
<totfact> 0.10879238E+03</totfact>
</mgrwt>
</event>
<event>
 4    1  0.4760244E-002  0.4675923E+03  0.7818608E-02  0.1022602E+00
         21   -1    0    0  501  502  0.00000000000E+00  0.00000000000E+00  0.41260694335E+03  0.41260694335E+03  0.00000000000E+00 0.  1.
         21   -1    0    0  502  503 -0.00000000000E+00 -0.00000000000E+00 -0.57503006017E+03  0.57503006017E+03  0.00000000000E+00 0. -1.
    9000007    1    1    2  501    0  0.23582171817E+03 -0.55051822136E+02  0.57122708361E+02  0.47106856156E+03  0.40000000000E+03 0.  1.
   -9000007    1    1    2    0  503 -0.23582171817E+03  0.55051822136E+02 -0.21954582518E+03  0.51656844196E+03  0.40000000000E+03 0. -1.
<mgrwt>
<rscale>  2 0.46759233E+03</rscale>
<asrwt>0</asrwt>
<pdfrwt beam="1">  1       21 0.63477991E-01 0.46759233E+03</pdfrwt>
<pdfrwt beam="2">  1       21 0.88466163E-01 0.46759233E+03</pdfrwt>
<totfact> 0.21548934E+03</totfact>
</mgrwt>
</event>
<event>
 4    1  0.4760244E-002  0.4473331E+03  0.7818608E-02  0.1028520E+00
         21   -1    0    0  503  502  0.00000000000E+00  0.00000000000E+00  0.22964098438E+04  0.22964098438E+04  0.00000000000E+00 0. -1.
         21   -1    0    0  501  503 -0.00000000000E+00 -0.00000000000E+00 -0.16689166587E+03  0.16689166587E+03  0.00000000000E+00 0. -1.
    9000007    1    1    2  501    0  0.16140768867E+03 -0.11855152492E+03  0.21334114407E+03  0.49560200744E+03  0.40000000000E+03 0. -1.
   -9000007    1    1    2    0  502 -0.16140768867E+03  0.11855152492E+03  0.19161770338E+04  0.19676995022E+04  0.40000000000E+03 0. -1.
<mgrwt>
<rscale>  2 0.44733310E+03</rscale>
<asrwt>0</asrwt>
<pdfrwt beam="1">  1       21 0.35329380E+00 0.44733310E+03</pdfrwt>
<pdfrwt beam="2">  1       21 0.25675643E-01 0.44733310E+03</pdfrwt>
<totfact> 0.18560175E+02</totfact>
</mgrwt>
</event>
<event>
 4    1  0.4760244E-002  0.5798782E+03  0.7818608E-02  0.9948055E-01
         21   -1    0    0  503  502  0.00000000000E+00  0.00000000000E+00  0.14143543676E+04  0.14143543676E+04  0.00000000000E+00 0.  1.
         21   -1    0    0  501  503 -0.00000000000E+00 -0.00000000000E+00 -0.24343248872E+03  0.24343248872E+03  0.00000000000E+00 0.  1.
    9000007    1    1    2  501    0  0.13287834013E+03  0.39824871454E+03  0.71213519391E+03  0.91836551890E+03  0.40000000000E+03 0.  1.
   -9000007    1    1    2    0  502 -0.13287834013E+03 -0.39824871454E+03  0.45878668493E+03  0.73942133738E+03  0.40000000000E+03 0.  1.
<mgrwt>
<rscale>  2 0.57987817E+03</rscale>
<asrwt>0</asrwt>
<pdfrwt beam="1">  1       21 0.21759298E+00 0.57987817E+03</pdfrwt>
<pdfrwt beam="2">  1       21 0.37451153E-01 0.57987817E+03</pdfrwt>
<totfact> 0.55592836E+02</totfact>
</mgrwt>
</event>
<event>
 4    1  0.4760244E-002  0.4114277E+03  0.7818608E-02  0.1039893E+00
         21   -1    0    0  503  502  0.00000000000E+00  0.00000000000E+00  0.21755507803E+03  0.21755507803E+03  0.00000000000E+00 0. -1.
         21   -1    0    0  501  503 -0.00000000000E+00 -0.00000000000E+00 -0.11265034624E+04  0.11265034624E+04  0.00000000000E+00 0.  1.
    9000007    1    1    2  501    0 -0.16437123323E+02 -0.94881739248E+02 -0.82822563000E+03  0.92478668765E+03  0.40000000000E+03 0.  1.
   -9000007    1    1    2    0  502  0.16437123323E+02  0.94881739248E+02 -0.80722754378E+02  0.41927185279E+03  0.40000000000E+03 0. -1.
<mgrwt>
<rscale>  2 0.41142766E+03</rscale>
<asrwt>0</asrwt>
<pdfrwt beam="1">  1       21 0.33470013E-01 0.41142766E+03</pdfrwt>
<pdfrwt beam="2">  1       21 0.17330822E+00 0.41142766E+03</pdfrwt>
<totfact> 0.14980194E+03</totfact>
</mgrwt>
</event>
<event>
 4    1  0.4760244E-002  0.4859829E+03  0.7818608E-02  0.1017504E+00
         21   -1    0    0  501  502  0.00000000000E+00  0.00000000000E+00  0.25437288742E+03  0.25437288742E+03  0.00000000000E+00 0.  1.
         21   -1    0    0  502  503 -0.00000000000E+00 -0.00000000000E+00 -0.93343529613E+03  0.93343529613E+03  0.00000000000E+00 0.  1.
    9000007    1    1    2  501    0  0.12554676236E+03  0.24579948863E+03 -0.29624595098E+03  0.56915818682E+03  0.40000000000E+03 0.  1.
   -9000007    1    1    2    0  503 -0.12554676236E+03 -0.24579948863E+03 -0.38281645773E+03  0.61864999673E+03  0.40000000000E+03 0.  1.
<mgrwt>
<rscale>  2 0.48598290E+03</rscale>
<asrwt>0</asrwt>
<pdfrwt beam="1">  1       21 0.39134289E-01 0.48598290E+03</pdfrwt>
<pdfrwt beam="2">  1       21 0.14360543E+00 0.48598290E+03</pdfrwt>
<totfact> 0.17794685E+03</totfact>
</mgrwt>
</event>
<event>
 4    1  0.4760244E-002  0.4513696E+03  0.7818608E-02  0.1027314E+00
         21   -1    0    0  501  502  0.00000000000E+00  0.00000000000E+00  0.21493263649E+03  0.21493263649E+03  0.00000000000E+00 0.  1.
         21   -1    0    0  502  503 -0.00000000000E+00 -0.00000000000E+00 -0.15004024207E+04  0.15004024207E+04  0.00000000000E+00 0.  1.
    9000007    1    1    2  501    0  0.16329811538E+02  0.20848955259E+03 -0.12228089686E+03  0.46764000473E+03  0.40000000000E+03 0.  1.
   -9000007    1    1    2    0  503 -0.16329811538E+02 -0.20848955259E+03 -0.11631888874E+04  0.12476950525E+04  0.40000000000E+03 0.  1.
<mgrwt>
<rscale>  2 0.45136964E+03</rscale>
<asrwt>0</asrwt>
<pdfrwt beam="1">  1       21 0.33066561E-01 0.45136964E+03</pdfrwt>
<pdfrwt beam="2">  1       21 0.23083113E+00 0.45136964E+03</pdfrwt>
<totfact> 0.62320316E+02</totfact>
</mgrwt>
</event>
<event>
 4    1  0.4760244E-002  0.4178015E+03  0.7818608E-02  0.1037784E+00
         21   -1    0    0  503  502  0.00000000000E+00  0.00000000000E+00  0.14995918785E+03  0.14995918785E+03  0.00000000000E+00 0. -1.
         21   -1    0    0  501  503 -0.00000000000E+00 -0.00000000000E+00 -0.12076260473E+04  0.12076260473E+04  0.00000000000E+00 0. -1.
    9000007    1    1    2  501    0  0.92521793948E+02 -0.77445381876E+02 -0.65779451719E+03  0.77926356027E+03  0.40000000000E+03 0. -1.
   -9000007    1    1    2    0  502 -0.92521793948E+02  0.77445381876E+02 -0.39987234226E+03  0.57832167488E+03  0.40000000000E+03 0. -1.
<mgrwt>
<rscale>  2 0.41780147E+03</rscale>
<asrwt>0</asrwt>
<pdfrwt beam="1">  1       21 0.23070645E-01 0.41780147E+03</pdfrwt>
<pdfrwt beam="2">  1       21 0.18578862E+00 0.41780147E+03</pdfrwt>
<totfact> 0.25361865E+03</totfact>
</mgrwt>
</event>
<event>
 4    1  0.4760244E-002  0.4026571E+03  0.7818608E-02  0.1042863E+00
         21   -1    0    0  503  502  0.00000000000E+00  0.00000000000E+00  0.15101717774E+04  0.15101717774E+04  0.00000000000E+00 0. -1.
         21   -1    0    0  501  503 -0.00000000000E+00 -0.00000000000E+00 -0.12123074878E+03  0.12123074878E+03  0.00000000000E+00 0. -1.
    9000007    1    1    2  501    0 -0.44944130096E+02 -0.10620860098E+02  0.97038027822E+03  0.10506049028E+04  0.40000000000E+03 0. -1.
   -9000007    1    1    2    0  502  0.44944130096E+02  0.10620860098E+02  0.41856075038E+03  0.58079762332E+03  0.40000000000E+03 0. -1.
<mgrwt>
<rscale>  2 0.40265715E+03</rscale>
<asrwt>0</asrwt>
<pdfrwt beam="1">  1       21 0.23233411E+00 0.40265715E+03</pdfrwt>
<pdfrwt beam="2">  1       21 0.18650885E-01 0.40265715E+03</pdfrwt>
<totfact> 0.19033716E+03</totfact>
</mgrwt>
</event>
<event>
 4    1  0.4760244E-002  0.4123474E+03  0.7818608E-02  0.1039586E+00
         21   -1    0    0  503  502  0.00000000000E+00  0.00000000000E+00  0.75807966918E+03  0.75807966918E+03  0.00000000000E+00 0.  1.
         21   -1    0    0  501  503 -0.00000000000E+00 -0.00000000000E+00 -0.36470884056E+03  0.36470884056E+03  0.00000000000E+00 0.  1.
    9000007    1    1    2  501    0 -0.10014305565E+03 -0.13140811091E+01 -0.15165682900E+03  0.43935196846E+03  0.40000000000E+03 0.  1.
   -9000007    1    1    2    0  502  0.10014305565E+03  0.13140811091E+01  0.54502765761E+03  0.68343654129E+03  0.40000000000E+03 0.  1.
<mgrwt>
<rscale>  2 0.41234738E+03</rscale>
<asrwt>0</asrwt>
<pdfrwt beam="1">  1       21 0.11662764E+00 0.41234738E+03</pdfrwt>
<pdfrwt beam="2">  1       21 0.56109053E-01 0.41234738E+03</pdfrwt>
<totfact> 0.14717359E+03</totfact>
</mgrwt>
</event>
<event>
 4    1  0.4760244E-002  0.4300525E+03  0.7818608E-02  0.1033843E+00
         21   -1    0    0  503  502  0.00000000000E+00  0.00000000000E+00  0.12965007498E+04  0.12965007498E+04  0.00000000000E+00 0.  1.
         21   -1    0    0  501  503 -0.00000000000E+00 -0.00000000000E+00 -0.14506143722E+03  0.14506143722E+03  0.00000000000E+00 0.  1.
    9000007    1    1    2  501    0  0.15245847238E+03 -0.41250109150E+02  0.66866170310E+03  0.79501800640E+03  0.40000000000E+03 0. -1.
   -9000007    1    1    2    0  502 -0.15245847238E+03  0.41250109150E+02  0.48277760952E+03  0.64654418067E+03  0.40000000000E+03 0. -1.
<mgrwt>
<rscale>  2 0.43005251E+03</rscale>
<asrwt>0</asrwt>
<pdfrwt beam="1">  1       21 0.19946165E+00 0.43005251E+03</pdfrwt>
<pdfrwt beam="2">  1       21 0.22317145E-01 0.43005251E+03</pdfrwt>
<totfact> 0.21721476E+03</totfact>
</mgrwt>
</event>
<event>
 4    1  0.4760244E-002  0.5763432E+03  0.7818608E-02  0.9955740E-01
         21   -1    0    0  503  502  0.00000000000E+00  0.00000000000E+00  0.14444167550E+04  0.14444167550E+04  0.00000000000E+00 0. -1.
         21   -1    0    0  501  503 -0.00000000000E+00 -0.00000000000E+00 -0.23034168192E+03  0.23034168192E+03  0.00000000000E+00 0. -1.
    9000007    1    1    2  501    0 -0.34863511910E+03 -0.22500000569E+03  0.64070845183E+03  0.86178812308E+03  0.40000000000E+03 0. -1.
   -9000007    1    1    2    0  502  0.34863511910E+03  0.22500000569E+03  0.57336662128E+03  0.81297031387E+03  0.40000000000E+03 0. -1.
<mgrwt>
<rscale>  2 0.57634317E+03</rscale>
<asrwt>0</asrwt>
<pdfrwt beam="1">  1       21 0.22221796E+00 0.57634317E+03</pdfrwt>
<pdfrwt beam="2">  1       21 0.35437183E-01 0.57634317E+03</pdfrwt>
<totfact> 0.58181516E+02</totfact>
</mgrwt>
</event>
<event>
 4    1  0.4760244E-002  0.4135993E+03  0.7818608E-02  0.1039170E+00
         21   -1    0    0  501  502  0.00000000000E+00  0.00000000000E+00  0.29519320995E+03  0.29519320995E+03  0.00000000000E+00 0. -1.
         21   -1    0    0  502  503 -0.00000000000E+00 -0.00000000000E+00 -0.72050361899E+03  0.72050361899E+03  0.00000000000E+00 0. -1.
    9000007    1    1    2  501    0  0.91555854558E+02  0.51786978764E+02  0.12007853667E+02  0.41377355428E+03  0.40000000000E+03 0. -1.
   -9000007    1    1    2    0  503 -0.91555854558E+02 -0.51786978764E+02 -0.43731826271E+03  0.60192327465E+03  0.40000000000E+03 0. -1.
<mgrwt>
<rscale>  2 0.41359928E+03</rscale>
<asrwt>0</asrwt>
<pdfrwt beam="1">  1       21 0.45414340E-01 0.41359928E+03</pdfrwt>
<pdfrwt beam="2">  1       21 0.11084671E+00 0.41359928E+03</pdfrwt>
<totfact> 0.26175585E+03</totfact>
</mgrwt>
</event>
<event>
 4    1  0.4760244E-002  0.4633969E+03  0.7818608E-02  0.1023801E+00
         21   -1    0    0  501  502  0.00000000000E+00  0.00000000000E+00  0.13155399878E+03  0.13155399878E+03  0.00000000000E+00 0. -1.
         21   -1    0    0  502  503 -0.00000000000E+00 -0.00000000000E+00 -0.16600847248E+04  0.16600847248E+04  0.00000000000E+00 0. -1.
    9000007    1    1    2  501    0  0.21892088099E+03  0.82524876487E+02 -0.88014099302E+03  0.99467827712E+03  0.40000000000E+03 0.  1.
   -9000007    1    1    2    0  503 -0.21892088099E+03 -0.82524876487E+02 -0.64838973301E+03  0.79696044648E+03  0.40000000000E+03 0.  1.
<mgrwt>
<rscale>  2 0.46339692E+03</rscale>
<asrwt>0</asrwt>
<pdfrwt beam="1">  1       21 0.20239077E-01 0.46339692E+03</pdfrwt>
<pdfrwt beam="2">  1       21 0.25539765E+00 0.46339692E+03</pdfrwt>
<totfact> 0.11396697E+03</totfact>
</mgrwt>
</event>
<event>
 4    1  0.4760244E-002  0.5121849E+03  0.7818608E-02  0.1010647E+00
         21   -1    0    0  503  502  0.00000000000E+00  0.00000000000E+00  0.91512556392E+03  0.91512556392E+03  0.00000000000E+00 0. -1.
         21   -1    0    0  501  503 -0.00000000000E+00 -0.00000000000E+00 -0.44197730473E+03  0.44197730473E+03  0.00000000000E+00 0. -1.
    9000007    1    1    2  501    0 -0.28845636324E+03  0.13829774910E+03 -0.16566789798E+03  0.53831142782E+03  0.40000000000E+03 0. -1.
   -9000007    1    1    2    0  502  0.28845636324E+03 -0.13829774910E+03  0.63881615718E+03  0.81879144083E+03  0.40000000000E+03 0. -1.
<mgrwt>
<rscale>  2 0.51218487E+03</rscale>
<asrwt>0</asrwt>
<pdfrwt beam="1">  1       21 0.14078855E+00 0.51218487E+03</pdfrwt>
<pdfrwt beam="2">  1       21 0.67996509E-01 0.51218487E+03</pdfrwt>
<totfact> 0.56780965E+02</totfact>
</mgrwt>
</event>
<event>
 4    1  0.4760244E-002  0.6129528E+03  0.7818608E-02  0.9878892E-01
         21   -1    0    0  503  502  0.00000000000E+00  0.00000000000E+00  0.74465328391E+03  0.74465328391E+03  0.00000000000E+00 0.  1.
         21   -1    0    0  501  503 -0.00000000000E+00 -0.00000000000E+00 -0.57096521705E+03  0.57096521705E+03  0.00000000000E+00 0.  1.
    9000007    1    1    2  501    0 -0.32074202795E+03 -0.33591025234E+03 -0.13751577176E+03  0.62818924983E+03  0.40000000000E+03 0.  1.
   -9000007    1    1    2    0  502  0.32074202795E+03  0.33591025234E+03  0.31120383862E+03  0.68742925112E+03  0.40000000000E+03 0.  1.
<mgrwt>
<rscale>  2 0.61295281E+03</rscale>
<asrwt>0</asrwt>
<pdfrwt beam="1">  1       21 0.11456204E+00 0.61295281E+03</pdfrwt>
<pdfrwt beam="2">  1       21 0.87840802E-01 0.61295281E+03</pdfrwt>
<totfact> 0.51827411E+02</totfact>
</mgrwt>
</event>
<event>
 4    1  0.4760244E-002  0.5308768E+03  0.7818608E-02  0.1006020E+00
         21   -1    0    0  503  502  0.00000000000E+00  0.00000000000E+00  0.88176979095E+03  0.88176979095E+03  0.00000000000E+00 0. -1.
         21   -1    0    0  501  503 -0.00000000000E+00 -0.00000000000E+00 -0.62422324880E+03  0.62422324880E+03  0.00000000000E+00 0.  1.
    9000007    1    1    2  501    0  0.25875177197E+03  0.23425983953E+03 -0.39723328971E+03  0.66304180740E+03  0.40000000000E+03 0.  1.
   -9000007    1    1    2    0  502 -0.25875177197E+03 -0.23425983953E+03  0.65477983186E+03  0.84295123235E+03  0.40000000000E+03 0. -1.
<mgrwt>
<rscale>  2 0.53087678E+03</rscale>
<asrwt>0</asrwt>
<pdfrwt beam="1">  1       21 0.13565689E+00 0.53087678E+03</pdfrwt>
<pdfrwt beam="2">  1       21 0.96034346E-01 0.53087678E+03</pdfrwt>
<totfact> 0.27873044E+02</totfact>
</mgrwt>
</event>
<event>
 4    1  0.4760244E-002  0.5119239E+03  0.7818608E-02  0.1010713E+00
         21   -1    0    0  503  502  0.00000000000E+00  0.00000000000E+00  0.13628656310E+04  0.13628656310E+04  0.00000000000E+00 0. -1.
         21   -1    0    0  501  503 -0.00000000000E+00 -0.00000000000E+00 -0.19713141903E+03  0.19713141903E+03  0.00000000000E+00 0. -1.
    9000007    1    1    2  501    0 -0.31328660644E+03  0.62590746159E+02  0.46063642296E+03  0.68865957732E+03  0.40000000000E+03 0. -1.
   -9000007    1    1    2    0  502  0.31328660644E+03 -0.62590746159E+02  0.70509778906E+03  0.87133747275E+03  0.40000000000E+03 0. -1.
<mgrwt>
<rscale>  2 0.51192392E+03</rscale>
<asrwt>0</asrwt>
<pdfrwt beam="1">  1       21 0.20967163E+00 0.51192392E+03</pdfrwt>
<pdfrwt beam="2">  1       21 0.30327911E-01 0.51192392E+03</pdfrwt>
<totfact> 0.98546100E+02</totfact>
</mgrwt>
</event>
<event>
 4    1  0.4760244E-002  0.4487988E+03  0.7818608E-02  0.1028081E+00
         21   -1    0    0  503  502  0.00000000000E+00  0.00000000000E+00  0.67823530957E+03  0.67823530957E+03  0.00000000000E+00 0. -1.
         21   -1    0    0  501  503 -0.00000000000E+00 -0.00000000000E+00 -0.56700936953E+03  0.56700936953E+03  0.00000000000E+00 0. -1.
    9000007    1    1    2  501    0 -0.16092814577E+03 -0.12458929198E+03 -0.37405938214E+03  0.58424376859E+03  0.40000000000E+03 0. -1.
   -9000007    1    1    2    0  502  0.16092814577E+03  0.12458929198E+03  0.48528532218E+03  0.66100091051E+03  0.40000000000E+03 0. -1.
<mgrwt>
<rscale>  2 0.44879880E+03</rscale>
<asrwt>0</asrwt>
<pdfrwt beam="1">  1       21 0.10434389E+00 0.44879880E+03</pdfrwt>
<pdfrwt beam="2">  1       21 0.87232210E-01 0.44879880E+03</pdfrwt>
<totfact> 0.70672199E+02</totfact>
</mgrwt>
</event>
<event>
 4    1  0.4760244E-002  0.5379674E+03  0.7818608E-02  0.1004318E+00
         21   -1    0    0  501  502  0.00000000000E+00  0.00000000000E+00  0.23907478425E+03  0.23907478425E+03  0.00000000000E+00 0. -1.
         21   -1    0    0  502  503 -0.00000000000E+00 -0.00000000000E+00 -0.12560850155E+04  0.12560850155E+04  0.00000000000E+00 0. -1.
    9000007    1    1    2  501    0  0.35529664504E+03  0.56331560016E+02 -0.36614731739E+03  0.65074788410E+03  0.40000000000E+03 0. -1.
   -9000007    1    1    2    0  503 -0.35529664504E+03 -0.56331560016E+02 -0.65086291382E+03  0.84441191561E+03  0.40000000000E+03 0. -1.
<mgrwt>
<rscale>  2 0.53796743E+03</rscale>
<asrwt>0</asrwt>
<pdfrwt beam="1">  1       21 0.36780737E-01 0.53796743E+03</pdfrwt>
<pdfrwt beam="2">  1       21 0.19324384E+00 0.53796743E+03</pdfrwt>
<totfact> 0.85115662E+02</totfact>
</mgrwt>
</event>
<event>
 4    1  0.4760244E-002  0.4109118E+03  0.7818608E-02  0.1040065E+00
         21   -1    0    0  503  502  0.00000000000E+00  0.00000000000E+00  0.28777905348E+03  0.28777905348E+03  0.00000000000E+00 0. -1.
         21   -1    0    0  501  503 -0.00000000000E+00 -0.00000000000E+00 -0.13962871057E+04  0.13962871057E+04  0.00000000000E+00 0. -1.
    9000007    1    1    2  501    0  0.43381605309E+02  0.83465666708E+02 -0.11954128869E+04  0.12640650502E+04  0.40000000000E+03 0. -1.
   -9000007    1    1    2    0  502 -0.43381605309E+02 -0.83465666708E+02  0.86904834664E+02  0.42000110891E+03  0.40000000000E+03 0. -1.
<mgrwt>
<rscale>  2 0.41091177E+03</rscale>
<asrwt>0</asrwt>
<pdfrwt beam="1">  1       21 0.44273702E-01 0.41091177E+03</pdfrwt>
<pdfrwt beam="2">  1       21 0.21481340E+00 0.41091177E+03</pdfrwt>
<totfact> 0.44285173E+02</totfact>
</mgrwt>
</event>
<event>
 4    1  0.4760244E-002  0.4346715E+03  0.7818608E-02  0.1032394E+00
         21   -1    0    0  503  502  0.00000000000E+00  0.00000000000E+00  0.22867682262E+03  0.22867682262E+03  0.00000000000E+00 0. -1.
         21   -1    0    0  501  503 -0.00000000000E+00 -0.00000000000E+00 -0.83135703356E+03  0.83135703356E+03  0.00000000000E+00 0. -1.
    9000007    1    1    2  501    0  0.16790924989E+03 -0.27308581856E+02 -0.25971084285E+03  0.50634869086E+03  0.40000000000E+03 0. -1.
   -9000007    1    1    2    0  502 -0.16790924989E+03  0.27308581856E+02 -0.34296936810E+03  0.55368516532E+03  0.40000000000E+03 0. -1.
<mgrwt>
<rscale>  2 0.43467146E+03</rscale>
<asrwt>0</asrwt>
<pdfrwt beam="1">  1       21 0.35181050E-01 0.43467146E+03</pdfrwt>
<pdfrwt beam="2">  1       21 0.12790108E+00 0.43467146E+03</pdfrwt>
<totfact> 0.30571969E+03</totfact>
</mgrwt>
</event>
<event>
 4    1  0.4760244E-002  0.4219399E+03  0.7818608E-02  0.1036437E+00
         21   -1    0    0  501  502  0.00000000000E+00  0.00000000000E+00  0.16975887001E+03  0.16975887001E+03  0.00000000000E+00 0.  1.
         21   -1    0    0  502  503 -0.00000000000E+00 -0.00000000000E+00 -0.12969297638E+04  0.12969297638E+04  0.00000000000E+00 0.  1.
    9000007    1    1    2  501    0  0.11833723067E+03  0.63479165983E+02 -0.24278154738E+03  0.48680199715E+03  0.40000000000E+03 0.  1.
   -9000007    1    1    2    0  503 -0.11833723067E+03 -0.63479165983E+02 -0.88438934644E+03  0.97988663669E+03  0.40000000000E+03 0.  1.
<mgrwt>
<rscale>  2 0.42193993E+03</rscale>
<asrwt>0</asrwt>
<pdfrwt beam="1">  1       21 0.26116750E-01 0.42193993E+03</pdfrwt>
<pdfrwt beam="2">  1       21 0.19952765E+00 0.42193993E+03</pdfrwt>
<totfact> 0.16061920E+03</totfact>
</mgrwt>
</event>
<event>
 4    1  0.4760244E-002  0.4691563E+03  0.7818608E-02  0.1022159E+00
         21   -1    0    0  501  502  0.00000000000E+00  0.00000000000E+00  0.22416929409E+03  0.22416929409E+03  0.00000000000E+00 0.  1.
         21   -1    0    0  502  503 -0.00000000000E+00 -0.00000000000E+00 -0.10189232411E+04  0.10189232411E+04  0.00000000000E+00 0. -1.
    9000007    1    1    2  501    0  0.13878906417E+03  0.20210199418E+03 -0.51588562475E+03  0.69731312781E+03  0.40000000000E+03 0. -1.
   -9000007    1    1    2    0  503 -0.13878906417E+03 -0.20210199418E+03 -0.27886832228E+03  0.54577940741E+03  0.40000000000E+03 0.  1.
<mgrwt>
<rscale>  2 0.46915629E+03</rscale>
<asrwt>0</asrwt>
<pdfrwt beam="1">  1       21 0.34487583E-01 0.46915629E+03</pdfrwt>
<pdfrwt beam="2">  1       21 0.15675742E+00 0.46915629E+03</pdfrwt>
<totfact> 0.18253896E+03</totfact>
</mgrwt>
</event>
<event>
 4    1  0.4760244E-002  0.4092338E+03  0.7818608E-02  0.1040628E+00
         21   -1    0    0  501  502  0.00000000000E+00  0.00000000000E+00  0.62119746655E+03  0.62119746655E+03  0.00000000000E+00 0. -1.
         21   -1    0    0  502  503 -0.00000000000E+00 -0.00000000000E+00 -0.27584566888E+03  0.27584566888E+03  0.00000000000E+00 0. -1.
    9000007    1    1    2  501    0 -0.71234947980E+02 -0.48968503791E+02  0.24018772728E+03  0.47451288340E+03  0.40000000000E+03 0.  1.
   -9000007    1    1    2    0  503  0.71234947980E+02  0.48968503791E+02  0.10516407039E+03  0.42253025203E+03  0.40000000000E+03 0.  1.
<mgrwt>
<rscale>  2 0.40923384E+03</rscale>
<asrwt>0</asrwt>
<pdfrwt beam="1">  1       21 0.95568841E-01 0.40923384E+03</pdfrwt>
<pdfrwt beam="2">  1       21 0.42437795E-01 0.40923384E+03</pdfrwt>
<totfact> 0.43368331E+03</totfact>
</mgrwt>
</event>
<event>
 4    1  0.4760244E-002  0.4221293E+03  0.7818608E-02  0.1036376E+00
         21   -1    0    0  503  502  0.00000000000E+00  0.00000000000E+00  0.18525963612E+03  0.18525963612E+03  0.00000000000E+00 0.  1.
         21   -1    0    0  501  503 -0.00000000000E+00 -0.00000000000E+00 -0.96208622409E+03  0.96208622409E+03  0.00000000000E+00 0. -1.
    9000007    1    1    2  501    0  0.11869123632E+03  0.64074687990E+02 -0.39727896280E+03  0.57967555538E+03  0.40000000000E+03 0. -1.
   -9000007    1    1    2    0  502 -0.11869123632E+03 -0.64074687990E+02 -0.37954762517E+03  0.56767030483E+03  0.40000000000E+03 0.  1.
<mgrwt>
<rscale>  2 0.42212933E+03</rscale>
<asrwt>0</asrwt>
<pdfrwt beam="1">  1       21 0.28501482E-01 0.42212933E+03</pdfrwt>
<pdfrwt beam="2">  1       21 0.14801327E+00 0.42212933E+03</pdfrwt>
<totfact> 0.31823752E+03</totfact>
</mgrwt>
</event>
<event>
 4    1  0.4760244E-002  0.4954748E+03  0.7818608E-02  0.1014967E+00
         21   -1    0    0  503  502  0.00000000000E+00  0.00000000000E+00  0.26216580927E+03  0.26216580927E+03  0.00000000000E+00 0. -1.
         21   -1    0    0  501  503 -0.00000000000E+00 -0.00000000000E+00 -0.93974000948E+03  0.93974000948E+03  0.00000000000E+00 0. -1.
    9000007    1    1    2  501    0 -0.23062380913E+03  0.17974397809E+03 -0.37454908301E+03  0.62111372114E+03  0.40000000000E+03 0. -1.
   -9000007    1    1    2    0  502  0.23062380913E+03 -0.17974397809E+03 -0.30302511720E+03  0.58079209762E+03  0.40000000000E+03 0. -1.
<mgrwt>
<rscale>  2 0.49547476E+03</rscale>
<asrwt>0</asrwt>
<pdfrwt beam="1">  1       21 0.40333202E-01 0.49547476E+03</pdfrwt>
<pdfrwt beam="2">  1       21 0.14457538E+00 0.49547476E+03</pdfrwt>
<totfact> 0.16363389E+03</totfact>
</mgrwt>
</event>
<event>
 4    1  0.4760244E-002  0.4013210E+03  0.7818608E-02  0.1043323E+00
         21   -1    0    0  501  502  0.00000000000E+00  0.00000000000E+00  0.28945880666E+03  0.28945880666E+03  0.00000000000E+00 0. -1.
         21   -1    0    0  502  503 -0.00000000000E+00 -0.00000000000E+00 -0.93493059157E+03  0.93493059157E+03  0.00000000000E+00 0. -1.
    9000007    1    1    2  501    0  0.12610738722E+02 -0.29991797998E+02  0.66796089308E+02  0.40684180737E+03  0.40000000000E+03 0. -1.
   -9000007    1    1    2    0  503 -0.12610738722E+02  0.29991797998E+02 -0.71226787422E+03  0.81754759086E+03  0.40000000000E+03 0. -1.
<mgrwt>
<rscale>  2 0.40132099E+03</rscale>
<asrwt>0</asrwt>
<pdfrwt beam="1">  1       21 0.44532124E-01 0.40132099E+03</pdfrwt>
<pdfrwt beam="2">  1       21 0.14383548E+00 0.40132099E+03</pdfrwt>
<totfact> 0.14038444E+03</totfact>
</mgrwt>
</event>
<event>
 4    1  0.4760244E-002  0.4694869E+03  0.7818608E-02  0.1022065E+00
         21   -1    0    0  501  502  0.00000000000E+00  0.00000000000E+00  0.12880051409E+04  0.12880051409E+04  0.00000000000E+00 0. -1.
         21   -1    0    0  502  503 -0.00000000000E+00 -0.00000000000E+00 -0.21869363972E+03  0.21869363972E+03  0.00000000000E+00 0. -1.
    9000007    1    1    2  501    0 -0.23831161585E+03  0.60212686415E+02  0.88598149187E+03  0.10026869889E+04  0.40000000000E+03 0. -1.
   -9000007    1    1    2    0  503  0.23831161585E+03 -0.60212686415E+02  0.18333000934E+03  0.50401179171E+03  0.40000000000E+03 0. -1.
<mgrwt>
<rscale>  2 0.46948695E+03</rscale>
<asrwt>0</asrwt>
<pdfrwt beam="1">  1       21 0.19815463E+00 0.46948695E+03</pdfrwt>
<pdfrwt beam="2">  1       21 0.33645176E-01 0.46948695E+03</pdfrwt>
<totfact> 0.97141180E+02</totfact>
</mgrwt>
</event>
<event>
 4    1  0.4760244E-002  0.4198158E+03  0.7818608E-02  0.1037126E+00
         21   -1    0    0  503  502  0.00000000000E+00  0.00000000000E+00  0.86956152712E+03  0.86956152712E+03  0.00000000000E+00 0.  1.
         21   -1    0    0  501  503 -0.00000000000E+00 -0.00000000000E+00 -0.23087334490E+03  0.23087334490E+03  0.00000000000E+00 0.  1.
    9000007    1    1    2  501    0 -0.82912872240E+02 -0.96802860160E+02  0.12708023266E+03  0.43862822943E+03  0.40000000000E+03 0.  1.
   -9000007    1    1    2    0  502  0.82912872240E+02  0.96802860160E+02  0.51160794957E+03  0.66180664259E+03  0.40000000000E+03 0.  1.
<mgrwt>
<rscale>  2 0.41981584E+03</rscale>
<asrwt>0</asrwt>
<pdfrwt beam="1">  1       21 0.13377869E+00 0.41981584E+03</pdfrwt>
<pdfrwt beam="2">  1       21 0.35518977E-01 0.41981584E+03</pdfrwt>
<totfact> 0.26841862E+03</totfact>
</mgrwt>
</event>
<event>
 4    1  0.4760244E-002  0.4220218E+03  0.7818608E-02  0.1036410E+00
         21   -1    0    0  501  502  0.00000000000E+00  0.00000000000E+00  0.11961040121E+03  0.11961040121E+03  0.00000000000E+00 0.  1.
         21   -1    0    0  502  503 -0.00000000000E+00 -0.00000000000E+00 -0.18871321263E+04  0.18871321263E+04  0.00000000000E+00 0.  1.
    9000007    1    1    2  501    0  0.12598187963E+03 -0.47233148702E+02 -0.42290762892E+03  0.59745566106E+03  0.40000000000E+03 0. -1.
   -9000007    1    1    2    0  503 -0.12598187963E+03  0.47233148702E+02 -0.13446140961E+04  0.14092868664E+04  0.40000000000E+03 0. -1.
<mgrwt>
<rscale>  2 0.42202181E+03</rscale>
<asrwt>0</asrwt>
<pdfrwt beam="1">  1       21 0.18401600E-01 0.42202181E+03</pdfrwt>
<pdfrwt beam="2">  1       21 0.29032802E+00 0.42202181E+03</pdfrwt>
<totfact> 0.85783339E+02</totfact>
</mgrwt>
</event>
<event>
 4    1  0.4760244E-002  0.4408450E+03  0.7818608E-02  0.1030488E+00
         21   -1    0    0  501  502  0.00000000000E+00  0.00000000000E+00  0.17917992979E+03  0.17917992979E+03  0.00000000000E+00 0.  1.
         21   -1    0    0  502  503 -0.00000000000E+00 -0.00000000000E+00 -0.11528565167E+04  0.11528565167E+04  0.00000000000E+00 0.  1.
    9000007    1    1    2  501    0  0.23842099662E+02  0.18378204463E+03 -0.32481826051E+03  0.54758669451E+03  0.40000000000E+03 0. -1.
   -9000007    1    1    2    0  503 -0.23842099662E+02 -0.18378204463E+03 -0.64885832638E+03  0.78444975196E+03  0.40000000000E+03 0. -1.
<mgrwt>
<rscale>  2 0.44084497E+03</rscale>
<asrwt>0</asrwt>
<pdfrwt beam="1">  1       21 0.27566144E-01 0.44084497E+03</pdfrwt>
<pdfrwt beam="2">  1       21 0.17736253E+00 0.44084497E+03</pdfrwt>
<totfact> 0.20345316E+03</totfact>
</mgrwt>
</event>
<event>
 4    1  0.4760244E-002  0.4009000E+03  0.7818608E-02  0.1043468E+00
         21   -1    0    0  503  502  0.00000000000E+00  0.00000000000E+00  0.12028794351E+04  0.12028794351E+04  0.00000000000E+00 0.  1.
         21   -1    0    0  501  503 -0.00000000000E+00 -0.00000000000E+00 -0.24792613018E+03  0.24792613018E+03  0.00000000000E+00 0.  1.
    9000007    1    1    2  501    0 -0.66659360446E+01  0.26007395641E+02 -0.15090392387E+02  0.40118392200E+03  0.40000000000E+03 0.  1.
   -9000007    1    1    2    0  502  0.66659360446E+01 -0.26007395641E+02  0.97004369729E+03  0.10496216432E+04  0.40000000000E+03 0.  1.
<mgrwt>
<rscale>  2 0.40090001E+03</rscale>
<asrwt>0</asrwt>
<pdfrwt beam="1">  1       21 0.18505837E+00 0.40090001E+03</pdfrwt>
<pdfrwt beam="2">  1       21 0.38142482E-01 0.40090001E+03</pdfrwt>
<totfact> 0.95523277E+02</totfact>
</mgrwt>
</event>
<event>
 4    1  0.4760244E-002  0.4258387E+03  0.7818608E-02  0.1035183E+00
         21   -1    0    0  503  502  0.00000000000E+00  0.00000000000E+00  0.11013535428E+04  0.11013535428E+04  0.00000000000E+00 0. -1.
         21   -1    0    0  501  503 -0.00000000000E+00 -0.00000000000E+00 -0.30187383192E+03  0.30187383192E+03  0.00000000000E+00 0. -1.
    9000007    1    1    2  501    0  0.13209945661E+03 -0.62356206941E+02 -0.73301468479E+02  0.43210145598E+03  0.40000000000E+03 0. -1.
   -9000007    1    1    2    0  502 -0.13209945661E+03  0.62356206941E+02  0.87278117934E+03  0.97112591871E+03  0.40000000000E+03 0. -1.
<mgrwt>
<rscale>  2 0.42583866E+03</rscale>
<asrwt>0</asrwt>
<pdfrwt beam="1">  1       21 0.16943900E+00 0.42583866E+03</pdfrwt>
<pdfrwt beam="2">  1       21 0.46442129E-01 0.42583866E+03</pdfrwt>
<totfact> 0.80981439E+02</totfact>
</mgrwt>
</event>
<event>
 4    1  0.4760244E-002  0.4495102E+03  0.7818608E-02  0.1027868E+00
         21   -1    0    0  501  502  0.00000000000E+00  0.00000000000E+00  0.15302678177E+04  0.15302678177E+04  0.00000000000E+00 0. -1.
         21   -1    0    0  502  503 -0.00000000000E+00 -0.00000000000E+00 -0.13826259855E+03  0.13826259855E+03  0.00000000000E+00 0.  1.
    9000007    1    1    2  501    0  0.78119291112E+02 -0.18962274738E+03  0.87296163839E+03  0.98189685409E+03  0.40000000000E+03 0.  1.
   -9000007    1    1    2    0  503 -0.78119291112E+02  0.18962274738E+03  0.51904358077E+03  0.68663356217E+03  0.40000000000E+03 0.  1.
<mgrwt>
<rscale>  2 0.44951019E+03</rscale>
<asrwt>0</asrwt>
<pdfrwt beam="1">  1       21 0.23542581E+00 0.44951019E+03</pdfrwt>
<pdfrwt beam="2">  1       21 0.21271170E-01 0.44951019E+03</pdfrwt>
<totfact> 0.13859790E+03</totfact>
</mgrwt>
</event>
<event>
 4    1  0.4760244E-002  0.4130153E+03  0.7818608E-02  0.1039364E+00
         21   -1    0    0  503  502  0.00000000000E+00  0.00000000000E+00  0.79586675405E+02  0.79586675405E+02  0.00000000000E+00 0. -1.
         21   -1    0    0  501  503 -0.00000000000E+00 -0.00000000000E+00 -0.24209350279E+04  0.24209350279E+04  0.00000000000E+00 0. -1.
    9000007    1    1    2  501    0 -0.71932269528E+02  0.73535015317E+02 -0.74731252537E+03  0.85384873394E+03  0.40000000000E+03 0. -1.
   -9000007    1    1    2    0  502  0.71932269528E+02 -0.73535015317E+02 -0.15940358271E+04  0.16466729694E+04  0.40000000000E+03 0. -1.
<mgrwt>
<rscale>  2 0.41301531E+03</rscale>
<asrwt>0</asrwt>
<pdfrwt beam="1">  1       21 0.12244104E-01 0.41301531E+03</pdfrwt>
<pdfrwt beam="2">  1       21 0.37245154E+00 0.41301531E+03</pdfrwt>
<totfact> 0.58234065E+02</totfact>
</mgrwt>
</event>
<event>
 4    1  0.4760244E-002  0.4145122E+03  0.7818608E-02  0.1038867E+00
         21   -1    0    0  503  502  0.00000000000E+00  0.00000000000E+00  0.11638468434E+03  0.11638468434E+03  0.00000000000E+00 0. -1.
         21   -1    0    0  501  503 -0.00000000000E+00 -0.00000000000E+00 -0.29019405273E+04  0.29019405273E+04  0.00000000000E+00 0. -1.
    9000007    1    1    2  501    0 -0.10767480516E+03 -0.15048734303E+02 -0.24505562861E+04  0.24853664598E+04  0.40000000000E+03 0. -1.
   -9000007    1    1    2    0  502  0.10767480516E+03  0.15048734303E+02 -0.33499955683E+03  0.53295875182E+03  0.40000000000E+03 0. -1.
<mgrwt>
<rscale>  2 0.41451216E+03</rscale>
<asrwt>0</asrwt>
<pdfrwt beam="1">  1       21 0.17905338E-01 0.41451216E+03</pdfrwt>
<pdfrwt beam="2">  1       21 0.44645233E+00 0.41451216E+03</pdfrwt>
<totfact> 0.95642974E+01</totfact>
</mgrwt>
</event>
<event>
 4    1  0.4760244E-002  0.5518929E+03  0.7818608E-02  0.1001057E+00
         21   -1    0    0  501  502  0.00000000000E+00  0.00000000000E+00  0.68965576446E+03  0.68965576446E+03  0.00000000000E+00 0.  1.
         21   -1    0    0  502  503 -0.00000000000E+00 -0.00000000000E+00 -0.67711787801E+03  0.67711787801E+03  0.00000000000E+00 0.  1.
    9000007    1    1    2  501    0 -0.21080427608E+03 -0.31646058428E+03  0.40926543216E+03  0.68708364714E+03  0.40000000000E+03 0.  1.
   -9000007    1    1    2    0  503  0.21080427608E+03  0.31646058428E+03 -0.39672754571E+03  0.67968999532E+03  0.40000000000E+03 0.  1.
<mgrwt>
<rscale>  2 0.55189287E+03</rscale>
<asrwt>0</asrwt>
<pdfrwt beam="1">  1       21 0.10610089E+00 0.55189287E+03</pdfrwt>
<pdfrwt beam="2">  1       21 0.10417198E+00 0.55189287E+03</pdfrwt>
<totfact> 0.42446227E+02</totfact>
</mgrwt>
</event>
<event>
 4    1  0.4760244E-002  0.4106117E+03  0.7818608E-02  0.1040166E+00
         21   -1    0    0  503  502  0.00000000000E+00  0.00000000000E+00  0.21335461136E+03  0.21335461136E+03  0.00000000000E+00 0.  1.
         21   -1    0    0  501  503 -0.00000000000E+00 -0.00000000000E+00 -0.12542175909E+04  0.12542175909E+04  0.00000000000E+00 0.  1.
    9000007    1    1    2  501    0 -0.81914210898E+02 -0.43497243163E+02 -0.96673491938E+03  0.10503229753E+04  0.40000000000E+03 0.  1.
   -9000007    1    1    2    0  502  0.81914210898E+02  0.43497243163E+02 -0.74128060198E+02  0.41724922698E+03  0.40000000000E+03 0.  1.
<mgrwt>
<rscale>  2 0.41061168E+03</rscale>
<asrwt>0</asrwt>
<pdfrwt beam="1">  1       21 0.32823786E-01 0.41061168E+03</pdfrwt>
<pdfrwt beam="2">  1       21 0.19295656E+00 0.41061168E+03</pdfrwt>
<totfact> 0.11373507E+03</totfact>
</mgrwt>
</event>
<event>
 4    1  0.4760244E-002  0.5882854E+03  0.7818608E-02  0.9930013E-01
         21   -1    0    0  503  502  0.00000000000E+00  0.00000000000E+00  0.30799358809E+03  0.30799358809E+03  0.00000000000E+00 0. -1.
         21   -1    0    0  501  503 -0.00000000000E+00 -0.00000000000E+00 -0.11327536227E+04  0.11327536227E+04  0.00000000000E+00 0.  1.
    9000007    1    1    2  501    0 -0.21691611692E+03  0.37286332673E+03 -0.34783086477E+03  0.68342225065E+03  0.40000000000E+03 0. -1.
   -9000007    1    1    2    0  502  0.21691611692E+03 -0.37286332673E+03 -0.47692916984E+03  0.75732496013E+03  0.40000000000E+03 0.  1.
<mgrwt>
<rscale>  2 0.58828536E+03</rscale>
<asrwt>0</asrwt>
<pdfrwt beam="1">  1       21 0.47383629E-01 0.58828536E+03</pdfrwt>
<pdfrwt beam="2">  1       21 0.17426979E+00 0.58828536E+03</pdfrwt>
<totfact> 0.67046258E+02</totfact>
</mgrwt>
</event>
<event>
 4    1  0.4760244E-002  0.4127681E+03  0.7818608E-02  0.1039446E+00
         21   -1    0    0  503  502  0.00000000000E+00  0.00000000000E+00  0.31305837280E+03  0.31305837280E+03  0.00000000000E+00 0.  1.
         21   -1    0    0  501  503 -0.00000000000E+00 -0.00000000000E+00 -0.12645753982E+04  0.12645753982E+04  0.00000000000E+00 0.  1.
    9000007    1    1    2  501    0  0.97885855992E+02  0.28210438521E+02 -0.10711088163E+04  0.11478900496E+04  0.40000000000E+03 0.  1.
   -9000007    1    1    2    0  502 -0.97885855992E+02 -0.28210438521E+02  0.11959179088E+03  0.42974372141E+03  0.40000000000E+03 0.  1.
<mgrwt>
<rscale>  2 0.41276806E+03</rscale>
<asrwt>0</asrwt>
<pdfrwt beam="1">  1       21 0.48162826E-01 0.41276806E+03</pdfrwt>
<pdfrwt beam="2">  1       21 0.19455006E+00 0.41276806E+03</pdfrwt>
<totfact> 0.50391364E+02</totfact>
</mgrwt>
</event>
<event>
 4    1  0.4760244E-002  0.4077629E+03  0.7818608E-02  0.1041124E+00
         21   -1    0    0  503  502  0.00000000000E+00  0.00000000000E+00  0.22252235877E+03  0.22252235877E+03  0.00000000000E+00 0. -1.
         21   -1    0    0  501  503 -0.00000000000E+00 -0.00000000000E+00 -0.76183898730E+03  0.76183898730E+03  0.00000000000E+00 0. -1.
    9000007    1    1    2  501    0  0.72096397965E+02 -0.32752485049E+02 -0.33786409056E+03  0.52954958178E+03  0.40000000000E+03 0. -1.
   -9000007    1    1    2    0  502 -0.72096397965E+02  0.32752485049E+02 -0.20145253797E+03  0.45481176429E+03  0.40000000000E+03 0. -1.
<mgrwt>
<rscale>  2 0.40776294E+03</rscale>
<asrwt>0</asrwt>
<pdfrwt beam="1">  1       21 0.34234209E-01 0.40776294E+03</pdfrwt>
<pdfrwt beam="2">  1       21 0.11720600E+00 0.40776294E+03</pdfrwt>
<totfact> 0.40781924E+03</totfact>
</mgrwt>
</event>
<event>
 4    1  0.4760244E-002  0.6284084E+03  0.7818608E-02  0.9848160E-01
         21   -1    0    0  503  502  0.00000000000E+00  0.00000000000E+00  0.20130134832E+03  0.20130134832E+03  0.00000000000E+00 0. -1.
         21   -1    0    0  501  503 -0.00000000000E+00 -0.00000000000E+00 -0.20803737126E+04  0.20803737126E+04  0.00000000000E+00 0.  1.
    9000007    1    1    2  501    0  0.48458636465E+03 -0.85553503034E+01 -0.12119890873E+04  0.13652159853E+04  0.40000000000E+03 0. -1.
   -9000007    1    1    2    0  502 -0.48458636465E+03  0.85553503034E+01 -0.66708327697E+03  0.91645907559E+03  0.40000000000E+03 0.  1.
<mgrwt>
<rscale>  2 0.62840842E+03</rscale>
<asrwt>0</asrwt>
<pdfrwt beam="1">  1       21 0.30969439E-01 0.62840842E+03</pdfrwt>
<pdfrwt beam="2">  1       21 0.32005749E+00 0.62840842E+03</pdfrwt>
<totfact> 0.18591299E+02</totfact>
</mgrwt>
</event>
<event>
 4    1  0.4760244E-002  0.4010965E+03  0.7818608E-02  0.1043401E+00
         21   -1    0    0  503  502  0.00000000000E+00  0.00000000000E+00  0.22152028917E+04  0.22152028917E+04  0.00000000000E+00 0.  1.
         21   -1    0    0  501  503 -0.00000000000E+00 -0.00000000000E+00 -0.82662766250E+02  0.82662766250E+02  0.00000000000E+00 0.  1.
    9000007    1    1    2  501    0 -0.29636093135E+02  0.35222105852E+00  0.66589692768E+03  0.77736551272E+03  0.40000000000E+03 0.  1.
   -9000007    1    1    2    0  502  0.29636093135E+02 -0.35222105852E+00  0.14666431978E+04  0.15205001452E+04  0.40000000000E+03 0.  1.
<mgrwt>
<rscale>  2 0.40109652E+03</rscale>
<asrwt>0</asrwt>
<pdfrwt beam="1">  1       21 0.34080040E+00 0.40109652E+03</pdfrwt>
<pdfrwt beam="2">  1       21 0.12717350E-01 0.40109652E+03</pdfrwt>
<totfact> 0.85728374E+02</totfact>
</mgrwt>
</event>
<event>
 4    1  0.4760244E-002  0.5772652E+03  0.7818608E-02  0.9953729E-01
         21   -1    0    0  501  502  0.00000000000E+00  0.00000000000E+00  0.49214056461E+03  0.49214056461E+03  0.00000000000E+00 0.  1.
         21   -1    0    0  502  503 -0.00000000000E+00 -0.00000000000E+00 -0.68279104530E+03  0.68279104530E+03  0.00000000000E+00 0. -1.
    9000007    1    1    2  501    0 -0.25388346276E+02 -0.41544015626E+03 -0.14889422827E+03  0.59615818603E+03  0.40000000000E+03 0.  1.
   -9000007    1    1    2    0  503  0.25388346276E+02  0.41544015626E+03 -0.41756252425E+02  0.57877342387E+03  0.40000000000E+03 0. -1.
<mgrwt>
<rscale>  2 0.57726518E+03</rscale>
<asrwt>0</asrwt>
<pdfrwt beam="1">  1       21 0.75713933E-01 0.57726518E+03</pdfrwt>
<pdfrwt beam="2">  1       21 0.10504478E+00 0.57726518E+03</pdfrwt>
<totfact> 0.92117168E+02</totfact>
</mgrwt>
</event>
<event>
 4    1  0.4760244E-002  0.4833981E+03  0.7818608E-02  0.1018205E+00
         21   -1    0    0  501  502  0.00000000000E+00  0.00000000000E+00  0.14246222933E+03  0.14246222933E+03  0.00000000000E+00 0.  1.
         21   -1    0    0  502  503 -0.00000000000E+00 -0.00000000000E+00 -0.17140206055E+04  0.17140206055E+04  0.00000000000E+00 0. -1.
    9000007    1    1    2  501    0  0.31061393395E+02 -0.26964589217E+03 -0.59320696073E+03  0.76522429103E+03  0.40000000000E+03 0.  1.
   -9000007    1    1    2    0  503 -0.31061393395E+02  0.26964589217E+03 -0.97835141549E+03  0.10912585438E+04  0.40000000000E+03 0. -1.
<mgrwt>
<rscale>  2 0.48339809E+03</rscale>
<asrwt>0</asrwt>
<pdfrwt beam="1">  1       21 0.21917266E-01 0.48339809E+03</pdfrwt>
<pdfrwt beam="2">  1       21 0.26369548E+00 0.48339809E+03</pdfrwt>
<totfact> 0.86228161E+02</totfact>
</mgrwt>
</event>
<event>
 4    1  0.4760244E-002  0.4395929E+03  0.7818608E-02  0.1030872E+00
         21   -1    0    0  503  502  0.00000000000E+00  0.00000000000E+00  0.31794822784E+03  0.31794822784E+03  0.00000000000E+00 0.  1.
         21   -1    0    0  501  503 -0.00000000000E+00 -0.00000000000E+00 -0.11350767734E+04  0.11350767734E+04  0.00000000000E+00 0.  1.
    9000007    1    1    2  501    0 -0.43399325789E+02 -0.17708312593E+03 -0.90373944046E+03  0.10049810502E+04  0.40000000000E+03 0.  1.
   -9000007    1    1    2    0  502  0.43399325789E+02  0.17708312593E+03  0.86610894900E+02  0.44804395106E+03  0.40000000000E+03 0.  1.
<mgrwt>
<rscale>  2 0.43959292E+03</rscale>
<asrwt>0</asrwt>
<pdfrwt beam="1">  1       21 0.48915111E-01 0.43959292E+03</pdfrwt>
<pdfrwt beam="2">  1       21 0.17462720E+00 0.43959292E+03</pdfrwt>
<totfact> 0.66157753E+02</totfact>
</mgrwt>
</event>
<event>
 4    1  0.4760244E-002  0.5775475E+03  0.7818608E-02  0.9953115E-01
         21   -1    0    0  503  502  0.00000000000E+00  0.00000000000E+00  0.53907471093E+03  0.53907471093E+03  0.00000000000E+00 0.  1.
         21   -1    0    0  501  503 -0.00000000000E+00 -0.00000000000E+00 -0.81576287896E+03  0.81576287896E+03  0.00000000000E+00 0. -1.
    9000007    1    1    2  501    0 -0.21393977562E+03  0.35747851468E+03  0.19454911124E+03  0.60943455164E+03  0.40000000000E+03 0.  1.
   -9000007    1    1    2    0  502  0.21393977562E+03 -0.35747851468E+03 -0.47123727928E+03  0.74540303825E+03  0.40000000000E+03 0. -1.
<mgrwt>
<rscale>  2 0.57754750E+03</rscale>
<asrwt>0</asrwt>
<pdfrwt beam="1">  1       21 0.82934572E-01 0.57754750E+03</pdfrwt>
<pdfrwt beam="2">  1       21 0.12550198E+00 0.57754750E+03</pdfrwt>
<totfact> 0.47555051E+02</totfact>
</mgrwt>
</event>
<event>
 4    1  0.4760244E-002  0.4030050E+03  0.7818608E-02  0.1042744E+00
         21   -1    0    0  503  502  0.00000000000E+00  0.00000000000E+00  0.11657021174E+03  0.11657021174E+03  0.00000000000E+00 0. -1.
         21   -1    0    0  501  503 -0.00000000000E+00 -0.00000000000E+00 -0.16020248756E+04  0.16020248756E+04  0.00000000000E+00 0. -1.
    9000007    1    1    2  501    0  0.76986712990E+01  0.48515374728E+02 -0.10529218423E+04  0.11274118223E+04  0.40000000000E+03 0. -1.
   -9000007    1    1    2    0  502 -0.76986712990E+01 -0.48515374728E+02 -0.43253282161E+03  0.59118326507E+03  0.40000000000E+03 0. -1.
<mgrwt>
<rscale>  2 0.40300498E+03</rscale>
<asrwt>0</asrwt>
<pdfrwt beam="1">  1       21 0.17933879E-01 0.40300498E+03</pdfrwt>
<pdfrwt beam="2">  1       21 0.24646536E+00 0.40300498E+03</pdfrwt>
<totfact> 0.16754387E+03</totfact>
</mgrwt>
</event>
<event>
 4    1  0.4760244E-002  0.4494888E+03  0.7818608E-02  0.1027875E+00
         21   -1    0    0  501  502  0.00000000000E+00  0.00000000000E+00  0.94013115826E+03  0.94013115826E+03  0.00000000000E+00 0.  1.
         21   -1    0    0  502  503 -0.00000000000E+00 -0.00000000000E+00 -0.66421959836E+03  0.66421959836E+03  0.00000000000E+00 0.  1.
    9000007    1    1    2  501    0 -0.18879828027E+03 -0.79971092950E+02  0.79771898548E+03  0.91563952849E+03  0.40000000000E+03 0.  1.
   -9000007    1    1    2    0  503  0.18879828027E+03  0.79971092950E+02 -0.52180742559E+03  0.68871122812E+03  0.40000000000E+03 0.  1.
<mgrwt>
<rscale>  2 0.44948878E+03</rscale>
<asrwt>0</asrwt>
<pdfrwt beam="1">  1       21 0.14463556E+00 0.44948878E+03</pdfrwt>
<pdfrwt beam="2">  1       21 0.10218763E+00 0.44948878E+03</pdfrwt>
<totfact> 0.20968439E+02</totfact>
</mgrwt>
</event>
<event>
 4    1  0.4760244E-002  0.5372188E+03  0.7818608E-02  0.1004496E+00
         21   -1    0    0  503  502  0.00000000000E+00  0.00000000000E+00  0.33246157727E+03  0.33246157727E+03  0.00000000000E+00 0. -1.
         21   -1    0    0  501  503 -0.00000000000E+00 -0.00000000000E+00 -0.12025127814E+04  0.12025127814E+04  0.00000000000E+00 0. -1.
    9000007    1    1    2  501    0  0.33459186220E+03 -0.12904391322E+03 -0.83976840714E+03  0.99690271512E+03  0.40000000000E+03 0. -1.
   -9000007    1    1    2    0  502 -0.33459186220E+03  0.12904391322E+03 -0.30282796993E+02  0.53807164355E+03  0.40000000000E+03 0. -1.
<mgrwt>
<rscale>  2 0.53721881E+03</rscale>
<asrwt>0</asrwt>
<pdfrwt beam="1">  1       21 0.51147935E-01 0.53721881E+03</pdfrwt>
<pdfrwt beam="2">  1       21 0.18500196E+00 0.53721881E+03</pdfrwt>
<totfact> 0.48688210E+02</totfact>
</mgrwt>
</event>
<event>
 4    1  0.4760244E-002  0.4179873E+03  0.7818608E-02  0.1037723E+00
         21   -1    0    0  503  502  0.00000000000E+00  0.00000000000E+00  0.45104165293E+03  0.45104165293E+03  0.00000000000E+00 0. -1.
         21   -1    0    0  501  503 -0.00000000000E+00 -0.00000000000E+00 -0.64451284925E+03  0.64451284925E+03  0.00000000000E+00 0. -1.
    9000007    1    1    2  501    0 -0.90167158201E+02  0.81137138792E+02 -0.44274498794E+03  0.60888133167E+03  0.40000000000E+03 0. -1.
   -9000007    1    1    2    0  502  0.90167158201E+02 -0.81137138792E+02  0.24927379162E+03  0.48667317051E+03  0.40000000000E+03 0. -1.
<mgrwt>
<rscale>  2 0.41798726E+03</rscale>
<asrwt>0</asrwt>
<pdfrwt beam="1">  1       21 0.69391024E-01 0.41798726E+03</pdfrwt>
<pdfrwt beam="2">  1       21 0.99155823E-01 0.41798726E+03</pdfrwt>
<totfact> 0.13717358E+03</totfact>
</mgrwt>
</event>
<event>
 4    1  0.4760244E-002  0.5508859E+03  0.7818608E-02  0.1001289E+00
         21   -1    0    0  503  502  0.00000000000E+00  0.00000000000E+00  0.44609486744E+03  0.44609486744E+03  0.00000000000E+00 0.  1.
         21   -1    0    0  501  503 -0.00000000000E+00 -0.00000000000E+00 -0.98159461437E+03  0.98159461437E+03  0.00000000000E+00 0. -1.
    9000007    1    1    2  501    0  0.18665302807E+02  0.37832119093E+03 -0.66324236826E+03  0.86218661326E+03  0.40000000000E+03 0.  1.
   -9000007    1    1    2    0  502 -0.18665302807E+02 -0.37832119093E+03  0.12774262133E+03  0.56550286855E+03  0.40000000000E+03 0.  1.
<mgrwt>
<rscale>  2 0.55088594E+03</rscale>
<asrwt>0</asrwt>
<pdfrwt beam="1">  1       21 0.68629980E-01 0.55088594E+03</pdfrwt>
<pdfrwt beam="2">  1       21 0.15101455E+00 0.55088594E+03</pdfrwt>
<totfact> 0.45314763E+02</totfact>
</mgrwt>
</event>
<event>
 4    1  0.4760244E-002  0.4269837E+03  0.7818608E-02  0.1034817E+00
         21   -1    0    0  503  502  0.00000000000E+00  0.00000000000E+00  0.31744401127E+03  0.31744401127E+03  0.00000000000E+00 0.  1.
         21   -1    0    0  501  503 -0.00000000000E+00 -0.00000000000E+00 -0.72105733293E+03  0.72105733293E+03  0.00000000000E+00 0.  1.
    9000007    1    1    2  501    0  0.13655232748E+03 -0.60568203499E+02 -0.43604591573E+03  0.61028770760E+03  0.40000000000E+03 0.  1.
   -9000007    1    1    2    0  502 -0.13655232748E+03  0.60568203499E+02  0.32432594070E+02  0.42821363660E+03  0.40000000000E+03 0.  1.
<mgrwt>
<rscale>  2 0.42698366E+03</rscale>
<asrwt>0</asrwt>
<pdfrwt beam="1">  1       21 0.48837541E-01 0.42698366E+03</pdfrwt>
<pdfrwt beam="2">  1       21 0.11093190E+00 0.42698366E+03</pdfrwt>
<totfact> 0.22300640E+03</totfact>
</mgrwt>
</event>
<event>
 4    1  0.4760244E-002  0.4070494E+03  0.7818608E-02  0.1041366E+00
         21   -1    0    0  503  502  0.00000000000E+00  0.00000000000E+00  0.95216837198E+02  0.95216837198E+02  0.00000000000E+00 0. -1.
         21   -1    0    0  501  503 -0.00000000000E+00 -0.00000000000E+00 -0.19869334774E+04  0.19869334774E+04  0.00000000000E+00 0. -1.
    9000007    1    1    2  501    0  0.24258494708E+02  0.71419440733E+02 -0.57893920043E+03  0.70771449672E+03  0.40000000000E+03 0. -1.
   -9000007    1    1    2    0  502 -0.24258494708E+02 -0.71419440733E+02 -0.13127774398E+04  0.13744358179E+04  0.40000000000E+03 0. -1.
<mgrwt>
<rscale>  2 0.40704940E+03</rscale>
<asrwt>0</asrwt>
<pdfrwt beam="1">  1       21 0.14648744E-01 0.40704940E+03</pdfrwt>
<pdfrwt beam="2">  1       21 0.30568207E+00 0.40704940E+03</pdfrwt>
<totfact> 0.10716390E+03</totfact>
</mgrwt>
</event>
<event>
 4    1  0.4760244E-002  0.4229487E+03  0.7818608E-02  0.1036111E+00
         21   -1    0    0  501  502  0.00000000000E+00  0.00000000000E+00  0.25425018966E+03  0.25425018966E+03  0.00000000000E+00 0. -1.
         21   -1    0    0  502  503 -0.00000000000E+00 -0.00000000000E+00 -0.70661119995E+03  0.70661119995E+03  0.00000000000E+00 0. -1.
    9000007    1    1    2  501    0  0.11466137410E+02 -0.13694566177E+03 -0.25764209543E+03  0.49524240118E+03  0.40000000000E+03 0. -1.
   -9000007    1    1    2    0  503 -0.11466137410E+02  0.13694566177E+03 -0.19471891486E+03  0.46561898843E+03  0.40000000000E+03 0. -1.
<mgrwt>
<rscale>  2 0.42294868E+03</rscale>
<asrwt>0</asrwt>
<pdfrwt beam="1">  1       21 0.39115414E-01 0.42294868E+03</pdfrwt>
<pdfrwt beam="2">  1       21 0.10870941E+00 0.42294868E+03</pdfrwt>
<totfact> 0.37295371E+03</totfact>
</mgrwt>
</event>
<event>
 4    1  0.4760244E-002  0.5694994E+03  0.7818608E-02  0.9970787E-01
         21   -1    0    0  501  502  0.00000000000E+00  0.00000000000E+00  0.65925551845E+03  0.65925551845E+03  0.00000000000E+00 0. -1.
         21   -1    0    0  502  503 -0.00000000000E+00 -0.00000000000E+00 -0.11272342744E+04  0.11272342744E+04  0.00000000000E+00 0. -1.
    9000007    1    1    2  501    0  0.23664080228E+03 -0.32913628748E+03  0.43657879093E+03  0.71758665381E+03  0.40000000000E+03 0. -1.
   -9000007    1    1    2    0  503 -0.23664080228E+03  0.32913628748E+03 -0.90455754684E+03  0.10689031390E+04  0.40000000000E+03 0. -1.
<mgrwt>
<rscale>  2 0.56949940E+03</rscale>
<asrwt>0</asrwt>
<pdfrwt beam="1">  1       21 0.10142393E+00 0.56949940E+03</pdfrwt>
<pdfrwt beam="2">  1       21 0.17342066E+00 0.56949940E+03</pdfrwt>
<totfact> 0.12183057E+02</totfact>
</mgrwt>
</event>
<event>
 4    1  0.4760244E-002  0.4461302E+03  0.7818608E-02  0.1028882E+00
         21   -1    0    0  503  502  0.00000000000E+00  0.00000000000E+00  0.16207781789E+04  0.16207781789E+04  0.00000000000E+00 0. -1.
         21   -1    0    0  501  503 -0.00000000000E+00 -0.00000000000E+00 -0.13926999371E+03  0.13926999371E+03  0.00000000000E+00 0. -1.
    9000007    1    1    2  501    0 -0.12794378948E+03  0.15054083999E+03  0.43812711674E+03  0.62528995530E+03  0.40000000000E+03 0. -1.
   -9000007    1    1    2    0  502  0.12794378948E+03 -0.15054083999E+03  0.10433810685E+04  0.11347582173E+04  0.40000000000E+03 0. -1.
<mgrwt>
<rscale>  2 0.44613020E+03</rscale>
<asrwt>0</asrwt>
<pdfrwt beam="1">  1       21 0.24935047E+00 0.44613020E+03</pdfrwt>
<pdfrwt beam="2">  1       21 0.21426154E-01 0.44613020E+03</pdfrwt>
<totfact> 0.11226283E+03</totfact>
</mgrwt>
</event>
<event>
 4    1  0.4760244E-002  0.4882636E+03  0.7818608E-02  0.1016889E+00
         21   -1    0    0  503  502  0.00000000000E+00  0.00000000000E+00  0.21685951051E+03  0.21685951051E+03  0.00000000000E+00 0.  1.
         21   -1    0    0  501  503 -0.00000000000E+00 -0.00000000000E+00 -0.11461317304E+04  0.11461317304E+04  0.00000000000E+00 0. -1.
    9000007    1    1    2  501    0 -0.26259745735E+03  0.97179722352E+02 -0.60234183417E+03  0.77538184673E+03  0.40000000000E+03 0. -1.
   -9000007    1    1    2    0  502  0.26259745735E+03 -0.97179722352E+02 -0.32693038575E+03  0.58760939421E+03  0.40000000000E+03 0.  1.
<mgrwt>
<rscale>  2 0.48826358E+03</rscale>
<asrwt>0</asrwt>
<pdfrwt beam="1">  1       21 0.33363001E-01 0.48826358E+03</pdfrwt>
<pdfrwt beam="2">  1       21 0.17632796E+00 0.48826358E+03</pdfrwt>
<totfact> 0.13880525E+03</totfact>
</mgrwt>
</event>
<event>
 4    1  0.4760244E-002  0.4493451E+03  0.7818608E-02  0.1027918E+00
         21   -1    0    0  501  502  0.00000000000E+00  0.00000000000E+00  0.94809104138E+03  0.94809104138E+03  0.00000000000E+00 0. -1.
         21   -1    0    0  502  503 -0.00000000000E+00 -0.00000000000E+00 -0.21329713143E+03  0.21329713143E+03  0.00000000000E+00 0.  1.
    9000007    1    1    2  501    0  0.10815603924E+03 -0.17381975302E+03  0.39028132826E+03  0.59517270649E+03  0.40000000000E+03 0.  1.
   -9000007    1    1    2    0  503 -0.10815603924E+03  0.17381975302E+03  0.34451258169E+03  0.56621546632E+03  0.40000000000E+03 0.  1.
<mgrwt>
<rscale>  2 0.44934512E+03</rscale>
<asrwt>0</asrwt>
<pdfrwt beam="1">  1       21 0.14586016E+00 0.44934512E+03</pdfrwt>
<pdfrwt beam="2">  1       21 0.32814944E-01 0.44934512E+03</pdfrwt>
<totfact> 0.24745040E+03</totfact>
</mgrwt>
</event>
<event>
 4    1  0.4760244E-002  0.5920667E+03  0.7818608E-02  0.9922003E-01
         21   -1    0    0  503  502  0.00000000000E+00  0.00000000000E+00  0.49638847355E+03  0.49638847355E+03  0.00000000000E+00 0.  1.
         21   -1    0    0  501  503 -0.00000000000E+00 -0.00000000000E+00 -0.11569708197E+04  0.11569708197E+04  0.00000000000E+00 0.  1.
    9000007    1    1    2  501    0  0.20520116868E+02  0.43602965226E+03  0.18572148059E+03  0.62051220874E+03  0.40000000000E+03 0.  1.
   -9000007    1    1    2    0  502 -0.20520116868E+02 -0.43602965226E+03 -0.84630382677E+03  0.10328470845E+04  0.40000000000E+03 0.  1.
<mgrwt>
<rscale>  2 0.59206666E+03</rscale>
<asrwt>0</asrwt>
<pdfrwt beam="1">  1       21 0.76367457E-01 0.59206666E+03</pdfrwt>
<pdfrwt beam="2">  1       21 0.17799551E+00 0.59206666E+03</pdfrwt>
<totfact> 0.21940134E+02</totfact>
</mgrwt>
</event>
<event>
 4    1  0.4760244E-002  0.4047310E+03  0.7818608E-02  0.1042154E+00
         21   -1    0    0  503  502  0.00000000000E+00  0.00000000000E+00  0.14843539083E+03  0.14843539083E+03  0.00000000000E+00 0. -1.
         21   -1    0    0  501  503 -0.00000000000E+00 -0.00000000000E+00 -0.11360025281E+04  0.11360025281E+04  0.00000000000E+00 0. -1.
    9000007    1    1    2  501    0  0.61095218823E+02 -0.86339901594E+01 -0.60231594488E+03  0.72566636205E+03  0.40000000000E+03 0. -1.
   -9000007    1    1    2    0  502 -0.61095218823E+02  0.86339901594E+01 -0.38525119239E+03  0.55877155689E+03  0.40000000000E+03 0. -1.
<mgrwt>
<rscale>  2 0.40473099E+03</rscale>
<asrwt>0</asrwt>
<pdfrwt beam="1">  1       21 0.22836213E-01 0.40473099E+03</pdfrwt>
<pdfrwt beam="2">  1       21 0.17476962E+00 0.40473099E+03</pdfrwt>
<totfact> 0.31087182E+03</totfact>
</mgrwt>
</event>
<event>
 4    1  0.4760244E-002  0.4310466E+03  0.7818608E-02  0.1033530E+00
         21   -1    0    0  503  502  0.00000000000E+00  0.00000000000E+00  0.67615771439E+03  0.67615771439E+03  0.00000000000E+00 0. -1.
         21   -1    0    0  501  503 -0.00000000000E+00 -0.00000000000E+00 -0.32690224342E+03  0.32690224342E+03  0.00000000000E+00 0. -1.
    9000007    1    1    2  501    0  0.14615420449E+03  0.66634442885E+02 -0.25615995525E+02  0.43180710936E+03  0.40000000000E+03 0. -1.
   -9000007    1    1    2    0  502 -0.14615420449E+03 -0.66634442885E+02  0.37487146649E+03  0.57125284845E+03  0.40000000000E+03 0. -1.
<mgrwt>
<rscale>  2 0.43104663E+03</rscale>
<asrwt>0</asrwt>
<pdfrwt beam="1">  1       21 0.10402426E+00 0.43104663E+03</pdfrwt>
<pdfrwt beam="2">  1       21 0.50292653E-01 0.43104663E+03</pdfrwt>
<totfact> 0.24517709E+03</totfact>
</mgrwt>
</event>
<event>
 4    1  0.4760244E-002  0.4151042E+03  0.7818608E-02  0.1038672E+00
         21   -1    0    0  503  502  0.00000000000E+00  0.00000000000E+00  0.14902568326E+03  0.14902568326E+03  0.00000000000E+00 0.  1.
         21   -1    0    0  501  503 -0.00000000000E+00 -0.00000000000E+00 -0.11734308665E+04  0.11734308665E+04  0.00000000000E+00 0.  1.
    9000007    1    1    2  501    0  0.82220330543E+02  0.74507199790E+02 -0.43220116081E+03  0.59925733119E+03  0.40000000000E+03 0.  1.
   -9000007    1    1    2    0  502 -0.82220330543E+02 -0.74507199790E+02 -0.59220402245E+03  0.72319921860E+03  0.40000000000E+03 0.  1.
<mgrwt>
<rscale>  2 0.41510421E+03</rscale>
<asrwt>0</asrwt>
<pdfrwt beam="1">  1       21 0.22927028E-01 0.41510421E+03</pdfrwt>
<pdfrwt beam="2">  1       21 0.18052783E+00 0.41510421E+03</pdfrwt>
<totfact> 0.27958947E+03</totfact>
</mgrwt>
</event>
<event>
 4    1  0.4760244E-002  0.5763651E+03  0.7818608E-02  0.9955692E-01
         21   -1    0    0  501  502  0.00000000000E+00  0.00000000000E+00  0.26505259992E+03  0.26505259992E+03  0.00000000000E+00 0. -1.
         21   -1    0    0  502  503 -0.00000000000E+00 -0.00000000000E+00 -0.13834635978E+04  0.13834635978E+04  0.00000000000E+00 0.  1.
    9000007    1    1    2  501    0 -0.11892604854E+03  0.39755914951E+03 -0.30640104023E+03  0.65274671951E+03  0.40000000000E+03 0. -1.
   -9000007    1    1    2    0  503  0.11892604854E+03 -0.39755914951E+03 -0.81200995762E+03  0.99576947817E+03  0.40000000000E+03 0.  1.
<mgrwt>
<rscale>  2 0.57636506E+03</rscale>
<asrwt>0</asrwt>
<pdfrwt beam="1">  1       21 0.40777323E-01 0.57636506E+03</pdfrwt>
<pdfrwt beam="2">  1       21 0.21284055E+00 0.57636506E+03</pdfrwt>
<totfact> 0.50158688E+02</totfact>
</mgrwt>
</event>
<event>
 4    1  0.4760244E-002  0.6992328E+03  0.7818608E-02  0.9718545E-01
         21   -1    0    0  501  502  0.00000000000E+00  0.00000000000E+00  0.51907451066E+03  0.51907451066E+03  0.00000000000E+00 0. -1.
         21   -1    0    0  502  503 -0.00000000000E+00 -0.00000000000E+00 -0.12453339268E+04  0.12453339268E+04  0.00000000000E+00 0.  1.
    9000007    1    1    2  501    0 -0.34726528133E+03  0.45643553664E+03  0.72326110299E+02  0.70296347057E+03  0.40000000000E+03 0. -1.
   -9000007    1    1    2    0  503  0.34726528133E+03 -0.45643553664E+03 -0.79858552645E+03  0.10614449669E+04  0.40000000000E+03 0.  1.
<mgrwt>
<rscale>  2 0.69923285E+03</rscale>
<asrwt>0</asrwt>
<pdfrwt beam="1">  1       21 0.79857617E-01 0.69923285E+03</pdfrwt>
<pdfrwt beam="2">  1       21 0.19158983E+00 0.69923285E+03</pdfrwt>
<totfact> 0.15270395E+02</totfact>
</mgrwt>
</event>
<event>
 4    1  0.4760244E-002  0.6077961E+03  0.7818608E-02  0.9889362E-01
         21   -1    0    0  503  502  0.00000000000E+00  0.00000000000E+00  0.93509419254E+03  0.93509419254E+03  0.00000000000E+00 0. -1.
         21   -1    0    0  501  503 -0.00000000000E+00 -0.00000000000E+00 -0.47956124679E+03  0.47956124679E+03  0.00000000000E+00 0.  1.
    9000007    1    1    2  501    0  0.43135122085E+03 -0.15281421064E+03 -0.69151432187E+02  0.61171723801E+03  0.40000000000E+03 0.  1.
   -9000007    1    1    2    0  502 -0.43135122085E+03  0.15281421064E+03  0.52468437793E+03  0.80293820133E+03  0.40000000000E+03 0. -1.
<mgrwt>
<rscale>  2 0.60779607E+03</rscale>
<asrwt>0</asrwt>
<pdfrwt beam="1">  1       21 0.14386064E+00 0.60779607E+03</pdfrwt>
<pdfrwt beam="2">  1       21 0.73778653E-01 0.60779607E+03</pdfrwt>
<totfact> 0.42996327E+02</totfact>
</mgrwt>
</event>
<event>
 4    1  0.4760244E-002  0.4028913E+03  0.7818608E-02  0.1042783E+00
         21   -1    0    0  501  502  0.00000000000E+00  0.00000000000E+00  0.43086818445E+03  0.43086818445E+03  0.00000000000E+00 0. -1.
         21   -1    0    0  502  503 -0.00000000000E+00 -0.00000000000E+00 -0.37673701526E+03  0.37673701526E+03  0.00000000000E+00 0. -1.
    9000007    1    1    2  501    0 -0.41027748542E+02 -0.25260313161E+02  0.25438901279E+02  0.40369356853E+03  0.40000000000E+03 0. -1.
   -9000007    1    1    2    0  503  0.41027748542E+02  0.25260313161E+02  0.28692267913E+02  0.40391163119E+03  0.40000000000E+03 0. -1.
<mgrwt>
<rscale>  2 0.40289125E+03</rscale>
<asrwt>0</asrwt>
<pdfrwt beam="1">  1       21 0.66287413E-01 0.40289125E+03</pdfrwt>
<pdfrwt beam="2">  1       21 0.57959541E-01 0.40289125E+03</pdfrwt>
<totfact> 0.52153867E+03</totfact>
</mgrwt>
</event>
<event>
 4    1  0.4760244E-002  0.4661503E+03  0.7818608E-02  0.1023012E+00
         21   -1    0    0  503  502  0.00000000000E+00  0.00000000000E+00  0.72037133988E+03  0.72037133988E+03  0.00000000000E+00 0.  1.
         21   -1    0    0  501  503 -0.00000000000E+00 -0.00000000000E+00 -0.30619997967E+03  0.30619997967E+03  0.00000000000E+00 0.  1.
    9000007    1    1    2  501    0 -0.17078826063E+03 -0.16771240585E+03  0.14447884814E+03  0.48802686259E+03  0.40000000000E+03 0.  1.
   -9000007    1    1    2    0  502  0.17078826063E+03  0.16771240585E+03  0.26969251208E+03  0.53854445696E+03  0.40000000000E+03 0.  1.
<mgrwt>
<rscale>  2 0.46615028E+03</rscale>
<asrwt>0</asrwt>
<pdfrwt beam="1">  1       21 0.11082636E+00 0.46615028E+03</pdfrwt>
<pdfrwt beam="2">  1       21 0.47107689E-01 0.46615028E+03</pdfrwt>
<totfact> 0.23770641E+03</totfact>
</mgrwt>
</event>
<event>
 4    1  0.4760244E-002  0.4758366E+03  0.7818608E-02  0.1020286E+00
         21   -1    0    0  501  502  0.00000000000E+00  0.00000000000E+00  0.10128878627E+04  0.10128878627E+04  0.00000000000E+00 0.  1.
         21   -1    0    0  502  503 -0.00000000000E+00 -0.00000000000E+00 -0.34578508251E+03  0.34578508251E+03  0.00000000000E+00 0.  1.
    9000007    1    1    2  501    0 -0.11408203339E+03 -0.23109678343E+03 -0.70371453035E+02  0.48101203214E+03  0.40000000000E+03 0.  1.
   -9000007    1    1    2    0  503  0.11408203339E+03  0.23109678343E+03  0.73747423323E+03  0.87766091308E+03  0.40000000000E+03 0.  1.
<mgrwt>
<rscale>  2 0.47583656E+03</rscale>
<asrwt>0</asrwt>
<pdfrwt beam="1">  1       21 0.15582890E+00 0.47583656E+03</pdfrwt>
<pdfrwt beam="2">  1       21 0.53197706E-01 0.47583656E+03</pdfrwt>
<totfact> 0.75020509E+02</totfact>
</mgrwt>
</event>
<event>
 4    1  0.4760244E-002  0.4842456E+03  0.7818608E-02  0.1017975E+00
         21   -1    0    0  501  502  0.00000000000E+00  0.00000000000E+00  0.20407609199E+03  0.20407609199E+03  0.00000000000E+00 0.  1.
         21   -1    0    0  502  503 -0.00000000000E+00 -0.00000000000E+00 -0.14949588738E+04  0.14949588738E+04  0.00000000000E+00 0.  1.
    9000007    1    1    2  501    0 -0.62632684467E+02 -0.26565184127E+03 -0.23680392770E+03  0.53904531730E+03  0.40000000000E+03 0.  1.
   -9000007    1    1    2    0  503  0.62632684467E+02  0.26565184127E+03 -0.10540788541E+04  0.11599896485E+04  0.40000000000E+03 0.  1.
<mgrwt>
<rscale>  2 0.48424555E+03</rscale>
<asrwt>0</asrwt>
<pdfrwt beam="1">  1       21 0.31396321E-01 0.48424555E+03</pdfrwt>
<pdfrwt beam="2">  1       21 0.22999368E+00 0.48424555E+03</pdfrwt>
<totfact> 0.68882863E+02</totfact>
</mgrwt>
</event>
<event>
 4    1  0.4760244E-002  0.4078723E+03  0.7818608E-02  0.1041087E+00
         21   -1    0    0  503  502  0.00000000000E+00  0.00000000000E+00  0.58847885936E+03  0.58847885936E+03  0.00000000000E+00 0.  1.
         21   -1    0    0  501  503 -0.00000000000E+00 -0.00000000000E+00 -0.33025160727E+03  0.33025160727E+03  0.00000000000E+00 0.  1.
    9000007    1    1    2  501    0 -0.72258671238E+02 -0.33741889289E+02 -0.45204536934E+02  0.41036968799E+03  0.40000000000E+03 0.  1.
   -9000007    1    1    2    0  502  0.72258671238E+02  0.33741889289E+02  0.30343178902E+03  0.50836077863E+03  0.40000000000E+03 0.  1.
<mgrwt>
<rscale>  2 0.40787232E+03</rscale>
<asrwt>0</asrwt>
<pdfrwt beam="1">  1       21 0.90535209E-01 0.40787232E+03</pdfrwt>
<pdfrwt beam="2">  1       21 0.50807940E-01 0.40787232E+03</pdfrwt>
<totfact> 0.33817600E+03</totfact>
</mgrwt>
</event>
<event>
 4    1  0.4760244E-002  0.4256961E+03  0.7818608E-02  0.1035228E+00
         21   -1    0    0  501  502  0.00000000000E+00  0.00000000000E+00  0.13505757221E+03  0.13505757221E+03  0.00000000000E+00 0.  1.
         21   -1    0    0  502  503 -0.00000000000E+00 -0.00000000000E+00 -0.13647053867E+04  0.13647053867E+04  0.00000000000E+00 0.  1.
    9000007    1    1    2  501    0  0.14566121996E+03  0.79988461047E-01 -0.71202165103E+03  0.82957340177E+03  0.40000000000E+03 0.  1.
   -9000007    1    1    2    0  503 -0.14566121996E+03 -0.79988461047E-01 -0.51762616346E+03  0.67018955714E+03  0.40000000000E+03 0.  1.
<mgrwt>
<rscale>  2 0.42569613E+03</rscale>
<asrwt>0</asrwt>
<pdfrwt beam="1">  1       21 0.20778087E-01 0.42569613E+03</pdfrwt>
<pdfrwt beam="2">  1       21 0.20995468E+00 0.42569613E+03</pdfrwt>
<totfact> 0.21287315E+03</totfact>
</mgrwt>
</event>
<event>
 4    1  0.4760244E-002  0.6312731E+03  0.7818608E-02  0.9842568E-01
         21   -1    0    0  501  502  0.00000000000E+00  0.00000000000E+00  0.30793697696E+03  0.30793697696E+03  0.00000000000E+00 0. -1.
         21   -1    0    0  502  503 -0.00000000000E+00 -0.00000000000E+00 -0.12953628005E+04  0.12953628005E+04  0.00000000000E+00 0. -1.
    9000007    1    1    2  501    0 -0.13551123510E+03  0.46919343100E+03 -0.46882934129E+03  0.78632481952E+03  0.40000000000E+03 0. -1.
   -9000007    1    1    2    0  503  0.13551123510E+03 -0.46919343100E+03 -0.51859648225E+03  0.81697495796E+03  0.40000000000E+03 0. -1.
<mgrwt>
<rscale>  2 0.63127313E+03</rscale>
<asrwt>0</asrwt>
<pdfrwt beam="1">  1       21 0.47374920E-01 0.63127313E+03</pdfrwt>
<pdfrwt beam="2">  1       21 0.19928658E+00 0.63127313E+03</pdfrwt>
<totfact> 0.44169895E+02</totfact>
</mgrwt>
</event>
<event>
 4    1  0.4760244E-002  0.5690692E+03  0.7818608E-02  0.9971741E-01
         21   -1    0    0  501  502  0.00000000000E+00  0.00000000000E+00  0.62800729480E+03  0.62800729480E+03  0.00000000000E+00 0.  1.
         21   -1    0    0  502  503 -0.00000000000E+00 -0.00000000000E+00 -0.10776435423E+04  0.10776435423E+04  0.00000000000E+00 0. -1.
    9000007    1    1    2  501    0 -0.30757346827E+03 -0.26313165738E+03  0.39104396059E+03  0.69047453726E+03  0.40000000000E+03 0.  1.
   -9000007    1    1    2    0  503  0.30757346827E+03  0.26313165738E+03 -0.84068020813E+03  0.10151762999E+04  0.40000000000E+03 0. -1.
<mgrwt>
<rscale>  2 0.56906916E+03</rscale>
<asrwt>0</asrwt>
<pdfrwt beam="1">  1       21 0.96616508E-01 0.56906916E+03</pdfrwt>
<pdfrwt beam="2">  1       21 0.16579131E+00 0.56906916E+03</pdfrwt>
<totfact> 0.15606034E+02</totfact>
</mgrwt>
</event>
<event>
 4    1  0.4760244E-002  0.4340795E+03  0.7818608E-02  0.1032579E+00
         21   -1    0    0  503  502  0.00000000000E+00  0.00000000000E+00  0.75559002322E+03  0.75559002322E+03  0.00000000000E+00 0. -1.
         21   -1    0    0  501  503 -0.00000000000E+00 -0.00000000000E+00 -0.27099172110E+03  0.27099172110E+03  0.00000000000E+00 0. -1.
    9000007    1    1    2  501    0 -0.15858747329E+03 -0.57228135923E+02  0.97327425414E+02  0.44485691403E+03  0.40000000000E+03 0. -1.
   -9000007    1    1    2    0  502  0.15858747329E+03  0.57228135923E+02  0.38727087671E+03  0.58172483029E+03  0.40000000000E+03 0. -1.
<mgrwt>
<rscale>  2 0.43407954E+03</rscale>
<asrwt>0</asrwt>
<pdfrwt beam="1">  1       21 0.11624462E+00 0.43407954E+03</pdfrwt>
<pdfrwt beam="2">  1       21 0.41691034E-01 0.43407954E+03</pdfrwt>
<totfact> 0.27565056E+03</totfact>
</mgrwt>
</event>
<event>
 4    1  0.4760244E-002  0.4043411E+03  0.7818608E-02  0.1042287E+00
         21   -1    0    0  501  502  0.00000000000E+00  0.00000000000E+00  0.10657055374E+04  0.10657055374E+04  0.00000000000E+00 0.  1.
         21   -1    0    0  502  503 -0.00000000000E+00 -0.00000000000E+00 -0.32032646085E+03  0.32032646085E+03  0.00000000000E+00 0.  1.
    9000007    1    1    2  501    0  0.33575359878E+02  0.48625186421E+02  0.87294772747E+03  0.96204441085E+03  0.40000000000E+03 0.  1.
   -9000007    1    1    2    0  503 -0.33575359878E+02 -0.48625186421E+02 -0.12756865095E+03  0.42398758738E+03  0.40000000000E+03 0.  1.
<mgrwt>
<rscale>  2 0.40434109E+03</rscale>
<asrwt>0</asrwt>
<pdfrwt beam="1">  1       21 0.16395470E+00 0.40434109E+03</pdfrwt>
<pdfrwt beam="2">  1       21 0.49280995E-01 0.40434109E+03</pdfrwt>
<totfact> 0.79222715E+02</totfact>
</mgrwt>
</event>
<event>
 4    1  0.4760244E-002  0.5150465E+03  0.7818608E-02  0.1009924E+00
         21   -1    0    0  503  502  0.00000000000E+00  0.00000000000E+00  0.23207001420E+04  0.23207001420E+04  0.00000000000E+00 0. -1.
         21   -1    0    0  501  503 -0.00000000000E+00 -0.00000000000E+00 -0.15450608087E+03  0.15450608087E+03  0.00000000000E+00 0. -1.
    9000007    1    1    2  501    0  0.30592687368E+03  0.10808189207E+03  0.45182711638E+03  0.68514282491E+03  0.40000000000E+03 0. -1.
   -9000007    1    1    2    0  502 -0.30592687368E+03 -0.10808189207E+03  0.17143669448E+04  0.17900633980E+04  0.40000000000E+03 0. -1.
<mgrwt>
<rscale>  2 0.51504655E+03</rscale>
<asrwt>0</asrwt>
<pdfrwt beam="1">  1       21 0.35703077E+00 0.51504655E+03</pdfrwt>
<pdfrwt beam="2">  1       21 0.23770168E-01 0.51504655E+03</pdfrwt>
<totfact> 0.19623659E+02</totfact>
</mgrwt>
</event>
<event>
 4    1  0.4760244E-002  0.4011312E+03  0.7818608E-02  0.1043389E+00
         21   -1    0    0  501  502  0.00000000000E+00  0.00000000000E+00  0.93183474020E+03  0.93183474020E+03  0.00000000000E+00 0. -1.
         21   -1    0    0  502  503 -0.00000000000E+00 -0.00000000000E+00 -0.22448972270E+03  0.22448972270E+03  0.00000000000E+00 0. -1.
    9000007    1    1    2  501    0  0.14895692847E+02  0.26160228489E+02  0.63143304371E+03  0.74807347761E+03  0.40000000000E+03 0. -1.
   -9000007    1    1    2    0  503 -0.14895692847E+02 -0.26160228489E+02  0.75911973790E+02  0.40825098528E+03  0.40000000000E+03 0. -1.
<mgrwt>
<rscale>  2 0.40113120E+03</rscale>
<asrwt>0</asrwt>
<pdfrwt beam="1">  1       21 0.14335919E+00 0.40113120E+03</pdfrwt>
<pdfrwt beam="2">  1       21 0.34536881E-01 0.40113120E+03</pdfrwt>
<totfact> 0.23850088E+03</totfact>
</mgrwt>
</event>
<event>
 4    1  0.4760244E-002  0.4059275E+03  0.7818608E-02  0.1041746E+00
         21   -1    0    0  501  502  0.00000000000E+00  0.00000000000E+00  0.32127498666E+03  0.32127498666E+03  0.00000000000E+00 0.  1.
         21   -1    0    0  502  503 -0.00000000000E+00 -0.00000000000E+00 -0.51313963047E+03  0.51313963047E+03  0.00000000000E+00 0.  1.
    9000007    1    1    2  501    0  0.25250259473E+02 -0.64339651528E+02 -0.86641154382E+02  0.41507090478E+03  0.40000000000E+03 0.  1.
   -9000007    1    1    2    0  503 -0.25250259473E+02  0.64339651528E+02 -0.10522348942E+03  0.41934371235E+03  0.40000000000E+03 0.  1.
<mgrwt>
<rscale>  2 0.40592754E+03</rscale>
<asrwt>0</asrwt>
<pdfrwt beam="1">  1       21 0.49426921E-01 0.40592754E+03</pdfrwt>
<pdfrwt beam="2">  1       21 0.78944559E-01 0.40592754E+03</pdfrwt>
<totfact> 0.49384511E+03</totfact>
</mgrwt>
</event>
<event>
 4    1  0.4760244E-002  0.7623201E+03  0.7818608E-02  0.9616218E-01
         21   -1    0    0  503  502  0.00000000000E+00  0.00000000000E+00  0.77601842402E+03  0.77601842402E+03  0.00000000000E+00 0. -1.
         21   -1    0    0  501  503 -0.00000000000E+00 -0.00000000000E+00 -0.13372611149E+04  0.13372611149E+04  0.00000000000E+00 0.  1.
    9000007    1    1    2  501    0 -0.33545710464E+03  0.55551818510E+03 -0.98151846044E+03  0.12427833324E+04  0.40000000000E+03 0.  1.
   -9000007    1    1    2    0  502  0.33545710464E+03 -0.55551818510E+03  0.42027576961E+03  0.87049620651E+03  0.40000000000E+03 0. -1.
<mgrwt>
<rscale>  2 0.76232009E+03</rscale>
<asrwt>0</asrwt>
<pdfrwt beam="1">  1       21 0.11938745E+00 0.76232009E+03</pdfrwt>
<pdfrwt beam="2">  1       21 0.20573248E+00 0.76232009E+03</pdfrwt>
<totfact> 0.44754518E+01</totfact>
</mgrwt>
</event>
<event>
 4    1  0.4760244E-002  0.6545064E+03  0.7818608E-02  0.9798360E-01
         21   -1    0    0  501  502  0.00000000000E+00  0.00000000000E+00  0.97831308757E+03  0.97831308757E+03  0.00000000000E+00 0.  1.
         21   -1    0    0  502  503 -0.00000000000E+00 -0.00000000000E+00 -0.43871619358E+03  0.43871619358E+03  0.00000000000E+00 0. -1.
    9000007    1    1    2  501    0  0.43050306978E+03 -0.28817653907E+03  0.23876955272E+03  0.69669900966E+03  0.40000000000E+03 0.  1.
   -9000007    1    1    2    0  503 -0.43050306978E+03  0.28817653907E+03  0.30082734127E+03  0.72033027148E+03  0.40000000000E+03 0.  1.
<mgrwt>
<rscale>  2 0.65450639E+03</rscale>
<asrwt>0</asrwt>
<pdfrwt beam="1">  1       21 0.15050970E+00 0.65450639E+03</pdfrwt>
<pdfrwt beam="2">  1       21 0.67494799E-01 0.65450639E+03</pdfrwt>
<totfact> 0.45836008E+02</totfact>
</mgrwt>
</event>
<event>
 4    1  0.4760244E-002  0.4039515E+03  0.7818608E-02  0.1042420E+00
         21   -1    0    0  503  502  0.00000000000E+00  0.00000000000E+00  0.19671265332E+03  0.19671265332E+03  0.00000000000E+00 0.  1.
         21   -1    0    0  501  503 -0.00000000000E+00 -0.00000000000E+00 -0.91472458256E+03  0.91472458256E+03  0.00000000000E+00 0.  1.
    9000007    1    1    2  501    0 -0.51712861190E+02 -0.22418987521E+02 -0.52861323950E+03  0.66528849982E+03  0.40000000000E+03 0.  1.
   -9000007    1    1    2    0  502  0.51712861190E+02  0.22418987521E+02 -0.18939868974E+03  0.44614873606E+03  0.40000000000E+03 0.  1.
<mgrwt>
<rscale>  2 0.40395152E+03</rscale>
<asrwt>0</asrwt>
<pdfrwt beam="1">  1       21 0.30263486E-01 0.40395152E+03</pdfrwt>
<pdfrwt beam="2">  1       21 0.14072686E+00 0.40395152E+03</pdfrwt>
<totfact> 0.32592228E+03</totfact>
</mgrwt>
</event>
<event>
 4    1  0.4760244E-002  0.5994952E+03  0.7818608E-02  0.9906454E-01
         21   -1    0    0  501  502  0.00000000000E+00  0.00000000000E+00  0.54358905568E+03  0.54358905568E+03  0.00000000000E+00 0. -1.
         21   -1    0    0  502  503 -0.00000000000E+00 -0.00000000000E+00 -0.67640865704E+03  0.67640865704E+03  0.00000000000E+00 0.  1.
    9000007    1    1    2  501    0 -0.23522605131E+03 -0.37955657220E+03  0.25205359736E+02  0.60002483021E+03  0.40000000000E+03 0. -1.
   -9000007    1    1    2    0  503  0.23522605131E+03  0.37955657220E+03 -0.15802496109E+03  0.61997288251E+03  0.40000000000E+03 0.  1.
<mgrwt>
<rscale>  2 0.59949519E+03</rscale>
<asrwt>0</asrwt>
<pdfrwt beam="1">  1       21 0.83629086E-01 0.59949519E+03</pdfrwt>
<pdfrwt beam="2">  1       21 0.10406287E+00 0.59949519E+03</pdfrwt>
<totfact> 0.74313384E+02</totfact>
</mgrwt>
</event>
<event>
 4    1  0.4760244E-002  0.5092651E+03  0.7818608E-02  0.1011388E+00
         21   -1    0    0  501  502  0.00000000000E+00  0.00000000000E+00  0.12684546089E+04  0.12684546089E+04  0.00000000000E+00 0.  1.
         21   -1    0    0  502  503 -0.00000000000E+00 -0.00000000000E+00 -0.21527136145E+03  0.21527136145E+03  0.00000000000E+00 0.  1.
    9000007    1    1    2  501    0 -0.96282416480E+02 -0.30013441814E+03  0.69282848265E+03  0.85986177903E+03  0.40000000000E+03 0.  1.
   -9000007    1    1    2    0  503  0.96282416480E+02  0.30013441814E+03  0.36035476475E+03  0.62386419127E+03  0.40000000000E+03 0.  1.
<mgrwt>
<rscale>  2 0.50926513E+03</rscale>
<asrwt>0</asrwt>
<pdfrwt beam="1">  1       21 0.19514686E+00 0.50926513E+03</pdfrwt>
<pdfrwt beam="2">  1       21 0.33118672E-01 0.50926513E+03</pdfrwt>
<totfact> 0.10334437E+03</totfact>
</mgrwt>
</event>
<event>
 4    1  0.4760244E-002  0.4023213E+03  0.7818608E-02  0.1042979E+00
         21   -1    0    0  503  502  0.00000000000E+00  0.00000000000E+00  0.37229283869E+03  0.37229283869E+03  0.00000000000E+00 0.  1.
         21   -1    0    0  501  503 -0.00000000000E+00 -0.00000000000E+00 -0.82399667751E+03  0.82399667751E+03  0.00000000000E+00 0.  1.
    9000007    1    1    2  501    0 -0.39717138461E+02  0.16881697396E+02 -0.63694848008E+03  0.75336963642E+03  0.40000000000E+03 0.  1.
   -9000007    1    1    2    0  502  0.39717138461E+02 -0.16881697396E+02  0.18524464126E+03  0.44291987979E+03  0.40000000000E+03 0.  1.
<mgrwt>
<rscale>  2 0.40232132E+03</rscale>
<asrwt>0</asrwt>
<pdfrwt beam="1">  1       21 0.57275822E-01 0.40232132E+03</pdfrwt>
<pdfrwt beam="2">  1       21 0.12676872E+00 0.40232132E+03</pdfrwt>
<totfact> 0.11438076E+03</totfact>
</mgrwt>
</event>
<event>
 4    1  0.4760244E-002  0.4512258E+03  0.7818608E-02  0.1027357E+00
         21   -1    0    0  501  502  0.00000000000E+00  0.00000000000E+00  0.62743616754E+03  0.62743616754E+03  0.00000000000E+00 0.  1.
         21   -1    0    0  502  503 -0.00000000000E+00 -0.00000000000E+00 -0.10427208033E+04  0.10427208033E+04  0.00000000000E+00 0.  1.
    9000007    1    1    2  501    0 -0.43909047715E+02  0.20414881523E+03  0.48541865430E+03  0.66274883113E+03  0.40000000000E+03 0.  1.
   -9000007    1    1    2    0  503  0.43909047715E+02 -0.20414881523E+03 -0.90070329002E+03  0.10074081397E+04  0.40000000000E+03 0.  1.
<mgrwt>
<rscale>  2 0.45122582E+03</rscale>
<asrwt>0</asrwt>
<pdfrwt beam="1">  1       21 0.96528642E-01 0.45122582E+03</pdfrwt>
<pdfrwt beam="2">  1       21 0.16041858E+00 0.45122582E+03</pdfrwt>
<totfact> 0.18123652E+02</totfact>
</mgrwt>
</event>
<event>
 4    1  0.4760244E-002  0.4402820E+03  0.7818608E-02  0.1030660E+00
         21   -1    0    0  501  502  0.00000000000E+00  0.00000000000E+00  0.38786698541E+03  0.38786698541E+03  0.00000000000E+00 0.  1.
         21   -1    0    0  502  503 -0.00000000000E+00 -0.00000000000E+00 -0.50328282501E+03  0.50328282501E+03  0.00000000000E+00 0.  1.
    9000007    1    1    2  501    0  0.14878551199E+02 -0.18337640252E+03 -0.20536802387E+02  0.44076074750E+03  0.40000000000E+03 0.  1.
   -9000007    1    1    2    0  503 -0.14878551199E+02  0.18337640252E+03 -0.94879037219E+02  0.45038906291E+03  0.40000000000E+03 0.  1.
<mgrwt>
<rscale>  2 0.44028204E+03</rscale>
<asrwt>0</asrwt>
<pdfrwt beam="1">  1       21 0.59671844E-01 0.44028204E+03</pdfrwt>
<pdfrwt beam="2">  1       21 0.77428127E-01 0.44028204E+03</pdfrwt>
<totfact> 0.34000887E+03</totfact>
</mgrwt>
</event>
<event>
 4    1  0.4760244E-002  0.4340171E+03  0.7818608E-02  0.1032598E+00
         21   -1    0    0  503  502  0.00000000000E+00  0.00000000000E+00  0.98079127063E+03  0.98079127063E+03  0.00000000000E+00 0. -1.
         21   -1    0    0  501  503 -0.00000000000E+00 -0.00000000000E+00 -0.25118054880E+03  0.25118054880E+03  0.00000000000E+00 0. -1.
    9000007    1    1    2  501    0 -0.14457916322E+03  0.86416152352E+02  0.65959960704E+02  0.43900068592E+03  0.40000000000E+03 0. -1.
   -9000007    1    1    2    0  502  0.14457916322E+03 -0.86416152352E+02  0.66365076113E+03  0.79297113351E+03  0.40000000000E+03 0. -1.
<mgrwt>
<rscale>  2 0.43401715E+03</rscale>
<asrwt>0</asrwt>
<pdfrwt beam="1">  1       21 0.15089096E+00 0.43401715E+03</pdfrwt>
<pdfrwt beam="2">  1       21 0.38643162E-01 0.43401715E+03</pdfrwt>
<totfact> 0.16307443E+03</totfact>
</mgrwt>
</event>
<event>
 4    1  0.4760244E-002  0.4222375E+03  0.7818608E-02  0.1036341E+00
         21   -1    0    0  501  502  0.00000000000E+00  0.00000000000E+00  0.53308254749E+03  0.53308254749E+03  0.00000000000E+00 0.  1.
         21   -1    0    0  502  503 -0.00000000000E+00 -0.00000000000E+00 -0.39871114880E+03  0.39871114880E+03  0.00000000000E+00 0. -1.
    9000007    1    1    2  501    0 -0.43542633190E+02  0.12801768886E+03 -0.11986800670E+03  0.43892234916E+03  0.40000000000E+03 0.  1.
   -9000007    1    1    2    0  503  0.43542633190E+02 -0.12801768886E+03  0.25423940539E+03  0.49287134713E+03  0.40000000000E+03 0.  1.
<mgrwt>
<rscale>  2 0.42223748E+03</rscale>
<asrwt>0</asrwt>
<pdfrwt beam="1">  1       21 0.82012700E-01 0.42223748E+03</pdfrwt>
<pdfrwt beam="2">  1       21 0.61340176E-01 0.42223748E+03</pdfrwt>
<totfact> 0.28216029E+03</totfact>
</mgrwt>
</event>
<event>
 4    1  0.4760244E-002  0.4213558E+03  0.7818608E-02  0.1036626E+00
         21   -1    0    0  503  502  0.00000000000E+00  0.00000000000E+00  0.14579679952E+04  0.14579679952E+04  0.00000000000E+00 0. -1.
         21   -1    0    0  501  503 -0.00000000000E+00 -0.00000000000E+00 -0.29993558479E+03  0.29993558479E+03  0.00000000000E+00 0. -1.
    9000007    1    1    2  501    0 -0.12873956374E+03  0.31093868891E+02 -0.98406380190E+02  0.43269448762E+03  0.40000000000E+03 0. -1.
   -9000007    1    1    2    0  502  0.12873956374E+03 -0.31093868891E+02  0.12564387906E+04  0.13252090924E+04  0.40000000000E+03 0. -1.
<mgrwt>
<rscale>  2 0.42135579E+03</rscale>
<asrwt>0</asrwt>
<pdfrwt beam="1">  1       21 0.22430276E+00 0.42135579E+03</pdfrwt>
<pdfrwt beam="2">  1       21 0.46143937E-01 0.42135579E+03</pdfrwt>
<totfact> 0.35123965E+02</totfact>
</mgrwt>
</event>
<event>
 4    1  0.4760244E-002  0.4929429E+03  0.7818608E-02  0.1015638E+00
         21   -1    0    0  501  502  0.00000000000E+00  0.00000000000E+00  0.17785364372E+04  0.17785364372E+04  0.00000000000E+00 0.  1.
         21   -1    0    0  502  503 -0.00000000000E+00 -0.00000000000E+00 -0.26854906446E+03  0.26854906446E+03  0.00000000000E+00 0. -1.
    9000007    1    1    2  501    0 -0.16916332731E+03  0.23318754964E+03  0.14723849141E+04  0.15527105331E+04  0.40000000000E+03 0.  1.
   -9000007    1    1    2    0  503  0.16916332731E+03 -0.23318754964E+03  0.37602458715E+02  0.49437496853E+03  0.40000000000E+03 0. -1.
<mgrwt>
<rscale>  2 0.49294286E+03</rscale>
<asrwt>0</asrwt>
<pdfrwt beam="1">  1       21 0.27362098E+00 0.49294286E+03</pdfrwt>
<pdfrwt beam="2">  1       21 0.41315242E-01 0.49294286E+03</pdfrwt>
<totfact> 0.21107209E+02</totfact>
</mgrwt>
</event>
<event>
 4    1  0.4760244E-002  0.6120989E+03  0.7818608E-02  0.9880618E-01
         21   -1    0    0  501  502  0.00000000000E+00  0.00000000000E+00  0.65009218272E+03  0.65009218272E+03  0.00000000000E+00 0. -1.
         21   -1    0    0  502  503 -0.00000000000E+00 -0.00000000000E+00 -0.68217734775E+03  0.68217734775E+03  0.00000000000E+00 0.  1.
    9000007    1    1    2  501    0  0.41476495231E+03  0.20648259953E+03  0.24635609483E+03  0.65981539466E+03  0.40000000000E+03 0. -1.
   -9000007    1    1    2    0  503 -0.41476495231E+03 -0.20648259953E+03 -0.27844125985E+03  0.67245413581E+03  0.40000000000E+03 0.  1.
<mgrwt>
<rscale>  2 0.61209887E+03</rscale>
<asrwt>0</asrwt>
<pdfrwt beam="1">  1       21 0.10001418E+00 0.61209887E+03</pdfrwt>
<pdfrwt beam="2">  1       21 0.10495036E+00 0.61209887E+03</pdfrwt>
<totfact> 0.47215034E+02</totfact>
</mgrwt>
</event>
<event>
 4    1  0.4760244E-002  0.4872115E+03  0.7818608E-02  0.1017172E+00
         21   -1    0    0  501  502  0.00000000000E+00  0.00000000000E+00  0.19474781811E+04  0.19474781811E+04  0.00000000000E+00 0. -1.
         21   -1    0    0  502  503 -0.00000000000E+00 -0.00000000000E+00 -0.12281986373E+03  0.12281986373E+03  0.00000000000E+00 0. -1.
    9000007    1    1    2  501    0  0.39896467742E+02 -0.27528769675E+03  0.10024751058E+04  0.11145992023E+04  0.40000000000E+03 0.  1.
   -9000007    1    1    2    0  503 -0.39896467742E+02  0.27528769675E+03  0.82218321158E+03  0.95569884248E+03  0.40000000000E+03 0.  1.
<mgrwt>
<rscale>  2 0.48721150E+03</rscale>
<asrwt>0</asrwt>
<pdfrwt beam="1">  1       21 0.29961200E+00 0.48721150E+03</pdfrwt>
<pdfrwt beam="2">  1       21 0.18895365E-01 0.48721150E+03</pdfrwt>
<totfact> 0.69256736E+02</totfact>
</mgrwt>
</event>
<event>
 4    1  0.4760244E-002  0.4603071E+03  0.7818608E-02  0.1024692E+00
         21   -1    0    0  503  502  0.00000000000E+00  0.00000000000E+00  0.18683799956E+04  0.18683799956E+04  0.00000000000E+00 0. -1.
         21   -1    0    0  501  503 -0.00000000000E+00 -0.00000000000E+00 -0.12328621179E+03  0.12328621179E+03  0.00000000000E+00 0. -1.
    9000007    1    1    2  501    0  0.17263823710E+03  0.14858884169E+03  0.59061350591E+03  0.74880365794E+03  0.40000000000E+03 0. -1.
   -9000007    1    1    2    0  502 -0.17263823710E+03 -0.14858884169E+03  0.11544802779E+04  0.12428625495E+04  0.40000000000E+03 0. -1.
<mgrwt>
<rscale>  2 0.46030708E+03</rscale>
<asrwt>0</asrwt>
<pdfrwt beam="1">  1       21 0.28744306E+00 0.46030708E+03</pdfrwt>
<pdfrwt beam="2">  1       21 0.18967111E-01 0.46030708E+03</pdfrwt>
<totfact> 0.82568586E+02</totfact>
</mgrwt>
</event>
<event>
 4    1  0.4760244E-002  0.4788853E+03  0.7818608E-02  0.1019442E+00
         21   -1    0    0  503  502  0.00000000000E+00  0.00000000000E+00  0.17903204865E+04  0.17903204865E+04  0.00000000000E+00 0. -1.
         21   -1    0    0  501  503 -0.00000000000E+00 -0.00000000000E+00 -0.15954725623E+03  0.15954725623E+03  0.00000000000E+00 0. -1.
    9000007    1    1    2  501    0  0.26169994022E+03 -0.29055962067E+02  0.38251772701E+03  0.61290367850E+03  0.40000000000E+03 0. -1.
   -9000007    1    1    2    0  502 -0.26169994022E+03  0.29055962067E+02  0.12482555032E+04  0.13369640642E+04  0.40000000000E+03 0. -1.
<mgrwt>
<rscale>  2 0.47888528E+03</rscale>
<asrwt>0</asrwt>
<pdfrwt beam="1">  1       21 0.27543391E+00 0.47888528E+03</pdfrwt>
<pdfrwt beam="2">  1       21 0.24545733E-01 0.47888528E+03</pdfrwt>
<totfact> 0.58910914E+02</totfact>
</mgrwt>
</event>
<event>
 4    1  0.4760244E-002  0.7335602E+03  0.7818608E-02  0.9661501E-01
         21   -1    0    0  501  502  0.00000000000E+00  0.00000000000E+00  0.95923551154E+03  0.95923551154E+03  0.00000000000E+00 0. -1.
         21   -1    0    0  502  503 -0.00000000000E+00 -0.00000000000E+00 -0.84402439345E+03  0.84402439345E+03  0.00000000000E+00 0.  1.
    9000007    1    1    2  501    0 -0.53177972965E+03 -0.30874079739E+03  0.57973623654E+03  0.93498912550E+03  0.40000000000E+03 0. -1.
   -9000007    1    1    2    0  503  0.53177972965E+03  0.30874079739E+03 -0.46452511845E+03  0.86827077949E+03  0.40000000000E+03 0.  1.
<mgrwt>
<rscale>  2 0.73356020E+03</rscale>
<asrwt>0</asrwt>
<pdfrwt beam="1">  1       21 0.14757469E+00 0.73356020E+03</pdfrwt>
<pdfrwt beam="2">  1       21 0.12984991E+00 0.73356020E+03</pdfrwt>
<totfact> 0.96513171E+01</totfact>
</mgrwt>
</event>
<event>
 4    1  0.4760244E-002  0.4075788E+03  0.7818608E-02  0.1041187E+00
         21   -1    0    0  503  502  0.00000000000E+00  0.00000000000E+00  0.18106933355E+03  0.18106933355E+03  0.00000000000E+00 0. -1.
         21   -1    0    0  501  503 -0.00000000000E+00 -0.00000000000E+00 -0.22199895624E+04  0.22199895624E+04  0.00000000000E+00 0.  1.
    9000007    1    1    2  501    0 -0.69289424252E+02 -0.36324680392E+02 -0.19390501206E+04  0.19814226902E+04  0.40000000000E+03 0.  1.
   -9000007    1    1    2    0  502  0.69289424252E+02  0.36324680392E+02 -0.99870108233E+02  0.41963620582E+03  0.40000000000E+03 0. -1.
<mgrwt>
<rscale>  2 0.40757883E+03</rscale>
<asrwt>0</asrwt>
<pdfrwt beam="1">  1       21 0.27856819E-01 0.40757883E+03</pdfrwt>
<pdfrwt beam="2">  1       21 0.34153687E+00 0.40757883E+03</pdfrwt>
<totfact> 0.19178888E+02</totfact>
</mgrwt>
</event>
<event>
 4    1  0.4760244E-002  0.4514546E+03  0.7818608E-02  0.1027289E+00
         21   -1    0    0  501  502  0.00000000000E+00  0.00000000000E+00  0.72477832532E+03  0.72477832532E+03  0.00000000000E+00 0.  1.
         21   -1    0    0  502  503 -0.00000000000E+00 -0.00000000000E+00 -0.28186787409E+03  0.28186787409E+03  0.00000000000E+00 0. -1.
    9000007    1    1    2  501    0  0.15772692029E+03  0.13759884533E+03  0.24586530152E+03  0.51406319661E+03  0.40000000000E+03 0.  1.
   -9000007    1    1    2    0  503 -0.15772692029E+03 -0.13759884533E+03  0.19704514972E+03  0.49258300280E+03  0.40000000000E+03 0. -1.
<mgrwt>
<rscale>  2 0.45145456E+03</rscale>
<asrwt>0</asrwt>
<pdfrwt beam="1">  1       21 0.11150436E+00 0.45145456E+03</pdfrwt>
<pdfrwt beam="2">  1       21 0.43364289E-01 0.45145456E+03</pdfrwt>
<totfact> 0.28000814E+03</totfact>
</mgrwt>
</event>
<event>
 4    1  0.4760244E-002  0.4658527E+03  0.7818608E-02  0.1023097E+00
         21   -1    0    0  503  502  0.00000000000E+00  0.00000000000E+00  0.57007085569E+03  0.57007085569E+03  0.00000000000E+00 0.  1.
         21   -1    0    0  501  503 -0.00000000000E+00 -0.00000000000E+00 -0.38328492832E+03  0.38328492832E+03  0.00000000000E+00 0.  1.
    9000007    1    1    2  501    0 -0.76610887271E+02 -0.22616257780E+03  0.13263503678E+03  0.48436638263E+03  0.40000000000E+03 0.  1.
   -9000007    1    1    2    0  502  0.76610887271E+02  0.22616257780E+03  0.54150890590E+02  0.46898940137E+03  0.40000000000E+03 0.  1.
<mgrwt>
<rscale>  2 0.46585270E+03</rscale>
<asrwt>0</asrwt>
<pdfrwt beam="1">  1       21 0.87703209E-01 0.46585270E+03</pdfrwt>
<pdfrwt beam="2">  1       21 0.58966912E-01 0.46585270E+03</pdfrwt>
<totfact> 0.25884187E+03</totfact>
</mgrwt>
</event>
<event>
 4    1  0.4760244E-002  0.4525764E+03  0.7818608E-02  0.1026957E+00
         21   -1    0    0  501  502  0.00000000000E+00  0.00000000000E+00  0.54464467899E+03  0.54464467899E+03  0.00000000000E+00 0.  1.
         21   -1    0    0  502  503 -0.00000000000E+00 -0.00000000000E+00 -0.37663238035E+03  0.37663238035E+03  0.00000000000E+00 0.  1.
    9000007    1    1    2  501    0 -0.16738019002E+03  0.12965067481E+03  0.66232493723E+02  0.45739716737E+03  0.40000000000E+03 0.  1.
   -9000007    1    1    2    0  503  0.16738019002E+03 -0.12965067481E+03  0.10177980492E+03  0.46387989198E+03  0.40000000000E+03 0.  1.
<mgrwt>
<rscale>  2 0.45257643E+03</rscale>
<asrwt>0</asrwt>
<pdfrwt beam="1">  1       21 0.83791489E-01 0.45257643E+03</pdfrwt>
<pdfrwt beam="2">  1       21 0.57943443E-01 0.45257643E+03</pdfrwt>
<totfact> 0.30070392E+03</totfact>
</mgrwt>
</event>
<event>
 4    1  0.4760244E-002  0.4401559E+03  0.7818608E-02  0.1030699E+00
         21   -1    0    0  501  502  0.00000000000E+00  0.00000000000E+00  0.24361281468E+03  0.24361281468E+03  0.00000000000E+00 0. -1.
         21   -1    0    0  502  503 -0.00000000000E+00 -0.00000000000E+00 -0.93068236609E+03  0.93068236609E+03  0.00000000000E+00 0. -1.
    9000007    1    1    2  501    0 -0.15948247289E+03  0.91118431719E+02 -0.11956957475E+03  0.45610756512E+03  0.40000000000E+03 0. -1.
   -9000007    1    1    2    0  503  0.15948247289E+03 -0.91118431719E+02 -0.56749997666E+03  0.71818761564E+03  0.40000000000E+03 0. -1.
<mgrwt>
<rscale>  2 0.44015591E+03</rscale>
<asrwt>0</asrwt>
<pdfrwt beam="1">  1       21 0.37478895E-01 0.44015591E+03</pdfrwt>
<pdfrwt beam="2">  1       21 0.14318190E+00 0.44015591E+03</pdfrwt>
<totfact> 0.19946309E+03</totfact>
</mgrwt>
</event>
<event>
 4    1  0.4760244E-002  0.5049288E+03  0.7818608E-02  0.1012500E+00
         21   -1    0    0  503  502  0.00000000000E+00  0.00000000000E+00  0.87739235269E+03  0.87739235269E+03  0.00000000000E+00 0.  1.
         21   -1    0    0  501  503 -0.00000000000E+00 -0.00000000000E+00 -0.30718275337E+03  0.30718275337E+03  0.00000000000E+00 0.  1.
    9000007    1    1    2  501    0 -0.78193384746E+00 -0.30814362971E+03  0.14740994276E+03  0.52600646306E+03  0.40000000000E+03 0.  1.
   -9000007    1    1    2    0  502  0.78193384746E+00  0.30814362971E+03  0.42279965656E+03  0.65856864300E+03  0.40000000000E+03 0.  1.
<mgrwt>
<rscale>  2 0.50492881E+03</rscale>
<asrwt>0</asrwt>
<pdfrwt beam="1">  1       21 0.13498344E+00 0.50492881E+03</pdfrwt>
<pdfrwt beam="2">  1       21 0.47258885E-01 0.50492881E+03</pdfrwt>
<totfact> 0.14061021E+03</totfact>
</mgrwt>
</event>
<event>
 4    1  0.4760244E-002  0.5985359E+03  0.7818608E-02  0.9908448E-01
         21   -1    0    0  501  502  0.00000000000E+00  0.00000000000E+00  0.50934890757E+03  0.50934890757E+03  0.00000000000E+00 0.  1.
         21   -1    0    0  502  503 -0.00000000000E+00 -0.00000000000E+00 -0.76335739002E+03  0.76335739002E+03  0.00000000000E+00 0. -1.
    9000007    1    1    2  501    0  0.43889080240E+03  0.74967209234E+02  0.51428484688E+02  0.60074129867E+03  0.40000000000E+03 0. -1.
   -9000007    1    1    2    0  503 -0.43889080240E+03 -0.74967209234E+02 -0.30543696713E+03  0.67196499892E+03  0.40000000000E+03 0. -1.
<mgrwt>
<rscale>  2 0.59853590E+03</rscale>
<asrwt>0</asrwt>
<pdfrwt beam="1">  1       21 0.78361371E-01 0.59853590E+03</pdfrwt>
<pdfrwt beam="2">  1       21 0.11743960E+00 0.59853590E+03</pdfrwt>
<totfact> 0.63917687E+02</totfact>
</mgrwt>
</event>
<event>
 4    1  0.4760244E-002  0.4357704E+03  0.7818608E-02  0.1032053E+00
         21   -1    0    0  503  502  0.00000000000E+00  0.00000000000E+00  0.32288633340E+03  0.32288633340E+03  0.00000000000E+00 0.  1.
         21   -1    0    0  501  503 -0.00000000000E+00 -0.00000000000E+00 -0.73888171482E+03  0.73888171482E+03  0.00000000000E+00 0.  1.
    9000007    1    1    2  501    0 -0.17056752473E+03  0.28328794091E+02 -0.44780268228E+03  0.62483841377E+03  0.40000000000E+03 0.  1.
   -9000007    1    1    2    0  502  0.17056752473E+03 -0.28328794091E+02  0.31807300853E+02  0.43692963445E+03  0.40000000000E+03 0.  1.
<mgrwt>
<rscale>  2 0.43577035E+03</rscale>
<asrwt>0</asrwt>
<pdfrwt beam="1">  1       21 0.49674821E-01 0.43577035E+03</pdfrwt>
<pdfrwt beam="2">  1       21 0.11367411E+00 0.43577035E+03</pdfrwt>
<totfact> 0.20173536E+03</totfact>
</mgrwt>
</event>
<event>
 4    1  0.4760244E-002  0.4328380E+03  0.7818608E-02  0.1032967E+00
         21   -1    0    0  501  502  0.00000000000E+00  0.00000000000E+00  0.37740351368E+03  0.37740351368E+03  0.00000000000E+00 0.  1.
         21   -1    0    0  502  503 -0.00000000000E+00 -0.00000000000E+00 -0.53636739101E+03  0.53636739101E+03  0.00000000000E+00 0. -1.
    9000007    1    1    2  501    0 -0.59802234239E+02 -0.15418304230E+03  0.45212825535E+02  0.43519296564E+03  0.40000000000E+03 0.  1.
   -9000007    1    1    2    0  503  0.59802234239E+02  0.15418304230E+03 -0.20417670286E+03  0.47857793905E+03  0.40000000000E+03 0. -1.
<mgrwt>
<rscale>  2 0.43283798E+03</rscale>
<asrwt>0</asrwt>
<pdfrwt beam="1">  1       21 0.58062079E-01 0.43283798E+03</pdfrwt>
<pdfrwt beam="2">  1       21 0.82518060E-01 0.43283798E+03</pdfrwt>
<totfact> 0.31243874E+03</totfact>
</mgrwt>
</event>
<event>
 4    1  0.4760244E-002  0.4118786E+03  0.7818608E-02  0.1039742E+00
         21   -1    0    0  501  502  0.00000000000E+00  0.00000000000E+00  0.84322103890E+03  0.84322103890E+03  0.00000000000E+00 0.  1.
         21   -1    0    0  502  503 -0.00000000000E+00 -0.00000000000E+00 -0.84412460451E+03  0.84412460451E+03  0.00000000000E+00 0.  1.
    9000007    1    1    2  501    0 -0.90972202215E+02  0.36986931274E+02  0.73584965464E+03  0.84327853577E+03  0.40000000000E+03 0.  1.
   -9000007    1    1    2    0  503  0.90972202215E+02 -0.36986931274E+02 -0.73675322024E+03  0.84406710764E+03  0.40000000000E+03 0.  1.
<mgrwt>
<rscale>  2 0.41187859E+03</rscale>
<asrwt>0</asrwt>
<pdfrwt beam="1">  1       21 0.12972631E+00 0.41187859E+03</pdfrwt>
<pdfrwt beam="2">  1       21 0.12986532E+00 0.41187859E+03</pdfrwt>
<totfact> 0.15611718E+02</totfact>
</mgrwt>
</event>
<event>
 4    1  0.4760244E-002  0.4549856E+03  0.7818608E-02  0.1026246E+00
         21   -1    0    0  501  502  0.00000000000E+00  0.00000000000E+00  0.14734935140E+04  0.14734935140E+04  0.00000000000E+00 0.  1.
         21   -1    0    0  502  503 -0.00000000000E+00 -0.00000000000E+00 -0.16678119418E+03  0.16678119418E+03  0.00000000000E+00 0.  1.
    9000007    1    1    2  501    0  0.33489851071E+02 -0.21422022820E+03  0.97897826493E+03  0.10795417173E+04  0.40000000000E+03 0.  1.
   -9000007    1    1    2    0  503 -0.33489851071E+02  0.21422022820E+03  0.32773405492E+03  0.56073299087E+03  0.40000000000E+03 0.  1.
<mgrwt>
<rscale>  2 0.45498558E+03</rscale>
<asrwt>0</asrwt>
<pdfrwt beam="1">  1       21 0.22669130E+00 0.45498558E+03</pdfrwt>
<pdfrwt beam="2">  1       21 0.25658646E-01 0.45498558E+03</pdfrwt>
<totfact> 0.10917695E+03</totfact>
</mgrwt>
</event>
<event>
 4    1  0.4760244E-002  0.4982874E+03  0.7818608E-02  0.1014227E+00
         21   -1    0    0  501  502  0.00000000000E+00  0.00000000000E+00  0.68384416776E+03  0.68384416776E+03  0.00000000000E+00 0. -1.
         21   -1    0    0  502  503 -0.00000000000E+00 -0.00000000000E+00 -0.41298500224E+03  0.41298500224E+03  0.00000000000E+00 0.  1.
    9000007    1    1    2  501    0 -0.63257196369E+02 -0.29032544192E+03 -0.55209814849E+02  0.50133667208E+03  0.40000000000E+03 0. -1.
   -9000007    1    1    2    0  503  0.63257196369E+02  0.29032544192E+03  0.32606898036E+03  0.59549249792E+03  0.40000000000E+03 0.  1.
<mgrwt>
<rscale>  2 0.49828740E+03</rscale>
<asrwt>0</asrwt>
<pdfrwt beam="1">  1       21 0.10520679E+00 0.49828740E+03</pdfrwt>
<pdfrwt beam="2">  1       21 0.63536154E-01 0.49828740E+03</pdfrwt>
<totfact> 0.13999935E+03</totfact>
</mgrwt>
</event>
<event>
 4    1  0.4760244E-002  0.4236337E+03  0.7818608E-02  0.1035890E+00
         21   -1    0    0  501  502  0.00000000000E+00  0.00000000000E+00  0.13997232910E+04  0.13997232910E+04  0.00000000000E+00 0.  1.
         21   -1    0    0  502  503 -0.00000000000E+00 -0.00000000000E+00 -0.16087047547E+03  0.16087047547E+03  0.00000000000E+00 0.  1.
    9000007    1    1    2  501    0 -0.45729337225E+02 -0.13181165766E+03  0.97098674965E+03  0.10593775311E+04  0.40000000000E+03 0.  1.
   -9000007    1    1    2    0  503  0.45729337225E+02  0.13181165766E+03  0.26786606590E+03  0.50121623541E+03  0.40000000000E+03 0.  1.
<mgrwt>
<rscale>  2 0.42363367E+03</rscale>
<asrwt>0</asrwt>
<pdfrwt beam="1">  1       21 0.21534204E+00 0.42363367E+03</pdfrwt>
<pdfrwt beam="2">  1       21 0.24749305E-01 0.42363367E+03</pdfrwt>
<totfact> 0.14043610E+03</totfact>
</mgrwt>
</event>
<event>
 4    1  0.4760244E-002  0.5335837E+03  0.7818608E-02  0.1005367E+00
         21   -1    0    0  501  502  0.00000000000E+00  0.00000000000E+00  0.91145708239E+03  0.91145708239E+03  0.00000000000E+00 0. -1.
         21   -1    0    0  502  503 -0.00000000000E+00 -0.00000000000E+00 -0.37182466138E+03  0.37182466138E+03  0.00000000000E+00 0. -1.
    9000007    1    1    2  501    0 -0.34051818866E+03 -0.93589142635E+02  0.52639279486E+03  0.74953381438E+03  0.40000000000E+03 0. -1.
   -9000007    1    1    2    0  503  0.34051818866E+03  0.93589142635E+02  0.13239626158E+02  0.53374792939E+03  0.40000000000E+03 0. -1.
<mgrwt>
<rscale>  2 0.53358370E+03</rscale>
<asrwt>0</asrwt>
<pdfrwt beam="1">  1       21 0.14022417E+00 0.53358370E+03</pdfrwt>
<pdfrwt beam="2">  1       21 0.57203794E-01 0.53358370E+03</pdfrwt>
<totfact> 0.83481719E+02</totfact>
</mgrwt>
</event>
<event>
 4    1  0.4760244E-002  0.4176966E+03  0.7818608E-02  0.1037819E+00
         21   -1    0    0  503  502  0.00000000000E+00  0.00000000000E+00  0.36084032535E+03  0.36084032535E+03  0.00000000000E+00 0.  1.
         21   -1    0    0  501  503 -0.00000000000E+00 -0.00000000000E+00 -0.49761207790E+03  0.49761207790E+03  0.00000000000E+00 0.  1.
    9000007    1    1    2  501    0  0.67019818860E+02  0.99893821420E+02  0.38677880947E+01  0.41771448558E+03  0.40000000000E+03 0. -1.
   -9000007    1    1    2    0  502 -0.67019818860E+02 -0.99893821420E+02 -0.14063954064E+03  0.44073791767E+03  0.40000000000E+03 0. -1.
<mgrwt>
<rscale>  2 0.41769658E+03</rscale>
<asrwt>0</asrwt>
<pdfrwt beam="1">  1       21 0.55513896E-01 0.41769658E+03</pdfrwt>
<pdfrwt beam="2">  1       21 0.76555704E-01 0.41769658E+03</pdfrwt>
<totfact> 0.41158469E+03</totfact>
</mgrwt>
</event>
<event>
 4    1  0.4760244E-002  0.4214679E+03  0.7818608E-02  0.1036590E+00
         21   -1    0    0  501  502  0.00000000000E+00  0.00000000000E+00  0.67912050474E+03  0.67912050474E+03  0.00000000000E+00 0. -1.
         21   -1    0    0  502  503 -0.00000000000E+00 -0.00000000000E+00 -0.27315363288E+03  0.27315363288E+03  0.00000000000E+00 0. -1.
    9000007    1    1    2  501    0  0.11696360638E+03  0.62886412642E+02  0.30104891386E+03  0.51794365973E+03  0.40000000000E+03 0. -1.
   -9000007    1    1    2    0  503 -0.11696360638E+03 -0.62886412642E+02  0.10491795800E+03  0.43433047789E+03  0.40000000000E+03 0. -1.
<mgrwt>
<rscale>  2 0.42146789E+03</rscale>
<asrwt>0</asrwt>
<pdfrwt beam="1">  1       21 0.10448008E+00 0.42146789E+03</pdfrwt>
<pdfrwt beam="2">  1       21 0.42023636E-01 0.42146789E+03</pdfrwt>
<totfact> 0.35492676E+03</totfact>
</mgrwt>
</event>
<event>
 4    1  0.4760244E-002  0.4036460E+03  0.7818608E-02  0.1042524E+00
         21   -1    0    0  503  502  0.00000000000E+00  0.00000000000E+00  0.30668964492E+03  0.30668964492E+03  0.00000000000E+00 0.  1.
         21   -1    0    0  501  503 -0.00000000000E+00 -0.00000000000E+00 -0.66574665446E+03  0.66574665446E+03  0.00000000000E+00 0.  1.
    9000007    1    1    2  501    0  0.41344293957E+02  0.34939395864E+02 -0.39806596550E+03  0.56690971496E+03  0.40000000000E+03 0.  1.
   -9000007    1    1    2    0  502 -0.41344293957E+02 -0.34939395864E+02  0.39008955964E+02  0.40552658442E+03  0.40000000000E+03 0.  1.
<mgrwt>
<rscale>  2 0.40364602E+03</rscale>
<asrwt>0</asrwt>
<pdfrwt beam="1">  1       21 0.47183023E-01 0.40364602E+03</pdfrwt>
<pdfrwt beam="2">  1       21 0.10242256E+00 0.40364602E+03</pdfrwt>
<totfact> 0.29464359E+03</totfact>
</mgrwt>
</event>
<event>
 4    1  0.4760244E-002  0.4149084E+03  0.7818608E-02  0.1038736E+00
         21   -1    0    0  503  502  0.00000000000E+00  0.00000000000E+00  0.46951917030E+03  0.46951917030E+03  0.00000000000E+00 0. -1.
         21   -1    0    0  501  503 -0.00000000000E+00 -0.00000000000E+00 -0.55231486060E+03  0.55231486060E+03  0.00000000000E+00 0. -1.
    9000007    1    1    2  501    0  0.98441588879E+02  0.49580867918E+02 -0.33762328004E+03  0.53491914165E+03  0.40000000000E+03 0. -1.
   -9000007    1    1    2    0  502 -0.98441588879E+02 -0.49580867918E+02  0.25482758973E+03  0.48691488925E+03  0.40000000000E+03 0. -1.
<mgrwt>
<rscale>  2 0.41490843E+03</rscale>
<asrwt>0</asrwt>
<pdfrwt beam="1">  1       21 0.72233718E-01 0.41490843E+03</pdfrwt>
<pdfrwt beam="2">  1       21 0.84971517E-01 0.41490843E+03</pdfrwt>
<totfact> 0.18102834E+03</totfact>
</mgrwt>
</event>
<event>
 4    1  0.4760244E-002  0.4730487E+03  0.7818608E-02  0.1021063E+00
         21   -1    0    0  503  502  0.00000000000E+00  0.00000000000E+00  0.14577835322E+03  0.14577835322E+03  0.00000000000E+00 0.  1.
         21   -1    0    0  501  503 -0.00000000000E+00 -0.00000000000E+00 -0.16311392712E+04  0.16311392712E+04  0.00000000000E+00 0. -1.
    9000007    1    1    2  501    0  0.94640114347E+02 -0.23413315401E+03 -0.95833562085E+03  0.10687292675E+04  0.40000000000E+03 0. -1.
   -9000007    1    1    2    0  502 -0.94640114347E+02  0.23413315401E+03 -0.52702529718E+03  0.70818835695E+03  0.40000000000E+03 0.  1.
<mgrwt>
<rscale>  2 0.47304871E+03</rscale>
<asrwt>0</asrwt>
<pdfrwt beam="1">  1       21 0.22427440E-01 0.47304871E+03</pdfrwt>
<pdfrwt beam="2">  1       21 0.25094449E+00 0.47304871E+03</pdfrwt>
<totfact> 0.99227008E+02</totfact>
</mgrwt>
</event>
<event>
 4    1  0.4760244E-002  0.4024627E+03  0.7818608E-02  0.1042930E+00
         21   -1    0    0  503  502  0.00000000000E+00  0.00000000000E+00  0.23099635875E+03  0.23099635875E+03  0.00000000000E+00 0. -1.
         21   -1    0    0  501  503 -0.00000000000E+00 -0.00000000000E+00 -0.71769564204E+03  0.71769564204E+03  0.00000000000E+00 0. -1.
    9000007    1    1    2  501    0  0.89655439339E+01  0.43541482249E+02 -0.31524796980E+03  0.51123138022E+03  0.40000000000E+03 0. -1.
   -9000007    1    1    2    0  502 -0.89655439339E+01 -0.43541482249E+02 -0.17145131348E+03  0.43746062057E+03  0.40000000000E+03 0. -1.
<mgrwt>
<rscale>  2 0.40246272E+03</rscale>
<asrwt>0</asrwt>
<pdfrwt beam="1">  1       21 0.35537901E-01 0.40246272E+03</pdfrwt>
<pdfrwt beam="2">  1       21 0.11041471E+00 0.40246272E+03</pdfrwt>
<totfact> 0.43966962E+03</totfact>
</mgrwt>
</event>
<event>
 4    1  0.4760244E-002  0.4357619E+03  0.7818608E-02  0.1032055E+00
         21   -1    0    0  501  502  0.00000000000E+00  0.00000000000E+00  0.82198089360E+03  0.82198089360E+03  0.00000000000E+00 0. -1.
         21   -1    0    0  502  503 -0.00000000000E+00 -0.00000000000E+00 -0.23348617744E+03  0.23348617744E+03  0.00000000000E+00 0. -1.
    9000007    1    1    2  501    0  0.17170910331E+03 -0.20109714402E+02  0.23993529532E+03  0.49745086462E+03  0.40000000000E+03 0. -1.
   -9000007    1    1    2    0  503 -0.17170910331E+03  0.20109714402E+02  0.34855942084E+03  0.55801620642E+03  0.40000000000E+03 0. -1.
<mgrwt>
<rscale>  2 0.43576188E+03</rscale>
<asrwt>0</asrwt>
<pdfrwt beam="1">  1       21 0.12645860E+00 0.43576188E+03</pdfrwt>
<pdfrwt beam="2">  1       21 0.35920951E-01 0.43576188E+03</pdfrwt>
<totfact> 0.30167127E+03</totfact>
</mgrwt>
</event>
<event>
 4    1  0.4760244E-002  0.4472643E+03  0.7818608E-02  0.1028541E+00
         21   -1    0    0  503  502  0.00000000000E+00  0.00000000000E+00  0.37508055195E+03  0.37508055195E+03  0.00000000000E+00 0.  1.
         21   -1    0    0  501  503 -0.00000000000E+00 -0.00000000000E+00 -0.58214971250E+03  0.58214971250E+03  0.00000000000E+00 0.  1.
    9000007    1    1    2  501    0  0.11378913431E+03  0.16461283910E+03 -0.24212189630E+03  0.50859450110E+03  0.40000000000E+03 0.  1.
   -9000007    1    1    2    0  502 -0.11378913431E+03 -0.16461283910E+03  0.35052735745E+02  0.44863576336E+03  0.40000000000E+03 0.  1.
<mgrwt>
<rscale>  2 0.44726430E+03</rscale>
<asrwt>0</asrwt>
<pdfrwt beam="1">  1       21 0.57704701E-01 0.44726430E+03</pdfrwt>
<pdfrwt beam="2">  1       21 0.89561494E-01 0.44726430E+03</pdfrwt>
<totfact> 0.25997169E+03</totfact>
</mgrwt>
</event>
<event>
 4    1  0.4760244E-002  0.4635157E+03  0.7818608E-02  0.1023766E+00
         21   -1    0    0  503  502  0.00000000000E+00  0.00000000000E+00  0.10208929972E+04  0.10208929972E+04  0.00000000000E+00 0. -1.
         21   -1    0    0  501  503 -0.00000000000E+00 -0.00000000000E+00 -0.13844242378E+04  0.13844242378E+04  0.00000000000E+00 0. -1.
    9000007    1    1    2  501    0 -0.99347164142E+01 -0.23398313179E+03 -0.12892486414E+04  0.13700397308E+04  0.40000000000E+03 0. -1.
   -9000007    1    1    2    0  502  0.99347164142E+01  0.23398313179E+03  0.92571740076E+03  0.10352775042E+04  0.40000000000E+03 0. -1.
<mgrwt>
<rscale>  2 0.46351570E+03</rscale>
<asrwt>0</asrwt>
<pdfrwt beam="1">  1       21 0.15706046E+00 0.46351570E+03</pdfrwt>
<pdfrwt beam="2">  1       21 0.21298834E+00 0.46351570E+03</pdfrwt>
<totfact> 0.22235789E+01</totfact>
</mgrwt>
</event>
<event>
 4    1  0.4760244E-002  0.4118734E+03  0.7818608E-02  0.1039744E+00
         21   -1    0    0  503  502  0.00000000000E+00  0.00000000000E+00  0.23253557505E+03  0.23253557505E+03  0.00000000000E+00 0. -1.
         21   -1    0    0  501  503 -0.00000000000E+00 -0.00000000000E+00 -0.89696503376E+03  0.89696503376E+03  0.00000000000E+00 0. -1.
    9000007    1    1    2  501    0  0.91306795183E+02  0.36094222672E+02 -0.57622200914E+03  0.70828774349E+03  0.40000000000E+03 0. -1.
   -9000007    1    1    2    0  502 -0.91306795183E+02 -0.36094222672E+02 -0.88207449563E+02  0.42121286532E+03  0.40000000000E+03 0. -1.
<mgrwt>
<rscale>  2 0.41187343E+03</rscale>
<asrwt>0</asrwt>
<pdfrwt beam="1">  1       21 0.35774704E-01 0.41187343E+03</pdfrwt>
<pdfrwt beam="2">  1       21 0.13799462E+00 0.41187343E+03</pdfrwt>
<totfact> 0.24467435E+03</totfact>
</mgrwt>
</event>
<event>
 4    1  0.4760244E-002  0.5373188E+03  0.7818608E-02  0.1004472E+00
         21   -1    0    0  501  502  0.00000000000E+00  0.00000000000E+00  0.59695927839E+03  0.59695927839E+03  0.00000000000E+00 0.  1.
         21   -1    0    0  502  503 -0.00000000000E+00 -0.00000000000E+00 -0.52152512617E+03  0.52152512617E+03  0.00000000000E+00 0.  1.
    9000007    1    1    2  501    0 -0.32902433686E+03 -0.14301918677E+03 -0.11301815471E+03  0.54907613800E+03  0.40000000000E+03 0.  1.
   -9000007    1    1    2    0  503  0.32902433686E+03  0.14301918677E+03  0.18845230693E+03  0.56940826655E+03  0.40000000000E+03 0.  1.
<mgrwt>
<rscale>  2 0.53731881E+03</rscale>
<asrwt>0</asrwt>
<pdfrwt beam="1">  1       21 0.91839889E-01 0.53731881E+03</pdfrwt>
<pdfrwt beam="2">  1       21 0.80234635E-01 0.53731881E+03</pdfrwt>
<totfact> 0.11318237E+03</totfact>
</mgrwt>
</event>
<event>
 4    1  0.4760244E-002  0.4359670E+03  0.7818608E-02  0.1031991E+00
         21   -1    0    0  503  502  0.00000000000E+00  0.00000000000E+00  0.29353849479E+03  0.29353849479E+03  0.00000000000E+00 0. -1.
         21   -1    0    0  501  503 -0.00000000000E+00 -0.00000000000E+00 -0.65616807864E+03  0.65616807864E+03  0.00000000000E+00 0. -1.
    9000007    1    1    2  501    0 -0.78862088406E+01  0.17321963349E+03 -0.23588090013E+03  0.49568844324E+03  0.40000000000E+03 0. -1.
   -9000007    1    1    2    0  502  0.78862088406E+01 -0.17321963349E+03 -0.12674868372E+03  0.45401813019E+03  0.40000000000E+03 0. -1.
<mgrwt>
<rscale>  2 0.43596701E+03</rscale>
<asrwt>0</asrwt>
<pdfrwt beam="1">  1       21 0.45159768E-01 0.43596701E+03</pdfrwt>
<pdfrwt beam="2">  1       21 0.10094894E+00 0.43596701E+03</pdfrwt>
<totfact> 0.33055636E+03</totfact>
</mgrwt>
</event>
<event>
 4    1  0.4760244E-002  0.4025149E+03  0.7818608E-02  0.1042912E+00
         21   -1    0    0  503  502  0.00000000000E+00  0.00000000000E+00  0.86846766094E+03  0.86846766094E+03  0.00000000000E+00 0.  1.
         21   -1    0    0  501  503 -0.00000000000E+00 -0.00000000000E+00 -0.54713926720E+03  0.54713926720E+03  0.00000000000E+00 0.  1.
    9000007    1    1    2  501    0 -0.44443515494E+02  0.65568161594E+01 -0.41393666525E+03  0.57737490485E+03  0.40000000000E+03 0.  1.
   -9000007    1    1    2    0  502  0.44443515494E+02 -0.65568161594E+01  0.73526505899E+03  0.83823202329E+03  0.40000000000E+03 0.  1.
<mgrwt>
<rscale>  2 0.40251487E+03</rscale>
<asrwt>0</asrwt>
<pdfrwt beam="1">  1       21 0.13361041E+00 0.40251487E+03</pdfrwt>
<pdfrwt beam="2">  1       21 0.84175272E-01 0.40251487E+03</pdfrwt>
<totfact> 0.42064441E+02</totfact>
</mgrwt>
</event>
<event>
 4    1  0.4760244E-002  0.4351855E+03  0.7818608E-02  0.1032234E+00
         21   -1    0    0  501  502  0.00000000000E+00  0.00000000000E+00  0.66726307806E+03  0.66726307806E+03  0.00000000000E+00 0.  1.
         21   -1    0    0  502  503 -0.00000000000E+00 -0.00000000000E+00 -0.36507584773E+03  0.36507584773E+03  0.00000000000E+00 0.  1.
    9000007    1    1    2  501    0 -0.14524802267E+03  0.91046249286E+02  0.39460139812E+03  0.58744929228E+03  0.40000000000E+03 0.  1.
   -9000007    1    1    2    0  503  0.14524802267E+03 -0.91046249286E+02 -0.92414167793E+02  0.44488963351E+03  0.40000000000E+03 0.  1.
<mgrwt>
<rscale>  2 0.43518549E+03</rscale>
<asrwt>0</asrwt>
<pdfrwt beam="1">  1       21 0.10265586E+00 0.43518549E+03</pdfrwt>
<pdfrwt beam="2">  1       21 0.56165515E-01 0.43518549E+03</pdfrwt>
<totfact> 0.19951354E+03</totfact>
</mgrwt>
</event>
<event>
 4    1  0.4760244E-002  0.5779926E+03  0.7818608E-02  0.9952146E-01
         21   -1    0    0  503  502  0.00000000000E+00  0.00000000000E+00  0.10107231330E+04  0.10107231330E+04  0.00000000000E+00 0. -1.
         21   -1    0    0  501  503 -0.00000000000E+00 -0.00000000000E+00 -0.33060025064E+03  0.33060025064E+03  0.00000000000E+00 0.  1.
    9000007    1    1    2  501    0  0.32038530770E+03 -0.26726147811E+03  0.34975997598E+03  0.67557936904E+03  0.40000000000E+03 0.  1.
   -9000007    1    1    2    0  502 -0.32038530770E+03  0.26726147811E+03  0.33036290638E+03  0.66574401461E+03  0.40000000000E+03 0. -1.
<mgrwt>
<rscale>  2 0.57799260E+03</rscale>
<asrwt>0</asrwt>
<pdfrwt beam="1">  1       21 0.15549587E+00 0.57799260E+03</pdfrwt>
<pdfrwt beam="2">  1       21 0.50861577E-01 0.57799260E+03</pdfrwt>
<totfact> 0.79975652E+02</totfact>
</mgrwt>
</event>
<event>
 4    1  0.4760244E-002  0.6396832E+03  0.7818608E-02  0.9826333E-01
         21   -1    0    0  503  502  0.00000000000E+00  0.00000000000E+00  0.27592941937E+03  0.27592941937E+03  0.00000000000E+00 0. -1.
         21   -1    0    0  501  503 -0.00000000000E+00 -0.00000000000E+00 -0.14989654823E+04  0.14989654823E+04  0.00000000000E+00 0.  1.
    9000007    1    1    2  501    0 -0.49892462391E+03 -0.16397258794E+02 -0.51984001502E+03  0.82427440313E+03  0.40000000000E+03 0.  1.
   -9000007    1    1    2    0  502  0.49892462391E+03  0.16397258794E+02 -0.70319604791E+03  0.95062049854E+03  0.40000000000E+03 0. -1.
<mgrwt>
<rscale>  2 0.63968324E+03</rscale>
<asrwt>0</asrwt>
<pdfrwt beam="1">  1       21 0.42450681E-01 0.63968324E+03</pdfrwt>
<pdfrwt beam="2">  1       21 0.23061007E+00 0.63968324E+03</pdfrwt>
<totfact> 0.34588822E+02</totfact>
</mgrwt>
</event>
<event>
 4    1  0.4760244E-002  0.4548190E+03  0.7818608E-02  0.1026295E+00
         21   -1    0    0  503  502  0.00000000000E+00  0.00000000000E+00  0.55806640479E+03  0.55806640479E+03  0.00000000000E+00 0. -1.
         21   -1    0    0  501  503 -0.00000000000E+00 -0.00000000000E+00 -0.40140646844E+03  0.40140646844E+03  0.00000000000E+00 0.  1.
    9000007    1    1    2  501    0 -0.21325286044E+03 -0.37195675378E+02 -0.54413873225E+02  0.45806240879E+03  0.40000000000E+03 0.  1.
   -9000007    1    1    2    0  502  0.21325286044E+03  0.37195675378E+02  0.21107380957E+03  0.50141046443E+03  0.40000000000E+03 0. -1.
<mgrwt>
<rscale>  2 0.45481898E+03</rscale>
<asrwt>0</asrwt>
<pdfrwt beam="1">  1       21 0.85856370E-01 0.45481898E+03</pdfrwt>
<pdfrwt beam="2">  1       21 0.61754841E-01 0.45481898E+03</pdfrwt>
<totfact> 0.24685105E+03</totfact>
</mgrwt>
</event>
<event>
 4    1  0.4760244E-002  0.4345292E+03  0.7818608E-02  0.1032439E+00
         21   -1    0    0  503  502  0.00000000000E+00  0.00000000000E+00  0.21777732973E+03  0.21777732973E+03  0.00000000000E+00 0. -1.
         21   -1    0    0  501  503 -0.00000000000E+00 -0.00000000000E+00 -0.90194406461E+03  0.90194406461E+03  0.00000000000E+00 0.  1.
    9000007    1    1    2  501    0 -0.37577161058E+02  0.16554040609E+03 -0.45226244719E+03  0.62718178403E+03  0.40000000000E+03 0. -1.
   -9000007    1    1    2    0  502  0.37577161058E+02 -0.16554040609E+03 -0.23190428769E+03  0.49253961031E+03  0.40000000000E+03 0. -1.
<mgrwt>
<rscale>  2 0.43452925E+03</rscale>
<asrwt>0</asrwt>
<pdfrwt beam="1">  1       21 0.33504205E-01 0.43452925E+03</pdfrwt>
<pdfrwt beam="2">  1       21 0.13876062E+00 0.43452925E+03</pdfrwt>
<totfact> 0.27274422E+03</totfact>
</mgrwt>
</event>
<event>
 4    1  0.4760244E-002  0.5429700E+03  0.7818608E-02  0.1003134E+00
         21   -1    0    0  501  502  0.00000000000E+00  0.00000000000E+00  0.78257638378E+03  0.78257638378E+03  0.00000000000E+00 0.  1.
         21   -1    0    0  502  503 -0.00000000000E+00 -0.00000000000E+00 -0.37936877758E+03  0.37936877758E+03  0.00000000000E+00 0.  1.
    9000007    1    1    2  501    0 -0.35045659834E+03  0.10952903292E+03  0.25009922632E+03  0.59780101989E+03  0.40000000000E+03 0.  1.
   -9000007    1    1    2    0  503  0.35045659834E+03 -0.10952903292E+03  0.15310837988E+03  0.56414414147E+03  0.40000000000E+03 0.  1.
<mgrwt>
<rscale>  2 0.54297001E+03</rscale>
<asrwt>0</asrwt>
<pdfrwt beam="1">  1       21 0.12039637E+00 0.54297001E+03</pdfrwt>
<pdfrwt beam="2">  1       21 0.58364428E-01 0.54297001E+03</pdfrwt>
<totfact> 0.11859448E+03</totfact>
</mgrwt>
</event>
<event>
 4    1  0.4760244E-002  0.4220533E+03  0.7818608E-02  0.1036400E+00
         21   -1    0    0  501  502  0.00000000000E+00  0.00000000000E+00  0.18065175907E+03  0.18065175907E+03  0.00000000000E+00 0.  1.
         21   -1    0    0  502  503 -0.00000000000E+00 -0.00000000000E+00 -0.13856548436E+04  0.13856548436E+04  0.00000000000E+00 0.  1.
    9000007    1    1    2  501    0  0.53978276607E+02 -0.12335043726E+03 -0.18192728072E+03  0.45959386439E+03  0.40000000000E+03 0.  1.
   -9000007    1    1    2    0  503 -0.53978276607E+02  0.12335043726E+03 -0.10230758038E+04  0.11067127383E+04  0.40000000000E+03 0.  1.
<mgrwt>
<rscale>  2 0.42205330E+03</rscale>
<asrwt>0</asrwt>
<pdfrwt beam="1">  1       21 0.27792578E-01 0.42205330E+03</pdfrwt>
<pdfrwt beam="2">  1       21 0.21317767E+00 0.42205330E+03</pdfrwt>
<totfact> 0.11571326E+03</totfact>
</mgrwt>
</event>
<event>
 4    1  0.4760244E-002  0.4747042E+03  0.7818608E-02  0.1020601E+00
         21   -1    0    0  501  502  0.00000000000E+00  0.00000000000E+00  0.21302276562E+03  0.21302276562E+03  0.00000000000E+00 0.  1.
         21   -1    0    0  502  503 -0.00000000000E+00 -0.00000000000E+00 -0.16505506056E+04  0.16505506056E+04  0.00000000000E+00 0.  1.
    9000007    1    1    2  501    0  0.95498155138E+02  0.23711646490E+03 -0.16039243332E+03  0.50106870609E+03  0.40000000000E+03 0.  1.
   -9000007    1    1    2    0  503 -0.95498155138E+02 -0.23711646490E+03 -0.12771354066E+04  0.13625046651E+04  0.40000000000E+03 0.  1.
<mgrwt>
<rscale>  2 0.47470424E+03</rscale>
<asrwt>0</asrwt>
<pdfrwt beam="1">  1       21 0.32772732E-01 0.47470424E+03</pdfrwt>
<pdfrwt beam="2">  1       21 0.25393088E+00 0.47470424E+03</pdfrwt>
<totfact> 0.45077813E+02</totfact>
</mgrwt>
</event>
<event>
 4    1  0.4760244E-002  0.4493751E+03  0.7818608E-02  0.1027909E+00
         21   -1    0    0  503  502  0.00000000000E+00  0.00000000000E+00  0.14185717962E+04  0.14185717962E+04  0.00000000000E+00 0.  1.
         21   -1    0    0  501  503 -0.00000000000E+00 -0.00000000000E+00 -0.61965194377E+03  0.61965194377E+03  0.00000000000E+00 0.  1.
    9000007    1    1    2  501    0  0.15845262188E+03  0.12973340426E+03 -0.49496352185E+03  0.66852589892E+03  0.40000000000E+03 0.  1.
   -9000007    1    1    2    0  502 -0.15845262188E+03 -0.12973340426E+03  0.12938833743E+04  0.13696978411E+04  0.40000000000E+03 0.  1.
<mgrwt>
<rscale>  2 0.44937511E+03</rscale>
<asrwt>0</asrwt>
<pdfrwt beam="1">  1       21 0.21824181E+00 0.44937511E+03</pdfrwt>
<pdfrwt beam="2">  1       21 0.95331069E-01 0.44937511E+03</pdfrwt>
<totfact> 0.74629022E+01</totfact>
</mgrwt>
</event>
<event>
 4    1  0.4760244E-002  0.4140954E+03  0.7818608E-02  0.1039005E+00
         21   -1    0    0  501  502  0.00000000000E+00  0.00000000000E+00  0.15137996862E+04  0.15137996862E+04  0.00000000000E+00 0.  1.
         21   -1    0    0  502  503 -0.00000000000E+00 -0.00000000000E+00 -0.11773624824E+03  0.11773624824E+03  0.00000000000E+00 0.  1.
    9000007    1    1    2  501    0  0.82418210474E+02  0.68426937947E+02  0.53922798275E+03  0.67988368464E+03  0.40000000000E+03 0. -1.
   -9000007    1    1    2    0  503 -0.82418210474E+02 -0.68426937947E+02  0.85683545523E+03  0.95165224982E+03  0.40000000000E+03 0. -1.
<mgrwt>
<rscale>  2 0.41409541E+03</rscale>
<asrwt>0</asrwt>
<pdfrwt beam="1">  1       21 0.23289224E+00 0.41409541E+03</pdfrwt>
<pdfrwt beam="2">  1       21 0.18113270E-01 0.41409541E+03</pdfrwt>
<totfact> 0.19835652E+03</totfact>
</mgrwt>
</event>
<event>
 4    1  0.4760244E-002  0.4276366E+03  0.7818608E-02  0.1034609E+00
         21   -1    0    0  501  502  0.00000000000E+00  0.00000000000E+00  0.21272767791E+03  0.21272767791E+03  0.00000000000E+00 0.  1.
         21   -1    0    0  502  503 -0.00000000000E+00 -0.00000000000E+00 -0.32412635043E+04  0.32412635043E+04  0.00000000000E+00 0.  1.
    9000007    1    1    2  501    0  0.73101138986E+02  0.13239827382E+03 -0.33902399265E+02  0.42897838187E+03  0.40000000000E+03 0.  1.
   -9000007    1    1    2    0  503 -0.73101138986E+02 -0.13239827382E+03 -0.29946334271E+04  0.30250128004E+04  0.40000000000E+03 0.  1.
<mgrwt>
<rscale>  2 0.42763662E+03</rscale>
<asrwt>0</asrwt>
<pdfrwt beam="1">  1       21 0.32727339E-01 0.42763662E+03</pdfrwt>
<pdfrwt beam="2">  1       21 0.49865587E+00 0.42763662E+03</pdfrwt>
<totfact> 0.12781097E+01</totfact>
</mgrwt>
</event>
<event>
 4    1  0.4760244E-002  0.5497549E+03  0.7818608E-02  0.1001551E+00
         21   -1    0    0  503  502  0.00000000000E+00  0.00000000000E+00  0.13125758405E+04  0.13125758405E+04  0.00000000000E+00 0. -1.
         21   -1    0    0  501  503 -0.00000000000E+00 -0.00000000000E+00 -0.24222190037E+03  0.24222190037E+03  0.00000000000E+00 0.  1.
    9000007    1    1    2  501    0  0.25729180129E+03 -0.27573792136E+03  0.36240149025E+03  0.65845676580E+03  0.40000000000E+03 0. -1.
   -9000007    1    1    2    0  502 -0.25729180129E+03  0.27573792136E+03  0.70795244988E+03  0.89634097507E+03  0.40000000000E+03 0. -1.
<mgrwt>
<rscale>  2 0.54975492E+03</rscale>
<asrwt>0</asrwt>
<pdfrwt beam="1">  1       21 0.20193474E+00 0.54975492E+03</pdfrwt>
<pdfrwt beam="2">  1       21 0.37264909E-01 0.54975492E+03</pdfrwt>
<totfact> 0.72050594E+02</totfact>
</mgrwt>
</event>
<event>
 4    1  0.4760244E-002  0.4329182E+03  0.7818608E-02  0.1032942E+00
         21   -1    0    0  503  502  0.00000000000E+00  0.00000000000E+00  0.70758956161E+03  0.70758956161E+03  0.00000000000E+00 0. -1.
         21   -1    0    0  501  503 -0.00000000000E+00 -0.00000000000E+00 -0.41562316655E+03  0.41562316655E+03  0.00000000000E+00 0. -1.
    9000007    1    1    2  501    0 -0.16487182178E+03 -0.15343360901E+02  0.48421748441E+03  0.64952652644E+03  0.40000000000E+03 0. -1.
   -9000007    1    1    2    0  502  0.16487182178E+03  0.15343360901E+02 -0.19225108935E+03  0.47368620172E+03  0.40000000000E+03 0. -1.
<mgrwt>
<rscale>  2 0.43291816E+03</rscale>
<asrwt>0</asrwt>
<pdfrwt beam="1">  1       21 0.10885993E+00 0.43291816E+03</pdfrwt>
<pdfrwt beam="2">  1       21 0.63942026E-01 0.43291816E+03</pdfrwt>
<totfact> 0.13011657E+03</totfact>
</mgrwt>
</event>
<event>
 4    1  0.4760244E-002  0.5426062E+03  0.7818608E-02  0.1003220E+00
         21   -1    0    0  503  502  0.00000000000E+00  0.00000000000E+00  0.30305245812E+03  0.30305245812E+03  0.00000000000E+00 0.  1.
         21   -1    0    0  501  503 -0.00000000000E+00 -0.00000000000E+00 -0.17153471337E+04  0.17153471337E+04  0.00000000000E+00 0. -1.
    9000007    1    1    2  501    0  0.19688272576E+02  0.36610639030E+03 -0.13707118689E+04  0.14742023419E+04  0.40000000000E+03 0. -1.
   -9000007    1    1    2    0  502 -0.19688272576E+02 -0.36610639030E+03 -0.41582806675E+02  0.54419725000E+03  0.40000000000E+03 0.  1.
<mgrwt>
<rscale>  2 0.54260623E+03</rscale>
<asrwt>0</asrwt>
<pdfrwt beam="1">  1       21 0.46623456E-01 0.54260623E+03</pdfrwt>
<pdfrwt beam="2">  1       21 0.26389956E+00 0.54260623E+03</pdfrwt>
<totfact> 0.18325222E+02</totfact>
</mgrwt>
</event>
<event>
 4    1  0.4760244E-002  0.4155182E+03  0.7818608E-02  0.1038535E+00
         21   -1    0    0  501  502  0.00000000000E+00  0.00000000000E+00  0.13412100737E+03  0.13412100737E+03  0.00000000000E+00 0. -1.
         21   -1    0    0  502  503 -0.00000000000E+00 -0.00000000000E+00 -0.13308203046E+04  0.13308203046E+04  0.00000000000E+00 0. -1.
    9000007    1    1    2  501    0  0.47994244263E+02  0.10174448291E+03 -0.46590822008E+03  0.62428027105E+03  0.40000000000E+03 0.  1.
   -9000007    1    1    2    0  503 -0.47994244263E+02 -0.10174448291E+03 -0.73079107717E+03  0.84066104094E+03  0.40000000000E+03 0.  1.
<mgrwt>
<rscale>  2 0.41551822E+03</rscale>
<asrwt>0</asrwt>
<pdfrwt beam="1">  1       21 0.20634000E-01 0.41551822E+03</pdfrwt>
<pdfrwt beam="2">  1       21 0.20474159E+00 0.41551822E+03</pdfrwt>
<totfact> 0.23439493E+03</totfact>
</mgrwt>
</event>
<event>
 4    1  0.4760244E-002  0.4112479E+03  0.7818608E-02  0.1039953E+00
         21   -1    0    0  503  502  0.00000000000E+00  0.00000000000E+00  0.98174800436E+03  0.98174800436E+03  0.00000000000E+00 0.  1.
         21   -1    0    0  501  503 -0.00000000000E+00 -0.00000000000E+00 -0.20667811680E+03  0.20667811680E+03  0.00000000000E+00 0.  1.
    9000007    1    1    2  501    0 -0.57282213277E+02 -0.76443405705E+02  0.14507998551E+03  0.43608834934E+03  0.40000000000E+03 0.  1.
   -9000007    1    1    2    0  502  0.57282213277E+02  0.76443405705E+02  0.62998990205E+03  0.75233777183E+03  0.40000000000E+03 0.  1.
<mgrwt>
<rscale>  2 0.41124791E+03</rscale>
<asrwt>0</asrwt>
<pdfrwt beam="1">  1       21 0.15103815E+00 0.41124791E+03</pdfrwt>
<pdfrwt beam="2">  1       21 0.31796634E-01 0.41124791E+03</pdfrwt>
<totfact> 0.24356611E+03</totfact>
</mgrwt>
</event>
<event>
 4    1  0.4760244E-002  0.5026757E+03  0.7818608E-02  0.1013083E+00
         21   -1    0    0  501  502  0.00000000000E+00  0.00000000000E+00  0.69066902744E+03  0.69066902744E+03  0.00000000000E+00 0. -1.
         21   -1    0    0  502  503 -0.00000000000E+00 -0.00000000000E+00 -0.38425877509E+03  0.38425877509E+03  0.00000000000E+00 0.  1.
    9000007    1    1    2  501    0 -0.11787515200E+03 -0.28069251968E+03  0.27083642451E+03  0.57099493071E+03  0.40000000000E+03 0. -1.
   -9000007    1    1    2    0  503  0.11787515200E+03  0.28069251968E+03  0.35573827840E+02  0.50393287181E+03  0.40000000000E+03 0.  1.
<mgrwt>
<rscale>  2 0.50267568E+03</rscale>
<asrwt>0</asrwt>
<pdfrwt beam="1">  1       21 0.10625677E+00 0.50267568E+03</pdfrwt>
<pdfrwt beam="2">  1       21 0.59116735E-01 0.50267568E+03</pdfrwt>
<totfact> 0.15990064E+03</totfact>
</mgrwt>
</event>
<event>
 4    1  0.4760244E-002  0.4445617E+03  0.7818608E-02  0.1029356E+00
         21   -1    0    0  503  502  0.00000000000E+00  0.00000000000E+00  0.88183834993E+02  0.88183834993E+02  0.00000000000E+00 0. -1.
         21   -1    0    0  501  503 -0.00000000000E+00 -0.00000000000E+00 -0.26703817735E+04  0.26703817735E+04  0.00000000000E+00 0. -1.
    9000007    1    1    2  501    0 -0.19329349455E+03  0.16514797694E+02 -0.73812892170E+03  0.86166665168E+03  0.40000000000E+03 0. -1.
   -9000007    1    1    2    0  502  0.19329349455E+03 -0.16514797694E+02 -0.18440690168E+04  0.18968989568E+04  0.40000000000E+03 0. -1.
<mgrwt>
<rscale>  2 0.44456171E+03</rscale>
<asrwt>0</asrwt>
<pdfrwt beam="1">  1       21 0.13566743E-01 0.44456171E+03</pdfrwt>
<pdfrwt beam="2">  1       21 0.41082799E+00 0.44456171E+03</pdfrwt>
<totfact> 0.26960910E+02</totfact>
</mgrwt>
</event>
<event>
 4    1  0.4760244E-002  0.4376345E+03  0.7818608E-02  0.1031475E+00
         21   -1    0    0  501  502  0.00000000000E+00  0.00000000000E+00  0.59666960293E+03  0.59666960293E+03  0.00000000000E+00 0. -1.
         21   -1    0    0  502  503 -0.00000000000E+00 -0.00000000000E+00 -0.52319901360E+03  0.52319901360E+03  0.00000000000E+00 0. -1.
    9000007    1    1    2  501    0  0.11938493312E+03 -0.13141981469E+03  0.38483668495E+03  0.58277200004E+03  0.40000000000E+03 0. -1.
   -9000007    1    1    2    0  503 -0.11938493312E+03  0.13141981469E+03 -0.31136609561E+03  0.53709661649E+03  0.40000000000E+03 0. -1.
<mgrwt>
<rscale>  2 0.43763447E+03</rscale>
<asrwt>0</asrwt>
<pdfrwt beam="1">  1       21 0.91795324E-01 0.43763447E+03</pdfrwt>
<pdfrwt beam="2">  1       21 0.80492155E-01 0.43763447E+03</pdfrwt>
<totfact> 0.11673032E+03</totfact>
</mgrwt>
</event>
<event>
 4    1  0.4760244E-002  0.5354101E+03  0.7818608E-02  0.1004928E+00
         21   -1    0    0  501  502  0.00000000000E+00  0.00000000000E+00  0.69420405482E+03  0.69420405482E+03  0.00000000000E+00 0. -1.
         21   -1    0    0  502  503 -0.00000000000E+00 -0.00000000000E+00 -0.43054084260E+03  0.43054084260E+03  0.00000000000E+00 0.  1.
    9000007    1    1    2  501    0 -0.12719911938E+03  0.33239193463E+03  0.24554048987E+03  0.58902813714E+03  0.40000000000E+03 0. -1.
   -9000007    1    1    2    0  503  0.12719911938E+03 -0.33239193463E+03  0.18122722347E+02  0.53571676028E+03  0.40000000000E+03 0.  1.
<mgrwt>
<rscale>  2 0.53541014E+03</rscale>
<asrwt>0</asrwt>
<pdfrwt beam="1">  1       21 0.10680062E+00 0.53541014E+03</pdfrwt>
<pdfrwt beam="2">  1       21 0.66237053E-01 0.53541014E+03</pdfrwt>
<totfact> 0.12138420E+03</totfact>
</mgrwt>
</event>
<event>
 4    1  0.4760244E-002  0.4143047E+03  0.7818608E-02  0.1038936E+00
         21   -1    0    0  503  502  0.00000000000E+00  0.00000000000E+00  0.71365906889E+03  0.71365906889E+03  0.00000000000E+00 0.  1.
         21   -1    0    0  501  503 -0.00000000000E+00 -0.00000000000E+00 -0.35312691853E+03  0.35312691853E+03  0.00000000000E+00 0. -1.
    9000007    1    1    2  501    0 -0.95722600537E+02  0.49855632566E+02 -0.12094213565E+03  0.43159633980E+03  0.40000000000E+03 0. -1.
   -9000007    1    1    2    0  502  0.95722600537E+02 -0.49855632566E+02  0.48147428601E+03  0.63518964762E+03  0.40000000000E+03 0.  1.
<mgrwt>
<rscale>  2 0.41430472E+03</rscale>
<asrwt>0</asrwt>
<pdfrwt beam="1">  1       21 0.10979370E+00 0.41430472E+03</pdfrwt>
<pdfrwt beam="2">  1       21 0.54327218E-01 0.41430472E+03</pdfrwt>
<totfact> 0.18320209E+03</totfact>
</mgrwt>
</event>
<event>
 4    1  0.4760244E-002  0.5303981E+03  0.7818608E-02  0.1006136E+00
         21   -1    0    0  503  502  0.00000000000E+00  0.00000000000E+00  0.79101979096E+03  0.79101979096E+03  0.00000000000E+00 0. -1.
         21   -1    0    0  501  503 -0.00000000000E+00 -0.00000000000E+00 -0.84023359004E+03  0.84023359004E+03  0.00000000000E+00 0.  1.
    9000007    1    1    2  501    0 -0.14396773870E+03 -0.31716785988E+03 -0.64401665722E+03  0.83431385935E+03  0.40000000000E+03 0.  1.
   -9000007    1    1    2    0  502  0.14396773870E+03  0.31716785988E+03  0.59480285814E+03  0.79693952165E+03  0.40000000000E+03 0. -1.
<mgrwt>
<rscale>  2 0.53039812E+03</rscale>
<asrwt>0</asrwt>
<pdfrwt beam="1">  1       21 0.12169535E+00 0.53039812E+03</pdfrwt>
<pdfrwt beam="2">  1       21 0.12926671E+00 0.53039812E+03</pdfrwt>
<totfact> 0.17561224E+02</totfact>
</mgrwt>
</event>
<event>
 4    1  0.4760244E-002  0.4315292E+03  0.7818608E-02  0.1033378E+00
         21   -1    0    0  501  502  0.00000000000E+00  0.00000000000E+00  0.21907536632E+03  0.21907536632E+03  0.00000000000E+00 0. -1.
         21   -1    0    0  502  503 -0.00000000000E+00 -0.00000000000E+00 -0.90669532694E+03  0.90669532694E+03  0.00000000000E+00 0.  1.
    9000007    1    1    2  501    0 -0.16119830244E+03  0.15249917955E+02 -0.48454545681E+03  0.64884647832E+03  0.40000000000E+03 0. -1.
   -9000007    1    1    2    0  503  0.16119830244E+03 -0.15249917955E+02 -0.20307450380E+03  0.47692421495E+03  0.40000000000E+03 0. -1.
<mgrwt>
<rscale>  2 0.43152920E+03</rscale>
<asrwt>0</asrwt>
<pdfrwt beam="1">  1       21 0.33703902E-01 0.43152920E+03</pdfrwt>
<pdfrwt beam="2">  1       21 0.13949159E+00 0.43152920E+03</pdfrwt>
<totfact> 0.26608209E+03</totfact>
</mgrwt>
</event>
<event>
 4    1  0.4760244E-002  0.4649303E+03  0.7818608E-02  0.1023361E+00
         21   -1    0    0  501  502  0.00000000000E+00  0.00000000000E+00  0.59042701201E+03  0.59042701201E+03  0.00000000000E+00 0. -1.
         21   -1    0    0  502  503 -0.00000000000E+00 -0.00000000000E+00 -0.59339921282E+03  0.59339921282E+03  0.00000000000E+00 0. -1.
    9000007    1    1    2  501    0  0.19182304545E+03 -0.13915487408E+03  0.36484654943E+03  0.59099337084E+03  0.40000000000E+03 0. -1.
   -9000007    1    1    2    0  503 -0.19182304545E+03  0.13915487408E+03 -0.36781875024E+03  0.59283285399E+03  0.40000000000E+03 0. -1.
<mgrwt>
<rscale>  2 0.46493027E+03</rscale>
<asrwt>0</asrwt>
<pdfrwt beam="1">  1       21 0.90834925E-01 0.46493027E+03</pdfrwt>
<pdfrwt beam="2">  1       21 0.91292186E-01 0.46493027E+03</pdfrwt>
<totfact> 0.88100917E+02</totfact>
</mgrwt>
</event>
<event>
 4    1  0.4760244E-002  0.4107561E+03  0.7818608E-02  0.1040118E+00
         21   -1    0    0  501  502  0.00000000000E+00  0.00000000000E+00  0.18691354679E+04  0.18691354679E+04  0.00000000000E+00 0. -1.
         21   -1    0    0  502  503 -0.00000000000E+00 -0.00000000000E+00 -0.27365761847E+03  0.27365761847E+03  0.00000000000E+00 0. -1.
    9000007    1    1    2  501    0 -0.83432785799E+02 -0.41946931854E+02  0.16748113461E+04  0.17244458878E+04  0.40000000000E+03 0. -1.
   -9000007    1    1    2    0  503  0.83432785799E+02  0.41946931854E+02 -0.79333496716E+02  0.41834719856E+03  0.40000000000E+03 0. -1.
<mgrwt>
<rscale>  2 0.41075610E+03</rscale>
<asrwt>0</asrwt>
<pdfrwt beam="1">  1       21 0.28755929E+00 0.41075610E+03</pdfrwt>
<pdfrwt beam="2">  1       21 0.42101173E-01 0.41075610E+03</pdfrwt>
<totfact> 0.17572220E+02</totfact>
</mgrwt>
</event>
<event>
 4    1  0.4760244E-002  0.4218552E+03  0.7818608E-02  0.1036464E+00
         21   -1    0    0  501  502  0.00000000000E+00  0.00000000000E+00  0.10423547154E+04  0.10423547154E+04  0.00000000000E+00 0. -1.
         21   -1    0    0  502  503 -0.00000000000E+00 -0.00000000000E+00 -0.45656635203E+03  0.45656635203E+03  0.00000000000E+00 0. -1.
    9000007    1    1    2  501    0 -0.69820626746E+02  0.11439782012E+03  0.88589478997E+03  0.98120913166E+03  0.40000000000E+03 0. -1.
   -9000007    1    1    2    0  503  0.69820626746E+02 -0.11439782012E+03 -0.30010642659E+03  0.51771193578E+03  0.40000000000E+03 0. -1.
<mgrwt>
<rscale>  2 0.42185517E+03</rscale>
<asrwt>0</asrwt>
<pdfrwt beam="1">  1       21 0.16036226E+00 0.42185517E+03</pdfrwt>
<pdfrwt beam="2">  1       21 0.70240978E-01 0.42185517E+03</pdfrwt>
<totfact> 0.38561220E+02</totfact>
</mgrwt>
</event>
<event>
 4    1  0.4760244E-002  0.4870947E+03  0.7818608E-02  0.1017203E+00
         21   -1    0    0  501  502  0.00000000000E+00  0.00000000000E+00  0.37233419295E+03  0.37233419295E+03  0.00000000000E+00 0. -1.
         21   -1    0    0  502  503 -0.00000000000E+00 -0.00000000000E+00 -0.67217852937E+03  0.67217852937E+03  0.00000000000E+00 0. -1.
    9000007    1    1    2  501    0 -0.83789948238E+02  0.26502923140E+03 -0.30831688131E+02  0.48806950521E+03  0.40000000000E+03 0. -1.
   -9000007    1    1    2    0  503  0.83789948238E+02 -0.26502923140E+03 -0.26901264829E+03  0.55644321711E+03  0.40000000000E+03 0. -1.
<mgrwt>
<rscale>  2 0.48709470E+03</rscale>
<asrwt>0</asrwt>
<pdfrwt beam="1">  1       21 0.57282184E-01 0.48709470E+03</pdfrwt>
<pdfrwt beam="2">  1       21 0.10341208E+00 0.48709470E+03</pdfrwt>
<totfact> 0.18416070E+03</totfact>
</mgrwt>
</event>
<event>
 4    1  0.4760244E-002  0.5561322E+03  0.7818608E-02  0.1000084E+00
         21   -1    0    0  503  502  0.00000000000E+00  0.00000000000E+00  0.99794996122E+03  0.99794996122E+03  0.00000000000E+00 0. -1.
         21   -1    0    0  501  503 -0.00000000000E+00 -0.00000000000E+00 -0.33745863623E+03  0.33745863623E+03  0.00000000000E+00 0.  1.
    9000007    1    1    2  501    0 -0.10381464764E+03  0.37216329712E+03  0.52099285725E+03  0.76204760881E+03  0.40000000000E+03 0. -1.
   -9000007    1    1    2    0  502  0.10381464764E+03 -0.37216329712E+03  0.13949846774E+03  0.57336098864E+03  0.40000000000E+03 0.  1.
<mgrwt>
<rscale>  2 0.55613218E+03</rscale>
<asrwt>0</asrwt>
<pdfrwt beam="1">  1       21 0.15353076E+00 0.55613218E+03</pdfrwt>
<pdfrwt beam="2">  1       21 0.51916714E-01 0.55613218E+03</pdfrwt>
<totfact> 0.79868112E+02</totfact>
</mgrwt>
</event>
<event>
 4    1  0.4760244E-002  0.4199543E+03  0.7818608E-02  0.1037081E+00
         21   -1    0    0  503  502  0.00000000000E+00  0.00000000000E+00  0.44432645269E+03  0.44432645269E+03  0.00000000000E+00 0.  1.
         21   -1    0    0  501  503 -0.00000000000E+00 -0.00000000000E+00 -0.69134787814E+03  0.69134787814E+03  0.00000000000E+00 0.  1.
    9000007    1    1    2  501    0 -0.34295453196E+02  0.12322916913E+03 -0.49407683026E+03  0.64843929588E+03  0.40000000000E+03 0.  1.
   -9000007    1    1    2    0  502  0.34295453196E+02 -0.12322916913E+03  0.24705540481E+03  0.48723503495E+03  0.40000000000E+03 0.  1.
<mgrwt>
<rscale>  2 0.41995429E+03</rscale>
<asrwt>0</asrwt>
<pdfrwt beam="1">  1       21 0.68357916E-01 0.41995429E+03</pdfrwt>
<pdfrwt beam="2">  1       21 0.10636121E+00 0.41995429E+03</pdfrwt>
<totfact> 0.11941213E+03</totfact>
</mgrwt>
</event>
<event>
 4    1  0.4760244E-002  0.4240457E+03  0.7818608E-02  0.1035758E+00
         21   -1    0    0  503  502  0.00000000000E+00  0.00000000000E+00  0.45525573214E+03  0.45525573214E+03  0.00000000000E+00 0. -1.
         21   -1    0    0  501  503 -0.00000000000E+00 -0.00000000000E+00 -0.10235857947E+04  0.10235857947E+04  0.00000000000E+00 0. -1.
    9000007    1    1    2  501    0  0.35132661131E+02 -0.13631006503E+03 -0.86362088473E+03  0.96211006140E+03  0.40000000000E+03 0. -1.
   -9000007    1    1    2    0  502 -0.35132661131E+02  0.13631006503E+03  0.29529082218E+03  0.51673146544E+03  0.40000000000E+03 0. -1.
<mgrwt>
<rscale>  2 0.42404568E+03</rscale>
<asrwt>0</asrwt>
<pdfrwt beam="1">  1       21 0.70039345E-01 0.42404568E+03</pdfrwt>
<pdfrwt beam="2">  1       21 0.15747473E+00 0.42404568E+03</pdfrwt>
<totfact> 0.40772507E+02</totfact>
</mgrwt>
</event>
<event>
 4    1  0.4760244E-002  0.4609072E+03  0.7818608E-02  0.1024518E+00
         21   -1    0    0  503  502  0.00000000000E+00  0.00000000000E+00  0.72114638658E+03  0.72114638658E+03  0.00000000000E+00 0. -1.
         21   -1    0    0  501  503 -0.00000000000E+00 -0.00000000000E+00 -0.41733167178E+03  0.41733167178E+03  0.00000000000E+00 0.  1.
    9000007    1    1    2  501    0  0.16120735409E+03 -0.16262734637E+03 -0.15681444889E+03  0.48685340317E+03  0.40000000000E+03 0.  1.
   -9000007    1    1    2    0  502 -0.16120735409E+03  0.16262734637E+03  0.46062916370E+03  0.65162465519E+03  0.40000000000E+03 0.  1.
<mgrwt>
<rscale>  2 0.46090722E+03</rscale>
<asrwt>0</asrwt>
<pdfrwt beam="1">  1       21 0.11094560E+00 0.46090722E+03</pdfrwt>
<pdfrwt beam="2">  1       21 0.64204873E-01 0.46090722E+03</pdfrwt>
<totfact> 0.12161906E+03</totfact>
</mgrwt>
</event>
<event>
 4    1  0.4760244E-002  0.5962085E+03  0.7818608E-02  0.9913304E-01
         21   -1    0    0  501  502  0.00000000000E+00  0.00000000000E+00  0.14969745710E+04  0.14969745710E+04  0.00000000000E+00 0. -1.
         21   -1    0    0  502  503 -0.00000000000E+00 -0.00000000000E+00 -0.42105393984E+03  0.42105393984E+03  0.00000000000E+00 0.  1.
    9000007    1    1    2  501    0  0.39474565920E+03  0.19909894315E+03  0.11712332713E+04  0.13142495579E+04  0.40000000000E+03 0. -1.
   -9000007    1    1    2    0  503 -0.39474565920E+03 -0.19909894315E+03 -0.95312640175E+02  0.60377895292E+03  0.40000000000E+03 0.  1.
<mgrwt>
<rscale>  2 0.59620846E+03</rscale>
<asrwt>0</asrwt>
<pdfrwt beam="1">  1       21 0.23030378E+00 0.59620846E+03</pdfrwt>
<pdfrwt beam="2">  1       21 0.64777530E-01 0.59620846E+03</pdfrwt>
<totfact> 0.14181914E+02</totfact>
</mgrwt>
</event>
<event>
 4    1  0.4760244E-002  0.4709999E+03  0.7818608E-02  0.1021638E+00
         21   -1    0    0  501  502  0.00000000000E+00  0.00000000000E+00  0.97317653808E+03  0.97317653808E+03  0.00000000000E+00 0.  1.
         21   -1    0    0  502  503 -0.00000000000E+00 -0.00000000000E+00 -0.23355315382E+03  0.23355315382E+03  0.00000000000E+00 0.  1.
    9000007    1    1    2  501    0 -0.22882754617E+03 -0.97359309460E+02  0.27640184175E+03  0.54611249679E+03  0.40000000000E+03 0.  1.
   -9000007    1    1    2    0  503  0.22882754617E+03  0.97359309460E+02  0.46322154252E+03  0.66061719511E+03  0.40000000000E+03 0.  1.
<mgrwt>
<rscale>  2 0.47099987E+03</rscale>
<asrwt>0</asrwt>
<pdfrwt beam="1">  1       21 0.14971946E+00 0.47099987E+03</pdfrwt>
<pdfrwt beam="2">  1       21 0.35931255E-01 0.47099987E+03</pdfrwt>
<totfact> 0.19037387E+03</totfact>
</mgrwt>
</event>
<event>
 4    1  0.4760244E-002  0.5779575E+03  0.7818608E-02  0.9952223E-01
         21   -1    0    0  503  502  0.00000000000E+00  0.00000000000E+00  0.72439208952E+03  0.72439208952E+03  0.00000000000E+00 0. -1.
         21   -1    0    0  501  503 -0.00000000000E+00 -0.00000000000E+00 -0.50211071663E+03  0.50211071663E+03  0.00000000000E+00 0.  1.
    9000007    1    1    2  501    0  0.12776871357E+03 -0.39712716209E+03  0.28635054845E+03  0.64500501055E+03  0.40000000000E+03 0.  1.
   -9000007    1    1    2    0  502 -0.12776871357E+03  0.39712716209E+03 -0.64069175555E+02  0.58149779560E+03  0.40000000000E+03 0.  1.
<mgrwt>
<rscale>  2 0.57795746E+03</rscale>
<asrwt>0</asrwt>
<pdfrwt beam="1">  1       21 0.11144494E+00 0.57795746E+03</pdfrwt>
<pdfrwt beam="2">  1       21 0.77247802E-01 0.57795746E+03</pdfrwt>
<totfact> 0.75891985E+02</totfact>
</mgrwt>
</event>
<event>
 4    1  0.4760244E-002  0.4998904E+03  0.7818608E-02  0.1013808E+00
         21   -1    0    0  503  502  0.00000000000E+00  0.00000000000E+00  0.17526252760E+04  0.17526252760E+04  0.00000000000E+00 0.  1.
         21   -1    0    0  501  503 -0.00000000000E+00 -0.00000000000E+00 -0.14369045535E+03  0.14369045535E+03  0.00000000000E+00 0.  1.
    9000007    1    1    2  501    0  0.24281710551E+03 -0.17587002046E+03  0.88779610704E+03  0.10188583506E+04  0.40000000000E+03 0.  1.
   -9000007    1    1    2    0  502 -0.24281710551E+03  0.17587002046E+03  0.72113871357E+03  0.87745738075E+03  0.40000000000E+03 0.  1.
<mgrwt>
<rscale>  2 0.49989040E+03</rscale>
<asrwt>0</asrwt>
<pdfrwt beam="1">  1       21 0.26963464E+00 0.49989040E+03</pdfrwt>
<pdfrwt beam="2">  1       21 0.22106225E-01 0.49989040E+03</pdfrwt>
<totfact> 0.77427266E+02</totfact>
</mgrwt>
</event>
<event>
 4    1  0.4760244E-002  0.4721061E+03  0.7818608E-02  0.1021327E+00
         21   -1    0    0  501  502  0.00000000000E+00  0.00000000000E+00  0.31894094389E+03  0.31894094389E+03  0.00000000000E+00 0. -1.
         21   -1    0    0  502  503 -0.00000000000E+00 -0.00000000000E+00 -0.73509397536E+03  0.73509397536E+03  0.00000000000E+00 0.  1.
    9000007    1    1    2  501    0 -0.25070988398E+03  0.53586145135E+01 -0.91014386992E+02  0.48079910495E+03  0.40000000000E+03 0. -1.
   -9000007    1    1    2    0  503  0.25070988398E+03 -0.53586145135E+01 -0.32513864448E+03  0.57323581431E+03  0.40000000000E+03 0.  1.
<mgrwt>
<rscale>  2 0.47210609E+03</rscale>
<asrwt>0</asrwt>
<pdfrwt beam="1">  1       21 0.49067838E-01 0.47210609E+03</pdfrwt>
<pdfrwt beam="2">  1       21 0.11309138E+00 0.47210609E+03</pdfrwt>
<totfact> 0.20688627E+03</totfact>
</mgrwt>
</event>
<event>
 4    1  0.4760244E-002  0.4074657E+03  0.7818608E-02  0.1041225E+00
         21   -1    0    0  503  502  0.00000000000E+00  0.00000000000E+00  0.23796713298E+03  0.23796713298E+03  0.00000000000E+00 0. -1.
         21   -1    0    0  501  503 -0.00000000000E+00 -0.00000000000E+00 -0.69853455385E+03  0.69853455385E+03  0.00000000000E+00 0. -1.
    9000007    1    1    2  501    0 -0.46661780490E+02  0.62056290693E+02 -0.21404327003E+03  0.46026386608E+03  0.40000000000E+03 0. -1.
   -9000007    1    1    2    0  502  0.46661780490E+02 -0.62056290693E+02 -0.24652415084E+03  0.47623782076E+03  0.40000000000E+03 0. -1.
<mgrwt>
<rscale>  2 0.40746571E+03</rscale>
<asrwt>0</asrwt>
<pdfrwt beam="1">  1       21 0.36610328E-01 0.40746571E+03</pdfrwt>
<pdfrwt beam="2">  1       21 0.10746685E+00 0.40746571E+03</pdfrwt>
<totfact> 0.44171672E+03</totfact>
</mgrwt>
</event>
<event>
 4    1  0.4760244E-002  0.4494100E+03  0.7818608E-02  0.1027898E+00
         21   -1    0    0  503  502  0.00000000000E+00  0.00000000000E+00  0.40752595518E+03  0.40752595518E+03  0.00000000000E+00 0. -1.
         21   -1    0    0  501  503 -0.00000000000E+00 -0.00000000000E+00 -0.61589003880E+03  0.61589003880E+03  0.00000000000E+00 0. -1.
    9000007    1    1    2  501    0  0.32383547722E+02  0.20228863286E+03 -0.33032734125E+03  0.55775042584E+03  0.40000000000E+03 0. -1.
   -9000007    1    1    2    0  502 -0.32383547722E+02 -0.20228863286E+03  0.12196325763E+03  0.46566556815E+03  0.40000000000E+03 0. -1.
<mgrwt>
<rscale>  2 0.44941004E+03</rscale>
<asrwt>0</asrwt>
<pdfrwt beam="1">  1       21 0.62696301E-01 0.44941004E+03</pdfrwt>
<pdfrwt beam="2">  1       21 0.94752313E-01 0.44941004E+03</pdfrwt>
<totfact> 0.18937895E+03</totfact>
</mgrwt>
</event>
<event>
 4    1  0.4760244E-002  0.4066125E+03  0.7818608E-02  0.1041514E+00
         21   -1    0    0  501  502  0.00000000000E+00  0.00000000000E+00  0.60853338399E+03  0.60853338399E+03  0.00000000000E+00 0.  1.
         21   -1    0    0  502  503 -0.00000000000E+00 -0.00000000000E+00 -0.39765075618E+03  0.39765075618E+03  0.00000000000E+00 0.  1.
    9000007    1    1    2  501    0  0.51729757653E+02  0.51553237534E+02  0.38858742429E+03  0.56243567672E+03  0.40000000000E+03 0.  1.
   -9000007    1    1    2    0  503 -0.51729757653E+02 -0.51553237534E+02 -0.17770479648E+03  0.44374846345E+03  0.40000000000E+03 0.  1.
<mgrwt>
<rscale>  2 0.40661247E+03</rscale>
<asrwt>0</asrwt>
<pdfrwt beam="1">  1       21 0.93620521E-01 0.40661247E+03</pdfrwt>
<pdfrwt beam="2">  1       21 0.61177039E-01 0.40661247E+03</pdfrwt>
<totfact> 0.20922398E+03</totfact>
</mgrwt>
</event>
<event>
 4    1  0.4760244E-002  0.1005059E+04  0.7818608E-02  0.9303013E-01
         21   -1    0    0  501  502  0.00000000000E+00  0.00000000000E+00  0.79496563204E+03  0.79496563204E+03  0.00000000000E+00 0.  1.
         21   -1    0    0  502  503 -0.00000000000E+00 -0.00000000000E+00 -0.13283895887E+04  0.13283895887E+04  0.00000000000E+00 0. -1.
    9000007    1    1    2  501    0  0.80114482685E+03 -0.45641131874E+03 -0.48800424687E+03  0.11172700973E+04  0.40000000000E+03 0. -1.
   -9000007    1    1    2    0  503 -0.80114482685E+03  0.45641131874E+03 -0.45419709787E+02  0.10060851234E+04  0.40000000000E+03 0.  1.
<mgrwt>
<rscale>  2 0.10050594E+04</rscale>
<asrwt>0</asrwt>
<pdfrwt beam="1">  1       21 0.12230241E+00 0.10050594E+04</pdfrwt>
<pdfrwt beam="2">  1       21 0.20436763E+00 0.10050594E+04</pdfrwt>
<totfact> 0.39929665E+01</totfact>
</mgrwt>
</event>
<event>
 4    1  0.4760244E-002  0.4636289E+03  0.7818608E-02  0.1023734E+00
         21   -1    0    0  501  502  0.00000000000E+00  0.00000000000E+00  0.40444965106E+03  0.40444965106E+03  0.00000000000E+00 0. -1.
         21   -1    0    0  502  503 -0.00000000000E+00 -0.00000000000E+00 -0.53525670296E+03  0.53525670296E+03  0.00000000000E+00 0.  1.
    9000007    1    1    2  501    0  0.13366122515E+03 -0.19257846175E+03 -0.25870209736E+02  0.46435014245E+03  0.40000000000E+03 0. -1.
   -9000007    1    1    2    0  503 -0.13366122515E+03  0.19257846175E+03 -0.10493684216E+03  0.47535621157E+03  0.40000000000E+03 0.  1.
<mgrwt>
<rscale>  2 0.46362893E+03</rscale>
<asrwt>0</asrwt>
<pdfrwt beam="1">  1       21 0.62223024E-01 0.46362893E+03</pdfrwt>
<pdfrwt beam="2">  1       21 0.82347184E-01 0.46362893E+03</pdfrwt>
<totfact> 0.26679239E+03</totfact>
</mgrwt>
</event>
<event>
 4    1  0.4760244E-002  0.4056291E+03  0.7818608E-02  0.1041848E+00
         21   -1    0    0  501  502  0.00000000000E+00  0.00000000000E+00  0.93321257966E+03  0.93321257966E+03  0.00000000000E+00 0. -1.
         21   -1    0    0  502  503 -0.00000000000E+00 -0.00000000000E+00 -0.20272399999E+03  0.20272399999E+03  0.00000000000E+00 0. -1.
    9000007    1    1    2  501    0 -0.44996445775E+02  0.50102873594E+02  0.57025956970E+03  0.69980779855E+03  0.40000000000E+03 0.  1.
   -9000007    1    1    2    0  503  0.44996445775E+02 -0.50102873594E+02  0.16022900997E+03  0.43612878111E+03  0.40000000000E+03 0.  1.
<mgrwt>
<rscale>  2 0.40562911E+03</rscale>
<asrwt>0</asrwt>
<pdfrwt beam="1">  1       21 0.14357116E+00 0.40562911E+03</pdfrwt>
<pdfrwt beam="2">  1       21 0.31188308E-01 0.40562911E+03</pdfrwt>
<totfact> 0.29084510E+03</totfact>
</mgrwt>
</event>
<event>
 4    1  0.4760244E-002  0.4518914E+03  0.7818608E-02  0.1027160E+00
         21   -1    0    0  501  502  0.00000000000E+00  0.00000000000E+00  0.22645672874E+03  0.22645672874E+03  0.00000000000E+00 0.  1.
         21   -1    0    0  502  503 -0.00000000000E+00 -0.00000000000E+00 -0.10633763627E+04  0.10633763627E+04  0.00000000000E+00 0.  1.
    9000007    1    1    2  501    0 -0.11285288932E+03 -0.17739791787E+03 -0.16702502749E+03  0.48177085394E+03  0.40000000000E+03 0.  1.
   -9000007    1    1    2    0  503  0.11285288932E+03  0.17739791787E+03 -0.66989460642E+03  0.80806223746E+03  0.40000000000E+03 0.  1.
<mgrwt>
<rscale>  2 0.45189135E+03</rscale>
<asrwt>0</asrwt>
<pdfrwt beam="1">  1       21 0.34839497E-01 0.45189135E+03</pdfrwt>
<pdfrwt beam="2">  1       21 0.16359636E+00 0.45189135E+03</pdfrwt>
<totfact> 0.15984774E+03</totfact>
</mgrwt>
</event>
<event>
 4    1  0.4760244E-002  0.6420958E+03  0.7818608E-02  0.9821725E-01
         21   -1    0    0  503  502  0.00000000000E+00  0.00000000000E+00  0.18888075916E+04  0.18888075916E+04  0.00000000000E+00 0. -1.
         21   -1    0    0  501  503 -0.00000000000E+00 -0.00000000000E+00 -0.62875040384E+03  0.62875040384E+03  0.00000000000E+00 0. -1.
    9000007    1    1    2  501    0 -0.20967879695E+03 -0.45642290839E+03 -0.38704362720E+03  0.74972650917E+03  0.40000000000E+03 0. -1.
   -9000007    1    1    2    0  502  0.20967879695E+03  0.45642290839E+03  0.16471008150E+04  0.17678314863E+04  0.40000000000E+03 0. -1.
<mgrwt>
<rscale>  2 0.64209584E+03</rscale>
<asrwt>0</asrwt>
<pdfrwt beam="1">  1       21 0.29058578E+00 0.64209584E+03</pdfrwt>
<pdfrwt beam="2">  1       21 0.96730832E-01 0.64209584E+03</pdfrwt>
<totfact> 0.23132328E+01</totfact>
</mgrwt>
</event>
<event>
 4    1  0.4760244E-002  0.6504714E+03  0.7818608E-02  0.9805895E-01
         21   -1    0    0  503  502  0.00000000000E+00  0.00000000000E+00  0.11727368587E+04  0.11727368587E+04  0.00000000000E+00 0. -1.
         21   -1    0    0  501  503 -0.00000000000E+00 -0.00000000000E+00 -0.41661753401E+03  0.41661753401E+03  0.00000000000E+00 0. -1.
    9000007    1    1    2  501    0  0.36248509137E+03  0.36292911014E+03  0.87160776386E+02  0.65628498489E+03  0.40000000000E+03 0. -1.
   -9000007    1    1    2    0  502 -0.36248509137E+03 -0.36292911014E+03  0.66895854831E+03  0.93306940782E+03  0.40000000000E+03 0. -1.
<mgrwt>
<rscale>  2 0.65047135E+03</rscale>
<asrwt>0</asrwt>
<pdfrwt beam="1">  1       21 0.18042105E+00 0.65047135E+03</pdfrwt>
<pdfrwt beam="2">  1       21 0.64095006E-01 0.65047135E+03</pdfrwt>
<totfact> 0.30721852E+02</totfact>
</mgrwt>
</event>
<event>
 4    1  0.4760244E-002  0.4201732E+03  0.7818608E-02  0.1037010E+00
         21   -1    0    0  503  502  0.00000000000E+00  0.00000000000E+00  0.91423465263E+02  0.91423465263E+02  0.00000000000E+00 0.  1.
         21   -1    0    0  501  503 -0.00000000000E+00 -0.00000000000E+00 -0.21996846614E+04  0.21996846614E+04  0.00000000000E+00 0.  1.
    9000007    1    1    2  501    0 -0.62337134618E+02  0.11251477415E+03 -0.14544409846E+04  0.15139167977E+04  0.40000000000E+03 0.  1.
   -9000007    1    1    2    0  502  0.62337134618E+02 -0.11251477415E+03 -0.65382021152E+03  0.77719132892E+03  0.40000000000E+03 0.  1.
<mgrwt>
<rscale>  2 0.42017317E+03</rscale>
<asrwt>0</asrwt>
<pdfrwt beam="1">  1       21 0.14065148E-01 0.42017317E+03</pdfrwt>
<pdfrwt beam="2">  1       21 0.33841303E+00 0.42017317E+03</pdfrwt>
<totfact> 0.72786235E+02</totfact>
</mgrwt>
</event>
<event>
 4    1  0.4760244E-002  0.6295533E+03  0.7818608E-02  0.9845921E-01
         21   -1    0    0  501  502  0.00000000000E+00  0.00000000000E+00  0.39675819483E+03  0.39675819483E+03  0.00000000000E+00 0. -1.
         21   -1    0    0  502  503 -0.00000000000E+00 -0.00000000000E+00 -0.11044399824E+04  0.11044399824E+04  0.00000000000E+00 0.  1.
    9000007    1    1    2  501    0  0.37076607569E+03  0.31443572659E+03 -0.12185325900E+03  0.64123749560E+03  0.40000000000E+03 0. -1.
   -9000007    1    1    2    0  503 -0.37076607569E+03 -0.31443572659E+03 -0.58582852855E+03  0.85996068160E+03  0.40000000000E+03 0.  1.
<mgrwt>
<rscale>  2 0.62955326E+03</rscale>
<asrwt>0</asrwt>
<pdfrwt beam="1">  1       21 0.61039722E-01 0.62955326E+03</pdfrwt>
<pdfrwt beam="2">  1       21 0.16991384E+00 0.62955326E+03</pdfrwt>
<totfact> 0.41102406E+02</totfact>
</mgrwt>
</event>
<event>
 4    1  0.4760244E-002  0.4245554E+03  0.7818608E-02  0.1035594E+00
         21   -1    0    0  503  502  0.00000000000E+00  0.00000000000E+00  0.16800226280E+04  0.16800226280E+04  0.00000000000E+00 0.  1.
         21   -1    0    0  501  503 -0.00000000000E+00 -0.00000000000E+00 -0.14064133621E+03  0.14064133621E+03  0.00000000000E+00 0.  1.
    9000007    1    1    2  501    0 -0.84216196742E+02  0.11469507015E+03  0.32637930182E+03  0.53550982770E+03  0.40000000000E+03 0.  1.
   -9000007    1    1    2    0  502  0.84216196742E+02 -0.11469507015E+03  0.12130019900E+04  0.12851541365E+04  0.40000000000E+03 0.  1.
<mgrwt>
<rscale>  2 0.42455545E+03</rscale>
<asrwt>0</asrwt>
<pdfrwt beam="1">  1       21 0.25846501E+00 0.42455545E+03</pdfrwt>
<pdfrwt beam="2">  1       21 0.21637130E-01 0.42455545E+03</pdfrwt>
<totfact> 0.97989825E+02</totfact>
</mgrwt>
</event>
<event>
 4    1  0.4760244E-002  0.4250474E+03  0.7818608E-02  0.1035436E+00
         21   -1    0    0  501  502  0.00000000000E+00  0.00000000000E+00  0.45303314152E+03  0.45303314152E+03  0.00000000000E+00 0. -1.
         21   -1    0    0  502  503 -0.00000000000E+00 -0.00000000000E+00 -0.47002051541E+03  0.47002051541E+03  0.00000000000E+00 0. -1.
    9000007    1    1    2  501    0 -0.11381185240E+03  0.87819042272E+02  0.17117401111E+03  0.45822032256E+03  0.40000000000E+03 0.  1.
   -9000007    1    1    2    0  503  0.11381185240E+03 -0.87819042272E+02 -0.18816138499E+03  0.46483333436E+03  0.40000000000E+03 0.  1.
<mgrwt>
<rscale>  2 0.42504743E+03</rscale>
<asrwt>0</asrwt>
<pdfrwt beam="1">  1       21 0.69697406E-01 0.42504743E+03</pdfrwt>
<pdfrwt beam="2">  1       21 0.72310849E-01 0.42504743E+03</pdfrwt>
<totfact> 0.28313765E+03</totfact>
</mgrwt>
</event>
<event>
 4    1  0.4760244E-002  0.4469382E+03  0.7818608E-02  0.1028639E+00
         21   -1    0    0  503  502  0.00000000000E+00  0.00000000000E+00  0.33514726869E+03  0.33514726869E+03  0.00000000000E+00 0. -1.
         21   -1    0    0  501  503 -0.00000000000E+00 -0.00000000000E+00 -0.60447983001E+03  0.60447983001E+03  0.00000000000E+00 0. -1.
    9000007    1    1    2  501    0  0.18001818148E+03  0.85715660690E+02 -0.19025328368E+03  0.48574688069E+03  0.40000000000E+03 0. -1.
   -9000007    1    1    2    0  502 -0.18001818148E+03 -0.85715660690E+02 -0.79079277642E+02  0.45388021801E+03  0.40000000000E+03 0. -1.
<mgrwt>
<rscale>  2 0.44693816E+03</rscale>
<asrwt>0</asrwt>
<pdfrwt beam="1">  1       21 0.51561119E-01 0.44693816E+03</pdfrwt>
<pdfrwt beam="2">  1       21 0.92996896E-01 0.44693816E+03</pdfrwt>
<totfact> 0.30307143E+03</totfact>
</mgrwt>
</event>
<event>
 4    1  0.4760244E-002  0.4515837E+03  0.7818608E-02  0.1027251E+00
         21   -1    0    0  501  502  0.00000000000E+00  0.00000000000E+00  0.80999964566E+03  0.80999964566E+03  0.00000000000E+00 0. -1.
         21   -1    0    0  502  503 -0.00000000000E+00 -0.00000000000E+00 -0.26939098399E+03  0.26939098399E+03  0.00000000000E+00 0.  1.
    9000007    1    1    2  501    0 -0.10239508466E+03  0.18287458236E+03  0.40836169490E+03  0.60884081671E+03  0.40000000000E+03 0. -1.
   -9000007    1    1    2    0  503  0.10239508466E+03 -0.18287458236E+03  0.13224696677E+03  0.47054981294E+03  0.40000000000E+03 0.  1.
<mgrwt>
<rscale>  2 0.45158373E+03</rscale>
<asrwt>0</asrwt>
<pdfrwt beam="1">  1       21 0.12461533E+00 0.45158373E+03</pdfrwt>
<pdfrwt beam="2">  1       21 0.41444767E-01 0.45158373E+03</pdfrwt>
<totfact> 0.23229978E+03</totfact>
</mgrwt>
</event>
<event>
 4    1  0.4760244E-002  0.5241945E+03  0.7818608E-02  0.1007650E+00
         21   -1    0    0  503  502  0.00000000000E+00  0.00000000000E+00  0.48414772186E+03  0.48414772186E+03  0.00000000000E+00 0. -1.
         21   -1    0    0  501  503 -0.00000000000E+00 -0.00000000000E+00 -0.61327299288E+03  0.61327299288E+03  0.00000000000E+00 0. -1.
    9000007    1    1    2  501    0 -0.31764424377E+03  0.11782202106E+03 -0.21438110940E+03  0.56633837440E+03  0.40000000000E+03 0. -1.
   -9000007    1    1    2    0  502  0.31764424377E+03 -0.11782202106E+03  0.85255838382E+02  0.53108234034E+03  0.40000000000E+03 0. -1.
<mgrwt>
<rscale>  2 0.52419452E+03</rscale>
<asrwt>0</asrwt>
<pdfrwt beam="1">  1       21 0.74484265E-01 0.52419452E+03</pdfrwt>
<pdfrwt beam="2">  1       21 0.94349691E-01 0.52419452E+03</pdfrwt>
<totfact> 0.12648340E+03</totfact>
</mgrwt>
</event>
<event>
 4    1  0.4760244E-002  0.4133570E+03  0.7818608E-02  0.1039250E+00
         21   -1    0    0  501  502  0.00000000000E+00  0.00000000000E+00  0.24093038265E+03  0.24093038265E+03  0.00000000000E+00 0.  1.
         21   -1    0    0  502  503 -0.00000000000E+00 -0.00000000000E+00 -0.80237158513E+03  0.80237158513E+03  0.00000000000E+00 0.  1.
    9000007    1    1    2  501    0 -0.60944882037E+02 -0.84555971215E+02 -0.10294542771E+03  0.42598327667E+03  0.40000000000E+03 0.  1.
   -9000007    1    1    2    0  503  0.60944882037E+02  0.84555971215E+02 -0.45849577477E+03  0.61731869111E+03  0.40000000000E+03 0.  1.
<mgrwt>
<rscale>  2 0.41335698E+03</rscale>
<asrwt>0</asrwt>
<pdfrwt beam="1">  1       21 0.37066213E-01 0.41335698E+03</pdfrwt>
<pdfrwt beam="2">  1       21 0.12344178E+00 0.41335698E+03</pdfrwt>
<totfact> 0.30374833E+03</totfact>
</mgrwt>
</event>
<event>
 4    1  0.4760244E-002  0.5371497E+03  0.7818608E-02  0.1004513E+00
         21   -1    0    0  501  502  0.00000000000E+00  0.00000000000E+00  0.96864479323E+03  0.96864479323E+03  0.00000000000E+00 0.  1.
         21   -1    0    0  502  503 -0.00000000000E+00 -0.00000000000E+00 -0.36484735620E+03  0.36484735620E+03  0.00000000000E+00 0. -1.
    9000007    1    1    2  501    0  0.41603151521E+02 -0.35608837005E+03  0.58757254769E+03  0.79609751181E+03  0.40000000000E+03 0.  1.
   -9000007    1    1    2    0  503 -0.41603151521E+02  0.35608837005E+03  0.16224889339E+02  0.53739463762E+03  0.40000000000E+03 0.  1.
<mgrwt>
<rscale>  2 0.53714965E+03</rscale>
<asrwt>0</asrwt>
<pdfrwt beam="1">  1       21 0.14902228E+00 0.53714965E+03</pdfrwt>
<pdfrwt beam="2">  1       21 0.56130363E-01 0.53714965E+03</pdfrwt>
<totfact> 0.73711975E+02</totfact>
</mgrwt>
</event>
<event>
 4    1  0.4760244E-002  0.4722104E+03  0.7818608E-02  0.1021298E+00
         21   -1    0    0  501  502  0.00000000000E+00  0.00000000000E+00  0.22292202946E+04  0.22292202946E+04  0.00000000000E+00 0.  1.
         21   -1    0    0  502  503 -0.00000000000E+00 -0.00000000000E+00 -0.10317424929E+03  0.10317424929E+03  0.00000000000E+00 0. -1.
    9000007    1    1    2  501    0 -0.20220120827E+03  0.14865156612E+03  0.12666989047E+04  0.13518538130E+04  0.40000000000E+03 0. -1.
   -9000007    1    1    2    0  503  0.20220120827E+03 -0.14865156612E+03  0.85934714062E+03  0.98054073084E+03  0.40000000000E+03 0. -1.
<mgrwt>
<rscale>  2 0.47221035E+03</rscale>
<asrwt>0</asrwt>
<pdfrwt beam="1">  1       21 0.34295693E+00 0.47221035E+03</pdfrwt>
<pdfrwt beam="2">  1       21 0.15872963E-01 0.47221035E+03</pdfrwt>
<totfact> 0.52909988E+02</totfact>
</mgrwt>
</event>
<event>
 4    1  0.4760244E-002  0.5424028E+03  0.7818608E-02  0.1003268E+00
         21   -1    0    0  501  502  0.00000000000E+00  0.00000000000E+00  0.54087086976E+03  0.54087086976E+03  0.00000000000E+00 0. -1.
         21   -1    0    0  502  503 -0.00000000000E+00 -0.00000000000E+00 -0.61279937852E+03  0.61279937852E+03  0.00000000000E+00 0. -1.
    9000007    1    1    2  501    0 -0.34790982661E+03  0.11471521164E+03  0.15740029266E+03  0.56477931917E+03  0.40000000000E+03 0. -1.
   -9000007    1    1    2    0  503  0.34790982661E+03 -0.11471521164E+03 -0.22932880141E+03  0.58889092911E+03  0.40000000000E+03 0. -1.
<mgrwt>
<rscale>  2 0.54240283E+03</rscale>
<asrwt>0</asrwt>
<pdfrwt beam="1">  1       21 0.83210903E-01 0.54240283E+03</pdfrwt>
<pdfrwt beam="2">  1       21 0.94276828E-01 0.54240283E+03</pdfrwt>
<totfact> 0.97480007E+02</totfact>
</mgrwt>
</event>
<event>
 4    1  0.4760244E-002  0.4436291E+03  0.7818608E-02  0.1029639E+00
         21   -1    0    0  501  502  0.00000000000E+00  0.00000000000E+00  0.31106625917E+04  0.31106625917E+04  0.00000000000E+00 0.  1.
         21   -1    0    0  502  503 -0.00000000000E+00 -0.00000000000E+00 -0.79434362885E+02  0.79434362885E+02  0.00000000000E+00 0.  1.
    9000007    1    1    2  501    0  0.12040032937E+03  0.14936706121E+03  0.22351790276E+04  0.22787786299E+04  0.40000000000E+03 0.  1.
   -9000007    1    1    2    0  503 -0.12040032937E+03 -0.14936706121E+03  0.79604920114E+03  0.91131832470E+03  0.40000000000E+03 0.  1.
<mgrwt>
<rscale>  2 0.44362908E+03</rscale>
<asrwt>0</asrwt>
<pdfrwt beam="1">  1       21 0.47856338E+00 0.44362908E+03</pdfrwt>
<pdfrwt beam="2">  1       21 0.12220674E-01 0.44362908E+03</pdfrwt>
<totfact> 0.11437648E+02</totfact>
</mgrwt>
</event>
<event>
 4    1  0.4760244E-002  0.4711673E+03  0.7818608E-02  0.1021591E+00
         21   -1    0    0  503  502  0.00000000000E+00  0.00000000000E+00  0.74516981823E+03  0.74516981823E+03  0.00000000000E+00 0.  1.
         21   -1    0    0  501  503 -0.00000000000E+00 -0.00000000000E+00 -0.51713962730E+03  0.51713962730E+03  0.00000000000E+00 0.  1.
    9000007    1    1    2  501    0  0.37711150907E+00  0.24899502539E+03 -0.29692142423E+03  0.55692099713E+03  0.40000000000E+03 0.  1.
   -9000007    1    1    2    0  502 -0.37711150907E+00 -0.24899502539E+03  0.52495161516E+03  0.70538844840E+03  0.40000000000E+03 0.  1.
<mgrwt>
<rscale>  2 0.47116734E+03</rscale>
<asrwt>0</asrwt>
<pdfrwt beam="1">  1       21 0.11464151E+00 0.47116734E+03</pdfrwt>
<pdfrwt beam="2">  1       21 0.79559942E-01 0.47116734E+03</pdfrwt>
<totfact> 0.68696077E+02</totfact>
</mgrwt>
</event>
<event>
 4    1  0.4760244E-002  0.4003806E+03  0.7818608E-02  0.1043648E+00
         21   -1    0    0  501  502  0.00000000000E+00  0.00000000000E+00  0.51957741415E+03  0.51957741415E+03  0.00000000000E+00 0.  1.
         21   -1    0    0  502  503 -0.00000000000E+00 -0.00000000000E+00 -0.34084339366E+03  0.34084339366E+03  0.00000000000E+00 0.  1.
    9000007    1    1    2  501    0 -0.47670719187E+01  0.16789498303E+02  0.22183245728E+03  0.45772726741E+03  0.40000000000E+03 0. -1.
   -9000007    1    1    2    0  503  0.47670719187E+01 -0.16789498303E+02 -0.43098436781E+02  0.40269354040E+03  0.40000000000E+03 0. -1.
<mgrwt>
<rscale>  2 0.40038058E+03</rscale>
<asrwt>0</asrwt>
<pdfrwt beam="1">  1       21 0.79934987E-01 0.40038058E+03</pdfrwt>
<pdfrwt beam="2">  1       21 0.52437445E-01 0.40038058E+03</pdfrwt>
<totfact> 0.42403843E+03</totfact>
</mgrwt>
</event>
<event>
 4    1  0.4760244E-002  0.4375241E+03  0.7818608E-02  0.1031509E+00
         21   -1    0    0  501  502  0.00000000000E+00  0.00000000000E+00  0.58642153200E+03  0.58642153200E+03  0.00000000000E+00 0. -1.
         21   -1    0    0  502  503 -0.00000000000E+00 -0.00000000000E+00 -0.34818081954E+03  0.34818081954E+03  0.00000000000E+00 0. -1.
    9000007    1    1    2  501    0 -0.16878268694E+03 -0.54219687050E+02  0.23590931944E+03  0.49707200371E+03  0.40000000000E+03 0. -1.
   -9000007    1    1    2    0  503  0.16878268694E+03  0.54219687050E+02  0.23313930269E+01  0.43753034783E+03  0.40000000000E+03 0. -1.
<mgrwt>
<rscale>  2 0.43752414E+03</rscale>
<asrwt>0</asrwt>
<pdfrwt beam="1">  1       21 0.90218697E-01 0.43752414E+03</pdfrwt>
<pdfrwt beam="2">  1       21 0.53566280E-01 0.43752414E+03</pdfrwt>
<totfact> 0.30117989E+03</totfact>
</mgrwt>
</event>
<event>
 4    1  0.4760244E-002  0.5152503E+03  0.7818608E-02  0.1009873E+00
         21   -1    0    0  503  502  0.00000000000E+00  0.00000000000E+00  0.96214511876E+02  0.96214511876E+02  0.00000000000E+00 0. -1.
         21   -1    0    0  501  503 -0.00000000000E+00 -0.00000000000E+00 -0.28573712359E+04  0.28573712359E+04  0.00000000000E+00 0. -1.
    9000007    1    1    2  501    0 -0.32318465271E+03  0.32164592461E+02 -0.16541990939E+04  0.17325869453E+04  0.40000000000E+03 0. -1.
   -9000007    1    1    2    0  502  0.32318465271E+03 -0.32164592461E+02 -0.11069576301E+04  0.12209988024E+04  0.40000000000E+03 0. -1.
<mgrwt>
<rscale>  2 0.51525031E+03</rscale>
<asrwt>0</asrwt>
<pdfrwt beam="1">  1       21 0.14802233E-01 0.51525031E+03</pdfrwt>
<pdfrwt beam="2">  1       21 0.43959555E+00 0.51525031E+03</pdfrwt>
<totfact> 0.14170251E+02</totfact>
</mgrwt>
</event>
<event>
 4    1  0.4760244E-002  0.4443203E+03  0.7818608E-02  0.1029429E+00
         21   -1    0    0  503  502  0.00000000000E+00  0.00000000000E+00  0.16836712707E+03  0.16836712707E+03  0.00000000000E+00 0. -1.
         21   -1    0    0  501  503 -0.00000000000E+00 -0.00000000000E+00 -0.13613915509E+04  0.13613915509E+04  0.00000000000E+00 0. -1.
    9000007    1    1    2  501    0  0.58299148456E+02 -0.18444974317E+03 -0.31164721076E+03  0.54271952465E+03  0.40000000000E+03 0. -1.
   -9000007    1    1    2    0  502 -0.58299148456E+02  0.18444974317E+03 -0.88137721307E+03  0.98703915332E+03  0.40000000000E+03 0. -1.
<mgrwt>
<rscale>  2 0.44432027E+03</rscale>
<asrwt>0</asrwt>
<pdfrwt beam="1">  1       21 0.25902635E-01 0.44432027E+03</pdfrwt>
<pdfrwt beam="2">  1       21 0.20944485E+00 0.44432027E+03</pdfrwt>
<totfact> 0.13899205E+03</totfact>
</mgrwt>
</event>
<event>
 4    1  0.4760244E-002  0.4106880E+03  0.7818608E-02  0.1040140E+00
         21   -1    0    0  501  502  0.00000000000E+00  0.00000000000E+00  0.95132426706E+03  0.95132426706E+03  0.00000000000E+00 0. -1.
         21   -1    0    0  502  503 -0.00000000000E+00 -0.00000000000E+00 -0.42040059562E+03  0.42040059562E+03  0.00000000000E+00 0. -1.
    9000007    1    1    2  501    0 -0.45730048175E+02  0.81076443889E+02 -0.25609688913E+03  0.48399405336E+03  0.40000000000E+03 0. -1.
   -9000007    1    1    2    0  503  0.45730048175E+02 -0.81076443889E+02  0.78702056057E+03  0.88773080932E+03  0.40000000000E+03 0. -1.
<mgrwt>
<rscale>  2 0.41068799E+03</rscale>
<asrwt>0</asrwt>
<pdfrwt beam="1">  1       21 0.14635758E+00 0.41068799E+03</pdfrwt>
<pdfrwt beam="2">  1       21 0.64677015E-01 0.41068799E+03</pdfrwt>
<totfact> 0.59841453E+02</totfact>
</mgrwt>
</event>
<event>
 4    1  0.4760244E-002  0.4320047E+03  0.7818608E-02  0.1033229E+00
         21   -1    0    0  503  502  0.00000000000E+00  0.00000000000E+00  0.14664730232E+04  0.14664730232E+04  0.00000000000E+00 0.  1.
         21   -1    0    0  501  503 -0.00000000000E+00 -0.00000000000E+00 -0.14494629001E+03  0.14494629001E+03  0.00000000000E+00 0.  1.
    9000007    1    1    2  501    0 -0.16316096653E+03 -0.25547776124E+01  0.94218292537E+03  0.10365021431E+04  0.40000000000E+03 0.  1.
   -9000007    1    1    2    0  502  0.16316096653E+03  0.25547776124E+01  0.37934380781E+03  0.57491717004E+03  0.40000000000E+03 0.  1.
<mgrwt>
<rscale>  2 0.43200466E+03</rscale>
<asrwt>0</asrwt>
<pdfrwt beam="1">  1       21 0.22561122E+00 0.43200466E+03</pdfrwt>
<pdfrwt beam="2">  1       21 0.22299430E-01 0.43200466E+03</pdfrwt>
<totfact> 0.14713004E+03</totfact>
</mgrwt>
</event>
<event>
 4    1  0.4760244E-002  0.4732345E+03  0.7818608E-02  0.1021011E+00
         21   -1    0    0  503  502  0.00000000000E+00  0.00000000000E+00  0.10223748903E+04  0.10223748903E+04  0.00000000000E+00 0.  1.
         21   -1    0    0  501  503 -0.00000000000E+00 -0.00000000000E+00 -0.31769071074E+03  0.31769071074E+03  0.00000000000E+00 0. -1.
    9000007    1    1    2  501    0 -0.23317335268E+03  0.97883040017E+02 -0.21013438283E+02  0.47370081962E+03  0.40000000000E+03 0. -1.
   -9000007    1    1    2    0  502  0.23317335268E+03 -0.97883040017E+02  0.72569761781E+03  0.86636478138E+03  0.40000000000E+03 0.  1.
<mgrwt>
<rscale>  2 0.47323451E+03</rscale>
<asrwt>0</asrwt>
<pdfrwt beam="1">  1       21 0.15728844E+00 0.47323451E+03</pdfrwt>
<pdfrwt beam="2">  1       21 0.48875494E-01 0.47323451E+03</pdfrwt>
<totfact> 0.87710093E+02</totfact>
</mgrwt>
</event>
<event>
 4    1  0.4760244E-002  0.6094193E+03  0.7818608E-02  0.9886054E-01
         21   -1    0    0  503  502  0.00000000000E+00  0.00000000000E+00  0.11288642108E+04  0.11288642108E+04  0.00000000000E+00 0. -1.
         21   -1    0    0  501  503 -0.00000000000E+00 -0.00000000000E+00 -0.35217545352E+03  0.35217545352E+03  0.00000000000E+00 0. -1.
    9000007    1    1    2  501    0  0.28524950830E+03 -0.36058928294E+03  0.57832438318E+03  0.84014939454E+03  0.40000000000E+03 0. -1.
   -9000007    1    1    2    0  502 -0.28524950830E+03  0.36058928294E+03  0.19836437406E+03  0.64089026975E+03  0.40000000000E+03 0. -1.
<mgrwt>
<rscale>  2 0.60941932E+03</rscale>
<asrwt>0</asrwt>
<pdfrwt beam="1">  1       21 0.17367142E+00 0.60941932E+03</pdfrwt>
<pdfrwt beam="2">  1       21 0.54180839E-01 0.60941932E+03</pdfrwt>
<totfact> 0.50434615E+02</totfact>
</mgrwt>
</event>
<event>
 4    1  0.4760244E-002  0.6632147E+03  0.7818608E-02  0.9782294E-01
         21   -1    0    0  503  502  0.00000000000E+00  0.00000000000E+00  0.47487518811E+03  0.47487518811E+03  0.00000000000E+00 0.  1.
         21   -1    0    0  501  503 -0.00000000000E+00 -0.00000000000E+00 -0.11209707618E+04  0.11209707618E+04  0.00000000000E+00 0. -1.
    9000007    1    1    2  501    0  0.71225719756E+01  0.52896406081E+03 -0.65560672832E+03  0.93256307609E+03  0.40000000000E+03 0. -1.
   -9000007    1    1    2    0  502 -0.71225719756E+01 -0.52896406081E+03  0.95111546070E+01  0.66328287384E+03  0.40000000000E+03 0.  1.
<mgrwt>
<rscale>  2 0.66321468E+03</rscale>
<asrwt>0</asrwt>
<pdfrwt beam="1">  1       21 0.73057721E-01 0.66321468E+03</pdfrwt>
<pdfrwt beam="2">  1       21 0.17245704E+00 0.66321468E+03</pdfrwt>
<totfact> 0.25979305E+02</totfact>
</mgrwt>
</event>
<event>
 4    1  0.4760244E-002  0.4140902E+03  0.7818608E-02  0.1039007E+00
         21   -1    0    0  503  502  0.00000000000E+00  0.00000000000E+00  0.77685269571E+03  0.77685269571E+03  0.00000000000E+00 0. -1.
         21   -1    0    0  501  503 -0.00000000000E+00 -0.00000000000E+00 -0.30549381673E+03  0.30549381673E+03  0.00000000000E+00 0.  1.
    9000007    1    1    2  501    0  0.33868707305E+02 -0.10160520066E+03 -0.49391876991E+02  0.41702549520E+03  0.40000000000E+03 0.  1.
   -9000007    1    1    2    0  502 -0.33868707305E+02  0.10160520066E+03  0.52075075597E+03  0.66532101724E+03  0.40000000000E+03 0. -1.
<mgrwt>
<rscale>  2 0.41409021E+03</rscale>
<asrwt>0</asrwt>
<pdfrwt beam="1">  1       21 0.11951580E+00 0.41409021E+03</pdfrwt>
<pdfrwt beam="2">  1       21 0.46999049E-01 0.41409021E+03</pdfrwt>
<totfact> 0.20175432E+03</totfact>
</mgrwt>
</event>
<event>
 4    1  0.4760244E-002  0.5629256E+03  0.7818608E-02  0.9985457E-01
         21   -1    0    0  503  502  0.00000000000E+00  0.00000000000E+00  0.13750147525E+03  0.13750147525E+03  0.00000000000E+00 0.  1.
         21   -1    0    0  501  503 -0.00000000000E+00 -0.00000000000E+00 -0.23048097011E+04  0.23048097011E+04  0.00000000000E+00 0.  1.
    9000007    1    1    2  501    0  0.39606766463E+03  0.39511404809E+01 -0.10718668259E+04  0.12106955435E+04  0.40000000000E+03 0.  1.
   -9000007    1    1    2    0  502 -0.39606766463E+03 -0.39511404809E+01 -0.10954413999E+04  0.12316156329E+04  0.40000000000E+03 0.  1.
<mgrwt>
<rscale>  2 0.56292558E+03</rscale>
<asrwt>0</asrwt>
<pdfrwt beam="1">  1       21 0.21154074E-01 0.56292558E+03</pdfrwt>
<pdfrwt beam="2">  1       21 0.35458610E+00 0.56292558E+03</pdfrwt>
<totfact> 0.24821375E+02</totfact>
</mgrwt>
</event>
<event>
 4    1  0.4760244E-002  0.9480356E+03  0.7818608E-02  0.9367450E-01
         21   -1    0    0  503  502  0.00000000000E+00  0.00000000000E+00  0.43770527086E+03  0.43770527086E+03  0.00000000000E+00 0.  1.
         21   -1    0    0  501  503 -0.00000000000E+00 -0.00000000000E+00 -0.26270269640E+04  0.26270269640E+04  0.00000000000E+00 0.  1.
    9000007    1    1    2  501    0 -0.29649964504E+03  0.80675860928E+03 -0.37859019674E+03  0.10208339876E+04  0.40000000000E+03 0.  1.
   -9000007    1    1    2    0  502  0.29649964504E+03 -0.80675860928E+03 -0.18107314964E+04  0.20438982473E+04  0.40000000000E+03 0.  1.
<mgrwt>
<rscale>  2 0.94803560E+03</rscale>
<asrwt>0</asrwt>
<pdfrwt beam="1">  1       21 0.67339274E-01 0.94803560E+03</pdfrwt>
<pdfrwt beam="2">  1       21 0.40415799E+00 0.94803560E+03</pdfrwt>
<totfact> 0.92321356E+00</totfact>
</mgrwt>
</event>
<event>
 4    1  0.4760244E-002  0.4482060E+03  0.7818608E-02  0.1028258E+00
         21   -1    0    0  503  502  0.00000000000E+00  0.00000000000E+00  0.11243959837E+04  0.11243959837E+04  0.00000000000E+00 0. -1.
         21   -1    0    0  501  503 -0.00000000000E+00 -0.00000000000E+00 -0.27563947456E+03  0.27563947456E+03  0.00000000000E+00 0. -1.
    9000007    1    1    2  501    0 -0.19786496060E+03  0.41690180517E+02  0.91659396070E+01  0.44829970804E+03  0.40000000000E+03 0. -1.
   -9000007    1    1    2    0  502  0.19786496060E+03 -0.41690180517E+02  0.83959056950E+03  0.95173575019E+03  0.40000000000E+03 0. -1.
<mgrwt>
<rscale>  2 0.44820599E+03</rscale>
<asrwt>0</asrwt>
<pdfrwt beam="1">  1       21 0.17298399E+00 0.44820599E+03</pdfrwt>
<pdfrwt beam="2">  1       21 0.42406074E-01 0.44820599E+03</pdfrwt>
<totfact> 0.91363321E+02</totfact>
</mgrwt>
</event>
<event>
 4    1  0.4760244E-002  0.4351743E+03  0.7818608E-02  0.1032238E+00
         21   -1    0    0  503  502  0.00000000000E+00  0.00000000000E+00  0.69519091008E+03  0.69519091008E+03  0.00000000000E+00 0. -1.
         21   -1    0    0  501  503 -0.00000000000E+00 -0.00000000000E+00 -0.27856082996E+03  0.27856082996E+03  0.00000000000E+00 0. -1.
    9000007    1    1    2  501    0  0.16745761670E+03  0.36532240514E+02  0.28066531932E+03  0.51783170959E+03  0.40000000000E+03 0. -1.
   -9000007    1    1    2    0  502 -0.16745761670E+03 -0.36532240514E+02  0.13596476080E+03  0.45592003045E+03  0.40000000000E+03 0. -1.
<mgrwt>
<rscale>  2 0.43517428E+03</rscale>
<asrwt>0</asrwt>
<pdfrwt beam="1">  1       21 0.10695245E+00 0.43517428E+03</pdfrwt>
<pdfrwt beam="2">  1       21 0.42855512E-01 0.43517428E+03</pdfrwt>
<totfact> 0.32008741E+03</totfact>
</mgrwt>
</event>
<event>
 4    1  0.4760244E-002  0.4042531E+03  0.7818608E-02  0.1042317E+00
         21   -1    0    0  501  502  0.00000000000E+00  0.00000000000E+00  0.13282794440E+04  0.13282794440E+04  0.00000000000E+00 0.  1.
         21   -1    0    0  502  503 -0.00000000000E+00 -0.00000000000E+00 -0.12431632617E+03  0.12431632617E+03  0.00000000000E+00 0.  1.
    9000007    1    1    2  501    0 -0.52403784014E+02  0.25968865234E+02  0.67581130655E+03  0.78749060985E+03  0.40000000000E+03 0. -1.
   -9000007    1    1    2    0  503  0.52403784014E+02 -0.25968865234E+02  0.52815181130E+03  0.66510516034E+03  0.40000000000E+03 0. -1.
<mgrwt>
<rscale>  2 0.40425306E+03</rscale>
<asrwt>0</asrwt>
<pdfrwt beam="1">  1       21 0.20435067E+00 0.40425306E+03</pdfrwt>
<pdfrwt beam="2">  1       21 0.19125590E-01 0.40425306E+03</pdfrwt>
<totfact> 0.27377124E+03</totfact>
</mgrwt>
</event>
<event>
 4    1  0.4760244E-002  0.6620891E+03  0.7818608E-02  0.9784356E-01
         21   -1    0    0  501  502  0.00000000000E+00  0.00000000000E+00  0.87265321213E+03  0.87265321213E+03  0.00000000000E+00 0.  1.
         21   -1    0    0  502  503 -0.00000000000E+00 -0.00000000000E+00 -0.51011019288E+03  0.51011019288E+03  0.00000000000E+00 0. -1.
    9000007    1    1    2  501    0  0.49611123741E+03 -0.17954274691E+03  0.26664339129E+03  0.71376512661E+03  0.40000000000E+03 0.  1.
   -9000007    1    1    2    0  503 -0.49611123741E+03  0.17954274691E+03  0.95899627966E+02  0.66899827839E+03  0.40000000000E+03 0.  1.
<mgrwt>
<rscale>  2 0.66208909E+03</rscale>
<asrwt>0</asrwt>
<pdfrwt beam="1">  1       21 0.13425434E+00 0.66208909E+03</pdfrwt>
<pdfrwt beam="2">  1       21 0.78478491E-01 0.66208909E+03</pdfrwt>
<totfact> 0.44111057E+02</totfact>
</mgrwt>
</event>
<event>
 4    1  0.4760244E-002  0.5335729E+03  0.7818608E-02  0.1005369E+00
         21   -1    0    0  501  502  0.00000000000E+00  0.00000000000E+00  0.18580386202E+04  0.18580386202E+04  0.00000000000E+00 0. -1.
         21   -1    0    0  502  503 -0.00000000000E+00 -0.00000000000E+00 -0.15459176653E+03  0.15459176653E+03  0.00000000000E+00 0.  1.
    9000007    1    1    2  501    0  0.33470859576E+03  0.11256198011E+03  0.75714100213E+03  0.92626267362E+03  0.40000000000E+03 0. -1.
   -9000007    1    1    2    0  503 -0.33470859576E+03 -0.11256198011E+03  0.94630585154E+03  0.10863677131E+04  0.40000000000E+03 0.  1.
<mgrwt>
<rscale>  2 0.53357290E+03</rscale>
<asrwt>0</asrwt>
<pdfrwt beam="1">  1       21 0.28585208E+00 0.53357290E+03</pdfrwt>
<pdfrwt beam="2">  1       21 0.23783350E-01 0.53357290E+03</pdfrwt>
<totfact> 0.52758453E+02</totfact>
</mgrwt>
</event>
<event>
 4    1  0.4760244E-002  0.5786459E+03  0.7818608E-02  0.9950727E-01
         21   -1    0    0  501  502  0.00000000000E+00  0.00000000000E+00  0.35495249322E+03  0.35495249322E+03  0.00000000000E+00 0.  1.
         21   -1    0    0  502  503 -0.00000000000E+00 -0.00000000000E+00 -0.10338892607E+04  0.10338892607E+04  0.00000000000E+00 0.  1.
    9000007    1    1    2  501    0 -0.35378434587E+03 -0.22286260070E+03 -0.54500741014E+03  0.79489884846E+03  0.40000000000E+03 0.  1.
   -9000007    1    1    2    0  503  0.35378434587E+03  0.22286260070E+03 -0.13392935732E+03  0.59394290545E+03  0.40000000000E+03 0.  1.
<mgrwt>
<rscale>  2 0.57864592E+03</rscale>
<asrwt>0</asrwt>
<pdfrwt beam="1">  1       21 0.54608076E-01 0.57864592E+03</pdfrwt>
<pdfrwt beam="2">  1       21 0.15905989E+00 0.57864592E+03</pdfrwt>
<totfact> 0.64388551E+02</totfact>
</mgrwt>
</event>
<event>
 4    1  0.4760244E-002  0.4064091E+03  0.7818608E-02  0.1041583E+00
         21   -1    0    0  501  502  0.00000000000E+00  0.00000000000E+00  0.47572647492E+03  0.47572647492E+03  0.00000000000E+00 0.  1.
         21   -1    0    0  502  503 -0.00000000000E+00 -0.00000000000E+00 -0.45372308041E+03  0.45372308041E+03  0.00000000000E+00 0.  1.
    9000007    1    1    2  501    0 -0.71311548357E+02  0.91110907733E+01  0.23618640259E+03  0.47005570486E+03  0.40000000000E+03 0.  1.
   -9000007    1    1    2    0  503  0.71311548357E+02 -0.91110907733E+01 -0.21418300808E+03  0.45939385048E+03  0.40000000000E+03 0.  1.
<mgrwt>
<rscale>  2 0.40640909E+03</rscale>
<asrwt>0</asrwt>
<pdfrwt beam="1">  1       21 0.73188688E-01 0.40640909E+03</pdfrwt>
<pdfrwt beam="2">  1       21 0.69803551E-01 0.40640909E+03</pdfrwt>
<totfact> 0.27655441E+03</totfact>
</mgrwt>
</event>
<event>
 4    1  0.4760244E-002  0.4945208E+03  0.7818608E-02  0.1015219E+00
         21   -1    0    0  503  502  0.00000000000E+00  0.00000000000E+00  0.14328341606E+04  0.14328341606E+04  0.00000000000E+00 0. -1.
         21   -1    0    0  501  503 -0.00000000000E+00 -0.00000000000E+00 -0.37654857560E+03  0.37654857560E+03  0.00000000000E+00 0. -1.
    9000007    1    1    2  501    0 -0.26877694490E+03 -0.11094961224E+03  0.11970853909E+04  0.12952082056E+04  0.40000000000E+03 0. -1.
   -9000007    1    1    2    0  502  0.26877694490E+03  0.11094961224E+03 -0.14079980597E+03  0.51417453061E+03  0.40000000000E+03 0. -1.
<mgrwt>
<rscale>  2 0.49452084E+03</rscale>
<asrwt>0</asrwt>
<pdfrwt beam="1">  1       21 0.22043602E+00 0.49452084E+03</pdfrwt>
<pdfrwt beam="2">  1       21 0.57930551E-01 0.49452084E+03</pdfrwt>
<totfact> 0.21981180E+02</totfact>
</mgrwt>
</event>
<event>
 4    1  0.4760244E-002  0.4111506E+03  0.7818608E-02  0.1039986E+00
         21   -1    0    0  501  502  0.00000000000E+00  0.00000000000E+00  0.20913237601E+04  0.20913237601E+04  0.00000000000E+00 0.  1.
         21   -1    0    0  502  503 -0.00000000000E+00 -0.00000000000E+00 -0.16060651294E+03  0.16060651294E+03  0.00000000000E+00 0.  1.
    9000007    1    1    2  501    0  0.86929684510E+02 -0.38574720769E+02  0.17589133516E+04  0.18063280315E+04  0.40000000000E+03 0.  1.
   -9000007    1    1    2    0  503 -0.86929684510E+02  0.38574720769E+02  0.17180389564E+03  0.44560224156E+03  0.40000000000E+03 0.  1.
<mgrwt>
<rscale>  2 0.41115056E+03</rscale>
<asrwt>0</asrwt>
<pdfrwt beam="1">  1       21 0.32174210E+00 0.41115056E+03</pdfrwt>
<pdfrwt beam="2">  1       21 0.24708696E-01 0.41115056E+03</pdfrwt>
<totfact> 0.31846596E+02</totfact>
</mgrwt>
</event>
<event>
 4    1  0.4760244E-002  0.4145721E+03  0.7818608E-02  0.1038848E+00
         21   -1    0    0  501  502  0.00000000000E+00  0.00000000000E+00  0.93923061677E+03  0.93923061677E+03  0.00000000000E+00 0. -1.
         21   -1    0    0  502  503 -0.00000000000E+00 -0.00000000000E+00 -0.94607382599E+03  0.94607382599E+03  0.00000000000E+00 0.  1.
    9000007    1    1    2  501    0  0.10435098881E+03  0.31319639655E+02  0.84317209802E+03  0.93957928648E+03  0.40000000000E+03 0. -1.
   -9000007    1    1    2    0  503 -0.10435098881E+03 -0.31319639655E+02 -0.85001530724E+03  0.94572515629E+03  0.40000000000E+03 0.  1.
<mgrwt>
<rscale>  2 0.41457213E+03</rscale>
<asrwt>0</asrwt>
<pdfrwt beam="1">  1       21 0.14449702E+00 0.41457213E+03</pdfrwt>
<pdfrwt beam="2">  1       21 0.14554982E+00 0.41457213E+03</pdfrwt>
<totfact> 0.86916338E+01</totfact>
</mgrwt>
</event>
<event>
 4    1  0.4760244E-002  0.4157844E+03  0.7818608E-02  0.1038447E+00
         21   -1    0    0  501  502  0.00000000000E+00  0.00000000000E+00  0.19232430432E+03  0.19232430432E+03  0.00000000000E+00 0. -1.
         21   -1    0    0  502  503 -0.00000000000E+00 -0.00000000000E+00 -0.89981538439E+03  0.89981538439E+03  0.00000000000E+00 0. -1.
    9000007    1    1    2  501    0 -0.10979523453E+03  0.28665401426E+02 -0.37134061211E+03  0.55746798022E+03  0.40000000000E+03 0. -1.
   -9000007    1    1    2    0  503  0.10979523453E+03 -0.28665401426E+02 -0.33615046796E+03  0.53467170850E+03  0.40000000000E+03 0. -1.
<mgrwt>
<rscale>  2 0.41578444E+03</rscale>
<asrwt>0</asrwt>
<pdfrwt beam="1">  1       21 0.29588355E-01 0.41578444E+03</pdfrwt>
<pdfrwt beam="2">  1       21 0.13843314E+00 0.41578444E+03</pdfrwt>
<totfact> 0.35430930E+03</totfact>
</mgrwt>
</event>
<event>
 4    1  0.4760244E-002  0.4196298E+03  0.7818608E-02  0.1037187E+00
         21   -1    0    0  503  502  0.00000000000E+00  0.00000000000E+00  0.49637393312E+03  0.49637393312E+03  0.00000000000E+00 0. -1.
         21   -1    0    0  501  503 -0.00000000000E+00 -0.00000000000E+00 -0.35599449168E+03  0.35599449168E+03  0.00000000000E+00 0. -1.
    9000007    1    1    2  501    0 -0.60127894466E+02 -0.11168614461E+03  0.95377729640E+02  0.43033251086E+03  0.40000000000E+03 0. -1.
   -9000007    1    1    2    0  502  0.60127894466E+02  0.11168614461E+03  0.45001711796E+02  0.42203591394E+03  0.40000000000E+03 0. -1.
<mgrwt>
<rscale>  2 0.41962979E+03</rscale>
<asrwt>0</asrwt>
<pdfrwt beam="1">  1       21 0.76365220E-01 0.41962979E+03</pdfrwt>
<pdfrwt beam="2">  1       21 0.54768384E-01 0.41962979E+03</pdfrwt>
<totfact> 0.42588213E+03</totfact>
</mgrwt>
</event>
<event>
 4    1  0.4760244E-002  0.4022443E+03  0.7818608E-02  0.1043005E+00
         21   -1    0    0  503  502  0.00000000000E+00  0.00000000000E+00  0.82742327232E+03  0.82742327232E+03  0.00000000000E+00 0. -1.
         21   -1    0    0  501  503 -0.00000000000E+00 -0.00000000000E+00 -0.20161220048E+03  0.20161220048E+03  0.00000000000E+00 0. -1.
    9000007    1    1    2  501    0 -0.33871909620E+02  0.25557429498E+02  0.40214344547E+03  0.56878804418E+03  0.40000000000E+03 0.  1.
   -9000007    1    1    2    0  502  0.33871909620E+02 -0.25557429498E+02  0.22366762637E+03  0.46024742862E+03  0.40000000000E+03 0.  1.
<mgrwt>
<rscale>  2 0.40224431E+03</rscale>
<asrwt>0</asrwt>
<pdfrwt beam="1">  1       21 0.12729589E+00 0.40224431E+03</pdfrwt>
<pdfrwt beam="2">  1       21 0.31017262E-01 0.40224431E+03</pdfrwt>
<totfact> 0.40351364E+03</totfact>
</mgrwt>
</event>
<event>
 4    1  0.4760244E-002  0.4094103E+03  0.7818608E-02  0.1040569E+00
         21   -1    0    0  503  502  0.00000000000E+00  0.00000000000E+00  0.61144183058E+03  0.61144183058E+03  0.00000000000E+00 0. -1.
         21   -1    0    0  501  503 -0.00000000000E+00 -0.00000000000E+00 -0.47908411359E+03  0.47908411359E+03  0.00000000000E+00 0. -1.
    9000007    1    1    2  501    0 -0.87260220177E+02 -0.15733001434E+01 -0.29045658610E+03  0.50197793747E+03  0.40000000000E+03 0. -1.
   -9000007    1    1    2    0  502  0.87260220177E+02  0.15733001434E+01  0.42281430308E+03  0.58854800670E+03  0.40000000000E+03 0. -1.
<mgrwt>
<rscale>  2 0.40941033E+03</rscale>
<asrwt>0</asrwt>
<pdfrwt beam="1">  1       21 0.94067974E-01 0.40941033E+03</pdfrwt>
<pdfrwt beam="2">  1       21 0.73705248E-01 0.40941033E+03</pdfrwt>
<totfact> 0.13635717E+03</totfact>
</mgrwt>
</event>
<event>
 4    1  0.4760244E-002  0.4447340E+03  0.7818608E-02  0.1029304E+00
         21   -1    0    0  503  502  0.00000000000E+00  0.00000000000E+00  0.17828039502E+04  0.17828039502E+04  0.00000000000E+00 0.  1.
         21   -1    0    0  501  503 -0.00000000000E+00 -0.00000000000E+00 -0.14165907260E+03  0.14165907260E+03  0.00000000000E+00 0.  1.
    9000007    1    1    2  501    0 -0.16950949627E+03 -0.95156804265E+02  0.37250281533E+03  0.58012639498E+03  0.40000000000E+03 0.  1.
   -9000007    1    1    2    0  502  0.16950949627E+03  0.95156804265E+02  0.12686420622E+04  0.13443366278E+04  0.40000000000E+03 0.  1.
<mgrwt>
<rscale>  2 0.44473395E+03</rscale>
<asrwt>0</asrwt>
<pdfrwt beam="1">  1       21 0.27427751E+00 0.44473395E+03</pdfrwt>
<pdfrwt beam="2">  1       21 0.21793705E-01 0.44473395E+03</pdfrwt>
<totfact> 0.76689383E+02</totfact>
</mgrwt>
</event>
<event>
 4    1  0.4760244E-002  0.5141128E+03  0.7818608E-02  0.1010160E+00
         21   -1    0    0  503  502  0.00000000000E+00  0.00000000000E+00  0.18631666638E+04  0.18631666638E+04  0.00000000000E+00 0.  1.
         21   -1    0    0  501  503 -0.00000000000E+00 -0.00000000000E+00 -0.54014764179E+03  0.54014764179E+03  0.00000000000E+00 0.  1.
    9000007    1    1    2  501    0  0.10007525793E+03  0.30707810425E+03 -0.37035295190E+03  0.63361922977E+03  0.40000000000E+03 0.  1.
   -9000007    1    1    2    0  502 -0.10007525793E+03 -0.30707810425E+03  0.16933719740E+04  0.17696950759E+04  0.40000000000E+03 0.  1.
<mgrwt>
<rscale>  2 0.51411285E+03</rscale>
<asrwt>0</asrwt>
<pdfrwt beam="1">  1       21 0.28664102E+00 0.51411285E+03</pdfrwt>
<pdfrwt beam="2">  1       21 0.83099638E-01 0.51411285E+03</pdfrwt>
<totfact> 0.37565671E+01</totfact>
</mgrwt>
</event>
<event>
 4    1  0.4760244E-002  0.4107115E+03  0.7818608E-02  0.1040133E+00
         21   -1    0    0  501  502  0.00000000000E+00  0.00000000000E+00  0.38876343525E+03  0.38876343525E+03  0.00000000000E+00 0. -1.
         21   -1    0    0  502  503 -0.00000000000E+00 -0.00000000000E+00 -0.55162133466E+03  0.55162133466E+03  0.00000000000E+00 0. -1.
    9000007    1    1    2  501    0 -0.71341245630E+02 -0.59953022337E+02  0.13578369444E+03  0.43257502227E+03  0.40000000000E+03 0. -1.
   -9000007    1    1    2    0  503  0.71341245630E+02  0.59953022337E+02 -0.29864159385E+03  0.50780974764E+03  0.40000000000E+03 0. -1.
<mgrwt>
<rscale>  2 0.41071150E+03</rscale>
<asrwt>0</asrwt>
<pdfrwt beam="1">  1       21 0.59809760E-01 0.41071150E+03</pdfrwt>
<pdfrwt beam="2">  1       21 0.84864820E-01 0.41071150E+03</pdfrwt>
<totfact> 0.27665350E+03</totfact>
</mgrwt>
</event>
<event>
 4    1  0.4760244E-002  0.4067832E+03  0.7818608E-02  0.1041456E+00
         21   -1    0    0  503  502  0.00000000000E+00  0.00000000000E+00  0.46439070330E+03  0.46439070330E+03  0.00000000000E+00 0.  1.
         21   -1    0    0  501  503 -0.00000000000E+00 -0.00000000000E+00 -0.43890144353E+03  0.43890144353E+03  0.00000000000E+00 0. -1.
    9000007    1    1    2  501    0 -0.68539503119E+02 -0.27836909058E+02  0.20865214256E+03  0.45717422673E+03  0.40000000000E+03 0.  1.
   -9000007    1    1    2    0  502  0.68539503119E+02  0.27836909058E+02 -0.18316288279E+03  0.44611792009E+03  0.40000000000E+03 0. -1.
<mgrwt>
<rscale>  2 0.40678318E+03</rscale>
<asrwt>0</asrwt>
<pdfrwt beam="1">  1       21 0.71444724E-01 0.40678318E+03</pdfrwt>
<pdfrwt beam="2">  1       21 0.67523299E-01 0.40678318E+03</pdfrwt>
<totfact> 0.31454260E+03</totfact>
</mgrwt>
</event>
<event>
 4    1  0.4760244E-002  0.4675254E+03  0.7818608E-02  0.1022621E+00
         21   -1    0    0  501  502  0.00000000000E+00  0.00000000000E+00  0.24737026870E+04  0.24737026870E+04  0.00000000000E+00 0.  1.
         21   -1    0    0  502  503 -0.00000000000E+00 -0.00000000000E+00 -0.27859239262E+03  0.27859239262E+03  0.00000000000E+00 0.  1.
    9000007    1    1    2  501    0  0.20473876940E+03  0.12908136240E+03  0.22347135081E+04  0.22830953605E+04  0.40000000000E+03 0.  1.
   -9000007    1    1    2    0  503 -0.20473876940E+03 -0.12908136240E+03 -0.39603213802E+02  0.46919971905E+03  0.40000000000E+03 0.  1.
<mgrwt>
<rscale>  2 0.46752536E+03</rscale>
<asrwt>0</asrwt>
<pdfrwt beam="1">  1       21 0.38056963E+00 0.46752536E+03</pdfrwt>
<pdfrwt beam="2">  1       21 0.42860370E-01 0.46752536E+03</pdfrwt>
<totfact> 0.44140584E+01</totfact>
</mgrwt>
</event>
<event>
 4    1  0.4760244E-002  0.4450808E+03  0.7818608E-02  0.1029199E+00
         21   -1    0    0  503  502  0.00000000000E+00  0.00000000000E+00  0.32185827859E+03  0.32185827859E+03  0.00000000000E+00 0. -1.
         21   -1    0    0  501  503 -0.00000000000E+00 -0.00000000000E+00 -0.86997291560E+03  0.86997291560E+03  0.00000000000E+00 0. -1.
    9000007    1    1    2  501    0  0.12517340646E+03 -0.14976169743E+03 -0.59636507510E+03  0.74414262779E+03  0.40000000000E+03 0. -1.
   -9000007    1    1    2    0  502 -0.12517340646E+03  0.14976169743E+03  0.48250438092E+02  0.44768856639E+03  0.40000000000E+03 0. -1.
<mgrwt>
<rscale>  2 0.44508083E+03</rscale>
<asrwt>0</asrwt>
<pdfrwt beam="1">  1       21 0.49516659E-01 0.44508083E+03</pdfrwt>
<pdfrwt beam="2">  1       21 0.13384199E+00 0.44508083E+03</pdfrwt>
<totfact> 0.13327773E+03</totfact>
</mgrwt>
</event>
<event>
 4    1  0.4760244E-002  0.4779766E+03  0.7818608E-02  0.1019693E+00
         21   -1    0    0  503  502  0.00000000000E+00  0.00000000000E+00  0.27610631712E+03  0.27610631712E+03  0.00000000000E+00 0. -1.
         21   -1    0    0  501  503 -0.00000000000E+00 -0.00000000000E+00 -0.91110922003E+03  0.91110922003E+03  0.00000000000E+00 0. -1.
    9000007    1    1    2  501    0 -0.24138903645E+03  0.10096033195E+03 -0.49738643762E+03  0.68982238575E+03  0.40000000000E+03 0. -1.
   -9000007    1    1    2    0  502  0.24138903645E+03 -0.10096033195E+03 -0.13761646530E+03  0.49739315140E+03  0.40000000000E+03 0. -1.
<mgrwt>
<rscale>  2 0.47797663E+03</rscale>
<asrwt>0</asrwt>
<pdfrwt beam="1">  1       21 0.42477895E-01 0.47797663E+03</pdfrwt>
<pdfrwt beam="2">  1       21 0.14017065E+00 0.47797663E+03</pdfrwt>
<totfact> 0.16072611E+03</totfact>
</mgrwt>
</event>
<event>
 4    1  0.4760244E-002  0.4144970E+03  0.7818608E-02  0.1038872E+00
         21   -1    0    0  501  502  0.00000000000E+00  0.00000000000E+00  0.19431962474E+04  0.19431962474E+04  0.00000000000E+00 0. -1.
         21   -1    0    0  502  503 -0.00000000000E+00 -0.00000000000E+00 -0.11856206039E+03  0.11856206039E+03  0.00000000000E+00 0. -1.
    9000007    1    1    2  501    0  0.36082331580E+02 -0.10249784369E+03  0.14321421411E+04  0.14909187955E+04  0.40000000000E+03 0. -1.
   -9000007    1    1    2    0  503 -0.36082331580E+02  0.10249784369E+03  0.39249204589E+03  0.57083951221E+03  0.40000000000E+03 0. -1.
<mgrwt>
<rscale>  2 0.41449698E+03</rscale>
<asrwt>0</asrwt>
<pdfrwt beam="1">  1       21 0.29895325E+00 0.41449698E+03</pdfrwt>
<pdfrwt beam="2">  1       21 0.18240318E-01 0.41449698E+03</pdfrwt>
<totfact> 0.77768733E+02</totfact>
</mgrwt>
</event>
<event>
 4    1  0.4760244E-002  0.5179319E+03  0.7818608E-02  0.1009202E+00
         21   -1    0    0  501  502  0.00000000000E+00  0.00000000000E+00  0.20013416365E+04  0.20013416365E+04  0.00000000000E+00 0. -1.
         21   -1    0    0  502  503 -0.00000000000E+00 -0.00000000000E+00 -0.34667785393E+03  0.34667785393E+03  0.00000000000E+00 0.  1.
    9000007    1    1    2  501    0 -0.21999013553E+03 -0.24465856332E+03  0.17467905097E+04  0.18219578912E+04  0.40000000000E+03 0. -1.
   -9000007    1    1    2    0  503  0.21999013553E+03  0.24465856332E+03 -0.92126727173E+02  0.52606159924E+03  0.40000000000E+03 0.  1.
<mgrwt>
<rscale>  2 0.51793192E+03</rscale>
<asrwt>0</asrwt>
<pdfrwt beam="1">  1       21 0.30789871E+00 0.51793192E+03</pdfrwt>
<pdfrwt beam="2">  1       21 0.53335056E-01 0.51793192E+03</pdfrwt>
<totfact> 0.75289738E+01</totfact>
</mgrwt>
</event>
<event>
 4    1  0.4760244E-002  0.4438685E+03  0.7818608E-02  0.1029566E+00
         21   -1    0    0  503  502  0.00000000000E+00  0.00000000000E+00  0.65292856046E+03  0.65292856046E+03  0.00000000000E+00 0. -1.
         21   -1    0    0  501  503 -0.00000000000E+00 -0.00000000000E+00 -0.31079021070E+03  0.31079021070E+03  0.00000000000E+00 0. -1.
    9000007    1    1    2  501    0  0.83852566175E+02  0.17317035350E+03  0.25326473419E+03  0.51104036022E+03  0.40000000000E+03 0.  1.
   -9000007    1    1    2    0  502 -0.83852566175E+02 -0.17317035350E+03  0.88873615563E+02  0.45267841094E+03  0.40000000000E+03 0.  1.
<mgrwt>
<rscale>  2 0.44386848E+03</rscale>
<asrwt>0</asrwt>
<pdfrwt beam="1">  1       21 0.10045055E+00 0.44386848E+03</pdfrwt>
<pdfrwt beam="2">  1       21 0.47813879E-01 0.44386848E+03</pdfrwt>
<totfact> 0.29584860E+03</totfact>
</mgrwt>
</event>
<event>
 4    1  0.4760244E-002  0.4902147E+03  0.7818608E-02  0.1016365E+00
         21   -1    0    0  501  502  0.00000000000E+00  0.00000000000E+00  0.34595667173E+03  0.34595667173E+03  0.00000000000E+00 0.  1.
         21   -1    0    0  502  503 -0.00000000000E+00 -0.00000000000E+00 -0.70391680412E+03  0.70391680412E+03  0.00000000000E+00 0. -1.
    9000007    1    1    2  501    0  0.47563223881E+02  0.27937110638E+03 -0.23928801472E+03  0.54549906447E+03  0.40000000000E+03 0. -1.
   -9000007    1    1    2    0  503 -0.47563223881E+02 -0.27937110638E+03 -0.11867211767E+03  0.50437441139E+03  0.40000000000E+03 0.  1.
<mgrwt>
<rscale>  2 0.49021472E+03</rscale>
<asrwt>0</asrwt>
<pdfrwt beam="1">  1       21 0.53224104E-01 0.49021472E+03</pdfrwt>
<pdfrwt beam="2">  1       21 0.10829489E+00 0.49021472E+03</pdfrwt>
<totfact> 0.19243397E+03</totfact>
</mgrwt>
</event>
<event>
 4    1  0.4760244E-002  0.6050596E+03  0.7818608E-02  0.9894964E-01
         21   -1    0    0  501  502  0.00000000000E+00  0.00000000000E+00  0.11469513069E+04  0.11469513069E+04  0.00000000000E+00 0.  1.
         21   -1    0    0  502  503 -0.00000000000E+00 -0.00000000000E+00 -0.54322191992E+03  0.54322191992E+03  0.00000000000E+00 0.  1.
    9000007    1    1    2  501    0  0.24472806387E+03  0.38236801210E+03  0.84457249416E+03  0.10389416826E+04  0.40000000000E+03 0.  1.
   -9000007    1    1    2    0  503 -0.24472806387E+03 -0.38236801210E+03 -0.24084310718E+03  0.65123154423E+03  0.40000000000E+03 0.  1.
<mgrwt>
<rscale>  2 0.60505960E+03</rscale>
<asrwt>0</asrwt>
<pdfrwt beam="1">  1       21 0.17645405E+00 0.60505960E+03</pdfrwt>
<pdfrwt beam="2">  1       21 0.83572603E-01 0.60505960E+03</pdfrwt>
<totfact> 0.18160436E+02</totfact>
</mgrwt>
</event>
<event>
 4    1  0.4760244E-002  0.5798626E+03  0.7818608E-02  0.9948089E-01
         21   -1    0    0  503  502  0.00000000000E+00  0.00000000000E+00  0.63413316346E+03  0.63413316346E+03  0.00000000000E+00 0.  1.
         21   -1    0    0  501  503 -0.00000000000E+00 -0.00000000000E+00 -0.79750466158E+03  0.79750466158E+03  0.00000000000E+00 0. -1.
    9000007    1    1    2  501    0  0.39969856968E+03 -0.12838098344E+03 -0.49607651700E+03  0.76310715776E+03  0.40000000000E+03 0. -1.
   -9000007    1    1    2    0  502 -0.39969856968E+03  0.12838098344E+03  0.33270501887E+03  0.66853066728E+03  0.40000000000E+03 0.  1.
<mgrwt>
<rscale>  2 0.57986259E+03</rscale>
<asrwt>0</asrwt>
<pdfrwt beam="1">  1       21 0.97558948E-01 0.57986259E+03</pdfrwt>
<pdfrwt beam="2">  1       21 0.12269302E+00 0.57986259E+03</pdfrwt>
<totfact> 0.34209036E+02</totfact>
</mgrwt>
</event>
<event>
 4    1  0.4760244E-002  0.4656587E+03  0.7818608E-02  0.1023153E+00
         21   -1    0    0  501  502  0.00000000000E+00  0.00000000000E+00  0.64763647324E+03  0.64763647324E+03  0.00000000000E+00 0.  1.
         21   -1    0    0  502  503 -0.00000000000E+00 -0.00000000000E+00 -0.49527986978E+03  0.49527986978E+03  0.00000000000E+00 0.  1.
    9000007    1    1    2  501    0 -0.39299753803E+02  0.23514581516E+03  0.40145270471E+03  0.61481891574E+03  0.40000000000E+03 0.  1.
   -9000007    1    1    2    0  503  0.39299753803E+02 -0.23514581516E+03 -0.24909610125E+03  0.52809742727E+03  0.40000000000E+03 0.  1.
<mgrwt>
<rscale>  2 0.46565870E+03</rscale>
<asrwt>0</asrwt>
<pdfrwt beam="1">  1       21 0.99636381E-01 0.46565870E+03</pdfrwt>
<pdfrwt beam="2">  1       21 0.76196903E-01 0.46565870E+03</pdfrwt>
<totfact> 0.10754171E+03</totfact>
</mgrwt>
</event>
<event>
 4    1  0.4760244E-002  0.4549440E+03  0.7818608E-02  0.1026258E+00
         21   -1    0    0  503  502  0.00000000000E+00  0.00000000000E+00  0.36159467992E+03  0.36159467992E+03  0.00000000000E+00 0. -1.
         21   -1    0    0  501  503 -0.00000000000E+00 -0.00000000000E+00 -0.16527933718E+04  0.16527933718E+04  0.00000000000E+00 0. -1.
    9000007    1    1    2  501    0  0.19516228115E+03 -0.94263937671E+02 -0.14599217163E+04  0.15291649433E+04  0.40000000000E+03 0. -1.
   -9000007    1    1    2    0  502 -0.19516228115E+03  0.94263937671E+02  0.16872302450E+03  0.48522310840E+03  0.40000000000E+03 0. -1.
<mgrwt>
<rscale>  2 0.45494396E+03</rscale>
<asrwt>0</asrwt>
<pdfrwt beam="1">  1       21 0.55629950E-01 0.45494396E+03</pdfrwt>
<pdfrwt beam="2">  1       21 0.25427591E+00 0.45494396E+03</pdfrwt>
<totfact> 0.15068075E+02</totfact>
</mgrwt>
</event>
<event>
 4    1  0.4760244E-002  0.4096957E+03  0.7818608E-02  0.1040473E+00
         21   -1    0    0  501  502  0.00000000000E+00  0.00000000000E+00  0.25561296726E+03  0.25561296726E+03  0.00000000000E+00 0.  1.
         21   -1    0    0  502  503 -0.00000000000E+00 -0.00000000000E+00 -0.65922050575E+03  0.65922050575E+03  0.00000000000E+00 0.  1.
    9000007    1    1    2  501    0  0.83503674381E+02  0.29626076219E+02 -0.17329094743E+03  0.44483740905E+03  0.40000000000E+03 0.  1.
   -9000007    1    1    2    0  503 -0.83503674381E+02 -0.29626076219E+02 -0.23031659106E+03  0.46999606397E+03  0.40000000000E+03 0.  1.
<mgrwt>
<rscale>  2 0.40969570E+03</rscale>
<asrwt>0</asrwt>
<pdfrwt beam="1">  1       21 0.39325072E-01 0.40969570E+03</pdfrwt>
<pdfrwt beam="2">  1       21 0.10141854E+00 0.40969570E+03</pdfrwt>
<totfact> 0.43961145E+03</totfact>
</mgrwt>
</event>
<event>
 4    1  0.4760244E-002  0.4434184E+03  0.7818608E-02  0.1029703E+00
         21   -1    0    0  501  502  0.00000000000E+00  0.00000000000E+00  0.63222270042E+03  0.63222270042E+03  0.00000000000E+00 0. -1.
         21   -1    0    0  502  503 -0.00000000000E+00 -0.00000000000E+00 -0.34015996252E+03  0.34015996252E+03  0.00000000000E+00 0. -1.
    9000007    1    1    2  501    0  0.16898914337E+03 -0.89791457453E+02  0.28838739631E+03  0.52894907766E+03  0.40000000000E+03 0. -1.
   -9000007    1    1    2    0  503 -0.16898914337E+03  0.89791457453E+02  0.36753415887E+01  0.44343358527E+03  0.40000000000E+03 0. -1.
<mgrwt>
<rscale>  2 0.44341835E+03</rscale>
<asrwt>0</asrwt>
<pdfrwt beam="1">  1       21 0.97265031E-01 0.44341835E+03</pdfrwt>
<pdfrwt beam="2">  1       21 0.52332302E-01 0.44341835E+03</pdfrwt>
<totfact> 0.26399654E+03</totfact>
</mgrwt>
</event>
<event>
 4    1  0.4760244E-002  0.4414472E+03  0.7818608E-02  0.1030304E+00
         21   -1    0    0  503  502  0.00000000000E+00  0.00000000000E+00  0.11356631506E+04  0.11356631506E+04  0.00000000000E+00 0.  1.
         21   -1    0    0  501  503 -0.00000000000E+00 -0.00000000000E+00 -0.17164517337E+03  0.17164517337E+03  0.00000000000E+00 0. -1.
    9000007    1    1    2  501    0 -0.53320555602E+02 -0.17897636157E+03  0.47098165094E+03  0.64552252879E+03  0.40000000000E+03 0. -1.
   -9000007    1    1    2    0  502  0.53320555602E+02  0.17897636157E+03  0.49303632625E+03  0.66178579514E+03  0.40000000000E+03 0.  1.
<mgrwt>
<rscale>  2 0.44144719E+03</rscale>
<asrwt>0</asrwt>
<pdfrwt beam="1">  1       21 0.17471740E+00 0.44144719E+03</pdfrwt>
<pdfrwt beam="2">  1       21 0.26406950E-01 0.44144719E+03</pdfrwt>
<totfact> 0.23111948E+03</totfact>
</mgrwt>
</event>
<event>
 4    1  0.4760244E-002  0.4240573E+03  0.7818608E-02  0.1035754E+00
         21   -1    0    0  501  502  0.00000000000E+00  0.00000000000E+00  0.98976147884E+03  0.98976147884E+03  0.00000000000E+00 0.  1.
         21   -1    0    0  502  503 -0.00000000000E+00 -0.00000000000E+00 -0.43618631360E+03  0.43618631360E+03  0.00000000000E+00 0.  1.
    9000007    1    1    2  501    0  0.11739658349E+03 -0.77734338329E+02  0.82139408703E+03  0.92439863229E+03  0.40000000000E+03 0.  1.
   -9000007    1    1    2    0  503 -0.11739658349E+03  0.77734338329E+02 -0.26781892180E+03  0.50154916015E+03  0.40000000000E+03 0.  1.
<mgrwt>
<rscale>  2 0.42405729E+03</rscale>
<asrwt>0</asrwt>
<pdfrwt beam="1">  1       21 0.15227100E+00 0.42405729E+03</pdfrwt>
<pdfrwt beam="2">  1       21 0.67105587E-01 0.42405729E+03</pdfrwt>
<totfact> 0.49206576E+02</totfact>
</mgrwt>
</event>
<event>
 4    1  0.4760244E-002  0.5831412E+03  0.7818608E-02  0.9941013E-01
         21   -1    0    0  503  502  0.00000000000E+00  0.00000000000E+00  0.85805826664E+03  0.85805826664E+03  0.00000000000E+00 0.  1.
         21   -1    0    0  501  503 -0.00000000000E+00 -0.00000000000E+00 -0.74179019693E+03  0.74179019693E+03  0.00000000000E+00 0. -1.
    9000007    1    1    2  501    0 -0.16783023575E+03  0.38972646128E+03 -0.48777760595E+03  0.76025041633E+03  0.40000000000E+03 0. -1.
   -9000007    1    1    2    0  502  0.16783023575E+03 -0.38972646128E+03  0.60404567566E+03  0.83959804725E+03  0.40000000000E+03 0.  1.
<mgrwt>
<rscale>  2 0.58314124E+03</rscale>
<asrwt>0</asrwt>
<pdfrwt beam="1">  1       21 0.13200896E+00 0.58314124E+03</pdfrwt>
<pdfrwt beam="2">  1       21 0.11412157E+00 0.58314124E+03</pdfrwt>
<totfact> 0.19151315E+02</totfact>
</mgrwt>
</event>
<event>
 4    1  0.4760244E-002  0.4083701E+03  0.7818608E-02  0.1040919E+00
         21   -1    0    0  503  502  0.00000000000E+00  0.00000000000E+00  0.10126729761E+04  0.10126729761E+04  0.00000000000E+00 0. -1.
         21   -1    0    0  501  503 -0.00000000000E+00 -0.00000000000E+00 -0.73849879121E+03  0.73849879121E+03  0.00000000000E+00 0. -1.
    9000007    1    1    2  501    0 -0.28066504636E+01 -0.82208551787E+02 -0.63472497078E+03  0.75474625657E+03  0.40000000000E+03 0. -1.
   -9000007    1    1    2    0  502  0.28066504636E+01  0.82208551787E+02  0.90889915565E+03  0.99642551072E+03  0.40000000000E+03 0. -1.
<mgrwt>
<rscale>  2 0.40837008E+03</rscale>
<asrwt>0</asrwt>
<pdfrwt beam="1">  1       21 0.15579584E+00 0.40837008E+03</pdfrwt>
<pdfrwt beam="2">  1       21 0.11361520E+00 0.40837008E+03</pdfrwt>
<totfact> 0.13494245E+02</totfact>
</mgrwt>
</event>
<event>
 4    1  0.4760244E-002  0.4208352E+03  0.7818608E-02  0.1036795E+00
         21   -1    0    0  503  502  0.00000000000E+00  0.00000000000E+00  0.36145914370E+03  0.36145914370E+03  0.00000000000E+00 0. -1.
         21   -1    0    0  501  503 -0.00000000000E+00 -0.00000000000E+00 -0.56841876292E+03  0.56841876292E+03  0.00000000000E+00 0. -1.
    9000007    1    1    2  501    0  0.10412074794E+03  0.79127181638E+02 -0.27621041560E+03  0.50338299009E+03  0.40000000000E+03 0. -1.
   -9000007    1    1    2    0  502 -0.10412074794E+03 -0.79127181638E+02  0.69250796376E+02  0.42649491653E+03  0.40000000000E+03 0. -1.
<mgrwt>
<rscale>  2 0.42083517E+03</rscale>
<asrwt>0</asrwt>
<pdfrwt beam="1">  1       21 0.55609100E-01 0.42083517E+03</pdfrwt>
<pdfrwt beam="2">  1       21 0.87449039E-01 0.42083517E+03</pdfrwt>
<totfact> 0.30092228E+03</totfact>
</mgrwt>
</event>
<event>
 4    1  0.4760244E-002  0.5162503E+03  0.7818608E-02  0.1009622E+00
         21   -1    0    0  501  502  0.00000000000E+00  0.00000000000E+00  0.86704284373E+03  0.86704284373E+03  0.00000000000E+00 0.  1.
         21   -1    0    0  502  503 -0.00000000000E+00 -0.00000000000E+00 -0.31655223931E+03  0.31655223931E+03  0.00000000000E+00 0.  1.
    9000007    1    1    2  501    0 -0.31899348799E+03 -0.68974494893E+02  0.17452558532E+03  0.54495275598E+03  0.40000000000E+03 0.  1.
   -9000007    1    1    2    0  503  0.31899348799E+03  0.68974494893E+02  0.37596501910E+03  0.63864232706E+03  0.40000000000E+03 0.  1.
<mgrwt>
<rscale>  2 0.51625026E+03</rscale>
<asrwt>0</asrwt>
<pdfrwt beam="1">  1       21 0.13339121E+00 0.51625026E+03</pdfrwt>
<pdfrwt beam="2">  1       21 0.48700345E-01 0.51625026E+03</pdfrwt>
<totfact> 0.13556571E+03</totfact>
</mgrwt>
</event>
<event>
 4    1  0.4760244E-002  0.4594095E+03  0.7818608E-02  0.1024953E+00
         21   -1    0    0  503  502  0.00000000000E+00  0.00000000000E+00  0.77527732905E+03  0.77527732905E+03  0.00000000000E+00 0. -1.
         21   -1    0    0  501  503 -0.00000000000E+00 -0.00000000000E+00 -0.37983672141E+03  0.37983672141E+03  0.00000000000E+00 0. -1.
    9000007    1    1    2  501    0 -0.21464066492E+03  0.70614978053E+02 -0.10968219598E+03  0.47232115587E+03  0.40000000000E+03 0. -1.
   -9000007    1    1    2    0  502  0.21464066492E+03 -0.70614978053E+02  0.50512280363E+03  0.68279289459E+03  0.40000000000E+03 0. -1.
<mgrwt>
<rscale>  2 0.45940950E+03</rscale>
<asrwt>0</asrwt>
<pdfrwt beam="1">  1       21 0.11927343E+00 0.45940950E+03</pdfrwt>
<pdfrwt beam="2">  1       21 0.58436419E-01 0.45940950E+03</pdfrwt>
<totfact> 0.12487608E+03</totfact>
</mgrwt>
</event>
<event>
 4    1  0.4760244E-002  0.6148471E+03  0.7818608E-02  0.9875073E-01
         21   -1    0    0  501  502  0.00000000000E+00  0.00000000000E+00  0.78055927235E+03  0.78055927235E+03  0.00000000000E+00 0.  1.
         21   -1    0    0  502  503 -0.00000000000E+00 -0.00000000000E+00 -0.71409602869E+03  0.71409602869E+03  0.00000000000E+00 0.  1.
    9000007    1    1    2  501    0 -0.20509132898E+02  0.46649371154E+03  0.45715687674E+03  0.76617845009E+03  0.40000000000E+03 0.  1.
   -9000007    1    1    2    0  503  0.20509132898E+02 -0.46649371154E+03 -0.39069363308E+03  0.72847685095E+03  0.40000000000E+03 0.  1.
<mgrwt>
<rscale>  2 0.61484714E+03</rscale>
<asrwt>0</asrwt>
<pdfrwt beam="1">  1       21 0.12008604E+00 0.61484714E+03</pdfrwt>
<pdfrwt beam="2">  1       21 0.10986093E+00 0.61484714E+03</pdfrwt>
<totfact> 0.26632611E+02</totfact>
</mgrwt>
</event>
<event>
 4    1  0.4760244E-002  0.4358924E+03  0.7818608E-02  0.1032015E+00
         21   -1    0    0  501  502  0.00000000000E+00  0.00000000000E+00  0.57102531733E+03  0.57102531733E+03  0.00000000000E+00 0. -1.
         21   -1    0    0  502  503 -0.00000000000E+00 -0.00000000000E+00 -0.47660177957E+03  0.47660177957E+03  0.00000000000E+00 0. -1.
    9000007    1    1    2  501    0 -0.16312945650E+03  0.58231928635E+02  0.33500043871E+03  0.54975219056E+03  0.40000000000E+03 0. -1.
   -9000007    1    1    2    0  503  0.16312945650E+03 -0.58231928635E+02 -0.24057690095E+03  0.49787490634E+03  0.40000000000E+03 0. -1.
<mgrwt>
<rscale>  2 0.43589239E+03</rscale>
<asrwt>0</asrwt>
<pdfrwt beam="1">  1       21 0.87850049E-01 0.43589239E+03</pdfrwt>
<pdfrwt beam="2">  1       21 0.73323350E-01 0.43589239E+03</pdfrwt>
<totfact> 0.16047461E+03</totfact>
</mgrwt>
</event>
<event>
 4    1  0.4760244E-002  0.4158170E+03  0.7818608E-02  0.1038436E+00
         21   -1    0    0  501  502  0.00000000000E+00  0.00000000000E+00  0.70157863132E+03  0.70157863132E+03  0.00000000000E+00 0.  1.
         21   -1    0    0  502  503 -0.00000000000E+00 -0.00000000000E+00 -0.24680414441E+03  0.24680414441E+03  0.00000000000E+00 0.  1.
    9000007    1    1    2  501    0 -0.11120383038E+03  0.23183486871E+02  0.20941431027E+03  0.46557289365E+03  0.40000000000E+03 0. -1.
   -9000007    1    1    2    0  503  0.11120383038E+03 -0.23183486871E+02  0.24536017663E+03  0.48280988208E+03  0.40000000000E+03 0. -1.
<mgrwt>
<rscale>  2 0.41581699E+03</rscale>
<asrwt>0</asrwt>
<pdfrwt beam="1">  1       21 0.10793517E+00 0.41581699E+03</pdfrwt>
<pdfrwt beam="2">  1       21 0.37969869E-01 0.41581699E+03</pdfrwt>
<totfact> 0.40446413E+03</totfact>
</mgrwt>
</event>
<event>
 4    1  0.4760244E-002  0.4670631E+03  0.7818608E-02  0.1022752E+00
         21   -1    0    0  501  502  0.00000000000E+00  0.00000000000E+00  0.70646058454E+03  0.70646058454E+03  0.00000000000E+00 0.  1.
         21   -1    0    0  502  503 -0.00000000000E+00 -0.00000000000E+00 -0.36727664081E+03  0.36727664081E+03  0.00000000000E+00 0.  1.
    9000007    1    1    2  501    0  0.12995070269E+03 -0.20312749243E+03  0.38383154911E+03  0.60454497054E+03  0.40000000000E+03 0. -1.
   -9000007    1    1    2    0  503 -0.12995070269E+03  0.20312749243E+03 -0.44647605375E+02  0.46919225481E+03  0.40000000000E+03 0. -1.
<mgrwt>
<rscale>  2 0.46706313E+03</rscale>
<asrwt>0</asrwt>
<pdfrwt beam="1">  1       21 0.10868624E+00 0.46706313E+03</pdfrwt>
<pdfrwt beam="2">  1       21 0.56504099E-01 0.46706313E+03</pdfrwt>
<totfact> 0.16901998E+03</totfact>
</mgrwt>
</event>
<event>
 4    1  0.4760244E-002  0.4949170E+03  0.7818608E-02  0.1015114E+00
         21   -1    0    0  501  502  0.00000000000E+00  0.00000000000E+00  0.53066296932E+03  0.53066296932E+03  0.00000000000E+00 0.  1.
         21   -1    0    0  502  503 -0.00000000000E+00 -0.00000000000E+00 -0.56556910178E+03  0.56556910178E+03  0.00000000000E+00 0.  1.
    9000007    1    1    2  501    0 -0.22601555869E+03 -0.18401041088E+03  0.21757825682E+03  0.54063218728E+03  0.40000000000E+03 0.  1.
   -9000007    1    1    2    0  503  0.22601555869E+03  0.18401041088E+03 -0.25248438927E+03  0.55559988382E+03  0.40000000000E+03 0.  1.
<mgrwt>
<rscale>  2 0.49491703E+03</rscale>
<asrwt>0</asrwt>
<pdfrwt beam="1">  1       21 0.81640457E-01 0.49491703E+03</pdfrwt>
<pdfrwt beam="2">  1       21 0.87010631E-01 0.49491703E+03</pdfrwt>
<totfact> 0.12539122E+03</totfact>
</mgrwt>
</event>
<event>
 4    1  0.4760244E-002  0.5495418E+03  0.7818608E-02  0.1001600E+00
         21   -1    0    0  503  502  0.00000000000E+00  0.00000000000E+00  0.44664632331E+03  0.44664632331E+03  0.00000000000E+00 0.  1.
         21   -1    0    0  501  503 -0.00000000000E+00 -0.00000000000E+00 -0.94625971481E+03  0.94625971481E+03  0.00000000000E+00 0.  1.
    9000007    1    1    2  501    0 -0.54554380384E+02 -0.37285391363E+03 -0.62190988627E+03  0.82992055521E+03  0.40000000000E+03 0.  1.
   -9000007    1    1    2    0  502  0.54554380384E+02  0.37285391363E+03  0.12229649477E+03  0.56298548291E+03  0.40000000000E+03 0.  1.
<mgrwt>
<rscale>  2 0.54954183E+03</rscale>
<asrwt>0</asrwt>
<pdfrwt beam="1">  1       21 0.68714820E-01 0.54954183E+03</pdfrwt>
<pdfrwt beam="2">  1       21 0.14557841E+00 0.54954183E+03</pdfrwt>
<totfact> 0.49959682E+02</totfact>
</mgrwt>
</event>
<event>
 4    1  0.4760244E-002  0.6195150E+03  0.7818608E-02  0.9865726E-01
         21   -1    0    0  503  502  0.00000000000E+00  0.00000000000E+00  0.10103571682E+04  0.10103571682E+04  0.00000000000E+00 0. -1.
         21   -1    0    0  501  503 -0.00000000000E+00 -0.00000000000E+00 -0.44081595505E+03  0.44081595505E+03  0.00000000000E+00 0.  1.
    9000007    1    1    2  501    0  0.37024635552E+03 -0.29447659617E+03  0.14963996490E+02  0.61969569198E+03  0.40000000000E+03 0.  1.
   -9000007    1    1    2    0  502 -0.37024635552E+03  0.29447659617E+03  0.55457721662E+03  0.83147743124E+03  0.40000000000E+03 0. -1.
<mgrwt>
<rscale>  2 0.61951500E+03</rscale>
<asrwt>0</asrwt>
<pdfrwt beam="1">  1       21 0.15543956E+00 0.61951500E+03</pdfrwt>
<pdfrwt beam="2">  1       21 0.67817839E-01 0.61951500E+03</pdfrwt>
<totfact> 0.41948432E+02</totfact>
</mgrwt>
</event>
<event>
 4    1  0.4760244E-002  0.4112303E+03  0.7818608E-02  0.1039959E+00
         21   -1    0    0  503  502  0.00000000000E+00  0.00000000000E+00  0.29208975969E+03  0.29208975969E+03  0.00000000000E+00 0.  1.
         21   -1    0    0  501  503 -0.00000000000E+00 -0.00000000000E+00 -0.61408024994E+03  0.61408024994E+03  0.00000000000E+00 0.  1.
    9000007    1    1    2  501    0  0.91809911404E+02  0.26101186150E+02 -0.26933869025E+03  0.49158281277E+03  0.40000000000E+03 0.  1.
   -9000007    1    1    2    0  502 -0.91809911404E+02 -0.26101186150E+02 -0.52651800005E+02  0.41458719685E+03  0.40000000000E+03 0.  1.
<mgrwt>
<rscale>  2 0.41123027E+03</rscale>
<asrwt>0</asrwt>
<pdfrwt beam="1">  1       21 0.44936887E-01 0.41123027E+03</pdfrwt>
<pdfrwt beam="2">  1       21 0.94473883E-01 0.41123027E+03</pdfrwt>
<totfact> 0.39544252E+03</totfact>
</mgrwt>
</event>
<event>
 4    1  0.4760244E-002  0.4418710E+03  0.7818608E-02  0.1030174E+00
         21   -1    0    0  503  502  0.00000000000E+00  0.00000000000E+00  0.67320122690E+03  0.67320122690E+03  0.00000000000E+00 0.  1.
         21   -1    0    0  501  503 -0.00000000000E+00 -0.00000000000E+00 -0.50252158293E+03  0.50252158293E+03  0.00000000000E+00 0.  1.
    9000007    1    1    2  501    0 -0.17563529350E+03 -0.66349509071E+02 -0.29692667386E+03  0.53236778953E+03  0.40000000000E+03 0.  1.
   -9000007    1    1    2    0  502  0.17563529350E+03  0.66349509071E+02  0.46760631783E+03  0.64335502030E+03  0.40000000000E+03 0.  1.
<mgrwt>
<rscale>  2 0.44187104E+03</rscale>
<asrwt>0</asrwt>
<pdfrwt beam="1">  1       21 0.10356942E+00 0.44187104E+03</pdfrwt>
<pdfrwt beam="2">  1       21 0.77311013E-01 0.44187104E+03</pdfrwt>
<totfact> 0.95557469E+02</totfact>
</mgrwt>
</event>
<event>
 4    1  0.4760244E-002  0.7051091E+03  0.7818608E-02  0.9708535E-01
         21   -1    0    0  501  502  0.00000000000E+00  0.00000000000E+00  0.67625067591E+03  0.67625067591E+03  0.00000000000E+00 0. -1.
         21   -1    0    0  502  503 -0.00000000000E+00 -0.00000000000E+00 -0.84459417410E+03  0.84459417410E+03  0.00000000000E+00 0.  1.
    9000007    1    1    2  501    0 -0.23652986126E+03 -0.53031361102E+03 -0.35784334223E+03  0.79071534630E+03  0.40000000000E+03 0.  1.
   -9000007    1    1    2    0  503  0.23652986126E+03  0.53031361102E+03  0.18949984404E+03  0.73012950371E+03  0.40000000000E+03 0. -1.
<mgrwt>
<rscale>  2 0.70510914E+03</rscale>
<asrwt>0</asrwt>
<pdfrwt beam="1">  1       21 0.10403857E+00 0.70510914E+03</pdfrwt>
<pdfrwt beam="2">  1       21 0.12993756E+00 0.70510914E+03</pdfrwt>
<totfact> 0.24134220E+02</totfact>
</mgrwt>
</event>
<event>
 4    1  0.4760244E-002  0.4292123E+03  0.7818608E-02  0.1034109E+00
         21   -1    0    0  503  502  0.00000000000E+00  0.00000000000E+00  0.26390340578E+03  0.26390340578E+03  0.00000000000E+00 0. -1.
         21   -1    0    0  501  503 -0.00000000000E+00 -0.00000000000E+00 -0.83394588940E+03  0.83394588940E+03  0.00000000000E+00 0. -1.
    9000007    1    1    2  501    0 -0.15376580909E+03  0.24068501059E+02 -0.50659278800E+03  0.66397249163E+03  0.40000000000E+03 0. -1.
   -9000007    1    1    2    0  502  0.15376580909E+03 -0.24068501059E+02 -0.63449695615E+02  0.43387680355E+03  0.40000000000E+03 0. -1.
<mgrwt>
<rscale>  2 0.42921232E+03</rscale>
<asrwt>0</asrwt>
<pdfrwt beam="1">  1       21 0.40600524E-01 0.42921232E+03</pdfrwt>
<pdfrwt beam="2">  1       21 0.12829937E+00 0.42921232E+03</pdfrwt>
<totfact> 0.22681962E+03</totfact>
</mgrwt>
</event>
<event>
 4    1  0.4760244E-002  0.4636215E+03  0.7818608E-02  0.1023736E+00
         21   -1    0    0  503  502  0.00000000000E+00  0.00000000000E+00  0.94764746225E+03  0.94764746225E+03  0.00000000000E+00 0. -1.
         21   -1    0    0  501  503 -0.00000000000E+00 -0.00000000000E+00 -0.36479543374E+03  0.36479543374E+03  0.00000000000E+00 0. -1.
    9000007    1    1    2  501    0  0.81432407907E+02 -0.21980377367E+03 -0.11215188404E+03  0.47699369081E+03  0.40000000000E+03 0. -1.
   -9000007    1    1    2    0  502 -0.81432407907E+02  0.21980377367E+03  0.69500391255E+03  0.83544920518E+03  0.40000000000E+03 0. -1.
<mgrwt>
<rscale>  2 0.46362154E+03</rscale>
<asrwt>0</asrwt>
<pdfrwt beam="1">  1       21 0.14579192E+00 0.46362154E+03</pdfrwt>
<pdfrwt beam="2">  1       21 0.56122375E-01 0.46362154E+03</pdfrwt>
<totfact> 0.80544577E+02</totfact>
</mgrwt>
</event>
<event>
 4    1  0.4760244E-002  0.4534105E+03  0.7818608E-02  0.1026710E+00
         21   -1    0    0  503  502  0.00000000000E+00  0.00000000000E+00  0.87407789399E+03  0.87407789399E+03  0.00000000000E+00 0. -1.
         21   -1    0    0  501  503 -0.00000000000E+00 -0.00000000000E+00 -0.25610390678E+03  0.25610390678E+03  0.00000000000E+00 0.  1.
    9000007    1    1    2  501    0  0.21304103764E+03  0.13948446233E+02  0.14753305865E+03  0.47680923467E+03  0.40000000000E+03 0.  1.
   -9000007    1    1    2    0  502 -0.21304103764E+03 -0.13948446233E+02  0.47044092856E+03  0.65337256610E+03  0.40000000000E+03 0. -1.
<mgrwt>
<rscale>  2 0.45341046E+03</rscale>
<asrwt>0</asrwt>
<pdfrwt beam="1">  1       21 0.13447352E+00 0.45341046E+03</pdfrwt>
<pdfrwt beam="2">  1       21 0.39400601E-01 0.45341046E+03</pdfrwt>
<totfact> 0.21152418E+03</totfact>
</mgrwt>
</event>
<event>
 4    1  0.4760244E-002  0.4722514E+03  0.7818608E-02  0.1021287E+00
         21   -1    0    0  503  502  0.00000000000E+00  0.00000000000E+00  0.63346252546E+03  0.63346252546E+03  0.00000000000E+00 0. -1.
         21   -1    0    0  501  503 -0.00000000000E+00 -0.00000000000E+00 -0.40890054444E+03  0.40890054444E+03  0.00000000000E+00 0. -1.
    9000007    1    1    2  501    0 -0.22145549696E+03 -0.11823236486E+03 -0.82022888952E+02  0.47932158677E+03  0.40000000000E+03 0. -1.
   -9000007    1    1    2    0  502  0.22145549696E+03  0.11823236486E+03  0.30658486997E+03  0.56304148313E+03  0.40000000000E+03 0. -1.
<mgrwt>
<rscale>  2 0.47225145E+03</rscale>
<asrwt>0</asrwt>
<pdfrwt beam="1">  1       21 0.97455774E-01 0.47225145E+03</pdfrwt>
<pdfrwt beam="2">  1       21 0.62907776E-01 0.47225145E+03</pdfrwt>
<totfact> 0.17418695E+03</totfact>
</mgrwt>
</event>
<event>
 4    1  0.4760244E-002  0.4072799E+03  0.7818608E-02  0.1041288E+00
         21   -1    0    0  501  502  0.00000000000E+00  0.00000000000E+00  0.38612108647E+03  0.38612108647E+03  0.00000000000E+00 0. -1.
         21   -1    0    0  502  503 -0.00000000000E+00 -0.00000000000E+00 -0.10911675995E+04  0.10911675995E+04  0.00000000000E+00 0. -1.
    9000007    1    1    2  501    0 -0.41192048296E+02 -0.64654206829E+02  0.22262171381E+03  0.46415232280E+03  0.40000000000E+03 0. -1.
   -9000007    1    1    2    0  503  0.41192048296E+02  0.64654206829E+02 -0.92766822682E+03  0.10131363632E+04  0.40000000000E+03 0. -1.
<mgrwt>
<rscale>  2 0.40727994E+03</rscale>
<asrwt>0</asrwt>
<pdfrwt beam="1">  1       21 0.59403244E-01 0.40727994E+03</pdfrwt>
<pdfrwt beam="2">  1       21 0.16787194E+00 0.40727994E+03</pdfrwt>
<totfact> 0.49544963E+02</totfact>
</mgrwt>
</event>
<event>
 4    1  0.4760244E-002  0.5206745E+03  0.7818608E-02  0.1008519E+00
         21   -1    0    0  501  502  0.00000000000E+00  0.00000000000E+00  0.96473794886E+03  0.96473794886E+03  0.00000000000E+00 0. -1.
         21   -1    0    0  502  503 -0.00000000000E+00 -0.00000000000E+00 -0.28380610595E+03  0.28380610595E+03  0.00000000000E+00 0.  1.
    9000007    1    1    2  501    0 -0.27018606357E+03 -0.19519576423E+03  0.40241981734E+03  0.65806048712E+03  0.40000000000E+03 0. -1.
   -9000007    1    1    2    0  503  0.27018606357E+03  0.19519576423E+03  0.27851202557E+03  0.59048356769E+03  0.40000000000E+03 0.  1.
<mgrwt>
<rscale>  2 0.52067446E+03</rscale>
<asrwt>0</asrwt>
<pdfrwt beam="1">  1       21 0.14842122E+00 0.52067446E+03</pdfrwt>
<pdfrwt beam="2">  1       21 0.43662478E-01 0.52067446E+03</pdfrwt>
<totfact> 0.12807753E+03</totfact>
</mgrwt>
</event>
<event>
 4    1  0.4760244E-002  0.4761683E+03  0.7818608E-02  0.1020194E+00
         21   -1    0    0  503  502  0.00000000000E+00  0.00000000000E+00  0.47628349403E+03  0.47628349403E+03  0.00000000000E+00 0. -1.
         21   -1    0    0  501  503 -0.00000000000E+00 -0.00000000000E+00 -0.52428455943E+03  0.52428455943E+03  0.00000000000E+00 0.  1.
    9000007    1    1    2  501    0 -0.23404518107E+03 -0.10935785090E+03 -0.17573973903E+03  0.50756353515E+03  0.40000000000E+03 0.  1.
   -9000007    1    1    2    0  502  0.23404518107E+03  0.10935785090E+03  0.12773867362E+03  0.49300451831E+03  0.40000000000E+03 0. -1.
<mgrwt>
<rscale>  2 0.47616834E+03</rscale>
<asrwt>0</asrwt>
<pdfrwt beam="1">  1       21 0.73274383E-01 0.47616834E+03</pdfrwt>
<pdfrwt beam="2">  1       21 0.80659163E-01 0.47616834E+03</pdfrwt>
<totfact> 0.19323877E+03</totfact>
</mgrwt>
</event>
<event>
 4    1  0.4760244E-002  0.4224897E+03  0.7818608E-02  0.1036259E+00
         21   -1    0    0  501  502  0.00000000000E+00  0.00000000000E+00  0.41773256508E+03  0.41773256508E+03  0.00000000000E+00 0.  1.
         21   -1    0    0  502  503 -0.00000000000E+00 -0.00000000000E+00 -0.58817672297E+03  0.58817672297E+03  0.00000000000E+00 0.  1.
    9000007    1    1    2  501    0 -0.70605849913E+02 -0.11624250121E+03  0.17781700499E+03  0.45838454642E+03  0.40000000000E+03 0.  1.
   -9000007    1    1    2    0  503  0.70605849913E+02  0.11624250121E+03 -0.34826116288E+03  0.54752474163E+03  0.40000000000E+03 0.  1.
<mgrwt>
<rscale>  2 0.42248965E+03</rscale>
<asrwt>0</asrwt>
<pdfrwt beam="1">  1       21 0.64266549E-01 0.42248965E+03</pdfrwt>
<pdfrwt beam="2">  1       21 0.90488726E-01 0.42248965E+03</pdfrwt>
<totfact> 0.20217949E+03</totfact>
</mgrwt>
</event>
<event>
 4    1  0.4760244E-002  0.6000536E+03  0.7818608E-02  0.9905295E-01
         21   -1    0    0  501  502  0.00000000000E+00  0.00000000000E+00  0.41621919749E+03  0.41621919749E+03  0.00000000000E+00 0.  1.
         21   -1    0    0  502  503 -0.00000000000E+00 -0.00000000000E+00 -0.12261279254E+04  0.12261279254E+04  0.00000000000E+00 0. -1.
    9000007    1    1    2  501    0  0.14154388854E+03 -0.42429907321E+03 -0.85055660423E+03  0.10409183027E+04  0.40000000000E+03 0. -1.
   -9000007    1    1    2    0  503 -0.14154388854E+03  0.42429907321E+03  0.40647876305E+02  0.60142882019E+03  0.40000000000E+03 0.  1.
<mgrwt>
<rscale>  2 0.60005364E+03</rscale>
<asrwt>0</asrwt>
<pdfrwt beam="1">  1       21 0.64033723E-01 0.60005364E+03</pdfrwt>
<pdfrwt beam="2">  1       21 0.18863507E+00 0.60005364E+03</pdfrwt>
<totfact> 0.27432015E+02</totfact>
</mgrwt>
</event>
<event>
 4    1  0.4760244E-002  0.5037774E+03  0.7818608E-02  0.1012798E+00
         21   -1    0    0  501  502  0.00000000000E+00  0.00000000000E+00  0.67504372040E+03  0.67504372040E+03  0.00000000000E+00 0. -1.
         21   -1    0    0  502  503 -0.00000000000E+00 -0.00000000000E+00 -0.40206289282E+03  0.40206289282E+03  0.00000000000E+00 0.  1.
    9000007    1    1    2  501    0 -0.17163504614E+02 -0.30577298837E+03 -0.72346906675E+00  0.50377795676E+03  0.40000000000E+03 0.  1.
   -9000007    1    1    2    0  503  0.17163504614E+02  0.30577298837E+03  0.27370429665E+03  0.57332865646E+03  0.40000000000E+03 0.  1.
<mgrwt>
<rscale>  2 0.50377744E+03</rscale>
<asrwt>0</asrwt>
<pdfrwt beam="1">  1       21 0.10385288E+00 0.50377744E+03</pdfrwt>
<pdfrwt beam="2">  1       21 0.61855830E-01 0.50377744E+03</pdfrwt>
<totfact> 0.15308782E+03</totfact>
</mgrwt>
</event>
<event>
 4    1  0.4760244E-002  0.4019447E+03  0.7818608E-02  0.1043108E+00
         21   -1    0    0  501  502  0.00000000000E+00  0.00000000000E+00  0.49651531207E+03  0.49651531207E+03  0.00000000000E+00 0. -1.
         21   -1    0    0  502  503 -0.00000000000E+00 -0.00000000000E+00 -0.39221230114E+03  0.39221230114E+03  0.00000000000E+00 0. -1.
    9000007    1    1    2  501    0 -0.35938006433E+02  0.16371028294E+02  0.23557249801E+03  0.46589049432E+03  0.40000000000E+03 0. -1.
   -9000007    1    1    2    0  503  0.35938006433E+02 -0.16371028294E+02 -0.13126948709E+03  0.42283711889E+03  0.40000000000E+03 0. -1.
<mgrwt>
<rscale>  2 0.40194471E+03</rscale>
<asrwt>0</asrwt>
<pdfrwt beam="1">  1       21 0.76386971E-01 0.40194471E+03</pdfrwt>
<pdfrwt beam="2">  1       21 0.60340354E-01 0.40194471E+03</pdfrwt>
<totfact> 0.34717336E+03</totfact>
</mgrwt>
</event>
<event>
 4    1  0.4760244E-002  0.4424980E+03  0.7818608E-02  0.1029983E+00
         21   -1    0    0  503  502  0.00000000000E+00  0.00000000000E+00  0.14644268640E+04  0.14644268640E+04  0.00000000000E+00 0. -1.
         21   -1    0    0  501  503 -0.00000000000E+00 -0.00000000000E+00 -0.15478703044E+03  0.15478703044E+03  0.00000000000E+00 0. -1.
    9000007    1    1    2  501    0 -0.18532165863E+03 -0.38214124865E+02  0.35604760225E+03  0.56795627611E+03  0.40000000000E+03 0. -1.
   -9000007    1    1    2    0  502  0.18532165863E+03  0.38214124865E+02  0.95359223130E+03  0.10512576183E+04  0.40000000000E+03 0. -1.
<mgrwt>
<rscale>  2 0.44249795E+03</rscale>
<asrwt>0</asrwt>
<pdfrwt beam="1">  1       21 0.22529643E+00 0.44249795E+03</pdfrwt>
<pdfrwt beam="2">  1       21 0.23813390E-01 0.44249795E+03</pdfrwt>
<totfact> 0.12957042E+03</totfact>
</mgrwt>
</event>
<event>
 4    1  0.4760244E-002  0.4389534E+03  0.7818608E-02  0.1031068E+00
         21   -1    0    0  503  502  0.00000000000E+00  0.00000000000E+00  0.14439371903E+04  0.14439371903E+04  0.00000000000E+00 0.  1.
         21   -1    0    0  501  503 -0.00000000000E+00 -0.00000000000E+00 -0.18866197258E+03  0.18866197258E+03  0.00000000000E+00 0.  1.
    9000007    1    1    2  501    0  0.15732686985E+03 -0.89041110423E+02  0.18600575295E+03  0.47673703805E+03  0.40000000000E+03 0.  1.
   -9000007    1    1    2    0  502 -0.15732686985E+03  0.89041110423E+02  0.10692694648E+04  0.11558621248E+04  0.40000000000E+03 0.  1.
<mgrwt>
<rscale>  2 0.43895337E+03</rscale>
<asrwt>0</asrwt>
<pdfrwt beam="1">  1       21 0.22214418E+00 0.43895337E+03</pdfrwt>
<pdfrwt beam="2">  1       21 0.29024920E-01 0.43895337E+03</pdfrwt>
<totfact> 0.92282328E+02</totfact>
</mgrwt>
</event>
<event>
 4    1  0.4760244E-002  0.7326575E+03  0.7818608E-02  0.9662958E-01
         21   -1    0    0  501  502  0.00000000000E+00  0.00000000000E+00  0.23394491859E+03  0.23394491859E+03  0.00000000000E+00 0. -1.
         21   -1    0    0  502  503 -0.00000000000E+00 -0.00000000000E+00 -0.28398227397E+04  0.28398227397E+04  0.00000000000E+00 0.  1.
    9000007    1    1    2  501    0  0.60239018842E+03  0.11795369657E+03 -0.62946379815E+03  0.96592530085E+03  0.40000000000E+03 0. -1.
   -9000007    1    1    2    0  503 -0.60239018842E+03 -0.11795369657E+03 -0.19764140230E+04  0.21078423575E+04  0.40000000000E+03 0.  1.
<mgrwt>
<rscale>  2 0.73265750E+03</rscale>
<asrwt>0</asrwt>
<pdfrwt beam="1">  1       21 0.35991525E-01 0.73265750E+03</pdfrwt>
<pdfrwt beam="2">  1       21 0.43689582E+00 0.73265750E+03</pdfrwt>
<totfact> 0.23440891E+01</totfact>
</mgrwt>
</event>
<event>
 4    1  0.4760244E-002  0.6213594E+03  0.7818608E-02  0.9862057E-01
         21   -1    0    0  501  502  0.00000000000E+00  0.00000000000E+00  0.30617779827E+03  0.30617779827E+03  0.00000000000E+00 0. -1.
         21   -1    0    0  502  503 -0.00000000000E+00 -0.00000000000E+00 -0.15438571326E+04  0.15438571326E+04  0.00000000000E+00 0.  1.
    9000007    1    1    2  501    0  0.41140470564E+03 -0.23839821884E+03 -0.10147862669E+04  0.11899070174E+04  0.40000000000E+03 0.  1.
   -9000007    1    1    2    0  503 -0.41140470564E+03  0.23839821884E+03 -0.22289306734E+03  0.66012791339E+03  0.40000000000E+03 0. -1.
<mgrwt>
<rscale>  2 0.62135943E+03</rscale>
<asrwt>0</asrwt>
<pdfrwt beam="1">  1       21 0.47104276E-01 0.62135943E+03</pdfrwt>
<pdfrwt beam="2">  1       21 0.23751648E+00 0.62135943E+03</pdfrwt>
<totfact> 0.25280097E+02</totfact>
</mgrwt>
</event>
<event>
 4    1  0.4760244E-002  0.4062839E+03  0.7818608E-02  0.1041625E+00
         21   -1    0    0  501  502  0.00000000000E+00  0.00000000000E+00  0.29278947728E+04  0.29278947728E+04  0.00000000000E+00 0. -1.
         21   -1    0    0  502  503 -0.00000000000E+00 -0.00000000000E+00 -0.69554236484E+02  0.69554236484E+02  0.00000000000E+00 0. -1.
    9000007    1    1    2  501    0 -0.69567234761E+02  0.15068029784E+02  0.20815014227E+04  0.21207816527E+04  0.40000000000E+03 0.  1.
   -9000007    1    1    2    0  503  0.69567234761E+02 -0.15068029784E+02  0.77683911360E+03  0.87666735658E+03  0.40000000000E+03 0.  1.
<mgrwt>
<rscale>  2 0.40628395E+03</rscale>
<asrwt>0</asrwt>
<pdfrwt beam="1">  1       21 0.45044525E+00 0.40628395E+03</pdfrwt>
<pdfrwt beam="2">  1       21 0.10700654E-01 0.40628395E+03</pdfrwt>
<totfact> 0.23329079E+02</totfact>
</mgrwt>
</event>
<event>
 4    1  0.4760244E-002  0.5069206E+03  0.7818608E-02  0.1011988E+00
         21   -1    0    0  503  502  0.00000000000E+00  0.00000000000E+00  0.43907776882E+03  0.43907776882E+03  0.00000000000E+00 0. -1.
         21   -1    0    0  501  503 -0.00000000000E+00 -0.00000000000E+00 -0.71010574203E+03  0.71010574203E+03  0.00000000000E+00 0. -1.
    9000007    1    1    2  501    0  0.50140702284E+01  0.31135720093E+03 -0.37645422402E+03  0.63141605163E+03  0.40000000000E+03 0. -1.
   -9000007    1    1    2    0  502 -0.50140702284E+01 -0.31135720093E+03  0.10542625081E+03  0.51776745922E+03  0.40000000000E+03 0. -1.
<mgrwt>
<rscale>  2 0.50692055E+03</rscale>
<asrwt>0</asrwt>
<pdfrwt beam="1">  1       21 0.67550427E-01 0.50692055E+03</pdfrwt>
<pdfrwt beam="2">  1       21 0.10924704E+00 0.50692055E+03</pdfrwt>
<totfact> 0.11088926E+03</totfact>
</mgrwt>
</event>
<event>
 4    1  0.4760244E-002  0.4321785E+03  0.7818608E-02  0.1033174E+00
         21   -1    0    0  501  502  0.00000000000E+00  0.00000000000E+00  0.26110357387E+03  0.26110357387E+03  0.00000000000E+00 0.  1.
         21   -1    0    0  502  503 -0.00000000000E+00 -0.00000000000E+00 -0.74533098567E+03  0.74533098567E+03  0.00000000000E+00 0.  1.
    9000007    1    1    2  501    0 -0.19556168090E+02  0.16246784982E+03 -0.14117335557E+03  0.45465169334E+03  0.40000000000E+03 0.  1.
   -9000007    1    1    2    0  503  0.19556168090E+02 -0.16246784982E+03 -0.34305405623E+03  0.55178286620E+03  0.40000000000E+03 0.  1.
<mgrwt>
<rscale>  2 0.43217849E+03</rscale>
<asrwt>0</asrwt>
<pdfrwt beam="1">  1       21 0.40169781E-01 0.43217849E+03</pdfrwt>
<pdfrwt beam="2">  1       21 0.11466630E+00 0.43217849E+03</pdfrwt>
<totfact> 0.30821781E+03</totfact>
</mgrwt>
</event>
<event>
 4    1  0.4760244E-002  0.4044544E+03  0.7818608E-02  0.1042248E+00
         21   -1    0    0  501  502  0.00000000000E+00  0.00000000000E+00  0.12122839259E+03  0.12122839259E+03  0.00000000000E+00 0.  1.
         21   -1    0    0  502  503 -0.00000000000E+00 -0.00000000000E+00 -0.22348055384E+04  0.22348055384E+04  0.00000000000E+00 0.  1.
    9000007    1    1    2  501    0 -0.26671597377E+02 -0.53591218640E+02 -0.31529525156E+03  0.51282988259E+03  0.40000000000E+03 0.  1.
   -9000007    1    1    2    0  503  0.26671597377E+02  0.53591218640E+02 -0.17982818942E+04  0.18432040484E+04  0.40000000000E+03 0.  1.
<mgrwt>
<rscale>  2 0.40445444E+03</rscale>
<asrwt>0</asrwt>
<pdfrwt beam="1">  1       21 0.18650521E-01 0.40445444E+03</pdfrwt>
<pdfrwt beam="2">  1       21 0.34381624E+00 0.40445444E+03</pdfrwt>
<totfact> 0.40295483E+02</totfact>
</mgrwt>
</event>
<event>
 4    1  0.4760244E-002  0.4246212E+03  0.7818608E-02  0.1035573E+00
         21   -1    0    0  503  502  0.00000000000E+00  0.00000000000E+00  0.13935113982E+04  0.13935113982E+04  0.00000000000E+00 0. -1.
         21   -1    0    0  501  503 -0.00000000000E+00 -0.00000000000E+00 -0.13100780004E+03  0.13100780004E+03  0.00000000000E+00 0.  1.
    9000007    1    1    2  501    0 -0.13484833511E+03  0.46033193623E+02  0.54648310948E+03  0.69205990878E+03  0.40000000000E+03 0. -1.
   -9000007    1    1    2    0  502  0.13484833511E+03 -0.46033193623E+02  0.71602048864E+03  0.83245928943E+03  0.40000000000E+03 0.  1.
<mgrwt>
<rscale>  2 0.42462116E+03</rscale>
<asrwt>0</asrwt>
<pdfrwt beam="1">  1       21 0.21438636E+00 0.42462116E+03</pdfrwt>
<pdfrwt beam="2">  1       21 0.20155047E-01 0.42462116E+03</pdfrwt>
<totfact> 0.21125556E+03</totfact>
</mgrwt>
</event>
<event>
 4    1  0.4760244E-002  0.4355471E+03  0.7818608E-02  0.1032122E+00
         21   -1    0    0  501  502  0.00000000000E+00  0.00000000000E+00  0.75088310944E+03  0.75088310944E+03  0.00000000000E+00 0.  1.
         21   -1    0    0  502  503 -0.00000000000E+00 -0.00000000000E+00 -0.26546628916E+03  0.26546628916E+03  0.00000000000E+00 0.  1.
    9000007    1    1    2  501    0  0.13528052423E+03  0.10677297416E+03  0.35442043025E+03  0.56152927762E+03  0.40000000000E+03 0.  1.
   -9000007    1    1    2    0  503 -0.13528052423E+03 -0.10677297416E+03  0.13099639003E+03  0.45482012098E+03  0.40000000000E+03 0.  1.
<mgrwt>
<rscale>  2 0.43554711E+03</rscale>
<asrwt>0</asrwt>
<pdfrwt beam="1">  1       21 0.11552048E+00 0.43554711E+03</pdfrwt>
<pdfrwt beam="2">  1       21 0.40840968E-01 0.43554711E+03</pdfrwt>
<totfact> 0.29201890E+03</totfact>
</mgrwt>
</event>
<event>
 4    1  0.4760244E-002  0.4975059E+03  0.7818608E-02  0.1014432E+00
         21   -1    0    0  501  502  0.00000000000E+00  0.00000000000E+00  0.68089926659E+03  0.68089926659E+03  0.00000000000E+00 0. -1.
         21   -1    0    0  502  503 -0.00000000000E+00 -0.00000000000E+00 -0.48410151362E+03  0.48410151362E+03  0.00000000000E+00 0. -1.
    9000007    1    1    2  501    0 -0.22320551721E+03  0.19414264967E+03  0.38912942013E+03  0.63161204623E+03  0.40000000000E+03 0. -1.
   -9000007    1    1    2    0  503  0.22320551721E+03 -0.19414264967E+03 -0.19233166717E+03  0.53338873397E+03  0.40000000000E+03 0. -1.
<mgrwt>
<rscale>  2 0.49750585E+03</rscale>
<asrwt>0</asrwt>
<pdfrwt beam="1">  1       21 0.10475373E+00 0.49750585E+03</pdfrwt>
<pdfrwt beam="2">  1       21 0.74477156E-01 0.49750585E+03</pdfrwt>
<totfact> 0.98989984E+02</totfact>
</mgrwt>
</event>
<event>
 4    1  0.4760244E-002  0.4744293E+03  0.7818608E-02  0.1020677E+00
         21   -1    0    0  503  502  0.00000000000E+00  0.00000000000E+00  0.37619278584E+03  0.37619278584E+03  0.00000000000E+00 0. -1.
         21   -1    0    0  501  503 -0.00000000000E+00 -0.00000000000E+00 -0.62006599987E+03  0.62006599987E+03  0.00000000000E+00 0. -1.
    9000007    1    1    2  501    0  0.11313532543E+02 -0.25486294374E+03 -0.21522498432E+03  0.52096536352E+03  0.40000000000E+03 0. -1.
   -9000007    1    1    2    0  502 -0.11313532543E+02  0.25486294374E+03 -0.28648229715E+02  0.47529342219E+03  0.40000000000E+03 0. -1.
<mgrwt>
<rscale>  2 0.47442925E+03</rscale>
<asrwt>0</asrwt>
<pdfrwt beam="1">  1       21 0.57875814E-01 0.47442925E+03</pdfrwt>
<pdfrwt beam="2">  1       21 0.95394768E-01 0.47442925E+03</pdfrwt>
<totfact> 0.22006923E+03</totfact>
</mgrwt>
</event>
<event>
 4    1  0.4760244E-002  0.4049250E+03  0.7818608E-02  0.1042088E+00
         21   -1    0    0  503  502  0.00000000000E+00  0.00000000000E+00  0.20744853996E+03  0.20744853996E+03  0.00000000000E+00 0. -1.
         21   -1    0    0  501  503 -0.00000000000E+00 -0.00000000000E+00 -0.10372066250E+04  0.10372066250E+04  0.00000000000E+00 0. -1.
    9000007    1    1    2  501    0 -0.52635717980E+02 -0.34550267707E+02 -0.71846236118E+03  0.82471352859E+03  0.40000000000E+03 0. -1.
   -9000007    1    1    2    0  502  0.52635717980E+02  0.34550267707E+02 -0.11129572385E+03  0.41994163637E+03  0.40000000000E+03 0. -1.
<mgrwt>
<rscale>  2 0.40492498E+03</rscale>
<asrwt>0</asrwt>
<pdfrwt beam="1">  1       21 0.31915159E-01 0.40492498E+03</pdfrwt>
<pdfrwt beam="2">  1       21 0.15957025E+00 0.40492498E+03</pdfrwt>
<totfact> 0.20852223E+03</totfact>
</mgrwt>
</event>
<event>
 4    1  0.4760244E-002  0.6195604E+03  0.7818608E-02  0.9865635E-01
         21   -1    0    0  501  502  0.00000000000E+00  0.00000000000E+00  0.11435988818E+04  0.11435988818E+04  0.00000000000E+00 0.  1.
         21   -1    0    0  502  503 -0.00000000000E+00 -0.00000000000E+00 -0.38902358421E+03  0.38902358421E+03  0.00000000000E+00 0.  1.
    9000007    1    1    2  501    0 -0.47260776982E+03 -0.22292275367E+02  0.66111795232E+03  0.90605297666E+03  0.40000000000E+03 0.  1.
   -9000007    1    1    2    0  503  0.47260776982E+03  0.22292275367E+02  0.93457345317E+02  0.62656948939E+03  0.40000000000E+03 0.  1.
<mgrwt>
<rscale>  2 0.61956037E+03</rscale>
<asrwt>0</asrwt>
<pdfrwt beam="1">  1       21 0.17593829E+00 0.61956037E+03</pdfrwt>
<pdfrwt beam="2">  1       21 0.59849783E-01 0.61956037E+03</pdfrwt>
<totfact> 0.38930102E+02</totfact>
</mgrwt>
</event>
<event>
 4    1  0.4760244E-002  0.4775106E+03  0.7818608E-02  0.1019822E+00
         21   -1    0    0  503  502  0.00000000000E+00  0.00000000000E+00  0.65587340409E+03  0.65587340409E+03  0.00000000000E+00 0. -1.
         21   -1    0    0  501  503 -0.00000000000E+00 -0.00000000000E+00 -0.58194031684E+03  0.58194031684E+03  0.00000000000E+00 0. -1.
    9000007    1    1    2  501    0 -0.21248001258E+03  0.15122386595E+03 -0.35573298751E+03  0.59545140169E+03  0.40000000000E+03 0. -1.
   -9000007    1    1    2    0  502  0.21248001258E+03 -0.15122386595E+03  0.42966607475E+03  0.64236231923E+03  0.40000000000E+03 0. -1.
<mgrwt>
<rscale>  2 0.47751064E+03</rscale>
<asrwt>0</asrwt>
<pdfrwt beam="1">  1       21 0.10090360E+00 0.47751064E+03</pdfrwt>
<pdfrwt beam="2">  1       21 0.89529279E-01 0.47751064E+03</pdfrwt>
<totfact> 0.71292981E+02</totfact>
</mgrwt>
</event>
<event>
 4    1  0.4760244E-002  0.4283950E+03  0.7818608E-02  0.1034368E+00
         21   -1    0    0  501  502  0.00000000000E+00  0.00000000000E+00  0.21542588169E+03  0.21542588169E+03  0.00000000000E+00 0.  1.
         21   -1    0    0  502  503 -0.00000000000E+00 -0.00000000000E+00 -0.85193114710E+03  0.85193114710E+03  0.00000000000E+00 0.  1.
    9000007    1    1    2  501    0  0.14603442996E+03  0.46863888182E+02 -0.31526810791E+03  0.53189872966E+03  0.40000000000E+03 0.  1.
   -9000007    1    1    2    0  503 -0.14603442996E+03 -0.46863888182E+02 -0.32123715749E+03  0.53545829913E+03  0.40000000000E+03 0.  1.
<mgrwt>
<rscale>  2 0.42839500E+03</rscale>
<asrwt>0</asrwt>
<pdfrwt beam="1">  1       21 0.33142444E-01 0.42839500E+03</pdfrwt>
<pdfrwt beam="2">  1       21 0.13106633E+00 0.42839500E+03</pdfrwt>
<totfact> 0.32443978E+03</totfact>
</mgrwt>
</event>
<event>
 4    1  0.4760244E-002  0.4880232E+03  0.7818608E-02  0.1016953E+00
         21   -1    0    0  501  502  0.00000000000E+00  0.00000000000E+00  0.15057385068E+04  0.15057385068E+04  0.00000000000E+00 0.  1.
         21   -1    0    0  502  503 -0.00000000000E+00 -0.00000000000E+00 -0.15818160250E+03  0.15818160250E+03  0.00000000000E+00 0. -1.
    9000007    1    1    2  501    0  0.21232087430E+03 -0.18189687288E+03  0.66751404764E+03  0.82688670918E+03  0.40000000000E+03 0.  1.
   -9000007    1    1    2    0  503 -0.21232087430E+03  0.18189687288E+03  0.68004285670E+03  0.83703340016E+03  0.40000000000E+03 0.  1.
<mgrwt>
<rscale>  2 0.48802318E+03</rscale>
<asrwt>0</asrwt>
<pdfrwt beam="1">  1       21 0.23165207E+00 0.48802318E+03</pdfrwt>
<pdfrwt beam="2">  1       21 0.24335632E-01 0.48802318E+03</pdfrwt>
<totfact> 0.11091960E+03</totfact>
</mgrwt>
</event>
<event>
 4    1  0.4760244E-002  0.4568788E+03  0.7818608E-02  0.1025690E+00
         21   -1    0    0  503  502  0.00000000000E+00  0.00000000000E+00  0.52852965738E+03  0.52852965738E+03  0.00000000000E+00 0.  1.
         21   -1    0    0  501  503 -0.00000000000E+00 -0.00000000000E+00 -0.55368973562E+03  0.55368973562E+03  0.00000000000E+00 0.  1.
    9000007    1    1    2  501    0  0.10788171560E+03 -0.19261296556E+03 -0.30231888907E+03  0.54784571711E+03  0.40000000000E+03 0.  1.
   -9000007    1    1    2    0  502 -0.10788171560E+03  0.19261296556E+03  0.27715881083E+03  0.53437367589E+03  0.40000000000E+03 0.  1.
<mgrwt>
<rscale>  2 0.45687878E+03</rscale>
<asrwt>0</asrwt>
<pdfrwt beam="1">  1       21 0.81312255E-01 0.45687878E+03</pdfrwt>
<pdfrwt beam="2">  1       21 0.85183036E-01 0.45687878E+03</pdfrwt>
<totfact> 0.13496720E+03</totfact>
</mgrwt>
</event>
<event>
 4    1  0.4760244E-002  0.5735598E+03  0.7818608E-02  0.9961832E-01
         21   -1    0    0  501  502  0.00000000000E+00  0.00000000000E+00  0.21488133798E+04  0.21488133798E+04  0.00000000000E+00 0. -1.
         21   -1    0    0  502  503 -0.00000000000E+00 -0.00000000000E+00 -0.15763545629E+03  0.15763545629E+03  0.00000000000E+00 0. -1.
    9000007    1    1    2  501    0  0.27751184301E+03  0.30324575272E+03  0.11913274019E+04  0.13222071653E+04  0.40000000000E+03 0. -1.
   -9000007    1    1    2    0  503 -0.27751184301E+03 -0.30324575272E+03  0.79985052168E+03  0.98424167082E+03  0.40000000000E+03 0. -1.
<mgrwt>
<rscale>  2 0.57355977E+03</rscale>
<asrwt>0</asrwt>
<pdfrwt beam="1">  1       21 0.33058665E+00 0.57355977E+03</pdfrwt>
<pdfrwt beam="2">  1       21 0.24251610E-01 0.57355977E+03</pdfrwt>
<totfact> 0.26645487E+02</totfact>
</mgrwt>
</event>
<event>
 4    1  0.4760244E-002  0.6493706E+03  0.7818608E-02  0.9807961E-01
         21   -1    0    0  503  502  0.00000000000E+00  0.00000000000E+00  0.63669077925E+03  0.63669077925E+03  0.00000000000E+00 0. -1.
         21   -1    0    0  501  503 -0.00000000000E+00 -0.00000000000E+00 -0.12547109088E+04  0.12547109088E+04  0.00000000000E+00 0.  1.
    9000007    1    1    2  501    0 -0.50551652293E+03 -0.78327839119E+02 -0.95882900888E+03  0.11580307740E+04  0.40000000000E+03 0.  1.
   -9000007    1    1    2    0  502  0.50551652293E+03  0.78327839119E+02  0.34080887931E+03  0.73337091403E+03  0.40000000000E+03 0. -1.
<mgrwt>
<rscale>  2 0.64937062E+03</rscale>
<asrwt>0</asrwt>
<pdfrwt beam="1">  1       21 0.97952429E-01 0.64937062E+03</pdfrwt>
<pdfrwt beam="2">  1       21 0.19303244E+00 0.64937062E+03</pdfrwt>
<totfact> 0.93381427E+01</totfact>
</mgrwt>
</event>
<event>
 4    1  0.4760244E-002  0.5434687E+03  0.7818608E-02  0.1003017E+00
         21   -1    0    0  503  502  0.00000000000E+00  0.00000000000E+00  0.11067146014E+04  0.11067146014E+04  0.00000000000E+00 0. -1.
         21   -1    0    0  501  503 -0.00000000000E+00 -0.00000000000E+00 -0.27875519433E+03  0.27875519433E+03  0.00000000000E+00 0.  1.
    9000007    1    1    2  501    0 -0.35581317718E+03 -0.93569341586E+02  0.27098994756E+03  0.60728394547E+03  0.40000000000E+03 0.  1.
   -9000007    1    1    2    0  502  0.35581317718E+03  0.93569341586E+02  0.55696945955E+03  0.77818585030E+03  0.40000000000E+03 0.  1.
<mgrwt>
<rscale>  2 0.54346871E+03</rscale>
<asrwt>0</asrwt>
<pdfrwt beam="1">  1       21 0.17026378E+00 0.54346871E+03</pdfrwt>
<pdfrwt beam="2">  1       21 0.42885415E-01 0.54346871E+03</pdfrwt>
<totfact> 0.89882741E+02</totfact>
</mgrwt>
</event>
<event>
 4    1  0.4760244E-002  0.4773973E+03  0.7818608E-02  0.1019853E+00
         21   -1    0    0  503  502  0.00000000000E+00  0.00000000000E+00  0.14230186381E+04  0.14230186381E+04  0.00000000000E+00 0.  1.
         21   -1    0    0  501  503 -0.00000000000E+00 -0.00000000000E+00 -0.30911266227E+03  0.30911266227E+03  0.00000000000E+00 0.  1.
    9000007    1    1    2  501    0 -0.17353917848E+03 -0.19440260539E+03 -0.44247129308E+02  0.47944345642E+03  0.40000000000E+03 0.  1.
   -9000007    1    1    2    0  502  0.17353917848E+03  0.19440260539E+03  0.11581531052E+04  0.12526878440E+04  0.40000000000E+03 0.  1.
<mgrwt>
<rscale>  2 0.47739734E+03</rscale>
<asrwt>0</asrwt>
<pdfrwt beam="1">  1       21 0.21892594E+00 0.47739734E+03</pdfrwt>
<pdfrwt beam="2">  1       21 0.47555795E-01 0.47739734E+03</pdfrwt>
<totfact> 0.34632731E+02</totfact>
</mgrwt>
</event>
<event>
 4    1  0.4760244E-002  0.4004420E+03  0.7818608E-02  0.1043627E+00
         21   -1    0    0  503  502  0.00000000000E+00  0.00000000000E+00  0.89639884310E+03  0.89639884310E+03  0.00000000000E+00 0. -1.
         21   -1    0    0  501  503 -0.00000000000E+00 -0.00000000000E+00 -0.18020205333E+03  0.18020205333E+03  0.00000000000E+00 0. -1.
    9000007    1    1    2  501    0  0.34897680980E+01  0.18482046302E+02  0.40408997362E+03  0.56889583519E+03  0.40000000000E+03 0. -1.
   -9000007    1    1    2    0  502 -0.34897680980E+01 -0.18482046302E+02  0.31210681614E+03  0.50770506123E+03  0.40000000000E+03 0. -1.
<mgrwt>
<rscale>  2 0.40044196E+03</rscale>
<asrwt>0</asrwt>
<pdfrwt beam="1">  1       21 0.13790751E+00 0.40044196E+03</pdfrwt>
<pdfrwt beam="2">  1       21 0.27723393E-01 0.40044196E+03</pdfrwt>
<totfact> 0.40944536E+03</totfact>
</mgrwt>
</event>
<event>
 4    1  0.4760244E-002  0.4869021E+03  0.7818608E-02  0.1017255E+00
         21   -1    0    0  501  502  0.00000000000E+00  0.00000000000E+00  0.36029986416E+03  0.36029986416E+03  0.00000000000E+00 0. -1.
         21   -1    0    0  502  503 -0.00000000000E+00 -0.00000000000E+00 -0.73530430903E+03  0.73530430903E+03  0.00000000000E+00 0. -1.
    9000007    1    1    2  501    0 -0.49827044532E+02  0.27311341194E+03 -0.98705690598E+01  0.48700215429E+03  0.40000000000E+03 0. -1.
   -9000007    1    1    2    0  503  0.49827044532E+02 -0.27311341194E+03 -0.36513387581E+03  0.60860201890E+03  0.40000000000E+03 0. -1.
<mgrwt>
<rscale>  2 0.48690212E+03</rscale>
<asrwt>0</asrwt>
<pdfrwt beam="1">  1       21 0.55430749E-01 0.48690212E+03</pdfrwt>
<pdfrwt beam="2">  1       21 0.11312374E+00 0.48690212E+03</pdfrwt>
<totfact> 0.15832442E+03</totfact>
</mgrwt>
</event>
<event>
 4    1  0.4760244E-002  0.5889990E+03  0.7818608E-02  0.9928496E-01
         21   -1    0    0  501  502  0.00000000000E+00  0.00000000000E+00  0.19160850699E+03  0.19160850699E+03  0.00000000000E+00 0.  1.
         21   -1    0    0  502  503 -0.00000000000E+00 -0.00000000000E+00 -0.24575553649E+04  0.24575553649E+04  0.00000000000E+00 0. -1.
    9000007    1    1    2  501    0  0.40060897235E+03  0.16258010769E+03 -0.18126084624E+04  0.19059037956E+04  0.40000000000E+03 0. -1.
   -9000007    1    1    2    0  503 -0.40060897235E+03 -0.16258010769E+03 -0.45333839547E+03  0.74326007625E+03  0.40000000000E+03 0.  1.
<mgrwt>
<rscale>  2 0.58899902E+03</rscale>
<asrwt>0</asrwt>
<pdfrwt beam="1">  1       21 0.29478235E-01 0.58899902E+03</pdfrwt>
<pdfrwt beam="2">  1       21 0.37808541E+00 0.58899902E+03</pdfrwt>
<totfact> 0.91122467E+01</totfact>
</mgrwt>
</event>
<event>
 4    1  0.4760244E-002  0.4203230E+03  0.7818608E-02  0.1036961E+00
         21   -1    0    0  501  502  0.00000000000E+00  0.00000000000E+00  0.43523463652E+03  0.43523463652E+03  0.00000000000E+00 0. -1.
         21   -1    0    0  502  503 -0.00000000000E+00 -0.00000000000E+00 -0.46678539157E+03  0.46678539157E+03  0.00000000000E+00 0. -1.
    9000007    1    1    2  501    0 -0.92485832975E+02 -0.90098915052E+02  0.14708092436E+03  0.44531364464E+03  0.40000000000E+03 0. -1.
   -9000007    1    1    2    0  503  0.92485832975E+02  0.90098915052E+02 -0.17863167941E+03  0.45670638345E+03  0.40000000000E+03 0. -1.
<mgrwt>
<rscale>  2 0.42032302E+03</rscale>
<asrwt>0</asrwt>
<pdfrwt beam="1">  1       21 0.66959175E-01 0.42032302E+03</pdfrwt>
<pdfrwt beam="2">  1       21 0.71813137E-01 0.42032302E+03</pdfrwt>
<totfact> 0.31515090E+03</totfact>
</mgrwt>
</event>
<event>
 4    1  0.4760244E-002  0.4422659E+03  0.7818608E-02  0.1030054E+00
         21   -1    0    0  501  502  0.00000000000E+00  0.00000000000E+00  0.20098577585E+03  0.20098577585E+03  0.00000000000E+00 0.  1.
         21   -1    0    0  502  503 -0.00000000000E+00 -0.00000000000E+00 -0.19040103442E+04  0.19040103442E+04  0.00000000000E+00 0.  1.
    9000007    1    1    2  501    0 -0.13468498305E+03  0.13213284243E+03 -0.11561446965E+03  0.45712781396E+03  0.40000000000E+03 0.  1.
   -9000007    1    1    2    0  503  0.13468498305E+03 -0.13213284243E+03 -0.15874100987E+04  0.16478683061E+04  0.40000000000E+03 0.  1.
<mgrwt>
<rscale>  2 0.44226591E+03</rscale>
<asrwt>0</asrwt>
<pdfrwt beam="1">  1       21 0.30920889E-01 0.44226591E+03</pdfrwt>
<pdfrwt beam="2">  1       21 0.29292467E+00 0.44226591E+03</pdfrwt>
<totfact> 0.29935882E+02</totfact>
</mgrwt>
</event>
<event>
 4    1  0.4760244E-002  0.4131257E+03  0.7818608E-02  0.1039327E+00
         21   -1    0    0  501  502  0.00000000000E+00  0.00000000000E+00  0.10514712603E+04  0.10514712603E+04  0.00000000000E+00 0. -1.
         21   -1    0    0  502  503 -0.00000000000E+00 -0.00000000000E+00 -0.21405082358E+03  0.21405082358E+03  0.00000000000E+00 0. -1.
    9000007    1    1    2  501    0  0.34519804433E+02 -0.97371547868E+02  0.72978433789E+03  0.83860480267E+03  0.40000000000E+03 0. -1.
   -9000007    1    1    2    0  503 -0.34519804433E+02  0.97371547868E+02  0.10763609883E+03  0.42691728122E+03  0.40000000000E+03 0. -1.
<mgrwt>
<rscale>  2 0.41312569E+03</rscale>
<asrwt>0</asrwt>
<pdfrwt beam="1">  1       21 0.16176481E+00 0.41312569E+03</pdfrwt>
<pdfrwt beam="2">  1       21 0.32930897E-01 0.41312569E+03</pdfrwt>
<totfact> 0.18785890E+03</totfact>
</mgrwt>
</event>
<event>
 4    1  0.4760244E-002  0.4719866E+03  0.7818608E-02  0.1021361E+00
         21   -1    0    0  503  502  0.00000000000E+00  0.00000000000E+00  0.13118931314E+04  0.13118931314E+04  0.00000000000E+00 0.  1.
         21   -1    0    0  501  503 -0.00000000000E+00 -0.00000000000E+00 -0.24762478781E+03  0.24762478781E+03  0.00000000000E+00 0.  1.
    9000007    1    1    2  501    0 -0.11399340321E+03 -0.22310718573E+03  0.95017807900E+02  0.48145580910E+03  0.40000000000E+03 0.  1.
   -9000007    1    1    2    0  502  0.11399340321E+03  0.22310718573E+03  0.96925053565E+03  0.10780621101E+04  0.40000000000E+03 0.  1.
<mgrwt>
<rscale>  2 0.47198656E+03</rscale>
<asrwt>0</asrwt>
<pdfrwt beam="1">  1       21 0.20182971E+00 0.47198656E+03</pdfrwt>
<pdfrwt beam="2">  1       21 0.38096122E-01 0.47198656E+03</pdfrwt>
<totfact> 0.71242081E+02</totfact>
</mgrwt>
</event>
<event>
 4    1  0.4760244E-002  0.5335417E+03  0.7818608E-02  0.1005377E+00
         21   -1    0    0  503  502  0.00000000000E+00  0.00000000000E+00  0.43166379651E+03  0.43166379651E+03  0.00000000000E+00 0. -1.
         21   -1    0    0  501  503 -0.00000000000E+00 -0.00000000000E+00 -0.78294256393E+03  0.78294256393E+03  0.00000000000E+00 0.  1.
    9000007    1    1    2  501    0 -0.12981773129E+03  0.32835059278E+03 -0.41681661322E+03  0.67705453561E+03  0.40000000000E+03 0.  1.
   -9000007    1    1    2    0  502  0.12981773129E+03 -0.32835059278E+03  0.65537845804E+02  0.53755182482E+03  0.40000000000E+03 0. -1.
<mgrwt>
<rscale>  2 0.53354171E+03</rscale>
<asrwt>0</asrwt>
<pdfrwt beam="1">  1       21 0.66409816E-01 0.53354171E+03</pdfrwt>
<pdfrwt beam="2">  1       21 0.12045270E+00 0.53354171E+03</pdfrwt>
<totfact> 0.89276014E+02</totfact>
</mgrwt>
</event>
<event>
 4    1  0.4760244E-002  0.6970771E+03  0.7818608E-02  0.9722244E-01
         21   -1    0    0  503  502  0.00000000000E+00  0.00000000000E+00  0.21434155254E+04  0.21434155254E+04  0.00000000000E+00 0.  1.
         21   -1    0    0  501  503 -0.00000000000E+00 -0.00000000000E+00 -0.72202904672E+03  0.72202904672E+03  0.00000000000E+00 0. -1.
    9000007    1    1    2  501    0  0.56954551962E+03  0.39170624393E+02 -0.47597886620E+03  0.84408075313E+03  0.40000000000E+03 0. -1.
   -9000007    1    1    2    0  502 -0.56954551962E+03 -0.39170624393E+02  0.18973653449E+04  0.20213638190E+04  0.40000000000E+03 0.  1.
<mgrwt>
<rscale>  2 0.69707707E+03</rscale>
<asrwt>0</asrwt>
<pdfrwt beam="1">  1       21 0.32975623E+00 0.69707707E+03</pdfrwt>
<pdfrwt beam="2">  1       21 0.11108139E+00 0.69707707E+03</pdfrwt>
<totfact> 0.91996450E+00</totfact>
</mgrwt>
</event>
<event>
 4    1  0.4760244E-002  0.4294911E+03  0.7818608E-02  0.1034021E+00
         21   -1    0    0  503  502  0.00000000000E+00  0.00000000000E+00  0.55071945401E+03  0.55071945401E+03  0.00000000000E+00 0. -1.
         21   -1    0    0  501  503 -0.00000000000E+00 -0.00000000000E+00 -0.33495689882E+03  0.33495689882E+03  0.00000000000E+00 0. -1.
    9000007    1    1    2  501    0  0.15241815607E+03 -0.35090181207E+02  0.10565424720E+03  0.44229564215E+03  0.40000000000E+03 0. -1.
   -9000007    1    1    2    0  502 -0.15241815607E+03  0.35090181207E+02  0.11010830799E+03  0.44338071068E+03  0.40000000000E+03 0. -1.
<mgrwt>
<rscale>  2 0.42949111E+03</rscale>
<asrwt>0</asrwt>
<pdfrwt beam="1">  1       21 0.84726070E-01 0.42949111E+03</pdfrwt>
<pdfrwt beam="2">  1       21 0.51531830E-01 0.42949111E+03</pdfrwt>
<totfact> 0.38041213E+03</totfact>
</mgrwt>
</event>
<event>
 4    1  0.4760244E-002  0.4743165E+03  0.7818608E-02  0.1020709E+00
         21   -1    0    0  501  502  0.00000000000E+00  0.00000000000E+00  0.58178664079E+03  0.58178664079E+03  0.00000000000E+00 0.  1.
         21   -1    0    0  502  503 -0.00000000000E+00 -0.00000000000E+00 -0.21483826426E+04  0.21483826426E+04  0.00000000000E+00 0. -1.
    9000007    1    1    2  501    0  0.19911169036E+02  0.25412525744E+03  0.45284230884E+03  0.65577607291E+03  0.40000000000E+03 0.  1.
   -9000007    1    1    2    0  503 -0.19911169036E+02 -0.25412525744E+03 -0.20194383106E+04  0.20743932104E+04  0.40000000000E+03 0. -1.
<mgrwt>
<rscale>  2 0.47431646E+03</rscale>
<asrwt>0</asrwt>
<pdfrwt beam="1">  1       21 0.89505637E-01 0.47431646E+03</pdfrwt>
<pdfrwt beam="2">  1       21 0.33052041E+00 0.47431646E+03</pdfrwt>
<totfact> 0.17563827E+01</totfact>
</mgrwt>
</event>
<event>
 4    1  0.4760244E-002  0.8606531E+03  0.7818608E-02  0.9476149E-01
         21   -1    0    0  503  502  0.00000000000E+00  0.00000000000E+00  0.19326462969E+04  0.19326462969E+04  0.00000000000E+00 0.  1.
         21   -1    0    0  501  503 -0.00000000000E+00 -0.00000000000E+00 -0.40109062156E+03  0.40109062156E+03  0.00000000000E+00 0. -1.
    9000007    1    1    2  501    0 -0.74748543575E+03 -0.14828778156E+03  0.51981347922E+03  0.10054500465E+04  0.40000000000E+03 0. -1.
   -9000007    1    1    2    0  502  0.74748543575E+03  0.14828778156E+03  0.10117421961E+04  0.13282868720E+04  0.40000000000E+03 0.  1.
<mgrwt>
<rscale>  2 0.86065309E+03</rscale>
<asrwt>0</asrwt>
<pdfrwt beam="1">  1       21 0.29733019E+00 0.86065309E+03</pdfrwt>
<pdfrwt beam="2">  1       21 0.61706251E-01 0.86065309E+03</pdfrwt>
<totfact> 0.54851807E+01</totfact>
</mgrwt>
</event>
<event>
 4    1  0.4760244E-002  0.4690136E+03  0.7818608E-02  0.1022199E+00
         21   -1    0    0  501  502  0.00000000000E+00  0.00000000000E+00  0.60715026831E+03  0.60715026831E+03  0.00000000000E+00 0. -1.
         21   -1    0    0  502  503 -0.00000000000E+00 -0.00000000000E+00 -0.44155185694E+03  0.44155185694E+03  0.00000000000E+00 0. -1.
    9000007    1    1    2  501    0  0.11226029721E+03  0.21764957524E+03  0.30493662046E+03  0.55942832823E+03  0.40000000000E+03 0. -1.
   -9000007    1    1    2    0  503 -0.11226029721E+03 -0.21764957524E+03 -0.13933820909E+03  0.48927379701E+03  0.40000000000E+03 0. -1.
<mgrwt>
<rscale>  2 0.46901355E+03</rscale>
<asrwt>0</asrwt>
<pdfrwt beam="1">  1       21 0.93407734E-01 0.46901355E+03</pdfrwt>
<pdfrwt beam="2">  1       21 0.67931055E-01 0.46901355E+03</pdfrwt>
<totfact> 0.16274114E+03</totfact>
</mgrwt>
</event>
<event>
 4    1  0.4760244E-002  0.5429822E+03  0.7818608E-02  0.1003131E+00
         21   -1    0    0  501  502  0.00000000000E+00  0.00000000000E+00  0.19642036155E+03  0.19642036155E+03  0.00000000000E+00 0.  1.
         21   -1    0    0  502  503 -0.00000000000E+00 -0.00000000000E+00 -0.16632556651E+04  0.16632556651E+04  0.00000000000E+00 0. -1.
    9000007    1    1    2  501    0  0.31148754590E+03  0.19443545194E+03 -0.44300902786E+03  0.70077573801E+03  0.40000000000E+03 0.  1.
   -9000007    1    1    2    0  503 -0.31148754590E+03 -0.19443545194E+03 -0.10238262757E+04  0.11589002886E+04  0.40000000000E+03 0. -1.
<mgrwt>
<rscale>  2 0.54298217E+03</rscale>
<asrwt>0</asrwt>
<pdfrwt beam="1">  1       21 0.30218518E-01 0.54298217E+03</pdfrwt>
<pdfrwt beam="2">  1       21 0.25588548E+00 0.54298217E+03</pdfrwt>
<totfact> 0.49963761E+02</totfact>
</mgrwt>
</event>
<event>
 4    1  0.4760244E-002  0.4525771E+03  0.7818608E-02  0.1026956E+00
         21   -1    0    0  501  502  0.00000000000E+00  0.00000000000E+00  0.20617324523E+04  0.20617324523E+04  0.00000000000E+00 0. -1.
         21   -1    0    0  502  503 -0.00000000000E+00 -0.00000000000E+00 -0.99832970803E+02  0.99832970803E+02  0.00000000000E+00 0. -1.
    9000007    1    1    2  501    0  0.20831180479E+03 -0.37844131377E+02  0.10563914922E+04  0.11492558337E+04  0.40000000000E+03 0. -1.
   -9000007    1    1    2    0  503 -0.20831180479E+03  0.37844131377E+02  0.90550798926E+03  0.10123095895E+04  0.40000000000E+03 0. -1.
<mgrwt>
<rscale>  2 0.45257705E+03</rscale>
<asrwt>0</asrwt>
<pdfrwt beam="1">  1       21 0.31718958E+00 0.45257705E+03</pdfrwt>
<pdfrwt beam="2">  1       21 0.15358920E-01 0.45257705E+03</pdfrwt>
<totfact> 0.81555176E+02</totfact>
</mgrwt>
</event>
<event>
 4    1  0.4760244E-002  0.4755586E+03  0.7818608E-02  0.1020363E+00
         21   -1    0    0  501  502  0.00000000000E+00  0.00000000000E+00  0.30098672216E+03  0.30098672216E+03  0.00000000000E+00 0.  1.
         21   -1    0    0  502  503 -0.00000000000E+00 -0.00000000000E+00 -0.79758238995E+03  0.79758238995E+03  0.00000000000E+00 0.  1.
    9000007    1    1    2  501    0 -0.17145001406E+03 -0.19173127944E+03 -0.11609746830E+03  0.48952488495E+03  0.40000000000E+03 0.  1.
   -9000007    1    1    2    0  503  0.17145001406E+03  0.19173127944E+03 -0.38049819948E+03  0.60904422717E+03  0.40000000000E+03 0.  1.
<mgrwt>
<rscale>  2 0.47555861E+03</rscale>
<asrwt>0</asrwt>
<pdfrwt beam="1">  1       21 0.46305650E-01 0.47555861E+03</pdfrwt>
<pdfrwt beam="2">  1       21 0.12270498E+00 0.47555861E+03</pdfrwt>
<totfact> 0.19002946E+03</totfact>
</mgrwt>
</event>
<event>
 4    1  0.4760244E-002  0.4511396E+03  0.7818608E-02  0.1027383E+00
         21   -1    0    0  503  502  0.00000000000E+00  0.00000000000E+00  0.29259257596E+03  0.29259257596E+03  0.00000000000E+00 0. -1.
         21   -1    0    0  501  503 -0.00000000000E+00 -0.00000000000E+00 -0.98321073254E+03  0.98321073254E+03  0.00000000000E+00 0. -1.
    9000007    1    1    2  501    0 -0.20567187537E+03  0.35015166641E+02 -0.69032094627E+03  0.82466356235E+03  0.40000000000E+03 0. -1.
   -9000007    1    1    2    0  502  0.20567187537E+03 -0.35015166641E+02 -0.29721031130E+00  0.45113974614E+03  0.40000000000E+03 0. -1.
<mgrwt>
<rscale>  2 0.45113965E+03</rscale>
<asrwt>0</asrwt>
<pdfrwt beam="1">  1       21 0.45014243E-01 0.45113965E+03</pdfrwt>
<pdfrwt beam="2">  1       21 0.15126319E+00 0.45113965E+03</pdfrwt>
<totfact> 0.11722863E+03</totfact>
</mgrwt>
</event>
<event>
 4    1  0.4760244E-002  0.4041357E+03  0.7818608E-02  0.1042357E+00
         21   -1    0    0  503  502  0.00000000000E+00  0.00000000000E+00  0.42316751893E+03  0.42316751893E+03  0.00000000000E+00 0.  1.
         21   -1    0    0  501  503 -0.00000000000E+00 -0.00000000000E+00 -0.41845495390E+03  0.41845495390E+03  0.00000000000E+00 0.  1.
    9000007    1    1    2  501    0  0.23603271839E+02  0.52616819952E+02 -0.11490978927E+03  0.42015461898E+03  0.40000000000E+03 0.  1.
   -9000007    1    1    2    0  502 -0.23603271839E+02 -0.52616819952E+02  0.11962235430E+03  0.42146785385E+03  0.40000000000E+03 0.  1.
<mgrwt>
<rscale>  2 0.40413568E+03</rscale>
<asrwt>0</asrwt>
<pdfrwt beam="1">  1       21 0.65102695E-01 0.40413568E+03</pdfrwt>
<pdfrwt beam="2">  1       21 0.64377685E-01 0.40413568E+03</pdfrwt>
<totfact> 0.43096736E+03</totfact>
</mgrwt>
</event>
<event>
 4    1  0.4760244E-002  0.4873583E+03  0.7818608E-02  0.1017132E+00
         21   -1    0    0  501  502  0.00000000000E+00  0.00000000000E+00  0.22229393136E+03  0.22229393136E+03  0.00000000000E+00 0.  1.
         21   -1    0    0  502  503 -0.00000000000E+00 -0.00000000000E+00 -0.10690962954E+04  0.10690962954E+04  0.00000000000E+00 0. -1.
    9000007    1    1    2  501    0 -0.93917670966E+02 -0.26210232928E+03 -0.43881671403E+03  0.65580352885E+03  0.40000000000E+03 0. -1.
   -9000007    1    1    2    0  503  0.93917670966E+02  0.26210232928E+03 -0.40798564996E+03  0.63558669787E+03  0.40000000000E+03 0.  1.
<mgrwt>
<rscale>  2 0.48735835E+03</rscale>
<asrwt>0</asrwt>
<pdfrwt beam="1">  1       21 0.34199065E-01 0.48735835E+03</pdfrwt>
<pdfrwt beam="2">  1       21 0.16447636E+00 0.48735835E+03</pdfrwt>
<totfact> 0.16117354E+03</totfact>
</mgrwt>
</event>
<event>
 4    1  0.4760244E-002  0.4910657E+03  0.7818608E-02  0.1016138E+00
         21   -1    0    0  501  502  0.00000000000E+00  0.00000000000E+00  0.20532978527E+03  0.20532978527E+03  0.00000000000E+00 0.  1.
         21   -1    0    0  502  503 -0.00000000000E+00 -0.00000000000E+00 -0.13701630484E+04  0.13701630484E+04  0.00000000000E+00 0.  1.
    9000007    1    1    2  501    0  0.28322208044E+03 -0.30508685763E+02 -0.28468016591E+03  0.56761635250E+03  0.40000000000E+03 0.  1.
   -9000007    1    1    2    0  503 -0.28322208044E+03  0.30508685763E+02 -0.88015309724E+03  0.10078764812E+04  0.40000000000E+03 0.  1.
<mgrwt>
<rscale>  2 0.49106571E+03</rscale>
<asrwt>0</asrwt>
<pdfrwt beam="1">  1       21 0.31589197E-01 0.49106571E+03</pdfrwt>
<pdfrwt beam="2">  1       21 0.21079432E+00 0.49106571E+03</pdfrwt>
<totfact> 0.90086190E+02</totfact>
</mgrwt>
</event>
<event>
 4    1  0.4760244E-002  0.7394564E+03  0.7818608E-02  0.9652038E-01
         21   -1    0    0  503  502  0.00000000000E+00  0.00000000000E+00  0.46182724149E+03  0.46182724149E+03  0.00000000000E+00 0.  1.
         21   -1    0    0  501  503 -0.00000000000E+00 -0.00000000000E+00 -0.12751490345E+04  0.12751490345E+04  0.00000000000E+00 0. -1.
    9000007    1    1    2  501    0  0.62192897866E+03  0.26320067306E+00 -0.63888073921E+03  0.97722276002E+03  0.40000000000E+03 0. -1.
   -9000007    1    1    2    0  502 -0.62192897866E+03 -0.26320067306E+00 -0.17444105378E+03  0.75975351596E+03  0.40000000000E+03 0.  1.
<mgrwt>
<rscale>  2 0.73945637E+03</rscale>
<asrwt>0</asrwt>
<pdfrwt beam="1">  1       21 0.71050345E-01 0.73945637E+03</pdfrwt>
<pdfrwt beam="2">  1       21 0.19617678E+00 0.73945637E+03</pdfrwt>
<totfact> 0.18350534E+02</totfact>
</mgrwt>
</event>
<event>
 4    1  0.4760244E-002  0.6256669E+03  0.7818608E-02  0.9853541E-01
         21   -1    0    0  503  502  0.00000000000E+00  0.00000000000E+00  0.76653012918E+03  0.76653012918E+03  0.00000000000E+00 0. -1.
         21   -1    0    0  501  503 -0.00000000000E+00 -0.00000000000E+00 -0.52508530188E+03  0.52508530188E+03  0.00000000000E+00 0.  1.
    9000007    1    1    2  501    0  0.30672220837E+03 -0.37064877851E+03  0.22765336739E+03  0.66579657989E+03  0.40000000000E+03 0. -1.
   -9000007    1    1    2    0  502 -0.30672220837E+03  0.37064877851E+03  0.13791459912E+02  0.62581885117E+03  0.40000000000E+03 0.  1.
<mgrwt>
<rscale>  2 0.62566687E+03</rscale>
<asrwt>0</asrwt>
<pdfrwt beam="1">  1       21 0.11792771E+00 0.62566687E+03</pdfrwt>
<pdfrwt beam="2">  1       21 0.80782354E-01 0.62566687E+03</pdfrwt>
<totfact> 0.58433538E+02</totfact>
</mgrwt>
</event>
<event>
 4    1  0.4760244E-002  0.6645924E+03  0.7818608E-02  0.9779776E-01
         21   -1    0    0  503  502  0.00000000000E+00  0.00000000000E+00  0.45014036764E+03  0.45014036764E+03  0.00000000000E+00 0. -1.
         21   -1    0    0  501  503 -0.00000000000E+00 -0.00000000000E+00 -0.15775033296E+04  0.15775033296E+04  0.00000000000E+00 0. -1.
    9000007    1    1    2  501    0 -0.52966141568E+03  0.33790304843E+02 -0.11869940103E+04  0.13603814835E+04  0.40000000000E+03 0. -1.
   -9000007    1    1    2    0  502  0.52966141568E+03 -0.33790304843E+02  0.59631048421E+02  0.66726221375E+03  0.40000000000E+03 0. -1.
<mgrwt>
<rscale>  2 0.66459236E+03</rscale>
<asrwt>0</asrwt>
<pdfrwt beam="1">  1       21 0.69252363E-01 0.66459236E+03</pdfrwt>
<pdfrwt beam="2">  1       21 0.24269282E+00 0.66459236E+03</pdfrwt>
<totfact> 0.99097554E+01</totfact>
</mgrwt>
</event>
<event>
 4    1  0.4760244E-002  0.4375472E+03  0.7818608E-02  0.1031502E+00
         21   -1    0    0  501  502  0.00000000000E+00  0.00000000000E+00  0.12736262398E+03  0.12736262398E+03  0.00000000000E+00 0.  1.
         21   -1    0    0  502  503 -0.00000000000E+00 -0.00000000000E+00 -0.15838743265E+04  0.15838743265E+04  0.00000000000E+00 0.  1.
    9000007    1    1    2  501    0 -0.17488551548E+03 -0.29369495677E+02 -0.92139560888E+03  0.10200085190E+04  0.40000000000E+03 0.  1.
   -9000007    1    1    2    0  503  0.17488551548E+03  0.29369495677E+02 -0.53511609364E+03  0.69122843147E+03  0.40000000000E+03 0.  1.
<mgrwt>
<rscale>  2 0.43754715E+03</rscale>
<asrwt>0</asrwt>
<pdfrwt beam="1">  1       21 0.19594250E-01 0.43754715E+03</pdfrwt>
<pdfrwt beam="2">  1       21 0.24367297E+00 0.43754715E+03</pdfrwt>
<totfact> 0.14489608E+03</totfact>
</mgrwt>
</event>
<event>
 4    1  0.4760244E-002  0.4751843E+03  0.7818608E-02  0.1020467E+00
         21   -1    0    0  501  502  0.00000000000E+00  0.00000000000E+00  0.34693341568E+03  0.34693341568E+03  0.00000000000E+00 0. -1.
         21   -1    0    0  502  503 -0.00000000000E+00 -0.00000000000E+00 -0.84100499420E+03  0.84100499420E+03  0.00000000000E+00 0.  1.
    9000007    1    1    2  501    0  0.18677206258E+03 -0.17583034366E+03  0.35402419539E+02  0.47650125333E+03  0.40000000000E+03 0.  1.
   -9000007    1    1    2    0  503 -0.18677206258E+03  0.17583034366E+03 -0.52947399806E+03  0.71143715656E+03  0.40000000000E+03 0.  1.
<mgrwt>
<rscale>  2 0.47518429E+03</rscale>
<asrwt>0</asrwt>
<pdfrwt beam="1">  1       21 0.53374372E-01 0.47518429E+03</pdfrwt>
<pdfrwt beam="2">  1       21 0.12938538E+00 0.47518429E+03</pdfrwt>
<totfact> 0.12250774E+03</totfact>
</mgrwt>
</event>
<event>
 4    1  0.4760244E-002  0.4441506E+03  0.7818608E-02  0.1029481E+00
         21   -1    0    0  501  502  0.00000000000E+00  0.00000000000E+00  0.51042635785E+03  0.51042635785E+03  0.00000000000E+00 0.  1.
         21   -1    0    0  502  503 -0.00000000000E+00 -0.00000000000E+00 -0.45865939590E+03  0.45865939590E+03  0.00000000000E+00 0.  1.
    9000007    1    1    2  501    0 -0.16772253033E+03  0.95597459817E+02  0.21810094642E+03  0.49481081671E+03  0.40000000000E+03 0.  1.
   -9000007    1    1    2    0  503  0.16772253033E+03 -0.95597459817E+02 -0.16633398447E+03  0.47427493703E+03  0.40000000000E+03 0.  1.
<mgrwt>
<rscale>  2 0.44415056E+03</rscale>
<asrwt>0</asrwt>
<pdfrwt beam="1">  1       21 0.78527132E-01 0.44415056E+03</pdfrwt>
<pdfrwt beam="2">  1       21 0.70562984E-01 0.44415056E+03</pdfrwt>
<totfact> 0.22652194E+03</totfact>
</mgrwt>
</event>
<event>
 4    1  0.4760244E-002  0.4479798E+03  0.7818608E-02  0.1028326E+00
         21   -1    0    0  503  502  0.00000000000E+00  0.00000000000E+00  0.99966657084E+03  0.99966657084E+03  0.00000000000E+00 0. -1.
         21   -1    0    0  501  503 -0.00000000000E+00 -0.00000000000E+00 -0.20078451007E+03  0.20078451007E+03  0.00000000000E+00 0. -1.
    9000007    1    1    2  501    0  0.18856096718E+03  0.71628476639E+02  0.39189961068E+03  0.59520683957E+03  0.40000000000E+03 0. -1.
   -9000007    1    1    2    0  502 -0.18856096718E+03 -0.71628476639E+02  0.40698245008E+03  0.60524424135E+03  0.40000000000E+03 0. -1.
<mgrwt>
<rscale>  2 0.44797977E+03</rscale>
<asrwt>0</asrwt>
<pdfrwt beam="1">  1       21 0.15379485E+00 0.44797977E+03</pdfrwt>
<pdfrwt beam="2">  1       21 0.30889925E-01 0.44797977E+03</pdfrwt>
<totfact> 0.24200043E+03</totfact>
</mgrwt>
</event>
<event>
 4    1  0.4760244E-002  0.5858663E+03  0.7818608E-02  0.9935171E-01
         21   -1    0    0  501  502  0.00000000000E+00  0.00000000000E+00  0.41222071313E+03  0.41222071313E+03  0.00000000000E+00 0. -1.
         21   -1    0    0  502  503 -0.00000000000E+00 -0.00000000000E+00 -0.86862723411E+03  0.86862723411E+03  0.00000000000E+00 0.  1.
    9000007    1    1    2  501    0  0.42589997267E+03  0.42994906320E+02 -0.97883728526E+02  0.59398701417E+03  0.40000000000E+03 0.  1.
   -9000007    1    1    2    0  503 -0.42589997267E+03 -0.42994906320E+02 -0.35852279245E+03  0.68686093308E+03  0.40000000000E+03 0. -1.
<mgrwt>
<rscale>  2 0.58586632E+03</rscale>
<asrwt>0</asrwt>
<pdfrwt beam="1">  1       21 0.63418572E-01 0.58586632E+03</pdfrwt>
<pdfrwt beam="2">  1       21 0.13363496E+00 0.58586632E+03</pdfrwt>
<totfact> 0.74221664E+02</totfact>
</mgrwt>
</event>
<event>
 4    1  0.4760244E-002  0.4453636E+03  0.7818608E-02  0.1029114E+00
         21   -1    0    0  501  502  0.00000000000E+00  0.00000000000E+00  0.74322903786E+03  0.74322903786E+03  0.00000000000E+00 0.  1.
         21   -1    0    0  502  503 -0.00000000000E+00 -0.00000000000E+00 -0.62055853595E+03  0.62055853595E+03  0.00000000000E+00 0.  1.
    9000007    1    1    2  501    0 -0.85543243969E+02 -0.17615636686E+03  0.57612894952E+03  0.72819865329E+03  0.40000000000E+03 0.  1.
   -9000007    1    1    2    0  503  0.85543243969E+02  0.17615636686E+03 -0.45345844761E+03  0.63558892051E+03  0.40000000000E+03 0.  1.
<mgrwt>
<rscale>  2 0.44536357E+03</rscale>
<asrwt>0</asrwt>
<pdfrwt beam="1">  1       21 0.11434293E+00 0.44536357E+03</pdfrwt>
<pdfrwt beam="2">  1       21 0.95470543E-01 0.44536357E+03</pdfrwt>
<totfact> 0.45534528E+02</totfact>
</mgrwt>
</event>
<event>
 4    1  0.4760244E-002  0.4437762E+03  0.7818608E-02  0.1029594E+00
         21   -1    0    0  501  502  0.00000000000E+00  0.00000000000E+00  0.91111029518E+02  0.91111029518E+02  0.00000000000E+00 0. -1.
         21   -1    0    0  502  503 -0.00000000000E+00 -0.00000000000E+00 -0.24016123686E+04  0.24016123686E+04  0.00000000000E+00 0.  1.
    9000007    1    1    2  501    0  0.17783285806E+03  0.72888594853E+02 -0.76116364215E+03  0.88108306237E+03  0.40000000000E+03 0. -1.
   -9000007    1    1    2    0  503 -0.17783285806E+03 -0.72888594853E+02 -0.15493376969E+04  0.16116403357E+04  0.40000000000E+03 0.  1.
<mgrwt>
<rscale>  2 0.44377615E+03</rscale>
<asrwt>0</asrwt>
<pdfrwt beam="1">  1       21 0.14017081E-01 0.44377615E+03</pdfrwt>
<pdfrwt beam="2">  1       21 0.36947883E+00 0.44377615E+03</pdfrwt>
<totfact> 0.46502637E+02</totfact>
</mgrwt>
</event>
<event>
 4    1  0.4760244E-002  0.6239277E+03  0.7818608E-02  0.9856971E-01
         21   -1    0    0  501  502  0.00000000000E+00  0.00000000000E+00  0.79488599428E+03  0.79488599428E+03  0.00000000000E+00 0.  1.
         21   -1    0    0  502  503 -0.00000000000E+00 -0.00000000000E+00 -0.80985564061E+03  0.80985564061E+03  0.00000000000E+00 0. -1.
    9000007    1    1    2  501    0 -0.27163233100E+03 -0.39433690334E+03 -0.51194427050E+03  0.80707660893E+03  0.40000000000E+03 0.  1.
   -9000007    1    1    2    0  503  0.27163233100E+03  0.39433690334E+03  0.49697462417E+03  0.79766502596E+03  0.40000000000E+03 0.  1.
<mgrwt>
<rscale>  2 0.62392765E+03</rscale>
<asrwt>0</asrwt>
<pdfrwt beam="1">  1       21 0.12229015E+00 0.62392765E+03</pdfrwt>
<pdfrwt beam="2">  1       21 0.12459318E+00 0.62392765E+03</pdfrwt>
<totfact> 0.18394365E+02</totfact>
</mgrwt>
</event>
<event>
 4    1  0.4760244E-002  0.5185959E+03  0.7818608E-02  0.1009036E+00
         21   -1    0    0  501  502  0.00000000000E+00  0.00000000000E+00  0.40001824950E+03  0.40001824950E+03  0.00000000000E+00 0.  1.
         21   -1    0    0  502  503 -0.00000000000E+00 -0.00000000000E+00 -0.67693178466E+03  0.67693178466E+03  0.00000000000E+00 0. -1.
    9000007    1    1    2  501    0  0.32917269814E+03 -0.24229816207E+02 -0.18288442092E+03  0.54989859120E+03  0.40000000000E+03 0.  1.
   -9000007    1    1    2    0  503 -0.32917269814E+03  0.24229816207E+02 -0.94029114238E+02  0.52705144295E+03  0.40000000000E+03 0. -1.
<mgrwt>
<rscale>  2 0.51859594E+03</rscale>
<asrwt>0</asrwt>
<pdfrwt beam="1">  1       21 0.61541270E-01 0.51859594E+03</pdfrwt>
<pdfrwt beam="2">  1       21 0.10414335E+00 0.51859594E+03</pdfrwt>
<totfact> 0.15299049E+03</totfact>
</mgrwt>
</event>
<event>
 4    1  0.4760244E-002  0.4294159E+03  0.7818608E-02  0.1034045E+00
         21   -1    0    0  501  502  0.00000000000E+00  0.00000000000E+00  0.20430819143E+03  0.20430819143E+03  0.00000000000E+00 0. -1.
         21   -1    0    0  502  503 -0.00000000000E+00 -0.00000000000E+00 -0.90395091891E+03  0.90395091891E+03  0.00000000000E+00 0. -1.
    9000007    1    1    2  501    0  0.98936579987E+02 -0.12087019161E+03 -0.37164760763E+03  0.56790843834E+03  0.40000000000E+03 0. -1.
   -9000007    1    1    2    0  503 -0.98936579987E+02  0.12087019161E+03 -0.32799511985E+03  0.54035067199E+03  0.40000000000E+03 0. -1.
<mgrwt>
<rscale>  2 0.42941594E+03</rscale>
<asrwt>0</asrwt>
<pdfrwt beam="1">  1       21 0.31432030E-01 0.42941594E+03</pdfrwt>
<pdfrwt beam="2">  1       21 0.13906937E+00 0.42941594E+03</pdfrwt>
<totfact> 0.30875184E+03</totfact>
</mgrwt>
</event>
<event>
 4    1  0.4760244E-002  0.4517821E+03  0.7818608E-02  0.1027192E+00
         21   -1    0    0  503  502  0.00000000000E+00  0.00000000000E+00  0.10959058747E+04  0.10959058747E+04  0.00000000000E+00 0. -1.
         21   -1    0    0  501  503 -0.00000000000E+00 -0.00000000000E+00 -0.19143225696E+03  0.19143225696E+03  0.00000000000E+00 0.  1.
    9000007    1    1    2  501    0 -0.18443317726E+03  0.10045642614E+03  0.55819148025E+03  0.71811198225E+03  0.40000000000E+03 0. -1.
   -9000007    1    1    2    0  502  0.18443317726E+03 -0.10045642614E+03  0.34628213749E+03  0.56922614941E+03  0.40000000000E+03 0.  1.
<mgrwt>
<rscale>  2 0.45178213E+03</rscale>
<asrwt>0</asrwt>
<pdfrwt beam="1">  1       21 0.16860090E+00 0.45178213E+03</pdfrwt>
<pdfrwt beam="2">  1       21 0.29451117E-01 0.45178213E+03</pdfrwt>
<totfact> 0.20554328E+03</totfact>
</mgrwt>
</event>
<event>
 4    1  0.4760244E-002  0.5324554E+03  0.7818608E-02  0.1005638E+00
         21   -1    0    0  503  502  0.00000000000E+00  0.00000000000E+00  0.42361169655E+03  0.42361169655E+03  0.00000000000E+00 0.  1.
         21   -1    0    0  501  503 -0.00000000000E+00 -0.00000000000E+00 -0.77125596987E+03  0.77125596987E+03  0.00000000000E+00 0.  1.
    9000007    1    1    2  501    0  0.34907958876E+03 -0.40647169801E+02 -0.39107727151E+03  0.66064376482E+03  0.40000000000E+03 0.  1.
   -9000007    1    1    2    0  502 -0.34907958876E+03  0.40647169801E+02  0.43432998194E+02  0.53422390160E+03  0.40000000000E+03 0.  1.
<mgrwt>
<rscale>  2 0.53245540E+03</rscale>
<asrwt>0</asrwt>
<pdfrwt beam="1">  1       21 0.65171031E-01 0.53245540E+03</pdfrwt>
<pdfrwt beam="2">  1       21 0.11865476E+00 0.53245540E+03</pdfrwt>
<totfact> 0.96802199E+02</totfact>
</mgrwt>
</event>
<event>
 4    1  0.4760244E-002  0.4190886E+03  0.7818608E-02  0.1037363E+00
         21   -1    0    0  503  502  0.00000000000E+00  0.00000000000E+00  0.17244795901E+03  0.17244795901E+03  0.00000000000E+00 0. -1.
         21   -1    0    0  501  503 -0.00000000000E+00 -0.00000000000E+00 -0.13016704490E+04  0.13016704490E+04  0.00000000000E+00 0. -1.
    9000007    1    1    2  501    0 -0.10889664703E+03 -0.61455432927E+02 -0.90839799884E+03  0.10004110027E+04  0.40000000000E+03 0. -1.
   -9000007    1    1    2    0  502  0.10889664703E+03  0.61455432927E+02 -0.22082449114E+03  0.47370740532E+03  0.40000000000E+03 0. -1.
<mgrwt>
<rscale>  2 0.41908859E+03</rscale>
<asrwt>0</asrwt>
<pdfrwt beam="1">  1       21 0.26530456E-01 0.41908859E+03</pdfrwt>
<pdfrwt beam="2">  1       21 0.20025699E+00 0.41908859E+03</pdfrwt>
<totfact> 0.15423611E+03</totfact>
</mgrwt>
</event>
<event>
 4    1  0.4760244E-002  0.6162822E+03  0.7818608E-02  0.9872190E-01
         21   -1    0    0  503  502  0.00000000000E+00  0.00000000000E+00  0.42692263295E+03  0.42692263295E+03  0.00000000000E+00 0. -1.
         21   -1    0    0  501  503 -0.00000000000E+00 -0.00000000000E+00 -0.16020576361E+04  0.16020576361E+04  0.00000000000E+00 0.  1.
    9000007    1    1    2  501    0 -0.24108395578E+03 -0.40209728646E+03 -0.12640845852E+04  0.14063120351E+04  0.40000000000E+03 0.  1.
   -9000007    1    1    2    0  502  0.24108395578E+03  0.40209728646E+03  0.88949581994E+02  0.62266823402E+03  0.40000000000E+03 0. -1.
<mgrwt>
<rscale>  2 0.61628216E+03</rscale>
<asrwt>0</asrwt>
<pdfrwt beam="1">  1       21 0.65680405E-01 0.61628216E+03</pdfrwt>
<pdfrwt beam="2">  1       21 0.24647040E+00 0.61628216E+03</pdfrwt>
<totfact> 0.10782492E+02</totfact>
</mgrwt>
</event>
<event>
 4    1  0.4760244E-002  0.4013769E+03  0.7818608E-02  0.1043304E+00
         21   -1    0    0  503  502  0.00000000000E+00  0.00000000000E+00  0.10557855850E+04  0.10557855850E+04  0.00000000000E+00 0.  1.
         21   -1    0    0  501  503 -0.00000000000E+00 -0.00000000000E+00 -0.16993005476E+03  0.16993005476E+03  0.00000000000E+00 0.  1.
    9000007    1    1    2  501    0  0.32397418209E+02  0.73380418756E+01  0.63869347096E+03  0.75434262071E+03  0.40000000000E+03 0.  1.
   -9000007    1    1    2    0  502 -0.32397418209E+02 -0.73380418756E+01  0.24716205931E+03  0.47137301909E+03  0.40000000000E+03 0.  1.
<mgrwt>
<rscale>  2 0.40137693E+03</rscale>
<asrwt>0</asrwt>
<pdfrwt beam="1">  1       21 0.16242855E+00 0.40137693E+03</pdfrwt>
<pdfrwt beam="2">  1       21 0.26143086E-01 0.40137693E+03</pdfrwt>
<totfact> 0.29470979E+03</totfact>
</mgrwt>
</event>
<event>
 4    1  0.4760244E-002  0.4432430E+03  0.7818608E-02  0.1029756E+00
         21   -1    0    0  501  502  0.00000000000E+00  0.00000000000E+00  0.47610030326E+03  0.47610030326E+03  0.00000000000E+00 0.  1.
         21   -1    0    0  502  503 -0.00000000000E+00 -0.00000000000E+00 -0.47248469786E+03  0.47248469786E+03  0.00000000000E+00 0.  1.
    9000007    1    1    2  501    0  0.17888214869E+03  0.66824477547E+02  0.17058631991E+03  0.47493581299E+03  0.40000000000E+03 0.  1.
   -9000007    1    1    2    0  503 -0.17888214869E+03 -0.66824477547E+02 -0.16697071451E+03  0.47364918813E+03  0.40000000000E+03 0.  1.
<mgrwt>
<rscale>  2 0.44324297E+03</rscale>
<asrwt>0</asrwt>
<pdfrwt beam="1">  1       21 0.73246200E-01 0.44324297E+03</pdfrwt>
<pdfrwt beam="2">  1       21 0.72689954E-01 0.44324297E+03</pdfrwt>
<totfact> 0.24842574E+03</totfact>
</mgrwt>
</event>
<event>
 4    1  0.4760244E-002  0.5254045E+03  0.7818608E-02  0.1007353E+00
         21   -1    0    0  503  502  0.00000000000E+00  0.00000000000E+00  0.62818560704E+03  0.62818560704E+03  0.00000000000E+00 0. -1.
         21   -1    0    0  501  503 -0.00000000000E+00 -0.00000000000E+00 -0.75770715659E+03  0.75770715659E+03  0.00000000000E+00 0.  1.
    9000007    1    1    2  501    0 -0.30687114735E+03 -0.14791880615E+03  0.38434109020E+03  0.65097461388E+03  0.40000000000E+03 0.  1.
   -9000007    1    1    2    0  502  0.30687114735E+03  0.14791880615E+03 -0.51386263976E+03  0.73491814975E+03  0.40000000000E+03 0. -1.
<mgrwt>
<rscale>  2 0.52540449E+03</rscale>
<asrwt>0</asrwt>
<pdfrwt beam="1">  1       21 0.96643939E-01 0.52540449E+03</pdfrwt>
<pdfrwt beam="2">  1       21 0.11657033E+00 0.52540449E+03</pdfrwt>
<totfact> 0.40712803E+02</totfact>
</mgrwt>
</event>
<event>
 4    1  0.4760244E-002  0.5933768E+03  0.7818608E-02  0.9919243E-01
         21   -1    0    0  501  502  0.00000000000E+00  0.00000000000E+00  0.76214476849E+03  0.76214476849E+03  0.00000000000E+00 0. -1.
         21   -1    0    0  502  503 -0.00000000000E+00 -0.00000000000E+00 -0.48217299145E+03  0.48217299145E+03  0.00000000000E+00 0.  1.
    9000007    1    1    2  501    0 -0.30785423018E+03 -0.31196446974E+03  0.26730520757E+03  0.65080575552E+03  0.40000000000E+03 0.  1.
   -9000007    1    1    2    0  503  0.30785423018E+03  0.31196446974E+03  0.12666569466E+02  0.59351200443E+03  0.40000000000E+03 0. -1.
<mgrwt>
<rscale>  2 0.59337683E+03</rscale>
<asrwt>0</asrwt>
<pdfrwt beam="1">  1       21 0.11725304E+00 0.59337683E+03</pdfrwt>
<pdfrwt beam="2">  1       21 0.74180461E-01 0.59337683E+03</pdfrwt>
<totfact> 0.72935739E+02</totfact>
</mgrwt>
</event>
<event>
 4    1  0.4760244E-002  0.5825344E+03  0.7818608E-02  0.9942319E-01
         21   -1    0    0  503  502  0.00000000000E+00  0.00000000000E+00  0.13772524700E+04  0.13772524700E+04  0.00000000000E+00 0.  1.
         21   -1    0    0  501  503 -0.00000000000E+00 -0.00000000000E+00 -0.30344420810E+03  0.30344420810E+03  0.00000000000E+00 0. -1.
    9000007    1    1    2  501    0  0.29047693316E+03  0.30817125790E+03  0.90127996395E+03  0.10731504770E+04  0.40000000000E+03 0.  1.
   -9000007    1    1    2    0  502 -0.29047693316E+03 -0.30817125790E+03  0.17252829799E+03  0.60754620112E+03  0.40000000000E+03 0. -1.
<mgrwt>
<rscale>  2 0.58253444E+03</rscale>
<asrwt>0</asrwt>
<pdfrwt beam="1">  1       21 0.21188499E+00 0.58253444E+03</pdfrwt>
<pdfrwt beam="2">  1       21 0.46683725E-01 0.58253444E+03</pdfrwt>
<totfact> 0.38227981E+02</totfact>
</mgrwt>
</event>
<event>
 4    1  0.4760244E-002  0.4182691E+03  0.7818608E-02  0.1037631E+00
         21   -1    0    0  501  502  0.00000000000E+00  0.00000000000E+00  0.58600966250E+03  0.58600966250E+03  0.00000000000E+00 0.  1.
         21   -1    0    0  502  503 -0.00000000000E+00 -0.00000000000E+00 -0.37752772317E+03  0.37752772317E+03  0.00000000000E+00 0. -1.
    9000007    1    1    2  501    0  0.95437259438E+02 -0.76424829340E+02  0.32460259685E+03  0.52944864804E+03  0.40000000000E+03 0.  1.
   -9000007    1    1    2    0  503 -0.95437259438E+02  0.76424829340E+02 -0.11612065752E+03  0.43408873762E+03  0.40000000000E+03 0. -1.
<mgrwt>
<rscale>  2 0.41826908E+03</rscale>
<asrwt>0</asrwt>
<pdfrwt beam="1">  1       21 0.90155333E-01 0.41826908E+03</pdfrwt>
<pdfrwt beam="2">  1       21 0.58081188E-01 0.41826908E+03</pdfrwt>
<totfact> 0.25511469E+03</totfact>
</mgrwt>
</event>
<event>
 4    1  0.4760244E-002  0.4241961E+03  0.7818608E-02  0.1035709E+00
         21   -1    0    0  501  502  0.00000000000E+00  0.00000000000E+00  0.48663512492E+03  0.48663512492E+03  0.00000000000E+00 0. -1.
         21   -1    0    0  502  503 -0.00000000000E+00 -0.00000000000E+00 -0.37664031076E+03  0.37664031076E+03  0.00000000000E+00 0. -1.
    9000007    1    1    2  501    0  0.43080309227E+02 -0.13448568827E+03 -0.33059180045E+01  0.42420896087E+03  0.40000000000E+03 0. -1.
   -9000007    1    1    2    0  503 -0.43080309227E+02  0.13448568827E+03  0.11330073217E+03  0.43906647481E+03  0.40000000000E+03 0. -1.
<mgrwt>
<rscale>  2 0.42419608E+03</rscale>
<asrwt>0</asrwt>
<pdfrwt beam="1">  1       21 0.74866942E-01 0.42419608E+03</pdfrwt>
<pdfrwt beam="2">  1       21 0.57944663E-01 0.42419608E+03</pdfrwt>
<totfact> 0.39374571E+03</totfact>
</mgrwt>
</event>
<event>
 4    1  0.4760244E-002  0.6603393E+03  0.7818608E-02  0.9787569E-01
         21   -1    0    0  501  502  0.00000000000E+00  0.00000000000E+00  0.49236915337E+03  0.49236915337E+03  0.00000000000E+00 0. -1.
         21   -1    0    0  502  503 -0.00000000000E+00 -0.00000000000E+00 -0.91007344882E+03  0.91007344882E+03  0.00000000000E+00 0. -1.
    9000007    1    1    2  501    0 -0.36996744179E+03  0.37305777111E+03 -0.93889074638E+02  0.66698063458E+03  0.40000000000E+03 0. -1.
   -9000007    1    1    2    0  503  0.36996744179E+03 -0.37305777111E+03 -0.32381522081E+03  0.73546196761E+03  0.40000000000E+03 0. -1.
<mgrwt>
<rscale>  2 0.66033931E+03</rscale>
<asrwt>0</asrwt>
<pdfrwt beam="1">  1       21 0.75749101E-01 0.66033931E+03</pdfrwt>
<pdfrwt beam="2">  1       21 0.14001130E+00 0.66033931E+03</pdfrwt>
<totfact> 0.42821166E+02</totfact>
</mgrwt>
</event>
<event>
 4    1  0.4760244E-002  0.4572208E+03  0.7818608E-02  0.1025590E+00
         21   -1    0    0  503  502  0.00000000000E+00  0.00000000000E+00  0.58619956668E+03  0.58619956668E+03  0.00000000000E+00 0. -1.
         21   -1    0    0  501  503 -0.00000000000E+00 -0.00000000000E+00 -0.47411609124E+03  0.47411609124E+03  0.00000000000E+00 0.  1.
    9000007    1    1    2  501    0  0.37058720539E+02 -0.21835177571E+03 -0.20787893814E+03  0.50225939478E+03  0.40000000000E+03 0.  1.
   -9000007    1    1    2    0  502 -0.37058720539E+02  0.21835177571E+03  0.31996241358E+03  0.55805626314E+03  0.40000000000E+03 0. -1.
<mgrwt>
<rscale>  2 0.45722079E+03</rscale>
<asrwt>0</asrwt>
<pdfrwt beam="1">  1       21 0.90184549E-01 0.45722079E+03</pdfrwt>
<pdfrwt beam="2">  1       21 0.72940937E-01 0.45722079E+03</pdfrwt>
<totfact> 0.15136541E+03</totfact>
</mgrwt>
</event>
<event>
 4    1  0.4760244E-002  0.4348581E+03  0.7818608E-02  0.1032336E+00
         21   -1    0    0  503  502  0.00000000000E+00  0.00000000000E+00  0.11323573791E+04  0.11323573791E+04  0.00000000000E+00 0.  1.
         21   -1    0    0  501  503 -0.00000000000E+00 -0.00000000000E+00 -0.60306157502E+03  0.60306157502E+03  0.00000000000E+00 0.  1.
    9000007    1    1    2  501    0 -0.16514626664E+03  0.42757950267E+02 -0.47320258335E+03  0.64266804540E+03  0.40000000000E+03 0.  1.
   -9000007    1    1    2    0  502  0.16514626664E+03 -0.42757950267E+02  0.10024983874E+04  0.10927509087E+04  0.40000000000E+03 0.  1.
<mgrwt>
<rscale>  2 0.43485806E+03</rscale>
<asrwt>0</asrwt>
<pdfrwt beam="1">  1       21 0.17420883E+00 0.43485806E+03</pdfrwt>
<pdfrwt beam="2">  1       21 0.92778704E-01 0.43485806E+03</pdfrwt>
<totfact> 0.15919907E+02</totfact>
</mgrwt>
</event>
<event>
 4    1  0.4760244E-002  0.4399055E+03  0.7818608E-02  0.1030776E+00
         21   -1    0    0  503  502  0.00000000000E+00  0.00000000000E+00  0.16824635069E+03  0.16824635069E+03  0.00000000000E+00 0. -1.
         21   -1    0    0  501  503 -0.00000000000E+00 -0.00000000000E+00 -0.11571495975E+04  0.11571495975E+04  0.00000000000E+00 0. -1.
    9000007    1    1    2  501    0  0.17536720399E+03 -0.52566045849E+02 -0.54581110295E+03  0.70101826333E+03  0.40000000000E+03 0. -1.
   -9000007    1    1    2    0  502 -0.17536720399E+03  0.52566045849E+02 -0.44309214389E+03  0.62437768489E+03  0.40000000000E+03 0. -1.
<mgrwt>
<rscale>  2 0.43990550E+03</rscale>
<asrwt>0</asrwt>
<pdfrwt beam="1">  1       21 0.25884055E-01 0.43990550E+03</pdfrwt>
<pdfrwt beam="2">  1       21 0.17802301E+00 0.43990550E+03</pdfrwt>
<totfact> 0.22777834E+03</totfact>
</mgrwt>
</event>
<event>
 4    1  0.4760244E-002  0.4143886E+03  0.7818608E-02  0.1038908E+00
         21   -1    0    0  501  502  0.00000000000E+00  0.00000000000E+00  0.37187092141E+03  0.37187092141E+03  0.00000000000E+00 0.  1.
         21   -1    0    0  502  503 -0.00000000000E+00 -0.00000000000E+00 -0.10628389055E+04  0.10628389055E+04  0.00000000000E+00 0.  1.
    9000007    1    1    2  501    0  0.99360945658E+02  0.42957128818E+02  0.19398114423E+03  0.45754409269E+03  0.40000000000E+03 0.  1.
   -9000007    1    1    2    0  503 -0.99360945658E+02 -0.42957128818E+02 -0.88494912831E+03  0.97716573422E+03  0.40000000000E+03 0.  1.
<mgrwt>
<rscale>  2 0.41438860E+03</rscale>
<asrwt>0</asrwt>
<pdfrwt beam="1">  1       21 0.57210912E-01 0.41438860E+03</pdfrwt>
<pdfrwt beam="2">  1       21 0.16351367E+00 0.41438860E+03</pdfrwt>
<totfact> 0.57686958E+02</totfact>
</mgrwt>
</event>
<event>
 4    1  0.4760244E-002  0.5091204E+03  0.7818608E-02  0.1011425E+00
         21   -1    0    0  503  502  0.00000000000E+00  0.00000000000E+00  0.62532348780E+03  0.62532348780E+03  0.00000000000E+00 0.  1.
         21   -1    0    0  501  503 -0.00000000000E+00 -0.00000000000E+00 -0.46466408808E+03  0.46466408808E+03  0.00000000000E+00 0.  1.
    9000007    1    1    2  501    0  0.18404272589E+03 -0.25560098645E+03  0.25937790497E+03  0.57138470999E+03  0.40000000000E+03 0.  1.
   -9000007    1    1    2    0  502 -0.18404272589E+03  0.25560098645E+03 -0.98718505246E+02  0.51860286589E+03  0.40000000000E+03 0.  1.
<mgrwt>
<rscale>  2 0.50912041E+03</rscale>
<asrwt>0</asrwt>
<pdfrwt beam="1">  1       21 0.96203614E-01 0.50912041E+03</pdfrwt>
<pdfrwt beam="2">  1       21 0.71486783E-01 0.50912041E+03</pdfrwt>
<totfact> 0.13320922E+03</totfact>
</mgrwt>
</event>
<event>
 4    1  0.4760244E-002  0.4166460E+03  0.7818608E-02  0.1038163E+00
         21   -1    0    0  503  502  0.00000000000E+00  0.00000000000E+00  0.31498976798E+03  0.31498976798E+03  0.00000000000E+00 0.  1.
         21   -1    0    0  501  503 -0.00000000000E+00 -0.00000000000E+00 -0.59350175990E+03  0.59350175990E+03  0.00000000000E+00 0. -1.
    9000007    1    1    2  501    0  0.11533432562E+03  0.17083862245E+02 -0.17854796300E+02  0.41702836686E+03  0.40000000000E+03 0.  1.
   -9000007    1    1    2    0  502 -0.11533432562E+03 -0.17083862245E+02 -0.26065719562E+03  0.49146316102E+03  0.40000000000E+03 0. -1.
<mgrwt>
<rscale>  2 0.41664597E+03</rscale>
<asrwt>0</asrwt>
<pdfrwt beam="1">  1       21 0.48459965E-01 0.41664597E+03</pdfrwt>
<pdfrwt beam="2">  1       21 0.91307962E-01 0.41664597E+03</pdfrwt>
<totfact> 0.36520040E+03</totfact>
</mgrwt>
</event>
<event>
 4    1  0.4760244E-002  0.6958955E+03  0.7818608E-02  0.9724277E-01
         21   -1    0    0  503  502  0.00000000000E+00  0.00000000000E+00  0.74262365187E+03  0.74262365187E+03  0.00000000000E+00 0.  1.
         21   -1    0    0  501  503 -0.00000000000E+00 -0.00000000000E+00 -0.92544503248E+03  0.92544503248E+03  0.00000000000E+00 0.  1.
    9000007    1    1    2  501    0  0.37926352038E+03  0.42477017244E+03 -0.54468195251E+03  0.88371315860E+03  0.40000000000E+03 0.  1.
   -9000007    1    1    2    0  502 -0.37926352038E+03 -0.42477017244E+03  0.36186057190E+03  0.78435552576E+03  0.40000000000E+03 0.  1.
<mgrwt>
<rscale>  2 0.69589548E+03</rscale>
<asrwt>0</asrwt>
<pdfrwt beam="1">  1       21 0.11424979E+00 0.69589548E+03</pdfrwt>
<pdfrwt beam="2">  1       21 0.14237616E+00 0.69589548E+03</pdfrwt>
<totfact> 0.14998882E+02</totfact>
</mgrwt>
</event>
<event>
 4    1  0.4760244E-002  0.4152790E+03  0.7818608E-02  0.1038614E+00
         21   -1    0    0  503  502  0.00000000000E+00  0.00000000000E+00  0.58231268917E+03  0.58231268917E+03  0.00000000000E+00 0. -1.
         21   -1    0    0  501  503 -0.00000000000E+00 -0.00000000000E+00 -0.46472156167E+03  0.46472156167E+03  0.00000000000E+00 0. -1.
    9000007    1    1    2  501    0  0.91191329828E+02  0.64349127329E+02 -0.25649871736E+03  0.48810681293E+03  0.40000000000E+03 0. -1.
   -9000007    1    1    2    0  502 -0.91191329828E+02 -0.64349127329E+02  0.37408984486E+03  0.55892743791E+03  0.40000000000E+03 0. -1.
<mgrwt>
<rscale>  2 0.41527903E+03</rscale>
<asrwt>0</asrwt>
<pdfrwt beam="1">  1       21 0.89586568E-01 0.41527903E+03</pdfrwt>
<pdfrwt beam="2">  1       21 0.71495625E-01 0.41527903E+03</pdfrwt>
<totfact> 0.16361354E+03</totfact>
</mgrwt>
</event>
<event>
 4    1  0.4760244E-002  0.4453153E+03  0.7818608E-02  0.1029128E+00
         21   -1    0    0  503  502  0.00000000000E+00  0.00000000000E+00  0.14249471044E+04  0.14249471044E+04  0.00000000000E+00 0. -1.
         21   -1    0    0  501  503 -0.00000000000E+00 -0.00000000000E+00 -0.14559802154E+03  0.14559802154E+03  0.00000000000E+00 0.  1.
    9000007    1    1    2  501    0 -0.19530868786E+03  0.12656754601E+02  0.80471148386E+03  0.91970987232E+03  0.40000000000E+03 0. -1.
   -9000007    1    1    2    0  502  0.19530868786E+03 -0.12656754601E+02  0.47463759904E+03  0.65083525366E+03  0.40000000000E+03 0.  1.
<mgrwt>
<rscale>  2 0.44531526E+03</rscale>
<asrwt>0</asrwt>
<pdfrwt beam="1">  1       21 0.21922262E+00 0.44531526E+03</pdfrwt>
<pdfrwt beam="2">  1       21 0.22399697E-01 0.44531526E+03</pdfrwt>
<totfact> 0.15917768E+03</totfact>
</mgrwt>
</event>
<event>
 4    1  0.4760244E-002  0.4439459E+03  0.7818608E-02  0.1029543E+00
         21   -1    0    0  501  502  0.00000000000E+00  0.00000000000E+00  0.12402906933E+04  0.12402906933E+04  0.00000000000E+00 0. -1.
         21   -1    0    0  502  503 -0.00000000000E+00 -0.00000000000E+00 -0.15899243512E+03  0.15899243512E+03  0.00000000000E+00 0. -1.
    9000007    1    1    2  501    0  0.70031796954E+02  0.17939751158E+03  0.55709190509E+03  0.71234774546E+03  0.40000000000E+03 0. -1.
   -9000007    1    1    2    0  503 -0.70031796954E+02 -0.17939751158E+03  0.52420635311E+03  0.68693538298E+03  0.40000000000E+03 0. -1.
<mgrwt>
<rscale>  2 0.44394585E+03</rscale>
<asrwt>0</asrwt>
<pdfrwt beam="1">  1       21 0.19081395E+00 0.44394585E+03</pdfrwt>
<pdfrwt beam="2">  1       21 0.24460375E-01 0.44394585E+03</pdfrwt>
<totfact> 0.20687781E+03</totfact>
</mgrwt>
</event>
<event>
 4    1  0.4760244E-002  0.5713204E+03  0.7818608E-02  0.9966761E-01
         21   -1    0    0  501  502  0.00000000000E+00  0.00000000000E+00  0.89964578766E+03  0.89964578766E+03  0.00000000000E+00 0.  1.
         21   -1    0    0  502  503 -0.00000000000E+00 -0.00000000000E+00 -0.37186905633E+03  0.37186905633E+03  0.00000000000E+00 0. -1.
    9000007    1    1    2  501    0 -0.25631293473E+03  0.31734936884E+03  0.36307790299E+03  0.67692873041E+03  0.40000000000E+03 0.  1.
   -9000007    1    1    2    0  503  0.25631293473E+03 -0.31734936884E+03  0.16469882834E+03  0.59458611358E+03  0.40000000000E+03 0.  1.
<mgrwt>
<rscale>  2 0.57132035E+03</rscale>
<asrwt>0</asrwt>
<pdfrwt beam="1">  1       21 0.13840704E+00 0.57132035E+03</pdfrwt>
<pdfrwt beam="2">  1       21 0.57210624E-01 0.57132035E+03</pdfrwt>
<totfact> 0.85299259E+02</totfact>
</mgrwt>
</event>
<event>
 4    1  0.4760244E-002  0.4821237E+03  0.7818608E-02  0.1018553E+00
         21   -1    0    0  503  502  0.00000000000E+00  0.00000000000E+00  0.39778560314E+03  0.39778560314E+03  0.00000000000E+00 0. -1.
         21   -1    0    0  501  503 -0.00000000000E+00 -0.00000000000E+00 -0.10060497382E+04  0.10060497382E+04  0.00000000000E+00 0. -1.
    9000007    1    1    2  501    0  0.64601894511E+02  0.26128507263E+03 -0.75857739307E+03  0.89882309451E+03  0.40000000000E+03 0. -1.
   -9000007    1    1    2    0  502 -0.64601894511E+02 -0.26128507263E+03  0.15031325799E+03  0.50501224686E+03  0.40000000000E+03 0. -1.
<mgrwt>
<rscale>  2 0.48212373E+03</rscale>
<asrwt>0</asrwt>
<pdfrwt beam="1">  1       21 0.61197786E-01 0.48212373E+03</pdfrwt>
<pdfrwt beam="2">  1       21 0.15477688E+00 0.48212373E+03</pdfrwt>
<totfact> 0.56201483E+02</totfact>
</mgrwt>
</event>
<event>
 4    1  0.4760244E-002  0.4161792E+03  0.7818608E-02  0.1038317E+00
         21   -1    0    0  501  502  0.00000000000E+00  0.00000000000E+00  0.74183904695E+03  0.74183904695E+03  0.00000000000E+00 0. -1.
         21   -1    0    0  502  503 -0.00000000000E+00 -0.00000000000E+00 -0.34952409473E+03  0.34952409473E+03  0.00000000000E+00 0. -1.
    9000007    1    1    2  501    0  0.11385024841E+03  0.15596847811E+02  0.51057796360E+03  0.65870706512E+03  0.40000000000E+03 0. -1.
   -9000007    1    1    2    0  503 -0.11385024841E+03 -0.15596847811E+02 -0.11826301137E+03  0.43265607656E+03  0.40000000000E+03 0. -1.
<mgrwt>
<rscale>  2 0.41617922E+03</rscale>
<asrwt>0</asrwt>
<pdfrwt beam="1">  1       21 0.11412908E+00 0.41617922E+03</pdfrwt>
<pdfrwt beam="2">  1       21 0.53772938E-01 0.41617922E+03</pdfrwt>
<totfact> 0.16997801E+03</totfact>
</mgrwt>
</event>
<event>
 4    1  0.4760244E-002  0.4190868E+03  0.7818608E-02  0.1037364E+00
         21   -1    0    0  503  502  0.00000000000E+00  0.00000000000E+00  0.10991293067E+04  0.10991293067E+04  0.00000000000E+00 0.  1.
         21   -1    0    0  501  503 -0.00000000000E+00 -0.00000000000E+00 -0.18268269458E+03  0.18268269458E+03  0.00000000000E+00 0.  1.
    9000007    1    1    2  501    0  0.12442269695E+03 -0.12359640434E+02  0.23136198176E+03  0.47870882051E+03  0.40000000000E+03 0.  1.
   -9000007    1    1    2    0  502 -0.12442269695E+03  0.12359640434E+02  0.68508463038E+03  0.80310318080E+03  0.40000000000E+03 0.  1.
<mgrwt>
<rscale>  2 0.41908683E+03</rscale>
<asrwt>0</asrwt>
<pdfrwt beam="1">  1       21 0.16909681E+00 0.41908683E+03</pdfrwt>
<pdfrwt beam="2">  1       21 0.28105031E-01 0.41908683E+03</pdfrwt>
<totfact> 0.22664237E+03</totfact>
</mgrwt>
</event>
<event>
 4    1  0.4760244E-002  0.4719400E+03  0.7818608E-02  0.1021374E+00
         21   -1    0    0  503  502  0.00000000000E+00  0.00000000000E+00  0.93185038415E+03  0.93185038415E+03  0.00000000000E+00 0.  1.
         21   -1    0    0  501  503 -0.00000000000E+00 -0.00000000000E+00 -0.31268902594E+03  0.31268902594E+03  0.00000000000E+00 0.  1.
    9000007    1    1    2  501    0 -0.89290244557E+02 -0.23399698600E+03  0.75326512892E+01  0.47200008270E+03  0.40000000000E+03 0.  1.
   -9000007    1    1    2    0  502  0.89290244557E+02  0.23399698600E+03  0.61162870692E+03  0.77253932739E+03  0.40000000000E+03 0.  1.
<mgrwt>
<rscale>  2 0.47193997E+03</rscale>
<asrwt>0</asrwt>
<pdfrwt beam="1">  1       21 0.14336160E+00 0.47193997E+03</pdfrwt>
<pdfrwt beam="2">  1       21 0.48106004E-01 0.47193997E+03</pdfrwt>
<totfact> 0.11682600E+03</totfact>
</mgrwt>
</event>
<event>
 4    1  0.4760244E-002  0.8791947E+03  0.7818608E-02  0.9451969E-01
         21   -1    0    0  501  502  0.00000000000E+00  0.00000000000E+00  0.92519291698E+03  0.92519291698E+03  0.00000000000E+00 0. -1.
         21   -1    0    0  502  503 -0.00000000000E+00 -0.00000000000E+00 -0.93248344061E+03  0.93248344061E+03  0.00000000000E+00 0.  1.
    9000007    1    1    2  501    0  0.36123558486E+03 -0.69461655171E+03  0.29592969547E+03  0.92766248514E+03  0.40000000000E+03 0. -1.
   -9000007    1    1    2    0  503 -0.36123558486E+03  0.69461655171E+03 -0.30322021911E+03  0.93001387245E+03  0.40000000000E+03 0.  1.
<mgrwt>
<rscale>  2 0.87919469E+03</rscale>
<asrwt>0</asrwt>
<pdfrwt beam="1">  1       21 0.14233737E+00 0.87919469E+03</pdfrwt>
<pdfrwt beam="2">  1       21 0.14345899E+00 0.87919469E+03</pdfrwt>
<totfact> 0.78102868E+01</totfact>
</mgrwt>
</event>
<event>
 4    1  0.4760244E-002  0.5473132E+03  0.7818608E-02  0.1002118E+00
         21   -1    0    0  501  502  0.00000000000E+00  0.00000000000E+00  0.46785816635E+03  0.46785816635E+03  0.00000000000E+00 0. -1.
         21   -1    0    0  502  503 -0.00000000000E+00 -0.00000000000E+00 -0.78586438772E+03  0.78586438772E+03  0.00000000000E+00 0.  1.
    9000007    1    1    2  501    0 -0.30683247987E+03 -0.21308583695E+03 -0.42882804542E+03  0.69530226316E+03  0.40000000000E+03 0.  1.
   -9000007    1    1    2    0  503  0.30683247987E+03  0.21308583695E+03  0.11082182405E+03  0.55842029091E+03  0.40000000000E+03 0. -1.
<mgrwt>
<rscale>  2 0.54731321E+03</rscale>
<asrwt>0</asrwt>
<pdfrwt beam="1">  1       21 0.71978180E-01 0.54731321E+03</pdfrwt>
<pdfrwt beam="2">  1       21 0.12090221E+00 0.54731321E+03</pdfrwt>
<totfact> 0.73381806E+02</totfact>
</mgrwt>
</event>
<event>
 4    1  0.4760244E-002  0.4142059E+03  0.7818608E-02  0.1038969E+00
         21   -1    0    0  501  502  0.00000000000E+00  0.00000000000E+00  0.41068505481E+03  0.41068505481E+03  0.00000000000E+00 0.  1.
         21   -1    0    0  502  503 -0.00000000000E+00 -0.00000000000E+00 -0.41872443267E+03  0.41872443267E+03  0.00000000000E+00 0.  1.
    9000007    1    1    2  501    0 -0.10263859742E+03 -0.32122187863E+02 -0.23954264047E+02  0.41489796746E+03  0.40000000000E+03 0.  1.
   -9000007    1    1    2    0  503  0.10263859742E+03  0.32122187863E+02  0.15914886188E+02  0.41451152003E+03  0.40000000000E+03 0.  1.
<mgrwt>
<rscale>  2 0.41420589E+03</rscale>
<asrwt>0</asrwt>
<pdfrwt beam="1">  1       21 0.63182317E-01 0.41420589E+03</pdfrwt>
<pdfrwt beam="2">  1       21 0.64419143E-01 0.41420589E+03</pdfrwt>
<totfact> 0.45811462E+03</totfact>
</mgrwt>
</event>
<event>
 4    1  0.4760244E-002  0.5794259E+03  0.7818608E-02  0.9949035E-01
         21   -1    0    0  503  502  0.00000000000E+00  0.00000000000E+00  0.38329825224E+03  0.38329825224E+03  0.00000000000E+00 0.  1.
         21   -1    0    0  501  503 -0.00000000000E+00 -0.00000000000E+00 -0.17302135315E+04  0.17302135315E+04  0.00000000000E+00 0.  1.
    9000007    1    1    2  501    0  0.35613679109E+03  0.22113561340E+03 -0.14160170240E+04  0.15299799298E+04  0.40000000000E+03 0.  1.
   -9000007    1    1    2    0  502 -0.35613679109E+03 -0.22113561340E+03  0.69101744667E+02  0.58353185397E+03  0.40000000000E+03 0.  1.
<mgrwt>
<rscale>  2 0.57942590E+03</rscale>
<asrwt>0</asrwt>
<pdfrwt beam="1">  1       21 0.58968963E-01 0.57942590E+03</pdfrwt>
<pdfrwt beam="2">  1       21 0.26618669E+00 0.57942590E+03</pdfrwt>
<totfact> 0.10512369E+02</totfact>
</mgrwt>
</event>
<event>
 4    1  0.4760244E-002  0.5274540E+03  0.7818608E-02  0.1006851E+00
         21   -1    0    0  501  502  0.00000000000E+00  0.00000000000E+00  0.49310635925E+03  0.49310635925E+03  0.00000000000E+00 0. -1.
         21   -1    0    0  502  503 -0.00000000000E+00 -0.00000000000E+00 -0.12598307709E+04  0.12598307709E+04  0.00000000000E+00 0. -1.
    9000007    1    1    2  501    0  0.34073628480E+03  0.45896366867E+02  0.26792339531E+03  0.59160006594E+03  0.40000000000E+03 0. -1.
   -9000007    1    1    2    0  503 -0.34073628480E+03 -0.45896366867E+02 -0.10346478070E+04  0.11613370642E+04  0.40000000000E+03 0. -1.
<mgrwt>
<rscale>  2 0.52745397E+03</rscale>
<asrwt>0</asrwt>
<pdfrwt beam="1">  1       21 0.75862518E-01 0.52745397E+03</pdfrwt>
<pdfrwt beam="2">  1       21 0.19382012E+00 0.52745397E+03</pdfrwt>
<totfact> 0.17747051E+02</totfact>
</mgrwt>
</event>
<event>
 4    1  0.4760244E-002  0.4895940E+03  0.7818608E-02  0.1016531E+00
         21   -1    0    0  503  502  0.00000000000E+00  0.00000000000E+00  0.52444846907E+03  0.52444846907E+03  0.00000000000E+00 0. -1.
         21   -1    0    0  501  503 -0.00000000000E+00 -0.00000000000E+00 -0.16097811681E+04  0.16097811681E+04  0.00000000000E+00 0.  1.
    9000007    1    1    2  501    0 -0.22768794105E+03  0.16691451329E+03 -0.14456723601E+04  0.15263259239E+04  0.40000000000E+03 0.  1.
   -9000007    1    1    2    0  502  0.22768794105E+03 -0.16691451329E+03  0.36033966107E+03  0.60790371325E+03  0.40000000000E+03 0. -1.
<mgrwt>
<rscale>  2 0.48959397E+03</rscale>
<asrwt>0</asrwt>
<pdfrwt beam="1">  1       21 0.80684379E-01 0.48959397E+03</pdfrwt>
<pdfrwt beam="2">  1       21 0.24765864E+00 0.48959397E+03</pdfrwt>
<totfact> 0.70561768E+01</totfact>
</mgrwt>
</event>
<event>
 4    1  0.4760244E-002  0.4242354E+03  0.7818608E-02  0.1035697E+00
         21   -1    0    0  503  502  0.00000000000E+00  0.00000000000E+00  0.82276788400E+03  0.82276788400E+03  0.00000000000E+00 0. -1.
         21   -1    0    0  501  503 -0.00000000000E+00 -0.00000000000E+00 -0.62311587659E+03  0.62311587659E+03  0.00000000000E+00 0.  1.
    9000007    1    1    2  501    0  0.13852741126E+03 -0.28032130939E+02 -0.48255792043E+03  0.64252454475E+03  0.40000000000E+03 0.  1.
   -9000007    1    1    2    0  502 -0.13852741126E+03  0.28032130939E+02  0.68220992784E+03  0.80335921584E+03  0.40000000000E+03 0. -1.
<mgrwt>
<rscale>  2 0.42423536E+03</rscale>
<asrwt>0</asrwt>
<pdfrwt beam="1">  1       21 0.12657968E+00 0.42423536E+03</pdfrwt>
<pdfrwt beam="2">  1       21 0.95863981E-01 0.42423536E+03</pdfrwt>
<totfact> 0.35187081E+02</totfact>
</mgrwt>
</event>
<event>
 4    1  0.4760244E-002  0.4546866E+03  0.7818608E-02  0.1026334E+00
         21   -1    0    0  503  502  0.00000000000E+00  0.00000000000E+00  0.39907969439E+03  0.39907969439E+03  0.00000000000E+00 0. -1.
         21   -1    0    0  501  503 -0.00000000000E+00 -0.00000000000E+00 -0.54378100288E+03  0.54378100288E+03  0.00000000000E+00 0. -1.
    9000007    1    1    2  501    0  0.16828899305E+03  0.13571554688E+03 -0.17491691281E+03  0.48717124426E+03  0.40000000000E+03 0. -1.
   -9000007    1    1    2    0  502 -0.16828899305E+03 -0.13571554688E+03  0.30215604316E+02  0.45568945302E+03  0.40000000000E+03 0. -1.
<mgrwt>
<rscale>  2 0.45468659E+03</rscale>
<asrwt>0</asrwt>
<pdfrwt beam="1">  1       21 0.61396876E-01 0.45468659E+03</pdfrwt>
<pdfrwt beam="2">  1       21 0.83658616E-01 0.45468659E+03</pdfrwt>
<totfact> 0.26567977E+03</totfact>
</mgrwt>
</event>
<event>
 4    1  0.4760244E-002  0.4326723E+03  0.7818608E-02  0.1033019E+00
         21   -1    0    0  503  502  0.00000000000E+00  0.00000000000E+00  0.54221876176E+03  0.54221876176E+03  0.00000000000E+00 0.  1.
         21   -1    0    0  501  503 -0.00000000000E+00 -0.00000000000E+00 -0.42642299423E+03  0.42642299423E+03  0.00000000000E+00 0.  1.
    9000007    1    1    2  501    0 -0.49005430390E+02 -0.15749206254E+03 -0.15340122984E+03  0.45906123697E+03  0.40000000000E+03 0.  1.
   -9000007    1    1    2    0  502  0.49005430390E+02  0.15749206254E+03  0.26919699738E+03  0.50958051902E+03  0.40000000000E+03 0.  1.
<mgrwt>
<rscale>  2 0.43267226E+03</rscale>
<asrwt>0</asrwt>
<pdfrwt beam="1">  1       21 0.83418271E-01 0.43267226E+03</pdfrwt>
<pdfrwt beam="2">  1       21 0.65603538E-01 0.43267226E+03</pdfrwt>
<totfact> 0.23287656E+03</totfact>
</mgrwt>
</event>
<event>
 4    1  0.4760244E-002  0.4079897E+03  0.7818608E-02  0.1041048E+00
         21   -1    0    0  503  502  0.00000000000E+00  0.00000000000E+00  0.11434038319E+04  0.11434038319E+04  0.00000000000E+00 0.  1.
         21   -1    0    0  501  503 -0.00000000000E+00 -0.00000000000E+00 -0.22551476330E+03  0.22551476330E+03  0.00000000000E+00 0. -1.
    9000007    1    1    2  501    0  0.18062974589E+02  0.78289828917E+02  0.51441596245E+02  0.41121990004E+03  0.40000000000E+03 0. -1.
   -9000007    1    1    2    0  502 -0.18062974589E+02 -0.78289828917E+02  0.86644747233E+03  0.95769869513E+03  0.40000000000E+03 0.  1.
<mgrwt>
<rscale>  2 0.40798967E+03</rscale>
<asrwt>0</asrwt>
<pdfrwt beam="1">  1       21 0.17590828E+00 0.40798967E+03</pdfrwt>
<pdfrwt beam="2">  1       21 0.34694580E-01 0.40798967E+03</pdfrwt>
<totfact> 0.13372342E+03</totfact>
</mgrwt>
</event>
<event>
 4    1  0.4760244E-002  0.4051807E+03  0.7818608E-02  0.1042000E+00
         21   -1    0    0  503  502  0.00000000000E+00  0.00000000000E+00  0.15083025856E+04  0.15083025856E+04  0.00000000000E+00 0. -1.
         21   -1    0    0  501  503 -0.00000000000E+00 -0.00000000000E+00 -0.29345727633E+03  0.29345727633E+03  0.00000000000E+00 0. -1.
    9000007    1    1    2  501    0 -0.14007402426E+02  0.63048989367E+02 -0.10711416637E+03  0.41910002031E+03  0.40000000000E+03 0. -1.
   -9000007    1    1    2    0  502  0.14007402426E+02 -0.63048989367E+02  0.13219594756E+04  0.13826598416E+04  0.40000000000E+03 0. -1.
<mgrwt>
<rscale>  2 0.40518068E+03</rscale>
<asrwt>0</asrwt>
<pdfrwt beam="1">  1       21 0.23204655E+00 0.40518068E+03</pdfrwt>
<pdfrwt beam="2">  1       21 0.45147274E-01 0.40518068E+03</pdfrwt>
<totfact> 0.33179841E+02</totfact>
</mgrwt>
</event>
<event>
 4    1  0.4760244E-002  0.6372520E+03  0.7818608E-02  0.9830998E-01
         21   -1    0    0  501  502  0.00000000000E+00  0.00000000000E+00  0.18504456210E+03  0.18504456210E+03  0.00000000000E+00 0. -1.
         21   -1    0    0  502  503 -0.00000000000E+00 -0.00000000000E+00 -0.27448131389E+04  0.27448131389E+04  0.00000000000E+00 0. -1.
    9000007    1    1    2  501    0 -0.35622798897E+03  0.34524148797E+03 -0.62397430850E+03  0.89187106849E+03  0.40000000000E+03 0. -1.
   -9000007    1    1    2    0  503  0.35622798897E+03 -0.34524148797E+03 -0.19357942683E+04  0.20379866325E+04  0.40000000000E+03 0. -1.
<mgrwt>
<rscale>  2 0.63725196E+03</rscale>
<asrwt>0</asrwt>
<pdfrwt beam="1">  1       21 0.28468396E-01 0.63725196E+03</pdfrwt>
<pdfrwt beam="2">  1       21 0.42227892E+00 0.63725196E+03</pdfrwt>
<totfact> 0.49315774E+01</totfact>
</mgrwt>
</event>
<event>
 4    1  0.4760244E-002  0.4783676E+03  0.7818608E-02  0.1019585E+00
         21   -1    0    0  503  502  0.00000000000E+00  0.00000000000E+00  0.94995116859E+03  0.94995116859E+03  0.00000000000E+00 0. -1.
         21   -1    0    0  501  503 -0.00000000000E+00 -0.00000000000E+00 -0.26772047893E+03  0.26772047893E+03  0.00000000000E+00 0.  1.
    9000007    1    1    2  501    0  0.19069174709E+03  0.18020050087E+03  0.14838146799E+03  0.50085189724E+03  0.40000000000E+03 0.  1.
   -9000007    1    1    2    0  502 -0.19069174709E+03 -0.18020050087E+03  0.53384922167E+03  0.71681975029E+03  0.40000000000E+03 0. -1.
<mgrwt>
<rscale>  2 0.47836760E+03</rscale>
<asrwt>0</asrwt>
<pdfrwt beam="1">  1       21 0.14614633E+00 0.47836760E+03</pdfrwt>
<pdfrwt beam="2">  1       21 0.41187766E-01 0.47836760E+03</pdfrwt>
<totfact> 0.15316574E+03</totfact>
</mgrwt>
</event>
<event>
 4    1  0.4760244E-002  0.5705472E+03  0.7818608E-02  0.9968469E-01
         21   -1    0    0  503  502  0.00000000000E+00  0.00000000000E+00  0.64901821209E+03  0.64901821209E+03  0.00000000000E+00 0.  1.
         21   -1    0    0  501  503 -0.00000000000E+00 -0.00000000000E+00 -0.58556271171E+03  0.58556271171E+03  0.00000000000E+00 0.  1.
    9000007    1    1    2  501    0 -0.39217914818E+03  0.10825708918E+03 -0.20206956876E+03  0.60527365071E+03  0.40000000000E+03 0.  1.
   -9000007    1    1    2    0  502  0.39217914818E+03 -0.10825708918E+03  0.26552506914E+03  0.62930727309E+03  0.40000000000E+03 0.  1.
<mgrwt>
<rscale>  2 0.57054718E+03</rscale>
<asrwt>0</asrwt>
<pdfrwt beam="1">  1       21 0.99848956E-01 0.57054718E+03</pdfrwt>
<pdfrwt beam="2">  1       21 0.90086571E-01 0.57054718E+03</pdfrwt>
<totfact> 0.69659581E+02</totfact>
</mgrwt>
</event>
<event>
 4    1  0.4760244E-002  0.4588495E+03  0.7818608E-02  0.1025115E+00
         21   -1    0    0  503  502  0.00000000000E+00  0.00000000000E+00  0.60447869377E+03  0.60447869377E+03  0.00000000000E+00 0.  1.
         21   -1    0    0  501  503 -0.00000000000E+00 -0.00000000000E+00 -0.38652299721E+03  0.38652299721E+03  0.00000000000E+00 0.  1.
    9000007    1    1    2  501    0  0.18278328706E+03  0.13089372404E+03 -0.46830672405E+02  0.46123313942E+03  0.40000000000E+03 0.  1.
   -9000007    1    1    2    0  502 -0.18278328706E+03 -0.13089372404E+03  0.26478636897E+03  0.52976855155E+03  0.40000000000E+03 0.  1.
<mgrwt>
<rscale>  2 0.45884954E+03</rscale>
<asrwt>0</asrwt>
<pdfrwt beam="1">  1       21 0.92996723E-01 0.45884954E+03</pdfrwt>
<pdfrwt beam="2">  1       21 0.59465076E-01 0.45884954E+03</pdfrwt>
<totfact> 0.22169482E+03</totfact>
</mgrwt>
</event>
<event>
 4    1  0.4760244E-002  0.4422850E+03  0.7818608E-02  0.1030048E+00
         21   -1    0    0  503  502  0.00000000000E+00  0.00000000000E+00  0.83847426096E+02  0.83847426096E+02  0.00000000000E+00 0.  1.
         21   -1    0    0  501  503 -0.00000000000E+00 -0.00000000000E+00 -0.23435290249E+04  0.23435290249E+04  0.00000000000E+00 0.  1.
    9000007    1    1    2  501    0  0.15803995392E+03  0.10314745347E+03 -0.10484882469E+04  0.11379558990E+04  0.40000000000E+03 0.  1.
   -9000007    1    1    2    0  502 -0.15803995392E+03 -0.10314745347E+03 -0.12111933519E+04  0.12894205520E+04  0.40000000000E+03 0.  1.
<mgrwt>
<rscale>  2 0.44228500E+03</rscale>
<asrwt>0</asrwt>
<pdfrwt beam="1">  1       21 0.12899603E-01 0.44228500E+03</pdfrwt>
<pdfrwt beam="2">  1       21 0.36054296E+00 0.44228500E+03</pdfrwt>
<totfact> 0.61612189E+02</totfact>
</mgrwt>
</event>
<event>
 4    1  0.4760244E-002  0.4140548E+03  0.7818608E-02  0.1039019E+00
         21   -1    0    0  503  502  0.00000000000E+00  0.00000000000E+00  0.90302694561E+03  0.90302694561E+03  0.00000000000E+00 0.  1.
         21   -1    0    0  501  503 -0.00000000000E+00 -0.00000000000E+00 -0.21084516809E+03  0.21084516809E+03  0.00000000000E+00 0.  1.
    9000007    1    1    2  501    0 -0.10552231773E+03 -0.17505069976E+02  0.17035378262E+03  0.44772960396E+03  0.40000000000E+03 0.  1.
   -9000007    1    1    2    0  502  0.10552231773E+03  0.17505069976E+02  0.52182799490E+03  0.66614250973E+03  0.40000000000E+03 0.  1.
<mgrwt>
<rscale>  2 0.41405481E+03</rscale>
<asrwt>0</asrwt>
<pdfrwt beam="1">  1       21 0.13892722E+00 0.41405481E+03</pdfrwt>
<pdfrwt beam="2">  1       21 0.32437719E-01 0.41405481E+03</pdfrwt>
<totfact> 0.29247143E+03</totfact>
</mgrwt>
</event>
<event>
 4    1  0.4760244E-002  0.5830878E+03  0.7818608E-02  0.9941128E-01
         21   -1    0    0  503  502  0.00000000000E+00  0.00000000000E+00  0.10116939902E+04  0.10116939902E+04  0.00000000000E+00 0.  1.
         21   -1    0    0  501  503 -0.00000000000E+00 -0.00000000000E+00 -0.39159654372E+03  0.39159654372E+03  0.00000000000E+00 0. -1.
    9000007    1    1    2  501    0 -0.42387813519E+02  0.42213108294E+03  0.57427853711E+03  0.81840528841E+03  0.40000000000E+03 0.  1.
   -9000007    1    1    2    0  502  0.42387813519E+02 -0.42213108294E+03  0.45818909343E+02  0.58488524547E+03  0.40000000000E+03 0. -1.
<mgrwt>
<rscale>  2 0.58308780E+03</rscale>
<asrwt>0</asrwt>
<pdfrwt beam="1">  1       21 0.15564523E+00 0.58308780E+03</pdfrwt>
<pdfrwt beam="2">  1       21 0.60245623E-01 0.58308780E+03</pdfrwt>
<totfact> 0.55102286E+02</totfact>
</mgrwt>
</event>
<event>
 4    1  0.4760244E-002  0.4001413E+03  0.7818608E-02  0.1043731E+00
         21   -1    0    0  501  502  0.00000000000E+00  0.00000000000E+00  0.39579632551E+03  0.39579632551E+03  0.00000000000E+00 0. -1.
         21   -1    0    0  502  503 -0.00000000000E+00 -0.00000000000E+00 -0.45484114378E+03  0.45484114378E+03  0.00000000000E+00 0. -1.
    9000007    1    1    2  501    0  0.39662405990E+01 -0.98671896722E+01  0.11192638024E+03  0.41550042971E+03  0.40000000000E+03 0. -1.
   -9000007    1    1    2    0  503 -0.39662405990E+01  0.98671896722E+01 -0.17097119851E+03  0.43513703958E+03  0.40000000000E+03 0. -1.
<mgrwt>
<rscale>  2 0.40014134E+03</rscale>
<asrwt>0</asrwt>
<pdfrwt beam="1">  1       21 0.60891742E-01 0.40014134E+03</pdfrwt>
<pdfrwt beam="2">  1       21 0.69975561E-01 0.40014134E+03</pdfrwt>
<totfact> 0.41533984E+03</totfact>
</mgrwt>
</event>
<event>
 4    1  0.4760244E-002  0.4750709E+03  0.7818608E-02  0.1020499E+00
         21   -1    0    0  503  502  0.00000000000E+00  0.00000000000E+00  0.54085322866E+03  0.54085322866E+03  0.00000000000E+00 0. -1.
         21   -1    0    0  501  503 -0.00000000000E+00 -0.00000000000E+00 -0.53789388648E+03  0.53789388648E+03  0.00000000000E+00 0. -1.
    9000007    1    1    2  501    0  0.24843835177E+03 -0.63013662881E+02 -0.25392158135E+03  0.53867291171E+03  0.40000000000E+03 0. -1.
   -9000007    1    1    2    0  502 -0.24843835177E+03  0.63013662881E+02  0.25688092353E+03  0.54007420343E+03  0.40000000000E+03 0. -1.
<mgrwt>
<rscale>  2 0.47507088E+03</rscale>
<asrwt>0</asrwt>
<pdfrwt beam="1">  1       21 0.83208189E-01 0.47507088E+03</pdfrwt>
<pdfrwt beam="2">  1       21 0.82752905E-01 0.47507088E+03</pdfrwt>
<totfact> 0.13592140E+03</totfact>
</mgrwt>
</event>
<event>
 4    1  0.4760244E-002  0.4336338E+03  0.7818608E-02  0.1032718E+00
         21   -1    0    0  503  502  0.00000000000E+00  0.00000000000E+00  0.13110042186E+04  0.13110042186E+04  0.00000000000E+00 0.  1.
         21   -1    0    0  501  503 -0.00000000000E+00 -0.00000000000E+00 -0.78774187109E+03  0.78774187109E+03  0.00000000000E+00 0.  1.
    9000007    1    1    2  501    0 -0.72839979589E+02 -0.15077349095E+03 -0.68741153192E+03  0.81275637334E+03  0.40000000000E+03 0.  1.
   -9000007    1    1    2    0  502  0.72839979589E+02  0.15077349095E+03  0.12106738794E+04  0.12859897164E+04  0.40000000000E+03 0.  1.
<mgrwt>
<rscale>  2 0.43363384E+03</rscale>
<asrwt>0</asrwt>
<pdfrwt beam="1">  1       21 0.20169296E+00 0.43363384E+03</pdfrwt>
<pdfrwt beam="2">  1       21 0.12119106E+00 0.43363384E+03</pdfrwt>
<totfact> 0.53411606E+01</totfact>
</mgrwt>
</event>
<event>
 4    1  0.4760244E-002  0.5157952E+03  0.7818608E-02  0.1009736E+00
         21   -1    0    0  503  502  0.00000000000E+00  0.00000000000E+00  0.32613838265E+03  0.32613838265E+03  0.00000000000E+00 0. -1.
         21   -1    0    0  501  503 -0.00000000000E+00 -0.00000000000E+00 -0.88772292185E+03  0.88772292185E+03  0.00000000000E+00 0. -1.
    9000007    1    1    2  501    0  0.18471377429E+03 -0.26818938943E+03 -0.45361844325E+03  0.68688748647E+03  0.40000000000E+03 0. -1.
   -9000007    1    1    2    0  502 -0.18471377429E+03  0.26818938943E+03 -0.10796609595E+03  0.52697381803E+03  0.40000000000E+03 0. -1.
<mgrwt>
<rscale>  2 0.51579524E+03</rscale>
<asrwt>0</asrwt>
<pdfrwt beam="1">  1       21 0.50175136E-01 0.51579524E+03</pdfrwt>
<pdfrwt beam="2">  1       21 0.13657276E+00 0.51579524E+03</pdfrwt>
<totfact> 0.11959491E+03</totfact>
</mgrwt>
</event>
<event>
 4    1  0.4760244E-002  0.6034073E+03  0.7818608E-02  0.9898362E-01
         21   -1    0    0  503  502  0.00000000000E+00  0.00000000000E+00  0.13352669549E+04  0.13352669549E+04  0.00000000000E+00 0.  1.
         21   -1    0    0  501  503 -0.00000000000E+00 -0.00000000000E+00 -0.27271916292E+03  0.27271916292E+03  0.00000000000E+00 0. -1.
    9000007    1    1    2  501    0  0.18457282712E+03 -0.41235083576E+03  0.54093173724E+03  0.81037490374E+03  0.40000000000E+03 0. -1.
   -9000007    1    1    2    0  502 -0.18457282712E+03  0.41235083576E+03  0.52161605477E+03  0.79761121410E+03  0.40000000000E+03 0. -1.
<mgrwt>
<rscale>  2 0.60340728E+03</rscale>
<asrwt>0</asrwt>
<pdfrwt beam="1">  1       21 0.20542568E+00 0.60340728E+03</pdfrwt>
<pdfrwt beam="2">  1       21 0.41956795E-01 0.60340728E+03</pdfrwt>
<totfact> 0.52380008E+02</totfact>
</mgrwt>
</event>
<event>
 4    1  0.4760244E-002  0.4701489E+03  0.7818608E-02  0.1021878E+00
         21   -1    0    0  503  502  0.00000000000E+00  0.00000000000E+00  0.43012900206E+03  0.43012900206E+03  0.00000000000E+00 0. -1.
         21   -1    0    0  501  503 -0.00000000000E+00 -0.00000000000E+00 -0.52752673897E+03  0.52752673897E+03  0.00000000000E+00 0. -1.
    9000007    1    1    2  501    0 -0.20617541000E+03  0.13613116994E+03  0.28280676319E+02  0.47099871738E+03  0.40000000000E+03 0. -1.
   -9000007    1    1    2    0  502  0.20617541000E+03 -0.13613116994E+03 -0.12567841324E+03  0.48665702365E+03  0.40000000000E+03 0. -1.
<mgrwt>
<rscale>  2 0.47014891E+03</rscale>
<asrwt>0</asrwt>
<pdfrwt beam="1">  1       21 0.66173693E-01 0.47014891E+03</pdfrwt>
<pdfrwt beam="2">  1       21 0.81157960E-01 0.47014891E+03</pdfrwt>
<totfact> 0.24017376E+03</totfact>
</mgrwt>
</event>
<event>
 4    1  0.4760244E-002  0.4994946E+03  0.7818608E-02  0.1013911E+00
         21   -1    0    0  501  502  0.00000000000E+00  0.00000000000E+00  0.78421694302E+03  0.78421694302E+03  0.00000000000E+00 0.  1.
         21   -1    0    0  502  503 -0.00000000000E+00 -0.00000000000E+00 -0.33137209158E+03  0.33137209158E+03  0.00000000000E+00 0. -1.
    9000007    1    1    2  501    0  0.28320729216E+03 -0.96377028797E+02  0.33786322391E+03  0.60303106063E+03  0.40000000000E+03 0.  1.
   -9000007    1    1    2    0  503 -0.28320729216E+03  0.96377028797E+02  0.11498162753E+03  0.51255797397E+03  0.40000000000E+03 0. -1.
<mgrwt>
<rscale>  2 0.49949465E+03</rscale>
<asrwt>0</asrwt>
<pdfrwt beam="1">  1       21 0.12064876E+00 0.49949465E+03</pdfrwt>
<pdfrwt beam="2">  1       21 0.50980322E-01 0.49949465E+03</pdfrwt>
<totfact> 0.16041504E+03</totfact>
</mgrwt>
</event>
<event>
 4    1  0.4760244E-002  0.4822967E+03  0.7818608E-02  0.1018506E+00
         21   -1    0    0  503  502  0.00000000000E+00  0.00000000000E+00  0.89657423342E+03  0.89657423342E+03  0.00000000000E+00 0. -1.
         21   -1    0    0  501  503 -0.00000000000E+00 -0.00000000000E+00 -0.36138178009E+03  0.36138178009E+03  0.00000000000E+00 0. -1.
    9000007    1    1    2  501    0  0.16998312972E+03 -0.20908339359E+03 -0.66461502364E+02  0.48685445583E+03  0.40000000000E+03 0. -1.
   -9000007    1    1    2    0  502 -0.16998312972E+03  0.20908339359E+03  0.60165395569E+03  0.77110155768E+03  0.40000000000E+03 0. -1.
<mgrwt>
<rscale>  2 0.48229672E+03</rscale>
<asrwt>0</asrwt>
<pdfrwt beam="1">  1       21 0.13793450E+00 0.48229672E+03</pdfrwt>
<pdfrwt beam="2">  1       21 0.55597197E-01 0.48229672E+03</pdfrwt>
<totfact> 0.94606909E+02</totfact>
</mgrwt>
</event>
<event>
 4    1  0.4760244E-002  0.5886475E+03  0.7818608E-02  0.9929243E-01
         21   -1    0    0  501  502  0.00000000000E+00  0.00000000000E+00  0.14334269782E+04  0.14334269782E+04  0.00000000000E+00 0.  1.
         21   -1    0    0  502  503 -0.00000000000E+00 -0.00000000000E+00 -0.31433728262E+03  0.31433728262E+03  0.00000000000E+00 0. -1.
    9000007    1    1    2  501    0  0.41879533459E+03 -0.10543385909E+03  0.97953358424E+03  0.11428000147E+04  0.40000000000E+03 0.  1.
   -9000007    1    1    2    0  503 -0.41879533459E+03  0.10543385909E+03  0.13955611137E+03  0.60496424616E+03  0.40000000000E+03 0. -1.
<mgrwt>
<rscale>  2 0.58864746E+03</rscale>
<asrwt>0</asrwt>
<pdfrwt beam="1">  1       21 0.22052722E+00 0.58864746E+03</pdfrwt>
<pdfrwt beam="2">  1       21 0.48359583E-01 0.58864746E+03</pdfrwt>
<totfact> 0.31080346E+02</totfact>
</mgrwt>
</event>
<event>
 4    1  0.4760244E-002  0.4998811E+03  0.7818608E-02  0.1013810E+00
         21   -1    0    0  503  502  0.00000000000E+00  0.00000000000E+00  0.22418451775E+04  0.22418451775E+04  0.00000000000E+00 0.  1.
         21   -1    0    0  501  503 -0.00000000000E+00 -0.00000000000E+00 -0.11242408547E+03  0.11242408547E+03  0.00000000000E+00 0. -1.
    9000007    1    1    2  501    0 -0.25643507909E+03 -0.15531320518E+03  0.95583171766E+03  0.10786544461E+04  0.40000000000E+03 0. -1.
   -9000007    1    1    2    0  502  0.25643507909E+03  0.15531320518E+03  0.11735893743E+04  0.12756148169E+04  0.40000000000E+03 0.  1.
<mgrwt>
<rscale>  2 0.49988113E+03</rscale>
<asrwt>0</asrwt>
<pdfrwt beam="1">  1       21 0.34489922E+00 0.49988113E+03</pdfrwt>
<pdfrwt beam="2">  1       21 0.17296015E-01 0.49988113E+03</pdfrwt>
<totfact> 0.43154266E+02</totfact>
</mgrwt>
</event>
<event>
 4    1  0.4760244E-002  0.4012621E+03  0.7818608E-02  0.1043344E+00
         21   -1    0    0  501  502  0.00000000000E+00  0.00000000000E+00  0.11475447456E+04  0.11475447456E+04  0.00000000000E+00 0.  1.
         21   -1    0    0  502  503 -0.00000000000E+00 -0.00000000000E+00 -0.33413273245E+03  0.33413273245E+03  0.00000000000E+00 0.  1.
    9000007    1    1    2  501    0 -0.19952378105E+02  0.24763124406E+02  0.97095033937E+03  0.10505978637E+04  0.40000000000E+03 0.  1.
   -9000007    1    1    2    0  503  0.19952378105E+02 -0.24763124406E+02 -0.15753832618E+03  0.43107961438E+03  0.40000000000E+03 0.  1.
<mgrwt>
<rscale>  2 0.40126215E+03</rscale>
<asrwt>0</asrwt>
<pdfrwt beam="1">  1       21 0.17654534E+00 0.40126215E+03</pdfrwt>
<pdfrwt beam="2">  1       21 0.51405036E-01 0.40126215E+03</pdfrwt>
<totfact> 0.58803308E+02</totfact>
</mgrwt>
</event>
<event>
 4    1  0.4760244E-002  0.4977628E+03  0.7818608E-02  0.1014365E+00
         21   -1    0    0  503  502  0.00000000000E+00  0.00000000000E+00  0.29814275565E+03  0.29814275565E+03  0.00000000000E+00 0. -1.
         21   -1    0    0  501  503 -0.00000000000E+00 -0.00000000000E+00 -0.85666317543E+03  0.85666317543E+03  0.00000000000E+00 0. -1.
    9000007    1    1    2  501    0 -0.13984228254E+03  0.26117423424E+03 -0.17939582163E+03  0.52910368118E+03  0.40000000000E+03 0. -1.
   -9000007    1    1    2    0  502  0.13984228254E+03 -0.26117423424E+03 -0.37912459815E+03  0.62570224991E+03  0.40000000000E+03 0. -1.
<mgrwt>
<rscale>  2 0.49776284E+03</rscale>
<asrwt>0</asrwt>
<pdfrwt beam="1">  1       21 0.45868116E-01 0.49776284E+03</pdfrwt>
<pdfrwt beam="2">  1       21 0.13179433E+00 0.49776284E+03</pdfrwt>
<totfact> 0.15983816E+03</totfact>
</mgrwt>
</event>
<event>
 4    1  0.4760244E-002  0.5662702E+03  0.7818608E-02  0.9977966E-01
         21   -1    0    0  501  502  0.00000000000E+00  0.00000000000E+00  0.21909785049E+04  0.21909785049E+04  0.00000000000E+00 0.  1.
         21   -1    0    0  502  503 -0.00000000000E+00 -0.00000000000E+00 -0.14662297818E+03  0.14662297818E+03  0.00000000000E+00 0.  1.
    9000007    1    1    2  501    0 -0.26566016430E+03  0.30014435667E+03  0.97226537569E+03  0.11251497316E+04  0.40000000000E+03 0.  1.
   -9000007    1    1    2    0  503  0.26566016430E+03 -0.30014435667E+03  0.10720901510E+04  0.12124517515E+04  0.40000000000E+03 0.  1.
<mgrwt>
<rscale>  2 0.56627022E+03</rscale>
<asrwt>0</asrwt>
<pdfrwt beam="1">  1       21 0.33707359E+00 0.56627022E+03</pdfrwt>
<pdfrwt beam="2">  1       21 0.22557383E-01 0.56627022E+03</pdfrwt>
<totfact> 0.28083650E+02</totfact>
</mgrwt>
</event>
<event>
 4    1  0.4760244E-002  0.4132619E+03  0.7818608E-02  0.1039282E+00
         21   -1    0    0  501  502  0.00000000000E+00  0.00000000000E+00  0.14523183456E+03  0.14523183456E+03  0.00000000000E+00 0. -1.
         21   -1    0    0  502  503 -0.00000000000E+00 -0.00000000000E+00 -0.13829510728E+04  0.13829510728E+04  0.00000000000E+00 0. -1.
    9000007    1    1    2  501    0  0.98299262482E+02  0.33506527098E+02 -0.32324369530E+03  0.52466362454E+03  0.40000000000E+03 0. -1.
   -9000007    1    1    2    0  503 -0.98299262482E+02 -0.33506527098E+02 -0.91447554289E+03  0.10035192828E+04  0.40000000000E+03 0. -1.
<mgrwt>
<rscale>  2 0.41326194E+03</rscale>
<asrwt>0</asrwt>
<pdfrwt beam="1">  1       21 0.22343360E-01 0.41326194E+03</pdfrwt>
<pdfrwt beam="2">  1       21 0.21276170E+00 0.41326194E+03</pdfrwt>
<totfact> 0.17866342E+03</totfact>
</mgrwt>
</event>
<event>
 4    1  0.4760244E-002  0.4057059E+03  0.7818608E-02  0.1041822E+00
         21   -1    0    0  501  502  0.00000000000E+00  0.00000000000E+00  0.35054245310E+03  0.35054245310E+03  0.00000000000E+00 0. -1.
         21   -1    0    0  502  503 -0.00000000000E+00 -0.00000000000E+00 -0.54515489303E+03  0.54515489303E+03  0.00000000000E+00 0. -1.
    9000007    1    1    2  501    0  0.96691296106E+01 -0.67110052307E+02  0.69474536497E+02  0.41161142162E+03  0.40000000000E+03 0. -1.
   -9000007    1    1    2    0  503 -0.96691296106E+01  0.67110052307E+02 -0.26408697643E+03  0.48408592451E+03  0.40000000000E+03 0. -1.
<mgrwt>
<rscale>  2 0.40570587E+03</rscale>
<asrwt>0</asrwt>
<pdfrwt beam="1">  1       21 0.53929608E-01 0.40570587E+03</pdfrwt>
<pdfrwt beam="2">  1       21 0.83869983E-01 0.40570587E+03</pdfrwt>
<totfact> 0.35652375E+03</totfact>
</mgrwt>
</event>
<event>
 4    1  0.4760244E-002  0.4014972E+03  0.7818608E-02  0.1043262E+00
         21   -1    0    0  501  502  0.00000000000E+00  0.00000000000E+00  0.45928246918E+03  0.45928246918E+03  0.00000000000E+00 0.  1.
         21   -1    0    0  502  503 -0.00000000000E+00 -0.00000000000E+00 -0.37502612841E+03  0.37502612841E+03  0.00000000000E+00 0.  1.
    9000007    1    1    2  501    0  0.62939979867E+01  0.34064924464E+02  0.14775334828E+03  0.42782132417E+03  0.40000000000E+03 0.  1.
   -9000007    1    1    2    0  503 -0.62939979867E+01 -0.34064924464E+02 -0.63497007501E+02  0.40648727342E+03  0.40000000000E+03 0.  1.
<mgrwt>
<rscale>  2 0.40149724E+03</rscale>
<asrwt>0</asrwt>
<pdfrwt beam="1">  1       21 0.70658841E-01 0.40149724E+03</pdfrwt>
<pdfrwt beam="2">  1       21 0.57696328E-01 0.40149724E+03</pdfrwt>
<totfact> 0.45684220E+03</totfact>
</mgrwt>
</event>
<event>
 4    1  0.4760244E-002  0.4609862E+03  0.7818608E-02  0.1024496E+00
         21   -1    0    0  503  502  0.00000000000E+00  0.00000000000E+00  0.74623484138E+03  0.74623484138E+03  0.00000000000E+00 0. -1.
         21   -1    0    0  501  503 -0.00000000000E+00 -0.00000000000E+00 -0.51436121131E+03  0.51436121131E+03  0.00000000000E+00 0. -1.
    9000007    1    1    2  501    0  0.46357628029E+02 -0.22440872411E+03 -0.30516358843E+03  0.55284095438E+03  0.40000000000E+03 0. -1.
   -9000007    1    1    2    0  502 -0.46357628029E+02  0.22440872411E+03  0.53703721850E+03  0.70775509831E+03  0.40000000000E+03 0. -1.
<mgrwt>
<rscale>  2 0.46098623E+03</rscale>
<asrwt>0</asrwt>
<pdfrwt beam="1">  1       21 0.11480536E+00 0.46098623E+03</pdfrwt>
<pdfrwt beam="2">  1       21 0.79132494E-01 0.46098623E+03</pdfrwt>
<totfact> 0.69605736E+02</totfact>
</mgrwt>
</event>
<event>
 4    1  0.4760244E-002  0.4652223E+03  0.7818608E-02  0.1023277E+00
         21   -1    0    0  501  502  0.00000000000E+00  0.00000000000E+00  0.46894102667E+03  0.46894102667E+03  0.00000000000E+00 0.  1.
         21   -1    0    0  502  503 -0.00000000000E+00 -0.00000000000E+00 -0.46521986706E+03  0.46521986706E+03  0.00000000000E+00 0.  1.
    9000007    1    1    2  501    0  0.23533560615E+03  0.32386675708E+02  0.43441407540E+02  0.46724608096E+03  0.40000000000E+03 0.  1.
   -9000007    1    1    2    0  503 -0.23533560615E+03 -0.32386675708E+02 -0.39720247933E+02  0.46691481277E+03  0.40000000000E+03 0.  1.
<mgrwt>
<rscale>  2 0.46522225E+03</rscale>
<asrwt>0</asrwt>
<pdfrwt beam="1">  1       21 0.72144774E-01 0.46522225E+03</pdfrwt>
<pdfrwt beam="2">  1       21 0.71572287E-01 0.46522225E+03</pdfrwt>
<totfact> 0.26420373E+03</totfact>
</mgrwt>
</event>
<event>
 4    1  0.4760244E-002  0.4853821E+03  0.7818608E-02  0.1017666E+00
         21   -1    0    0  503  502  0.00000000000E+00  0.00000000000E+00  0.30861300152E+03  0.30861300152E+03  0.00000000000E+00 0. -1.
         21   -1    0    0  501  503 -0.00000000000E+00 -0.00000000000E+00 -0.84952816983E+03  0.84952816983E+03  0.00000000000E+00 0. -1.
    9000007    1    1    2  501    0 -0.94973884245E+02  0.25802276029E+03 -0.45483603953E+03  0.66518539248E+03  0.40000000000E+03 0. -1.
   -9000007    1    1    2    0  502  0.94973884245E+02 -0.25802276029E+03 -0.86079128783E+02  0.49295577888E+03  0.40000000000E+03 0. -1.
<mgrwt>
<rscale>  2 0.48538210E+03</rscale>
<asrwt>0</asrwt>
<pdfrwt beam="1">  1       21 0.47478924E-01 0.48538210E+03</pdfrwt>
<pdfrwt beam="2">  1       21 0.13069664E+00 0.48538210E+03</pdfrwt>
<totfact> 0.15257686E+03</totfact>
</mgrwt>
</event>
<event>
 4    1  0.4760244E-002  0.4060145E+03  0.7818608E-02  0.1041717E+00
         21   -1    0    0  503  502  0.00000000000E+00  0.00000000000E+00  0.31079314068E+03  0.31079314068E+03  0.00000000000E+00 0. -1.
         21   -1    0    0  501  503 -0.00000000000E+00 -0.00000000000E+00 -0.66712008339E+03  0.66712008339E+03  0.00000000000E+00 0. -1.
    9000007    1    1    2  501    0  0.54322806938E+02 -0.43552390468E+02 -0.39950792781E+03  0.56960895573E+03  0.40000000000E+03 0. -1.
   -9000007    1    1    2    0  502 -0.54322806938E+02  0.43552390468E+02  0.43180985096E+02  0.40830426834E+03  0.40000000000E+03 0. -1.
<mgrwt>
<rscale>  2 0.40601450E+03</rscale>
<asrwt>0</asrwt>
<pdfrwt beam="1">  1       21 0.47814329E-01 0.40601450E+03</pdfrwt>
<pdfrwt beam="2">  1       21 0.10263386E+00 0.40601450E+03</pdfrwt>
<totfact> 0.28479469E+03</totfact>
</mgrwt>
</event>
<event>
 4    1  0.4760244E-002  0.4543522E+03  0.7818608E-02  0.1026432E+00
         21   -1    0    0  503  502  0.00000000000E+00  0.00000000000E+00  0.79519022323E+03  0.79519022323E+03  0.00000000000E+00 0. -1.
         21   -1    0    0  501  503 -0.00000000000E+00 -0.00000000000E+00 -0.26408915635E+03  0.26408915635E+03  0.00000000000E+00 0. -1.
    9000007    1    1    2  501    0 -0.55261674052E+01 -0.21541900930E+03  0.19654032781E+03  0.49503938081E+03  0.40000000000E+03 0. -1.
   -9000007    1    1    2    0  502  0.55261674052E+01  0.21541900930E+03  0.33456073906E+03  0.56423999877E+03  0.40000000000E+03 0. -1.
<mgrwt>
<rscale>  2 0.45435216E+03</rscale>
<asrwt>0</asrwt>
<pdfrwt beam="1">  1       21 0.12233696E+00 0.45435216E+03</pdfrwt>
<pdfrwt beam="2">  1       21 0.40629101E-01 0.45435216E+03</pdfrwt>
<totfact> 0.25351940E+03</totfact>
</mgrwt>
</event>
<event>
 4    1  0.4760244E-002  0.4076497E+03  0.7818608E-02  0.1041163E+00
         21   -1    0    0  501  502  0.00000000000E+00  0.00000000000E+00  0.25529729278E+03  0.25529729278E+03  0.00000000000E+00 0.  1.
         21   -1    0    0  502  503 -0.00000000000E+00 -0.00000000000E+00 -0.87521463411E+03  0.87521463411E+03  0.00000000000E+00 0.  1.
    9000007    1    1    2  501    0 -0.49515480462E+02 -0.61044964883E+02 -0.23806717167E+02  0.40834425467E+03  0.40000000000E+03 0.  1.
   -9000007    1    1    2    0  503  0.49515480462E+02  0.61044964883E+02 -0.59611062417E+03  0.72216767221E+03  0.40000000000E+03 0.  1.
<mgrwt>
<rscale>  2 0.40764969E+03</rscale>
<asrwt>0</asrwt>
<pdfrwt beam="1">  1       21 0.39276506E-01 0.40764969E+03</pdfrwt>
<pdfrwt beam="2">  1       21 0.13464841E+00 0.40764969E+03</pdfrwt>
<totfact> 0.21612519E+03</totfact>
</mgrwt>
</event>
<event>
 4    1  0.4760244E-002  0.4175081E+03  0.7818608E-02  0.1037880E+00
         21   -1    0    0  503  502  0.00000000000E+00  0.00000000000E+00  0.10138694669E+04  0.10138694669E+04  0.00000000000E+00 0.  1.
         21   -1    0    0  501  503 -0.00000000000E+00 -0.00000000000E+00 -0.45104795029E+03  0.45104795029E+03  0.00000000000E+00 0.  1.
    9000007    1    1    2  501    0  0.23074966574E+02  0.11739048256E+03 -0.29478081154E+03  0.51108581112E+03  0.40000000000E+03 0.  1.
   -9000007    1    1    2    0  502 -0.23074966574E+02 -0.11739048256E+03  0.85760232814E+03  0.95383160606E+03  0.40000000000E+03 0.  1.
<mgrwt>
<rscale>  2 0.41750806E+03</rscale>
<asrwt>0</asrwt>
<pdfrwt beam="1">  1       21 0.15597992E+00 0.41750806E+03</pdfrwt>
<pdfrwt beam="2">  1       21 0.69391993E-01 0.41750806E+03</pdfrwt>
<totfact> 0.42884452E+02</totfact>
</mgrwt>
</event>
<event>
 4    1  0.4760244E-002  0.4207911E+03  0.7818608E-02  0.1036809E+00
         21   -1    0    0  503  502  0.00000000000E+00  0.00000000000E+00  0.11876882172E+04  0.11876882172E+04  0.00000000000E+00 0. -1.
         21   -1    0    0  501  503 -0.00000000000E+00 -0.00000000000E+00 -0.15193404148E+03  0.15193404148E+03  0.00000000000E+00 0.  1.
    9000007    1    1    2  501    0  0.12868873506E+03 -0.22457187787E+02  0.42613621403E+03  0.59887994517E+03  0.40000000000E+03 0.  1.
   -9000007    1    1    2    0  502 -0.12868873506E+03  0.22457187787E+02  0.60961796168E+03  0.74074231351E+03  0.40000000000E+03 0. -1.
<mgrwt>
<rscale>  2 0.42079106E+03</rscale>
<asrwt>0</asrwt>
<pdfrwt beam="1">  1       21 0.18272126E+00 0.42079106E+03</pdfrwt>
<pdfrwt beam="2">  1       21 0.23374469E-01 0.42079106E+03</pdfrwt>
<totfact> 0.25938180E+03</totfact>
</mgrwt>
</event>
<event>
 4    1  0.4760244E-002  0.4231789E+03  0.7818608E-02  0.1036037E+00
         21   -1    0    0  503  502  0.00000000000E+00  0.00000000000E+00  0.17624257718E+03  0.17624257718E+03  0.00000000000E+00 0. -1.
         21   -1    0    0  501  503 -0.00000000000E+00 -0.00000000000E+00 -0.11360447258E+04  0.11360447258E+04  0.00000000000E+00 0. -1.
    9000007    1    1    2  501    0  0.13426647526E+03 -0.32447902130E+02 -0.69310196770E+03  0.81207800756E+03  0.40000000000E+03 0. -1.
   -9000007    1    1    2    0  502 -0.13426647526E+03  0.32447902130E+02 -0.26670018092E+03  0.50020929543E+03  0.40000000000E+03 0. -1.
<mgrwt>
<rscale>  2 0.42317887E+03</rscale>
<asrwt>0</asrwt>
<pdfrwt beam="1">  1       21 0.27114244E-01 0.42317887E+03</pdfrwt>
<pdfrwt beam="2">  1       21 0.17477610E+00 0.42317887E+03</pdfrwt>
<totfact> 0.22093695E+03</totfact>
</mgrwt>
</event>
<event>
 4    1  0.4760244E-002  0.7513608E+03  0.7818608E-02  0.9633218E-01
         21   -1    0    0  501  502  0.00000000000E+00  0.00000000000E+00  0.29927023612E+04  0.29927023612E+04  0.00000000000E+00 0. -1.
         21   -1    0    0  502  503 -0.00000000000E+00 -0.00000000000E+00 -0.20513217481E+03  0.20513217481E+03  0.00000000000E+00 0.  1.
    9000007    1    1    2  501    0 -0.61168394150E+03  0.17431543574E+03  0.18471513576E+04  0.19941191673E+04  0.40000000000E+03 0. -1.
   -9000007    1    1    2    0  503  0.61168394150E+03 -0.17431543574E+03  0.94041882884E+03  0.12037153688E+04  0.40000000000E+03 0.  1.
<mgrwt>
<rscale>  2 0.75136084E+03</rscale>
<asrwt>0</asrwt>
<pdfrwt beam="1">  1       21 0.46041572E+00 0.75136084E+03</pdfrwt>
<pdfrwt beam="2">  1       21 0.31558798E-01 0.75136084E+03</pdfrwt>
<totfact> 0.20993922E+01</totfact>
</mgrwt>
</event>
<event>
 4    1  0.4760244E-002  0.4025660E+03  0.7818608E-02  0.1042895E+00
         21   -1    0    0  503  502  0.00000000000E+00  0.00000000000E+00  0.59348816949E+03  0.59348816949E+03  0.00000000000E+00 0.  1.
         21   -1    0    0  501  503 -0.00000000000E+00 -0.00000000000E+00 -0.36900351939E+03  0.36900351939E+03  0.00000000000E+00 0.  1.
    9000007    1    1    2  501    0 -0.11887113970E+01 -0.45364738711E+02 -0.13314598358E+03  0.42401323741E+03  0.40000000000E+03 0.  1.
   -9000007    1    1    2    0  502  0.11887113970E+01  0.45364738711E+02  0.35763063369E+03  0.53847845148E+03  0.40000000000E+03 0.  1.
<mgrwt>
<rscale>  2 0.40256599E+03</rscale>
<asrwt>0</asrwt>
<pdfrwt beam="1">  1       21 0.91305872E-01 0.40256599E+03</pdfrwt>
<pdfrwt beam="2">  1       21 0.56769772E-01 0.40256599E+03</pdfrwt>
<totfact> 0.26179577E+03</totfact>
</mgrwt>
</event>
<event>
 4    1  0.4760244E-002  0.4079668E+03  0.7818608E-02  0.1041055E+00
         21   -1    0    0  503  502  0.00000000000E+00  0.00000000000E+00  0.57196229475E+03  0.57196229475E+03  0.00000000000E+00 0. -1.
         21   -1    0    0  501  503 -0.00000000000E+00 -0.00000000000E+00 -0.61768292316E+03  0.61768292316E+03  0.00000000000E+00 0. -1.
    9000007    1    1    2  501    0  0.62663340617E+02 -0.50102179380E+02 -0.45544651075E+03  0.61144782835E+03  0.40000000000E+03 0. -1.
   -9000007    1    1    2    0  502 -0.62663340617E+02  0.50102179380E+02  0.40972588234E+03  0.57819738956E+03  0.40000000000E+03 0. -1.
<mgrwt>
<rscale>  2 0.40796682E+03</rscale>
<asrwt>0</asrwt>
<pdfrwt beam="1">  1       21 0.87994199E-01 0.40796682E+03</pdfrwt>
<pdfrwt beam="2">  1       21 0.95028142E-01 0.40796682E+03</pdfrwt>
<totfact> 0.88462927E+02</totfact>
</mgrwt>
</event>
<event>
 4    1  0.4760244E-002  0.4482716E+03  0.7818608E-02  0.1028239E+00
         21   -1    0    0  501  502  0.00000000000E+00  0.00000000000E+00  0.11164253578E+04  0.11164253578E+04  0.00000000000E+00 0. -1.
         21   -1    0    0  502  503 -0.00000000000E+00 -0.00000000000E+00 -0.18073038400E+03  0.18073038400E+03  0.00000000000E+00 0. -1.
    9000007    1    1    2  501    0  0.17960397822E+03 -0.93219408384E+02  0.50930818801E+03  0.67848528169E+03  0.40000000000E+03 0. -1.
   -9000007    1    1    2    0  503 -0.17960397822E+03  0.93219408384E+02  0.42638678574E+03  0.61867046006E+03  0.40000000000E+03 0. -1.
<mgrwt>
<rscale>  2 0.44827162E+03</rscale>
<asrwt>0</asrwt>
<pdfrwt beam="1">  1       21 0.17175774E+00 0.44827162E+03</pdfrwt>
<pdfrwt beam="2">  1       21 0.27804675E-01 0.44827162E+03</pdfrwt>
<totfact> 0.21875348E+03</totfact>
</mgrwt>
</event>
<event>
 4    1  0.4760244E-002  0.4506313E+03  0.7818608E-02  0.1027534E+00
         21   -1    0    0  501  502  0.00000000000E+00  0.00000000000E+00  0.68513186204E+03  0.68513186204E+03  0.00000000000E+00 0. -1.
         21   -1    0    0  502  503 -0.00000000000E+00 -0.00000000000E+00 -0.36446000921E+03  0.36446000921E+03  0.00000000000E+00 0.  1.
    9000007    1    1    2  501    0  0.17584462712E+03  0.11021469738E+03  0.38713033630E+03  0.59408628135E+03  0.40000000000E+03 0. -1.
   -9000007    1    1    2    0  503 -0.17584462712E+03 -0.11021469738E+03 -0.66458483476E+02  0.45550558990E+03  0.40000000000E+03 0.  1.
<mgrwt>
<rscale>  2 0.45063135E+03</rscale>
<asrwt>0</asrwt>
<pdfrwt beam="1">  1       21 0.10540490E+00 0.45063135E+03</pdfrwt>
<pdfrwt beam="2">  1       21 0.56070771E-01 0.45063135E+03</pdfrwt>
<totfact> 0.18654565E+03</totfact>
</mgrwt>
</event>
<event>
 4    1  0.4760244E-002  0.4664264E+03  0.7818608E-02  0.1022934E+00
         21   -1    0    0  503  502  0.00000000000E+00  0.00000000000E+00  0.30089889045E+03  0.30089889045E+03  0.00000000000E+00 0.  1.
         21   -1    0    0  501  503 -0.00000000000E+00 -0.00000000000E+00 -0.76228318708E+03  0.76228318708E+03  0.00000000000E+00 0.  1.
    9000007    1    1    2  501    0  0.10264170251E+03 -0.21683691648E+03 -0.35134995149E+03  0.58395235752E+03  0.40000000000E+03 0.  1.
   -9000007    1    1    2    0  502 -0.10264170251E+03  0.21683691648E+03 -0.11003434514E+03  0.47922972002E+03  0.40000000000E+03 0.  1.
<mgrwt>
<rscale>  2 0.46642638E+03</rscale>
<asrwt>0</asrwt>
<pdfrwt beam="1">  1       21 0.46292138E-01 0.46642638E+03</pdfrwt>
<pdfrwt beam="2">  1       21 0.11727433E+00 0.46642638E+03</pdfrwt>
<totfact> 0.21408834E+03</totfact>
</mgrwt>
</event>
<event>
 4    1  0.4760244E-002  0.4702976E+03  0.7818608E-02  0.1021836E+00
         21   -1    0    0  501  502  0.00000000000E+00  0.00000000000E+00  0.34800316008E+03  0.34800316008E+03  0.00000000000E+00 0.  1.
         21   -1    0    0  502  503 -0.00000000000E+00 -0.00000000000E+00 -0.75921441861E+03  0.75921441861E+03  0.00000000000E+00 0. -1.
    9000007    1    1    2  501    0 -0.22463768663E+03 -0.10352673682E+03  0.17808429773E+02  0.47063469449E+03  0.40000000000E+03 0.  1.
   -9000007    1    1    2    0  503  0.22463768663E+03  0.10352673682E+03 -0.42901968831E+03  0.63658288419E+03  0.40000000000E+03 0.  1.
<mgrwt>
<rscale>  2 0.47029765E+03</rscale>
<asrwt>0</asrwt>
<pdfrwt beam="1">  1       21 0.53538948E-01 0.47029765E+03</pdfrwt>
<pdfrwt beam="2">  1       21 0.11680222E+00 0.47029765E+03</pdfrwt>
<totfact> 0.15847600E+03</totfact>
</mgrwt>
</event>
<event>
 4    1  0.4760244E-002  0.4421909E+03  0.7818608E-02  0.1030077E+00
         21   -1    0    0  503  502  0.00000000000E+00  0.00000000000E+00  0.50966083793E+03  0.50966083793E+03  0.00000000000E+00 0. -1.
         21   -1    0    0  501  503 -0.00000000000E+00 -0.00000000000E+00 -0.42376315795E+03  0.42376315795E+03  0.00000000000E+00 0. -1.
    9000007    1    1    2  501    0 -0.26669364421E+02 -0.18660519565E+03 -0.10063851792E+03  0.45349847335E+03  0.40000000000E+03 0.  1.
   -9000007    1    1    2    0  502  0.26669364421E+02  0.18660519565E+03  0.18653619790E+03  0.47992552252E+03  0.40000000000E+03 0.  1.
<mgrwt>
<rscale>  2 0.44219086E+03</rscale>
<asrwt>0</asrwt>
<pdfrwt beam="1">  1       21 0.78409359E-01 0.44219086E+03</pdfrwt>
<pdfrwt beam="2">  1       21 0.65194332E-01 0.44219086E+03</pdfrwt>
<totfact> 0.27155022E+03</totfact>
</mgrwt>
</event>
<event>
 4    1  0.4760244E-002  0.4453490E+03  0.7818608E-02  0.1029118E+00
         21   -1    0    0  503  502  0.00000000000E+00  0.00000000000E+00  0.11743306207E+04  0.11743306207E+04  0.00000000000E+00 0.  1.
         21   -1    0    0  501  503 -0.00000000000E+00 -0.00000000000E+00 -0.17184986140E+03  0.17184986140E+03  0.00000000000E+00 0. -1.
    9000007    1    1    2  501    0 -0.62972198424E+02 -0.18539201085E+03  0.58953760965E+03  0.73884388653E+03  0.40000000000E+03 0.  1.
   -9000007    1    1    2    0  502  0.62972198424E+02  0.18539201085E+03  0.41294314962E+03  0.60733659554E+03  0.40000000000E+03 0.  1.
<mgrwt>
<rscale>  2 0.44534896E+03</rscale>
<asrwt>0</asrwt>
<pdfrwt beam="1">  1       21 0.18066624E+00 0.44534896E+03</pdfrwt>
<pdfrwt beam="2">  1       21 0.26438441E-01 0.44534896E+03</pdfrwt>
<totfact> 0.20886936E+03</totfact>
</mgrwt>
</event>
<event>
 4    1  0.4760244E-002  0.5244490E+03  0.7818608E-02  0.1007587E+00
         21   -1    0    0  501  502  0.00000000000E+00  0.00000000000E+00  0.10242433266E+04  0.10242433266E+04  0.00000000000E+00 0.  1.
         21   -1    0    0  502  503 -0.00000000000E+00 -0.00000000000E+00 -0.31662962944E+03  0.31662962944E+03  0.00000000000E+00 0. -1.
    9000007    1    1    2  501    0  0.53787713369E+02 -0.33489348658E+03  0.61509707766E+03  0.80832615967E+03  0.40000000000E+03 0.  1.
   -9000007    1    1    2    0  503 -0.53787713369E+02  0.33489348658E+03  0.92516619534E+02  0.53254679640E+03  0.40000000000E+03 0. -1.
<mgrwt>
<rscale>  2 0.52444901E+03</rscale>
<asrwt>0</asrwt>
<pdfrwt beam="1">  1       21 0.15757589E+00 0.52444901E+03</pdfrwt>
<pdfrwt beam="2">  1       21 0.48712251E-01 0.52444901E+03</pdfrwt>
<totfact> 0.86135562E+02</totfact>
</mgrwt>
</event>
<event>
 4    1  0.4760244E-002  0.4910452E+03  0.7818608E-02  0.1016143E+00
         21   -1    0    0  501  502  0.00000000000E+00  0.00000000000E+00  0.50048254452E+03  0.50048254452E+03  0.00000000000E+00 0. -1.
         21   -1    0    0  502  503 -0.00000000000E+00 -0.00000000000E+00 -0.48179317414E+03  0.48179317414E+03  0.00000000000E+00 0. -1.
    9000007    1    1    2  501    0 -0.27921460420E+03  0.56254978313E+02  0.74322885904E+01  0.49110147291E+03  0.40000000000E+03 0. -1.
   -9000007    1    1    2    0  503  0.27921460420E+03 -0.56254978313E+02  0.11257081789E+02  0.49117424574E+03  0.40000000000E+03 0. -1.
<mgrwt>
<rscale>  2 0.49104523E+03</rscale>
<asrwt>0</asrwt>
<pdfrwt beam="1">  1       21 0.76997315E-01 0.49104523E+03</pdfrwt>
<pdfrwt beam="2">  1       21 0.74122026E-01 0.49104523E+03</pdfrwt>
<totfact> 0.20845489E+03</totfact>
</mgrwt>
</event>
<event>
 4    1  0.4760244E-002  0.4358313E+03  0.7818608E-02  0.1032034E+00
         21   -1    0    0  503  502  0.00000000000E+00  0.00000000000E+00  0.55060961760E+03  0.55060961760E+03  0.00000000000E+00 0.  1.
         21   -1    0    0  501  503 -0.00000000000E+00 -0.00000000000E+00 -0.39773016022E+03  0.39773016022E+03  0.00000000000E+00 0. -1.
    9000007    1    1    2  501    0 -0.89716728869E+02 -0.14798581356E+03  0.24912475911E+03  0.50200800597E+03  0.40000000000E+03 0.  1.
   -9000007    1    1    2    0  502  0.89716728869E+02  0.14798581356E+03 -0.96245301736E+02  0.44633177185E+03  0.40000000000E+03 0. -1.
<mgrwt>
<rscale>  2 0.43583127E+03</rscale>
<asrwt>0</asrwt>
<pdfrwt beam="1">  1       21 0.84709172E-01 0.43583127E+03</pdfrwt>
<pdfrwt beam="2">  1       21 0.61189256E-01 0.43583127E+03</pdfrwt>
<totfact> 0.26177480E+03</totfact>
</mgrwt>
</event>
<event>
 4    1  0.4760244E-002  0.6139885E+03  0.7818608E-02  0.9876802E-01
         21   -1    0    0  501  502  0.00000000000E+00  0.00000000000E+00  0.26213010646E+03  0.26213010646E+03  0.00000000000E+00 0.  1.
         21   -1    0    0  502  503 -0.00000000000E+00 -0.00000000000E+00 -0.25814840019E+04  0.25814840019E+04  0.00000000000E+00 0. -1.
    9000007    1    1    2  501    0 -0.29865170081E+03  0.35747588729E+03 -0.21345522499E+03  0.65003460021E+03  0.40000000000E+03 0.  1.
   -9000007    1    1    2    0  503  0.29865170081E+03 -0.35747588729E+03 -0.21058986704E+04  0.21935795081E+04  0.40000000000E+03 0. -1.
<mgrwt>
<rscale>  2 0.61398848E+03</rscale>
<asrwt>0</asrwt>
<pdfrwt beam="1">  1       21 0.40327709E-01 0.61398848E+03</pdfrwt>
<pdfrwt beam="2">  1       21 0.39715138E+00 0.61398848E+03</pdfrwt>
<totfact> 0.35921842E+01</totfact>
</mgrwt>
</event>
<event>
 4    1  0.4760244E-002  0.4236647E+03  0.7818608E-02  0.1035880E+00
         21   -1    0    0  501  502  0.00000000000E+00  0.00000000000E+00  0.44389848039E+03  0.44389848039E+03  0.00000000000E+00 0.  1.
         21   -1    0    0  502  503 -0.00000000000E+00 -0.00000000000E+00 -0.18637729767E+04  0.18637729767E+04  0.00000000000E+00 0.  1.
    9000007    1    1    2  501    0 -0.23514413786E+02 -0.13761845287E+03  0.31109061225E+03  0.52561310415E+03  0.40000000000E+03 0.  1.
   -9000007    1    1    2    0  503  0.23514413786E+02  0.13761845287E+03 -0.17309651086E+04  0.17820583530E+04  0.40000000000E+03 0.  1.
<mgrwt>
<rscale>  2 0.42366469E+03</rscale>
<asrwt>0</asrwt>
<pdfrwt beam="1">  1       21 0.68292073E-01 0.42366469E+03</pdfrwt>
<pdfrwt beam="2">  1       21 0.28673431E+00 0.42366469E+03</pdfrwt>
<totfact> 0.62281804E+01</totfact>
</mgrwt>
</event>
<event>
 4    1  0.4760244E-002  0.4663148E+03  0.7818608E-02  0.1022966E+00
         21   -1    0    0  503  502  0.00000000000E+00  0.00000000000E+00  0.70925874655E+03  0.70925874655E+03  0.00000000000E+00 0. -1.
         21   -1    0    0  501  503 -0.00000000000E+00 -0.00000000000E+00 -0.42420596856E+03  0.42420596856E+03  0.00000000000E+00 0. -1.
    9000007    1    1    2  501    0 -0.23060085443E+03  0.65365860893E+02 -0.15589398162E+03  0.49168321441E+03  0.40000000000E+03 0. -1.
   -9000007    1    1    2    0  502  0.23060085443E+03 -0.65365860893E+02  0.44094675960E+03  0.64178150069E+03  0.40000000000E+03 0. -1.
<mgrwt>
<rscale>  2 0.46631475E+03</rscale>
<asrwt>0</asrwt>
<pdfrwt beam="1">  1       21 0.10911673E+00 0.46631475E+03</pdfrwt>
<pdfrwt beam="2">  1       21 0.65262456E-01 0.46631475E+03</pdfrwt>
<totfact> 0.12196570E+03</totfact>
</mgrwt>
</event>
<event>
 4    1  0.4760244E-002  0.6992673E+03  0.7818608E-02  0.9718486E-01
         21   -1    0    0  503  502  0.00000000000E+00  0.00000000000E+00  0.17292039381E+03  0.17292039381E+03  0.00000000000E+00 0.  1.
         21   -1    0    0  501  503 -0.00000000000E+00 -0.00000000000E+00 -0.29403899774E+04  0.29403899774E+04  0.00000000000E+00 0. -1.
    9000007    1    1    2  501    0  0.20239542954E+03  0.53666635739E+03 -0.10790527379E+04  0.12858186109E+04  0.40000000000E+03 0.  1.
   -9000007    1    1    2    0  502 -0.20239542954E+03 -0.53666635739E+03 -0.16884168458E+04  0.18274917603E+04  0.40000000000E+03 0. -1.
<mgrwt>
<rscale>  2 0.69926725E+03</rscale>
<asrwt>0</asrwt>
<pdfrwt beam="1">  1       21 0.26603142E-01 0.69926725E+03</pdfrwt>
<pdfrwt beam="2">  1       21 0.45236762E+00 0.69926725E+03</pdfrwt>
<totfact> 0.34334536E+01</totfact>
</mgrwt>
</event>
<event>
 4    1  0.4760244E-002  0.7286133E+03  0.7818608E-02  0.9669513E-01
         21   -1    0    0  501  502  0.00000000000E+00  0.00000000000E+00  0.32992151595E+03  0.32992151595E+03  0.00000000000E+00 0. -1.
         21   -1    0    0  502  503 -0.00000000000E+00 -0.00000000000E+00 -0.16651706956E+04  0.16651706956E+04  0.00000000000E+00 0. -1.
    9000007    1    1    2  501    0  0.39194055242E+03  0.46611146787E+03 -0.48457671407E+03  0.87503822141E+03  0.40000000000E+03 0. -1.
   -9000007    1    1    2    0  503 -0.39194055242E+03 -0.46611146787E+03 -0.85067246556E+03  0.11200539901E+04  0.40000000000E+03 0. -1.
<mgrwt>
<rscale>  2 0.72861327E+03</rscale>
<asrwt>0</asrwt>
<pdfrwt beam="1">  1       21 0.50757155E-01 0.72861327E+03</pdfrwt>
<pdfrwt beam="2">  1       21 0.25618011E+00 0.72861327E+03</pdfrwt>
<totfact> 0.15822307E+02</totfact>
</mgrwt>
</event>
<event>
 4    1  0.4760244E-002  0.4239875E+03  0.7818608E-02  0.1035776E+00
         21   -1    0    0  501  502  0.00000000000E+00  0.00000000000E+00  0.92656266550E+03  0.92656266550E+03  0.00000000000E+00 0.  1.
         21   -1    0    0  502  503 -0.00000000000E+00 -0.00000000000E+00 -0.23422693364E+03  0.23422693364E+03  0.00000000000E+00 0.  1.
    9000007    1    1    2  501    0 -0.13096076399E+03  0.51133637552E+02  0.58665530320E+03  0.72382996302E+03  0.40000000000E+03 0.  1.
   -9000007    1    1    2    0  503  0.13096076399E+03 -0.51133637552E+02  0.10568042867E+03  0.43695963612E+03  0.40000000000E+03 0.  1.
<mgrwt>
<rscale>  2 0.42398747E+03</rscale>
<asrwt>0</asrwt>
<pdfrwt beam="1">  1       21 0.14254810E+00 0.42398747E+03</pdfrwt>
<pdfrwt beam="2">  1       21 0.36034913E-01 0.42398747E+03</pdfrwt>
<totfact> 0.22007810E+03</totfact>
</mgrwt>
</event>
<event>
 4    1  0.4760244E-002  0.5206989E+03  0.7818608E-02  0.1008513E+00
         21   -1    0    0  501  502  0.00000000000E+00  0.00000000000E+00  0.94935854240E+03  0.94935854240E+03  0.00000000000E+00 0. -1.
         21   -1    0    0  502  503 -0.00000000000E+00 -0.00000000000E+00 -0.32134244097E+03  0.32134244097E+03  0.00000000000E+00 0.  1.
    9000007    1    1    2  501    0  0.93481325965E+02 -0.31998208609E+03  0.52593308138E+03  0.74008979172E+03  0.40000000000E+03 0. -1.
   -9000007    1    1    2    0  503 -0.93481325965E+02  0.31998208609E+03  0.10208302005E+03  0.53061119165E+03  0.40000000000E+03 0.  1.
<mgrwt>
<rscale>  2 0.52069885E+03</rscale>
<asrwt>0</asrwt>
<pdfrwt beam="1">  1       21 0.14605516E+00 0.52069885E+03</pdfrwt>
<pdfrwt beam="2">  1       21 0.49437299E-01 0.52069885E+03</pdfrwt>
<totfact> 0.10292460E+03</totfact>
</mgrwt>
</event>
<event>
 4    1  0.4760244E-002  0.4359902E+03  0.7818608E-02  0.1031984E+00
         21   -1    0    0  501  502  0.00000000000E+00  0.00000000000E+00  0.24818218358E+03  0.24818218358E+03  0.00000000000E+00 0.  1.
         21   -1    0    0  502  503 -0.00000000000E+00 -0.00000000000E+00 -0.84226510306E+03  0.84226510306E+03  0.00000000000E+00 0.  1.
    9000007    1    1    2  501    0 -0.16286806960E+03 -0.59677565662E+02 -0.46119265789E+03  0.63465430561E+03  0.40000000000E+03 0. -1.
   -9000007    1    1    2    0  503  0.16286806960E+03  0.59677565662E+02 -0.13289026159E+03  0.45579298104E+03  0.40000000000E+03 0. -1.
<mgrwt>
<rscale>  2 0.43599016E+03</rscale>
<asrwt>0</asrwt>
<pdfrwt beam="1">  1       21 0.38181875E-01 0.43599016E+03</pdfrwt>
<pdfrwt beam="2">  1       21 0.12957925E+00 0.43599016E+03</pdfrwt>
<totfact> 0.25012420E+03</totfact>
</mgrwt>
</event>
<event>
 4    1  0.4760244E-002  0.4050016E+03  0.7818608E-02  0.1042061E+00
         21   -1    0    0  501  502  0.00000000000E+00  0.00000000000E+00  0.11966921501E+04  0.11966921501E+04  0.00000000000E+00 0.  1.
         21   -1    0    0  502  503 -0.00000000000E+00 -0.00000000000E+00 -0.18874942949E+03  0.18874942949E+03  0.00000000000E+00 0.  1.
    9000007    1    1    2  501    0 -0.49692777475E+02  0.39458164145E+02  0.14148701094E+03  0.42900453741E+03  0.40000000000E+03 0.  1.
   -9000007    1    1    2    0  503  0.49692777475E+02 -0.39458164145E+02  0.86645570965E+03  0.95643704217E+03  0.40000000000E+03 0.  1.
<mgrwt>
<rscale>  2 0.40500163E+03</rscale>
<asrwt>0</asrwt>
<pdfrwt beam="1">  1       21 0.18410648E+00 0.40500163E+03</pdfrwt>
<pdfrwt beam="2">  1       21 0.29038375E-01 0.40500163E+03</pdfrwt>
<totfact> 0.16730688E+03</totfact>
</mgrwt>
</event>
<event>
 4    1  0.4760244E-002  0.4518928E+03  0.7818608E-02  0.1027159E+00
         21   -1    0    0  503  502  0.00000000000E+00  0.00000000000E+00  0.13970044213E+03  0.13970044213E+03  0.00000000000E+00 0.  1.
         21   -1    0    0  501  503 -0.00000000000E+00 -0.00000000000E+00 -0.16758539027E+04  0.16758539027E+04  0.00000000000E+00 0.  1.
    9000007    1    1    2  501    0 -0.18278844877E+03  0.10390153196E+03 -0.10925457952E+04  0.11823127589E+04  0.40000000000E+03 0.  1.
   -9000007    1    1    2    0  502  0.18278844877E+03 -0.10390153196E+03 -0.44360766544E+03  0.63324158596E+03  0.40000000000E+03 0.  1.
<mgrwt>
<rscale>  2 0.45189285E+03</rscale>
<asrwt>0</asrwt>
<pdfrwt beam="1">  1       21 0.21492374E-01 0.45189285E+03</pdfrwt>
<pdfrwt beam="2">  1       21 0.25782369E+00 0.45189285E+03</pdfrwt>
<totfact> 0.98749256E+02</totfact>
</mgrwt>
</event>
<event>
 4    1  0.4760244E-002  0.4375120E+03  0.7818608E-02  0.1031513E+00
         21   -1    0    0  503  502  0.00000000000E+00  0.00000000000E+00  0.72383062082E+03  0.72383062082E+03  0.00000000000E+00 0. -1.
         21   -1    0    0  501  503 -0.00000000000E+00 -0.00000000000E+00 -0.54937159378E+03  0.54937159378E+03  0.00000000000E+00 0. -1.
    9000007    1    1    2  501    0  0.16903736882E+03  0.53320821964E+02 -0.37122605480E+03  0.57378177548E+03  0.40000000000E+03 0. -1.
   -9000007    1    1    2    0  502 -0.16903736882E+03 -0.53320821964E+02  0.54568508184E+03  0.69942043912E+03  0.40000000000E+03 0. -1.
<mgrwt>
<rscale>  2 0.43751199E+03</rscale>
<asrwt>0</asrwt>
<pdfrwt beam="1">  1       21 0.11135856E+00 0.43751199E+03</pdfrwt>
<pdfrwt beam="2">  1       21 0.84518707E-01 0.43751199E+03</pdfrwt>
<totfact> 0.65124463E+02</totfact>
</mgrwt>
</event>
<event>
 4    1  0.4760244E-002  0.4742196E+03  0.7818608E-02  0.1020736E+00
         21   -1    0    0  501  502  0.00000000000E+00  0.00000000000E+00  0.10253451361E+04  0.10253451361E+04  0.00000000000E+00 0.  1.
         21   -1    0    0  502  503 -0.00000000000E+00 -0.00000000000E+00 -0.27138997490E+03  0.27138997490E+03  0.00000000000E+00 0. -1.
    9000007    1    1    2  501    0  0.25467692557E+03 -0.48882529796E+01  0.66096267138E+03  0.81348379479E+03  0.40000000000E+03 0.  1.
   -9000007    1    1    2    0  503 -0.25467692557E+03  0.48882529796E+01  0.92992489797E+02  0.48325131618E+03  0.40000000000E+03 0. -1.
<mgrwt>
<rscale>  2 0.47421960E+03</rscale>
<asrwt>0</asrwt>
<pdfrwt beam="1">  1       21 0.15774540E+00 0.47421960E+03</pdfrwt>
<pdfrwt beam="2">  1       21 0.41752304E-01 0.47421960E+03</pdfrwt>
<totfact> 0.12104095E+03</totfact>
</mgrwt>
</event>
<event>
 4    1  0.4760244E-002  0.4301637E+03  0.7818608E-02  0.1033808E+00
         21   -1    0    0  501  502  0.00000000000E+00  0.00000000000E+00  0.55069754715E+03  0.55069754715E+03  0.00000000000E+00 0.  1.
         21   -1    0    0  502  503 -0.00000000000E+00 -0.00000000000E+00 -0.77649789681E+03  0.77649789681E+03  0.00000000000E+00 0.  1.
    9000007    1    1    2  501    0 -0.95137683822E+02 -0.12644999823E+03  0.38690520972E+03  0.57856410383E+03  0.40000000000E+03 0.  1.
   -9000007    1    1    2    0  503  0.95137683822E+02  0.12644999823E+03 -0.61270555938E+03  0.74863134013E+03  0.40000000000E+03 0.  1.
<mgrwt>
<rscale>  2 0.43016367E+03</rscale>
<asrwt>0</asrwt>
<pdfrwt beam="1">  1       21 0.84722700E-01 0.43016367E+03</pdfrwt>
<pdfrwt beam="2">  1       21 0.11946121E+00 0.43016367E+03</pdfrwt>
<totfact> 0.54501386E+02</totfact>
</mgrwt>
</event>
<event>
 4    1  0.4760244E-002  0.4136630E+03  0.7818608E-02  0.1039149E+00
         21   -1    0    0  503  502  0.00000000000E+00  0.00000000000E+00  0.16650029838E+04  0.16650029838E+04  0.00000000000E+00 0.  1.
         21   -1    0    0  501  503 -0.00000000000E+00 -0.00000000000E+00 -0.10893366718E+03  0.10893366718E+03  0.00000000000E+00 0. -1.
    9000007    1    1    2  501    0  0.50564564631E+02  0.92521910186E+02  0.98896870932E+03  0.10719963559E+04  0.40000000000E+03 0.  1.
   -9000007    1    1    2    0  502 -0.50564564631E+02 -0.92521910186E+02  0.56710060733E+03  0.70194029511E+03  0.40000000000E+03 0. -1.
<mgrwt>
<rscale>  2 0.41366300E+03</rscale>
<asrwt>0</asrwt>
<pdfrwt beam="1">  1       21 0.25615429E+00 0.41366300E+03</pdfrwt>
<pdfrwt beam="2">  1       21 0.16759027E-01 0.41366300E+03</pdfrwt>
<totfact> 0.16504780E+03</totfact>
</mgrwt>
</event>
<event>
 4    1  0.4760244E-002  0.4066553E+03  0.7818608E-02  0.1041499E+00
         21   -1    0    0  503  502  0.00000000000E+00  0.00000000000E+00  0.11339871975E+03  0.11339871975E+03  0.00000000000E+00 0. -1.
         21   -1    0    0  501  503 -0.00000000000E+00 -0.00000000000E+00 -0.15871478290E+04  0.15871478290E+04  0.00000000000E+00 0. -1.
    9000007    1    1    2  501    0  0.40465435609E+02  0.61082747179E+02 -0.97914490859E+03  0.10602326657E+04  0.40000000000E+03 0. -1.
   -9000007    1    1    2    0  502 -0.40465435609E+02 -0.61082747179E+02 -0.49460420069E+03  0.64031388305E+03  0.40000000000E+03 0. -1.
<mgrwt>
<rscale>  2 0.40665533E+03</rscale>
<asrwt>0</asrwt>
<pdfrwt beam="1">  1       21 0.17445958E-01 0.40665533E+03</pdfrwt>
<pdfrwt beam="2">  1       21 0.24417657E+00 0.40665533E+03</pdfrwt>
<totfact> 0.18188788E+03</totfact>
</mgrwt>
</event>
<event>
 4    1  0.4760244E-002  0.4383754E+03  0.7818608E-02  0.1031246E+00
         21   -1    0    0  503  502  0.00000000000E+00  0.00000000000E+00  0.10591219557E+04  0.10591219557E+04  0.00000000000E+00 0. -1.
         21   -1    0    0  501  503 -0.00000000000E+00 -0.00000000000E+00 -0.40407756587E+03  0.40407756587E+03  0.00000000000E+00 0. -1.
    9000007    1    1    2  501    0  0.27928917919E+02 -0.17718066692E+03 -0.21552171906E+03  0.48849014788E+03  0.40000000000E+03 0. -1.
   -9000007    1    1    2    0  502 -0.27928917919E+02  0.17718066692E+03  0.87056610886E+03  0.97470937365E+03  0.40000000000E+03 0. -1.
<mgrwt>
<rscale>  2 0.43837542E+03</rscale>
<asrwt>0</asrwt>
<pdfrwt beam="1">  1       21 0.16294184E+00 0.43837542E+03</pdfrwt>
<pdfrwt beam="2">  1       21 0.62165779E-01 0.43837542E+03</pdfrwt>
<totfact> 0.48009460E+02</totfact>
</mgrwt>
</event>
<event>
 4    1  0.4760244E-002  0.5504506E+03  0.7818608E-02  0.1001390E+00
         21   -1    0    0  503  502  0.00000000000E+00  0.00000000000E+00  0.90074907660E+03  0.90074907660E+03  0.00000000000E+00 0. -1.
         21   -1    0    0  501  503 -0.00000000000E+00 -0.00000000000E+00 -0.33768212146E+03  0.33768212146E+03  0.00000000000E+00 0.  1.
    9000007    1    1    2  501    0  0.36396836871E+03 -0.10258111325E+03  0.31995411368E+03  0.63668398211E+03  0.40000000000E+03 0. -1.
   -9000007    1    1    2    0  502 -0.36396836871E+03  0.10258111325E+03  0.24311284146E+03  0.60174721595E+03  0.40000000000E+03 0.  1.
<mgrwt>
<rscale>  2 0.55045060E+03</rscale>
<asrwt>0</asrwt>
<pdfrwt beam="1">  1       21 0.13857678E+00 0.55045060E+03</pdfrwt>
<pdfrwt beam="2">  1       21 0.51951096E-01 0.55045060E+03</pdfrwt>
<totfact> 0.10551216E+03</totfact>
</mgrwt>
</event>
<event>
 4    1  0.4760244E-002  0.4847363E+03  0.7818608E-02  0.1017842E+00
         21   -1    0    0  501  502  0.00000000000E+00  0.00000000000E+00  0.76990601102E+03  0.76990601102E+03  0.00000000000E+00 0. -1.
         21   -1    0    0  502  503 -0.00000000000E+00 -0.00000000000E+00 -0.30519413695E+03  0.30519413695E+03  0.00000000000E+00 0. -1.
    9000007    1    1    2  501    0  0.21373251166E+03  0.17113652726E+03  0.23099637256E+03  0.53696240245E+03  0.40000000000E+03 0. -1.
   -9000007    1    1    2    0  503 -0.21373251166E+03 -0.17113652726E+03  0.23371550151E+03  0.53813774552E+03  0.40000000000E+03 0. -1.
<mgrwt>
<rscale>  2 0.48473632E+03</rscale>
<asrwt>0</asrwt>
<pdfrwt beam="1">  1       21 0.11844708E+00 0.48473632E+03</pdfrwt>
<pdfrwt beam="2">  1       21 0.46952945E-01 0.48473632E+03</pdfrwt>
<totfact> 0.20130533E+03</totfact>
</mgrwt>
</event>
<event>
 4    1  0.4760244E-002  0.4735856E+03  0.7818608E-02  0.1020913E+00
         21   -1    0    0  503  502  0.00000000000E+00  0.00000000000E+00  0.74264221483E+03  0.74264221483E+03  0.00000000000E+00 0. -1.
         21   -1    0    0  501  503 -0.00000000000E+00 -0.00000000000E+00 -0.30504271346E+03  0.30504271346E+03  0.00000000000E+00 0. -1.
    9000007    1    1    2  501    0  0.24183878849E+03  0.76139906132E+02  0.27105591295E+03  0.54566894073E+03  0.40000000000E+03 0. -1.
   -9000007    1    1    2    0  502 -0.24183878849E+03 -0.76139906132E+02  0.16654358842E+03  0.50201598756E+03  0.40000000000E+03 0. -1.
<mgrwt>
<rscale>  2 0.47358556E+03</rscale>
<asrwt>0</asrwt>
<pdfrwt beam="1">  1       21 0.11425265E+00 0.47358556E+03</pdfrwt>
<pdfrwt beam="2">  1       21 0.46929649E-01 0.47358556E+03</pdfrwt>
<totfact> 0.22149689E+03</totfact>
</mgrwt>
</event>
<event>
 4    1  0.4760244E-002  0.5041240E+03  0.7818608E-02  0.1012708E+00
         21   -1    0    0  501  502  0.00000000000E+00  0.00000000000E+00  0.51651962931E+03  0.51651962931E+03  0.00000000000E+00 0. -1.
         21   -1    0    0  502  503 -0.00000000000E+00 -0.00000000000E+00 -0.49526169798E+03  0.49526169798E+03  0.00000000000E+00 0. -1.
    9000007    1    1    2  501    0  0.28110940387E+02 -0.30553367513E+03  0.51519981297E+02  0.50674980027E+03  0.40000000000E+03 0. -1.
   -9000007    1    1    2    0  503 -0.28110940387E+02  0.30553367513E+03 -0.30262049965E+02  0.50503152701E+03  0.40000000000E+03 0. -1.
<mgrwt>
<rscale>  2 0.50412404E+03</rscale>
<asrwt>0</asrwt>
<pdfrwt beam="1">  1       21 0.79464559E-01 0.50412404E+03</pdfrwt>
<pdfrwt beam="2">  1       21 0.76194107E-01 0.50412404E+03</pdfrwt>
<totfact> 0.18119125E+03</totfact>
</mgrwt>
</event>
<event>
 4    1  0.4760244E-002  0.5387981E+03  0.7818608E-02  0.1004120E+00
         21   -1    0    0  503  502  0.00000000000E+00  0.00000000000E+00  0.68756854664E+03  0.68756854664E+03  0.00000000000E+00 0. -1.
         21   -1    0    0  501  503 -0.00000000000E+00 -0.00000000000E+00 -0.62874459795E+03  0.62874459795E+03  0.00000000000E+00 0. -1.
    9000007    1    1    2  501    0  0.36066387550E+03  0.14998833098E+02 -0.34779588050E+03  0.64129975096E+03  0.40000000000E+03 0. -1.
   -9000007    1    1    2    0  502 -0.36066387550E+03 -0.14998833098E+02  0.40661982919E+03  0.67501339363E+03  0.40000000000E+03 0. -1.
<mgrwt>
<rscale>  2 0.53879810E+03</rscale>
<asrwt>0</asrwt>
<pdfrwt beam="1">  1       21 0.10577978E+00 0.53879810E+03</pdfrwt>
<pdfrwt beam="2">  1       21 0.96729938E-01 0.53879810E+03</pdfrwt>
<totfact> 0.51514182E+02</totfact>
</mgrwt>
</event>
<event>
 4    1  0.4760244E-002  0.4196769E+03  0.7818608E-02  0.1037171E+00
         21   -1    0    0  501  502  0.00000000000E+00  0.00000000000E+00  0.14250374178E+03  0.14250374178E+03  0.00000000000E+00 0. -1.
         21   -1    0    0  502  503 -0.00000000000E+00 -0.00000000000E+00 -0.12983147949E+04  0.12983147949E+04  0.00000000000E+00 0. -1.
    9000007    1    1    2  501    0 -0.86805076427E+02  0.92701737387E+02 -0.42002488213E+03  0.59375890310E+03  0.40000000000E+03 0. -1.
   -9000007    1    1    2    0  503  0.86805076427E+02 -0.92701737387E+02 -0.73578617096E+03  0.84705963355E+03  0.40000000000E+03 0. -1.
<mgrwt>
<rscale>  2 0.41967694E+03</rscale>
<asrwt>0</asrwt>
<pdfrwt beam="1">  1       21 0.21923654E-01 0.41967694E+03</pdfrwt>
<pdfrwt beam="2">  1       21 0.19974073E+00 0.41967694E+03</pdfrwt>
<totfact> 0.22483553E+03</totfact>
</mgrwt>
</event>
<event>
 4    1  0.4760244E-002  0.4746642E+03  0.7818608E-02  0.1020612E+00
         21   -1    0    0  503  502  0.00000000000E+00  0.00000000000E+00  0.99892671761E+03  0.99892671761E+03  0.00000000000E+00 0. -1.
         21   -1    0    0  501  503 -0.00000000000E+00 -0.00000000000E+00 -0.46352050583E+03  0.46352050583E+03  0.00000000000E+00 0.  1.
    9000007    1    1    2  501    0 -0.25496106937E+03  0.17349254795E+02 -0.25623371599E+03  0.53940880670E+03  0.40000000000E+03 0.  1.
   -9000007    1    1    2    0  502  0.25496106937E+03 -0.17349254795E+02  0.79163992777E+03  0.92303841674E+03  0.40000000000E+03 0. -1.
<mgrwt>
<rscale>  2 0.47466424E+03</rscale>
<asrwt>0</asrwt>
<pdfrwt beam="1">  1       21 0.15368103E+00 0.47466424E+03</pdfrwt>
<pdfrwt beam="2">  1       21 0.71310847E-01 0.47466424E+03</pdfrwt>
<totfact> 0.40869662E+02</totfact>
</mgrwt>
</event>
<event>
 4    1  0.4760244E-002  0.4072449E+03  0.7818608E-02  0.1041299E+00
         21   -1    0    0  503  502  0.00000000000E+00  0.00000000000E+00  0.57519848538E+03  0.57519848538E+03  0.00000000000E+00 0. -1.
         21   -1    0    0  501  503 -0.00000000000E+00 -0.00000000000E+00 -0.30127487943E+03  0.30127487943E+03  0.00000000000E+00 0. -1.
    9000007    1    1    2  501    0  0.63495996340E+02 -0.42622669774E+02  0.22779275299E+03  0.46662401550E+03  0.40000000000E+03 0. -1.
   -9000007    1    1    2    0  502 -0.63495996340E+02  0.42622669774E+02  0.46130852961E+02  0.40984934930E+03  0.40000000000E+03 0. -1.
<mgrwt>
<rscale>  2 0.40724493E+03</rscale>
<asrwt>0</asrwt>
<pdfrwt beam="1">  1       21 0.88492075E-01 0.40724493E+03</pdfrwt>
<pdfrwt beam="2">  1       21 0.46349981E-01 0.40724493E+03</pdfrwt>
<totfact> 0.43343546E+03</totfact>
</mgrwt>
</event>
<event>
 4    1  0.4760244E-002  0.4055503E+03  0.7818608E-02  0.1041875E+00
         21   -1    0    0  501  502  0.00000000000E+00  0.00000000000E+00  0.27228026215E+03  0.27228026215E+03  0.00000000000E+00 0. -1.
         21   -1    0    0  502  503 -0.00000000000E+00 -0.00000000000E+00 -0.64108808391E+03  0.64108808391E+03  0.00000000000E+00 0. -1.
    9000007    1    1    2  501    0 -0.11687668636E+02  0.65836565957E+02 -0.74635377504E+02  0.41236087907E+03  0.40000000000E+03 0. -1.
   -9000007    1    1    2    0  503  0.11687668636E+02 -0.65836565957E+02 -0.29417244425E+03  0.50100746698E+03  0.40000000000E+03 0. -1.
<mgrwt>
<rscale>  2 0.40555031E+03</rscale>
<asrwt>0</asrwt>
<pdfrwt beam="1">  1       21 0.41889271E-01 0.40555031E+03</pdfrwt>
<pdfrwt beam="2">  1       21 0.98628935E-01 0.40555031E+03</pdfrwt>
<totfact> 0.41362239E+03</totfact>
</mgrwt>
</event>
<event>
 4    1  0.4760244E-002  0.5406887E+03  0.7818608E-02  0.1003672E+00
         21   -1    0    0  503  502  0.00000000000E+00  0.00000000000E+00  0.43756132575E+03  0.43756132575E+03  0.00000000000E+00 0.  1.
         21   -1    0    0  501  503 -0.00000000000E+00 -0.00000000000E+00 -0.68822247831E+03  0.68822247831E+03  0.00000000000E+00 0.  1.
    9000007    1    1    2  501    0 -0.36180980831E+03  0.37920663290E+02 -0.29132893815E+02  0.54147302758E+03  0.40000000000E+03 0.  1.
   -9000007    1    1    2    0  502  0.36180980831E+03 -0.37920663290E+02 -0.22152825875E+03  0.58431077648E+03  0.40000000000E+03 0.  1.
<mgrwt>
<rscale>  2 0.54068874E+03</rscale>
<asrwt>0</asrwt>
<pdfrwt beam="1">  1       21 0.67317127E-01 0.54068874E+03</pdfrwt>
<pdfrwt beam="2">  1       21 0.10588038E+00 0.54068874E+03</pdfrwt>
<totfact> 0.11938974E+03</totfact>
</mgrwt>
</event>
<event>
 4    1  0.4760244E-002  0.4362067E+03  0.7818608E-02  0.1031917E+00
         21   -1    0    0  503  502  0.00000000000E+00  0.00000000000E+00  0.22494730968E+04  0.22494730968E+04  0.00000000000E+00 0.  1.
         21   -1    0    0  501  503 -0.00000000000E+00 -0.00000000000E+00 -0.84901833073E+02  0.84901833073E+02  0.00000000000E+00 0.  1.
    9000007    1    1    2  501    0  0.16667213932E+03  0.49966796023E+02  0.11533564005E+04  0.12330885083E+04  0.40000000000E+03 0.  1.
   -9000007    1    1    2    0  502 -0.16667213932E+03 -0.49966796023E+02  0.10112148632E+04  0.11012864216E+04  0.40000000000E+03 0.  1.
<mgrwt>
<rscale>  2 0.43620670E+03</rscale>
<asrwt>0</asrwt>
<pdfrwt beam="1">  1       21 0.34607274E+00 0.43620670E+03</pdfrwt>
<pdfrwt beam="2">  1       21 0.13061822E-01 0.43620670E+03</pdfrwt>
<totfact> 0.74172432E+02</totfact>
</mgrwt>
</event>
<event>
 4    1  0.4760244E-002  0.4363759E+03  0.7818608E-02  0.1031865E+00
         21   -1    0    0  501  502  0.00000000000E+00  0.00000000000E+00  0.72890682197E+03  0.72890682197E+03  0.00000000000E+00 0. -1.
         21   -1    0    0  502  503 -0.00000000000E+00 -0.00000000000E+00 -0.26692022670E+03  0.26692022670E+03  0.00000000000E+00 0. -1.
    9000007    1    1    2  501    0  0.17442209403E+03  0.94401656959E+00  0.30359023234E+03  0.53159287732E+03  0.40000000000E+03 0. -1.
   -9000007    1    1    2    0  503 -0.17442209403E+03 -0.94401656959E+00  0.15839636293E+03  0.46423417134E+03  0.40000000000E+03 0. -1.
<mgrwt>
<rscale>  2 0.43637594E+03</rscale>
<asrwt>0</asrwt>
<pdfrwt beam="1">  1       21 0.11213951E+00 0.43637594E+03</pdfrwt>
<pdfrwt beam="2">  1       21 0.41064651E-01 0.43637594E+03</pdfrwt>
<totfact> 0.31084899E+03</totfact>
</mgrwt>
</event>
<event>
 4    1  0.4760244E-002  0.4033671E+03  0.7818608E-02  0.1042620E+00
         21   -1    0    0  501  502  0.00000000000E+00  0.00000000000E+00  0.22726943067E+03  0.22726943067E+03  0.00000000000E+00 0.  1.
         21   -1    0    0  502  503 -0.00000000000E+00 -0.00000000000E+00 -0.85438204667E+03  0.85438204667E+03  0.00000000000E+00 0.  1.
    9000007    1    1    2  501    0  0.15181925410E+02 -0.49744772872E+02 -0.95831266462E+02  0.41459457898E+03  0.40000000000E+03 0.  1.
   -9000007    1    1    2    0  503 -0.15181925410E+02  0.49744772872E+02 -0.53128134953E+03  0.66705689836E+03  0.40000000000E+03 0.  1.
<mgrwt>
<rscale>  2 0.40336712E+03</rscale>
<asrwt>0</asrwt>
<pdfrwt beam="1">  1       21 0.34964527E-01 0.40336712E+03</pdfrwt>
<pdfrwt beam="2">  1       21 0.13144339E+00 0.40336712E+03</pdfrwt>
<totfact> 0.29202985E+03</totfact>
</mgrwt>
</event>
<event>
 4    1  0.4760244E-002  0.5062726E+03  0.7818608E-02  0.1012155E+00
         21   -1    0    0  503  502  0.00000000000E+00  0.00000000000E+00  0.32171713717E+04  0.32171713717E+04  0.00000000000E+00 0.  1.
         21   -1    0    0  501  503 -0.00000000000E+00 -0.00000000000E+00 -0.27808401734E+03  0.27808401734E+03  0.00000000000E+00 0.  1.
    9000007    1    1    2  501    0 -0.18247692971E+03  0.25102604477E+03 -0.66628665385E+01  0.50631640189E+03  0.40000000000E+03 0.  1.
   -9000007    1    1    2    0  502  0.18247692971E+03 -0.25102604477E+03  0.29457502209E+04  0.29889389872E+04  0.40000000000E+03 0.  1.
<mgrwt>
<rscale>  2 0.50627256E+03</rscale>
<asrwt>0</asrwt>
<pdfrwt beam="1">  1       21 0.49494941E+00 0.50627256E+03</pdfrwt>
<pdfrwt beam="2">  1       21 0.42782159E-01 0.50627256E+03</pdfrwt>
<totfact> 0.73851358E+00</totfact>
</mgrwt>
</event>
<event>
 4    1  0.4760244E-002  0.4321404E+03  0.7818608E-02  0.1033186E+00
         21   -1    0    0  501  502  0.00000000000E+00  0.00000000000E+00  0.12945729895E+04  0.12945729895E+04  0.00000000000E+00 0. -1.
         21   -1    0    0  502  503 -0.00000000000E+00 -0.00000000000E+00 -0.16736973072E+03  0.16736973072E+03  0.00000000000E+00 0. -1.
    9000007    1    1    2  501    0 -0.50372425018E+01  0.16346226065E+03  0.83526468009E+03  0.94043201257E+03  0.40000000000E+03 0. -1.
   -9000007    1    1    2    0  503  0.50372425018E+01 -0.16346226065E+03  0.29193857871E+03  0.52151070766E+03  0.40000000000E+03 0. -1.
<mgrwt>
<rscale>  2 0.43214035E+03</rscale>
<asrwt>0</asrwt>
<pdfrwt beam="1">  1       21 0.19916507E+00 0.43214035E+03</pdfrwt>
<pdfrwt beam="2">  1       21 0.25749190E-01 0.43214035E+03</pdfrwt>
<totfact> 0.16527232E+03</totfact>
</mgrwt>
</event>
<event>
 4    1  0.4760244E-002  0.6117624E+03  0.7818608E-02  0.9881299E-01
         21   -1    0    0  503  502  0.00000000000E+00  0.00000000000E+00  0.99832310786E+03  0.99832310786E+03  0.00000000000E+00 0.  1.
         21   -1    0    0  501  503 -0.00000000000E+00 -0.00000000000E+00 -0.64534752473E+03  0.64534752473E+03  0.00000000000E+00 0.  1.
    9000007    1    1    2  501    0  0.44450025180E+03  0.12912280742E+03 -0.35555196501E+03  0.70758064775E+03  0.40000000000E+03 0.  1.
   -9000007    1    1    2    0  502 -0.44450025180E+03 -0.12912280742E+03  0.70852754814E+03  0.93608998484E+03  0.40000000000E+03 0.  1.
<mgrwt>
<rscale>  2 0.61176235E+03</rscale>
<asrwt>0</asrwt>
<pdfrwt beam="1">  1       21 0.15358817E+00 0.61176235E+03</pdfrwt>
<pdfrwt beam="2">  1       21 0.99284235E-01 0.61176235E+03</pdfrwt>
<totfact> 0.17804551E+02</totfact>
</mgrwt>
</event>
<event>
 4    1  0.4760244E-002  0.4821336E+03  0.7818608E-02  0.1018550E+00
         21   -1    0    0  503  502  0.00000000000E+00  0.00000000000E+00  0.76601087605E+03  0.76601087605E+03  0.00000000000E+00 0. -1.
         21   -1    0    0  501  503 -0.00000000000E+00 -0.00000000000E+00 -0.34819436469E+03  0.34819436469E+03  0.00000000000E+00 0.  1.
    9000007    1    1    2  501    0  0.25997275107E+03  0.69763921356E+02  0.92210713124E+01  0.48222179977E+03  0.40000000000E+03 0.  1.
   -9000007    1    1    2    0  502 -0.25997275107E+03 -0.69763921356E+02  0.40859544005E+03  0.63198344097E+03  0.40000000000E+03 0.  1.
<mgrwt>
<rscale>  2 0.48213363E+03</rscale>
<asrwt>0</asrwt>
<pdfrwt beam="1">  1       21 0.11784783E+00 0.48213363E+03</pdfrwt>
<pdfrwt beam="2">  1       21 0.53568364E-01 0.48213363E+03</pdfrwt>
<totfact> 0.15409636E+03</totfact>
</mgrwt>
</event>
<event>
 4    1  0.4760244E-002  0.4312113E+03  0.7818608E-02  0.1033478E+00
         21   -1    0    0  501  502  0.00000000000E+00  0.00000000000E+00  0.27798447853E+03  0.27798447853E+03  0.00000000000E+00 0. -1.
         21   -1    0    0  502  503 -0.00000000000E+00 -0.00000000000E+00 -0.13172319432E+04  0.13172319432E+04  0.00000000000E+00 0. -1.
    9000007    1    1    2  501    0 -0.11876256701E+03 -0.10880545388E+03  0.39950843816E+02  0.43305801463E+03  0.40000000000E+03 0. -1.
   -9000007    1    1    2    0  503  0.11876256701E+03  0.10880545388E+03 -0.10791983084E+04  0.11621584070E+04  0.40000000000E+03 0. -1.
<mgrwt>
<rscale>  2 0.43121129E+03</rscale>
<asrwt>0</asrwt>
<pdfrwt beam="1">  1       21 0.42766844E-01 0.43121129E+03</pdfrwt>
<pdfrwt beam="2">  1       21 0.20265106E+00 0.43121129E+03</pdfrwt>
<totfact> 0.56519668E+02</totfact>
</mgrwt>
</event>
<event>
 4    1  0.4760244E-002  0.5915509E+03  0.7818608E-02  0.9923092E-01
         21   -1    0    0  503  502  0.00000000000E+00  0.00000000000E+00  0.10266749607E+04  0.10266749607E+04  0.00000000000E+00 0.  1.
         21   -1    0    0  501  503 -0.00000000000E+00 -0.00000000000E+00 -0.62825019360E+03  0.62825019360E+03  0.00000000000E+00 0. -1.
    9000007    1    1    2  501    0 -0.13358382069E+03  0.41483469890E+03 -0.36045849449E+03  0.69272129374E+03  0.40000000000E+03 0. -1.
   -9000007    1    1    2    0  502  0.13358382069E+03 -0.41483469890E+03  0.75888326159E+03  0.96220386056E+03  0.40000000000E+03 0.  1.
<mgrwt>
<rscale>  2 0.59155090E+03</rscale>
<asrwt>0</asrwt>
<pdfrwt beam="1">  1       21 0.15794999E+00 0.59155090E+03</pdfrwt>
<pdfrwt beam="2">  1       21 0.96653876E-01 0.59155090E+03</pdfrwt>
<totfact> 0.17714756E+02</totfact>
</mgrwt>
</event>
<event>
 4    1  0.4760244E-002  0.4793207E+03  0.7818608E-02  0.1019322E+00
         21   -1    0    0  501  502  0.00000000000E+00  0.00000000000E+00  0.31221445284E+04  0.31221445284E+04  0.00000000000E+00 0.  1.
         21   -1    0    0  502  503 -0.00000000000E+00 -0.00000000000E+00 -0.75211258150E+02  0.75211258150E+02  0.00000000000E+00 0.  1.
    9000007    1    1    2  501    0  0.15287717337E+03  0.21535296608E+03  0.17584225754E+04  0.18225801172E+04  0.40000000000E+03 0.  1.
   -9000007    1    1    2    0  503 -0.15287717337E+03 -0.21535296608E+03  0.12885106948E+04  0.13747756693E+04  0.40000000000E+03 0.  1.
<mgrwt>
<rscale>  2 0.47932070E+03</rscale>
<asrwt>0</asrwt>
<pdfrwt beam="1">  1       21 0.48032983E+00 0.47932070E+03</pdfrwt>
<pdfrwt beam="2">  1       21 0.11570965E-01 0.47932070E+03</pdfrwt>
<totfact> 0.11980749E+02</totfact>
</mgrwt>
</event>
<event>
 4    1  0.4760244E-002  0.6965982E+03  0.7818608E-02  0.9723067E-01
         21   -1    0    0  501  502  0.00000000000E+00  0.00000000000E+00  0.71818204308E+03  0.71818204308E+03  0.00000000000E+00 0.  1.
         21   -1    0    0  502  503 -0.00000000000E+00 -0.00000000000E+00 -0.73714159604E+03  0.73714159604E+03  0.00000000000E+00 0. -1.
    9000007    1    1    2  501    0 -0.22486489659E+03  0.52410388831E+03  0.20066361496E+03  0.72492412971E+03  0.40000000000E+03 0. -1.
   -9000007    1    1    2    0  503  0.22486489659E+03 -0.52410388831E+03 -0.21962316792E+03  0.73039950941E+03  0.40000000000E+03 0.  1.
<mgrwt>
<rscale>  2 0.69659824E+03</rscale>
<asrwt>0</asrwt>
<pdfrwt beam="1">  1       21 0.11048955E+00 0.69659824E+03</pdfrwt>
<pdfrwt beam="2">  1       21 0.11340640E+00 0.69659824E+03</pdfrwt>
<totfact> 0.29573320E+02</totfact>
</mgrwt>
</event>
<event>
 4    1  0.4760244E-002  0.4708018E+03  0.7818608E-02  0.1021694E+00
         21   -1    0    0  503  502  0.00000000000E+00  0.00000000000E+00  0.14252291633E+03  0.14252291633E+03  0.00000000000E+00 0.  1.
         21   -1    0    0  501  503 -0.00000000000E+00 -0.00000000000E+00 -0.36971343801E+04  0.36971343801E+04  0.00000000000E+00 0. -1.
    9000007    1    1    2  501    0 -0.76609709379E+02 -0.23618917276E+03 -0.32385774754E+04  0.32726195069E+04  0.40000000000E+03 0. -1.
   -9000007    1    1    2    0  502  0.76609709379E+02  0.23618917276E+03 -0.31603398829E+03  0.56703778944E+03  0.40000000000E+03 0.  1.
<mgrwt>
<rscale>  2 0.47080184E+03</rscale>
<asrwt>0</asrwt>
<pdfrwt beam="1">  1       21 0.21926606E-01 0.47080184E+03</pdfrwt>
<pdfrwt beam="2">  1       21 0.56878982E+00 0.47080184E+03</pdfrwt>
<totfact> 0.82320080E+00</totfact>
</mgrwt>
</event>
<event>
 4    1  0.4760244E-002  0.5024084E+03  0.7818608E-02  0.1013152E+00
         21   -1    0    0  503  502  0.00000000000E+00  0.00000000000E+00  0.40042470623E+03  0.40042470623E+03  0.00000000000E+00 0.  1.
         21   -1    0    0  501  503 -0.00000000000E+00 -0.00000000000E+00 -0.10422082363E+04  0.10422082363E+04  0.00000000000E+00 0.  1.
    9000007    1    1    2  501    0 -0.95621515054E+02  0.28856670438E+03 -0.77432558915E+03  0.92303539208E+03  0.40000000000E+03 0.  1.
   -9000007    1    1    2    0  502  0.95621515054E+02 -0.28856670438E+03  0.13254205908E+03  0.51959755046E+03  0.40000000000E+03 0.  1.
<mgrwt>
<rscale>  2 0.50240842E+03</rscale>
<asrwt>0</asrwt>
<pdfrwt beam="1">  1       21 0.61603802E-01 0.50240842E+03</pdfrwt>
<pdfrwt beam="2">  1       21 0.16033973E+00 0.50240842E+03</pdfrwt>
<totfact> 0.49781171E+02</totfact>
</mgrwt>
</event>
<event>
 4    1  0.4760244E-002  0.4084344E+03  0.7818608E-02  0.1040898E+00
         21   -1    0    0  503  502  0.00000000000E+00  0.00000000000E+00  0.17008687228E+04  0.17008687228E+04  0.00000000000E+00 0.  1.
         21   -1    0    0  501  503 -0.00000000000E+00 -0.00000000000E+00 -0.10979660096E+03  0.10979660096E+03  0.00000000000E+00 0.  1.
    9000007    1    1    2  501    0 -0.32334798229E+02  0.75981100320E+02  0.49977417361E+03  0.64544007576E+03  0.40000000000E+03 0.  1.
   -9000007    1    1    2    0  502  0.32334798229E+02 -0.75981100320E+02  0.10912979483E+04  0.11652252480E+04  0.40000000000E+03 0.  1.
<mgrwt>
<rscale>  2 0.40843441E+03</rscale>
<asrwt>0</asrwt>
<pdfrwt beam="1">  1       21 0.26167209E+00 0.40843441E+03</pdfrwt>
<pdfrwt beam="2">  1       21 0.16891786E-01 0.40843441E+03</pdfrwt>
<totfact> 0.15097886E+03</totfact>
</mgrwt>
</event>
<event>
 4    1  0.4760244E-002  0.4838385E+03  0.7818608E-02  0.1018086E+00
         21   -1    0    0  503  502  0.00000000000E+00  0.00000000000E+00  0.61015976732E+03  0.61015976732E+03  0.00000000000E+00 0.  1.
         21   -1    0    0  501  503 -0.00000000000E+00 -0.00000000000E+00 -0.52215993665E+03  0.52215993665E+03  0.00000000000E+00 0.  1.
    9000007    1    1    2  501    0  0.26325048394E+03  0.69274166441E+02 -0.24757294612E+03  0.54349985380E+03  0.40000000000E+03 0.  1.
   -9000007    1    1    2    0  502 -0.26325048394E+03 -0.69274166441E+02  0.33557277679E+03  0.58881985017E+03  0.40000000000E+03 0.  1.
<mgrwt>
<rscale>  2 0.48383853E+03</rscale>
<asrwt>0</asrwt>
<pdfrwt beam="1">  1       21 0.93870733E-01 0.48383853E+03</pdfrwt>
<pdfrwt beam="2">  1       21 0.80332298E-01 0.48383853E+03</pdfrwt>
<totfact> 0.10915350E+03</totfact>
</mgrwt>
</event>
<event>
 4    1  0.4760244E-002  0.4904757E+03  0.7818608E-02  0.1016295E+00
         21   -1    0    0  503  502  0.00000000000E+00  0.00000000000E+00  0.24826634348E+03  0.24826634348E+03  0.00000000000E+00 0.  1.
         21   -1    0    0  501  503 -0.00000000000E+00 -0.00000000000E+00 -0.99620776046E+03  0.99620776046E+03  0.00000000000E+00 0.  1.
    9000007    1    1    2  501    0  0.14526470361E+02  0.28347028208E+03 -0.47683039085E+03  0.68405675262E+03  0.40000000000E+03 0.  1.
   -9000007    1    1    2    0  502 -0.14526470361E+02 -0.28347028208E+03 -0.27111102613E+03  0.56041735132E+03  0.40000000000E+03 0.  1.
<mgrwt>
<rscale>  2 0.49047571E+03</rscale>
<asrwt>0</asrwt>
<pdfrwt beam="1">  1       21 0.38194823E-01 0.49047571E+03</pdfrwt>
<pdfrwt beam="2">  1       21 0.15326273E+00 0.49047571E+03</pdfrwt>
<totfact> 0.15649817E+03</totfact>
</mgrwt>
</event>
<event>
 4    1  0.4760244E-002  0.4727903E+03  0.7818608E-02  0.1021136E+00
         21   -1    0    0  503  502  0.00000000000E+00  0.00000000000E+00  0.11073084906E+04  0.11073084906E+04  0.00000000000E+00 0.  1.
         21   -1    0    0  501  503 -0.00000000000E+00 -0.00000000000E+00 -0.98749842754E+03  0.98749842754E+03  0.00000000000E+00 0. -1.
    9000007    1    1    2  501    0 -0.68038756221E+02 -0.24269617986E+03 -0.87432711251E+03  0.99397113024E+03  0.40000000000E+03 0. -1.
   -9000007    1    1    2    0  502  0.68038756221E+02  0.24269617986E+03  0.99413717562E+03  0.11008357879E+04  0.40000000000E+03 0.  1.
<mgrwt>
<rscale>  2 0.47279034E+03</rscale>
<asrwt>0</asrwt>
<pdfrwt beam="1">  1       21 0.17035515E+00 0.47279034E+03</pdfrwt>
<pdfrwt beam="2">  1       21 0.15192284E+00 0.47279034E+03</pdfrwt>
<totfact> 0.47429559E+01</totfact>
</mgrwt>
</event>
<event>
 4    1  0.4760244E-002  0.5783964E+03  0.7818608E-02  0.9951269E-01
         21   -1    0    0  501  502  0.00000000000E+00  0.00000000000E+00  0.95067515239E+03  0.95067515239E+03  0.00000000000E+00 0. -1.
         21   -1    0    0  502  503 -0.00000000000E+00 -0.00000000000E+00 -0.62024618217E+03  0.62024618217E+03  0.00000000000E+00 0.  1.
    9000007    1    1    2  501    0 -0.26041068441E+03  0.32669356786E+03  0.68185713014E+03  0.89413173401E+03  0.40000000000E+03 0. -1.
   -9000007    1    1    2    0  503  0.26041068441E+03 -0.32669356786E+03 -0.35142815992E+03  0.67678960056E+03  0.40000000000E+03 0.  1.
<mgrwt>
<rscale>  2 0.57839641E+03</rscale>
<asrwt>0</asrwt>
<pdfrwt beam="1">  1       21 0.14625772E+00 0.57839641E+03</pdfrwt>
<pdfrwt beam="2">  1       21 0.95422490E-01 0.57839641E+03</pdfrwt>
<totfact> 0.22699704E+02</totfact>
</mgrwt>
</event>
<event>
 4    1  0.4760244E-002  0.4539834E+03  0.7818608E-02  0.1026541E+00
         21   -1    0    0  501  502  0.00000000000E+00  0.00000000000E+00  0.29851434552E+04  0.29851434552E+04  0.00000000000E+00 0. -1.
         21   -1    0    0  502  503 -0.00000000000E+00 -0.00000000000E+00 -0.11698394362E+03  0.11698394362E+03  0.00000000000E+00 0. -1.
    9000007    1    1    2  501    0  0.85080294079E+02 -0.19713506105E+03  0.24270206361E+04  0.24691152376E+04  0.40000000000E+03 0. -1.
   -9000007    1    1    2    0  503 -0.85080294079E+02  0.19713506105E+03  0.44113887552E+03  0.63301216120E+03  0.40000000000E+03 0. -1.
<mgrwt>
<rscale>  2 0.45398336E+03</rscale>
<asrwt>0</asrwt>
<pdfrwt beam="1">  1       21 0.45925278E+00 0.45398336E+03</pdfrwt>
<pdfrwt beam="2">  1       21 0.17997532E-01 0.45398336E+03</pdfrwt>
<totfact> 0.75316853E+01</totfact>
</mgrwt>
</event>
<event>
 4    1  0.4760244E-002  0.4017650E+03  0.7818608E-02  0.1043170E+00
         21   -1    0    0  501  502  0.00000000000E+00  0.00000000000E+00  0.28879514292E+03  0.28879514292E+03  0.00000000000E+00 0. -1.
         21   -1    0    0  502  503 -0.00000000000E+00 -0.00000000000E+00 -0.56193081721E+03  0.56193081721E+03  0.00000000000E+00 0. -1.
    9000007    1    1    2  501    0 -0.12208048281E+02 -0.35582343687E+02 -0.10546350406E+03  0.41537656447E+03  0.40000000000E+03 0. -1.
   -9000007    1    1    2    0  503  0.12208048281E+02  0.35582343687E+02 -0.16767217023E+03  0.43534939565E+03  0.40000000000E+03 0. -1.
<mgrwt>
<rscale>  2 0.40176503E+03</rscale>
<asrwt>0</asrwt>
<pdfrwt beam="1">  1       21 0.44430023E-01 0.40176503E+03</pdfrwt>
<pdfrwt beam="2">  1       21 0.86450894E-01 0.40176503E+03</pdfrwt>
<totfact> 0.50126146E+03</totfact>
</mgrwt>
</event>
<event>
 4    1  0.4760244E-002  0.4650465E+03  0.7818608E-02  0.1023328E+00
         21   -1    0    0  501  502  0.00000000000E+00  0.00000000000E+00  0.91201528065E+02  0.91201528065E+02  0.00000000000E+00 0.  1.
         21   -1    0    0  502  503 -0.00000000000E+00 -0.00000000000E+00 -0.23713659374E+04  0.23713659374E+04  0.00000000000E+00 0.  1.
    9000007    1    1    2  501    0 -0.19377581427E+03 -0.13681802162E+03 -0.11453508275E+04  0.12361621072E+04  0.40000000000E+03 0.  1.
   -9000007    1    1    2    0  503  0.19377581427E+03  0.13681802162E+03 -0.11348135818E+04  0.12264053583E+04  0.40000000000E+03 0.  1.
<mgrwt>
<rscale>  2 0.46504649E+03</rscale>
<asrwt>0</asrwt>
<pdfrwt beam="1">  1       21 0.14031007E-01 0.46504649E+03</pdfrwt>
<pdfrwt beam="2">  1       21 0.36482546E+00 0.46504649E+03</pdfrwt>
<totfact> 0.48974030E+02</totfact>
</mgrwt>
</event>
