<event>
 4    1  0.4857079E-002  0.4227654E+03  0.7818608E-02  0.1036170E+00
         21   -1    0    0  503  502  0.00000000000E+00  0.00000000000E+00  0.63648267772E+03  0.63648267772E+03  0.00000000000E+00 0. -1.
         21   -1    0    0  501  503 -0.00000000000E+00 -0.00000000000E+00 -0.69781306851E+03  0.69781306851E+03  0.00000000000E+00 0. -1.
    9000005    1    1    2  501    0  0.44700798675E+02  0.12935379198E+03 -0.54639507425E+03  0.69085319864E+03  0.40000000000E+03 0. -1.
   -9000005    1    1    2    0  502 -0.44700798675E+02 -0.12935379198E+03  0.48506468347E+03  0.64344254759E+03  0.40000000000E+03 0. -1.
<mgrwt>
<rscale>  2 0.42276538E+03</rscale>
<asrwt>0</asrwt>
<pdfrwt beam="1">  1       21 0.97920412E-01 0.42276538E+03</pdfrwt>
<pdfrwt beam="2">  1       21 0.10735586E+00 0.42276538E+03</pdfrwt>
<totfact> 0.50637906E+02</totfact>
</mgrwt>
</event>
<event>
 4    1  0.4857079E-002  0.5500968E+03  0.7818608E-02  0.1001472E+00
         21   -1    0    0  503  502  0.00000000000E+00  0.00000000000E+00  0.20026701044E+03  0.20026701044E+03  0.00000000000E+00 0.  1.
         21   -1    0    0  501  503 -0.00000000000E+00 -0.00000000000E+00 -0.22295318304E+04  0.22295318304E+04  0.00000000000E+00 0. -1.
    9000005    1    1    2  501    0  0.28214507233E+02  0.37657722407E+03 -0.17043192639E+04  0.17908965960E+04  0.40000000000E+03 0. -1.
   -9000005    1    1    2    0  502 -0.28214507233E+02 -0.37657722407E+03 -0.32494555607E+03  0.63890224488E+03  0.40000000000E+03 0.  1.
<mgrwt>
<rscale>  2 0.55009678E+03</rscale>
<asrwt>0</asrwt>
<pdfrwt beam="1">  1       21 0.30810312E-01 0.55009678E+03</pdfrwt>
<pdfrwt beam="2">  1       21 0.34300487E+00 0.55009678E+03</pdfrwt>
<totfact> 0.14100453E+02</totfact>
</mgrwt>
</event>
<event>
 4    1  0.4857079E-002  0.4072439E+03  0.7818608E-02  0.1041300E+00
         21   -1    0    0  501  502  0.00000000000E+00  0.00000000000E+00  0.30853701346E+03  0.30853701346E+03  0.00000000000E+00 0.  1.
         21   -1    0    0  502  503 -0.00000000000E+00 -0.00000000000E+00 -0.10860647563E+04  0.10860647563E+04  0.00000000000E+00 0.  1.
    9000005    1    1    2  501    0  0.47281309570E+02  0.60100393408E+02  0.10679453025E+03  0.42101383732E+03  0.40000000000E+03 0.  1.
   -9000005    1    1    2    0  503 -0.47281309570E+02 -0.60100393408E+02 -0.88432227307E+03  0.97358793242E+03  0.40000000000E+03 0.  1.
<mgrwt>
<rscale>  2 0.40724388E+03</rscale>
<asrwt>0</asrwt>
<pdfrwt beam="1">  1       21 0.47467233E-01 0.40724388E+03</pdfrwt>
<pdfrwt beam="2">  1       21 0.16708689E+00 0.40724388E+03</pdfrwt>
<totfact> 0.81192399E+02</totfact>
</mgrwt>
</event>
<event>
 4    1  0.4857079E-002  0.5492399E+03  0.7818608E-02  0.1001670E+00
         21   -1    0    0  501  502  0.00000000000E+00  0.00000000000E+00  0.38433093547E+03  0.38433093547E+03  0.00000000000E+00 0.  1.
         21   -1    0    0  502  503 -0.00000000000E+00 -0.00000000000E+00 -0.96485693395E+03  0.96485693395E+03  0.00000000000E+00 0. -1.
    9000005    1    1    2  501    0 -0.37527358878E+03 -0.28882168367E+02 -0.58159322587E+03  0.79994695228E+03  0.40000000000E+03 0. -1.
   -9000005    1    1    2    0  503  0.37527358878E+03  0.28882168367E+02  0.10672273880E+01  0.54924091714E+03  0.40000000000E+03 0.  1.
<mgrwt>
<rscale>  2 0.54923988E+03</rscale>
<asrwt>0</asrwt>
<pdfrwt beam="1">  1       21 0.59127836E-01 0.54923988E+03</pdfrwt>
<pdfrwt beam="2">  1       21 0.14843953E+00 0.54923988E+03</pdfrwt>
<totfact> 0.66205134E+02</totfact>
</mgrwt>
</event>
<event>
 4    1  0.4857079E-002  0.4686984E+03  0.7818608E-02  0.1022288E+00
         21   -1    0    0  501  502  0.00000000000E+00  0.00000000000E+00  0.18799767605E+04  0.18799767605E+04  0.00000000000E+00 0.  1.
         21   -1    0    0  502  503 -0.00000000000E+00 -0.00000000000E+00 -0.12277290544E+03  0.12277290544E+03  0.00000000000E+00 0.  1.
    9000005    1    1    2  501    0 -0.16530567329E+03 -0.17986714339E+03  0.10985179238E+04  0.11943281726E+04  0.40000000000E+03 0.  1.
   -9000005    1    1    2    0  503  0.16530567329E+03  0.17986714339E+03  0.65868593119E+03  0.80842149331E+03  0.40000000000E+03 0.  1.
<mgrwt>
<rscale>  2 0.46869836E+03</rscale>
<asrwt>0</asrwt>
<pdfrwt beam="1">  1       21 0.28922717E+00 0.46869836E+03</pdfrwt>
<pdfrwt beam="2">  1       21 0.18888141E-01 0.46869836E+03</pdfrwt>
<totfact> 0.80832005E+02</totfact>
</mgrwt>
</event>
<event>
 4    1  0.4857079E-002  0.4763579E+03  0.7818608E-02  0.1020141E+00
         21   -1    0    0  503  502  0.00000000000E+00  0.00000000000E+00  0.20179786086E+03  0.20179786086E+03  0.00000000000E+00 0. -1.
         21   -1    0    0  501  503 -0.00000000000E+00 -0.00000000000E+00 -0.11275550146E+04  0.11275550146E+04  0.00000000000E+00 0.  1.
    9000005    1    1    2  501    0  0.21153771372E+03 -0.14889142284E+03 -0.42814542172E+03  0.64048837793E+03  0.40000000000E+03 0. -1.
   -9000005    1    1    2    0  502 -0.21153771372E+03  0.14889142284E+03 -0.49761173202E+03  0.68886449754E+03  0.40000000000E+03 0. -1.
<mgrwt>
<rscale>  2 0.47635791E+03</rscale>
<asrwt>0</asrwt>
<pdfrwt beam="1">  1       21 0.31045825E-01 0.47635791E+03</pdfrwt>
<pdfrwt beam="2">  1       21 0.17347000E+00 0.47635791E+03</pdfrwt>
<totfact> 0.16894152E+03</totfact>
</mgrwt>
</event>
<event>
 4    1  0.4857079E-002  0.4714195E+03  0.7818608E-02  0.1021520E+00
         21   -1    0    0  503  502  0.00000000000E+00  0.00000000000E+00  0.87370013876E+02  0.87370013876E+02  0.00000000000E+00 0. -1.
         21   -1    0    0  501  503 -0.00000000000E+00 -0.00000000000E+00 -0.26712548712E+04  0.26712548712E+04  0.00000000000E+00 0. -1.
    9000005    1    1    2  501    0 -0.24583582590E+03  0.42439668340E+02 -0.15934404879E+04  0.16617126609E+04  0.40000000000E+03 0. -1.
   -9000005    1    1    2    0  502  0.24583582590E+03 -0.42439668340E+02 -0.99044436944E+03  0.10969122242E+04  0.40000000000E+03 0. -1.
<mgrwt>
<rscale>  2 0.47141954E+03</rscale>
<asrwt>0</asrwt>
<pdfrwt beam="1">  1       21 0.13441540E-01 0.47141954E+03</pdfrwt>
<pdfrwt beam="2">  1       21 0.41096229E+00 0.47141954E+03</pdfrwt>
<totfact> 0.26893091E+02</totfact>
</mgrwt>
</event>
<event>
 4    1  0.4857079E-002  0.4505105E+03  0.7818608E-02  0.1027570E+00
         21   -1    0    0  501  502  0.00000000000E+00  0.00000000000E+00  0.86134541403E+03  0.86134541403E+03  0.00000000000E+00 0.  1.
         21   -1    0    0  502  503 -0.00000000000E+00 -0.00000000000E+00 -0.39219190364E+03  0.39219190364E+03  0.00000000000E+00 0.  1.
    9000005    1    1    2  501    0 -0.18718984946E+02  0.20642016238E+03  0.63058079399E+03  0.77497859428E+03  0.40000000000E+03 0.  1.
   -9000005    1    1    2    0  503  0.18718984946E+02 -0.20642016238E+03 -0.16142728360E+03  0.47855872339E+03  0.40000000000E+03 0.  1.
<mgrwt>
<rscale>  2 0.45051047E+03</rscale>
<asrwt>0</asrwt>
<pdfrwt beam="1">  1       21 0.13251468E+00 0.45051047E+03</pdfrwt>
<pdfrwt beam="2">  1       21 0.60337216E-01 0.45051047E+03</pdfrwt>
<totfact> 0.89100939E+02</totfact>
</mgrwt>
</event>
<event>
 4    1  0.4857079E-002  0.4264745E+03  0.7818608E-02  0.1034979E+00
         21   -1    0    0  501  502  0.00000000000E+00  0.00000000000E+00  0.87485445946E+03  0.87485445946E+03  0.00000000000E+00 0.  1.
         21   -1    0    0  502  503 -0.00000000000E+00 -0.00000000000E+00 -0.27087780350E+03  0.27087780350E+03  0.00000000000E+00 0.  1.
    9000005    1    1    2  501    0  0.11979579568E+03 -0.86772638255E+02  0.57821586172E+03  0.71848041459E+03  0.40000000000E+03 0.  1.
   -9000005    1    1    2    0  503 -0.11979579568E+03  0.86772638255E+02  0.25760794240E+02  0.42725184837E+03  0.40000000000E+03 0.  1.
<mgrwt>
<rscale>  2 0.42647453E+03</rscale>
<asrwt>0</asrwt>
<pdfrwt beam="1">  1       21 0.13459299E+00 0.42647453E+03</pdfrwt>
<pdfrwt beam="2">  1       21 0.41673509E-01 0.42647453E+03</pdfrwt>
<totfact> 0.18999468E+03</totfact>
</mgrwt>
</event>
<event>
 4    1  0.4857079E-002  0.4288101E+03  0.7818608E-02  0.1034236E+00
         21   -1    0    0  503  502  0.00000000000E+00  0.00000000000E+00  0.19833033306E+03  0.19833033306E+03  0.00000000000E+00 0.  1.
         21   -1    0    0  501  503 -0.00000000000E+00 -0.00000000000E+00 -0.29489544688E+04  0.29489544688E+04  0.00000000000E+00 0.  1.
    9000005    1    1    2  501    0  0.69596056638E+02 -0.13796562089E+03 -0.26783098407E+04  0.27124199023E+04  0.40000000000E+03 0.  1.
   -9000005    1    1    2    0  502 -0.69596056638E+02  0.13796562089E+03 -0.72314295116E+02  0.43486489962E+03  0.40000000000E+03 0.  1.
<mgrwt>
<rscale>  2 0.42881013E+03</rscale>
<asrwt>0</asrwt>
<pdfrwt beam="1">  1       21 0.30512359E-01 0.42881013E+03</pdfrwt>
<pdfrwt beam="2">  1       21 0.45368530E+00 0.42881013E+03</pdfrwt>
<totfact> 0.30183318E+01</totfact>
</mgrwt>
</event>
<event>
 4    1  0.4857079E-002  0.4961539E+03  0.7818608E-02  0.1014788E+00
         21   -1    0    0  501  502  0.00000000000E+00  0.00000000000E+00  0.36124830094E+03  0.36124830094E+03  0.00000000000E+00 0. -1.
         21   -1    0    0  502  503 -0.00000000000E+00 -0.00000000000E+00 -0.72980112580E+03  0.72980112580E+03  0.00000000000E+00 0.  1.
    9000005    1    1    2  501    0 -0.20026615636E+03  0.21462103281E+03 -0.43844969790E+02  0.49808744461E+03  0.40000000000E+03 0.  1.
   -9000005    1    1    2    0  503  0.20026615636E+03 -0.21462103281E+03 -0.32470785506E+03  0.59296198212E+03  0.40000000000E+03 0.  1.
<mgrwt>
<rscale>  2 0.49615393E+03</rscale>
<asrwt>0</asrwt>
<pdfrwt beam="1">  1       21 0.55576662E-01 0.49615393E+03</pdfrwt>
<pdfrwt beam="2">  1       21 0.11227710E+00 0.49615393E+03</pdfrwt>
<totfact> 0.15987519E+03</totfact>
</mgrwt>
</event>
<event>
 4    1  0.4857079E-002  0.4381111E+03  0.7818608E-02  0.1031328E+00
         21   -1    0    0  503  502  0.00000000000E+00  0.00000000000E+00  0.15902330085E+03  0.15902330085E+03  0.00000000000E+00 0.  1.
         21   -1    0    0  501  503 -0.00000000000E+00 -0.00000000000E+00 -0.16802234949E+04  0.16802234949E+04  0.00000000000E+00 0.  1.
    9000005    1    1    2  501    0 -0.14978213014E+03 -0.97501973980E+02 -0.12486441957E+04  0.13232738374E+04  0.40000000000E+03 0.  1.
   -9000005    1    1    2    0  502  0.14978213014E+03  0.97501973980E+02 -0.27255599834E+03  0.51597295828E+03  0.40000000000E+03 0.  1.
<mgrwt>
<rscale>  2 0.43811108E+03</rscale>
<asrwt>0</asrwt>
<pdfrwt beam="1">  1       21 0.24465123E-01 0.43811108E+03</pdfrwt>
<pdfrwt beam="2">  1       21 0.25849593E+00 0.43811108E+03</pdfrwt>
<totfact> 0.76740477E+02</totfact>
</mgrwt>
</event>
<event>
 4    1  0.4857079E-002  0.4233624E+03  0.7818608E-02  0.1035977E+00
         21   -1    0    0  503  502  0.00000000000E+00  0.00000000000E+00  0.43346324722E+03  0.43346324722E+03  0.00000000000E+00 0. -1.
         21   -1    0    0  501  503 -0.00000000000E+00 -0.00000000000E+00 -0.50300538612E+03  0.50300538612E+03  0.00000000000E+00 0. -1.
    9000005    1    1    2  501    0 -0.10607730348E+03 -0.89349532089E+02 -0.23229007595E+03  0.48290207349E+03  0.40000000000E+03 0. -1.
   -9000005    1    1    2    0  502  0.10607730348E+03  0.89349532089E+02  0.16274793706E+03  0.45356655985E+03  0.40000000000E+03 0. -1.
<mgrwt>
<rscale>  2 0.42336241E+03</rscale>
<asrwt>0</asrwt>
<pdfrwt beam="1">  1       21 0.66686654E-01 0.42336241E+03</pdfrwt>
<pdfrwt beam="2">  1       21 0.77385444E-01 0.42336241E+03</pdfrwt>
<totfact> 0.26799559E+03</totfact>
</mgrwt>
</event>
<event>
 4    1  0.4857079E-002  0.4127072E+03  0.7818608E-02  0.1039466E+00
         21   -1    0    0  503  502  0.00000000000E+00  0.00000000000E+00  0.89223201466E+03  0.89223201466E+03  0.00000000000E+00 0. -1.
         21   -1    0    0  501  503 -0.00000000000E+00 -0.00000000000E+00 -0.28676938259E+03  0.28676938259E+03  0.00000000000E+00 0. -1.
    9000005    1    1    2  501    0  0.48799704331E+01 -0.10150580603E+03 -0.38114144972E+02  0.41446342519E+03  0.40000000000E+03 0. -1.
   -9000005    1    1    2    0  502 -0.48799704331E+01  0.10150580603E+03  0.64357677705E+03  0.76453797206E+03  0.40000000000E+03 0. -1.
<mgrwt>
<rscale>  2 0.41270721E+03</rscale>
<asrwt>0</asrwt>
<pdfrwt beam="1">  1       21 0.13726646E+00 0.41270721E+03</pdfrwt>
<pdfrwt beam="2">  1       21 0.44118367E-01 0.41270721E+03</pdfrwt>
<totfact> 0.16123166E+03</totfact>
</mgrwt>
</event>
<event>
 4    1  0.4857079E-002  0.6402277E+03  0.7818608E-02  0.9825291E-01
         21   -1    0    0  501  502  0.00000000000E+00  0.00000000000E+00  0.31137629034E+03  0.31137629034E+03  0.00000000000E+00 0.  1.
         21   -1    0    0  502  503 -0.00000000000E+00 -0.00000000000E+00 -0.15024182579E+04  0.15024182579E+04  0.00000000000E+00 0. -1.
    9000005    1    1    2  501    0  0.37228782995E+03  0.33360651527E+03 -0.27639934654E+03  0.69734362701E+03  0.40000000000E+03 0.  1.
   -9000005    1    1    2    0  503 -0.37228782995E+03 -0.33360651527E+03 -0.91464262102E+03  0.11164509212E+04  0.40000000000E+03 0. -1.
<mgrwt>
<rscale>  2 0.64022772E+03</rscale>
<asrwt>0</asrwt>
<pdfrwt beam="1">  1       21 0.47904044E-01 0.64022772E+03</pdfrwt>
<pdfrwt beam="2">  1       21 0.23114127E+00 0.64022772E+03</pdfrwt>
<totfact> 0.26585758E+02</totfact>
</mgrwt>
</event>
<event>
 4    1  0.4857079E-002  0.4062175E+03  0.7818608E-02  0.1041648E+00
         21   -1    0    0  503  502  0.00000000000E+00  0.00000000000E+00  0.29580880717E+03  0.29580880717E+03  0.00000000000E+00 0. -1.
         21   -1    0    0  501  503 -0.00000000000E+00 -0.00000000000E+00 -0.64766658096E+03  0.64766658096E+03  0.00000000000E+00 0. -1.
    9000005    1    1    2  501    0  0.43050620858E+02  0.56207635517E+02 -0.35161528747E+03  0.53725781951E+03  0.40000000000E+03 0. -1.
   -9000005    1    1    2    0  502 -0.43050620858E+02 -0.56207635517E+02 -0.24248632097E+00  0.40621756861E+03  0.40000000000E+03 0. -1.
<mgrwt>
<rscale>  2 0.40621750E+03</rscale>
<asrwt>0</asrwt>
<pdfrwt beam="1">  1       21 0.45509047E-01 0.40621750E+03</pdfrwt>
<pdfrwt beam="2">  1       21 0.99641013E-01 0.40621750E+03</pdfrwt>
<totfact> 0.33952602E+03</totfact>
</mgrwt>
</event>
<event>
 4    1  0.4857079E-002  0.4867883E+03  0.7818608E-02  0.1017286E+00
         21   -1    0    0  503  502  0.00000000000E+00  0.00000000000E+00  0.53853218442E+03  0.53853218442E+03  0.00000000000E+00 0.  1.
         21   -1    0    0  501  503 -0.00000000000E+00 -0.00000000000E+00 -0.95094687609E+03  0.95094687609E+03  0.00000000000E+00 0. -1.
    9000005    1    1    2  501    0 -0.92113555148E+02  0.26168287760E+03 -0.75210007136E+03  0.89588914091E+03  0.40000000000E+03 0. -1.
   -9000005    1    1    2    0  502  0.92113555148E+02 -0.26168287760E+03  0.33968537969E+03  0.59358991960E+03  0.40000000000E+03 0.  1.
<mgrwt>
<rscale>  2 0.48678829E+03</rscale>
<asrwt>0</asrwt>
<pdfrwt beam="1">  1       21 0.82851105E-01 0.48678829E+03</pdfrwt>
<pdfrwt beam="2">  1       21 0.14629952E+00 0.48678829E+03</pdfrwt>
<totfact> 0.32932044E+02</totfact>
</mgrwt>
</event>
<event>
 4    1  0.4857079E-002  0.7312308E+03  0.7818608E-02  0.9665265E-01
         21   -1    0    0  501  502  0.00000000000E+00  0.00000000000E+00  0.68989469710E+03  0.68989469710E+03  0.00000000000E+00 0. -1.
         21   -1    0    0  502  503 -0.00000000000E+00 -0.00000000000E+00 -0.94569670271E+03  0.94569670271E+03  0.00000000000E+00 0.  1.
    9000005    1    1    2  501    0 -0.61130165944E+03 -0.31761449773E+02  0.21949587257E+03  0.76346378212E+03  0.40000000000E+03 0. -1.
   -9000005    1    1    2    0  503  0.61130165944E+03  0.31761449773E+02 -0.47529787819E+03  0.87212761769E+03  0.40000000000E+03 0.  1.
<mgrwt>
<rscale>  2 0.73123082E+03</rscale>
<asrwt>0</asrwt>
<pdfrwt beam="1">  1       21 0.10613765E+00 0.73123082E+03</pdfrwt>
<pdfrwt beam="2">  1       21 0.14549180E+00 0.73123082E+03</pdfrwt>
<totfact> 0.16825050E+02</totfact>
</mgrwt>
</event>
<event>
 4    1  0.4857079E-002  0.7012403E+03  0.7818608E-02  0.9715113E-01
         21   -1    0    0  501  502  0.00000000000E+00  0.00000000000E+00  0.29643536655E+03  0.29643536655E+03  0.00000000000E+00 0.  1.
         21   -1    0    0  502  503 -0.00000000000E+00 -0.00000000000E+00 -0.17868504060E+04  0.17868504060E+04  0.00000000000E+00 0. -1.
    9000005    1    1    2  501    0 -0.28765717347E+03 -0.49899033265E+03 -0.46640145924E+03  0.84218069481E+03  0.40000000000E+03 0.  1.
   -9000005    1    1    2    0  503  0.28765717347E+03  0.49899033265E+03 -0.10240135802E+04  0.12411050777E+04  0.40000000000E+03 0.  1.
<mgrwt>
<rscale>  2 0.70124033E+03</rscale>
<asrwt>0</asrwt>
<pdfrwt beam="1">  1       21 0.45605441E-01 0.70124033E+03</pdfrwt>
<pdfrwt beam="2">  1       21 0.27490006E+00 0.70124033E+03</pdfrwt>
<totfact> 0.15375472E+02</totfact>
</mgrwt>
</event>
<event>
 4    1  0.4857079E-002  0.5067650E+03  0.7818608E-02  0.1012028E+00
         21   -1    0    0  501  502  0.00000000000E+00  0.00000000000E+00  0.37702675377E+03  0.37702675377E+03  0.00000000000E+00 0.  1.
         21   -1    0    0  502  503 -0.00000000000E+00 -0.00000000000E+00 -0.79304276366E+03  0.79304276366E+03  0.00000000000E+00 0.  1.
    9000005    1    1    2  501    0 -0.31071635565E+03  0.16313800325E+02 -0.42776333063E+03  0.66316835025E+03  0.40000000000E+03 0.  1.
   -9000005    1    1    2    0  503  0.31071635565E+03 -0.16313800325E+02  0.11747320738E+02  0.50690116719E+03  0.40000000000E+03 0.  1.
<mgrwt>
<rscale>  2 0.50676503E+03</rscale>
<asrwt>0</asrwt>
<pdfrwt beam="1">  1       21 0.58004117E-01 0.50676503E+03</pdfrwt>
<pdfrwt beam="2">  1       21 0.12200658E+00 0.50676503E+03</pdfrwt>
<totfact> 0.11764336E+03</totfact>
</mgrwt>
</event>
<event>
 4    1  0.4857079E-002  0.5820362E+03  0.7818608E-02  0.9943392E-01
         21   -1    0    0  503  502  0.00000000000E+00  0.00000000000E+00  0.37191417286E+03  0.37191417286E+03  0.00000000000E+00 0.  1.
         21   -1    0    0  501  503 -0.00000000000E+00 -0.00000000000E+00 -0.13568463361E+04  0.13568463361E+04  0.00000000000E+00 0. -1.
    9000005    1    1    2  501    0 -0.14463109405E+03  0.39730082368E+03 -0.98802418305E+03  0.11467161306E+04  0.40000000000E+03 0. -1.
   -9000005    1    1    2    0  502  0.14463109405E+03 -0.39730082368E+03  0.30920197644E+01  0.58204437842E+03  0.40000000000E+03 0.  1.
<mgrwt>
<rscale>  2 0.58203617E+03</rscale>
<asrwt>0</asrwt>
<pdfrwt beam="1">  1       21 0.57217565E-01 0.58203617E+03</pdfrwt>
<pdfrwt beam="2">  1       21 0.20874559E+00 0.58203617E+03</pdfrwt>
<totfact> 0.25890818E+02</totfact>
</mgrwt>
</event>
<event>
 4    1  0.4857079E-002  0.4830694E+03  0.7818608E-02  0.1018295E+00
         21   -1    0    0  503  502  0.00000000000E+00  0.00000000000E+00  0.34993869922E+03  0.34993869922E+03  0.00000000000E+00 0.  1.
         21   -1    0    0  501  503 -0.00000000000E+00 -0.00000000000E+00 -0.71872747236E+03  0.71872747236E+03  0.00000000000E+00 0. -1.
    9000005    1    1    2  501    0 -0.83376084084E+02  0.25769056667E+03 -0.32795218445E+03  0.58387381756E+03  0.40000000000E+03 0. -1.
   -9000005    1    1    2    0  502  0.83376084084E+02 -0.25769056667E+03 -0.40836588690E+02  0.48479235403E+03  0.40000000000E+03 0.  1.
<mgrwt>
<rscale>  2 0.48306935E+03</rscale>
<asrwt>0</asrwt>
<pdfrwt beam="1">  1       21 0.53836723E-01 0.48306935E+03</pdfrwt>
<pdfrwt beam="2">  1       21 0.11057346E+00 0.48306935E+03</pdfrwt>
<totfact> 0.17873894E+03</totfact>
</mgrwt>
</event>
<event>
 4    1  0.4857079E-002  0.4795046E+03  0.7818608E-02  0.1019271E+00
         21   -1    0    0  501  502  0.00000000000E+00  0.00000000000E+00  0.29311974607E+03  0.29311974607E+03  0.00000000000E+00 0.  1.
         21   -1    0    0  502  503 -0.00000000000E+00 -0.00000000000E+00 -0.86165285138E+03  0.86165285138E+03  0.00000000000E+00 0.  1.
    9000005    1    1    2  501    0  0.18063958734E+03  0.19311650069E+03 -0.11138723325E+03  0.49227203768E+03  0.40000000000E+03 0.  1.
   -9000005    1    1    2    0  503 -0.18063958734E+03 -0.19311650069E+03 -0.45714587205E+03  0.66250055976E+03  0.40000000000E+03 0.  1.
<mgrwt>
<rscale>  2 0.47950458E+03</rscale>
<asrwt>0</asrwt>
<pdfrwt beam="1">  1       21 0.45095347E-01 0.47950458E+03</pdfrwt>
<pdfrwt beam="2">  1       21 0.13256197E+00 0.47950458E+03</pdfrwt>
<totfact> 0.16425361E+03</totfact>
</mgrwt>
</event>
<event>
 4    1  0.4857079E-002  0.5388960E+03  0.7818608E-02  0.1004097E+00
         21   -1    0    0  503  502  0.00000000000E+00  0.00000000000E+00  0.30949319021E+04  0.30949319021E+04  0.00000000000E+00 0.  1.
         21   -1    0    0  501  503 -0.00000000000E+00 -0.00000000000E+00 -0.30225568486E+03  0.30225568486E+03  0.00000000000E+00 0. -1.
    9000005    1    1    2  501    0 -0.34663144338E+03 -0.10126974504E+03 -0.14165024772E+02  0.53908215211E+03  0.40000000000E+03 0. -1.
   -9000005    1    1    2    0  502  0.34663144338E+03  0.10126974504E+03  0.28068412420E+04  0.28581054348E+04  0.40000000000E+03 0.  1.
<mgrwt>
<rscale>  2 0.53889602E+03</rscale>
<asrwt>0</asrwt>
<pdfrwt beam="1">  1       21 0.47614335E+00 0.53889602E+03</pdfrwt>
<pdfrwt beam="2">  1       21 0.46500877E-01 0.53889602E+03</pdfrwt>
<totfact> 0.82255939E+00</totfact>
</mgrwt>
</event>
<event>
 4    1  0.4857079E-002  0.5260424E+03  0.7818608E-02  0.1007196E+00
         21   -1    0    0  503  502  0.00000000000E+00  0.00000000000E+00  0.90406338614E+03  0.90406338614E+03  0.00000000000E+00 0. -1.
         21   -1    0    0  501  503 -0.00000000000E+00 -0.00000000000E+00 -0.47957144959E+03  0.47957144959E+03  0.00000000000E+00 0. -1.
    9000005    1    1    2  501    0 -0.23049881172E+03  0.25217246824E+03 -0.20385338213E+03  0.56416031174E+03  0.40000000000E+03 0. -1.
   -9000005    1    1    2    0  502  0.23049881172E+03 -0.25217246824E+03  0.62834531868E+03  0.81947452398E+03  0.40000000000E+03 0. -1.
<mgrwt>
<rscale>  2 0.52604245E+03</rscale>
<asrwt>0</asrwt>
<pdfrwt beam="1">  1       21 0.13908668E+00 0.52604245E+03</pdfrwt>
<pdfrwt beam="2">  1       21 0.73780223E-01 0.52604245E+03</pdfrwt>
<totfact> 0.48496905E+02</totfact>
</mgrwt>
</event>
<event>
 4    1  0.4857079E-002  0.4002723E+03  0.7818608E-02  0.1043685E+00
         21   -1    0    0  501  502  0.00000000000E+00  0.00000000000E+00  0.17816318699E+03  0.17816318699E+03  0.00000000000E+00 0.  1.
         21   -1    0    0  502  503 -0.00000000000E+00 -0.00000000000E+00 -0.89959377387E+03  0.89959377387E+03  0.00000000000E+00 0.  1.
    9000005    1    1    2  501    0 -0.12481099509E+02 -0.78804082814E+01 -0.37084331555E+03  0.54565799121E+03  0.40000000000E+03 0. -1.
   -9000005    1    1    2    0  503  0.12481099509E+02  0.78804082814E+01 -0.35058727133E+03  0.53209896965E+03  0.40000000000E+03 0. -1.
<mgrwt>
<rscale>  2 0.40027226E+03</rscale>
<asrwt>0</asrwt>
<pdfrwt beam="1">  1       21 0.27409721E-01 0.40027226E+03</pdfrwt>
<pdfrwt beam="2">  1       21 0.13839904E+00 0.40027226E+03</pdfrwt>
<totfact> 0.41480631E+03</totfact>
</mgrwt>
</event>
<event>
 4    1  0.4857079E-002  0.4606994E+03  0.7818608E-02  0.1024579E+00
         21   -1    0    0  503  502  0.00000000000E+00  0.00000000000E+00  0.79432383323E+03  0.79432383323E+03  0.00000000000E+00 0.  1.
         21   -1    0    0  501  503 -0.00000000000E+00 -0.00000000000E+00 -0.39373229644E+03  0.39373229644E+03  0.00000000000E+00 0.  1.
    9000005    1    1    2  501    0  0.14556798183E+03 -0.17622110503E+03 -0.13645288733E+03  0.48048236768E+03  0.40000000000E+03 0.  1.
   -9000005    1    1    2    0  502 -0.14556798183E+03  0.17622110503E+03  0.53704442411E+03  0.70757376200E+03  0.40000000000E+03 0.  1.
<mgrwt>
<rscale>  2 0.46069938E+03</rscale>
<asrwt>0</asrwt>
<pdfrwt beam="1">  1       21 0.12220367E+00 0.46069938E+03</pdfrwt>
<pdfrwt beam="2">  1       21 0.60574200E-01 0.46069938E+03</pdfrwt>
<totfact> 0.10843645E+03</totfact>
</mgrwt>
</event>
<event>
 4    1  0.4857079E-002  0.4634737E+03  0.7818608E-02  0.1023779E+00
         21   -1    0    0  501  502  0.00000000000E+00  0.00000000000E+00  0.16031681993E+04  0.16031681993E+04  0.00000000000E+00 0.  1.
         21   -1    0    0  502  503 -0.00000000000E+00 -0.00000000000E+00 -0.13657516692E+03  0.13657516692E+03  0.00000000000E+00 0. -1.
    9000005    1    1    2  501    0 -0.17553729932E+01  0.23410429768E+03  0.61360999723E+03  0.76897667860E+03  0.40000000000E+03 0. -1.
   -9000005    1    1    2    0  503  0.17553729932E+01 -0.23410429768E+03  0.85298303513E+03  0.97076668760E+03  0.40000000000E+03 0. -1.
<mgrwt>
<rscale>  2 0.46347374E+03</rscale>
<asrwt>0</asrwt>
<pdfrwt beam="1">  1       21 0.24664125E+00 0.46347374E+03</pdfrwt>
<pdfrwt beam="2">  1       21 0.21011565E-01 0.46347374E+03</pdfrwt>
<totfact> 0.12009266E+03</totfact>
</mgrwt>
</event>
<event>
 4    1  0.4857079E-002  0.4034014E+03  0.7818608E-02  0.1042608E+00
         21   -1    0    0  501  502  0.00000000000E+00  0.00000000000E+00  0.14440642818E+04  0.14440642818E+04  0.00000000000E+00 0.  1.
         21   -1    0    0  502  503 -0.00000000000E+00 -0.00000000000E+00 -0.21778549456E+03  0.21778549456E+03  0.00000000000E+00 0.  1.
    9000005    1    1    2  501    0 -0.52091772082E+02 -0.43774887080E+01  0.11903545833E+04  0.12568519201E+04  0.40000000000E+03 0.  1.
   -9000005    1    1    2    0  503  0.52091772082E+02  0.43774887080E+01  0.35924203924E+02  0.40499785623E+03  0.40000000000E+03 0.  1.
<mgrwt>
<rscale>  2 0.40340143E+03</rscale>
<asrwt>0</asrwt>
<pdfrwt beam="1">  1       21 0.22216373E+00 0.40340143E+03</pdfrwt>
<pdfrwt beam="2">  1       21 0.33505462E-01 0.40340143E+03</pdfrwt>
<totfact> 0.70590701E+02</totfact>
</mgrwt>
</event>
<event>
 4    1  0.4857079E-002  0.4171157E+03  0.7818608E-02  0.1038009E+00
         21   -1    0    0  503  502  0.00000000000E+00  0.00000000000E+00  0.22323941136E+03  0.22323941136E+03  0.00000000000E+00 0. -1.
         21   -1    0    0  501  503 -0.00000000000E+00 -0.00000000000E+00 -0.15753603358E+04  0.15753603358E+04  0.00000000000E+00 0. -1.
    9000005    1    1    2  501    0 -0.59645745172E+02 -0.10211716251E+03 -0.13153081610E+04  0.13798627063E+04  0.40000000000E+03 0. -1.
   -9000005    1    1    2    0  502  0.59645745172E+02  0.10211716251E+03 -0.36812763365E+02  0.41873704081E+03  0.40000000000E+03 0. -1.
<mgrwt>
<rscale>  2 0.41711573E+03</rscale>
<asrwt>0</asrwt>
<pdfrwt beam="1">  1       21 0.34344525E-01 0.41711573E+03</pdfrwt>
<pdfrwt beam="2">  1       21 0.24236313E+00 0.41711573E+03</pdfrwt>
<totfact> 0.49839576E+02</totfact>
</mgrwt>
</event>
<event>
 4    1  0.4857079E-002  0.4160320E+03  0.7818608E-02  0.1038366E+00
         21   -1    0    0  503  502  0.00000000000E+00  0.00000000000E+00  0.13256381428E+03  0.13256381428E+03  0.00000000000E+00 0.  1.
         21   -1    0    0  501  503 -0.00000000000E+00 -0.00000000000E+00 -0.16225674083E+04  0.16225674083E+04  0.00000000000E+00 0.  1.
    9000005    1    1    2  501    0 -0.36990733136E+02 -0.10823264798E+03 -0.11328374893E+04  0.12068153950E+04  0.40000000000E+03 0.  1.
   -9000005    1    1    2    0  502  0.36990733136E+02  0.10823264798E+03 -0.35716610472E+03  0.54831582759E+03  0.40000000000E+03 0.  1.
<mgrwt>
<rscale>  2 0.41603199E+03</rscale>
<asrwt>0</asrwt>
<pdfrwt beam="1">  1       21 0.20394433E-01 0.41603199E+03</pdfrwt>
<pdfrwt beam="2">  1       21 0.24962576E+00 0.41603199E+03</pdfrwt>
<totfact> 0.12477420E+03</totfact>
</mgrwt>
</event>
<event>
 4    1  0.4857079E-002  0.4252858E+03  0.7818608E-02  0.1035360E+00
         21   -1    0    0  501  502  0.00000000000E+00  0.00000000000E+00  0.15429678190E+04  0.15429678190E+04  0.00000000000E+00 0.  1.
         21   -1    0    0  502  503 -0.00000000000E+00 -0.00000000000E+00 -0.34420492371E+03  0.34420492371E+03  0.00000000000E+00 0.  1.
    9000005    1    1    2  501    0 -0.18783919378E+02  0.14323115379E+03  0.13656320228E+04  0.14303212299E+04  0.40000000000E+03 0.  1.
   -9000005    1    1    2    0  503  0.18783919378E+02 -0.14323115379E+03 -0.16686912749E+03  0.45685151281E+03  0.40000000000E+03 0.  1.
<mgrwt>
<rscale>  2 0.42528579E+03</rscale>
<asrwt>0</asrwt>
<pdfrwt beam="1">  1       21 0.23737966E+00 0.42528579E+03</pdfrwt>
<pdfrwt beam="2">  1       21 0.52954604E-01 0.42528579E+03</pdfrwt>
<totfact> 0.21668902E+02</totfact>
</mgrwt>
</event>
<event>
 4    1  0.4857079E-002  0.4334549E+03  0.7818608E-02  0.1032774E+00
         21   -1    0    0  501  502  0.00000000000E+00  0.00000000000E+00  0.40777935770E+03  0.40777935770E+03  0.00000000000E+00 0. -1.
         21   -1    0    0  502  503 -0.00000000000E+00 -0.00000000000E+00 -0.50558916785E+03  0.50558916785E+03  0.00000000000E+00 0.  1.
    9000005    1    1    2  501    0 -0.16681106754E+03 -0.75654807053E+01  0.87101648612E+02  0.44211974164E+03  0.40000000000E+03 0. -1.
   -9000005    1    1    2    0  503  0.16681106754E+03  0.75654807053E+01 -0.18491145877E+03  0.47124878391E+03  0.40000000000E+03 0.  1.
<mgrwt>
<rscale>  2 0.43345492E+03</rscale>
<asrwt>0</asrwt>
<pdfrwt beam="1">  1       21 0.62735285E-01 0.43345492E+03</pdfrwt>
<pdfrwt beam="2">  1       21 0.77782949E-01 0.43345492E+03</pdfrwt>
<totfact> 0.30214832E+03</totfact>
</mgrwt>
</event>
<event>
 4    1  0.4857079E-002  0.5141496E+03  0.7818608E-02  0.1010150E+00
         21   -1    0    0  503  502  0.00000000000E+00  0.00000000000E+00  0.13876932475E+04  0.13876932475E+04  0.00000000000E+00 0. -1.
         21   -1    0    0  501  503 -0.00000000000E+00 -0.00000000000E+00 -0.45456109673E+03  0.45456109673E+03  0.00000000000E+00 0. -1.
    9000005    1    1    2  501    0 -0.71718506969E+02 -0.31497022499E+03 -0.23550179148E+03  0.56551824078E+03  0.40000000000E+03 0. -1.
   -9000005    1    1    2    0  502  0.71718506969E+02  0.31497022499E+03  0.11686339423E+04  0.12767361035E+04  0.40000000000E+03 0. -1.
<mgrwt>
<rscale>  2 0.51414958E+03</rscale>
<asrwt>0</asrwt>
<pdfrwt beam="1">  1       21 0.21349127E+00 0.51414958E+03</pdfrwt>
<pdfrwt beam="2">  1       21 0.69932477E-01 0.51414958E+03</pdfrwt>
<totfact> 0.15897185E+02</totfact>
</mgrwt>
</event>
<event>
 4    1  0.4857079E-002  0.5811515E+03  0.7818608E-02  0.9945301E-01
         21   -1    0    0  501  502  0.00000000000E+00  0.00000000000E+00  0.75373822133E+03  0.75373822133E+03  0.00000000000E+00 0.  1.
         21   -1    0    0  502  503 -0.00000000000E+00 -0.00000000000E+00 -0.75643349203E+03  0.75643349203E+03  0.00000000000E+00 0. -1.
    9000005    1    1    2  501    0  0.31321365653E+03  0.28219552140E+03  0.48074827650E+03  0.75422543864E+03  0.40000000000E+03 0.  1.
   -9000005    1    1    2    0  503 -0.31321365653E+03 -0.28219552140E+03 -0.48344354720E+03  0.75594627472E+03  0.40000000000E+03 0.  1.
<mgrwt>
<rscale>  2 0.58115154E+03</rscale>
<asrwt>0</asrwt>
<pdfrwt beam="1">  1       21 0.11595973E+00 0.58115154E+03</pdfrwt>
<pdfrwt beam="2">  1       21 0.11637438E+00 0.58115154E+03</pdfrwt>
<totfact> 0.25494632E+02</totfact>
</mgrwt>
</event>
<event>
 4    1  0.4857079E-002  0.4188914E+03  0.7818608E-02  0.1037428E+00
         21   -1    0    0  501  502  0.00000000000E+00  0.00000000000E+00  0.77761721919E+03  0.77761721919E+03  0.00000000000E+00 0.  1.
         21   -1    0    0  502  503 -0.00000000000E+00 -0.00000000000E+00 -0.76310291027E+03  0.76310291027E+03  0.00000000000E+00 0.  1.
    9000005    1    1    2  501    0  0.11002978538E+03  0.57994994811E+02  0.65376243883E+03  0.77645044885E+03  0.40000000000E+03 0.  1.
   -9000005    1    1    2    0  503 -0.11002978538E+03 -0.57994994811E+02 -0.63924812992E+03  0.76426968061E+03  0.40000000000E+03 0.  1.
<mgrwt>
<rscale>  2 0.41889136E+03</rscale>
<asrwt>0</asrwt>
<pdfrwt beam="1">  1       21 0.11963342E+00 0.41889136E+03</pdfrwt>
<pdfrwt beam="2">  1       21 0.11740045E+00 0.41889136E+03</pdfrwt>
<totfact> 0.24773109E+02</totfact>
</mgrwt>
</event>
<event>
 4    1  0.4857079E-002  0.4734210E+03  0.7818608E-02  0.1020959E+00
         21   -1    0    0  503  502  0.00000000000E+00  0.00000000000E+00  0.21762884357E+04  0.21762884357E+04  0.00000000000E+00 0.  1.
         21   -1    0    0  501  503 -0.00000000000E+00 -0.00000000000E+00 -0.11397421704E+03  0.11397421704E+03  0.00000000000E+00 0.  1.
    9000005    1    1    2  501    0  0.14670576437E+01  0.25322979282E+03  0.67559667552E+03  0.82495960398E+03  0.40000000000E+03 0.  1.
   -9000005    1    1    2    0  502 -0.14670576437E+01 -0.25322979282E+03  0.13867175432E+04  0.14653030488E+04  0.40000000000E+03 0.  1.
<mgrwt>
<rscale>  2 0.47342104E+03</rscale>
<asrwt>0</asrwt>
<pdfrwt beam="1">  1       21 0.33481357E+00 0.47342104E+03</pdfrwt>
<pdfrwt beam="2">  1       21 0.17534497E-01 0.47342104E+03</pdfrwt>
<totfact> 0.49198064E+02</totfact>
</mgrwt>
</event>
<event>
 4    1  0.4857079E-002  0.5245922E+03  0.7818608E-02  0.1007552E+00
         21   -1    0    0  503  502  0.00000000000E+00  0.00000000000E+00  0.14018423289E+04  0.14018423289E+04  0.00000000000E+00 0. -1.
         21   -1    0    0  501  503 -0.00000000000E+00 -0.00000000000E+00 -0.21092634052E+03  0.21092634052E+03  0.00000000000E+00 0. -1.
    9000005    1    1    2  501    0  0.13863483655E+03 -0.30980213025E+03  0.38319117430E+03  0.64964024958E+03  0.40000000000E+03 0.  1.
   -9000005    1    1    2    0  502 -0.13863483655E+03  0.30980213025E+03  0.80772481407E+03  0.96312841982E+03  0.40000000000E+03 0.  1.
<mgrwt>
<rscale>  2 0.52459220E+03</rscale>
<asrwt>0</asrwt>
<pdfrwt beam="1">  1       21 0.21566805E+00 0.52459220E+03</pdfrwt>
<pdfrwt beam="2">  1       21 0.32450207E-01 0.52459220E+03</pdfrwt>
<totfact> 0.78240603E+02</totfact>
</mgrwt>
</event>
<event>
 4    1  0.4857079E-002  0.6574007E+03  0.7818608E-02  0.9792991E-01
         21   -1    0    0  503  502  0.00000000000E+00  0.00000000000E+00  0.40489842584E+03  0.40489842584E+03  0.00000000000E+00 0.  1.
         21   -1    0    0  501  503 -0.00000000000E+00 -0.00000000000E+00 -0.22817451772E+04  0.22817451772E+04  0.00000000000E+00 0. -1.
    9000005    1    1    2  501    0  0.50927331513E+03  0.11320946050E+03 -0.19184170234E+04  0.20279298724E+04  0.40000000000E+03 0. -1.
   -9000005    1    1    2    0  502 -0.50927331513E+03 -0.11320946050E+03  0.41570272079E+02  0.65871373067E+03  0.40000000000E+03 0.  1.
<mgrwt>
<rscale>  2 0.65740071E+03</rscale>
<asrwt>0</asrwt>
<pdfrwt beam="1">  1       21 0.62292065E-01 0.65740071E+03</pdfrwt>
<pdfrwt beam="2">  1       21 0.35103772E+00 0.65740071E+03</pdfrwt>
<totfact> 0.27097124E+01</totfact>
</mgrwt>
</event>
<event>
 4    1  0.4857079E-002  0.4489443E+03  0.7818608E-02  0.1028037E+00
         21   -1    0    0  501  502  0.00000000000E+00  0.00000000000E+00  0.83180267110E+03  0.83180267110E+03  0.00000000000E+00 0. -1.
         21   -1    0    0  502  503 -0.00000000000E+00 -0.00000000000E+00 -0.55810551781E+03  0.55810551781E+03  0.00000000000E+00 0. -1.
    9000005    1    1    2  501    0  0.19406292303E+03  0.62374668451E+02  0.65960995368E+03  0.79789492313E+03  0.40000000000E+03 0. -1.
   -9000005    1    1    2    0  503 -0.19406292303E+03 -0.62374668451E+02 -0.38591280039E+03  0.59201326578E+03  0.40000000000E+03 0. -1.
<mgrwt>
<rscale>  2 0.44894434E+03</rscale>
<asrwt>0</asrwt>
<pdfrwt beam="1">  1       21 0.12796964E+00 0.44894434E+03</pdfrwt>
<pdfrwt beam="2">  1       21 0.85862388E-01 0.44894434E+03</pdfrwt>
<totfact> 0.43896072E+02</totfact>
</mgrwt>
</event>
<event>
 4    1  0.4857079E-002  0.4409169E+03  0.7818608E-02  0.1030466E+00
         21   -1    0    0  501  502  0.00000000000E+00  0.00000000000E+00  0.10623815182E+04  0.10623815182E+04  0.00000000000E+00 0. -1.
         21   -1    0    0  502  503 -0.00000000000E+00 -0.00000000000E+00 -0.21583861376E+03  0.21583861376E+03  0.00000000000E+00 0. -1.
    9000005    1    1    2  501    0  0.18484623153E+03 -0.15479116565E+02  0.67258955561E+03  0.80422909838E+03  0.40000000000E+03 0. -1.
   -9000005    1    1    2    0  503 -0.18484623153E+03  0.15479116565E+02  0.17395334883E+03  0.47399103360E+03  0.40000000000E+03 0. -1.
<mgrwt>
<rscale>  2 0.44091692E+03</rscale>
<asrwt>0</asrwt>
<pdfrwt beam="1">  1       21 0.16344331E+00 0.44091692E+03</pdfrwt>
<pdfrwt beam="2">  1       21 0.33205941E-01 0.44091692E+03</pdfrwt>
<totfact> 0.17736932E+03</totfact>
</mgrwt>
</event>
<event>
 4    1  0.4857079E-002  0.4666840E+03  0.7818608E-02  0.1022860E+00
         21   -1    0    0  503  502  0.00000000000E+00  0.00000000000E+00  0.24576867918E+03  0.24576867918E+03  0.00000000000E+00 0. -1.
         21   -1    0    0  501  503 -0.00000000000E+00 -0.00000000000E+00 -0.11591602816E+04  0.11591602816E+04  0.00000000000E+00 0. -1.
    9000005    1    1    2  501    0 -0.18995200334E+03  0.14735056185E+03 -0.79759233691E+03  0.92409279164E+03  0.40000000000E+03 0. -1.
   -9000005    1    1    2    0  502  0.18995200334E+03 -0.14735056185E+03 -0.11579926548E+03  0.48083616912E+03  0.40000000000E+03 0. -1.
<mgrwt>
<rscale>  2 0.46668400E+03</rscale>
<asrwt>0</asrwt>
<pdfrwt beam="1">  1       21 0.37810566E-01 0.46668400E+03</pdfrwt>
<pdfrwt beam="2">  1       21 0.17833235E+00 0.46668400E+03</pdfrwt>
<totfact> 0.10511334E+03</totfact>
</mgrwt>
</event>
<event>
 4    1  0.4857079E-002  0.5270409E+03  0.7818608E-02  0.1006952E+00
         21   -1    0    0  503  502  0.00000000000E+00  0.00000000000E+00  0.17618080957E+04  0.17618080957E+04  0.00000000000E+00 0.  1.
         21   -1    0    0  501  503 -0.00000000000E+00 -0.00000000000E+00 -0.17778149982E+03  0.17778149982E+03  0.00000000000E+00 0.  1.
    9000005    1    1    2  501    0 -0.31031273390E+03 -0.14655413503E+03  0.46577615964E+03  0.70336302021E+03  0.40000000000E+03 0.  1.
   -9000005    1    1    2    0  502  0.31031273390E+03  0.14655413503E+03  0.11182504362E+04  0.12362265753E+04  0.40000000000E+03 0.  1.
<mgrwt>
<rscale>  2 0.52704090E+03</rscale>
<asrwt>0</asrwt>
<pdfrwt beam="1">  1       21 0.27104739E+00 0.52704090E+03</pdfrwt>
<pdfrwt beam="2">  1       21 0.27351001E-01 0.52704090E+03</pdfrwt>
<totfact> 0.49521230E+02</totfact>
</mgrwt>
</event>
<event>
 4    1  0.4857079E-002  0.5089683E+03  0.7818608E-02  0.1011464E+00
         21   -1    0    0  503  502  0.00000000000E+00  0.00000000000E+00  0.92845844363E+03  0.92845844363E+03  0.00000000000E+00 0. -1.
         21   -1    0    0  501  503 -0.00000000000E+00 -0.00000000000E+00 -0.30808904776E+03  0.30808904776E+03  0.00000000000E+00 0.  1.
    9000005    1    1    2  501    0 -0.31029042072E+03 -0.52617596947E+02  0.12023602956E+03  0.52297749426E+03  0.40000000000E+03 0.  1.
   -9000005    1    1    2    0  502  0.31029042072E+03  0.52617596947E+02  0.50013336631E+03  0.71356999713E+03  0.40000000000E+03 0.  1.
<mgrwt>
<rscale>  2 0.50896833E+03</rscale>
<asrwt>0</asrwt>
<pdfrwt beam="1">  1       21 0.14283976E+00 0.50896833E+03</pdfrwt>
<pdfrwt beam="2">  1       21 0.47398315E-01 0.50896833E+03</pdfrwt>
<totfact> 0.12002652E+03</totfact>
</mgrwt>
</event>
<event>
 4    1  0.4857079E-002  0.8336966E+03  0.7818608E-02  0.9512484E-01
         21   -1    0    0  503  502  0.00000000000E+00  0.00000000000E+00  0.95977237103E+03  0.95977237103E+03  0.00000000000E+00 0.  1.
         21   -1    0    0  501  503 -0.00000000000E+00 -0.00000000000E+00 -0.77064893259E+03  0.77064893259E+03  0.00000000000E+00 0. -1.
    9000005    1    1    2  501    0  0.35815888302E+03 -0.63778698002E+03  0.30701570196E+03  0.88843044669E+03  0.40000000000E+03 0.  1.
   -9000005    1    1    2    0  502 -0.35815888302E+03  0.63778698002E+03 -0.11789226352E+03  0.84199085693E+03  0.40000000000E+03 0. -1.
<mgrwt>
<rscale>  2 0.83369660E+03</rscale>
<asrwt>0</asrwt>
<pdfrwt beam="1">  1       21 0.14765729E+00 0.83369660E+03</pdfrwt>
<pdfrwt beam="2">  1       21 0.11856137E+00 0.83369660E+03</pdfrwt>
<totfact> 0.11856898E+02</totfact>
</mgrwt>
</event>
<event>
 4    1  0.4857079E-002  0.4336640E+03  0.7818608E-02  0.1032709E+00
         21   -1    0    0  503  502  0.00000000000E+00  0.00000000000E+00  0.13665003929E+03  0.13665003929E+03  0.00000000000E+00 0.  1.
         21   -1    0    0  501  503 -0.00000000000E+00 -0.00000000000E+00 -0.13996513926E+04  0.13996513926E+04  0.00000000000E+00 0.  1.
    9000005    1    1    2  501    0 -0.15025051807E+03  0.74089608966E+02 -0.73082738831E+03  0.84980771934E+03  0.40000000000E+03 0.  1.
   -9000005    1    1    2    0  502  0.15025051807E+03 -0.74089608966E+02 -0.53217396495E+03  0.68649371250E+03  0.40000000000E+03 0.  1.
<mgrwt>
<rscale>  2 0.43366403E+03</rscale>
<asrwt>0</asrwt>
<pdfrwt beam="1">  1       21 0.21023083E-01 0.43366403E+03</pdfrwt>
<pdfrwt beam="2">  1       21 0.21533098E+00 0.43366403E+03</pdfrwt>
<totfact> 0.19142720E+03</totfact>
</mgrwt>
</event>
<event>
 4    1  0.4857079E-002  0.4550533E+03  0.7818608E-02  0.1026226E+00
         21   -1    0    0  503  502  0.00000000000E+00  0.00000000000E+00  0.58528872952E+03  0.58528872952E+03  0.00000000000E+00 0.  1.
         21   -1    0    0  501  503 -0.00000000000E+00 -0.00000000000E+00 -0.35610230926E+03  0.35610230926E+03  0.00000000000E+00 0.  1.
    9000005    1    1    2  501    0  0.18216127730E+03 -0.11785901835E+03  0.76722453124E+02  0.46147569163E+03  0.40000000000E+03 0.  1.
   -9000005    1    1    2    0  502 -0.18216127730E+03  0.11785901835E+03  0.15246396713E+03  0.47991534715E+03  0.40000000000E+03 0.  1.
<mgrwt>
<rscale>  2 0.45505327E+03</rscale>
<asrwt>0</asrwt>
<pdfrwt beam="1">  1       21 0.90044420E-01 0.45505327E+03</pdfrwt>
<pdfrwt beam="2">  1       21 0.54784971E-01 0.45505327E+03</pdfrwt>
<totfact> 0.28644508E+03</totfact>
</mgrwt>
</event>
<event>
 4    1  0.4857079E-002  0.4210972E+03  0.7818608E-02  0.1036710E+00
         21   -1    0    0  503  502  0.00000000000E+00  0.00000000000E+00  0.26999034885E+03  0.26999034885E+03  0.00000000000E+00 0. -1.
         21   -1    0    0  501  503 -0.00000000000E+00 -0.00000000000E+00 -0.66628891580E+03  0.66628891580E+03  0.00000000000E+00 0. -1.
    9000005    1    1    2  501    0 -0.28498178839E+02  0.12849392163E+03 -0.25409029300E+03  0.49181776207E+03  0.40000000000E+03 0. -1.
   -9000005    1    1    2    0  502  0.28498178839E+02 -0.12849392163E+03 -0.14220827395E+03  0.44446150258E+03  0.40000000000E+03 0. -1.
<mgrwt>
<rscale>  2 0.42109718E+03</rscale>
<asrwt>0</asrwt>
<pdfrwt beam="1">  1       21 0.41536977E-01 0.42109718E+03</pdfrwt>
<pdfrwt beam="2">  1       21 0.10250599E+00 0.42109718E+03</pdfrwt>
<totfact> 0.38103634E+03</totfact>
</mgrwt>
</event>
<event>
 4    1  0.4857079E-002  0.5447869E+03  0.7818608E-02  0.1002708E+00
         21   -1    0    0  503  502  0.00000000000E+00  0.00000000000E+00  0.58300321047E+03  0.58300321047E+03  0.00000000000E+00 0.  1.
         21   -1    0    0  501  503 -0.00000000000E+00 -0.00000000000E+00 -0.56788187901E+03  0.56788187901E+03  0.00000000000E+00 0. -1.
    9000005    1    1    2  501    0  0.35142344865E+03  0.11530100860E+03 -0.17761523789E+03  0.57300954231E+03  0.40000000000E+03 0.  1.
   -9000005    1    1    2    0  502 -0.35142344865E+03 -0.11530100860E+03  0.19273656935E+03  0.57787554717E+03  0.40000000000E+03 0.  1.
<mgrwt>
<rscale>  2 0.54478690E+03</rscale>
<asrwt>0</asrwt>
<pdfrwt beam="1">  1       21 0.89692801E-01 0.54478690E+03</pdfrwt>
<pdfrwt beam="2">  1       21 0.87366443E-01 0.54478690E+03</pdfrwt>
<totfact> 0.97845152E+02</totfact>
</mgrwt>
</event>
<event>
 4    1  0.4857079E-002  0.4064971E+03  0.7818608E-02  0.1041553E+00
         21   -1    0    0  503  502  0.00000000000E+00  0.00000000000E+00  0.27440555378E+03  0.27440555378E+03  0.00000000000E+00 0. -1.
         21   -1    0    0  501  503 -0.00000000000E+00 -0.00000000000E+00 -0.85252573250E+03  0.85252573250E+03  0.00000000000E+00 0. -1.
    9000005    1    1    2  501    0  0.57468558513E+02 -0.44014034275E+02 -0.59440385304E+03  0.72010819391E+03  0.40000000000E+03 0. -1.
   -9000005    1    1    2    0  502 -0.57468558513E+02  0.44014034275E+02  0.16283674319E+02  0.40682309236E+03  0.40000000000E+03 0. -1.
<mgrwt>
<rscale>  2 0.40649707E+03</rscale>
<asrwt>0</asrwt>
<pdfrwt beam="1">  1       21 0.42216240E-01 0.40649707E+03</pdfrwt>
<pdfrwt beam="2">  1       21 0.13115780E+00 0.40649707E+03</pdfrwt>
<totfact> 0.19950936E+03</totfact>
</mgrwt>
</event>
<event>
 4    1  0.4857079E-002  0.4352405E+03  0.7818608E-02  0.1032217E+00
         21   -1    0    0  501  502  0.00000000000E+00  0.00000000000E+00  0.10500246303E+04  0.10500246303E+04  0.00000000000E+00 0. -1.
         21   -1    0    0  502  503 -0.00000000000E+00 -0.00000000000E+00 -0.19958157957E+03  0.19958157957E+03  0.00000000000E+00 0.  1.
    9000005    1    1    2  501    0 -0.17113391939E+03 -0.12142588195E+02  0.61887231140E+03  0.75659579607E+03  0.40000000000E+03 0.  1.
   -9000005    1    1    2    0  503  0.17113391939E+03  0.12142588195E+02  0.23157073937E+03  0.49301041383E+03  0.40000000000E+03 0.  1.
<mgrwt>
<rscale>  2 0.43524046E+03</rscale>
<asrwt>0</asrwt>
<pdfrwt beam="1">  1       21 0.16154225E+00 0.43524046E+03</pdfrwt>
<pdfrwt beam="2">  1       21 0.30704859E-01 0.43524046E+03</pdfrwt>
<totfact> 0.21485765E+03</totfact>
</mgrwt>
</event>
<event>
 4    1  0.4857079E-002  0.5037871E+03  0.7818608E-02  0.1012795E+00
         21   -1    0    0  503  502  0.00000000000E+00  0.00000000000E+00  0.20361722176E+04  0.20361722176E+04  0.00000000000E+00 0.  1.
         21   -1    0    0  501  503 -0.00000000000E+00 -0.00000000000E+00 -0.13715916430E+03  0.13715916430E+03  0.00000000000E+00 0.  1.
    9000005    1    1    2  501    0 -0.29627621456E+03  0.77600692817E+02  0.62128973056E+03  0.79987648556E+03  0.40000000000E+03 0.  1.
   -9000005    1    1    2    0  502  0.29627621456E+03 -0.77600692817E+02  0.12777233227E+04  0.13734548963E+04  0.40000000000E+03 0.  1.
<mgrwt>
<rscale>  2 0.50378712E+03</rscale>
<asrwt>0</asrwt>
<pdfrwt beam="1">  1       21 0.31325724E+00 0.50378712E+03</pdfrwt>
<pdfrwt beam="2">  1       21 0.21101411E-01 0.50378712E+03</pdfrwt>
<totfact> 0.46011277E+02</totfact>
</mgrwt>
</event>
<event>
 4    1  0.4857079E-002  0.4319216E+03  0.7818608E-02  0.1033255E+00
         21   -1    0    0  503  502  0.00000000000E+00  0.00000000000E+00  0.90597759350E+03  0.90597759350E+03  0.00000000000E+00 0.  1.
         21   -1    0    0  501  503 -0.00000000000E+00 -0.00000000000E+00 -0.24466973660E+03  0.24466973660E+03  0.00000000000E+00 0.  1.
    9000005    1    1    2  501    0  0.15690631771E+03  0.44007761549E+02  0.55962085696E+03  0.70691709497E+03  0.40000000000E+03 0.  1.
   -9000005    1    1    2    0  502 -0.15690631771E+03 -0.44007761549E+02  0.10168699994E+03  0.44373023513E+03  0.40000000000E+03 0.  1.
<mgrwt>
<rscale>  2 0.43192161E+03</rscale>
<asrwt>0</asrwt>
<pdfrwt beam="1">  1       21 0.13938117E+00 0.43192161E+03</pdfrwt>
<pdfrwt beam="2">  1       21 0.37641498E-01 0.43192161E+03</pdfrwt>
<totfact> 0.21311727E+03</totfact>
</mgrwt>
</event>
<event>
 4    1  0.4857079E-002  0.4130479E+03  0.7818608E-02  0.1039353E+00
         21   -1    0    0  503  502  0.00000000000E+00  0.00000000000E+00  0.85225694236E+03  0.85225694236E+03  0.00000000000E+00 0. -1.
         21   -1    0    0  501  503 -0.00000000000E+00 -0.00000000000E+00 -0.21206138190E+03  0.21206138190E+03  0.00000000000E+00 0. -1.
    9000005    1    1    2  501    0 -0.10257970378E+03  0.92741429260E+01  0.19415812640E+03  0.45640550325E+03  0.40000000000E+03 0. -1.
   -9000005    1    1    2    0  502  0.10257970378E+03 -0.92741429260E+01  0.44603743407E+03  0.60791282101E+03  0.40000000000E+03 0. -1.
<mgrwt>
<rscale>  2 0.41304795E+03</rscale>
<asrwt>0</asrwt>
<pdfrwt beam="1">  1       21 0.13111645E+00 0.41304795E+03</pdfrwt>
<pdfrwt beam="2">  1       21 0.32624828E-01 0.41304795E+03</pdfrwt>
<totfact> 0.33650877E+03</totfact>
</mgrwt>
</event>
<event>
 4    1  0.4857079E-002  0.4448786E+03  0.7818608E-02  0.1029260E+00
         21   -1    0    0  503  502  0.00000000000E+00  0.00000000000E+00  0.76722999516E+02  0.76722999516E+02  0.00000000000E+00 0. -1.
         21   -1    0    0  501  503 -0.00000000000E+00 -0.00000000000E+00 -0.25830019908E+04  0.25830019908E+04  0.00000000000E+00 0. -1.
    9000005    1    1    2  501    0 -0.13116553112E+03  0.14391849032E+03 -0.13011909702E+04  0.13751417634E+04  0.40000000000E+03 0. -1.
   -9000005    1    1    2    0  502  0.13116553112E+03 -0.14391849032E+03 -0.12050880210E+04  0.12845832269E+04  0.40000000000E+03 0. -1.
<mgrwt>
<rscale>  2 0.44487855E+03</rscale>
<asrwt>0</asrwt>
<pdfrwt beam="1">  1       21 0.11803539E-01 0.44487855E+03</pdfrwt>
<pdfrwt beam="2">  1       21 0.39738491E+00 0.44487855E+03</pdfrwt>
<totfact> 0.42445174E+02</totfact>
</mgrwt>
</event>
<event>
 4    1  0.4857079E-002  0.4235088E+03  0.7818608E-02  0.1035930E+00
         21   -1    0    0  503  502  0.00000000000E+00  0.00000000000E+00  0.29063450951E+03  0.29063450951E+03  0.00000000000E+00 0. -1.
         21   -1    0    0  501  503 -0.00000000000E+00 -0.00000000000E+00 -0.67241628885E+03  0.67241628885E+03  0.00000000000E+00 0. -1.
    9000005    1    1    2  501    0 -0.13367138250E+03  0.38621677463E+02 -0.52819583618E+02  0.42678985565E+03  0.40000000000E+03 0. -1.
   -9000005    1    1    2    0  502  0.13367138250E+03 -0.38621677463E+02 -0.32896219572E+03  0.53626094272E+03  0.40000000000E+03 0. -1.
<mgrwt>
<rscale>  2 0.42350876E+03</rscale>
<asrwt>0</asrwt>
<pdfrwt beam="1">  1       21 0.44713002E-01 0.42350876E+03</pdfrwt>
<pdfrwt beam="2">  1       21 0.10344866E+00 0.42350876E+03</pdfrwt>
<totfact> 0.31938224E+03</totfact>
</mgrwt>
</event>
<event>
 4    1  0.4857079E-002  0.4272802E+03  0.7818608E-02  0.1034723E+00
         21   -1    0    0  501  502  0.00000000000E+00  0.00000000000E+00  0.11569027071E+03  0.11569027071E+03  0.00000000000E+00 0. -1.
         21   -1    0    0  502  503 -0.00000000000E+00 -0.00000000000E+00 -0.16751792378E+04  0.16751792378E+04  0.00000000000E+00 0.  1.
    9000005    1    1    2  501    0 -0.11414173318E+03  0.97673136091E+02 -0.56416191369E+03  0.70770547661E+03  0.40000000000E+03 0. -1.
   -9000005    1    1    2    0  503  0.11414173318E+03 -0.97673136091E+02 -0.99532705343E+03  0.10831640319E+04  0.40000000000E+03 0. -1.
<mgrwt>
<rscale>  2 0.42728021E+03</rscale>
<asrwt>0</asrwt>
<pdfrwt beam="1">  1       21 0.17798504E-01 0.42728021E+03</pdfrwt>
<pdfrwt beam="2">  1       21 0.25771988E+00 0.42728021E+03</pdfrwt>
<totfact> 0.14323947E+03</totfact>
</mgrwt>
</event>
<event>
 4    1  0.4857079E-002  0.8922471E+03  0.7818608E-02  0.9435325E-01
         21   -1    0    0  501  502  0.00000000000E+00  0.00000000000E+00  0.14860564435E+04  0.14860564435E+04  0.00000000000E+00 0. -1.
         21   -1    0    0  502  503 -0.00000000000E+00 -0.00000000000E+00 -0.94728707302E+03  0.94728707302E+03  0.00000000000E+00 0.  1.
    9000005    1    1    2  501    0 -0.58574903853E+03 -0.54129752309E+03  0.10713485200E+04  0.13942354880E+04  0.40000000000E+03 0. -1.
   -9000005    1    1    2    0  503  0.58574903853E+03  0.54129752309E+03 -0.53257914946E+03  0.10391080286E+04  0.40000000000E+03 0.  1.
<mgrwt>
<rscale>  2 0.89224713E+03</rscale>
<asrwt>0</asrwt>
<pdfrwt beam="1">  1       21 0.22862407E+00 0.89224713E+03</pdfrwt>
<pdfrwt beam="2">  1       21 0.14573647E+00 0.89224713E+03</pdfrwt>
<totfact> 0.17805840E+01</totfact>
</mgrwt>
</event>
<event>
 4    1  0.4857079E-002  0.4602445E+03  0.7818608E-02  0.1024710E+00
         21   -1    0    0  501  502  0.00000000000E+00  0.00000000000E+00  0.27258080773E+03  0.27258080773E+03  0.00000000000E+00 0.  1.
         21   -1    0    0  502  503 -0.00000000000E+00 -0.00000000000E+00 -0.83214554365E+03  0.83214554365E+03  0.00000000000E+00 0.  1.
    9000005    1    1    2  501    0 -0.14614622926E+03 -0.17454594740E+03 -0.13772933354E+03  0.48041063414E+03  0.40000000000E+03 0.  1.
   -9000005    1    1    2    0  503  0.14614622926E+03  0.17454594740E+03 -0.42183540238E+03  0.62431571723E+03  0.40000000000E+03 0.  1.
<mgrwt>
<rscale>  2 0.46024451E+03</rscale>
<asrwt>0</asrwt>
<pdfrwt beam="1">  1       21 0.41935509E-01 0.46024451E+03</pdfrwt>
<pdfrwt beam="2">  1       21 0.12802239E+00 0.46024451E+03</pdfrwt>
<totfact> 0.21077791E+03</totfact>
</mgrwt>
</event>
<event>
 4    1  0.4857079E-002  0.4443093E+03  0.7818608E-02  0.1029433E+00
         21   -1    0    0  503  502  0.00000000000E+00  0.00000000000E+00  0.50157496199E+03  0.50157496199E+03  0.00000000000E+00 0.  1.
         21   -1    0    0  501  503 -0.00000000000E+00 -0.00000000000E+00 -0.79380274797E+03  0.79380274797E+03  0.00000000000E+00 0.  1.
    9000005    1    1    2  501    0 -0.63355724047E+01  0.19331486020E+03 -0.60601031955E+03  0.75143814253E+03  0.40000000000E+03 0.  1.
   -9000005    1    1    2    0  502  0.63355724047E+01 -0.19331486020E+03  0.31378253357E+03  0.54393956744E+03  0.40000000000E+03 0.  1.
<mgrwt>
<rscale>  2 0.44430932E+03</rscale>
<asrwt>0</asrwt>
<pdfrwt beam="1">  1       21 0.77165379E-01 0.44430932E+03</pdfrwt>
<pdfrwt beam="2">  1       21 0.12212350E+00 0.44430932E+03</pdfrwt>
<totfact> 0.63545397E+02</totfact>
</mgrwt>
</event>
<event>
 4    1  0.4857079E-002  0.6256002E+03  0.7818608E-02  0.9853672E-01
         21   -1    0    0  501  502  0.00000000000E+00  0.00000000000E+00  0.20101023291E+03  0.20101023291E+03  0.00000000000E+00 0.  1.
         21   -1    0    0  502  503 -0.00000000000E+00 -0.00000000000E+00 -0.19486971416E+04  0.19486971416E+04  0.00000000000E+00 0. -1.
    9000005    1    1    2  501    0 -0.43106616982E+03 -0.21344224922E+03 -0.90515597739E+03  0.11003104016E+04  0.40000000000E+03 0. -1.
   -9000005    1    1    2    0  503  0.43106616982E+03  0.21344224922E+03 -0.84253093129E+03  0.10493969729E+04  0.40000000000E+03 0.  1.
<mgrwt>
<rscale>  2 0.62560022E+03</rscale>
<asrwt>0</asrwt>
<pdfrwt beam="1">  1       21 0.30924651E-01 0.62560022E+03</pdfrwt>
<pdfrwt beam="2">  1       21 0.29979956E+00 0.62560022E+03</pdfrwt>
<totfact> 0.24821356E+02</totfact>
</mgrwt>
</event>
<event>
 4    1  0.4857079E-002  0.4224209E+03  0.7818608E-02  0.1036281E+00
         21   -1    0    0  501  502  0.00000000000E+00  0.00000000000E+00  0.70443122995E+03  0.70443122995E+03  0.00000000000E+00 0. -1.
         21   -1    0    0  502  503 -0.00000000000E+00 -0.00000000000E+00 -0.37828907218E+03  0.37828907218E+03  0.00000000000E+00 0. -1.
    9000005    1    1    2  501    0 -0.40141859712E+02  0.12972291743E+03  0.47423784699E+03  0.63509128456E+03  0.40000000000E+03 0. -1.
   -9000005    1    1    2    0  503  0.40141859712E+02 -0.12972291743E+03 -0.14809568922E+03  0.44762901757E+03  0.40000000000E+03 0. -1.
<mgrwt>
<rscale>  2 0.42242089E+03</rscale>
<asrwt>0</asrwt>
<pdfrwt beam="1">  1       21 0.10837404E+00 0.42242089E+03</pdfrwt>
<pdfrwt beam="2">  1       21 0.58198319E-01 0.42242089E+03</pdfrwt>
<totfact> 0.16247077E+03</totfact>
</mgrwt>
</event>
<event>
 4    1  0.4857079E-002  0.4176992E+03  0.7818608E-02  0.1037818E+00
         21   -1    0    0  501  502  0.00000000000E+00  0.00000000000E+00  0.14659493483E+04  0.14659493483E+04  0.00000000000E+00 0. -1.
         21   -1    0    0  502  503 -0.00000000000E+00 -0.00000000000E+00 -0.22345977824E+03  0.22345977824E+03  0.00000000000E+00 0. -1.
    9000005    1    1    2  501    0 -0.11163332782E+03  0.44839940650E+02  0.11987351654E+04  0.12694245220E+04  0.40000000000E+03 0. -1.
   -9000005    1    1    2    0  503  0.11163332782E+03 -0.44839940650E+02  0.43754404651E+02  0.41998460458E+03  0.40000000000E+03 0. -1.
<mgrwt>
<rscale>  2 0.41769920E+03</rscale>
<asrwt>0</asrwt>
<pdfrwt beam="1">  1       21 0.22553066E+00 0.41769920E+03</pdfrwt>
<pdfrwt beam="2">  1       21 0.34378428E-01 0.41769920E+03</pdfrwt>
<totfact> 0.63325183E+02</totfact>
</mgrwt>
</event>
<event>
 4    1  0.4857079E-002  0.4936922E+03  0.7818608E-02  0.1015439E+00
         21   -1    0    0  503  502  0.00000000000E+00  0.00000000000E+00  0.32664733558E+03  0.32664733558E+03  0.00000000000E+00 0. -1.
         21   -1    0    0  501  503 -0.00000000000E+00 -0.00000000000E+00 -0.75002963972E+03  0.75002963972E+03  0.00000000000E+00 0.  1.
    9000005    1    1    2  501    0  0.87706436500E+02  0.27575280551E+03 -0.25034608481E+03  0.55353878901E+03  0.40000000000E+03 0.  1.
   -9000005    1    1    2    0  502 -0.87706436500E+02 -0.27575280551E+03 -0.17303621932E+03  0.52313818629E+03  0.40000000000E+03 0. -1.
<mgrwt>
<rscale>  2 0.49369224E+03</rscale>
<asrwt>0</asrwt>
<pdfrwt beam="1">  1       21 0.50253437E-01 0.49369224E+03</pdfrwt>
<pdfrwt beam="2">  1       21 0.11538917E+00 0.49369224E+03</pdfrwt>
<totfact> 0.18554082E+03</totfact>
</mgrwt>
</event>
<event>
 4    1  0.4857079E-002  0.5067259E+03  0.7818608E-02  0.1012038E+00
         21   -1    0    0  501  502  0.00000000000E+00  0.00000000000E+00  0.22381213186E+03  0.22381213186E+03  0.00000000000E+00 0.  1.
         21   -1    0    0  502  503 -0.00000000000E+00 -0.00000000000E+00 -0.11639126828E+04  0.11639126828E+04  0.00000000000E+00 0.  1.
    9000005    1    1    2  501    0  0.25686522361E+03  0.17547476046E+03 -0.38705940678E+03  0.63764105815E+03  0.40000000000E+03 0.  1.
   -9000005    1    1    2    0  503 -0.25686522361E+03 -0.17547476046E+03 -0.55304114417E+03  0.75008375652E+03  0.40000000000E+03 0.  1.
<mgrwt>
<rscale>  2 0.50672590E+03</rscale>
<asrwt>0</asrwt>
<pdfrwt beam="1">  1       21 0.34432636E-01 0.50672590E+03</pdfrwt>
<pdfrwt beam="2">  1       21 0.17906349E+00 0.50672590E+03</pdfrwt>
<totfact> 0.12362777E+03</totfact>
</mgrwt>
</event>
<event>
 4    1  0.4857079E-002  0.4476860E+03  0.7818608E-02  0.1028414E+00
         21   -1    0    0  503  502  0.00000000000E+00  0.00000000000E+00  0.26439687263E+04  0.26439687263E+04  0.00000000000E+00 0. -1.
         21   -1    0    0  501  503 -0.00000000000E+00 -0.00000000000E+00 -0.15046934455E+03  0.15046934455E+03  0.00000000000E+00 0. -1.
    9000005    1    1    2  501    0  0.19448490047E+03 -0.50974573892E+02  0.26251039640E+03  0.51897446171E+03  0.40000000000E+03 0. -1.
   -9000005    1    1    2    0  502 -0.19448490047E+03  0.50974573892E+02  0.22309889854E+04  0.22754636092E+04  0.40000000000E+03 0. -1.
<mgrwt>
<rscale>  2 0.44768603E+03</rscale>
<asrwt>0</asrwt>
<pdfrwt beam="1">  1       21 0.40676438E+00 0.44768603E+03</pdfrwt>
<pdfrwt beam="2">  1       21 0.23149132E-01 0.44768603E+03</pdfrwt>
<totfact> 0.10451673E+02</totfact>
</mgrwt>
</event>
<event>
 4    1  0.4857079E-002  0.4316161E+03  0.7818608E-02  0.1033351E+00
         21   -1    0    0  503  502  0.00000000000E+00  0.00000000000E+00  0.39802292330E+03  0.39802292330E+03  0.00000000000E+00 0.  1.
         21   -1    0    0  501  503 -0.00000000000E+00 -0.00000000000E+00 -0.52872102729E+03  0.52872102729E+03  0.00000000000E+00 0. -1.
    9000005    1    1    2  501    0 -0.15973331710E+03  0.27887536800E+02 -0.22232270558E+03  0.48550986882E+03  0.40000000000E+03 0. -1.
   -9000005    1    1    2    0  502  0.15973331710E+03 -0.27887536800E+02  0.91624601592E+02  0.44123408177E+03  0.40000000000E+03 0.  1.
<mgrwt>
<rscale>  2 0.43161609E+03</rscale>
<asrwt>0</asrwt>
<pdfrwt beam="1">  1       21 0.61234296E-01 0.43161609E+03</pdfrwt>
<pdfrwt beam="2">  1       21 0.81341696E-01 0.43161609E+03</pdfrwt>
<totfact> 0.28766232E+03</totfact>
</mgrwt>
</event>
<event>
 4    1  0.4857079E-002  0.5481479E+03  0.7818608E-02  0.1001924E+00
         21   -1    0    0  501  502  0.00000000000E+00  0.00000000000E+00  0.67388529042E+03  0.67388529042E+03  0.00000000000E+00 0. -1.
         21   -1    0    0  502  503 -0.00000000000E+00 -0.00000000000E+00 -0.44594077683E+03  0.44594077683E+03  0.00000000000E+00 0.  1.
    9000005    1    1    2  501    0  0.29174579720E+03  0.23526694641E+03  0.12095837659E+03  0.56133508275E+03  0.40000000000E+03 0.  1.
   -9000005    1    1    2    0  503 -0.29174579720E+03 -0.23526694641E+03  0.10698613699E+03  0.55849098450E+03  0.40000000000E+03 0.  1.
<mgrwt>
<rscale>  2 0.54814792E+03</rscale>
<asrwt>0</asrwt>
<pdfrwt beam="1">  1       21 0.10367466E+00 0.54814792E+03</pdfrwt>
<pdfrwt beam="2">  1       21 0.68606274E-01 0.54814792E+03</pdfrwt>
<totfact> 0.12021974E+03</totfact>
</mgrwt>
</event>
<event>
 4    1  0.4857079E-002  0.4026032E+03  0.7818608E-02  0.1042882E+00
         21   -1    0    0  501  502  0.00000000000E+00  0.00000000000E+00  0.73501665438E+03  0.73501665438E+03  0.00000000000E+00 0. -1.
         21   -1    0    0  502  503 -0.00000000000E+00 -0.00000000000E+00 -0.37763914685E+03  0.37763914685E+03  0.00000000000E+00 0. -1.
    9000005    1    1    2  501    0  0.40305801060E+02  0.21559554213E+02  0.53752831190E+03  0.67158473633E+03  0.40000000000E+03 0. -1.
   -9000005    1    1    2    0  503 -0.40305801060E+02 -0.21559554213E+02 -0.18015080438E+03  0.44107106490E+03  0.40000000000E+03 0. -1.
<mgrwt>
<rscale>  2 0.40260324E+03</rscale>
<asrwt>0</asrwt>
<pdfrwt beam="1">  1       21 0.11307948E+00 0.40260324E+03</pdfrwt>
<pdfrwt beam="2">  1       21 0.58098331E-01 0.40260324E+03</pdfrwt>
<totfact> 0.14803531E+03</totfact>
</mgrwt>
</event>
<event>
 4    1  0.4857079E-002  0.5542038E+03  0.7818608E-02  0.1000526E+00
         21   -1    0    0  501  502  0.00000000000E+00  0.00000000000E+00  0.59608989227E+03  0.59608989227E+03  0.00000000000E+00 0.  1.
         21   -1    0    0  502  503 -0.00000000000E+00 -0.00000000000E+00 -0.54336495467E+03  0.54336495467E+03  0.00000000000E+00 0. -1.
    9000005    1    1    2  501    0 -0.36392034271E+03 -0.12125926675E+03  0.15593282641E+03  0.57572291249E+03  0.40000000000E+03 0. -1.
   -9000005    1    1    2    0  503  0.36392034271E+03  0.12125926675E+03 -0.10320788881E+03  0.56373193445E+03  0.40000000000E+03 0.  1.
<mgrwt>
<rscale>  2 0.55420378E+03</rscale>
<asrwt>0</asrwt>
<pdfrwt beam="1">  1       21 0.91706137E-01 0.55420378E+03</pdfrwt>
<pdfrwt beam="2">  1       21 0.83594609E-01 0.55420378E+03</pdfrwt>
<totfact> 0.10263953E+03</totfact>
</mgrwt>
</event>
<event>
 4    1  0.4857079E-002  0.5236294E+03  0.7818608E-02  0.1007789E+00
         21   -1    0    0  503  502  0.00000000000E+00  0.00000000000E+00  0.55404405429E+03  0.55404405429E+03  0.00000000000E+00 0.  1.
         21   -1    0    0  501  503 -0.00000000000E+00 -0.00000000000E+00 -0.49603921510E+03  0.49603921510E+03  0.00000000000E+00 0. -1.
    9000005    1    1    2  501    0 -0.19267148172E+03 -0.27760668551E+03  0.54335487074E+02  0.52644099087E+03  0.40000000000E+03 0. -1.
   -9000005    1    1    2    0  502  0.19267148172E+03  0.27760668551E+03  0.36693521217E+01  0.52364227852E+03  0.40000000000E+03 0. -1.
<mgrwt>
<rscale>  2 0.52362942E+03</rscale>
<asrwt>0</asrwt>
<pdfrwt beam="1">  1       21 0.85237547E-01 0.52362942E+03</pdfrwt>
<pdfrwt beam="2">  1       21 0.76313725E-01 0.52362942E+03</pdfrwt>
<totfact> 0.15232355E+03</totfact>
</mgrwt>
</event>
<event>
 4    1  0.4857079E-002  0.5360701E+03  0.7818608E-02  0.1004771E+00
         21   -1    0    0  503  502  0.00000000000E+00  0.00000000000E+00  0.76006578906E+03  0.76006578906E+03  0.00000000000E+00 0. -1.
         21   -1    0    0  501  503 -0.00000000000E+00 -0.00000000000E+00 -0.62980108489E+03  0.62980108489E+03  0.00000000000E+00 0. -1.
    9000005    1    1    2  501    0  0.94431183666E+02  0.34417126614E+03 -0.37420197166E+03  0.65375700721E+03  0.40000000000E+03 0. -1.
   -9000005    1    1    2    0  502 -0.94431183666E+02 -0.34417126614E+03  0.50446667583E+03  0.73610986674E+03  0.40000000000E+03 0. -1.
<mgrwt>
<rscale>  2 0.53607006E+03</rscale>
<asrwt>0</asrwt>
<pdfrwt beam="1">  1       21 0.11693320E+00 0.53607006E+03</pdfrwt>
<pdfrwt beam="2">  1       21 0.96892475E-01 0.53607006E+03</pdfrwt>
<totfact> 0.39979887E+02</totfact>
</mgrwt>
</event>
<event>
 4    1  0.4857079E-002  0.4219498E+03  0.7818608E-02  0.1036434E+00
         21   -1    0    0  503  502  0.00000000000E+00  0.00000000000E+00  0.41650996651E+03  0.41650996651E+03  0.00000000000E+00 0. -1.
         21   -1    0    0  501  503 -0.00000000000E+00 -0.00000000000E+00 -0.50334401414E+03  0.50334401414E+03  0.00000000000E+00 0. -1.
    9000005    1    1    2  501    0  0.61484590072E+02  0.11942056316E+03 -0.22199574067E+03  0.47678478855E+03  0.40000000000E+03 0. -1.
   -9000005    1    1    2    0  502 -0.61484590072E+02 -0.11942056316E+03  0.13516169304E+03  0.44306919210E+03  0.40000000000E+03 0. -1.
<mgrwt>
<rscale>  2 0.42194979E+03</rscale>
<asrwt>0</asrwt>
<pdfrwt beam="1">  1       21 0.64078456E-01 0.42194979E+03</pdfrwt>
<pdfrwt beam="2">  1       21 0.77437541E-01 0.42194979E+03</pdfrwt>
<totfact> 0.29253542E+03</totfact>
</mgrwt>
</event>
<event>
 4    1  0.4857079E-002  0.4826570E+03  0.7818608E-02  0.1018407E+00
         21   -1    0    0  501  502  0.00000000000E+00  0.00000000000E+00  0.12161986349E+03  0.12161986349E+03  0.00000000000E+00 0.  1.
         21   -1    0    0  502  503 -0.00000000000E+00 -0.00000000000E+00 -0.20242655339E+04  0.20242655339E+04  0.00000000000E+00 0. -1.
    9000005    1    1    2  501    0  0.11005538531E+03  0.24666899880E+03 -0.70256797341E+03  0.85238461980E+03  0.40000000000E+03 0.  1.
   -9000005    1    1    2    0  503 -0.11005538531E+03 -0.24666899880E+03 -0.12000776970E+04  0.12935007776E+04  0.40000000000E+03 0. -1.
<mgrwt>
<rscale>  2 0.48265700E+03</rscale>
<asrwt>0</asrwt>
<pdfrwt beam="1">  1       21 0.18710749E-01 0.48265700E+03</pdfrwt>
<pdfrwt beam="2">  1       21 0.31142545E+00 0.48265700E+03</pdfrwt>
<totfact> 0.60016519E+02</totfact>
</mgrwt>
</event>
<event>
 4    1  0.4857079E-002  0.5109569E+03  0.7818608E-02  0.1010958E+00
         21   -1    0    0  501  502  0.00000000000E+00  0.00000000000E+00  0.13927995125E+04  0.13927995125E+04  0.00000000000E+00 0. -1.
         21   -1    0    0  502  503 -0.00000000000E+00 -0.00000000000E+00 -0.18879896513E+03  0.18879896513E+03  0.00000000000E+00 0. -1.
    9000005    1    1    2  501    0 -0.27096632649E+03  0.16629543434E+03  0.66890445945E+03  0.84173041852E+03  0.40000000000E+03 0. -1.
   -9000005    1    1    2    0  503  0.27096632649E+03 -0.16629543434E+03  0.53509608790E+03  0.73986805909E+03  0.40000000000E+03 0. -1.
<mgrwt>
<rscale>  2 0.51095687E+03</rscale>
<asrwt>0</asrwt>
<pdfrwt beam="1">  1       21 0.21427684E+00 0.51095687E+03</pdfrwt>
<pdfrwt beam="2">  1       21 0.29045996E-01 0.51095687E+03</pdfrwt>
<totfact> 0.10023963E+03</totfact>
</mgrwt>
</event>
<event>
 4    1  0.4857079E-002  0.5161544E+03  0.7818608E-02  0.1009646E+00
         21   -1    0    0  503  502  0.00000000000E+00  0.00000000000E+00  0.47433694955E+03  0.47433694955E+03  0.00000000000E+00 0.  1.
         21   -1    0    0  501  503 -0.00000000000E+00 -0.00000000000E+00 -0.56166407365E+03  0.56166407365E+03  0.00000000000E+00 0. -1.
    9000005    1    1    2  501    0 -0.32611185071E+03 -0.81478600922E+01 -0.42015571833E+02  0.51786159838E+03  0.40000000000E+03 0. -1.
   -9000005    1    1    2    0  502  0.32611185071E+03  0.81478600922E+01 -0.45311552269E+02  0.51813942483E+03  0.40000000000E+03 0.  1.
<mgrwt>
<rscale>  2 0.51615436E+03</rscale>
<asrwt>0</asrwt>
<pdfrwt beam="1">  1       21 0.72974915E-01 0.51615436E+03</pdfrwt>
<pdfrwt beam="2">  1       21 0.86409858E-01 0.51615436E+03</pdfrwt>
<totfact> 0.16379655E+03</totfact>
</mgrwt>
</event>
<event>
 4    1  0.4857079E-002  0.4041630E+03  0.7818608E-02  0.1042348E+00
         21   -1    0    0  501  502  0.00000000000E+00  0.00000000000E+00  0.99146191385E+03  0.99146191385E+03  0.00000000000E+00 0. -1.
         21   -1    0    0  502  503 -0.00000000000E+00 -0.00000000000E+00 -0.21309888432E+03  0.21309888432E+03  0.00000000000E+00 0. -1.
    9000005    1    1    2  501    0 -0.29686252890E+02  0.49663425538E+02  0.67604913580E+03  0.78764850249E+03  0.40000000000E+03 0. -1.
   -9000005    1    1    2    0  503  0.29686252890E+02 -0.49663425538E+02  0.10231389372E+03  0.41691229569E+03  0.40000000000E+03 0. -1.
<mgrwt>
<rscale>  2 0.40416300E+03</rscale>
<asrwt>0</asrwt>
<pdfrwt beam="1">  1       21 0.15253260E+00 0.40416300E+03</pdfrwt>
<pdfrwt beam="2">  1       21 0.32784444E-01 0.40416300E+03</pdfrwt>
<totfact> 0.22375897E+03</totfact>
</mgrwt>
</event>
<event>
 4    1  0.4857079E-002  0.5060791E+03  0.7818608E-02  0.1012204E+00
         21   -1    0    0  501  502  0.00000000000E+00  0.00000000000E+00  0.12556258810E+03  0.12556258810E+03  0.00000000000E+00 0. -1.
         21   -1    0    0  502  503 -0.00000000000E+00 -0.00000000000E+00 -0.21704571451E+04  0.21704571451E+04  0.00000000000E+00 0. -1.
    9000005    1    1    2  501    0  0.22132710004E+03 -0.21709534812E+03 -0.74072414860E+03  0.89709996082E+03  0.40000000000E+03 0. -1.
   -9000005    1    1    2    0  503 -0.22132710004E+03  0.21709534812E+03 -0.13041704084E+04  0.13989197724E+04  0.40000000000E+03 0. -1.
<mgrwt>
<rscale>  2 0.50607912E+03</rscale>
<asrwt>0</asrwt>
<pdfrwt beam="1">  1       21 0.19317321E-01 0.50607912E+03</pdfrwt>
<pdfrwt beam="2">  1       21 0.33391648E+00 0.50607912E+03</pdfrwt>
<totfact> 0.40745916E+02</totfact>
</mgrwt>
</event>
<event>
 4    1  0.4857079E-002  0.4072395E+03  0.7818608E-02  0.1041301E+00
         21   -1    0    0  503  502  0.00000000000E+00  0.00000000000E+00  0.73144093388E+02  0.73144093388E+02  0.00000000000E+00 0. -1.
         21   -1    0    0  501  503 -0.00000000000E+00 -0.00000000000E+00 -0.23987097812E+04  0.23987097812E+04  0.00000000000E+00 0. -1.
    9000005    1    1    2  501    0 -0.75743243059E+02  0.10342778664E+02 -0.87356961002E+03  0.96382979592E+03  0.40000000000E+03 0. -1.
   -9000005    1    1    2    0  502  0.75743243059E+02 -0.10342778664E+02 -0.14519960778E+04  0.15080240787E+04  0.40000000000E+03 0. -1.
<mgrwt>
<rscale>  2 0.40723950E+03</rscale>
<asrwt>0</asrwt>
<pdfrwt beam="1">  1       21 0.11252939E-01 0.40723950E+03</pdfrwt>
<pdfrwt beam="2">  1       21 0.36903224E+00 0.40723950E+03</pdfrwt>
<totfact> 0.71563292E+02</totfact>
</mgrwt>
</event>
<event>
 4    1  0.4857079E-002  0.4235703E+03  0.7818608E-02  0.1035911E+00
         21   -1    0    0  503  502  0.00000000000E+00  0.00000000000E+00  0.24358335778E+03  0.24358335778E+03  0.00000000000E+00 0. -1.
         21   -1    0    0  501  503 -0.00000000000E+00 -0.00000000000E+00 -0.10015585315E+04  0.10015585315E+04  0.00000000000E+00 0.  1.
    9000005    1    1    2  501    0 -0.13929913911E+03 -0.27538064711E+01 -0.69923002846E+03  0.81751725750E+03  0.40000000000E+03 0.  1.
   -9000005    1    1    2    0  502  0.13929913911E+03  0.27538064711E+01 -0.58745145249E+02  0.42762463177E+03  0.40000000000E+03 0. -1.
<mgrwt>
<rscale>  2 0.42357034E+03</rscale>
<asrwt>0</asrwt>
<pdfrwt beam="1">  1       21 0.37474363E-01 0.42357034E+03</pdfrwt>
<pdfrwt beam="2">  1       21 0.15408593E+00 0.42357034E+03</pdfrwt>
<totfact> 0.16473383E+03</totfact>
</mgrwt>
</event>
<event>
 4    1  0.4857079E-002  0.4666565E+03  0.7818608E-02  0.1022868E+00
         21   -1    0    0  501  502  0.00000000000E+00  0.00000000000E+00  0.29423576922E+03  0.29423576922E+03  0.00000000000E+00 0. -1.
         21   -1    0    0  502  503 -0.00000000000E+00 -0.00000000000E+00 -0.14198110877E+04  0.14198110877E+04  0.00000000000E+00 0. -1.
    9000005    1    1    2  501    0  0.23694296646E+03 -0.40327552094E+02  0.30185213136E+02  0.46763172252E+03  0.40000000000E+03 0. -1.
   -9000005    1    1    2    0  503 -0.23694296646E+03  0.40327552094E+02 -0.11557605316E+04  0.12464151344E+04  0.40000000000E+03 0. -1.
<mgrwt>
<rscale>  2 0.46665649E+03</rscale>
<asrwt>0</asrwt>
<pdfrwt beam="1">  1       21 0.45267041E-01 0.46665649E+03</pdfrwt>
<pdfrwt beam="2">  1       21 0.21843248E+00 0.46665649E+03</pdfrwt>
<totfact> 0.38913908E+02</totfact>
</mgrwt>
</event>
<event>
 4    1  0.4857079E-002  0.4337696E+03  0.7818608E-02  0.1032676E+00
         21   -1    0    0  501  502  0.00000000000E+00  0.00000000000E+00  0.18982368531E+03  0.18982368531E+03  0.00000000000E+00 0.  1.
         21   -1    0    0  502  503 -0.00000000000E+00 -0.00000000000E+00 -0.11156592381E+04  0.11156592381E+04  0.00000000000E+00 0.  1.
    9000005    1    1    2  501    0 -0.12944008102E+03 -0.10677704656E+03 -0.24491454883E+03  0.49813573298E+03  0.40000000000E+03 0.  1.
   -9000005    1    1    2    0  503  0.12944008102E+03  0.10677704656E+03 -0.68092100392E+03  0.80734719039E+03  0.40000000000E+03 0.  1.
<mgrwt>
<rscale>  2 0.43376961E+03</rscale>
<asrwt>0</asrwt>
<pdfrwt beam="1">  1       21 0.29203644E-01 0.43376961E+03</pdfrwt>
<pdfrwt beam="2">  1       21 0.17163988E+00 0.43376961E+03</pdfrwt>
<totfact> 0.20013327E+03</totfact>
</mgrwt>
</event>
<event>
 4    1  0.4857079E-002  0.5383087E+03  0.7818608E-02  0.1004237E+00
         21   -1    0    0  503  502  0.00000000000E+00  0.00000000000E+00  0.27903717719E+03  0.27903717719E+03  0.00000000000E+00 0.  1.
         21   -1    0    0  501  503 -0.00000000000E+00 -0.00000000000E+00 -0.10617714965E+04  0.10617714965E+04  0.00000000000E+00 0.  1.
    9000005    1    1    2  501    0 -0.22663207069E+03 -0.28002528624E+03 -0.49064726216E+03  0.72836185530E+03  0.40000000000E+03 0.  1.
   -9000005    1    1    2    0  502  0.22663207069E+03  0.28002528624E+03 -0.29208705717E+03  0.61244681840E+03  0.40000000000E+03 0.  1.
<mgrwt>
<rscale>  2 0.53830870E+03</rscale>
<asrwt>0</asrwt>
<pdfrwt beam="1">  1       21 0.42928796E-01 0.53830870E+03</pdfrwt>
<pdfrwt beam="2">  1       21 0.16334946E+00 0.53830870E+03</pdfrwt>
<totfact> 0.10111286E+03</totfact>
</mgrwt>
</event>
<event>
 4    1  0.4857079E-002  0.4155098E+03  0.7818608E-02  0.1038538E+00
         21   -1    0    0  503  502  0.00000000000E+00  0.00000000000E+00  0.27816964286E+03  0.27816964286E+03  0.00000000000E+00 0.  1.
         21   -1    0    0  501  503 -0.00000000000E+00 -0.00000000000E+00 -0.77581485100E+03  0.77581485100E+03  0.00000000000E+00 0.  1.
    9000005    1    1    2  501    0  0.93648058340E+02 -0.62276997285E+02 -0.48449559285E+03  0.63826668620E+03  0.40000000000E+03 0. -1.
   -9000005    1    1    2    0  502 -0.93648058340E+02  0.62276997285E+02 -0.13149615289E+02  0.41571780766E+03  0.40000000000E+03 0. -1.
<mgrwt>
<rscale>  2 0.41550979E+03</rscale>
<asrwt>0</asrwt>
<pdfrwt beam="1">  1       21 0.42795330E-01 0.41550979E+03</pdfrwt>
<pdfrwt beam="2">  1       21 0.11935613E+00 0.41550979E+03</pdfrwt>
<totfact> 0.24609318E+03</totfact>
</mgrwt>
</event>
<event>
 4    1  0.4857079E-002  0.4567994E+03  0.7818608E-02  0.1025714E+00
         21   -1    0    0  503  502  0.00000000000E+00  0.00000000000E+00  0.76837022380E+03  0.76837022380E+03  0.00000000000E+00 0. -1.
         21   -1    0    0  501  503 -0.00000000000E+00 -0.00000000000E+00 -0.30684676744E+03  0.30684676744E+03  0.00000000000E+00 0. -1.
    9000005    1    1    2  501    0 -0.88468180190E+02 -0.20208685572E+03  0.41304819550E+03  0.61585268366E+03  0.40000000000E+03 0. -1.
   -9000005    1    1    2    0  502  0.88468180190E+02  0.20208685572E+03  0.48475260855E+02  0.45936430758E+03  0.40000000000E+03 0. -1.
<mgrwt>
<rscale>  2 0.45679943E+03</rscale>
<asrwt>0</asrwt>
<pdfrwt beam="1">  1       21 0.11821080E+00 0.45679943E+03</pdfrwt>
<pdfrwt beam="2">  1       21 0.47207195E-01 0.45679943E+03</pdfrwt>
<totfact> 0.20209169E+03</totfact>
</mgrwt>
</event>
<event>
 4    1  0.4857079E-002  0.4352397E+03  0.7818608E-02  0.1032217E+00
         21   -1    0    0  503  502  0.00000000000E+00  0.00000000000E+00  0.70681266596E+03  0.70681266596E+03  0.00000000000E+00 0.  1.
         21   -1    0    0  501  503 -0.00000000000E+00 -0.00000000000E+00 -0.53656536452E+03  0.53656536452E+03  0.00000000000E+00 0. -1.
    9000005    1    1    2  501    0  0.55611477781E+02  0.16229891683E+03 -0.35469939059E+03  0.56146703603E+03  0.40000000000E+03 0. -1.
   -9000005    1    1    2    0  502 -0.55611477781E+02 -0.16229891683E+03  0.52494669203E+03  0.68191099444E+03  0.40000000000E+03 0.  1.
<mgrwt>
<rscale>  2 0.43523968E+03</rscale>
<asrwt>0</asrwt>
<pdfrwt beam="1">  1       21 0.10874041E+00 0.43523968E+03</pdfrwt>
<pdfrwt beam="2">  1       21 0.82548518E-01 0.43523968E+03</pdfrwt>
<totfact> 0.73058123E+02</totfact>
</mgrwt>
</event>
<event>
 4    1  0.4857079E-002  0.4754657E+03  0.7818608E-02  0.1020389E+00
         21   -1    0    0  501  502  0.00000000000E+00  0.00000000000E+00  0.58713236825E+03  0.58713236825E+03  0.00000000000E+00 0.  1.
         21   -1    0    0  502  503 -0.00000000000E+00 -0.00000000000E+00 -0.47802786021E+03  0.47802786021E+03  0.00000000000E+00 0.  1.
    9000005    1    1    2  501    0 -0.17465707663E+03  0.18858033140E+03  0.28944990460E+03  0.55664071274E+03  0.40000000000E+03 0.  1.
   -9000005    1    1    2    0  503  0.17465707663E+03 -0.18858033140E+03 -0.18034539657E+03  0.50851951572E+03  0.40000000000E+03 0.  1.
<mgrwt>
<rscale>  2 0.47546570E+03</rscale>
<asrwt>0</asrwt>
<pdfrwt beam="1">  1       21 0.90328056E-01 0.47546570E+03</pdfrwt>
<pdfrwt beam="2">  1       21 0.73542748E-01 0.47546570E+03</pdfrwt>
<totfact> 0.14698760E+03</totfact>
</mgrwt>
</event>
<event>
 4    1  0.4857079E-002  0.4761559E+03  0.7818608E-02  0.1020197E+00
         21   -1    0    0  503  502  0.00000000000E+00  0.00000000000E+00  0.27766651329E+03  0.27766651329E+03  0.00000000000E+00 0. -1.
         21   -1    0    0  501  503 -0.00000000000E+00 -0.00000000000E+00 -0.98482538954E+03  0.98482538954E+03  0.00000000000E+00 0.  1.
    9000005    1    1    2  501    0  0.25544736609E+03  0.38354618979E+02 -0.92634659181E+02  0.48508309981E+03  0.40000000000E+03 0. -1.
   -9000005    1    1    2    0  502 -0.25544736609E+03 -0.38354618979E+02 -0.61452421708E+03  0.77740880302E+03  0.40000000000E+03 0.  1.
<mgrwt>
<rscale>  2 0.47615589E+03</rscale>
<asrwt>0</asrwt>
<pdfrwt beam="1">  1       21 0.42717925E-01 0.47615589E+03</pdfrwt>
<pdfrwt beam="2">  1       21 0.15151160E+00 0.47615589E+03</pdfrwt>
<totfact> 0.12886571E+03</totfact>
</mgrwt>
</event>
<event>
 4    1  0.4857079E-002  0.4587421E+03  0.7818608E-02  0.1025147E+00
         21   -1    0    0  501  502  0.00000000000E+00  0.00000000000E+00  0.23151256948E+03  0.23151256948E+03  0.00000000000E+00 0. -1.
         21   -1    0    0  502  503 -0.00000000000E+00 -0.00000000000E+00 -0.93684828476E+03  0.93684828476E+03  0.00000000000E+00 0. -1.
    9000005    1    1    2  501    0 -0.20382927644E+03  0.94328970198E+02 -0.45339156544E+03  0.64498700775E+03  0.40000000000E+03 0. -1.
   -9000005    1    1    2    0  503  0.20382927644E+03 -0.94328970198E+02 -0.25194414984E+03  0.52337384649E+03  0.40000000000E+03 0. -1.
<mgrwt>
<rscale>  2 0.45874212E+03</rscale>
<asrwt>0</asrwt>
<pdfrwt beam="1">  1       21 0.35617318E-01 0.45874212E+03</pdfrwt>
<pdfrwt beam="2">  1       21 0.14413051E+00 0.45874212E+03</pdfrwt>
<totfact> 0.21578571E+03</totfact>
</mgrwt>
</event>
<event>
 4    1  0.4857079E-002  0.4371384E+03  0.7818608E-02  0.1031628E+00
         21   -1    0    0  503  502  0.00000000000E+00  0.00000000000E+00  0.88985863991E+03  0.88985863991E+03  0.00000000000E+00 0.  1.
         21   -1    0    0  501  503 -0.00000000000E+00 -0.00000000000E+00 -0.22791508415E+03  0.22791508415E+03  0.00000000000E+00 0.  1.
    9000005    1    1    2  501    0  0.68897464640E+01 -0.17618877385E+03  0.19660793328E+03  0.47931683891E+03  0.40000000000E+03 0.  1.
   -9000005    1    1    2    0  502 -0.68897464640E+01  0.17618877385E+03  0.46533562249E+03  0.63845688515E+03  0.40000000000E+03 0.  1.
<mgrwt>
<rscale>  2 0.43713837E+03</rscale>
<asrwt>0</asrwt>
<pdfrwt beam="1">  1       21 0.13690133E+00 0.43713837E+03</pdfrwt>
<pdfrwt beam="2">  1       21 0.35063859E-01 0.43713837E+03</pdfrwt>
<totfact> 0.25761149E+03</totfact>
</mgrwt>
</event>
<event>
 4    1  0.4857079E-002  0.5220616E+03  0.7818608E-02  0.1008176E+00
         21   -1    0    0  503  502  0.00000000000E+00  0.00000000000E+00  0.81703665466E+03  0.81703665466E+03  0.00000000000E+00 0.  1.
         21   -1    0    0  501  503 -0.00000000000E+00 -0.00000000000E+00 -0.62900491982E+03  0.62900491982E+03  0.00000000000E+00 0.  1.
    9000005    1    1    2  501    0 -0.24414989206E+03  0.23008502731E+03 -0.40148708213E+03  0.65858952823E+03  0.40000000000E+03 0.  1.
   -9000005    1    1    2    0  502  0.24414989206E+03 -0.23008502731E+03  0.58951881697E+03  0.78745204625E+03  0.40000000000E+03 0.  1.
<mgrwt>
<rscale>  2 0.52206158E+03</rscale>
<asrwt>0</asrwt>
<pdfrwt beam="1">  1       21 0.12569795E+00 0.52206158E+03</pdfrwt>
<pdfrwt beam="2">  1       21 0.96769988E-01 0.52206158E+03</pdfrwt>
<totfact> 0.33508238E+02</totfact>
</mgrwt>
</event>
<event>
 4    1  0.4857079E-002  0.4929166E+03  0.7818608E-02  0.1015645E+00
         21   -1    0    0  501  502  0.00000000000E+00  0.00000000000E+00  0.15740114086E+03  0.15740114086E+03  0.00000000000E+00 0. -1.
         21   -1    0    0  502  503 -0.00000000000E+00 -0.00000000000E+00 -0.18415920879E+04  0.18415920879E+04  0.00000000000E+00 0. -1.
    9000005    1    1    2  501    0  0.26043121327E+03 -0.12305422852E+03 -0.44004918951E+03  0.66076474573E+03  0.40000000000E+03 0. -1.
   -9000005    1    1    2    0  503 -0.26043121327E+03  0.12305422852E+03 -0.12441417576E+04  0.13382284831E+04  0.40000000000E+03 0. -1.
<mgrwt>
<rscale>  2 0.49291659E+03</rscale>
<asrwt>0</asrwt>
<pdfrwt beam="1">  1       21 0.24215561E-01 0.49291659E+03</pdfrwt>
<pdfrwt beam="2">  1       21 0.28332185E+00 0.49291659E+03</pdfrwt>
<totfact> 0.53799190E+02</totfact>
</mgrwt>
</event>
<event>
 4    1  0.4857079E-002  0.4210576E+03  0.7818608E-02  0.1036723E+00
         21   -1    0    0  503  502  0.00000000000E+00  0.00000000000E+00  0.11957972523E+04  0.11957972523E+04  0.00000000000E+00 0.  1.
         21   -1    0    0  501  503 -0.00000000000E+00 -0.00000000000E+00 -0.39903636809E+03  0.39903636809E+03  0.00000000000E+00 0.  1.
    9000005    1    1    2  501    0 -0.49705624691E+02 -0.12173263274E+03 -0.23377230516E+03  0.48160042947E+03  0.40000000000E+03 0.  1.
   -9000005    1    1    2    0  502  0.49705624691E+02  0.12173263274E+03  0.10305331894E+04  0.11132331910E+04  0.40000000000E+03 0.  1.
<mgrwt>
<rscale>  2 0.42105758E+03</rscale>
<asrwt>0</asrwt>
<pdfrwt beam="1">  1       21 0.18396881E+00 0.42105758E+03</pdfrwt>
<pdfrwt beam="2">  1       21 0.61390211E-01 0.42105758E+03</pdfrwt>
<totfact> 0.35150948E+02</totfact>
</mgrwt>
</event>
<event>
 4    1  0.4857079E-002  0.4294609E+03  0.7818608E-02  0.1034030E+00
         21   -1    0    0  503  502  0.00000000000E+00  0.00000000000E+00  0.61845945331E+03  0.61845945331E+03  0.00000000000E+00 0. -1.
         21   -1    0    0  501  503 -0.00000000000E+00 -0.00000000000E+00 -0.37700470046E+03  0.37700470046E+03  0.00000000000E+00 0. -1.
    9000005    1    1    2  501    0  0.36071862120E+02 -0.15210345154E+03  0.34826053853E+03  0.55292137046E+03  0.40000000000E+03 0. -1.
   -9000005    1    1    2    0  502 -0.36071862120E+02  0.15210345154E+03 -0.10680578568E+03  0.44254278331E+03  0.40000000000E+03 0. -1.
<mgrwt>
<rscale>  2 0.42946087E+03</rscale>
<asrwt>0</asrwt>
<pdfrwt beam="1">  1       21 0.95147608E-01 0.42946087E+03</pdfrwt>
<pdfrwt beam="2">  1       21 0.58000723E-01 0.42946087E+03</pdfrwt>
<totfact> 0.22410673E+03</totfact>
</mgrwt>
</event>
<event>
 4    1  0.4857079E-002  0.4702807E+03  0.7818608E-02  0.1021841E+00
         21   -1    0    0  501  502  0.00000000000E+00  0.00000000000E+00  0.39908646823E+03  0.39908646823E+03  0.00000000000E+00 0.  1.
         21   -1    0    0  502  503 -0.00000000000E+00 -0.00000000000E+00 -0.62058138151E+03  0.62058138151E+03  0.00000000000E+00 0.  1.
    9000005    1    1    2  501    0 -0.18049712510E+03 -0.16907031490E+03  0.56028062408E+02  0.47360651107E+03  0.40000000000E+03 0.  1.
   -9000005    1    1    2    0  503  0.18049712510E+03  0.16907031490E+03 -0.27752297569E+03  0.54606133866E+03  0.40000000000E+03 0.  1.
<mgrwt>
<rscale>  2 0.47028075E+03</rscale>
<asrwt>0</asrwt>
<pdfrwt beam="1">  1       21 0.61397918E-01 0.47028075E+03</pdfrwt>
<pdfrwt beam="2">  1       21 0.95474059E-01 0.47028075E+03</pdfrwt>
<totfact> 0.19324238E+03</totfact>
</mgrwt>
</event>
<event>
 4    1  0.4857079E-002  0.4999310E+03  0.7818608E-02  0.1013797E+00
         21   -1    0    0  501  502  0.00000000000E+00  0.00000000000E+00  0.13589518352E+04  0.13589518352E+04  0.00000000000E+00 0.  1.
         21   -1    0    0  502  503 -0.00000000000E+00 -0.00000000000E+00 -0.27142991676E+03  0.27142991676E+03  0.00000000000E+00 0. -1.
    9000005    1    1    2  501    0 -0.20477572545E+03 -0.21908419915E+03  0.10066454918E+04  0.11239511245E+04  0.40000000000E+03 0.  1.
   -9000005    1    1    2    0  503  0.20477572545E+03  0.21908419915E+03  0.80876426629E+02  0.50643062747E+03  0.40000000000E+03 0. -1.
<mgrwt>
<rscale>  2 0.49993098E+03</rscale>
<asrwt>0</asrwt>
<pdfrwt beam="1">  1       21 0.20906951E+00 0.49993098E+03</pdfrwt>
<pdfrwt beam="2">  1       21 0.41758450E-01 0.49993098E+03</pdfrwt>
<totfact> 0.52146580E+02</totfact>
</mgrwt>
</event>
<event>
 4    1  0.4857079E-002  0.5400123E+03  0.7818608E-02  0.1003832E+00
         21   -1    0    0  501  502  0.00000000000E+00  0.00000000000E+00  0.24014425919E+03  0.24014425919E+03  0.00000000000E+00 0. -1.
         21   -1    0    0  502  503 -0.00000000000E+00 -0.00000000000E+00 -0.12293705601E+04  0.12293705601E+04  0.00000000000E+00 0.  1.
    9000005    1    1    2  501    0 -0.46875108030E+02  0.35974440861E+03 -0.57589591603E+03  0.78947414231E+03  0.40000000000E+03 0.  1.
   -9000005    1    1    2    0  503  0.46875108030E+02 -0.35974440861E+03 -0.41333038485E+03  0.68004067696E+03  0.40000000000E+03 0.  1.
<mgrwt>
<rscale>  2 0.54001233E+03</rscale>
<asrwt>0</asrwt>
<pdfrwt beam="1">  1       21 0.36945271E-01 0.54001233E+03</pdfrwt>
<pdfrwt beam="2">  1       21 0.18913393E+00 0.54001233E+03</pdfrwt>
<totfact> 0.89936221E+02</totfact>
</mgrwt>
</event>
<event>
 4    1  0.4857079E-002  0.4369437E+03  0.7818608E-02  0.1031689E+00
         21   -1    0    0  503  502  0.00000000000E+00  0.00000000000E+00  0.13863314434E+04  0.13863314434E+04  0.00000000000E+00 0. -1.
         21   -1    0    0  501  503 -0.00000000000E+00 -0.00000000000E+00 -0.14029568956E+03  0.14029568956E+03  0.00000000000E+00 0. -1.
    9000005    1    1    2  501    0 -0.17207704575E+03 -0.36184538786E+02  0.51950935458E+03  0.67882972829E+03  0.40000000000E+03 0. -1.
   -9000005    1    1    2    0  502  0.17207704575E+03  0.36184538786E+02  0.72652639921E+03  0.84779740462E+03  0.40000000000E+03 0. -1.
<mgrwt>
<rscale>  2 0.43694374E+03</rscale>
<asrwt>0</asrwt>
<pdfrwt beam="1">  1       21 0.21328175E+00 0.43694374E+03</pdfrwt>
<pdfrwt beam="2">  1       21 0.21583953E-01 0.43694374E+03</pdfrwt>
<totfact> 0.18737475E+03</totfact>
</mgrwt>
</event>
<event>
 4    1  0.4857079E-002  0.4122274E+03  0.7818608E-02  0.1039626E+00
         21   -1    0    0  501  502  0.00000000000E+00  0.00000000000E+00  0.76124045594E+03  0.76124045594E+03  0.00000000000E+00 0.  1.
         21   -1    0    0  502  503 -0.00000000000E+00 -0.00000000000E+00 -0.24801636314E+03  0.24801636314E+03  0.00000000000E+00 0.  1.
    9000005    1    1    2  501    0 -0.68485595997E+02  0.72395753445E+02  0.41614162332E+03  0.58575188658E+03  0.40000000000E+03 0.  1.
   -9000005    1    1    2    0  503  0.68485595997E+02 -0.72395753445E+02  0.97082469482E+02  0.42350493251E+03  0.40000000000E+03 0.  1.
<mgrwt>
<rscale>  2 0.41222739E+03</rscale>
<asrwt>0</asrwt>
<pdfrwt beam="1">  1       21 0.11711392E+00 0.41222739E+03</pdfrwt>
<pdfrwt beam="2">  1       21 0.38156364E-01 0.41222739E+03</pdfrwt>
<totfact> 0.32736822E+03</totfact>
</mgrwt>
</event>
<event>
 4    1  0.4857079E-002  0.4646677E+03  0.7818608E-02  0.1023436E+00
         21   -1    0    0  503  502  0.00000000000E+00  0.00000000000E+00  0.52651517070E+03  0.52651517070E+03  0.00000000000E+00 0.  1.
         21   -1    0    0  501  503 -0.00000000000E+00 -0.00000000000E+00 -0.57559895031E+03  0.57559895031E+03  0.00000000000E+00 0.  1.
    9000005    1    1    2  501    0  0.15114482120E+03  0.18185509991E+03 -0.32003933181E+03  0.56421734132E+03  0.40000000000E+03 0.  1.
   -9000005    1    1    2    0  502 -0.15114482120E+03 -0.18185509991E+03  0.27095555220E+03  0.53789677969E+03  0.40000000000E+03 0.  1.
<mgrwt>
<rscale>  2 0.46466766E+03</rscale>
<asrwt>0</asrwt>
<pdfrwt beam="1">  1       21 0.81002334E-01 0.46466766E+03</pdfrwt>
<pdfrwt beam="2">  1       21 0.88553685E-01 0.46466766E+03</pdfrwt>
<totfact> 0.12391267E+03</totfact>
</mgrwt>
</event>
<event>
 4    1  0.4857079E-002  0.5762334E+03  0.7818608E-02  0.9955979E-01
         21   -1    0    0  503  502  0.00000000000E+00  0.00000000000E+00  0.17472178724E+03  0.17472178724E+03  0.00000000000E+00 0.  1.
         21   -1    0    0  501  503 -0.00000000000E+00 -0.00000000000E+00 -0.19053621093E+04  0.19053621093E+04  0.00000000000E+00 0. -1.
    9000005    1    1    2  501    0 -0.20264580220E+03  0.36191111679E+03 -0.91828263838E+03  0.10841069973E+04  0.40000000000E+03 0. -1.
   -9000005    1    1    2    0  502  0.20264580220E+03 -0.36191111679E+03 -0.81235768366E+03  0.99597689923E+03  0.40000000000E+03 0.  1.
<mgrwt>
<rscale>  2 0.57623344E+03</rscale>
<asrwt>0</asrwt>
<pdfrwt beam="1">  1       21 0.26880275E-01 0.57623344E+03</pdfrwt>
<pdfrwt beam="2">  1       21 0.29313263E+00 0.57623344E+03</pdfrwt>
<totfact> 0.36785814E+02</totfact>
</mgrwt>
</event>
<event>
 4    1  0.4857079E-002  0.4223990E+03  0.7818608E-02  0.1036288E+00
         21   -1    0    0  501  502  0.00000000000E+00  0.00000000000E+00  0.15549314028E+04  0.15549314028E+04  0.00000000000E+00 0.  1.
         21   -1    0    0  502  503 -0.00000000000E+00 -0.00000000000E+00 -0.24047782091E+03  0.24047782091E+03  0.00000000000E+00 0.  1.
    9000005    1    1    2  501    0 -0.36632048834E+02 -0.13068668183E+03  0.13063392208E+04  0.13729322910E+04  0.40000000000E+03 0.  1.
   -9000005    1    1    2    0  503  0.36632048834E+02  0.13068668183E+03  0.81143610521E+01  0.42247693270E+03  0.40000000000E+03 0.  1.
<mgrwt>
<rscale>  2 0.42239900E+03</rscale>
<asrwt>0</asrwt>
<pdfrwt beam="1">  1       21 0.23922021E+00 0.42239900E+03</pdfrwt>
<pdfrwt beam="2">  1       21 0.36996589E-01 0.42239900E+03</pdfrwt>
<totfact> 0.44698330E+02</totfact>
</mgrwt>
</event>
<event>
 4    1  0.4857079E-002  0.5723112E+03  0.7818608E-02  0.9964577E-01
         21   -1    0    0  503  502  0.00000000000E+00  0.00000000000E+00  0.28983861182E+03  0.28983861182E+03  0.00000000000E+00 0. -1.
         21   -1    0    0  501  503 -0.00000000000E+00 -0.00000000000E+00 -0.11611492556E+04  0.11611492556E+04  0.00000000000E+00 0. -1.
    9000005    1    1    2  501    0  0.19336177598E+03 -0.36076499590E+03 -0.31697708268E+03  0.65422827027E+03  0.40000000000E+03 0. -1.
   -9000005    1    1    2    0  502 -0.19336177598E+03  0.36076499590E+03 -0.55433356110E+03  0.79675959714E+03  0.40000000000E+03 0. -1.
<mgrwt>
<rscale>  2 0.57231124E+03</rscale>
<asrwt>0</asrwt>
<pdfrwt beam="1">  1       21 0.44590556E-01 0.57231124E+03</pdfrwt>
<pdfrwt beam="2">  1       21 0.17863834E+00 0.57231124E+03</pdfrwt>
<totfact> 0.71302405E+02</totfact>
</mgrwt>
</event>
<event>
 4    1  0.4857079E-002  0.5838797E+03  0.7818608E-02  0.9939427E-01
         21   -1    0    0  501  502  0.00000000000E+00  0.00000000000E+00  0.53351459341E+03  0.53351459341E+03  0.00000000000E+00 0. -1.
         21   -1    0    0  502  503 -0.00000000000E+00 -0.00000000000E+00 -0.92271456849E+03  0.92271456849E+03  0.00000000000E+00 0. -1.
    9000005    1    1    2  501    0  0.41833234309E+03  0.76899323385E+02  0.20914522774E+03  0.62020736976E+03  0.40000000000E+03 0. -1.
   -9000005    1    1    2    0  503 -0.41833234309E+03 -0.76899323385E+02 -0.59834520281E+03  0.83602179215E+03  0.40000000000E+03 0. -1.
<mgrwt>
<rscale>  2 0.58387966E+03</rscale>
<asrwt>0</asrwt>
<pdfrwt beam="1">  1       21 0.82079170E-01 0.58387966E+03</pdfrwt>
<pdfrwt beam="2">  1       21 0.14195609E+00 0.58387966E+03</pdfrwt>
<totfact> 0.35123907E+02</totfact>
</mgrwt>
</event>
<event>
 4    1  0.4857079E-002  0.5322631E+03  0.7818608E-02  0.1005685E+00
         21   -1    0    0  501  502  0.00000000000E+00  0.00000000000E+00  0.41809710842E+03  0.41809710842E+03  0.00000000000E+00 0. -1.
         21   -1    0    0  502  503 -0.00000000000E+00 -0.00000000000E+00 -0.68171970232E+03  0.68171970232E+03  0.00000000000E+00 0. -1.
    9000005    1    1    2  501    0  0.35080847222E+03  0.15408214450E+02 -0.17454241089E+03  0.56015091757E+03  0.40000000000E+03 0. -1.
   -9000005    1    1    2    0  503 -0.35080847222E+03 -0.15408214450E+02 -0.89080183003E+02  0.53966589317E+03  0.40000000000E+03 0. -1.
<mgrwt>
<rscale>  2 0.53226309E+03</rscale>
<asrwt>0</asrwt>
<pdfrwt beam="1">  1       21 0.64322633E-01 0.53226309E+03</pdfrwt>
<pdfrwt beam="2">  1       21 0.10487995E+00 0.53226309E+03</pdfrwt>
<totfact> 0.13569579E+03</totfact>
</mgrwt>
</event>
<event>
 4    1  0.4857079E-002  0.4430448E+03  0.7818608E-02  0.1029817E+00
         21   -1    0    0  503  502  0.00000000000E+00  0.00000000000E+00  0.19109335484E+03  0.19109335484E+03  0.00000000000E+00 0.  1.
         21   -1    0    0  501  503 -0.00000000000E+00 -0.00000000000E+00 -0.11530136392E+04  0.11530136392E+04  0.00000000000E+00 0.  1.
    9000005    1    1    2  501    0  0.11695505470E+03  0.15036679369E+03 -0.70297011911E+03  0.83093660759E+03  0.40000000000E+03 0.  1.
   -9000005    1    1    2    0  502 -0.11695505470E+03 -0.15036679369E+03 -0.25895016529E+03  0.51317038649E+03  0.40000000000E+03 0.  1.
<mgrwt>
<rscale>  2 0.44304476E+03</rscale>
<asrwt>0</asrwt>
<pdfrwt beam="1">  1       21 0.29398977E-01 0.44304476E+03</pdfrwt>
<pdfrwt beam="2">  1       21 0.17738671E+00 0.44304476E+03</pdfrwt>
<totfact> 0.17893407E+03</totfact>
</mgrwt>
</event>
<event>
 4    1  0.4857079E-002  0.6701559E+03  0.7818608E-02  0.9769676E-01
         21   -1    0    0  503  502  0.00000000000E+00  0.00000000000E+00  0.70468967252E+03  0.70468967252E+03  0.00000000000E+00 0.  1.
         21   -1    0    0  501  503 -0.00000000000E+00 -0.00000000000E+00 -0.95333921941E+03  0.95333921941E+03  0.00000000000E+00 0.  1.
    9000005    1    1    2  501    0  0.23274686294E+03 -0.48470383709E+03 -0.60163301055E+03  0.90059490965E+03  0.40000000000E+03 0.  1.
   -9000005    1    1    2    0  502 -0.23274686294E+03  0.48470383709E+03  0.35298346366E+03  0.75743398228E+03  0.40000000000E+03 0.  1.
<mgrwt>
<rscale>  2 0.67015589E+03</rscale>
<asrwt>0</asrwt>
<pdfrwt beam="1">  1       21 0.10841380E+00 0.67015589E+03</pdfrwt>
<pdfrwt beam="2">  1       21 0.14666757E+00 0.67015589E+03</pdfrwt>
<totfact> 0.15920471E+02</totfact>
</mgrwt>
</event>
<event>
 4    1  0.4857079E-002  0.5969702E+03  0.7818608E-02  0.9911712E-01
         21   -1    0    0  501  502  0.00000000000E+00  0.00000000000E+00  0.63450865209E+03  0.63450865209E+03  0.00000000000E+00 0.  1.
         21   -1    0    0  502  503 -0.00000000000E+00 -0.00000000000E+00 -0.77856083280E+03  0.77856083280E+03  0.00000000000E+00 0.  1.
    9000005    1    1    2  501    0 -0.43815816053E+03  0.66263888195E+02 -0.44495426683E+03  0.74455206406E+03  0.40000000000E+03 0.  1.
   -9000005    1    1    2    0  503  0.43815816053E+03 -0.66263888195E+02  0.30090208612E+03  0.66851742083E+03  0.40000000000E+03 0.  1.
<mgrwt>
<rscale>  2 0.59697025E+03</rscale>
<asrwt>0</asrwt>
<pdfrwt beam="1">  1       21 0.97616716E-01 0.59697025E+03</pdfrwt>
<pdfrwt beam="2">  1       21 0.11977859E+00 0.59697025E+03</pdfrwt>
<totfact> 0.36118346E+02</totfact>
</mgrwt>
</event>
<event>
 4    1  0.4857079E-002  0.4011605E+03  0.7818608E-02  0.1043379E+00
         21   -1    0    0  501  502  0.00000000000E+00  0.00000000000E+00  0.12157177191E+03  0.12157177191E+03  0.00000000000E+00 0.  1.
         21   -1    0    0  502  503 -0.00000000000E+00 -0.00000000000E+00 -0.15045968812E+04  0.15045968812E+04  0.00000000000E+00 0. -1.
    9000005    1    1    2  501    0 -0.28472192290E+02  0.10913244239E+02 -0.40961610925E+03  0.57333683084E+03  0.40000000000E+03 0.  1.
   -9000005    1    1    2    0  503  0.28472192290E+02 -0.10913244239E+02 -0.97340900007E+03  0.10528318223E+04  0.40000000000E+03 0. -1.
<mgrwt>
<rscale>  2 0.40116052E+03</rscale>
<asrwt>0</asrwt>
<pdfrwt beam="1">  1       21 0.18703350E-01 0.40116052E+03</pdfrwt>
<pdfrwt beam="2">  1       21 0.23147644E+00 0.40116052E+03</pdfrwt>
<totfact> 0.19183197E+03</totfact>
</mgrwt>
</event>
<event>
 4    1  0.4857079E-002  0.4071994E+03  0.7818608E-02  0.1041315E+00
         21   -1    0    0  501  502  0.00000000000E+00  0.00000000000E+00  0.13349327984E+04  0.13349327984E+04  0.00000000000E+00 0.  1.
         21   -1    0    0  502  503 -0.00000000000E+00 -0.00000000000E+00 -0.12610427349E+03  0.12610427349E+03  0.00000000000E+00 0.  1.
    9000005    1    1    2  501    0 -0.72978460945E+02 -0.22033045597E+02  0.51486807582E+03  0.65643007728E+03  0.40000000000E+03 0.  1.
   -9000005    1    1    2    0  503  0.72978460945E+02  0.22033045597E+02  0.69396044909E+03  0.80460699460E+03  0.40000000000E+03 0.  1.
<mgrwt>
<rscale>  2 0.40719935E+03</rscale>
<asrwt>0</asrwt>
<pdfrwt beam="1">  1       21 0.20537427E+00 0.40719935E+03</pdfrwt>
<pdfrwt beam="2">  1       21 0.19400658E-01 0.40719935E+03</pdfrwt>
<totfact> 0.26201323E+03</totfact>
</mgrwt>
</event>
<event>
 4    1  0.4857079E-002  0.4656150E+03  0.7818608E-02  0.1023165E+00
         21   -1    0    0  503  502  0.00000000000E+00  0.00000000000E+00  0.65295086581E+03  0.65295086581E+03  0.00000000000E+00 0.  1.
         21   -1    0    0  501  503 -0.00000000000E+00 -0.00000000000E+00 -0.55364992663E+03  0.55364992663E+03  0.00000000000E+00 0.  1.
    9000005    1    1    2  501    0 -0.17774071848E+03  0.15876246446E+03 -0.33205060360E+03  0.57188712739E+03  0.40000000000E+03 0.  1.
   -9000005    1    1    2    0  502  0.17774071848E+03 -0.15876246446E+03  0.43135154278E+03  0.63471366504E+03  0.40000000000E+03 0.  1.
<mgrwt>
<rscale>  2 0.46561495E+03</rscale>
<asrwt>0</asrwt>
<pdfrwt beam="1">  1       21 0.10045398E+00 0.46561495E+03</pdfrwt>
<pdfrwt beam="2">  1       21 0.85176912E-01 0.46561495E+03</pdfrwt>
<totfact> 0.81451238E+02</totfact>
</mgrwt>
</event>
<event>
 4    1  0.4857079E-002  0.4301740E+03  0.7818608E-02  0.1033805E+00
         21   -1    0    0  501  502  0.00000000000E+00  0.00000000000E+00  0.35860505567E+03  0.35860505567E+03  0.00000000000E+00 0.  1.
         21   -1    0    0  502  503 -0.00000000000E+00 -0.00000000000E+00 -0.55769398119E+03  0.55769398119E+03  0.00000000000E+00 0.  1.
    9000005    1    1    2  501    0 -0.13117119308E+03  0.88565062615E+02  0.25685642349E+02  0.43094014020E+03  0.40000000000E+03 0.  1.
   -9000005    1    1    2    0  503  0.13117119308E+03 -0.88565062615E+02 -0.22477456786E+03  0.48535889666E+03  0.40000000000E+03 0.  1.
<mgrwt>
<rscale>  2 0.43017398E+03</rscale>
<asrwt>0</asrwt>
<pdfrwt beam="1">  1       21 0.55170008E-01 0.43017398E+03</pdfrwt>
<pdfrwt beam="2">  1       21 0.85799074E-01 0.43017398E+03</pdfrwt>
<totfact> 0.31899278E+03</totfact>
</mgrwt>
</event>
<event>
 4    1  0.4857079E-002  0.4159018E+03  0.7818608E-02  0.1038408E+00
         21   -1    0    0  501  502  0.00000000000E+00  0.00000000000E+00  0.73606003377E+03  0.73606003377E+03  0.00000000000E+00 0. -1.
         21   -1    0    0  502  503 -0.00000000000E+00 -0.00000000000E+00 -0.32220179089E+03  0.32220179089E+03  0.00000000000E+00 0. -1.
    9000005    1    1    2  501    0 -0.56377850237E+02 -0.98974060195E+02  0.48220054040E+03  0.63678229228E+03  0.40000000000E+03 0.  1.
   -9000005    1    1    2    0  503  0.56377850237E+02  0.98974060195E+02 -0.68342297518E+02  0.42147953238E+03  0.40000000000E+03 0.  1.
<mgrwt>
<rscale>  2 0.41590182E+03</rscale>
<asrwt>0</asrwt>
<pdfrwt beam="1">  1       21 0.11324000E+00 0.41590182E+03</pdfrwt>
<pdfrwt beam="2">  1       21 0.49569507E-01 0.41590182E+03</pdfrwt>
<totfact> 0.20622175E+03</totfact>
</mgrwt>
</event>
<event>
 4    1  0.4857079E-002  0.5269138E+03  0.7818608E-02  0.1006983E+00
         21   -1    0    0  503  502  0.00000000000E+00  0.00000000000E+00  0.11452320840E+04  0.11452320840E+04  0.00000000000E+00 0. -1.
         21   -1    0    0  501  503 -0.00000000000E+00 -0.00000000000E+00 -0.24806293061E+03  0.24806293061E+03  0.00000000000E+00 0. -1.
    9000005    1    1    2  501    0 -0.29751540183E+03  0.17065379160E+03  0.34360238918E+03  0.62904748053E+03  0.40000000000E+03 0. -1.
   -9000005    1    1    2    0  502  0.29751540183E+03 -0.17065379160E+03  0.55356676422E+03  0.76424753409E+03  0.40000000000E+03 0. -1.
<mgrwt>
<rscale>  2 0.52691378E+03</rscale>
<asrwt>0</asrwt>
<pdfrwt beam="1">  1       21 0.17618955E+00 0.52691378E+03</pdfrwt>
<pdfrwt beam="2">  1       21 0.38163529E-01 0.52691378E+03</pdfrwt>
<totfact> 0.10430170E+03</totfact>
</mgrwt>
</event>
<event>
 4    1  0.4857079E-002  0.5073557E+03  0.7818608E-02  0.1011877E+00
         21   -1    0    0  501  502  0.00000000000E+00  0.00000000000E+00  0.10273750306E+04  0.10273750306E+04  0.00000000000E+00 0.  1.
         21   -1    0    0  502  503 -0.00000000000E+00 -0.00000000000E+00 -0.25488828421E+03  0.25488828421E+03  0.00000000000E+00 0. -1.
    9000005    1    1    2  501    0 -0.30556351219E+03  0.63567221725E+02  0.30260978698E+03  0.59074743743E+03  0.40000000000E+03 0. -1.
   -9000005    1    1    2    0  503  0.30556351219E+03 -0.63567221725E+02  0.46987695939E+03  0.69151587735E+03  0.40000000000E+03 0.  1.
<mgrwt>
<rscale>  2 0.50735574E+03</rscale>
<asrwt>0</asrwt>
<pdfrwt beam="1">  1       21 0.15805769E+00 0.50735574E+03</pdfrwt>
<pdfrwt beam="2">  1       21 0.39213583E-01 0.50735574E+03</pdfrwt>
<totfact> 0.13531169E+03</totfact>
</mgrwt>
</event>
<event>
 4    1  0.4857079E-002  0.4242188E+03  0.7818608E-02  0.1035702E+00
         21   -1    0    0  503  502  0.00000000000E+00  0.00000000000E+00  0.15667975086E+03  0.15667975086E+03  0.00000000000E+00 0. -1.
         21   -1    0    0  501  503 -0.00000000000E+00 -0.00000000000E+00 -0.19968548992E+04  0.19968548992E+04  0.00000000000E+00 0. -1.
    9000005    1    1    2  501    0 -0.13344453450E+03 -0.46412716569E+02 -0.16218871046E+04  0.16764484376E+04  0.40000000000E+03 0. -1.
   -9000005    1    1    2    0  502  0.13344453450E+03  0.46412716569E+02 -0.21828804378E+03  0.47708621244E+03  0.40000000000E+03 0. -1.
<mgrwt>
<rscale>  2 0.42421879E+03</rscale>
<asrwt>0</asrwt>
<pdfrwt beam="1">  1       21 0.24104580E-01 0.42421879E+03</pdfrwt>
<pdfrwt beam="2">  1       21 0.30720841E+00 0.42421879E+03</pdfrwt>
<totfact> 0.40513620E+02</totfact>
</mgrwt>
</event>
<event>
 4    1  0.4857079E-002  0.4559055E+03  0.7818608E-02  0.1025975E+00
         21   -1    0    0  503  502  0.00000000000E+00  0.00000000000E+00  0.11648959112E+04  0.11648959112E+04  0.00000000000E+00 0.  1.
         21   -1    0    0  501  503 -0.00000000000E+00 -0.00000000000E+00 -0.31712314686E+03  0.31712314686E+03  0.00000000000E+00 0.  1.
    9000005    1    1    2  501    0 -0.18080290949E+03  0.12312633940E+03 -0.66164080555E+02  0.46068153109E+03  0.40000000000E+03 0.  1.
   -9000005    1    1    2    0  502  0.18080290949E+03 -0.12312633940E+03  0.91393684490E+03  0.10213375270E+04  0.40000000000E+03 0.  1.
<mgrwt>
<rscale>  2 0.45590546E+03</rscale>
<asrwt>0</asrwt>
<pdfrwt beam="1">  1       21 0.17921475E+00 0.45590546E+03</pdfrwt>
<pdfrwt beam="2">  1       21 0.48788177E-01 0.45590546E+03</pdfrwt>
<totfact> 0.61231905E+02</totfact>
</mgrwt>
</event>
<event>
 4    1  0.4857079E-002  0.4583268E+03  0.7818608E-02  0.1025268E+00
         21   -1    0    0  501  502  0.00000000000E+00  0.00000000000E+00  0.76715571628E+03  0.76715571628E+03  0.00000000000E+00 0.  1.
         21   -1    0    0  502  503 -0.00000000000E+00 -0.00000000000E+00 -0.30722350776E+03  0.30722350776E+03  0.00000000000E+00 0.  1.
    9000005    1    1    2  501    0  0.14456399214E+03  0.17077664501E+03  0.52837226615E+02  0.46136231188E+03  0.40000000000E+03 0.  1.
   -9000005    1    1    2    0  503 -0.14456399214E+03 -0.17077664501E+03  0.40709498190E+03  0.61301691216E+03  0.40000000000E+03 0.  1.
<mgrwt>
<rscale>  2 0.45832675E+03</rscale>
<asrwt>0</asrwt>
<pdfrwt beam="1">  1       21 0.11802396E+00 0.45832675E+03</pdfrwt>
<pdfrwt beam="2">  1       21 0.47265155E-01 0.45832675E+03</pdfrwt>
<totfact> 0.20225637E+03</totfact>
</mgrwt>
</event>
<event>
 4    1  0.4857079E-002  0.4358466E+03  0.7818608E-02  0.1032029E+00
         21   -1    0    0  503  502  0.00000000000E+00  0.00000000000E+00  0.24393545745E+03  0.24393545745E+03  0.00000000000E+00 0. -1.
         21   -1    0    0  501  503 -0.00000000000E+00 -0.00000000000E+00 -0.79218548591E+03  0.79218548591E+03  0.00000000000E+00 0. -1.
    9000005    1    1    2  501    0 -0.72580743079E+02 -0.15714415289E+03 -0.34161798064E+03  0.55377350401E+03  0.40000000000E+03 0. -1.
   -9000005    1    1    2    0  502  0.72580743079E+02  0.15714415289E+03 -0.20663204782E+03  0.48234743934E+03  0.40000000000E+03 0. -1.
<mgrwt>
<rscale>  2 0.43584659E+03</rscale>
<asrwt>0</asrwt>
<pdfrwt beam="1">  1       21 0.37528532E-01 0.43584659E+03</pdfrwt>
<pdfrwt beam="2">  1       21 0.12187469E+00 0.43584659E+03</pdfrwt>
<totfact> 0.30336878E+03</totfact>
</mgrwt>
</event>
<event>
 4    1  0.4857079E-002  0.4280849E+03  0.7818608E-02  0.1034467E+00
         21   -1    0    0  501  502  0.00000000000E+00  0.00000000000E+00  0.91011789923E+03  0.91011789923E+03  0.00000000000E+00 0.  1.
         21   -1    0    0  502  503 -0.00000000000E+00 -0.00000000000E+00 -0.46376804740E+03  0.46376804740E+03  0.00000000000E+00 0. -1.
    9000005    1    1    2  501    0 -0.26610720226E+02  0.15016186514E+03  0.73990418427E+03  0.85481864631E+03  0.40000000000E+03 0.  1.
   -9000005    1    1    2    0  503  0.26610720226E+02 -0.15016186514E+03 -0.29355433244E+03  0.51906730033E+03  0.40000000000E+03 0. -1.
<mgrwt>
<rscale>  2 0.42808494E+03</rscale>
<asrwt>0</asrwt>
<pdfrwt beam="1">  1       21 0.14001814E+00 0.42808494E+03</pdfrwt>
<pdfrwt beam="2">  1       21 0.71348931E-01 0.42808494E+03</pdfrwt>
<totfact> 0.53628061E+02</totfact>
</mgrwt>
</event>
<event>
 4    1  0.4857079E-002  0.4000365E+03  0.7818608E-02  0.1043767E+00
         21   -1    0    0  503  502  0.00000000000E+00  0.00000000000E+00  0.84407819086E+02  0.84407819086E+02  0.00000000000E+00 0. -1.
         21   -1    0    0  501  503 -0.00000000000E+00 -0.00000000000E+00 -0.24607314934E+04  0.24607314934E+04  0.00000000000E+00 0. -1.
    9000005    1    1    2  501    0  0.53390808494E+01  0.84773238090E+00 -0.17978487832E+04  0.18418168942E+04  0.40000000000E+03 0. -1.
   -9000005    1    1    2    0  502 -0.53390808494E+01 -0.84773238090E+00 -0.57847489108E+03  0.70332241827E+03  0.40000000000E+03 0. -1.
<mgrwt>
<rscale>  2 0.40003653E+03</rscale>
<asrwt>0</asrwt>
<pdfrwt beam="1">  1       21 0.12985819E-01 0.40003653E+03</pdfrwt>
<pdfrwt beam="2">  1       21 0.37857405E+00 0.40003653E+03</pdfrwt>
<totfact> 0.48339528E+02</totfact>
</mgrwt>
</event>
<event>
 4    1  0.4857079E-002  0.4623713E+03  0.7818608E-02  0.1024096E+00
         21   -1    0    0  503  502  0.00000000000E+00  0.00000000000E+00  0.23814397075E+04  0.23814397075E+04  0.00000000000E+00 0.  1.
         21   -1    0    0  501  503 -0.00000000000E+00 -0.00000000000E+00 -0.12897460300E+03  0.12897460300E+03  0.00000000000E+00 0.  1.
    9000005    1    1    2  501    0 -0.66700043895E+02 -0.22212231768E+03  0.43421146337E+03  0.63429237327E+03  0.40000000000E+03 0.  1.
   -9000005    1    1    2    0  502  0.66700043895E+02  0.22212231768E+03  0.18182536411E+04  0.18761219372E+04  0.40000000000E+03 0.  1.
<mgrwt>
<rscale>  2 0.46237130E+03</rscale>
<asrwt>0</asrwt>
<pdfrwt beam="1">  1       21 0.36637531E+00 0.46237130E+03</pdfrwt>
<pdfrwt beam="2">  1       21 0.19842248E-01 0.46237130E+03</pdfrwt>
<totfact> 0.25066571E+02</totfact>
</mgrwt>
</event>
<event>
 4    1  0.4857079E-002  0.4551581E+03  0.7818608E-02  0.1026195E+00
         21   -1    0    0  501  502  0.00000000000E+00  0.00000000000E+00  0.88020733618E+03  0.88020733618E+03  0.00000000000E+00 0.  1.
         21   -1    0    0  502  503 -0.00000000000E+00 -0.00000000000E+00 -0.23708723273E+03  0.23708723273E+03  0.00000000000E+00 0.  1.
    9000005    1    1    2  501    0 -0.98270491999E+02 -0.19367972060E+03  0.36919038179E+03  0.58606353049E+03  0.40000000000E+03 0.  1.
   -9000005    1    1    2    0  503  0.98270491999E+02  0.19367972060E+03  0.27392972167E+03  0.53123103842E+03  0.40000000000E+03 0.  1.
<mgrwt>
<rscale>  2 0.45515813E+03</rscale>
<asrwt>0</asrwt>
<pdfrwt beam="1">  1       21 0.13541651E+00 0.45515813E+03</pdfrwt>
<pdfrwt beam="2">  1       21 0.36474959E-01 0.45515813E+03</pdfrwt>
<totfact> 0.24301884E+03</totfact>
</mgrwt>
</event>
<event>
 4    1  0.4857079E-002  0.4704355E+03  0.7818608E-02  0.1021797E+00
         21   -1    0    0  501  502  0.00000000000E+00  0.00000000000E+00  0.39889413931E+03  0.39889413931E+03  0.00000000000E+00 0.  1.
         21   -1    0    0  502  503 -0.00000000000E+00 -0.00000000000E+00 -0.67585382806E+03  0.67585382806E+03  0.00000000000E+00 0. -1.
    9000005    1    1    2  501    0  0.10979274196E+03 -0.22193491618E+03  0.88938576331E+02  0.47876886236E+03  0.40000000000E+03 0.  1.
   -9000005    1    1    2    0  503 -0.10979274196E+03  0.22193491618E+03 -0.36589826508E+03  0.59597910500E+03  0.40000000000E+03 0. -1.
<mgrwt>
<rscale>  2 0.47043549E+03</rscale>
<asrwt>0</asrwt>
<pdfrwt beam="1">  1       21 0.61368330E-01 0.47043549E+03</pdfrwt>
<pdfrwt beam="2">  1       21 0.10397751E+00 0.47043549E+03</pdfrwt>
<totfact> 0.15720337E+03</totfact>
</mgrwt>
</event>
<event>
 4    1  0.4857079E-002  0.4392502E+03  0.7818608E-02  0.1030977E+00
         21   -1    0    0  501  502  0.00000000000E+00  0.00000000000E+00  0.52250672680E+03  0.52250672680E+03  0.00000000000E+00 0.  1.
         21   -1    0    0  502  503 -0.00000000000E+00 -0.00000000000E+00 -0.41125937160E+03  0.41125937160E+03  0.00000000000E+00 0.  1.
    9000005    1    1    2  501    0 -0.17134395170E+03  0.59849742152E+02 -0.93577590562E+02  0.44910745582E+03  0.40000000000E+03 0.  1.
   -9000005    1    1    2    0  503  0.17134395170E+03 -0.59849742152E+02  0.20482494577E+03  0.48465864258E+03  0.40000000000E+03 0.  1.
<mgrwt>
<rscale>  2 0.43925020E+03</rscale>
<asrwt>0</asrwt>
<pdfrwt beam="1">  1       21 0.80385651E-01 0.43925020E+03</pdfrwt>
<pdfrwt beam="2">  1       21 0.63270672E-01 0.43925020E+03</pdfrwt>
<totfact> 0.27429951E+03</totfact>
</mgrwt>
</event>
<event>
 4    1  0.4857079E-002  0.4925993E+03  0.7818608E-02  0.1015729E+00
         21   -1    0    0  503  502  0.00000000000E+00  0.00000000000E+00  0.13393738786E+04  0.13393738786E+04  0.00000000000E+00 0. -1.
         21   -1    0    0  501  503 -0.00000000000E+00 -0.00000000000E+00 -0.18167497904E+03  0.18167497904E+03  0.00000000000E+00 0. -1.
    9000005    1    1    2  501    0  0.22259875066E+03 -0.18194473696E+03  0.53874520082E+03  0.73000033049E+03  0.40000000000E+03 0. -1.
   -9000005    1    1    2    0  502 -0.22259875066E+03  0.18194473696E+03  0.61895369871E+03  0.79104852711E+03  0.40000000000E+03 0. -1.
<mgrwt>
<rscale>  2 0.49259932E+03</rscale>
<asrwt>0</asrwt>
<pdfrwt beam="1">  1       21 0.20605751E+00 0.49259932E+03</pdfrwt>
<pdfrwt beam="2">  1       21 0.27949998E-01 0.49259932E+03</pdfrwt>
<totfact> 0.12335717E+03</totfact>
</mgrwt>
</event>
<event>
 4    1  0.4857079E-002  0.4750318E+03  0.7818608E-02  0.1020510E+00
         21   -1    0    0  503  502  0.00000000000E+00  0.00000000000E+00  0.26726948272E+03  0.26726948272E+03  0.00000000000E+00 0.  1.
         21   -1    0    0  501  503 -0.00000000000E+00 -0.00000000000E+00 -0.18870992385E+04  0.18870992385E+04  0.00000000000E+00 0.  1.
    9000005    1    1    2  501    0 -0.46170984032E+02  0.25203867200E+03 -0.16106581758E+04  0.16792483471E+04  0.40000000000E+03 0.  1.
   -9000005    1    1    2    0  502  0.46170984032E+02 -0.25203867200E+03 -0.91715798869E+01  0.47512037404E+03  0.40000000000E+03 0.  1.
<mgrwt>
<rscale>  2 0.47503184E+03</rscale>
<asrwt>0</asrwt>
<pdfrwt beam="1">  1       21 0.41118381E-01 0.47503184E+03</pdfrwt>
<pdfrwt beam="2">  1       21 0.29032297E+00 0.47503184E+03</pdfrwt>
<totfact> 0.17066465E+02</totfact>
</mgrwt>
</event>
<event>
 4    1  0.4857079E-002  0.4281917E+03  0.7818608E-02  0.1034433E+00
         21   -1    0    0  501  502  0.00000000000E+00  0.00000000000E+00  0.32339485147E+03  0.32339485147E+03  0.00000000000E+00 0.  1.
         21   -1    0    0  502  503 -0.00000000000E+00 -0.00000000000E+00 -0.85221804173E+03  0.85221804173E+03  0.00000000000E+00 0.  1.
    9000005    1    1    2  501    0  0.79253767559E+01  0.15259516463E+03 -0.60449621458E+03  0.74078591327E+03  0.40000000000E+03 0.  1.
   -9000005    1    1    2    0  503 -0.79253767559E+01 -0.15259516463E+03  0.75673024313E+02  0.43482697993E+03  0.40000000000E+03 0.  1.
<mgrwt>
<rscale>  2 0.42819166E+03</rscale>
<asrwt>0</asrwt>
<pdfrwt beam="1">  1       21 0.49753056E-01 0.42819166E+03</pdfrwt>
<pdfrwt beam="2">  1       21 0.13111046E+00 0.42819166E+03</pdfrwt>
<totfact> 0.14019906E+03</totfact>
</mgrwt>
</event>
<event>
 4    1  0.4857079E-002  0.4750659E+03  0.7818608E-02  0.1020500E+00
         21   -1    0    0  503  502  0.00000000000E+00  0.00000000000E+00  0.55582519288E+03  0.55582519288E+03  0.00000000000E+00 0.  1.
         21   -1    0    0  501  503 -0.00000000000E+00 -0.00000000000E+00 -0.59617022152E+03  0.59617022152E+03  0.00000000000E+00 0.  1.
    9000005    1    1    2  501    0  0.19740554932E+03 -0.16345857325E+03 -0.34545477601E+03  0.58738969887E+03  0.40000000000E+03 0.  1.
   -9000005    1    1    2    0  502 -0.19740554932E+03  0.16345857325E+03  0.30510974737E+03  0.56460571553E+03  0.40000000000E+03 0.  1.
<mgrwt>
<rscale>  2 0.47506595E+03</rscale>
<asrwt>0</asrwt>
<pdfrwt beam="1">  1       21 0.85511568E-01 0.47506595E+03</pdfrwt>
<pdfrwt beam="2">  1       21 0.91718496E-01 0.47506595E+03</pdfrwt>
<totfact> 0.10007332E+03</totfact>
</mgrwt>
</event>
<event>
 4    1  0.4857079E-002  0.4641243E+03  0.7818608E-02  0.1023592E+00
         21   -1    0    0  503  502  0.00000000000E+00  0.00000000000E+00  0.40013119531E+03  0.40013119531E+03  0.00000000000E+00 0.  1.
         21   -1    0    0  501  503 -0.00000000000E+00 -0.00000000000E+00 -0.54347631576E+03  0.54347631576E+03  0.00000000000E+00 0.  1.
    9000005    1    1    2  501    0 -0.22823001534E+03 -0.57640248137E+02 -0.11748660928E+03  0.47876345043E+03  0.40000000000E+03 0.  1.
   -9000005    1    1    2    0  502  0.22823001534E+03  0.57640248137E+02 -0.25858511166E+02  0.46484406063E+03  0.40000000000E+03 0.  1.
<mgrwt>
<rscale>  2 0.46412427E+03</rscale>
<asrwt>0</asrwt>
<pdfrwt beam="1">  1       21 0.61558645E-01 0.46412427E+03</pdfrwt>
<pdfrwt beam="2">  1       21 0.83611741E-01 0.46412427E+03</pdfrwt>
<totfact> 0.26360846E+03</totfact>
</mgrwt>
</event>
<event>
 4    1  0.4857079E-002  0.6292489E+03  0.7818608E-02  0.9846516E-01
         21   -1    0    0  503  502  0.00000000000E+00  0.00000000000E+00  0.33914444953E+03  0.33914444953E+03  0.00000000000E+00 0.  1.
         21   -1    0    0  501  503 -0.00000000000E+00 -0.00000000000E+00 -0.13408021612E+04  0.13408021612E+04  0.00000000000E+00 0.  1.
    9000005    1    1    2  501    0 -0.33499071878E+03 -0.35176041852E+03 -0.80280590172E+03  0.10200252397E+04  0.40000000000E+03 0.  1.
   -9000005    1    1    2    0  502  0.33499071878E+03  0.35176041852E+03 -0.19885180998E+03  0.65992137110E+03  0.40000000000E+03 0.  1.
<mgrwt>
<rscale>  2 0.62924890E+03</rscale>
<asrwt>0</asrwt>
<pdfrwt beam="1">  1       21 0.52176070E-01 0.62924890E+03</pdfrwt>
<pdfrwt beam="2">  1       21 0.20627725E+00 0.62924890E+03</pdfrwt>
<totfact> 0.32265238E+02</totfact>
</mgrwt>
</event>
<event>
 4    1  0.4857079E-002  0.4375587E+03  0.7818608E-02  0.1031498E+00
         21   -1    0    0  503  502  0.00000000000E+00  0.00000000000E+00  0.22479768149E+03  0.22479768149E+03  0.00000000000E+00 0.  1.
         21   -1    0    0  501  503 -0.00000000000E+00 -0.00000000000E+00 -0.12848493904E+04  0.12848493904E+04  0.00000000000E+00 0. -1.
    9000005    1    1    2  501    0  0.14879851503E+03  0.96522558431E+02 -0.96829806661E+03  0.10625717614E+04  0.40000000000E+03 0. -1.
   -9000005    1    1    2    0  502 -0.14879851503E+03 -0.96522558431E+02 -0.91753642295E+02  0.44707531047E+03  0.40000000000E+03 0.  1.
<mgrwt>
<rscale>  2 0.43755868E+03</rscale>
<asrwt>0</asrwt>
<pdfrwt beam="1">  1       21 0.34584259E-01 0.43755868E+03</pdfrwt>
<pdfrwt beam="2">  1       21 0.19766914E+00 0.43755868E+03</pdfrwt>
<totfact> 0.93946664E+02</totfact>
</mgrwt>
</event>
<event>
 4    1  0.4857079E-002  0.4050192E+03  0.7818608E-02  0.1042055E+00
         21   -1    0    0  503  502  0.00000000000E+00  0.00000000000E+00  0.17392780504E+03  0.17392780504E+03  0.00000000000E+00 0. -1.
         21   -1    0    0  501  503 -0.00000000000E+00 -0.00000000000E+00 -0.96712862804E+03  0.96712862804E+03  0.00000000000E+00 0. -1.
    9000005    1    1    2  501    0  0.77789765851E+01 -0.63087865934E+02 -0.48642947459E+03  0.63297253104E+03  0.40000000000E+03 0.  1.
   -9000005    1    1    2    0  502 -0.77789765851E+01  0.63087865934E+02 -0.30677134841E+03  0.50808390204E+03  0.40000000000E+03 0.  1.
<mgrwt>
<rscale>  2 0.40501925E+03</rscale>
<asrwt>0</asrwt>
<pdfrwt beam="1">  1       21 0.26758124E-01 0.40501925E+03</pdfrwt>
<pdfrwt beam="2">  1       21 0.14878902E+00 0.40501925E+03</pdfrwt>
<totfact> 0.35766910E+03</totfact>
</mgrwt>
</event>
<event>
 4    1  0.4857079E-002  0.4348987E+03  0.7818608E-02  0.1032324E+00
         21   -1    0    0  501  502  0.00000000000E+00  0.00000000000E+00  0.34559098162E+03  0.34559098162E+03  0.00000000000E+00 0. -1.
         21   -1    0    0  502  503 -0.00000000000E+00 -0.00000000000E+00 -0.70348083871E+03  0.70348083871E+03  0.00000000000E+00 0.  1.
    9000005    1    1    2  501    0  0.16602581856E+03  0.39652422807E+02 -0.42610784404E+03  0.60885530450E+03  0.40000000000E+03 0.  1.
   -9000005    1    1    2    0  503 -0.16602581856E+03 -0.39652422807E+02  0.68217986947E+02  0.44021651583E+03  0.40000000000E+03 0. -1.
<mgrwt>
<rscale>  2 0.43489871E+03</rscale>
<asrwt>0</asrwt>
<pdfrwt beam="1">  1       21 0.53167844E-01 0.43489871E+03</pdfrwt>
<pdfrwt beam="2">  1       21 0.10822782E+00 0.43489871E+03</pdfrwt>
<totfact> 0.19718451E+03</totfact>
</mgrwt>
</event>
<event>
 4    1  0.4857079E-002  0.4557651E+03  0.7818608E-02  0.1026017E+00
         21   -1    0    0  503  502  0.00000000000E+00  0.00000000000E+00  0.83162033957E+03  0.83162033957E+03  0.00000000000E+00 0. -1.
         21   -1    0    0  501  503 -0.00000000000E+00 -0.00000000000E+00 -0.56273616405E+03  0.56273616405E+03  0.00000000000E+00 0. -1.
    9000005    1    1    2  501    0  0.16565574600E+03  0.14240794528E+03 -0.38547417971E+03  0.59691891601E+03  0.40000000000E+03 0. -1.
   -9000005    1    1    2    0  502 -0.16565574600E+03 -0.14240794528E+03  0.65435835524E+03  0.79743758761E+03  0.40000000000E+03 0. -1.
<mgrwt>
<rscale>  2 0.45576512E+03</rscale>
<asrwt>0</asrwt>
<pdfrwt beam="1">  1       21 0.12794159E+00 0.45576512E+03</pdfrwt>
<pdfrwt beam="2">  1       21 0.86574795E-01 0.45576512E+03</pdfrwt>
<totfact> 0.42941884E+02</totfact>
</mgrwt>
</event>
<event>
 4    1  0.4857079E-002  0.4463579E+03  0.7818608E-02  0.1028814E+00
         21   -1    0    0  501  502  0.00000000000E+00  0.00000000000E+00  0.19749463966E+04  0.19749463966E+04  0.00000000000E+00 0.  1.
         21   -1    0    0  502  503 -0.00000000000E+00 -0.00000000000E+00 -0.10263989118E+03  0.10263989118E+03  0.00000000000E+00 0.  1.
    9000005    1    1    2  501    0 -0.17746014065E+03 -0.87995923702E+02  0.10721220987E+04  0.11613273349E+04  0.40000000000E+03 0.  1.
   -9000005    1    1    2    0  503  0.17746014065E+03  0.87995923702E+02  0.80018440669E+03  0.91625895292E+03  0.40000000000E+03 0.  1.
<mgrwt>
<rscale>  2 0.44635791E+03</rscale>
<asrwt>0</asrwt>
<pdfrwt beam="1">  1       21 0.30383788E+00 0.44635791E+03</pdfrwt>
<pdfrwt beam="2">  1       21 0.15790754E-01 0.44635791E+03</pdfrwt>
<totfact> 0.93525528E+02</totfact>
</mgrwt>
</event>
<event>
 4    1  0.4857079E-002  0.4262349E+03  0.7818608E-02  0.1035056E+00
         21   -1    0    0  501  502  0.00000000000E+00  0.00000000000E+00  0.30076658129E+03  0.30076658129E+03  0.00000000000E+00 0.  1.
         21   -1    0    0  502  503 -0.00000000000E+00 -0.00000000000E+00 -0.60816911488E+03  0.60816911488E+03  0.00000000000E+00 0.  1.
    9000005    1    1    2  501    0  0.12879380120E+03 -0.71332793727E+02 -0.11627162399E+03  0.44180912308E+03  0.40000000000E+03 0.  1.
   -9000005    1    1    2    0  503 -0.12879380120E+03  0.71332793727E+02 -0.19113090960E+03  0.46712657310E+03  0.40000000000E+03 0.  1.
<mgrwt>
<rscale>  2 0.42623492E+03</rscale>
<asrwt>0</asrwt>
<pdfrwt beam="1">  1       21 0.46271783E-01 0.42623492E+03</pdfrwt>
<pdfrwt beam="2">  1       21 0.93564477E-01 0.42623492E+03</pdfrwt>
<totfact> 0.37850281E+03</totfact>
</mgrwt>
</event>
<event>
 4    1  0.4857079E-002  0.4605877E+03  0.7818608E-02  0.1024611E+00
         21   -1    0    0  503  502  0.00000000000E+00  0.00000000000E+00  0.35153441360E+03  0.35153441360E+03  0.00000000000E+00 0. -1.
         21   -1    0    0  501  503 -0.00000000000E+00 -0.00000000000E+00 -0.23502677924E+04  0.23502677924E+04  0.00000000000E+00 0. -1.
    9000005    1    1    2  501    0 -0.16673312557E+03 -0.15601646108E+03 -0.21639913641E+04  0.22124646201E+04  0.40000000000E+03 0. -1.
   -9000005    1    1    2    0  502  0.16673312557E+03  0.15601646108E+03  0.16525798529E+03  0.48933758592E+03  0.40000000000E+03 0. -1.
<mgrwt>
<rscale>  2 0.46058775E+03</rscale>
<asrwt>0</asrwt>
<pdfrwt beam="1">  1       21 0.54082220E-01 0.46058775E+03</pdfrwt>
<pdfrwt beam="2">  1       21 0.36157964E+00 0.46058775E+03</pdfrwt>
<totfact> 0.35631024E+01</totfact>
</mgrwt>
</event>
<event>
 4    1  0.4857079E-002  0.4107751E+03  0.7818608E-02  0.1040111E+00
         21   -1    0    0  503  502  0.00000000000E+00  0.00000000000E+00  0.21467857224E+04  0.21467857224E+04  0.00000000000E+00 0.  1.
         21   -1    0    0  501  503 -0.00000000000E+00 -0.00000000000E+00 -0.85879456376E+02  0.85879456376E+02  0.00000000000E+00 0.  1.
    9000005    1    1    2  501    0 -0.91414365234E+02  0.19483904514E+02  0.70542990441E+03  0.81631339493E+03  0.40000000000E+03 0.  1.
   -9000005    1    1    2    0  502  0.91414365234E+02 -0.19483904514E+02  0.13554763616E+04  0.14163517838E+04  0.40000000000E+03 0.  1.
<mgrwt>
<rscale>  2 0.41077513E+03</rscale>
<asrwt>0</asrwt>
<pdfrwt beam="1">  1       21 0.33027469E+00 0.41077513E+03</pdfrwt>
<pdfrwt beam="2">  1       21 0.13212226E-01 0.41077513E+03</pdfrwt>
<totfact> 0.91991935E+02</totfact>
</mgrwt>
</event>
<event>
 4    1  0.4857079E-002  0.4548226E+03  0.7818608E-02  0.1026294E+00
         21   -1    0    0  503  502  0.00000000000E+00  0.00000000000E+00  0.21809607417E+03  0.21809607417E+03  0.00000000000E+00 0.  1.
         21   -1    0    0  501  503 -0.00000000000E+00 -0.00000000000E+00 -0.98787350890E+03  0.98787350890E+03  0.00000000000E+00 0.  1.
    9000005    1    1    2  501    0 -0.16902145075E+03 -0.13526023455E+03 -0.50527347893E+03  0.67982708858E+03  0.40000000000E+03 0.  1.
   -9000005    1    1    2    0  502  0.16902145075E+03  0.13526023455E+03 -0.26450395581E+03  0.52614249448E+03  0.40000000000E+03 0.  1.
<mgrwt>
<rscale>  2 0.45482258E+03</rscale>
<asrwt>0</asrwt>
<pdfrwt beam="1">  1       21 0.33553242E-01 0.45482258E+03</pdfrwt>
<pdfrwt beam="2">  1       21 0.15198054E+00 0.45482258E+03</pdfrwt>
<totfact> 0.21123442E+03</totfact>
</mgrwt>
</event>
<event>
 4    1  0.4857079E-002  0.4237974E+03  0.7818608E-02  0.1035837E+00
         21   -1    0    0  503  502  0.00000000000E+00  0.00000000000E+00  0.46921496137E+03  0.46921496137E+03  0.00000000000E+00 0.  1.
         21   -1    0    0  501  503 -0.00000000000E+00 -0.00000000000E+00 -0.40648545485E+03  0.40648545485E+03  0.00000000000E+00 0.  1.
    9000005    1    1    2  501    0  0.13178175884E+03  0.47305102194E+02 -0.74381321941E+02  0.43027524413E+03  0.40000000000E+03 0.  1.
   -9000005    1    1    2    0  502 -0.13178175884E+03 -0.47305102194E+02  0.13711082845E+03  0.44542517209E+03  0.40000000000E+03 0.  1.
<mgrwt>
<rscale>  2 0.42379736E+03</rscale>
<asrwt>0</asrwt>
<pdfrwt beam="1">  1       21 0.72186917E-01 0.42379736E+03</pdfrwt>
<pdfrwt beam="2">  1       21 0.62536224E-01 0.42379736E+03</pdfrwt>
<totfact> 0.36196886E+03</totfact>
</mgrwt>
</event>
<event>
 4    1  0.4857079E-002  0.4177829E+03  0.7818608E-02  0.1037790E+00
         21   -1    0    0  503  502  0.00000000000E+00  0.00000000000E+00  0.65421622504E+03  0.65421622504E+03  0.00000000000E+00 0.  1.
         21   -1    0    0  501  503 -0.00000000000E+00 -0.00000000000E+00 -0.31278361085E+03  0.31278361085E+03  0.00000000000E+00 0.  1.
    9000005    1    1    2  501    0  0.10951022390E+03  0.50498080631E+02 -0.14676491944E+02  0.41804060174E+03  0.40000000000E+03 0.  1.
   -9000005    1    1    2    0  502 -0.10951022390E+03 -0.50498080631E+02  0.35610910614E+03  0.54895923415E+03  0.40000000000E+03 0.  1.
<mgrwt>
<rscale>  2 0.41778289E+03</rscale>
<asrwt>0</asrwt>
<pdfrwt beam="1">  1       21 0.10064865E+00 0.41778289E+03</pdfrwt>
<pdfrwt beam="2">  1       21 0.48120556E-01 0.41778289E+03</pdfrwt>
<totfact> 0.29333080E+03</totfact>
</mgrwt>
</event>
<event>
 4    1  0.4857079E-002  0.6549291E+03  0.7818608E-02  0.9797574E-01
         21   -1    0    0  501  502  0.00000000000E+00  0.00000000000E+00  0.80120177043E+03  0.80120177043E+03  0.00000000000E+00 0.  1.
         21   -1    0    0  502  503 -0.00000000000E+00 -0.00000000000E+00 -0.71538403235E+03  0.71538403235E+03  0.00000000000E+00 0.  1.
    9000005    1    1    2  501    0  0.51836850144E+03  0.15039849206E+02  0.42330100252E+03  0.77981782429E+03  0.40000000000E+03 0.  1.
   -9000005    1    1    2    0  503 -0.51836850144E+03 -0.15039849206E+02 -0.33748326444E+03  0.73676797848E+03  0.40000000000E+03 0.  1.
<mgrwt>
<rscale>  2 0.65492908E+03</rscale>
<asrwt>0</asrwt>
<pdfrwt beam="1">  1       21 0.12326181E+00 0.65492908E+03</pdfrwt>
<pdfrwt beam="2">  1       21 0.11005908E+00 0.65492908E+03</pdfrwt>
<totfact> 0.24453820E+02</totfact>
</mgrwt>
</event>
<event>
 4    1  0.4857079E-002  0.4181215E+03  0.7818608E-02  0.1037679E+00
         21   -1    0    0  503  502  0.00000000000E+00  0.00000000000E+00  0.46271984429E+03  0.46271984429E+03  0.00000000000E+00 0. -1.
         21   -1    0    0  501  503 -0.00000000000E+00 -0.00000000000E+00 -0.55338547048E+03  0.55338547048E+03  0.00000000000E+00 0. -1.
    9000005    1    1    2  501    0  0.12060535533E+03  0.16730881737E+02 -0.33149507844E+03  0.53358650767E+03  0.40000000000E+03 0. -1.
   -9000005    1    1    2    0  502 -0.12060535533E+03 -0.16730881737E+02  0.24082945224E+03  0.48251880710E+03  0.40000000000E+03 0. -1.
<mgrwt>
<rscale>  2 0.41812148E+03</rscale>
<asrwt>0</asrwt>
<pdfrwt beam="1">  1       21 0.71187669E-01 0.41812148E+03</pdfrwt>
<pdfrwt beam="2">  1       21 0.85136225E-01 0.41812148E+03</pdfrwt>
<totfact> 0.18600161E+03</totfact>
</mgrwt>
</event>
<event>
 4    1  0.4857079E-002  0.4461961E+03  0.7818608E-02  0.1028862E+00
         21   -1    0    0  503  502  0.00000000000E+00  0.00000000000E+00  0.79075218075E+03  0.79075218075E+03  0.00000000000E+00 0.  1.
         21   -1    0    0  501  503 -0.00000000000E+00 -0.00000000000E+00 -0.41699932787E+03  0.41699932787E+03  0.00000000000E+00 0.  1.
    9000005    1    1    2  501    0 -0.88525957751E+02  0.17678839490E+03 -0.19324118387E+03  0.48624390681E+03  0.40000000000E+03 0.  1.
   -9000005    1    1    2    0  502  0.88525957751E+02 -0.17678839490E+03  0.56699403675E+03  0.72150760181E+03  0.40000000000E+03 0.  1.
<mgrwt>
<rscale>  2 0.44619612E+03</rscale>
<asrwt>0</asrwt>
<pdfrwt beam="1">  1       21 0.12165418E+00 0.44619612E+03</pdfrwt>
<pdfrwt beam="2">  1       21 0.64153743E-01 0.44619612E+03</pdfrwt>
<totfact> 0.97223290E+02</totfact>
</mgrwt>
</event>
<event>
 4    1  0.4857079E-002  0.4717608E+03  0.7818608E-02  0.1021424E+00
         21   -1    0    0  503  502  0.00000000000E+00  0.00000000000E+00  0.10548869421E+04  0.10548869421E+04  0.00000000000E+00 0. -1.
         21   -1    0    0  501  503 -0.00000000000E+00 -0.00000000000E+00 -0.28456218518E+03  0.28456218518E+03  0.00000000000E+00 0.  1.
    9000005    1    1    2  501    0 -0.24946716043E+03 -0.18011826133E+02  0.44598259200E+02  0.47386421551E+03  0.40000000000E+03 0. -1.
   -9000005    1    1    2    0  502  0.24946716043E+03  0.18011826133E+02  0.72572649777E+03  0.86558491182E+03  0.40000000000E+03 0.  1.
<mgrwt>
<rscale>  2 0.47176084E+03</rscale>
<asrwt>0</asrwt>
<pdfrwt beam="1">  1       21 0.16229030E+00 0.47176084E+03</pdfrwt>
<pdfrwt beam="2">  1       21 0.43778798E-01 0.47176084E+03</pdfrwt>
<totfact> 0.10140928E+03</totfact>
</mgrwt>
</event>
<event>
 4    1  0.4857079E-002  0.4224871E+03  0.7818608E-02  0.1036260E+00
         21   -1    0    0  503  502  0.00000000000E+00  0.00000000000E+00  0.17503187323E+04  0.17503187323E+04  0.00000000000E+00 0.  1.
         21   -1    0    0  501  503 -0.00000000000E+00 -0.00000000000E+00 -0.17126760151E+03  0.17126760151E+03  0.00000000000E+00 0.  1.
    9000005    1    1    2  501    0 -0.83032535382E+02 -0.10770785426E+03  0.17840927804E+03  0.45861231372E+03  0.40000000000E+03 0.  1.
   -9000005    1    1    2    0  502  0.83032535382E+02  0.10770785426E+03  0.14006418528E+04  0.14629740201E+04  0.40000000000E+03 0.  1.
<mgrwt>
<rscale>  2 0.42248714E+03</rscale>
<asrwt>0</asrwt>
<pdfrwt beam="1">  1       21 0.26927979E+00 0.42248714E+03</pdfrwt>
<pdfrwt beam="2">  1       21 0.26348863E-01 0.42248714E+03</pdfrwt>
<totfact> 0.57630514E+02</totfact>
</mgrwt>
</event>
<event>
 4    1  0.4857079E-002  0.4644748E+03  0.7818608E-02  0.1023491E+00
         21   -1    0    0  503  502  0.00000000000E+00  0.00000000000E+00  0.19587412899E+03  0.19587412899E+03  0.00000000000E+00 0. -1.
         21   -1    0    0  501  503 -0.00000000000E+00 -0.00000000000E+00 -0.17946130983E+04  0.17946130983E+04  0.00000000000E+00 0. -1.
    9000005    1    1    2  501    0  0.19860036506E+03 -0.12765073698E+03 -0.14179207273E+04  0.14920576412E+04  0.40000000000E+03 0. -1.
   -9000005    1    1    2    0  502 -0.19860036506E+03  0.12765073698E+03 -0.18081824196E+03  0.49842958608E+03  0.40000000000E+03 0. -1.
<mgrwt>
<rscale>  2 0.46447477E+03</rscale>
<asrwt>0</asrwt>
<pdfrwt beam="1">  1       21 0.30134480E-01 0.46447477E+03</pdfrwt>
<pdfrwt beam="2">  1       21 0.27609433E+00 0.46447477E+03</pdfrwt>
<totfact> 0.39295302E+02</totfact>
</mgrwt>
</event>
<event>
 4    1  0.4857079E-002  0.5058014E+03  0.7818608E-02  0.1012276E+00
         21   -1    0    0  501  502  0.00000000000E+00  0.00000000000E+00  0.11595087571E+04  0.11595087571E+04  0.00000000000E+00 0. -1.
         21   -1    0    0  502  503 -0.00000000000E+00 -0.00000000000E+00 -0.44052307581E+03  0.44052307581E+03  0.00000000000E+00 0. -1.
    9000005    1    1    2  501    0 -0.27840290456E+03  0.13537696457E+03  0.92470210445E+03  0.10539967181E+04  0.40000000000E+03 0. -1.
   -9000005    1    1    2    0  503  0.27840290456E+03 -0.13537696457E+03 -0.20571642318E+03  0.54603511478E+03  0.40000000000E+03 0. -1.
<mgrwt>
<rscale>  2 0.50580144E+03</rscale>
<asrwt>0</asrwt>
<pdfrwt beam="1">  1       21 0.17838596E+00 0.50580144E+03</pdfrwt>
<pdfrwt beam="2">  1       21 0.67772781E-01 0.50580144E+03</pdfrwt>
<totfact> 0.29637259E+02</totfact>
</mgrwt>
</event>
<event>
 4    1  0.4857079E-002  0.5051717E+03  0.7818608E-02  0.1012438E+00
         21   -1    0    0  501  502  0.00000000000E+00  0.00000000000E+00  0.43145716068E+03  0.43145716068E+03  0.00000000000E+00 0.  1.
         21   -1    0    0  502  503 -0.00000000000E+00 -0.00000000000E+00 -0.67219110804E+03  0.67219110804E+03  0.00000000000E+00 0. -1.
    9000005    1    1    2  501    0  0.30122236964E+03  0.66809812223E+02  0.70847079188E+02  0.51011545322E+03  0.40000000000E+03 0.  1.
   -9000005    1    1    2    0  503 -0.30122236964E+03 -0.66809812223E+02 -0.31158102654E+03  0.59353281550E+03  0.40000000000E+03 0.  1.
<mgrwt>
<rscale>  2 0.50517172E+03</rscale>
<asrwt>0</asrwt>
<pdfrwt beam="1">  1       21 0.66378025E-01 0.50517172E+03</pdfrwt>
<pdfrwt beam="2">  1       21 0.10341402E+00 0.50517172E+03</pdfrwt>
<totfact> 0.13217661E+03</totfact>
</mgrwt>
</event>
<event>
 4    1  0.4857079E-002  0.4045425E+03  0.7818608E-02  0.1042218E+00
         21   -1    0    0  501  502  0.00000000000E+00  0.00000000000E+00  0.23711004617E+03  0.23711004617E+03  0.00000000000E+00 0.  1.
         21   -1    0    0  502  503 -0.00000000000E+00 -0.00000000000E+00 -0.10725189155E+04  0.10725189155E+04  0.00000000000E+00 0.  1.
    9000005    1    1    2  501    0  0.45576182123E+02  0.39717044752E+02 -0.26750466185E+02  0.40542597285E+03  0.40000000000E+03 0.  1.
   -9000005    1    1    2    0  503 -0.45576182123E+02 -0.39717044752E+02 -0.80865840311E+03  0.90420298879E+03  0.40000000000E+03 0.  1.
<mgrwt>
<rscale>  2 0.40454250E+03</rscale>
<asrwt>0</asrwt>
<pdfrwt beam="1">  1       21 0.36478469E-01 0.40454250E+03</pdfrwt>
<pdfrwt beam="2">  1       21 0.16500291E+00 0.40454250E+03</pdfrwt>
<totfact> 0.14515588E+03</totfact>
</mgrwt>
</event>
<event>
 4    1  0.4857079E-002  0.4482911E+03  0.7818608E-02  0.1028233E+00
         21   -1    0    0  503  502  0.00000000000E+00  0.00000000000E+00  0.81614430844E+03  0.81614430844E+03  0.00000000000E+00 0.  1.
         21   -1    0    0  501  503 -0.00000000000E+00 -0.00000000000E+00 -0.24629575972E+03  0.24629575972E+03  0.00000000000E+00 0.  1.
    9000005    1    1    2  501    0 -0.95244416800E+01  0.20217373691E+03  0.29312865779E+03  0.53562052323E+03  0.40000000000E+03 0.  1.
   -9000005    1    1    2    0  502  0.95244416800E+01 -0.20217373691E+03  0.27671989093E+03  0.52681954493E+03  0.40000000000E+03 0.  1.
<mgrwt>
<rscale>  2 0.44829113E+03</rscale>
<asrwt>0</asrwt>
<pdfrwt beam="1">  1       21 0.12556066E+00 0.44829113E+03</pdfrwt>
<pdfrwt beam="2">  1       21 0.37891656E-01 0.44829113E+03</pdfrwt>
<totfact> 0.27430212E+03</totfact>
</mgrwt>
</event>
<event>
 4    1  0.4857079E-002  0.4632541E+03  0.7818608E-02  0.1023842E+00
         21   -1    0    0  501  502  0.00000000000E+00  0.00000000000E+00  0.24578959306E+03  0.24578959306E+03  0.00000000000E+00 0.  1.
         21   -1    0    0  502  503 -0.00000000000E+00 -0.00000000000E+00 -0.91552054475E+03  0.91552054475E+03  0.00000000000E+00 0.  1.
    9000005    1    1    2  501    0  0.13212428207E+02 -0.23330190920E+03 -0.45982191734E+03  0.65271781404E+03  0.40000000000E+03 0.  1.
   -9000005    1    1    2    0  503 -0.13212428207E+02  0.23330190920E+03 -0.20990903435E+03  0.50859232377E+03  0.40000000000E+03 0.  1.
<mgrwt>
<rscale>  2 0.46325409E+03</rscale>
<asrwt>0</asrwt>
<pdfrwt beam="1">  1       21 0.37813783E-01 0.46325409E+03</pdfrwt>
<pdfrwt beam="2">  1       21 0.14084932E+00 0.46325409E+03</pdfrwt>
<totfact> 0.20282356E+03</totfact>
</mgrwt>
</event>
<event>
 4    1  0.4857079E-002  0.4196867E+03  0.7818608E-02  0.1037168E+00
         21   -1    0    0  501  502  0.00000000000E+00  0.00000000000E+00  0.22630956842E+03  0.22630956842E+03  0.00000000000E+00 0. -1.
         21   -1    0    0  502  503 -0.00000000000E+00 -0.00000000000E+00 -0.12133519616E+04  0.12133519616E+04  0.00000000000E+00 0. -1.
    9000005    1    1    2  501    0 -0.11795639081E+03 -0.47150672554E+02 -0.62491472084E+02  0.42431365773E+03  0.40000000000E+03 0. -1.
   -9000005    1    1    2    0  503  0.11795639081E+03  0.47150672554E+02 -0.92455092113E+03  0.10153478723E+04  0.40000000000E+03 0. -1.
<mgrwt>
<rscale>  2 0.41968666E+03</rscale>
<asrwt>0</asrwt>
<pdfrwt beam="1">  1       21 0.34816857E-01 0.41968666E+03</pdfrwt>
<pdfrwt beam="2">  1       21 0.18666953E+00 0.41968666E+03</pdfrwt>
<totfact> 0.11101432E+03</totfact>
</mgrwt>
</event>
<event>
 4    1  0.4857079E-002  0.4152520E+03  0.7818608E-02  0.1038623E+00
         21   -1    0    0  503  502  0.00000000000E+00  0.00000000000E+00  0.55539236778E+03  0.55539236778E+03  0.00000000000E+00 0. -1.
         21   -1    0    0  501  503 -0.00000000000E+00 -0.00000000000E+00 -0.37446354051E+03  0.37446354051E+03  0.00000000000E+00 0. -1.
    9000005    1    1    2  501    0 -0.10715940007E+03  0.30840237460E+02 -0.10172933229E+03  0.42753141910E+03  0.40000000000E+03 0. -1.
   -9000005    1    1    2    0  502  0.10715940007E+03 -0.30840237460E+02  0.28265815957E+03  0.50232448919E+03  0.40000000000E+03 0. -1.
<mgrwt>
<rscale>  2 0.41525204E+03</rscale>
<asrwt>0</asrwt>
<pdfrwt beam="1">  1       21 0.85444980E-01 0.41525204E+03</pdfrwt>
<pdfrwt beam="2">  1       21 0.57609775E-01 0.41525204E+03</pdfrwt>
<totfact> 0.29494185E+03</totfact>
</mgrwt>
</event>
<event>
 4    1  0.4857079E-002  0.5000489E+03  0.7818608E-02  0.1013766E+00
         21   -1    0    0  503  502  0.00000000000E+00  0.00000000000E+00  0.23616598483E+03  0.23616598483E+03  0.00000000000E+00 0. -1.
         21   -1    0    0  501  503 -0.00000000000E+00 -0.00000000000E+00 -0.16549027968E+04  0.16549027968E+04  0.00000000000E+00 0.  1.
    9000005    1    1    2  501    0  0.29387942441E+03 -0.60694094264E+02 -0.12768572166E+04  0.13712816052E+04  0.40000000000E+03 0.  1.
   -9000005    1    1    2    0  502 -0.29387942441E+03  0.60694094264E+02 -0.14187959533E+03  0.51978717639E+03  0.40000000000E+03 0. -1.
<mgrwt>
<rscale>  2 0.50004889E+03</rscale>
<asrwt>0</asrwt>
<pdfrwt beam="1">  1       21 0.36333229E-01 0.50004889E+03</pdfrwt>
<pdfrwt beam="2">  1       21 0.25460043E+00 0.50004889E+03</pdfrwt>
<totfact> 0.35782536E+02</totfact>
</mgrwt>
</event>
<event>
 4    1  0.4857079E-002  0.4139874E+03  0.7818608E-02  0.1039041E+00
         21   -1    0    0  503  502  0.00000000000E+00  0.00000000000E+00  0.38992304851E+03  0.38992304851E+03  0.00000000000E+00 0. -1.
         21   -1    0    0  501  503 -0.00000000000E+00 -0.00000000000E+00 -0.55326614326E+03  0.55326614326E+03  0.00000000000E+00 0. -1.
    9000005    1    1    2  501    0 -0.10563534645E+03 -0.15057107336E+02 -0.29548644914E+03  0.50862342113E+03  0.40000000000E+03 0. -1.
   -9000005    1    1    2    0  502  0.10563534645E+03  0.15057107336E+02  0.13214335438E+03  0.43456577064E+03  0.40000000000E+03 0. -1.
<mgrwt>
<rscale>  2 0.41398737E+03</rscale>
<asrwt>0</asrwt>
<pdfrwt beam="1">  1       21 0.59988162E-01 0.41398737E+03</pdfrwt>
<pdfrwt beam="2">  1       21 0.85117868E-01 0.41398737E+03</pdfrwt>
<totfact> 0.27260477E+03</totfact>
</mgrwt>
</event>
<event>
 4    1  0.4857079E-002  0.4584851E+03  0.7818608E-02  0.1025221E+00
         21   -1    0    0  503  502  0.00000000000E+00  0.00000000000E+00  0.44116350255E+03  0.44116350255E+03  0.00000000000E+00 0. -1.
         21   -1    0    0  501  503 -0.00000000000E+00 -0.00000000000E+00 -0.10642652650E+04  0.10642652650E+04  0.00000000000E+00 0. -1.
    9000005    1    1    2  501    0 -0.22186918404E+03  0.31347648748E+02 -0.87093751630E+03  0.98424629397E+03  0.40000000000E+03 0. -1.
   -9000005    1    1    2    0  502  0.22186918404E+03 -0.31347648748E+02  0.24783575382E+03  0.52118247359E+03  0.40000000000E+03 0. -1.
<mgrwt>
<rscale>  2 0.45848513E+03</rscale>
<asrwt>0</asrwt>
<pdfrwt beam="1">  1       21 0.67871308E-01 0.45848513E+03</pdfrwt>
<pdfrwt beam="2">  1       21 0.16373312E+00 0.45848513E+03</pdfrwt>
<totfact> 0.38592440E+02</totfact>
</mgrwt>
</event>
<event>
 4    1  0.4857079E-002  0.4080934E+03  0.7818608E-02  0.1041013E+00
         21   -1    0    0  503  502  0.00000000000E+00  0.00000000000E+00  0.42994835338E+03  0.42994835338E+03  0.00000000000E+00 0.  1.
         21   -1    0    0  501  503 -0.00000000000E+00 -0.00000000000E+00 -0.12232354937E+04  0.12232354937E+04  0.00000000000E+00 0. -1.
    9000005    1    1    2  501    0  0.34192596937E+01  0.80799302392E+02 -0.10799408337E+04  0.11544749555E+04  0.40000000000E+03 0. -1.
   -9000005    1    1    2    0  502 -0.34192596937E+01 -0.80799302392E+02  0.28665369338E+03  0.49870889157E+03  0.40000000000E+03 0.  1.
<mgrwt>
<rscale>  2 0.40809339E+03</rscale>
<asrwt>0</asrwt>
<pdfrwt beam="1">  1       21 0.66145901E-01 0.40809339E+03</pdfrwt>
<pdfrwt beam="2">  1       21 0.18819007E+00 0.40809339E+03</pdfrwt>
<totfact> 0.28073219E+02</totfact>
</mgrwt>
</event>
<event>
 4    1  0.4857079E-002  0.6479295E+03  0.7818608E-02  0.9810672E-01
         21   -1    0    0  503  502  0.00000000000E+00  0.00000000000E+00  0.82624509119E+03  0.82624509119E+03  0.00000000000E+00 0. -1.
         21   -1    0    0  501  503 -0.00000000000E+00 -0.00000000000E+00 -0.79669119651E+03  0.79669119651E+03  0.00000000000E+00 0.  1.
    9000005    1    1    2  501    0  0.45249625808E+03 -0.23464822134E+03 -0.47361698920E+03  0.80257442260E+03  0.40000000000E+03 0.  1.
   -9000005    1    1    2    0  502 -0.45249625808E+03  0.23464822134E+03  0.50317088387E+03  0.82036186511E+03  0.40000000000E+03 0. -1.
<mgrwt>
<rscale>  2 0.64792951E+03</rscale>
<asrwt>0</asrwt>
<pdfrwt beam="1">  1       21 0.12711463E+00 0.64792951E+03</pdfrwt>
<pdfrwt beam="2">  1       21 0.12256788E+00 0.64792951E+03</pdfrwt>
<totfact> 0.17212483E+02</totfact>
</mgrwt>
</event>
<event>
 4    1  0.4857079E-002  0.4220976E+03  0.7818608E-02  0.1036386E+00
         21   -1    0    0  501  502  0.00000000000E+00  0.00000000000E+00  0.35635215366E+03  0.35635215366E+03  0.00000000000E+00 0.  1.
         21   -1    0    0  502  503 -0.00000000000E+00 -0.00000000000E+00 -0.16200146181E+04  0.16200146181E+04  0.00000000000E+00 0.  1.
    9000005    1    1    2  501    0 -0.10987428955E+03  0.78064456391E+02  0.18983451179E+03  0.46282130539E+03  0.40000000000E+03 0.  1.
   -9000005    1    1    2    0  503  0.10987428955E+03 -0.78064456391E+02 -0.14534969762E+04  0.15135454664E+04  0.40000000000E+03 0.  1.
<mgrwt>
<rscale>  2 0.42209764E+03</rscale>
<asrwt>0</asrwt>
<pdfrwt beam="1">  1       21 0.54823409E-01 0.42209764E+03</pdfrwt>
<pdfrwt beam="2">  1       21 0.24923301E+00 0.42209764E+03</pdfrwt>
<totfact> 0.17029512E+02</totfact>
</mgrwt>
</event>
<event>
 4    1  0.4857079E-002  0.4317190E+03  0.7818608E-02  0.1033318E+00
         21   -1    0    0  501  502  0.00000000000E+00  0.00000000000E+00  0.13836065744E+04  0.13836065744E+04  0.00000000000E+00 0. -1.
         21   -1    0    0  502  503 -0.00000000000E+00 -0.00000000000E+00 -0.14256610139E+03  0.14256610139E+03  0.00000000000E+00 0. -1.
    9000005    1    1    2  501    0  0.32883608421E+02 -0.15905970690E+03  0.79968613728E+03  0.90877898315E+03  0.40000000000E+03 0.  1.
   -9000005    1    1    2    0  503 -0.32883608421E+02  0.15905970690E+03  0.44135433576E+03  0.61739369268E+03  0.40000000000E+03 0.  1.
<mgrwt>
<rscale>  2 0.43171903E+03</rscale>
<asrwt>0</asrwt>
<pdfrwt beam="1">  1       21 0.21286254E+00 0.43171903E+03</pdfrwt>
<pdfrwt beam="2">  1       21 0.21933247E-01 0.43171903E+03</pdfrwt>
<totfact> 0.18326846E+03</totfact>
</mgrwt>
</event>
<event>
 4    1  0.4857079E-002  0.4211748E+03  0.7818608E-02  0.1036685E+00
         21   -1    0    0  503  502  0.00000000000E+00  0.00000000000E+00  0.60102412297E+03  0.60102412297E+03  0.00000000000E+00 0.  1.
         21   -1    0    0  501  503 -0.00000000000E+00 -0.00000000000E+00 -0.37340718190E+03  0.37340718190E+03  0.00000000000E+00 0.  1.
    9000005    1    1    2  501    0  0.12442410854E+03  0.43667790571E+02 -0.10924584480E+03  0.43511250192E+03  0.40000000000E+03 0.  1.
   -9000005    1    1    2    0  502 -0.12442410854E+03 -0.43667790571E+02  0.33686278587E+03  0.53931880296E+03  0.40000000000E+03 0.  1.
<mgrwt>
<rscale>  2 0.42117483E+03</rscale>
<asrwt>0</asrwt>
<pdfrwt beam="1">  1       21 0.92465250E-01 0.42117483E+03</pdfrwt>
<pdfrwt beam="2">  1       21 0.57447259E-01 0.42117483E+03</pdfrwt>
<totfact> 0.24578208E+03</totfact>
</mgrwt>
</event>
<event>
 4    1  0.4857079E-002  0.4047529E+03  0.7818608E-02  0.1042146E+00
         21   -1    0    0  501  502  0.00000000000E+00  0.00000000000E+00  0.66262958128E+03  0.66262958128E+03  0.00000000000E+00 0.  1.
         21   -1    0    0  502  503 -0.00000000000E+00 -0.00000000000E+00 -0.25959092279E+03  0.25959092279E+03  0.00000000000E+00 0.  1.
    9000005    1    1    2  501    0 -0.15519288904E+02 -0.59866869565E+02  0.10091736010E+03  0.41714410456E+03  0.40000000000E+03 0.  1.
   -9000005    1    1    2    0  503  0.15519288904E+02  0.59866869565E+02  0.30212129840E+03  0.50507639951E+03  0.40000000000E+03 0.  1.
<mgrwt>
<rscale>  2 0.40475288E+03</rscale>
<asrwt>0</asrwt>
<pdfrwt beam="1">  1       21 0.10194301E+00 0.40475288E+03</pdfrwt>
<pdfrwt beam="2">  1       21 0.39937065E-01 0.40475288E+03</pdfrwt>
<totfact> 0.42136476E+03</totfact>
</mgrwt>
</event>
<event>
 4    1  0.4857079E-002  0.4451683E+03  0.7818608E-02  0.1029173E+00
         21   -1    0    0  503  502  0.00000000000E+00  0.00000000000E+00  0.16903315196E+04  0.16903315196E+04  0.00000000000E+00 0.  1.
         21   -1    0    0  501  503 -0.00000000000E+00 -0.00000000000E+00 -0.27666215026E+03  0.27666215026E+03  0.00000000000E+00 0.  1.
    9000005    1    1    2  501    0  0.16957446900E+03 -0.97053001405E+02 -0.39738122635E+02  0.44693836713E+03  0.40000000000E+03 0.  1.
   -9000005    1    1    2    0  502 -0.16957446900E+03  0.97053001405E+02  0.14534074920E+04  0.15200553027E+04  0.40000000000E+03 0.  1.
<mgrwt>
<rscale>  2 0.44516827E+03</rscale>
<asrwt>0</asrwt>
<pdfrwt beam="1">  1       21 0.26005100E+00 0.44516827E+03</pdfrwt>
<pdfrwt beam="2">  1       21 0.42563409E-01 0.44516827E+03</pdfrwt>
<totfact> 0.24642865E+02</totfact>
</mgrwt>
</event>
<event>
 4    1  0.4857079E-002  0.4625202E+03  0.7818608E-02  0.1024053E+00
         21   -1    0    0  501  502  0.00000000000E+00  0.00000000000E+00  0.74023881247E+03  0.74023881247E+03  0.00000000000E+00 0. -1.
         21   -1    0    0  502  503 -0.00000000000E+00 -0.00000000000E+00 -0.31602340251E+03  0.31602340251E+03  0.00000000000E+00 0.  1.
    9000005    1    1    2  501    0  0.57853852379E+02 -0.22489522143E+03  0.36656076352E+03  0.59016245408E+03  0.40000000000E+03 0. -1.
   -9000005    1    1    2    0  503 -0.57853852379E+02  0.22489522143E+03  0.57654646447E+02  0.46609976090E+03  0.40000000000E+03 0. -1.
<mgrwt>
<rscale>  2 0.46252019E+03</rscale>
<asrwt>0</asrwt>
<pdfrwt beam="1">  1       21 0.11388289E+00 0.46252019E+03</pdfrwt>
<pdfrwt beam="2">  1       21 0.48618985E-01 0.46252019E+03</pdfrwt>
<totfact> 0.20804650E+03</totfact>
</mgrwt>
</event>
<event>
 4    1  0.4857079E-002  0.4328345E+03  0.7818608E-02  0.1032968E+00
         21   -1    0    0  503  502  0.00000000000E+00  0.00000000000E+00  0.24989609737E+03  0.24989609737E+03  0.00000000000E+00 0.  1.
         21   -1    0    0  501  503 -0.00000000000E+00 -0.00000000000E+00 -0.83557639246E+03  0.83557639246E+03  0.00000000000E+00 0.  1.
    9000005    1    1    2  501    0  0.13102215598E+03  0.10089059793E+03 -0.11884118224E+03  0.44885292101E+03  0.40000000000E+03 0.  1.
   -9000005    1    1    2    0  502 -0.13102215598E+03 -0.10089059793E+03 -0.46683911285E+03  0.63661956881E+03  0.40000000000E+03 0.  1.
<mgrwt>
<rscale>  2 0.43283452E+03</rscale>
<asrwt>0</asrwt>
<pdfrwt beam="1">  1       21 0.38445554E-01 0.43283452E+03</pdfrwt>
<pdfrwt beam="2">  1       21 0.12855021E+00 0.43283452E+03</pdfrwt>
<totfact> 0.25207735E+03</totfact>
</mgrwt>
</event>
<event>
 4    1  0.4857079E-002  0.5420800E+03  0.7818608E-02  0.1003344E+00
         21   -1    0    0  501  502  0.00000000000E+00  0.00000000000E+00  0.29176875070E+03  0.29176875070E+03  0.00000000000E+00 0.  1.
         21   -1    0    0  502  503 -0.00000000000E+00 -0.00000000000E+00 -0.10528128626E+04  0.10528128626E+04  0.00000000000E+00 0. -1.
    9000005    1    1    2  501    0  0.28329240431E+03 -0.23150831957E+03 -0.52055548920E+03  0.75155086701E+03  0.40000000000E+03 0.  1.
   -9000005    1    1    2    0  503 -0.28329240431E+03  0.23150831957E+03 -0.24048862265E+03  0.59303074625E+03  0.40000000000E+03 0. -1.
<mgrwt>
<rscale>  2 0.54207996E+03</rscale>
<asrwt>0</asrwt>
<pdfrwt beam="1">  1       21 0.44887499E-01 0.54207996E+03</pdfrwt>
<pdfrwt beam="2">  1       21 0.16197121E+00 0.54207996E+03</pdfrwt>
<totfact> 0.94187704E+02</totfact>
</mgrwt>
</event>
<event>
 4    1  0.4857079E-002  0.5028276E+03  0.7818608E-02  0.1013043E+00
         21   -1    0    0  501  502  0.00000000000E+00  0.00000000000E+00  0.22160694399E+04  0.22160694399E+04  0.00000000000E+00 0.  1.
         21   -1    0    0  502  503 -0.00000000000E+00 -0.00000000000E+00 -0.11646679745E+03  0.11646679745E+03  0.00000000000E+00 0.  1.
    9000005    1    1    2  501    0  0.29950489678E+03  0.55968302459E+02  0.88326182591E+03  0.10163597233E+04  0.40000000000E+03 0.  1.
   -9000005    1    1    2    0  503 -0.29950489678E+03 -0.55968302459E+02  0.12163408165E+04  0.13161765140E+04  0.40000000000E+03 0.  1.
<mgrwt>
<rscale>  2 0.50282764E+03</rscale>
<asrwt>0</asrwt>
<pdfrwt beam="1">  1       21 0.34093373E+00 0.50282764E+03</pdfrwt>
<pdfrwt beam="2">  1       21 0.17917970E-01 0.50282764E+03</pdfrwt>
<totfact> 0.42635869E+02</totfact>
</mgrwt>
</event>
<event>
 4    1  0.4857079E-002  0.4700229E+03  0.7818608E-02  0.1021914E+00
         21   -1    0    0  503  502  0.00000000000E+00  0.00000000000E+00  0.19739726661E+04  0.19739726661E+04  0.00000000000E+00 0.  1.
         21   -1    0    0  501  503 -0.00000000000E+00 -0.00000000000E+00 -0.15331101823E+03  0.15331101823E+03  0.00000000000E+00 0.  1.
    9000005    1    1    2  501    0 -0.19669395051E+03  0.14910734604E+03  0.35764741446E+03  0.59062101544E+03  0.40000000000E+03 0.  1.
   -9000005    1    1    2    0  502  0.19669395051E+03 -0.14910734604E+03  0.14630142334E+04  0.15366626689E+04  0.40000000000E+03 0.  1.
<mgrwt>
<rscale>  2 0.47002288E+03</rscale>
<asrwt>0</asrwt>
<pdfrwt beam="1">  1       21 0.30368809E+00 0.47002288E+03</pdfrwt>
<pdfrwt beam="2">  1       21 0.23586312E-01 0.47002288E+03</pdfrwt>
<totfact> 0.43191248E+02</totfact>
</mgrwt>
</event>
<event>
 4    1  0.4857079E-002  0.4248388E+03  0.7818608E-02  0.1035503E+00
         21   -1    0    0  501  502  0.00000000000E+00  0.00000000000E+00  0.37963752188E+03  0.37963752188E+03  0.00000000000E+00 0. -1.
         21   -1    0    0  502  503 -0.00000000000E+00 -0.00000000000E+00 -0.48697350711E+03  0.48697350711E+03  0.00000000000E+00 0.  1.
    9000005    1    1    2  501    0  0.14301795853E+03 -0.58211942468E+01 -0.12040415487E+03  0.44157126636E+03  0.40000000000E+03 0. -1.
   -9000005    1    1    2    0  503 -0.14301795853E+03  0.58211942468E+01  0.13068169641E+02  0.42503976264E+03  0.40000000000E+03 0. -1.
<mgrwt>
<rscale>  2 0.42483882E+03</rscale>
<asrwt>0</asrwt>
<pdfrwt beam="1">  1       21 0.58405772E-01 0.42483882E+03</pdfrwt>
<pdfrwt beam="2">  1       21 0.74919001E-01 0.42483882E+03</pdfrwt>
<totfact> 0.38630598E+03</totfact>
</mgrwt>
</event>
<event>
 4    1  0.4857079E-002  0.4726152E+03  0.7818608E-02  0.1021185E+00
         21   -1    0    0  501  502  0.00000000000E+00  0.00000000000E+00  0.91614790746E+02  0.91614790746E+02  0.00000000000E+00 0. -1.
         21   -1    0    0  502  503 -0.00000000000E+00 -0.00000000000E+00 -0.24775010883E+04  0.24775010883E+04  0.00000000000E+00 0.  1.
    9000005    1    1    2  501    0  0.24700463047E+03 -0.48516510864E+02 -0.10309286312E+04  0.11340983123E+04  0.40000000000E+03 0. -1.
   -9000005    1    1    2    0  503 -0.24700463047E+03  0.48516510864E+02 -0.13549576663E+04  0.14350175667E+04  0.40000000000E+03 0. -1.
<mgrwt>
<rscale>  2 0.47261521E+03</rscale>
<asrwt>0</asrwt>
<pdfrwt beam="1">  1       21 0.14094583E-01 0.47261521E+03</pdfrwt>
<pdfrwt beam="2">  1       21 0.38115401E+00 0.47261521E+03</pdfrwt>
<totfact> 0.38203919E+02</totfact>
</mgrwt>
</event>
<event>
 4    1  0.4857079E-002  0.4080762E+03  0.7818608E-02  0.1041019E+00
         21   -1    0    0  501  502  0.00000000000E+00  0.00000000000E+00  0.29918516733E+03  0.29918516733E+03  0.00000000000E+00 0. -1.
         21   -1    0    0  502  503 -0.00000000000E+00 -0.00000000000E+00 -0.55686276209E+03  0.55686276209E+03  0.00000000000E+00 0. -1.
    9000005    1    1    2  501    0 -0.80694710025E+02  0.38089723476E+01 -0.13815537633E+03  0.43082833299E+03  0.40000000000E+03 0. -1.
   -9000005    1    1    2    0  503  0.80694710025E+02 -0.38089723476E+01 -0.11952221843E+03  0.42521959644E+03  0.40000000000E+03 0. -1.
<mgrwt>
<rscale>  2 0.40807615E+03</rscale>
<asrwt>0</asrwt>
<pdfrwt beam="1">  1       21 0.46028487E-01 0.40807615E+03</pdfrwt>
<pdfrwt beam="2">  1       21 0.85671194E-01 0.40807615E+03</pdfrwt>
<totfact> 0.47439280E+03</totfact>
</mgrwt>
</event>
<event>
 4    1  0.4857079E-002  0.4969259E+03  0.7818608E-02  0.1014584E+00
         21   -1    0    0  501  502  0.00000000000E+00  0.00000000000E+00  0.58941949793E+03  0.58941949793E+03  0.00000000000E+00 0.  1.
         21   -1    0    0  502  503 -0.00000000000E+00 -0.00000000000E+00 -0.54892288332E+03  0.54892288332E+03  0.00000000000E+00 0.  1.
    9000005    1    1    2  501    0 -0.67412534246E+02 -0.28703822624E+03  0.29720956301E+03  0.57902410783E+03  0.40000000000E+03 0.  1.
   -9000005    1    1    2    0  503  0.67412534246E+02  0.28703822624E+03 -0.25671294841E+03  0.55931827342E+03  0.40000000000E+03 0.  1.
<mgrwt>
<rscale>  2 0.49692594E+03</rscale>
<asrwt>0</asrwt>
<pdfrwt beam="1">  1       21 0.90679923E-01 0.49692594E+03</pdfrwt>
<pdfrwt beam="2">  1       21 0.84449674E-01 0.49692594E+03</pdfrwt>
<totfact> 0.10500040E+03</totfact>
</mgrwt>
</event>
<event>
 4    1  0.4857079E-002  0.4598396E+03  0.7818608E-02  0.1024828E+00
         21   -1    0    0  501  502  0.00000000000E+00  0.00000000000E+00  0.29232947116E+03  0.29232947116E+03  0.00000000000E+00 0. -1.
         21   -1    0    0  502  503 -0.00000000000E+00 -0.00000000000E+00 -0.78554782426E+03  0.78554782426E+03  0.00000000000E+00 0. -1.
    9000005    1    1    2  501    0  0.74863492261E+02  0.21412129189E+03 -0.94942906321E+02  0.46953873703E+03  0.40000000000E+03 0. -1.
   -9000005    1    1    2    0  503 -0.74863492261E+02 -0.21412129189E+03 -0.39827544679E+03  0.60833855839E+03  0.40000000000E+03 0. -1.
<mgrwt>
<rscale>  2 0.45983961E+03</rscale>
<asrwt>0</asrwt>
<pdfrwt beam="1">  1       21 0.44973764E-01 0.45983961E+03</pdfrwt>
<pdfrwt beam="2">  1       21 0.12085351E+00 0.45983961E+03</pdfrwt>
<totfact> 0.21128894E+03</totfact>
</mgrwt>
</event>
<event>
 4    1  0.4857079E-002  0.5909032E+03  0.7818608E-02  0.9924461E-01
         21   -1    0    0  503  502  0.00000000000E+00  0.00000000000E+00  0.14756319440E+04  0.14756319440E+04  0.00000000000E+00 0. -1.
         21   -1    0    0  501  503 -0.00000000000E+00 -0.00000000000E+00 -0.23785424230E+03  0.23785424230E+03  0.00000000000E+00 0.  1.
    9000005    1    1    2  501    0  0.33741705815E+03 -0.27443826634E+03  0.68056039964E+03  0.90129301047E+03  0.40000000000E+03 0. -1.
   -9000005    1    1    2    0  502 -0.33741705815E+03  0.27443826634E+03  0.55721730210E+03  0.81219317586E+03  0.40000000000E+03 0. -1.
<mgrwt>
<rscale>  2 0.59090324E+03</rscale>
<asrwt>0</asrwt>
<pdfrwt beam="1">  1       21 0.22702029E+00 0.59090324E+03</pdfrwt>
<pdfrwt beam="2">  1       21 0.36592961E-01 0.59090324E+03</pdfrwt>
<totfact> 0.50475403E+02</totfact>
</mgrwt>
</event>
<event>
 4    1  0.4857079E-002  0.4132571E+03  0.7818608E-02  0.1039283E+00
         21   -1    0    0  501  502  0.00000000000E+00  0.00000000000E+00  0.58538080881E+03  0.58538080881E+03  0.00000000000E+00 0. -1.
         21   -1    0    0  502  503 -0.00000000000E+00 -0.00000000000E+00 -0.38502393544E+03  0.38502393544E+03  0.00000000000E+00 0. -1.
    9000005    1    1    2  501    0 -0.96707265760E+02  0.37804161538E+02  0.33899955479E+03  0.53451112994E+03  0.40000000000E+03 0. -1.
   -9000005    1    1    2    0  503  0.96707265760E+02 -0.37804161538E+02 -0.13864268143E+03  0.43589361431E+03  0.40000000000E+03 0. -1.
<mgrwt>
<rscale>  2 0.41325712E+03</rscale>
<asrwt>0</asrwt>
<pdfrwt beam="1">  1       21 0.90058586E-01 0.41325712E+03</pdfrwt>
<pdfrwt beam="2">  1       21 0.59234452E-01 0.41325712E+03</pdfrwt>
<totfact> 0.24551664E+03</totfact>
</mgrwt>
</event>
<event>
 4    1  0.4857079E-002  0.4706207E+03  0.7818608E-02  0.1021745E+00
         21   -1    0    0  501  502  0.00000000000E+00  0.00000000000E+00  0.72843178622E+03  0.72843178622E+03  0.00000000000E+00 0.  1.
         21   -1    0    0  502  503 -0.00000000000E+00 -0.00000000000E+00 -0.37804875240E+03  0.37804875240E+03  0.00000000000E+00 0. -1.
    9000005    1    1    2  501    0  0.28509784239E+01 -0.24794293353E+03 -0.69565635983E+02  0.47573438395E+03  0.40000000000E+03 0. -1.
   -9000005    1    1    2    0  503 -0.28509784239E+01  0.24794293353E+03  0.41994866981E+03  0.63074615467E+03  0.40000000000E+03 0.  1.
<mgrwt>
<rscale>  2 0.47062068E+03</rscale>
<asrwt>0</asrwt>
<pdfrwt beam="1">  1       21 0.11206643E+00 0.47062068E+03</pdfrwt>
<pdfrwt beam="2">  1       21 0.58161347E-01 0.47062068E+03</pdfrwt>
<totfact> 0.14688235E+03</totfact>
</mgrwt>
</event>
<event>
 4    1  0.4857079E-002  0.4458337E+03  0.7818608E-02  0.1028972E+00
         21   -1    0    0  501  502  0.00000000000E+00  0.00000000000E+00  0.20635564253E+03  0.20635564253E+03  0.00000000000E+00 0. -1.
         21   -1    0    0  502  503 -0.00000000000E+00 -0.00000000000E+00 -0.96328961199E+03  0.96328961199E+03  0.00000000000E+00 0. -1.
    9000005    1    1    2  501    0 -0.18873527472E+03  0.56095427339E+02 -0.37382087987E+03  0.58181590827E+03  0.40000000000E+03 0. -1.
   -9000005    1    1    2    0  503  0.18873527472E+03 -0.56095427339E+02 -0.38311308960E+03  0.58782934625E+03  0.40000000000E+03 0. -1.
<mgrwt>
<rscale>  2 0.44583371E+03</rscale>
<asrwt>0</asrwt>
<pdfrwt beam="1">  1       21 0.31747022E-01 0.44583371E+03</pdfrwt>
<pdfrwt beam="2">  1       21 0.14819840E+00 0.44583371E+03</pdfrwt>
<totfact> 0.25364639E+03</totfact>
</mgrwt>
</event>
<event>
 4    1  0.4857079E-002  0.4513085E+03  0.7818608E-02  0.1027333E+00
         21   -1    0    0  501  502  0.00000000000E+00  0.00000000000E+00  0.67902683196E+03  0.67902683196E+03  0.00000000000E+00 0. -1.
         21   -1    0    0  502  503 -0.00000000000E+00 -0.00000000000E+00 -0.35765652303E+03  0.35765652303E+03  0.00000000000E+00 0.  1.
    9000005    1    1    2  501    0  0.23970081012E+02 -0.20761684571E+03 -0.47508060943E+02  0.45380208821E+03  0.40000000000E+03 0.  1.
   -9000005    1    1    2    0  503 -0.23970081012E+02  0.20761684571E+03  0.36887836987E+03  0.58288126678E+03  0.40000000000E+03 0. -1.
<mgrwt>
<rscale>  2 0.45130845E+03</rscale>
<asrwt>0</asrwt>
<pdfrwt beam="1">  1       21 0.10446567E+00 0.45130845E+03</pdfrwt>
<pdfrwt beam="2">  1       21 0.55024080E-01 0.45130845E+03</pdfrwt>
<totfact> 0.19857938E+03</totfact>
</mgrwt>
</event>
<event>
 4    1  0.4857079E-002  0.6996970E+03  0.7818608E-02  0.9717751E-01
         21   -1    0    0  503  502  0.00000000000E+00  0.00000000000E+00  0.16266985129E+04  0.16266985129E+04  0.00000000000E+00 0. -1.
         21   -1    0    0  501  503 -0.00000000000E+00 -0.00000000000E+00 -0.40166473924E+03  0.40166473924E+03  0.00000000000E+00 0. -1.
    9000005    1    1    2  501    0  0.52550612599E+03  0.23112584419E+03  0.10470523487E+03  0.70748783065E+03  0.40000000000E+03 0. -1.
   -9000005    1    1    2    0  502 -0.52550612599E+03 -0.23112584419E+03  0.11203285388E+04  0.13208754215E+04  0.40000000000E+03 0. -1.
<mgrwt>
<rscale>  2 0.69969697E+03</rscale>
<asrwt>0</asrwt>
<pdfrwt beam="1">  1       21 0.25026131E+00 0.69969697E+03</pdfrwt>
<pdfrwt beam="2">  1       21 0.61794576E-01 0.69969697E+03</pdfrwt>
<totfact> 0.11319587E+02</totfact>
</mgrwt>
</event>
<event>
 4    1  0.4857079E-002  0.4246748E+03  0.7818608E-02  0.1035555E+00
         21   -1    0    0  503  502  0.00000000000E+00  0.00000000000E+00  0.11623880429E+04  0.11623880429E+04  0.00000000000E+00 0.  1.
         21   -1    0    0  501  503 -0.00000000000E+00 -0.00000000000E+00 -0.16213913450E+03  0.16213913450E+03  0.00000000000E+00 0.  1.
    9000005    1    1    2  501    0  0.56611994137E+02  0.13093413179E+03  0.36266094249E+03  0.55845467493E+03  0.40000000000E+03 0.  1.
   -9000005    1    1    2    0  502 -0.56611994137E+02 -0.13093413179E+03  0.63758796587E+03  0.76607250243E+03  0.40000000000E+03 0.  1.
<mgrwt>
<rscale>  2 0.42467478E+03</rscale>
<asrwt>0</asrwt>
<pdfrwt beam="1">  1       21 0.17882892E+00 0.42467478E+03</pdfrwt>
<pdfrwt beam="2">  1       21 0.24944483E-01 0.42467478E+03</pdfrwt>
<totfact> 0.24314274E+03</totfact>
</mgrwt>
</event>
<event>
 4    1  0.4857079E-002  0.6310100E+03  0.7818608E-02  0.9843080E-01
         21   -1    0    0  501  502  0.00000000000E+00  0.00000000000E+00  0.12412444625E+04  0.12412444625E+04  0.00000000000E+00 0.  1.
         21   -1    0    0  502  503 -0.00000000000E+00 -0.00000000000E+00 -0.87043635877E+03  0.87043635877E+03  0.00000000000E+00 0. -1.
    9000005    1    1    2  501    0  0.18757428953E+03  0.45054353143E+03  0.10244255875E+04  0.12031713810E+04  0.40000000000E+03 0.  1.
   -9000005    1    1    2    0  503 -0.18757428953E+03 -0.45054353143E+03 -0.65361748380E+03  0.90850944020E+03  0.40000000000E+03 0. -1.
<mgrwt>
<rscale>  2 0.63100997E+03</rscale>
<asrwt>0</asrwt>
<pdfrwt beam="1">  1       21 0.19096069E+00 0.63100997E+03</pdfrwt>
<pdfrwt beam="2">  1       21 0.13391329E+00 0.63100997E+03</pdfrwt>
<totfact> 0.43982992E+01</totfact>
</mgrwt>
</event>
<event>
 4    1  0.4857079E-002  0.6475486E+03  0.7818608E-02  0.9811390E-01
         21   -1    0    0  501  502  0.00000000000E+00  0.00000000000E+00  0.11296076557E+04  0.11296076557E+04  0.00000000000E+00 0. -1.
         21   -1    0    0  502  503 -0.00000000000E+00 -0.00000000000E+00 -0.11401966786E+04  0.11401966786E+04  0.00000000000E+00 0.  1.
    9000005    1    1    2  501    0  0.49021529749E+03 -0.13787023693E+03  0.92673261408E+03  0.11305541023E+04  0.40000000000E+03 0. -1.
   -9000005    1    1    2    0  503 -0.49021529749E+03  0.13787023693E+03 -0.93732163691E+03  0.11392502320E+04  0.40000000000E+03 0.  1.
<mgrwt>
<rscale>  2 0.64754864E+03</rscale>
<asrwt>0</asrwt>
<pdfrwt beam="1">  1       21 0.17378579E+00 0.64754864E+03</pdfrwt>
<pdfrwt beam="2">  1       21 0.17541487E+00 0.64754864E+03</pdfrwt>
<totfact> 0.27320990E+01</totfact>
</mgrwt>
</event>
<event>
 4    1  0.4857079E-002  0.5312749E+03  0.7818608E-02  0.1005923E+00
         21   -1    0    0  503  502  0.00000000000E+00  0.00000000000E+00  0.64811682963E+03  0.64811682963E+03  0.00000000000E+00 0. -1.
         21   -1    0    0  501  503 -0.00000000000E+00 -0.00000000000E+00 -0.53906921751E+03  0.53906921751E+03  0.00000000000E+00 0. -1.
    9000005    1    1    2  501    0 -0.25222820655E+03  0.24214442593E+03 -0.20566462184E+03  0.56969371408E+03  0.40000000000E+03 0. -1.
   -9000005    1    1    2    0  502  0.25222820655E+03 -0.24214442593E+03  0.31471223396E+03  0.61749233306E+03  0.40000000000E+03 0. -1.
<mgrwt>
<rscale>  2 0.53127487E+03</rscale>
<asrwt>0</asrwt>
<pdfrwt beam="1">  1       21 0.99710282E-01 0.53127487E+03</pdfrwt>
<pdfrwt beam="2">  1       21 0.82933726E-01 0.53127487E+03</pdfrwt>
<totfact> 0.86118853E+02</totfact>
</mgrwt>
</event>
<event>
 4    1  0.4857079E-002  0.4255916E+03  0.7818608E-02  0.1035262E+00
         21   -1    0    0  501  502  0.00000000000E+00  0.00000000000E+00  0.86778097747E+03  0.86778097747E+03  0.00000000000E+00 0.  1.
         21   -1    0    0  502  503 -0.00000000000E+00 -0.00000000000E+00 -0.79503915448E+03  0.79503915448E+03  0.00000000000E+00 0.  1.
    9000005    1    1    2  501    0 -0.11771202026E+03 -0.85276754000E+02  0.75035071543E+03  0.86264386663E+03  0.40000000000E+03 0.  1.
   -9000005    1    1    2    0  503  0.11771202026E+03  0.85276754000E+02 -0.67760889244E+03  0.80017626533E+03  0.40000000000E+03 0.  1.
<mgrwt>
<rscale>  2 0.42559164E+03</rscale>
<asrwt>0</asrwt>
<pdfrwt beam="1">  1       21 0.13350477E+00 0.42559164E+03</pdfrwt>
<pdfrwt beam="2">  1       21 0.12231372E+00 0.42559164E+03</pdfrwt>
<totfact> 0.16774132E+02</totfact>
</mgrwt>
</event>
<event>
 4    1  0.4857079E-002  0.4268090E+03  0.7818608E-02  0.1034873E+00
         21   -1    0    0  503  502  0.00000000000E+00  0.00000000000E+00  0.10046849467E+04  0.10046849467E+04  0.00000000000E+00 0.  1.
         21   -1    0    0  501  503 -0.00000000000E+00 -0.00000000000E+00 -0.26005709294E+03  0.26005709294E+03  0.00000000000E+00 0.  1.
    9000005    1    1    2  501    0  0.13419866388E+03  0.64471910163E+02  0.24347708270E+02  0.42750288828E+03  0.40000000000E+03 0.  1.
   -9000005    1    1    2    0  502 -0.13419866388E+03 -0.64471910163E+02  0.72028014545E+03  0.83723915133E+03  0.40000000000E+03 0.  1.
<mgrwt>
<rscale>  2 0.42680898E+03</rscale>
<asrwt>0</asrwt>
<pdfrwt beam="1">  1       21 0.15456691E+00 0.42680898E+03</pdfrwt>
<pdfrwt beam="2">  1       21 0.40008784E-01 0.42680898E+03</pdfrwt>
<totfact> 0.14264931E+03</totfact>
</mgrwt>
</event>
<event>
 4    1  0.4857079E-002  0.4077956E+03  0.7818608E-02  0.1041113E+00
         21   -1    0    0  503  502  0.00000000000E+00  0.00000000000E+00  0.12910842059E+04  0.12910842059E+04  0.00000000000E+00 0.  1.
         21   -1    0    0  501  503 -0.00000000000E+00 -0.00000000000E+00 -0.15699529793E+03  0.15699529793E+03  0.00000000000E+00 0.  1.
    9000005    1    1    2  501    0 -0.30948812015E+02 -0.73071225991E+02  0.87385769647E+03  0.96432593386E+03  0.40000000000E+03 0.  1.
   -9000005    1    1    2    0  502  0.30948812015E+02  0.73071225991E+02  0.26023121152E+03  0.48375356999E+03  0.40000000000E+03 0.  1.
<mgrwt>
<rscale>  2 0.40779558E+03</rscale>
<asrwt>0</asrwt>
<pdfrwt beam="1">  1       21 0.19862833E+00 0.40779558E+03</pdfrwt>
<pdfrwt beam="2">  1       21 0.24153124E-01 0.40779558E+03</pdfrwt>
<totfact> 0.19082555E+03</totfact>
</mgrwt>
</event>
<event>
 4    1  0.4857079E-002  0.6978818E+03  0.7818608E-02  0.9720861E-01
         21   -1    0    0  501  502  0.00000000000E+00  0.00000000000E+00  0.13445211749E+04  0.13445211749E+04  0.00000000000E+00 0.  1.
         21   -1    0    0  502  503 -0.00000000000E+00 -0.00000000000E+00 -0.44363432016E+03  0.44363432016E+03  0.00000000000E+00 0.  1.
    9000005    1    1    2  501    0  0.49177926755E+03  0.29187702455E+03  0.83340956332E+03  0.10870191101E+04  0.40000000000E+03 0.  1.
   -9000005    1    1    2    0  503 -0.49177926755E+03 -0.29187702455E+03  0.67477291395E+02  0.70113638496E+03  0.40000000000E+03 0.  1.
<mgrwt>
<rscale>  2 0.69788183E+03</rscale>
<asrwt>0</asrwt>
<pdfrwt beam="1">  1       21 0.20684941E+00 0.69788183E+03</pdfrwt>
<pdfrwt beam="2">  1       21 0.68251434E-01 0.69788183E+03</pdfrwt>
<totfact> 0.17255363E+02</totfact>
</mgrwt>
</event>
<event>
 4    1  0.4857079E-002  0.5113376E+03  0.7818608E-02  0.1010861E+00
         21   -1    0    0  501  502  0.00000000000E+00  0.00000000000E+00  0.12142936636E+03  0.12142936636E+03  0.00000000000E+00 0.  1.
         21   -1    0    0  502  503 -0.00000000000E+00 -0.00000000000E+00 -0.21612655876E+04  0.21612655876E+04  0.00000000000E+00 0.  1.
    9000005    1    1    2  501    0  0.27989312622E+03  0.15207225641E+03 -0.10894844675E+04  0.12035125834E+04  0.40000000000E+03 0.  1.
   -9000005    1    1    2    0  503 -0.27989312622E+03 -0.15207225641E+03 -0.95035175368E+03  0.10791823706E+04  0.40000000000E+03 0.  1.
<mgrwt>
<rscale>  2 0.51133759E+03</rscale>
<asrwt>0</asrwt>
<pdfrwt beam="1">  1       21 0.18681440E-01 0.51133759E+03</pdfrwt>
<pdfrwt beam="2">  1       21 0.33250241E+00 0.51133759E+03</pdfrwt>
<totfact> 0.44172056E+02</totfact>
</mgrwt>
</event>
<event>
 4    1  0.4857079E-002  0.5195766E+03  0.7818608E-02  0.1008792E+00
         21   -1    0    0  503  502  0.00000000000E+00  0.00000000000E+00  0.17075899596E+03  0.17075899596E+03  0.00000000000E+00 0.  1.
         21   -1    0    0  501  503 -0.00000000000E+00 -0.00000000000E+00 -0.20973564287E+04  0.20973564287E+04  0.00000000000E+00 0. -1.
    9000005    1    1    2  501    0  0.10574806506E+03 -0.31428841402E+03 -0.15260269846E+04  0.16120540370E+04  0.40000000000E+03 0. -1.
   -9000005    1    1    2    0  502 -0.10574806506E+03  0.31428841402E+03 -0.40057044810E+03  0.65606138763E+03  0.40000000000E+03 0.  1.
<mgrwt>
<rscale>  2 0.51957662E+03</rscale>
<asrwt>0</asrwt>
<pdfrwt beam="1">  1       21 0.26270615E-01 0.51957662E+03</pdfrwt>
<pdfrwt beam="2">  1       21 0.32267022E+00 0.51957662E+03</pdfrwt>
<totfact> 0.26165332E+02</totfact>
</mgrwt>
</event>
<event>
 4    1  0.4857079E-002  0.4581720E+03  0.7818608E-02  0.1025313E+00
         21   -1    0    0  503  502  0.00000000000E+00  0.00000000000E+00  0.20542719875E+03  0.20542719875E+03  0.00000000000E+00 0. -1.
         21   -1    0    0  501  503 -0.00000000000E+00 -0.00000000000E+00 -0.10225946107E+04  0.10225946107E+04  0.00000000000E+00 0. -1.
    9000005    1    1    2  501    0  0.22183062179E+03  0.26696653090E+02 -0.39232954966E+03  0.60319483717E+03  0.40000000000E+03 0. -1.
   -9000005    1    1    2    0  502 -0.22183062179E+03 -0.26696653090E+02 -0.42483786228E+03  0.62482697227E+03  0.40000000000E+03 0. -1.
<mgrwt>
<rscale>  2 0.45817195E+03</rscale>
<asrwt>0</asrwt>
<pdfrwt beam="1">  1       21 0.31604185E-01 0.45817195E+03</pdfrwt>
<pdfrwt beam="2">  1       21 0.15732225E+00 0.45817195E+03</pdfrwt>
<totfact> 0.21633618E+03</totfact>
</mgrwt>
</event>
<event>
 4    1  0.4857079E-002  0.4105782E+03  0.7818608E-02  0.1040177E+00
         21   -1    0    0  503  502  0.00000000000E+00  0.00000000000E+00  0.17163484188E+03  0.17163484188E+03  0.00000000000E+00 0.  1.
         21   -1    0    0  501  503 -0.00000000000E+00 -0.00000000000E+00 -0.10308089210E+04  0.10308089210E+04  0.00000000000E+00 0.  1.
    9000005    1    1    2  501    0 -0.56238905138E+02 -0.73564098896E+02 -0.56018617499E+03  0.69453800598E+03  0.40000000000E+03 0.  1.
   -9000005    1    1    2    0  502  0.56238905138E+02  0.73564098896E+02 -0.29898790415E+03  0.50790575693E+03  0.40000000000E+03 0.  1.
<mgrwt>
<rscale>  2 0.41057824E+03</rscale>
<asrwt>0</asrwt>
<pdfrwt beam="1">  1       21 0.26405361E-01 0.41057824E+03</pdfrwt>
<pdfrwt beam="2">  1       21 0.15858599E+00 0.41057824E+03</pdfrwt>
<totfact> 0.30768166E+03</totfact>
</mgrwt>
</event>
<event>
 4    1  0.4857079E-002  0.4093699E+03  0.7818608E-02  0.1040583E+00
         21   -1    0    0  503  502  0.00000000000E+00  0.00000000000E+00  0.18349870835E+04  0.18349870835E+04  0.00000000000E+00 0.  1.
         21   -1    0    0  501  503 -0.00000000000E+00 -0.00000000000E+00 -0.56955888156E+03  0.56955888156E+03  0.00000000000E+00 0.  1.
    9000005    1    1    2  501    0 -0.87006325337E+02 -0.36938566737E+01 -0.46895981230E+03  0.62250064319E+03  0.40000000000E+03 0.  1.
   -9000005    1    1    2    0  502  0.87006325337E+02  0.36938566737E+01  0.17343880142E+04  0.17820453219E+04  0.40000000000E+03 0.  1.
<mgrwt>
<rscale>  2 0.40936994E+03</rscale>
<asrwt>0</asrwt>
<pdfrwt beam="1">  1       21 0.28230570E+00 0.40936994E+03</pdfrwt>
<pdfrwt beam="2">  1       21 0.87624444E-01 0.40936994E+03</pdfrwt>
<totfact> 0.37781558E+01</totfact>
</mgrwt>
</event>
<event>
 4    1  0.4857079E-002  0.4570262E+03  0.7818608E-02  0.1025647E+00
         21   -1    0    0  501  502  0.00000000000E+00  0.00000000000E+00  0.79253531022E+03  0.79253531022E+03  0.00000000000E+00 0.  1.
         21   -1    0    0  502  503 -0.00000000000E+00 -0.00000000000E+00 -0.33454930838E+03  0.33454930838E+03  0.00000000000E+00 0.  1.
    9000005    1    1    2  501    0 -0.11860535642E+03 -0.18656295915E+03 -0.30617592282E+02  0.45805065796E+03  0.40000000000E+03 0.  1.
   -9000005    1    1    2    0  503  0.11860535642E+03  0.18656295915E+03  0.48860359412E+03  0.66903396064E+03  0.40000000000E+03 0.  1.
<mgrwt>
<rscale>  2 0.45702622E+03</rscale>
<asrwt>0</asrwt>
<pdfrwt beam="1">  1       21 0.12192851E+00 0.45702622E+03</pdfrwt>
<pdfrwt beam="2">  1       21 0.51469124E-01 0.45702622E+03</pdfrwt>
<totfact> 0.15542995E+03</totfact>
</mgrwt>
</event>
<event>
 4    1  0.4857079E-002  0.4171025E+03  0.7818608E-02  0.1038013E+00
         21   -1    0    0  501  502  0.00000000000E+00  0.00000000000E+00  0.12163220654E+04  0.12163220654E+04  0.00000000000E+00 0. -1.
         21   -1    0    0  502  503 -0.00000000000E+00 -0.00000000000E+00 -0.14773410343E+03  0.14773410343E+03  0.00000000000E+00 0. -1.
    9000005    1    1    2  501    0  0.81813296521E+02  0.85329151381E+02  0.41263310593E+03  0.58672017152E+03  0.40000000000E+03 0.  1.
   -9000005    1    1    2    0  503 -0.81813296521E+02 -0.85329151381E+02  0.65595485607E+03  0.77733599735E+03  0.40000000000E+03 0.  1.
<mgrwt>
<rscale>  2 0.41710248E+03</rscale>
<asrwt>0</asrwt>
<pdfrwt beam="1">  1       21 0.18712646E+00 0.41710248E+03</pdfrwt>
<pdfrwt beam="2">  1       21 0.22728324E-01 0.41710248E+03</pdfrwt>
<totfact> 0.25562334E+03</totfact>
</mgrwt>
</event>
<event>
 4    1  0.4857079E-002  0.4256173E+03  0.7818608E-02  0.1035253E+00
         21   -1    0    0  501  502  0.00000000000E+00  0.00000000000E+00  0.96863911636E+03  0.96863911636E+03  0.00000000000E+00 0.  1.
         21   -1    0    0  502  503 -0.00000000000E+00 -0.00000000000E+00 -0.20034409088E+03  0.20034409088E+03  0.00000000000E+00 0.  1.
    9000005    1    1    2  501    0 -0.14255391321E+03 -0.28783050720E+02  0.53490873033E+03  0.68357693932E+03  0.40000000000E+03 0.  1.
   -9000005    1    1    2    0  503  0.14255391321E+03  0.28783050720E+02  0.23338629515E+03  0.48540626793E+03  0.40000000000E+03 0.  1.
<mgrwt>
<rscale>  2 0.42561730E+03</rscale>
<asrwt>0</asrwt>
<pdfrwt beam="1">  1       21 0.14902140E+00 0.42561730E+03</pdfrwt>
<pdfrwt beam="2">  1       21 0.30822168E-01 0.42561730E+03</pdfrwt>
<totfact> 0.26718434E+03</totfact>
</mgrwt>
</event>
<event>
 4    1  0.4857079E-002  0.5217593E+03  0.7818608E-02  0.1008250E+00
         21   -1    0    0  503  502  0.00000000000E+00  0.00000000000E+00  0.21374284531E+03  0.21374284531E+03  0.00000000000E+00 0.  1.
         21   -1    0    0  501  503 -0.00000000000E+00 -0.00000000000E+00 -0.19881572680E+04  0.19881572680E+04  0.00000000000E+00 0.  1.
    9000005    1    1    2  501    0 -0.15112235291E+03  0.29898962740E+03 -0.15472114590E+04  0.16328184412E+04  0.40000000000E+03 0.  1.
   -9000005    1    1    2    0  502  0.15112235291E+03 -0.29898962740E+03 -0.22720296361E+03  0.56908167209E+03  0.40000000000E+03 0.  1.
<mgrwt>
<rscale>  2 0.52175930E+03</rscale>
<asrwt>0</asrwt>
<pdfrwt beam="1">  1       21 0.32883515E-01 0.52175930E+03</pdfrwt>
<pdfrwt beam="2">  1       21 0.30587034E+00 0.52175930E+03</pdfrwt>
<totfact> 0.21147787E+02</totfact>
</mgrwt>
</event>
<event>
 4    1  0.4857079E-002  0.4221152E+03  0.7818608E-02  0.1036380E+00
         21   -1    0    0  503  502  0.00000000000E+00  0.00000000000E+00  0.20472826682E+03  0.20472826682E+03  0.00000000000E+00 0. -1.
         21   -1    0    0  501  503 -0.00000000000E+00 -0.00000000000E+00 -0.11386271897E+04  0.11386271897E+04  0.00000000000E+00 0. -1.
    9000005    1    1    2  501    0  0.11432259495E+03  0.71495652983E+02 -0.79299458885E+03  0.89834386626E+03  0.40000000000E+03 0. -1.
   -9000005    1    1    2    0  502 -0.11432259495E+03 -0.71495652983E+02 -0.14090433402E+03  0.44501159025E+03  0.40000000000E+03 0. -1.
<mgrwt>
<rscale>  2 0.42211525E+03</rscale>
<asrwt>0</asrwt>
<pdfrwt beam="1">  1       21 0.31496657E-01 0.42211525E+03</pdfrwt>
<pdfrwt beam="2">  1       21 0.17517341E+00 0.42211525E+03</pdfrwt>
<totfact> 0.16326551E+03</totfact>
</mgrwt>
</event>
<event>
 4    1  0.4857079E-002  0.4447943E+03  0.7818608E-02  0.1029286E+00
         21   -1    0    0  501  502  0.00000000000E+00  0.00000000000E+00  0.99592406117E+02  0.99592406117E+02  0.00000000000E+00 0.  1.
         21   -1    0    0  502  503 -0.00000000000E+00 -0.00000000000E+00 -0.22057083731E+04  0.22057083731E+04  0.00000000000E+00 0.  1.
    9000005    1    1    2  501    0 -0.14713934941E+03  0.12724763647E+03 -0.68969902841E+03  0.82068672398E+03  0.40000000000E+03 0. -1.
   -9000005    1    1    2    0  503  0.14713934941E+03 -0.12724763647E+03 -0.14164169386E+04  0.14846140553E+04  0.40000000000E+03 0. -1.
<mgrwt>
<rscale>  2 0.44479428E+03</rscale>
<asrwt>0</asrwt>
<pdfrwt beam="1">  1       21 0.15321910E-01 0.44479428E+03</pdfrwt>
<pdfrwt beam="2">  1       21 0.33933972E+00 0.44479428E+03</pdfrwt>
<totfact> 0.60418867E+02</totfact>
</mgrwt>
</event>
<event>
 4    1  0.4857079E-002  0.4080828E+03  0.7818608E-02  0.1041016E+00
         21   -1    0    0  503  502  0.00000000000E+00  0.00000000000E+00  0.28106685005E+03  0.28106685005E+03  0.00000000000E+00 0.  1.
         21   -1    0    0  501  503 -0.00000000000E+00 -0.00000000000E+00 -0.10099817824E+04  0.10099817824E+04  0.00000000000E+00 0.  1.
    9000005    1    1    2  501    0 -0.14684052968E+02 -0.79473187647E+02 -0.77948367708E+03  0.87984453842E+03  0.40000000000E+03 0.  1.
   -9000005    1    1    2    0  502  0.14684052968E+02  0.79473187647E+02  0.50568744756E+02  0.41120409399E+03  0.40000000000E+03 0.  1.
<mgrwt>
<rscale>  2 0.40808285E+03</rscale>
<asrwt>0</asrwt>
<pdfrwt beam="1">  1       21 0.43241055E-01 0.40808285E+03</pdfrwt>
<pdfrwt beam="2">  1       21 0.15538181E+00 0.40808285E+03</pdfrwt>
<totfact> 0.12074750E+03</totfact>
</mgrwt>
</event>
<event>
 4    1  0.4857079E-002  0.6038297E+03  0.7818608E-02  0.9897492E-01
         21   -1    0    0  503  502  0.00000000000E+00  0.00000000000E+00  0.20217361584E+03  0.20217361584E+03  0.00000000000E+00 0.  1.
         21   -1    0    0  501  503 -0.00000000000E+00 -0.00000000000E+00 -0.22061374911E+04  0.22061374911E+04  0.00000000000E+00 0. -1.
    9000005    1    1    2  501    0  0.37807559394E+03 -0.24833268164E+03 -0.48752425149E+03  0.77607356049E+03  0.40000000000E+03 0.  1.
   -9000005    1    1    2    0  502 -0.37807559394E+03  0.24833268164E+03 -0.15164396238E+04  0.16322375465E+04  0.40000000000E+03 0. -1.
<mgrwt>
<rscale>  2 0.60382967E+03</rscale>
<asrwt>0</asrwt>
<pdfrwt beam="1">  1       21 0.31103633E-01 0.60382967E+03</pdfrwt>
<pdfrwt beam="2">  1       21 0.33940577E+00 0.60382967E+03</pdfrwt>
<totfact> 0.14171858E+02</totfact>
</mgrwt>
</event>
<event>
 4    1  0.4857079E-002  0.4076047E+03  0.7818608E-02  0.1041178E+00
         21   -1    0    0  501  502  0.00000000000E+00  0.00000000000E+00  0.91063827929E+03  0.91063827929E+03  0.00000000000E+00 0.  1.
         21   -1    0    0  502  503 -0.00000000000E+00 -0.00000000000E+00 -0.42044750645E+03  0.42044750645E+03  0.00000000000E+00 0.  1.
    9000005    1    1    2  501    0  0.72251287575E+02 -0.30354208286E+02  0.74583355754E+03  0.84994665837E+03  0.40000000000E+03 0.  1.
   -9000005    1    1    2    0  503 -0.72251287575E+02  0.30354208286E+02 -0.25564278470E+03  0.48113912737E+03  0.40000000000E+03 0.  1.
<mgrwt>
<rscale>  2 0.40760474E+03</rscale>
<asrwt>0</asrwt>
<pdfrwt beam="1">  1       21 0.14009820E+00 0.40760474E+03</pdfrwt>
<pdfrwt beam="2">  1       21 0.64684232E-01 0.40760474E+03</pdfrwt>
<totfact> 0.67339131E+02</totfact>
</mgrwt>
</event>
<event>
 4    1  0.4857079E-002  0.4070317E+03  0.7818608E-02  0.1041372E+00
         21   -1    0    0  501  502  0.00000000000E+00  0.00000000000E+00  0.52365087733E+03  0.52365087733E+03  0.00000000000E+00 0. -1.
         21   -1    0    0  502  503 -0.00000000000E+00 -0.00000000000E+00 -0.50183544905E+03  0.50183544905E+03  0.00000000000E+00 0. -1.
    9000005    1    1    2  501    0  0.90744089621E+01  0.74782586891E+02  0.32260590299E+03  0.51937399708E+03  0.40000000000E+03 0. -1.
   -9000005    1    1    2    0  503 -0.90744089621E+01 -0.74782586891E+02 -0.30079047471E+03  0.50611232931E+03  0.40000000000E+03 0. -1.
<mgrwt>
<rscale>  2 0.40703167E+03</rscale>
<asrwt>0</asrwt>
<pdfrwt beam="1">  1       21 0.80561673E-01 0.40703167E+03</pdfrwt>
<pdfrwt beam="2">  1       21 0.77205454E-01 0.40703167E+03</pdfrwt>
<totfact> 0.17666605E+03</totfact>
</mgrwt>
</event>
<event>
 4    1  0.4857079E-002  0.4939984E+03  0.7818608E-02  0.1015357E+00
         21   -1    0    0  503  502  0.00000000000E+00  0.00000000000E+00  0.22463649892E+03  0.22463649892E+03  0.00000000000E+00 0. -1.
         21   -1    0    0  501  503 -0.00000000000E+00 -0.00000000000E+00 -0.22467199742E+04  0.22467199742E+04  0.00000000000E+00 0.  1.
    9000005    1    1    2  501    0  0.26054145279E+03 -0.12709294050E+03 -0.18990738342E+04  0.19622731440E+04  0.40000000000E+03 0.  1.
   -9000005    1    1    2    0  502 -0.26054145279E+03  0.12709294050E+03 -0.12300964110E+03  0.50908332909E+03  0.40000000000E+03 0. -1.
<mgrwt>
<rscale>  2 0.49399845E+03</rscale>
<asrwt>0</asrwt>
<pdfrwt beam="1">  1       21 0.34559462E-01 0.49399845E+03</pdfrwt>
<pdfrwt beam="2">  1       21 0.34564922E+00 0.49399845E+03</pdfrwt>
<totfact> 0.11120788E+02</totfact>
</mgrwt>
</event>
<event>
 4    1  0.4857079E-002  0.5176425E+03  0.7818608E-02  0.1009274E+00
         21   -1    0    0  503  502  0.00000000000E+00  0.00000000000E+00  0.12609672827E+04  0.12609672827E+04  0.00000000000E+00 0. -1.
         21   -1    0    0  501  503 -0.00000000000E+00 -0.00000000000E+00 -0.25876242947E+03  0.25876242947E+03  0.00000000000E+00 0. -1.
    9000005    1    1    2  501    0  0.17684517663E+03 -0.27691070177E+03  0.17980544485E+03  0.54798152455E+03  0.40000000000E+03 0. -1.
   -9000005    1    1    2    0  502 -0.17684517663E+03  0.27691070177E+03  0.82239940841E+03  0.97174818765E+03  0.40000000000E+03 0. -1.
<mgrwt>
<rscale>  2 0.51764250E+03</rscale>
<asrwt>0</asrwt>
<pdfrwt beam="1">  1       21 0.19399496E+00 0.51764250E+03</pdfrwt>
<pdfrwt beam="2">  1       21 0.39809605E-01 0.51764250E+03</pdfrwt>
<totfact> 0.72066541E+02</totfact>
</mgrwt>
</event>
<event>
 4    1  0.4857079E-002  0.5002920E+03  0.7818608E-02  0.1013703E+00
         21   -1    0    0  503  502  0.00000000000E+00  0.00000000000E+00  0.17981595744E+03  0.17981595744E+03  0.00000000000E+00 0.  1.
         21   -1    0    0  501  503 -0.00000000000E+00 -0.00000000000E+00 -0.17776843829E+04  0.17776843829E+04  0.00000000000E+00 0.  1.
    9000005    1    1    2  501    0 -0.27745997181E+03  0.11536056454E+03 -0.12548632290E+04  0.13509159186E+04  0.40000000000E+03 0.  1.
   -9000005    1    1    2    0  502  0.27745997181E+03 -0.11536056454E+03 -0.34300519646E+03  0.60658442167E+03  0.40000000000E+03 0.  1.
<mgrwt>
<rscale>  2 0.50029201E+03</rscale>
<asrwt>0</asrwt>
<pdfrwt beam="1">  1       21 0.27663994E-01 0.50029201E+03</pdfrwt>
<pdfrwt beam="2">  1       21 0.27348990E+00 0.50029201E+03</pdfrwt>
<totfact> 0.47381550E+02</totfact>
</mgrwt>
</event>
<event>
 4    1  0.4857079E-002  0.4664676E+03  0.7818608E-02  0.1022922E+00
         21   -1    0    0  501  502  0.00000000000E+00  0.00000000000E+00  0.51663585649E+03  0.51663585649E+03  0.00000000000E+00 0.  1.
         21   -1    0    0  502  503 -0.00000000000E+00 -0.00000000000E+00 -0.80540194643E+03  0.80540194643E+03  0.00000000000E+00 0.  1.
    9000005    1    1    2  501    0 -0.17856755136E+03  0.16032971144E+03  0.31218316801E+03  0.56129343231E+03  0.40000000000E+03 0.  1.
   -9000005    1    1    2    0  503  0.17856755136E+03 -0.16032971144E+03 -0.60094925795E+03  0.76074437060E+03  0.40000000000E+03 0.  1.
<mgrwt>
<rscale>  2 0.46646756E+03</rscale>
<asrwt>0</asrwt>
<pdfrwt beam="1">  1       21 0.79482439E-01 0.46646756E+03</pdfrwt>
<pdfrwt beam="2">  1       21 0.12390799E+00 0.46646756E+03</pdfrwt>
<totfact> 0.56641160E+02</totfact>
</mgrwt>
</event>
<event>
 4    1  0.4857079E-002  0.5358443E+03  0.7818608E-02  0.1004825E+00
         21   -1    0    0  501  502  0.00000000000E+00  0.00000000000E+00  0.12196488444E+03  0.12196488444E+03  0.00000000000E+00 0.  1.
         21   -1    0    0  502  503 -0.00000000000E+00 -0.00000000000E+00 -0.23792220608E+04  0.23792220608E+04  0.00000000000E+00 0.  1.
    9000005    1    1    2  501    0 -0.35311191302E+03 -0.49407846205E+02 -0.12568914549E+04  0.13663474257E+04  0.40000000000E+03 0.  1.
   -9000005    1    1    2    0  503  0.35311191302E+03  0.49407846205E+02 -0.10003657215E+04  0.11348395195E+04  0.40000000000E+03 0.  1.
<mgrwt>
<rscale>  2 0.53584434E+03</rscale>
<asrwt>0</asrwt>
<pdfrwt beam="1">  1       21 0.18763832E-01 0.53584434E+03</pdfrwt>
<pdfrwt beam="2">  1       21 0.36603410E+00 0.53584434E+03</pdfrwt>
<totfact> 0.26854708E+02</totfact>
</mgrwt>
</event>
<event>
 4    1  0.4857079E-002  0.4216543E+03  0.7818608E-02  0.1036529E+00
         21   -1    0    0  501  502  0.00000000000E+00  0.00000000000E+00  0.18561521138E+04  0.18561521138E+04  0.00000000000E+00 0.  1.
         21   -1    0    0  502  503 -0.00000000000E+00 -0.00000000000E+00 -0.32857648881E+03  0.32857648881E+03  0.00000000000E+00 0.  1.
    9000005    1    1    2  501    0 -0.13898643059E+02 -0.13266201332E+03  0.16832468322E+04  0.17352556815E+04  0.40000000000E+03 0.  1.
   -9000005    1    1    2    0  503  0.13898643059E+02  0.13266201332E+03 -0.15567120722E+03  0.44947292111E+03  0.40000000000E+03 0.  1.
<mgrwt>
<rscale>  2 0.42165434E+03</rscale>
<asrwt>0</asrwt>
<pdfrwt beam="1">  1       21 0.28556186E+00 0.42165434E+03</pdfrwt>
<pdfrwt beam="2">  1       21 0.50550230E-01 0.42165434E+03</pdfrwt>
<totfact> 0.12217203E+02</totfact>
</mgrwt>
</event>
<event>
 4    1  0.4857079E-002  0.4621881E+03  0.7818608E-02  0.1024149E+00
         21   -1    0    0  501  502  0.00000000000E+00  0.00000000000E+00  0.86732221204E+03  0.86732221204E+03  0.00000000000E+00 0.  1.
         21   -1    0    0  502  503 -0.00000000000E+00 -0.00000000000E+00 -0.28625816472E+03  0.28625816472E+03  0.00000000000E+00 0. -1.
    9000005    1    1    2  501    0 -0.22438161683E+03 -0.57190229325E+02  0.75023514177E+02  0.46823750382E+03  0.40000000000E+03 0. -1.
   -9000005    1    1    2    0  503  0.22438161683E+03  0.57190229325E+02  0.50604053314E+03  0.68534287294E+03  0.40000000000E+03 0.  1.
<mgrwt>
<rscale>  2 0.46218809E+03</rscale>
<asrwt>0</asrwt>
<pdfrwt beam="1">  1       21 0.13343419E+00 0.46218809E+03</pdfrwt>
<pdfrwt beam="2">  1       21 0.44039718E-01 0.46218809E+03</pdfrwt>
<totfact> 0.17079761E+03</totfact>
</mgrwt>
</event>
<event>
 4    1  0.4857079E-002  0.7203123E+03  0.7818608E-02  0.9683112E-01
         21   -1    0    0  503  502  0.00000000000E+00  0.00000000000E+00  0.79061944476E+03  0.79061944476E+03  0.00000000000E+00 0.  1.
         21   -1    0    0  501  503 -0.00000000000E+00 -0.00000000000E+00 -0.83931676637E+03  0.83931676637E+03  0.00000000000E+00 0. -1.
    9000005    1    1    2  501    0  0.22291124864E+03  0.55602194737E+03 -0.40495295712E+03  0.82633935414E+03  0.40000000000E+03 0. -1.
   -9000005    1    1    2    0  502 -0.22291124864E+03 -0.55602194737E+03  0.35625563550E+03  0.80359685699E+03  0.40000000000E+03 0.  1.
<mgrwt>
<rscale>  2 0.72031231E+03</rscale>
<asrwt>0</asrwt>
<pdfrwt beam="1">  1       21 0.12163376E+00 0.72031231E+03</pdfrwt>
<pdfrwt beam="2">  1       21 0.12912566E+00 0.72031231E+03</pdfrwt>
<totfact> 0.16451855E+02</totfact>
</mgrwt>
</event>
<event>
 4    1  0.4857079E-002  0.4031481E+03  0.7818608E-02  0.1042695E+00
         21   -1    0    0  503  502  0.00000000000E+00  0.00000000000E+00  0.12033549108E+04  0.12033549108E+04  0.00000000000E+00 0.  1.
         21   -1    0    0  501  503 -0.00000000000E+00 -0.00000000000E+00 -0.13874779921E+03  0.13874779921E+03  0.00000000000E+00 0.  1.
    9000005    1    1    2  501    0  0.46553112857E+02  0.19004705412E+02  0.64166567419E+03  0.75780156280E+03  0.40000000000E+03 0.  1.
   -9000005    1    1    2    0  502 -0.46553112857E+02 -0.19004705412E+02  0.42294143737E+03  0.58430114717E+03  0.40000000000E+03 0.  1.
<mgrwt>
<rscale>  2 0.40314808E+03</rscale>
<asrwt>0</asrwt>
<pdfrwt beam="1">  1       21 0.18513152E+00 0.40314808E+03</pdfrwt>
<pdfrwt beam="2">  1       21 0.21345816E-01 0.40314808E+03</pdfrwt>
<totfact> 0.29943712E+03</totfact>
</mgrwt>
</event>
<event>
 4    1  0.4857079E-002  0.5791599E+03  0.7818608E-02  0.9949611E-01
         21   -1    0    0  501  502  0.00000000000E+00  0.00000000000E+00  0.79102128120E+03  0.79102128120E+03  0.00000000000E+00 0. -1.
         21   -1    0    0  502  503 -0.00000000000E+00 -0.00000000000E+00 -0.75888978350E+03  0.75888978350E+03  0.00000000000E+00 0.  1.
    9000005    1    1    2  501    0 -0.37746050275E+03 -0.18152082735E+03  0.53083328185E+03  0.78562727486E+03  0.40000000000E+03 0. -1.
   -9000005    1    1    2    0  503  0.37746050275E+03  0.18152082735E+03 -0.49870178414E+03  0.76428378983E+03  0.40000000000E+03 0.  1.
<mgrwt>
<rscale>  2 0.57915995E+03</rscale>
<asrwt>0</asrwt>
<pdfrwt beam="1">  1       21 0.12169558E+00 0.57915995E+03</pdfrwt>
<pdfrwt beam="2">  1       21 0.11675227E+00 0.57915995E+03</pdfrwt>
<totfact> 0.22374813E+02</totfact>
</mgrwt>
</event>
<event>
 4    1  0.4857079E-002  0.4165238E+03  0.7818608E-02  0.1038204E+00
         21   -1    0    0  501  502  0.00000000000E+00  0.00000000000E+00  0.13887503829E+04  0.13887503829E+04  0.00000000000E+00 0.  1.
         21   -1    0    0  502  503 -0.00000000000E+00 -0.00000000000E+00 -0.14513158812E+03  0.14513158812E+03  0.00000000000E+00 0.  1.
    9000005    1    1    2  501    0 -0.70140137306E+02  0.92587568326E+02  0.33564969904E+03  0.53493253512E+03  0.40000000000E+03 0.  1.
   -9000005    1    1    2    0  503  0.70140137306E+02 -0.92587568326E+02  0.90796909576E+03  0.99894943592E+03  0.40000000000E+03 0.  1.
<mgrwt>
<rscale>  2 0.41652382E+03</rscale>
<asrwt>0</asrwt>
<pdfrwt beam="1">  1       21 0.21365390E+00 0.41652382E+03</pdfrwt>
<pdfrwt beam="2">  1       21 0.22327938E-01 0.41652382E+03</pdfrwt>
<totfact> 0.17626839E+03</totfact>
</mgrwt>
</event>
<event>
 4    1  0.4857079E-002  0.4347412E+03  0.7818608E-02  0.1032373E+00
         21   -1    0    0  503  502  0.00000000000E+00  0.00000000000E+00  0.26236821518E+03  0.26236821518E+03  0.00000000000E+00 0. -1.
         21   -1    0    0  501  503 -0.00000000000E+00 -0.00000000000E+00 -0.92169074227E+03  0.92169074227E+03  0.00000000000E+00 0.  1.
    9000005    1    1    2  501    0 -0.16899980571E+03 -0.20950759622E+02 -0.60635831330E+03  0.74610339281E+03  0.40000000000E+03 0.  1.
   -9000005    1    1    2    0  502  0.16899980571E+03  0.20950759622E+02 -0.52964213797E+02  0.43795556464E+03  0.40000000000E+03 0. -1.
<mgrwt>
<rscale>  2 0.43474115E+03</rscale>
<asrwt>0</asrwt>
<pdfrwt beam="1">  1       21 0.40364341E-01 0.43474115E+03</pdfrwt>
<pdfrwt beam="2">  1       21 0.14179858E+00 0.43474115E+03</pdfrwt>
<totfact> 0.17621290E+03</totfact>
</mgrwt>
</event>
<event>
 4    1  0.4857079E-002  0.4377361E+03  0.7818608E-02  0.1031444E+00
         21   -1    0    0  501  502  0.00000000000E+00  0.00000000000E+00  0.16928682440E+03  0.16928682440E+03  0.00000000000E+00 0.  1.
         21   -1    0    0  502  503 -0.00000000000E+00 -0.00000000000E+00 -0.16235773765E+04  0.16235773765E+04  0.00000000000E+00 0.  1.
    9000005    1    1    2  501    0 -0.17631234656E+03 -0.22952499406E+02 -0.23382544781E+03  0.49627331262E+03  0.40000000000E+03 0.  1.
   -9000005    1    1    2    0  503  0.17631234656E+03  0.22952499406E+02 -0.12204651043E+04  0.12965908883E+04  0.40000000000E+03 0.  1.
<mgrwt>
<rscale>  2 0.43773606E+03</rscale>
<asrwt>0</asrwt>
<pdfrwt beam="1">  1       21 0.26044128E-01 0.43773606E+03</pdfrwt>
<pdfrwt beam="2">  1       21 0.24978113E+00 0.43773606E+03</pdfrwt>
<totfact> 0.76825746E+02</totfact>
</mgrwt>
</event>
<event>
 4    1  0.4857079E-002  0.8452317E+03  0.7818608E-02  0.9496759E-01
         21   -1    0    0  503  502  0.00000000000E+00  0.00000000000E+00  0.29440142723E+03  0.29440142723E+03  0.00000000000E+00 0. -1.
         21   -1    0    0  501  503 -0.00000000000E+00 -0.00000000000E+00 -0.25958717165E+04  0.25958717165E+04  0.00000000000E+00 0.  1.
    9000005    1    1    2  501    0  0.74416794637E+03  0.25114092751E+02 -0.15196812696E+04  0.17389214506E+04  0.40000000000E+03 0.  1.
   -9000005    1    1    2    0  502 -0.74416794637E+03 -0.25114092751E+02 -0.78178901963E+03  0.11513516931E+04  0.40000000000E+03 0. -1.
<mgrwt>
<rscale>  2 0.84523171E+03</rscale>
<asrwt>0</asrwt>
<pdfrwt beam="1">  1       21 0.45292527E-01 0.84523171E+03</pdfrwt>
<pdfrwt beam="2">  1       21 0.39936488E+00 0.84523171E+03</pdfrwt>
<totfact> 0.24586576E+01</totfact>
</mgrwt>
</event>
<event>
 4    1  0.4857079E-002  0.4631285E+03  0.7818608E-02  0.1023878E+00
         21   -1    0    0  503  502  0.00000000000E+00  0.00000000000E+00  0.40913930024E+03  0.40913930024E+03  0.00000000000E+00 0.  1.
         21   -1    0    0  501  503 -0.00000000000E+00 -0.00000000000E+00 -0.12576651224E+04  0.12576651224E+04  0.00000000000E+00 0.  1.
    9000005    1    1    2  501    0 -0.19643487341E+03  0.12610042058E+03 -0.10606911772E+04  0.11573909232E+04  0.40000000000E+03 0.  1.
   -9000005    1    1    2    0  502  0.19643487341E+03 -0.12610042058E+03  0.21216535506E+03  0.50941349948E+03  0.40000000000E+03 0.  1.
<mgrwt>
<rscale>  2 0.46312847E+03</rscale>
<asrwt>0</asrwt>
<pdfrwt beam="1">  1       21 0.62944508E-01 0.46312847E+03</pdfrwt>
<pdfrwt beam="2">  1       21 0.19348694E+00 0.46312847E+03</pdfrwt>
<totfact> 0.28006927E+02</totfact>
</mgrwt>
</event>
<event>
 4    1  0.4857079E-002  0.4177021E+03  0.7818608E-02  0.1037817E+00
         21   -1    0    0  501  502  0.00000000000E+00  0.00000000000E+00  0.29448821922E+03  0.29448821922E+03  0.00000000000E+00 0. -1.
         21   -1    0    0  502  503 -0.00000000000E+00 -0.00000000000E+00 -0.59332990907E+03  0.59332990907E+03  0.00000000000E+00 0. -1.
    9000005    1    1    2  501    0 -0.11813609912E+03  0.22778869919E+02 -0.13250738883E+03  0.43821595467E+03  0.40000000000E+03 0. -1.
   -9000005    1    1    2    0  503  0.11813609912E+03 -0.22778869919E+02 -0.16633430102E+03  0.44960217362E+03  0.40000000000E+03 0. -1.
<mgrwt>
<rscale>  2 0.41770206E+03</rscale>
<asrwt>0</asrwt>
<pdfrwt beam="1">  1       21 0.45305880E-01 0.41770206E+03</pdfrwt>
<pdfrwt beam="2">  1       21 0.91281524E-01 0.41770206E+03</pdfrwt>
<totfact> 0.42086657E+03</totfact>
</mgrwt>
</event>
<event>
 4    1  0.4857079E-002  0.4070558E+03  0.7818608E-02  0.1041364E+00
         21   -1    0    0  503  502  0.00000000000E+00  0.00000000000E+00  0.19357216100E+04  0.19357216100E+04  0.00000000000E+00 0.  1.
         21   -1    0    0  501  503 -0.00000000000E+00 -0.00000000000E+00 -0.11163748687E+03  0.11163748687E+03  0.00000000000E+00 0.  1.
    9000005    1    1    2  501    0  0.38731194244E+02 -0.64763403166E+02  0.41764824005E+03  0.58320190005E+03  0.40000000000E+03 0.  1.
   -9000005    1    1    2    0  502 -0.38731194244E+02  0.64763403166E+02  0.14064358830E+04  0.14641571968E+04  0.40000000000E+03 0.  1.
<mgrwt>
<rscale>  2 0.40705577E+03</rscale>
<asrwt>0</asrwt>
<pdfrwt beam="1">  1       21 0.29780330E+00 0.40705577E+03</pdfrwt>
<pdfrwt beam="2">  1       21 0.17174999E-01 0.40705577E+03</pdfrwt>
<totfact> 0.88857825E+02</totfact>
</mgrwt>
</event>
<event>
 4    1  0.4857079E-002  0.4592485E+03  0.7818608E-02  0.1024999E+00
         21   -1    0    0  501  502  0.00000000000E+00  0.00000000000E+00  0.25522034584E+03  0.25522034584E+03  0.00000000000E+00 0. -1.
         21   -1    0    0  502  503 -0.00000000000E+00 -0.00000000000E+00 -0.12800774992E+04  0.12800774992E+04  0.00000000000E+00 0.  1.
    9000005    1    1    2  501    0 -0.22559771818E+03 -0.38576523165E+01 -0.96944024464E+03  0.10727178566E+04  0.40000000000E+03 0.  1.
   -9000005    1    1    2    0  503  0.22559771818E+03  0.38576523165E+01 -0.55416908702E+02  0.46257998843E+03  0.40000000000E+03 0. -1.
<mgrwt>
<rscale>  2 0.45924853E+03</rscale>
<asrwt>0</asrwt>
<pdfrwt beam="1">  1       21 0.39264668E-01 0.45924853E+03</pdfrwt>
<pdfrwt beam="2">  1       21 0.19693500E+00 0.45924853E+03</pdfrwt>
<totfact> 0.72631467E+02</totfact>
</mgrwt>
</event>
<event>
 4    1  0.4857079E-002  0.4469303E+03  0.7818608E-02  0.1028641E+00
         21   -1    0    0  503  502  0.00000000000E+00  0.00000000000E+00  0.50663731382E+03  0.50663731382E+03  0.00000000000E+00 0. -1.
         21   -1    0    0  501  503 -0.00000000000E+00 -0.00000000000E+00 -0.51832609633E+03  0.51832609633E+03  0.00000000000E+00 0. -1.
    9000005    1    1    2  501    0 -0.93853234199E+02 -0.17589280902E+03 -0.25657294383E+03  0.51534103790E+03  0.40000000000E+03 0. -1.
   -9000005    1    1    2    0  502  0.93853234199E+02  0.17589280902E+03  0.24488416132E+03  0.50962237226E+03  0.40000000000E+03 0. -1.
<mgrwt>
<rscale>  2 0.44693032E+03</rscale>
<asrwt>0</asrwt>
<pdfrwt beam="1">  1       21 0.77944202E-01 0.44693032E+03</pdfrwt>
<pdfrwt beam="2">  1       21 0.79742477E-01 0.44693032E+03</pdfrwt>
<totfact> 0.17415915E+03</totfact>
</mgrwt>
</event>
<event>
 4    1  0.4857079E-002  0.5250149E+03  0.7818608E-02  0.1007448E+00
         21   -1    0    0  501  502  0.00000000000E+00  0.00000000000E+00  0.31311400097E+03  0.31311400097E+03  0.00000000000E+00 0. -1.
         21   -1    0    0  502  503 -0.00000000000E+00 -0.00000000000E+00 -0.12220611129E+04  0.12220611129E+04  0.00000000000E+00 0. -1.
    9000005    1    1    2  501    0 -0.32718108007E+03 -0.92699319673E+02 -0.48563450253E+02  0.52725613484E+03  0.40000000000E+03 0. -1.
   -9000005    1    1    2    0  503  0.32718108007E+03  0.92699319673E+02 -0.86038366171E+03  0.10079189791E+04  0.40000000000E+03 0. -1.
<mgrwt>
<rscale>  2 0.52501488E+03</rscale>
<asrwt>0</asrwt>
<pdfrwt beam="1">  1       21 0.48171385E-01 0.52501488E+03</pdfrwt>
<pdfrwt beam="2">  1       21 0.18800940E+00 0.52501488E+03</pdfrwt>
<totfact> 0.52987257E+02</totfact>
</mgrwt>
</event>
<event>
 4    1  0.4857079E-002  0.4043859E+03  0.7818608E-02  0.1042271E+00
         21   -1    0    0  503  502  0.00000000000E+00  0.00000000000E+00  0.22459641466E+03  0.22459641466E+03  0.00000000000E+00 0. -1.
         21   -1    0    0  501  503 -0.00000000000E+00 -0.00000000000E+00 -0.74579618046E+03  0.74579618046E+03  0.00000000000E+00 0. -1.
    9000005    1    1    2  501    0  0.59277459379E+02  0.37644297251E+01 -0.18585468394E+03  0.44505050462E+03  0.40000000000E+03 0. -1.
   -9000005    1    1    2    0  502 -0.59277459379E+02 -0.37644297251E+01 -0.33534508186E+03  0.52534209050E+03  0.40000000000E+03 0. -1.
<mgrwt>
<rscale>  2 0.40438594E+03</rscale>
<asrwt>0</asrwt>
<pdfrwt beam="1">  1       21 0.34553295E-01 0.40438594E+03</pdfrwt>
<pdfrwt beam="2">  1       21 0.11473787E+00 0.40438594E+03</pdfrwt>
<totfact> 0.42267918E+03</totfact>
</mgrwt>
</event>
<event>
 4    1  0.4857079E-002  0.4162471E+03  0.7818608E-02  0.1038295E+00
         21   -1    0    0  501  502  0.00000000000E+00  0.00000000000E+00  0.74195886528E+03  0.74195886528E+03  0.00000000000E+00 0.  1.
         21   -1    0    0  502  503 -0.00000000000E+00 -0.00000000000E+00 -0.33612526046E+03  0.33612526046E+03  0.00000000000E+00 0.  1.
    9000005    1    1    2  501    0 -0.53642566087E+02  0.10190254986E+03  0.50074001686E+03  0.65115452778E+03  0.40000000000E+03 0.  1.
   -9000005    1    1    2    0  503  0.53642566087E+02 -0.10190254986E+03 -0.94906412035E+02  0.42692959795E+03  0.40000000000E+03 0.  1.
<mgrwt>
<rscale>  2 0.41624711E+03</rscale>
<asrwt>0</asrwt>
<pdfrwt beam="1">  1       21 0.11414752E+00 0.41624711E+03</pdfrwt>
<pdfrwt beam="2">  1       21 0.51711579E-01 0.41624711E+03</pdfrwt>
<totfact> 0.18473490E+03</totfact>
</mgrwt>
</event>
<event>
 4    1  0.4857079E-002  0.5033090E+03  0.7818608E-02  0.1012919E+00
         21   -1    0    0  503  502  0.00000000000E+00  0.00000000000E+00  0.10311122968E+03  0.10311122968E+03  0.00000000000E+00 0. -1.
         21   -1    0    0  501  503 -0.00000000000E+00 -0.00000000000E+00 -0.30014934388E+04  0.30014934388E+04  0.00000000000E+00 0. -1.
    9000005    1    1    2  501    0  0.19957861927E+03 -0.23127547388E+03 -0.21104902848E+04  0.21696749094E+04  0.40000000000E+03 0. -1.
   -9000005    1    1    2    0  502 -0.19957861927E+03  0.23127547388E+03 -0.78789192430E+03  0.93492975911E+03  0.40000000000E+03 0. -1.
<mgrwt>
<rscale>  2 0.50330902E+03</rscale>
<asrwt>0</asrwt>
<pdfrwt beam="1">  1       21 0.15863267E-01 0.50330902E+03</pdfrwt>
<pdfrwt beam="2">  1       21 0.46176818E+00 0.50330902E+03</pdfrwt>
<totfact> 0.88689533E+01</totfact>
</mgrwt>
</event>
<event>
 4    1  0.4857079E-002  0.7563115E+03  0.7818608E-02  0.9625500E-01
         21   -1    0    0  501  502  0.00000000000E+00  0.00000000000E+00  0.32116493898E+04  0.32116493898E+04  0.00000000000E+00 0. -1.
         21   -1    0    0  502  503 -0.00000000000E+00 -0.00000000000E+00 -0.24830394881E+03  0.24830394881E+03  0.00000000000E+00 0.  1.
    9000005    1    1    2  501    0  0.64186060186E+03 -0.46942965375E+01  0.24015234252E+04  0.25178009910E+04  0.40000000000E+03 0. -1.
   -9000005    1    1    2    0  503 -0.64186060186E+03  0.46942965375E+01  0.56182201581E+03  0.94215234760E+03  0.40000000000E+03 0. -1.
<mgrwt>
<rscale>  2 0.75631149E+03</rscale>
<asrwt>0</asrwt>
<pdfrwt beam="1">  1       21 0.49409988E+00 0.75631149E+03</pdfrwt>
<pdfrwt beam="2">  1       21 0.38200610E-01 0.75631149E+03</pdfrwt>
<totfact> 0.82255622E+00</totfact>
</mgrwt>
</event>
<event>
 4    1  0.4857079E-002  0.4301022E+03  0.7818608E-02  0.1033828E+00
         21   -1    0    0  503  502  0.00000000000E+00  0.00000000000E+00  0.72459811941E+03  0.72459811941E+03  0.00000000000E+00 0. -1.
         21   -1    0    0  501  503 -0.00000000000E+00 -0.00000000000E+00 -0.25816261662E+03  0.25816261662E+03  0.00000000000E+00 0.  1.
    9000005    1    1    2  501    0 -0.79783551631E+02  0.13646424143E+03  0.18144973426E+03  0.46681035803E+03  0.40000000000E+03 0.  1.
   -9000005    1    1    2    0  502  0.79783551631E+02 -0.13646424143E+03  0.28498576854E+03  0.51595037801E+03  0.40000000000E+03 0. -1.
<mgrwt>
<rscale>  2 0.43010220E+03</rscale>
<asrwt>0</asrwt>
<pdfrwt beam="1">  1       21 0.11147663E+00 0.43010220E+03</pdfrwt>
<pdfrwt beam="2">  1       21 0.39717326E-01 0.43010220E+03</pdfrwt>
<totfact> 0.33871307E+03</totfact>
</mgrwt>
</event>
<event>
 4    1  0.4857079E-002  0.4602256E+03  0.7818608E-02  0.1024716E+00
         21   -1    0    0  501  502  0.00000000000E+00  0.00000000000E+00  0.12355578075E+04  0.12355578075E+04  0.00000000000E+00 0.  1.
         21   -1    0    0  502  503 -0.00000000000E+00 -0.00000000000E+00 -0.21925793794E+03  0.21925793794E+03  0.00000000000E+00 0. -1.
    9000005    1    1    2  501    0 -0.21347843509E+03  0.78959498100E+02  0.84789720222E+03  0.96474727785E+03  0.40000000000E+03 0.  1.
   -9000005    1    1    2    0  503  0.21347843509E+03 -0.78959498100E+02  0.16840266739E+03  0.49006846764E+03  0.40000000000E+03 0. -1.
<mgrwt>
<rscale>  2 0.46022565E+03</rscale>
<asrwt>0</asrwt>
<pdfrwt beam="1">  1       21 0.19008581E+00 0.46022565E+03</pdfrwt>
<pdfrwt beam="2">  1       21 0.33731991E-01 0.46022565E+03</pdfrwt>
<totfact> 0.11006189E+03</totfact>
</mgrwt>
</event>
<event>
 4    1  0.4857079E-002  0.5204945E+03  0.7818608E-02  0.1008564E+00
         21   -1    0    0  503  502  0.00000000000E+00  0.00000000000E+00  0.12887897799E+03  0.12887897799E+03  0.00000000000E+00 0. -1.
         21   -1    0    0  501  503 -0.00000000000E+00 -0.00000000000E+00 -0.23674986245E+04  0.23674986245E+04  0.00000000000E+00 0.  1.
    9000005    1    1    2  501    0 -0.30923016138E+03  0.12365751723E+03 -0.15372341058E+04  0.16229612350E+04  0.40000000000E+03 0.  1.
   -9000005    1    1    2    0  502  0.30923016138E+03 -0.12365751723E+03 -0.70138554073E+03  0.87341636750E+03  0.40000000000E+03 0. -1.
<mgrwt>
<rscale>  2 0.52049445E+03</rscale>
<asrwt>0</asrwt>
<pdfrwt beam="1">  1       21 0.19827536E-01 0.52049445E+03</pdfrwt>
<pdfrwt beam="2">  1       21 0.36423053E+00 0.52049445E+03</pdfrwt>
<totfact> 0.25018178E+02</totfact>
</mgrwt>
</event>
<event>
 4    1  0.4857079E-002  0.4438609E+03  0.7818608E-02  0.1029569E+00
         21   -1    0    0  503  502  0.00000000000E+00  0.00000000000E+00  0.79213926421E+03  0.79213926421E+03  0.00000000000E+00 0.  1.
         21   -1    0    0  501  503 -0.00000000000E+00 -0.00000000000E+00 -0.39890768618E+03  0.39890768618E+03  0.00000000000E+00 0.  1.
    9000005    1    1    2  501    0 -0.37103159624E+02  0.18877457823E+03 -0.16880660928E+03  0.47487699163E+03  0.40000000000E+03 0.  1.
   -9000005    1    1    2    0  502  0.37103159624E+02 -0.18877457823E+03  0.56203818731E+03  0.71616995876E+03  0.40000000000E+03 0.  1.
<mgrwt>
<rscale>  2 0.44386089E+03</rscale>
<asrwt>0</asrwt>
<pdfrwt beam="1">  1       21 0.12186758E+00 0.44386089E+03</pdfrwt>
<pdfrwt beam="2">  1       21 0.61370414E-01 0.44386089E+03</pdfrwt>
<totfact> 0.10685316E+03</totfact>
</mgrwt>
</event>
<event>
 4    1  0.4857079E-002  0.4651554E+03  0.7818608E-02  0.1023297E+00
         21   -1    0    0  503  502  0.00000000000E+00  0.00000000000E+00  0.46631017525E+03  0.46631017525E+03  0.00000000000E+00 0.  1.
         21   -1    0    0  501  503 -0.00000000000E+00 -0.00000000000E+00 -0.62416856330E+03  0.62416856330E+03  0.00000000000E+00 0.  1.
    9000005    1    1    2  501    0 -0.16888725271E+03 -0.16687317265E+03 -0.35512694451E+03  0.58522192935E+03  0.40000000000E+03 0.  1.
   -9000005    1    1    2    0  502  0.16888725271E+03  0.16687317265E+03  0.19726855645E+03  0.50525680920E+03  0.40000000000E+03 0.  1.
<mgrwt>
<rscale>  2 0.46515541E+03</rscale>
<asrwt>0</asrwt>
<pdfrwt beam="1">  1       21 0.71740027E-01 0.46515541E+03</pdfrwt>
<pdfrwt beam="2">  1       21 0.96025933E-01 0.46515541E+03</pdfrwt>
<totfact> 0.13488742E+03</totfact>
</mgrwt>
</event>
<event>
 4    1  0.4857079E-002  0.6438505E+03  0.7818608E-02  0.9818387E-01
         21   -1    0    0  503  502  0.00000000000E+00  0.00000000000E+00  0.35616784345E+03  0.35616784345E+03  0.00000000000E+00 0. -1.
         21   -1    0    0  501  503 -0.00000000000E+00 -0.00000000000E+00 -0.13125214235E+04  0.13125214235E+04  0.00000000000E+00 0.  1.
    9000005    1    1    2  501    0  0.48918810187E+03  0.12344429175E+03 -0.75893602778E+03  0.99525242348E+03  0.40000000000E+03 0.  1.
   -9000005    1    1    2    0  502 -0.48918810187E+03 -0.12344429175E+03 -0.19741755226E+03  0.67343684345E+03  0.40000000000E+03 0. -1.
<mgrwt>
<rscale>  2 0.64385052E+03</rscale>
<asrwt>0</asrwt>
<pdfrwt beam="1">  1       21 0.54795052E-01 0.64385052E+03</pdfrwt>
<pdfrwt beam="2">  1       21 0.20192638E+00 0.64385052E+03</pdfrwt>
<totfact> 0.30874018E+02</totfact>
</mgrwt>
</event>
<event>
 4    1  0.4857079E-002  0.5258589E+03  0.7818608E-02  0.1007241E+00
         21   -1    0    0  503  502  0.00000000000E+00  0.00000000000E+00  0.13469291331E+03  0.13469291331E+03  0.00000000000E+00 0. -1.
         21   -1    0    0  501  503 -0.00000000000E+00 -0.00000000000E+00 -0.26075412410E+04  0.26075412410E+04  0.00000000000E+00 0. -1.
    9000005    1    1    2  501    0  0.34133625351E+03 -0.41388471190E+01 -0.18687153103E+04  0.19412945369E+04  0.40000000000E+03 0. -1.
   -9000005    1    1    2    0  502 -0.34133625351E+03  0.41388471190E+01 -0.60413301733E+03  0.80093961736E+03  0.40000000000E+03 0. -1.
<mgrwt>
<rscale>  2 0.52585889E+03</rscale>
<asrwt>0</asrwt>
<pdfrwt beam="1">  1       21 0.20721989E-01 0.52585889E+03</pdfrwt>
<pdfrwt beam="2">  1       21 0.40116014E+00 0.52585889E+03</pdfrwt>
<totfact> 0.13369747E+02</totfact>
</mgrwt>
</event>
<event>
 4    1  0.4857079E-002  0.4064805E+03  0.7818608E-02  0.1041559E+00
         21   -1    0    0  501  502  0.00000000000E+00  0.00000000000E+00  0.11371426588E+04  0.11371426588E+04  0.00000000000E+00 0. -1.
         21   -1    0    0  502  503 -0.00000000000E+00 -0.00000000000E+00 -0.19142797299E+03  0.19142797299E+03  0.00000000000E+00 0. -1.
    9000005    1    1    2  501    0  0.41503521849E+02 -0.59193165114E+02  0.79894624749E+03  0.89640475205E+03  0.40000000000E+03 0. -1.
   -9000005    1    1    2    0  503 -0.41503521849E+02  0.59193165114E+02  0.14676843831E+03  0.43216587973E+03  0.40000000000E+03 0. -1.
<mgrwt>
<rscale>  2 0.40648047E+03</rscale>
<asrwt>0</asrwt>
<pdfrwt beam="1">  1       21 0.17494502E+00 0.40648047E+03</pdfrwt>
<pdfrwt beam="2">  1       21 0.29450458E-01 0.40648047E+03</pdfrwt>
<totfact> 0.18860942E+03</totfact>
</mgrwt>
</event>
<event>
 4    1  0.4857079E-002  0.4841565E+03  0.7818608E-02  0.1017999E+00
         21   -1    0    0  501  502  0.00000000000E+00  0.00000000000E+00  0.44424207502E+03  0.44424207502E+03  0.00000000000E+00 0. -1.
         21   -1    0    0  502  503 -0.00000000000E+00 -0.00000000000E+00 -0.23381152259E+04  0.23381152259E+04  0.00000000000E+00 0. -1.
    9000005    1    1    2  501    0 -0.27229070206E+03  0.16287253833E+02  0.27724034400E+03  0.55791550382E+03  0.40000000000E+03 0. -1.
   -9000005    1    1    2    0  503  0.27229070206E+03 -0.16287253833E+02 -0.21711134949E+04  0.22244417971E+04  0.40000000000E+03 0. -1.
<mgrwt>
<rscale>  2 0.48415648E+03</rscale>
<asrwt>0</asrwt>
<pdfrwt beam="1">  1       21 0.68344934E-01 0.48415648E+03</pdfrwt>
<pdfrwt beam="2">  1       21 0.35971004E+00 0.48415648E+03</pdfrwt>
<totfact> 0.21502624E+01</totfact>
</mgrwt>
</event>
<event>
 4    1  0.4857079E-002  0.4286425E+03  0.7818608E-02  0.1034290E+00
         21   -1    0    0  503  502  0.00000000000E+00  0.00000000000E+00  0.15133159329E+04  0.15133159329E+04  0.00000000000E+00 0.  1.
         21   -1    0    0  501  503 -0.00000000000E+00 -0.00000000000E+00 -0.95212140397E+03  0.95212140397E+03  0.00000000000E+00 0.  1.
    9000005    1    1    2  501    0 -0.10048311171E+03  0.11677971039E+03 -0.87084570946E+03  0.97062176267E+03  0.40000000000E+03 0.  1.
   -9000005    1    1    2    0  502  0.10048311171E+03 -0.11677971039E+03  0.14320402384E+04  0.14948155742E+04  0.40000000000E+03 0.  1.
<mgrwt>
<rscale>  2 0.42864246E+03</rscale>
<asrwt>0</asrwt>
<pdfrwt beam="1">  1       21 0.23281784E+00 0.42864246E+03</pdfrwt>
<pdfrwt beam="2">  1       21 0.14648022E+00 0.42864246E+03</pdfrwt>
<totfact> 0.20602464E+01</totfact>
</mgrwt>
</event>
<event>
 4    1  0.4857079E-002  0.6733092E+03  0.7818608E-02  0.9763998E-01
         21   -1    0    0  503  502  0.00000000000E+00  0.00000000000E+00  0.41387080097E+03  0.41387080097E+03  0.00000000000E+00 0.  1.
         21   -1    0    0  501  503 -0.00000000000E+00 -0.00000000000E+00 -0.21730403034E+04  0.21730403034E+04  0.00000000000E+00 0.  1.
    9000005    1    1    2  501    0  0.53527246596E+03  0.82635719394E+02 -0.17904598218E+04  0.19128752307E+04  0.40000000000E+03 0.  1.
   -9000005    1    1    2    0  502 -0.53527246596E+03 -0.82635719394E+02  0.31290319308E+02  0.67403587369E+03  0.40000000000E+03 0.  1.
<mgrwt>
<rscale>  2 0.67330920E+03</rscale>
<asrwt>0</asrwt>
<pdfrwt beam="1">  1       21 0.63672432E-01 0.67330920E+03</pdfrwt>
<pdfrwt beam="2">  1       21 0.33431389E+00 0.67330920E+03</pdfrwt>
<totfact> 0.32519858E+01</totfact>
</mgrwt>
</event>
<event>
 4    1  0.4857079E-002  0.5476583E+03  0.7818608E-02  0.1002037E+00
         21   -1    0    0  501  502  0.00000000000E+00  0.00000000000E+00  0.16277122493E+04  0.16277122493E+04  0.00000000000E+00 0. -1.
         21   -1    0    0  502  503 -0.00000000000E+00 -0.00000000000E+00 -0.19601290244E+03  0.19601290244E+03  0.00000000000E+00 0.  1.
    9000005    1    1    2  501    0 -0.12960156327E+03  0.35090326140E+03  0.49260785172E+03  0.73660855252E+03  0.40000000000E+03 0.  1.
   -9000005    1    1    2    0  503  0.12960156327E+03 -0.35090326140E+03  0.93909149515E+03  0.10871165992E+04  0.40000000000E+03 0. -1.
<mgrwt>
<rscale>  2 0.54765835E+03</rscale>
<asrwt>0</asrwt>
<pdfrwt beam="1">  1       21 0.25041726E+00 0.54765835E+03</pdfrwt>
<pdfrwt beam="2">  1       21 0.30155832E-01 0.54765835E+03</pdfrwt>
<totfact> 0.54122435E+02</totfact>
</mgrwt>
</event>
<event>
 4    1  0.4857079E-002  0.5214495E+03  0.7818608E-02  0.1008327E+00
         21   -1    0    0  503  502  0.00000000000E+00  0.00000000000E+00  0.12778520260E+04  0.12778520260E+04  0.00000000000E+00 0.  1.
         21   -1    0    0  501  503 -0.00000000000E+00 -0.00000000000E+00 -0.21645432096E+03  0.21645432096E+03  0.00000000000E+00 0. -1.
    9000005    1    1    2  501    0 -0.97334325754E+02  0.32005570287E+03  0.62795840305E+03  0.81623610547E+03  0.40000000000E+03 0.  1.
   -9000005    1    1    2    0  502  0.97334325754E+02 -0.32005570287E+03  0.43343930203E+03  0.67807024153E+03  0.40000000000E+03 0. -1.
<mgrwt>
<rscale>  2 0.52144954E+03</rscale>
<asrwt>0</asrwt>
<pdfrwt beam="1">  1       21 0.19659261E+00 0.52144954E+03</pdfrwt>
<pdfrwt beam="2">  1       21 0.33300666E-01 0.52144954E+03</pdfrwt>
<totfact> 0.99454600E+02</totfact>
</mgrwt>
</event>
<event>
 4    1  0.4857079E-002  0.5731427E+03  0.7818608E-02  0.9962748E-01
         21   -1    0    0  501  502  0.00000000000E+00  0.00000000000E+00  0.15612073479E+04  0.15612073479E+04  0.00000000000E+00 0. -1.
         21   -1    0    0  502  503 -0.00000000000E+00 -0.00000000000E+00 -0.21051109051E+03  0.21051109051E+03  0.00000000000E+00 0.  1.
    9000005    1    1    2  501    0 -0.40939390681E+03 -0.29818444398E+02  0.65586636774E+03  0.87100700508E+03  0.40000000000E+03 0.  1.
   -9000005    1    1    2    0  503  0.40939390681E+03  0.29818444398E+02  0.69482988960E+03  0.90071143328E+03  0.40000000000E+03 0.  1.
<mgrwt>
<rscale>  2 0.57314266E+03</rscale>
<asrwt>0</asrwt>
<pdfrwt beam="1">  1       21 0.24018574E+00 0.57314266E+03</pdfrwt>
<pdfrwt beam="2">  1       21 0.32386323E-01 0.57314266E+03</pdfrwt>
<totfact> 0.53754280E+02</totfact>
</mgrwt>
</event>
<event>
 4    1  0.4857079E-002  0.4901397E+03  0.7818608E-02  0.1016385E+00
         21   -1    0    0  503  502  0.00000000000E+00  0.00000000000E+00  0.46889652015E+03  0.46889652015E+03  0.00000000000E+00 0.  1.
         21   -1    0    0  501  503 -0.00000000000E+00 -0.00000000000E+00 -0.51856125697E+03  0.51856125697E+03  0.00000000000E+00 0.  1.
    9000005    1    1    2  501    0 -0.73192414416E+02 -0.27364178900E+03  0.29223179752E+02  0.49101013477E+03  0.40000000000E+03 0.  1.
   -9000005    1    1    2    0  502  0.73192414416E+02  0.27364178900E+03 -0.78887916568E+02  0.49644764235E+03  0.40000000000E+03 0.  1.
<mgrwt>
<rscale>  2 0.49013973E+03</rscale>
<asrwt>0</asrwt>
<pdfrwt beam="1">  1       21 0.72137927E-01 0.49013973E+03</pdfrwt>
<pdfrwt beam="2">  1       21 0.79778654E-01 0.49013973E+03</pdfrwt>
<totfact> 0.20437244E+03</totfact>
</mgrwt>
</event>
<event>
 4    1  0.4857079E-002  0.4135696E+03  0.7818608E-02  0.1039180E+00
         21   -1    0    0  501  502  0.00000000000E+00  0.00000000000E+00  0.59096231074E+03  0.59096231074E+03  0.00000000000E+00 0.  1.
         21   -1    0    0  502  503 -0.00000000000E+00 -0.00000000000E+00 -0.38803948839E+03  0.38803948839E+03  0.00000000000E+00 0.  1.
    9000005    1    1    2  501    0 -0.56012064233E+02 -0.88895632419E+02  0.34822664070E+03  0.54064921909E+03  0.40000000000E+03 0.  1.
   -9000005    1    1    2    0  503  0.56012064233E+02  0.88895632419E+02 -0.14530381836E+03  0.43835258005E+03  0.40000000000E+03 0.  1.
<mgrwt>
<rscale>  2 0.41356956E+03</rscale>
<asrwt>0</asrwt>
<pdfrwt beam="1">  1       21 0.90917278E-01 0.41356956E+03</pdfrwt>
<pdfrwt beam="2">  1       21 0.59698383E-01 0.41356956E+03</pdfrwt>
<totfact> 0.23597941E+03</totfact>
</mgrwt>
</event>
<event>
 4    1  0.4857079E-002  0.4020660E+03  0.7818608E-02  0.1043067E+00
         21   -1    0    0  501  502  0.00000000000E+00  0.00000000000E+00  0.16687467948E+04  0.16687467948E+04  0.00000000000E+00 0. -1.
         21   -1    0    0  502  503 -0.00000000000E+00 -0.00000000000E+00 -0.12778030205E+03  0.12778030205E+03  0.00000000000E+00 0. -1.
    9000005    1    1    2  501    0 -0.34391976431E+02  0.21777411011E+02  0.12122571227E+04  0.12771939537E+04  0.40000000000E+03 0. -1.
   -9000005    1    1    2    0  503  0.34391976431E+02 -0.21777411011E+02  0.32870937003E+03  0.51933314319E+03  0.40000000000E+03 0. -1.
<mgrwt>
<rscale>  2 0.40206599E+03</rscale>
<asrwt>0</asrwt>
<pdfrwt beam="1">  1       21 0.25673026E+00 0.40206599E+03</pdfrwt>
<pdfrwt beam="2">  1       21 0.19658509E-01 0.40206599E+03</pdfrwt>
<totfact> 0.12202156E+03</totfact>
</mgrwt>
</event>
<event>
 4    1  0.4857079E-002  0.4489638E+03  0.7818608E-02  0.1028032E+00
         21   -1    0    0  503  502  0.00000000000E+00  0.00000000000E+00  0.35977186937E+03  0.35977186937E+03  0.00000000000E+00 0. -1.
         21   -1    0    0  501  503 -0.00000000000E+00 -0.00000000000E+00 -0.56055133403E+03  0.56055133403E+03  0.00000000000E+00 0. -1.
    9000005    1    1    2  501    0 -0.14548959595E+03  0.14283288571E+03 -0.11074589357E+03  0.46242092158E+03  0.40000000000E+03 0. -1.
   -9000005    1    1    2    0  502  0.14548959595E+03 -0.14283288571E+03 -0.90033571097E+02  0.45790228182E+03  0.40000000000E+03 0. -1.
<mgrwt>
<rscale>  2 0.44896376E+03</rscale>
<asrwt>0</asrwt>
<pdfrwt beam="1">  1       21 0.55349518E-01 0.44896376E+03</pdfrwt>
<pdfrwt beam="2">  1       21 0.86238667E-01 0.44896376E+03</pdfrwt>
<totfact> 0.31087759E+03</totfact>
</mgrwt>
</event>
<event>
 4    1  0.4857079E-002  0.4179647E+03  0.7818608E-02  0.1037731E+00
         21   -1    0    0  501  502  0.00000000000E+00  0.00000000000E+00  0.15191788391E+04  0.15191788391E+04  0.00000000000E+00 0.  1.
         21   -1    0    0  502  503 -0.00000000000E+00 -0.00000000000E+00 -0.12191297054E+03  0.12191297054E+03  0.00000000000E+00 0.  1.
    9000005    1    1    2  501    0  0.25797614549E+02 -0.11844390219E+03  0.89412966320E+03  0.98699662081E+03  0.40000000000E+03 0.  1.
   -9000005    1    1    2    0  503 -0.25797614549E+02  0.11844390219E+03  0.50313620532E+03  0.65409518878E+03  0.40000000000E+03 0.  1.
<mgrwt>
<rscale>  2 0.41796468E+03</rscale>
<asrwt>0</asrwt>
<pdfrwt beam="1">  1       21 0.23371981E+00 0.41796468E+03</pdfrwt>
<pdfrwt beam="2">  1       21 0.18755843E-01 0.41796468E+03</pdfrwt>
<totfact> 0.18320010E+03</totfact>
</mgrwt>
</event>
<event>
 4    1  0.4857079E-002  0.7168623E+03  0.7818608E-02  0.9688822E-01
         21   -1    0    0  503  502  0.00000000000E+00  0.00000000000E+00  0.11953512200E+04  0.11953512200E+04  0.00000000000E+00 0.  1.
         21   -1    0    0  501  503 -0.00000000000E+00 -0.00000000000E+00 -0.12266953500E+04  0.12266953500E+04  0.00000000000E+00 0. -1.
    9000005    1    1    2  501    0 -0.57534051797E+03 -0.15124443851E+03 -0.99168422025E+03  0.12236540297E+04  0.40000000000E+03 0. -1.
   -9000005    1    1    2    0  502  0.57534051797E+03  0.15124443851E+03  0.96034009017E+03  0.11983925403E+04  0.40000000000E+03 0.  1.
<mgrwt>
<rscale>  2 0.71686232E+03</rscale>
<asrwt>0</asrwt>
<pdfrwt beam="1">  1       21 0.18390019E+00 0.71686232E+03</pdfrwt>
<pdfrwt beam="2">  1       21 0.18872236E+00 0.71686232E+03</pdfrwt>
<totfact> 0.18038980E+01</totfact>
</mgrwt>
</event>
<event>
 4    1  0.4857079E-002  0.4428354E+03  0.7818608E-02  0.1029880E+00
         21   -1    0    0  501  502  0.00000000000E+00  0.00000000000E+00  0.46222876691E+03  0.46222876691E+03  0.00000000000E+00 0. -1.
         21   -1    0    0  502  503 -0.00000000000E+00 -0.00000000000E+00 -0.73445452731E+03  0.73445452731E+03  0.00000000000E+00 0. -1.
    9000005    1    1    2  501    0  0.17780604696E+03 -0.66993864989E+02  0.25274140011E+03  0.50988369616E+03  0.40000000000E+03 0. -1.
   -9000005    1    1    2    0  503 -0.17780604696E+03  0.66993864989E+02 -0.52496716051E+03  0.68679959806E+03  0.40000000000E+03 0. -1.
<mgrwt>
<rscale>  2 0.44283537E+03</rscale>
<asrwt>0</asrwt>
<pdfrwt beam="1">  1       21 0.71112118E-01 0.44283537E+03</pdfrwt>
<pdfrwt beam="2">  1       21 0.11299300E+00 0.44283537E+03</pdfrwt>
<totfact> 0.93143016E+02</totfact>
</mgrwt>
</event>
<event>
 4    1  0.4857079E-002  0.4960914E+03  0.7818608E-02  0.1014804E+00
         21   -1    0    0  503  502  0.00000000000E+00  0.00000000000E+00  0.57738052684E+03  0.57738052684E+03  0.00000000000E+00 0.  1.
         21   -1    0    0  501  503 -0.00000000000E+00 -0.00000000000E+00 -0.48990947780E+03  0.48990947780E+03  0.00000000000E+00 0.  1.
    9000005    1    1    2  501    0 -0.54413143933E+02 -0.28835036972E+03  0.23610503699E+03  0.54941087943E+03  0.40000000000E+03 0.  1.
   -9000005    1    1    2    0  502  0.54413143933E+02  0.28835036972E+03 -0.14863398795E+03  0.51787912520E+03  0.40000000000E+03 0.  1.
<mgrwt>
<rscale>  2 0.49609145E+03</rscale>
<asrwt>0</asrwt>
<pdfrwt beam="1">  1       21 0.88827774E-01 0.49609145E+03</pdfrwt>
<pdfrwt beam="2">  1       21 0.75370689E-01 0.49609145E+03</pdfrwt>
<totfact> 0.14352500E+03</totfact>
</mgrwt>
</event>
<event>
 4    1  0.4857079E-002  0.4940939E+03  0.7818608E-02  0.1015332E+00
         21   -1    0    0  503  502  0.00000000000E+00  0.00000000000E+00  0.19423531312E+04  0.19423531312E+04  0.00000000000E+00 0. -1.
         21   -1    0    0  501  503 -0.00000000000E+00 -0.00000000000E+00 -0.12590221394E+03  0.12590221394E+03  0.00000000000E+00 0. -1.
    9000005    1    1    2  501    0  0.15450966275E+03 -0.24547009536E+03  0.86548347683E+03  0.99658941007E+03  0.40000000000E+03 0. -1.
   -9000005    1    1    2    0  502 -0.15450966275E+03  0.24547009536E+03  0.95096744039E+03  0.10716659350E+04  0.40000000000E+03 0. -1.
<mgrwt>
<rscale>  2 0.49409392E+03</rscale>
<asrwt>0</asrwt>
<pdfrwt beam="1">  1       21 0.29882354E+00 0.49409392E+03</pdfrwt>
<pdfrwt beam="2">  1       21 0.19369573E-01 0.49409392E+03</pdfrwt>
<totfact> 0.66562335E+02</totfact>
</mgrwt>
</event>
<event>
 4    1  0.4857079E-002  0.4314460E+03  0.7818608E-02  0.1033404E+00
         21   -1    0    0  503  502  0.00000000000E+00  0.00000000000E+00  0.31235307236E+03  0.31235307236E+03  0.00000000000E+00 0. -1.
         21   -1    0    0  501  503 -0.00000000000E+00 -0.00000000000E+00 -0.96532766762E+03  0.96532766762E+03  0.00000000000E+00 0. -1.
    9000005    1    1    2  501    0  0.90833186590E+02 -0.13377205658E+03 -0.72166507896E+03  0.84080087839E+03  0.40000000000E+03 0. -1.
   -9000005    1    1    2    0  502 -0.90833186590E+02  0.13377205658E+03  0.68690483699E+02  0.43687986159E+03  0.40000000000E+03 0. -1.
<mgrwt>
<rscale>  2 0.43144598E+03</rscale>
<asrwt>0</asrwt>
<pdfrwt beam="1">  1       21 0.48054320E-01 0.43144598E+03</pdfrwt>
<pdfrwt beam="2">  1       21 0.14851194E+00 0.43144598E+03</pdfrwt>
<totfact> 0.10830206E+03</totfact>
</mgrwt>
</event>
<event>
 4    1  0.4857079E-002  0.5002429E+03  0.7818608E-02  0.1013716E+00
         21   -1    0    0  501  502  0.00000000000E+00  0.00000000000E+00  0.18094501791E+04  0.18094501791E+04  0.00000000000E+00 0.  1.
         21   -1    0    0  502  503 -0.00000000000E+00 -0.00000000000E+00 -0.17559893456E+03  0.17559893456E+03  0.00000000000E+00 0.  1.
    9000005    1    1    2  501    0  0.41479905073E+02 -0.29752708280E+03  0.12743733182E+04  0.13690399197E+04  0.40000000000E+03 0.  1.
   -9000005    1    1    2    0  503 -0.41479905073E+02  0.29752708280E+03  0.35947792630E+03  0.61600919394E+03  0.40000000000E+03 0.  1.
<mgrwt>
<rscale>  2 0.50024289E+03</rscale>
<asrwt>0</asrwt>
<pdfrwt beam="1">  1       21 0.27837694E+00 0.50024289E+03</pdfrwt>
<pdfrwt beam="2">  1       21 0.27015222E-01 0.50024289E+03</pdfrwt>
<totfact> 0.46374295E+02</totfact>
</mgrwt>
</event>
<event>
 4    1  0.4857079E-002  0.4507920E+03  0.7818608E-02  0.1027486E+00
         21   -1    0    0  503  502  0.00000000000E+00  0.00000000000E+00  0.47797321772E+03  0.47797321772E+03  0.00000000000E+00 0.  1.
         21   -1    0    0  501  503 -0.00000000000E+00 -0.00000000000E+00 -0.46658386633E+03  0.46658386633E+03  0.00000000000E+00 0.  1.
    9000005    1    1    2  501    0 -0.59346965444E+02 -0.19922696268E+03 -0.13503210326E+03  0.47058167609E+03  0.40000000000E+03 0.  1.
   -9000005    1    1    2    0  502  0.59346965444E+02  0.19922696268E+03  0.14642145465E+03  0.47397540796E+03  0.40000000000E+03 0.  1.
<mgrwt>
<rscale>  2 0.45079202E+03</rscale>
<asrwt>0</asrwt>
<pdfrwt beam="1">  1       21 0.73534341E-01 0.45079202E+03</pdfrwt>
<pdfrwt beam="2">  1       21 0.71782133E-01 0.45079202E+03</pdfrwt>
<totfact> 0.25263093E+03</totfact>
</mgrwt>
</event>
<event>
 4    1  0.4857079E-002  0.6290569E+03  0.7818608E-02  0.9846891E-01
         21   -1    0    0  501  502  0.00000000000E+00  0.00000000000E+00  0.16419842303E+04  0.16419842303E+04  0.00000000000E+00 0. -1.
         21   -1    0    0  502  503 -0.00000000000E+00 -0.00000000000E+00 -0.24183132495E+03  0.24183132495E+03  0.00000000000E+00 0.  1.
    9000005    1    1    2  501    0 -0.12229868617E+03  0.46984634411E+03  0.64473717662E+03  0.90077665524E+03  0.40000000000E+03 0.  1.
   -9000005    1    1    2    0  503  0.12229868617E+03 -0.46984634411E+03  0.75541572871E+03  0.98303889999E+03  0.40000000000E+03 0. -1.
<mgrwt>
<rscale>  2 0.62905688E+03</rscale>
<asrwt>0</asrwt>
<pdfrwt beam="1">  1       21 0.25261295E+00 0.62905688E+03</pdfrwt>
<pdfrwt beam="2">  1       21 0.37204820E-01 0.62905688E+03</pdfrwt>
<totfact> 0.33179125E+02</totfact>
</mgrwt>
</event>
<event>
 4    1  0.4857079E-002  0.5520011E+03  0.7818608E-02  0.1001032E+00
         21   -1    0    0  503  502  0.00000000000E+00  0.00000000000E+00  0.10569954527E+04  0.10569954527E+04  0.00000000000E+00 0. -1.
         21   -1    0    0  501  503 -0.00000000000E+00 -0.00000000000E+00 -0.33628454033E+03  0.33628454033E+03  0.00000000000E+00 0. -1.
    9000005    1    1    2  501    0 -0.11138912934E+03 -0.36372749908E+03  0.62357570442E+03  0.83279762900E+03  0.40000000000E+03 0. -1.
   -9000005    1    1    2    0  502  0.11138912934E+03  0.36372749908E+03  0.97135207910E+02  0.56048236399E+03  0.40000000000E+03 0. -1.
<mgrwt>
<rscale>  2 0.55200112E+03</rscale>
<asrwt>0</asrwt>
<pdfrwt beam="1">  1       21 0.16261468E+00 0.55200112E+03</pdfrwt>
<pdfrwt beam="2">  1       21 0.51736083E-01 0.55200112E+03</pdfrwt>
<totfact> 0.68636816E+02</totfact>
</mgrwt>
</event>
<event>
 4    1  0.4857079E-002  0.4255719E+03  0.7818608E-02  0.1035268E+00
         21   -1    0    0  503  502  0.00000000000E+00  0.00000000000E+00  0.26694495932E+03  0.26694495932E+03  0.00000000000E+00 0. -1.
         21   -1    0    0  501  503 -0.00000000000E+00 -0.00000000000E+00 -0.68246700191E+03  0.68246700191E+03  0.00000000000E+00 0. -1.
    9000005    1    1    2  501    0  0.72499786466E+02  0.12591764119E+03 -0.24413533487E+03  0.49062565478E+03  0.40000000000E+03 0. -1.
   -9000005    1    1    2    0  502 -0.72499786466E+02 -0.12591764119E+03 -0.17138670772E+03  0.45878630645E+03  0.40000000000E+03 0. -1.
<mgrwt>
<rscale>  2 0.42557193E+03</rscale>
<asrwt>0</asrwt>
<pdfrwt beam="1">  1       21 0.41068456E-01 0.42557193E+03</pdfrwt>
<pdfrwt beam="2">  1       21 0.10499492E+00 0.42557193E+03</pdfrwt>
<totfact> 0.36719141E+03</totfact>
</mgrwt>
</event>
<event>
 4    1  0.4857079E-002  0.5176233E+03  0.7818608E-02  0.1009279E+00
         21   -1    0    0  503  502  0.00000000000E+00  0.00000000000E+00  0.33703452295E+03  0.33703452295E+03  0.00000000000E+00 0.  1.
         21   -1    0    0  501  503 -0.00000000000E+00 -0.00000000000E+00 -0.79919939569E+03  0.79919939569E+03  0.00000000000E+00 0. -1.
    9000005    1    1    2  501    0  0.30870038081E+03  0.11241859368E+03 -0.27238871289E+03  0.58491835005E+03  0.40000000000E+03 0.  1.
   -9000005    1    1    2    0  502 -0.30870038081E+03 -0.11241859368E+03 -0.18977615985E+03  0.55131556858E+03  0.40000000000E+03 0. -1.
<mgrwt>
<rscale>  2 0.51762329E+03</rscale>
<asrwt>0</asrwt>
<pdfrwt beam="1">  1       21 0.51851466E-01 0.51762329E+03</pdfrwt>
<pdfrwt beam="2">  1       21 0.12295375E+00 0.51762329E+03</pdfrwt>
<totfact> 0.14644947E+03</totfact>
</mgrwt>
</event>
<event>
 4    1  0.4857079E-002  0.5545661E+03  0.7818608E-02  0.1000443E+00
         21   -1    0    0  503  502  0.00000000000E+00  0.00000000000E+00  0.93796228138E+03  0.93796228138E+03  0.00000000000E+00 0.  1.
         21   -1    0    0  501  503 -0.00000000000E+00 -0.00000000000E+00 -0.41072635585E+03  0.41072635585E+03  0.00000000000E+00 0. -1.
    9000005    1    1    2  501    0  0.81136625299E+01 -0.38402834427E+03 -0.39233355598E+02  0.55595220740E+03  0.40000000000E+03 0. -1.
   -9000005    1    1    2    0  502 -0.81136625299E+01  0.38402834427E+03  0.56646928113E+03  0.79273642983E+03  0.40000000000E+03 0.  1.
<mgrwt>
<rscale>  2 0.55456614E+03</rscale>
<asrwt>0</asrwt>
<pdfrwt beam="1">  1       21 0.14430189E+00 0.55456614E+03</pdfrwt>
<pdfrwt beam="2">  1       21 0.63188671E-01 0.55456614E+03</pdfrwt>
<totfact> 0.61611244E+02</totfact>
</mgrwt>
</event>
<event>
 4    1  0.4857079E-002  0.4944361E+03  0.7818608E-02  0.1015241E+00
         21   -1    0    0  501  502  0.00000000000E+00  0.00000000000E+00  0.82919930080E+02  0.82919930080E+02  0.00000000000E+00 0. -1.
         21   -1    0    0  502  503 -0.00000000000E+00 -0.00000000000E+00 -0.29688893659E+04  0.29688893659E+04  0.00000000000E+00 0. -1.
    9000005    1    1    2  501    0  0.22737622304E+03 -0.18101692193E+03 -0.13156980617E+04  0.14055349382E+04  0.40000000000E+03 0. -1.
   -9000005    1    1    2    0  503 -0.22737622304E+03  0.18101692193E+03 -0.15702713741E+04  0.16462743578E+04  0.40000000000E+03 0. -1.
<mgrwt>
<rscale>  2 0.49443612E+03</rscale>
<asrwt>0</asrwt>
<pdfrwt beam="1">  1       21 0.12756912E-01 0.49443612E+03</pdfrwt>
<pdfrwt beam="2">  1       21 0.45675224E+00 0.49443612E+03</pdfrwt>
<totfact> 0.14447255E+02</totfact>
</mgrwt>
</event>
<event>
 4    1  0.4857079E-002  0.4298131E+03  0.7818608E-02  0.1033919E+00
         21   -1    0    0  501  502  0.00000000000E+00  0.00000000000E+00  0.37649254530E+03  0.37649254530E+03  0.00000000000E+00 0.  1.
         21   -1    0    0  502  503 -0.00000000000E+00 -0.00000000000E+00 -0.49069705797E+03  0.49069705797E+03  0.00000000000E+00 0.  1.
    9000005    1    1    2  501    0 -0.14636676213E+03 -0.57585629371E+02 -0.54974085981E+02  0.43331453229E+03  0.40000000000E+03 0.  1.
   -9000005    1    1    2    0  503  0.14636676213E+03  0.57585629371E+02 -0.59230426691E+02  0.43387507097E+03  0.40000000000E+03 0.  1.
<mgrwt>
<rscale>  2 0.42981314E+03</rscale>
<asrwt>0</asrwt>
<pdfrwt beam="1">  1       21 0.57921930E-01 0.42981314E+03</pdfrwt>
<pdfrwt beam="2">  1       21 0.75491855E-01 0.42981314E+03</pdfrwt>
<totfact> 0.38590889E+03</totfact>
</mgrwt>
</event>
<event>
 4    1  0.4857079E-002  0.7230142E+03  0.7818608E-02  0.9678665E-01
         21   -1    0    0  503  502  0.00000000000E+00  0.00000000000E+00  0.37223484921E+03  0.37223484921E+03  0.00000000000E+00 0. -1.
         21   -1    0    0  501  503 -0.00000000000E+00 -0.00000000000E+00 -0.14555888010E+04  0.14555888010E+04  0.00000000000E+00 0.  1.
    9000005    1    1    2  501    0  0.54015669044E+03  0.26642126356E+03 -0.71313863033E+03  0.10155374173E+04  0.40000000000E+03 0.  1.
   -9000005    1    1    2    0  502 -0.54015669044E+03 -0.26642126356E+03 -0.37021532145E+03  0.81228623289E+03  0.40000000000E+03 0.  1.
<mgrwt>
<rscale>  2 0.72301420E+03</rscale>
<asrwt>0</asrwt>
<pdfrwt beam="1">  1       21 0.57266902E-01 0.72301420E+03</pdfrwt>
<pdfrwt beam="2">  1       21 0.22393673E+00 0.72301420E+03</pdfrwt>
<totfact> 0.19533398E+02</totfact>
</mgrwt>
</event>
<event>
 4    1  0.4857079E-002  0.4177652E+03  0.7818608E-02  0.1037796E+00
         21   -1    0    0  503  502  0.00000000000E+00  0.00000000000E+00  0.61769116168E+03  0.61769116168E+03  0.00000000000E+00 0.  1.
         21   -1    0    0  501  503 -0.00000000000E+00 -0.00000000000E+00 -0.35399352118E+03  0.35399352118E+03  0.00000000000E+00 0.  1.
    9000005    1    1    2  501    0  0.11979462722E+03 -0.13303218963E+02 -0.86415930891E+02  0.42660923742E+03  0.40000000000E+03 0.  1.
   -9000005    1    1    2    0  502 -0.11979462722E+03  0.13303218963E+02  0.35011357138E+03  0.54507544543E+03  0.40000000000E+03 0.  1.
<mgrwt>
<rscale>  2 0.41776516E+03</rscale>
<asrwt>0</asrwt>
<pdfrwt beam="1">  1       21 0.95029410E-01 0.41776516E+03</pdfrwt>
<pdfrwt beam="2">  1       21 0.54460542E-01 0.41776516E+03</pdfrwt>
<totfact> 0.25876481E+03</totfact>
</mgrwt>
</event>
<event>
 4    1  0.4857079E-002  0.4433457E+03  0.7818608E-02  0.1029725E+00
         21   -1    0    0  501  502  0.00000000000E+00  0.00000000000E+00  0.98016732844E+03  0.98016732844E+03  0.00000000000E+00 0. -1.
         21   -1    0    0  502  503 -0.00000000000E+00 -0.00000000000E+00 -0.22238906711E+03  0.22238906711E+03  0.00000000000E+00 0. -1.
    9000005    1    1    2  501    0 -0.10035969834E+03  0.16273716102E+03  0.56738820881E+03  0.72005890879E+03  0.40000000000E+03 0. -1.
   -9000005    1    1    2    0  503  0.10035969834E+03 -0.16273716102E+03  0.19039005253E+03  0.48249748676E+03  0.40000000000E+03 0. -1.
<mgrwt>
<rscale>  2 0.44334575E+03</rscale>
<asrwt>0</asrwt>
<pdfrwt beam="1">  1       21 0.15079497E+00 0.44334575E+03</pdfrwt>
<pdfrwt beam="2">  1       21 0.34213703E-01 0.44334575E+03</pdfrwt>
<totfact> 0.20841682E+03</totfact>
</mgrwt>
</event>
<event>
 4    1  0.4857079E-002  0.4526222E+03  0.7818608E-02  0.1026943E+00
         21   -1    0    0  501  502  0.00000000000E+00  0.00000000000E+00  0.71390469511E+02  0.71390469511E+02  0.00000000000E+00 0. -1.
         21   -1    0    0  502  503 -0.00000000000E+00 -0.00000000000E+00 -0.29024199936E+04  0.29024199936E+04  0.00000000000E+00 0. -1.
    9000005    1    1    2  501    0  0.17962268819E+03 -0.11226100663E+03 -0.15734690850E+04  0.16372757267E+04  0.40000000000E+03 0. -1.
   -9000005    1    1    2    0  503 -0.17962268819E+03  0.11226100663E+03 -0.12575604391E+04  0.13365347364E+04  0.40000000000E+03 0. -1.
<mgrwt>
<rscale>  2 0.45262219E+03</rscale>
<asrwt>0</asrwt>
<pdfrwt beam="1">  1       21 0.10983148E-01 0.45262219E+03</pdfrwt>
<pdfrwt beam="2">  1       21 0.44652621E+00 0.45262219E+03</pdfrwt>
<totfact> 0.22894196E+02</totfact>
</mgrwt>
</event>
<event>
 4    1  0.4857079E-002  0.5004032E+03  0.7818608E-02  0.1013674E+00
         21   -1    0    0  503  502  0.00000000000E+00  0.00000000000E+00  0.20310170897E+04  0.20310170897E+04  0.00000000000E+00 0. -1.
         21   -1    0    0  501  503 -0.00000000000E+00 -0.00000000000E+00 -0.19191271225E+03  0.19191271225E+03  0.00000000000E+00 0. -1.
    9000005    1    1    2  501    0 -0.29191647166E+03 -0.72028881122E+02  0.25492373810E+03  0.56159549356E+03  0.40000000000E+03 0. -1.
   -9000005    1    1    2    0  502  0.29191647166E+03  0.72028881122E+02  0.15841806394E+04  0.16613343084E+04  0.40000000000E+03 0. -1.
<mgrwt>
<rscale>  2 0.50040322E+03</rscale>
<asrwt>0</asrwt>
<pdfrwt beam="1">  1       21 0.31246415E+00 0.50040322E+03</pdfrwt>
<pdfrwt beam="2">  1       21 0.29525034E-01 0.50040322E+03</pdfrwt>
<totfact> 0.24200035E+02</totfact>
</mgrwt>
</event>
<event>
 4    1  0.4857079E-002  0.4047629E+03  0.7818608E-02  0.1042143E+00
         21   -1    0    0  501  502  0.00000000000E+00  0.00000000000E+00  0.62261608040E+03  0.62261608040E+03  0.00000000000E+00 0.  1.
         21   -1    0    0  502  503 -0.00000000000E+00 -0.00000000000E+00 -0.28026678982E+03  0.28026678982E+03  0.00000000000E+00 0.  1.
    9000005    1    1    2  501    0 -0.47076889461E+02 -0.40209598831E+02  0.28278316826E+03  0.49376043342E+03  0.40000000000E+03 0.  1.
   -9000005    1    1    2    0  503  0.47076889461E+02  0.40209598831E+02  0.59566122323E+02  0.40912243679E+03  0.40000000000E+03 0.  1.
<mgrwt>
<rscale>  2 0.40476295E+03</rscale>
<asrwt>0</asrwt>
<pdfrwt beam="1">  1       21 0.95787089E-01 0.40476295E+03</pdfrwt>
<pdfrwt beam="2">  1       21 0.43117968E-01 0.40476295E+03</pdfrwt>
<totfact> 0.41803579E+03</totfact>
</mgrwt>
</event>
<event>
 4    1  0.4857079E-002  0.4624693E+03  0.7818608E-02  0.1024067E+00
         21   -1    0    0  503  502  0.00000000000E+00  0.00000000000E+00  0.52286881885E+03  0.52286881885E+03  0.00000000000E+00 0.  1.
         21   -1    0    0  501  503 -0.00000000000E+00 -0.00000000000E+00 -0.69187889604E+03  0.69187889604E+03  0.00000000000E+00 0.  1.
    9000005    1    1    2  501    0  0.22875774827E+03  0.39341149660E+02 -0.47283900204E+03  0.66140347391E+03  0.40000000000E+03 0.  1.
   -9000005    1    1    2    0  502 -0.22875774827E+03 -0.39341149660E+02  0.30382892485E+03  0.55334424098E+03  0.40000000000E+03 0.  1.
<mgrwt>
<rscale>  2 0.46246928E+03</rscale>
<asrwt>0</asrwt>
<pdfrwt beam="1">  1       21 0.80441356E-01 0.46246928E+03</pdfrwt>
<pdfrwt beam="2">  1       21 0.10644291E+00 0.46246928E+03</pdfrwt>
<totfact> 0.80825257E+02</totfact>
</mgrwt>
</event>
<event>
 4    1  0.4857079E-002  0.4314686E+03  0.7818608E-02  0.1033397E+00
         21   -1    0    0  501  502  0.00000000000E+00  0.00000000000E+00  0.53630557798E+03  0.53630557798E+03  0.00000000000E+00 0.  1.
         21   -1    0    0  502  503 -0.00000000000E+00 -0.00000000000E+00 -0.38667130966E+03  0.38667130966E+03  0.00000000000E+00 0.  1.
    9000005    1    1    2  501    0 -0.16450506480E+01  0.16174812208E+03  0.22240203975E+03  0.48541510944E+03  0.40000000000E+03 0.  1.
   -9000005    1    1    2    0  503  0.16450506480E+01 -0.16174812208E+03 -0.72767771432E+02  0.43756177821E+03  0.40000000000E+03 0.  1.
<mgrwt>
<rscale>  2 0.43146861E+03</rscale>
<asrwt>0</asrwt>
<pdfrwt beam="1">  1       21 0.82508550E-01 0.43146861E+03</pdfrwt>
<pdfrwt beam="2">  1       21 0.59487894E-01 0.43146861E+03</pdfrwt>
<totfact> 0.29655626E+03</totfact>
</mgrwt>
</event>
<event>
 4    1  0.4857079E-002  0.4272447E+03  0.7818608E-02  0.1034734E+00
         21   -1    0    0  503  502  0.00000000000E+00  0.00000000000E+00  0.17014797039E+03  0.17014797039E+03  0.00000000000E+00 0. -1.
         21   -1    0    0  501  503 -0.00000000000E+00 -0.00000000000E+00 -0.14303994169E+04  0.14303994169E+04  0.00000000000E+00 0. -1.
    9000005    1    1    2  501    0  0.12728925149E+03  0.79595837919E+02 -0.10302514470E+04  0.11153277971E+04  0.40000000000E+03 0. -1.
   -9000005    1    1    2    0  502 -0.12728925149E+03 -0.79595837919E+02 -0.22999999957E+03  0.48521959025E+03  0.40000000000E+03 0. -1.
<mgrwt>
<rscale>  2 0.42724472E+03</rscale>
<asrwt>0</asrwt>
<pdfrwt beam="1">  1       21 0.26176611E-01 0.42724472E+03</pdfrwt>
<pdfrwt beam="2">  1       21 0.22006145E+00 0.42724472E+03</pdfrwt>
<totfact> 0.11723588E+03</totfact>
</mgrwt>
</event>
<event>
 4    1  0.4857079E-002  0.4261355E+03  0.7818608E-02  0.1035088E+00
         21   -1    0    0  501  502  0.00000000000E+00  0.00000000000E+00  0.30483199414E+03  0.30483199414E+03  0.00000000000E+00 0. -1.
         21   -1    0    0  502  503 -0.00000000000E+00 -0.00000000000E+00 -0.60946548101E+03  0.60946548101E+03  0.00000000000E+00 0. -1.
    9000005    1    1    2  501    0  0.42132482949E+02 -0.14077039636E+03 -0.83638098214E+02  0.43426579659E+03  0.40000000000E+03 0. -1.
   -9000005    1    1    2    0  503 -0.42132482949E+02  0.14077039636E+03 -0.22099538866E+03  0.48003167856E+03  0.40000000000E+03 0. -1.
<mgrwt>
<rscale>  2 0.42613548E+03</rscale>
<asrwt>0</asrwt>
<pdfrwt beam="1">  1       21 0.46897230E-01 0.42613548E+03</pdfrwt>
<pdfrwt beam="2">  1       21 0.93763919E-01 0.42613548E+03</pdfrwt>
<totfact> 0.36611500E+03</totfact>
</mgrwt>
</event>
<event>
 4    1  0.4857079E-002  0.4106199E+03  0.7818608E-02  0.1040163E+00
         21   -1    0    0  501  502  0.00000000000E+00  0.00000000000E+00  0.17141576077E+04  0.17141576077E+04  0.00000000000E+00 0. -1.
         21   -1    0    0  502  503 -0.00000000000E+00 -0.00000000000E+00 -0.11142562278E+03  0.11142562278E+03  0.00000000000E+00 0. -1.
    9000005    1    1    2  501    0 -0.92311917568E+02  0.93372370045E+01  0.11139049078E+04  0.11871785113E+04  0.40000000000E+03 0. -1.
   -9000005    1    1    2    0  503  0.92311917568E+02 -0.93372370045E+01  0.48882707713E+03  0.63840471917E+03  0.40000000000E+03 0. -1.
<mgrwt>
<rscale>  2 0.41061987E+03</rscale>
<asrwt>0</asrwt>
<pdfrwt beam="1">  1       21 0.26371654E+00 0.41061987E+03</pdfrwt>
<pdfrwt beam="2">  1       21 0.17142405E-01 0.41061987E+03</pdfrwt>
<totfact> 0.14258162E+03</totfact>
</mgrwt>
</event>
<event>
 4    1  0.4857079E-002  0.6375265E+03  0.7818608E-02  0.9830471E-01
         21   -1    0    0  503  502  0.00000000000E+00  0.00000000000E+00  0.30574216763E+03  0.30574216763E+03  0.00000000000E+00 0. -1.
         21   -1    0    0  501  503 -0.00000000000E+00 -0.00000000000E+00 -0.20907709517E+04  0.20907709517E+04  0.00000000000E+00 0.  1.
    9000005    1    1    2  501    0 -0.44825297157E+03 -0.21332906475E+03 -0.16156295145E+04  0.17368646304E+04  0.40000000000E+03 0.  1.
   -9000005    1    1    2    0  502  0.44825297157E+03  0.21332906475E+03 -0.16939926961E+03  0.65964848892E+03  0.40000000000E+03 0. -1.
<mgrwt>
<rscale>  2 0.63752648E+03</rscale>
<asrwt>0</asrwt>
<pdfrwt beam="1">  1       21 0.47037254E-01 0.63752648E+03</pdfrwt>
<pdfrwt beam="2">  1       21 0.32165708E+00 0.63752648E+03</pdfrwt>
<totfact> 0.76441529E+01</totfact>
</mgrwt>
</event>
<event>
 4    1  0.4857079E-002  0.4824548E+03  0.7818608E-02  0.1018463E+00
         21   -1    0    0  501  502  0.00000000000E+00  0.00000000000E+00  0.70766520260E+03  0.70766520260E+03  0.00000000000E+00 0.  1.
         21   -1    0    0  502  503 -0.00000000000E+00 -0.00000000000E+00 -0.34633666339E+03  0.34633666339E+03  0.00000000000E+00 0. -1.
    9000005    1    1    2  501    0 -0.65906960028E+01  0.26966494854E+03  0.29885698911E+03  0.56751926988E+03  0.40000000000E+03 0.  1.
   -9000005    1    1    2    0  503  0.65906960028E+01 -0.26966494854E+03  0.62471550100E+02  0.48648259611E+03  0.40000000000E+03 0. -1.
<mgrwt>
<rscale>  2 0.48245479E+03</rscale>
<asrwt>0</asrwt>
<pdfrwt beam="1">  1       21 0.10887157E+00 0.48245479E+03</pdfrwt>
<pdfrwt beam="2">  1       21 0.53282564E-01 0.48245479E+03</pdfrwt>
<totfact> 0.18999031E+03</totfact>
</mgrwt>
</event>
<event>
 4    1  0.4857079E-002  0.5190667E+03  0.7818608E-02  0.1008919E+00
         21   -1    0    0  503  502  0.00000000000E+00  0.00000000000E+00  0.11943122055E+04  0.11943122055E+04  0.00000000000E+00 0. -1.
         21   -1    0    0  501  503 -0.00000000000E+00 -0.00000000000E+00 -0.26095347254E+03  0.26095347254E+03  0.00000000000E+00 0. -1.
    9000005    1    1    2  501    0  0.21754050589E+03 -0.24921141677E+03  0.73452273161E+03  0.89941861511E+03  0.40000000000E+03 0. -1.
   -9000005    1    1    2    0  502 -0.21754050589E+03  0.24921141677E+03  0.19883600136E+03  0.55584706295E+03  0.40000000000E+03 0. -1.
<mgrwt>
<rscale>  2 0.51906666E+03</rscale>
<asrwt>0</asrwt>
<pdfrwt beam="1">  1       21 0.18374034E+00 0.51906666E+03</pdfrwt>
<pdfrwt beam="2">  1       21 0.40146689E-01 0.51906666E+03</pdfrwt>
<totfact> 0.83309784E+02</totfact>
</mgrwt>
</event>
<event>
 4    1  0.4857079E-002  0.4377374E+03  0.7818608E-02  0.1031443E+00
         21   -1    0    0  503  502  0.00000000000E+00  0.00000000000E+00  0.10406192761E+04  0.10406192761E+04  0.00000000000E+00 0. -1.
         21   -1    0    0  501  503 -0.00000000000E+00 -0.00000000000E+00 -0.53185224495E+03  0.53185224495E+03  0.00000000000E+00 0.  1.
    9000005    1    1    2  501    0  0.17536260176E+03  0.29359596644E+02 -0.38134347616E+03  0.58054877040E+03  0.40000000000E+03 0.  1.
   -9000005    1    1    2    0  502 -0.17536260176E+03 -0.29359596644E+02  0.89011050728E+03  0.99192275061E+03  0.40000000000E+03 0. -1.
<mgrwt>
<rscale>  2 0.43773740E+03</rscale>
<asrwt>0</asrwt>
<pdfrwt beam="1">  1       21 0.16009527E+00 0.43773740E+03</pdfrwt>
<pdfrwt beam="2">  1       21 0.81823422E-01 0.43773740E+03</pdfrwt>
<totfact> 0.27117228E+02</totfact>
</mgrwt>
</event>
<event>
 4    1  0.4857079E-002  0.5786251E+03  0.7818608E-02  0.9950772E-01
         21   -1    0    0  501  502  0.00000000000E+00  0.00000000000E+00  0.11011131343E+04  0.11011131343E+04  0.00000000000E+00 0.  1.
         21   -1    0    0  502  503 -0.00000000000E+00 -0.00000000000E+00 -0.31423603095E+03  0.31423603095E+03  0.00000000000E+00 0. -1.
    9000005    1    1    2  501    0 -0.86335538337E+02  0.40908825809E+03  0.26610436019E+03  0.63688190318E+03  0.40000000000E+03 0. -1.
   -9000005    1    1    2    0  503  0.86335538337E+02 -0.40908825809E+03  0.52077274311E+03  0.77846726203E+03  0.40000000000E+03 0.  1.
<mgrwt>
<rscale>  2 0.57862512E+03</rscale>
<asrwt>0</asrwt>
<pdfrwt beam="1">  1       21 0.16940202E+00 0.57862512E+03</pdfrwt>
<pdfrwt beam="2">  1       21 0.48344005E-01 0.57862512E+03</pdfrwt>
<totfact> 0.69959482E+02</totfact>
</mgrwt>
</event>
<event>
 4    1  0.4857079E-002  0.5267541E+03  0.7818608E-02  0.1007022E+00
         21   -1    0    0  503  502  0.00000000000E+00  0.00000000000E+00  0.15964305611E+04  0.15964305611E+04  0.00000000000E+00 0.  1.
         21   -1    0    0  501  503 -0.00000000000E+00 -0.00000000000E+00 -0.21784403946E+03  0.21784403946E+03  0.00000000000E+00 0.  1.
    9000005    1    1    2  501    0 -0.14523543541E+03  0.31044574651E+03  0.10971541505E+04  0.12170526378E+04  0.40000000000E+03 0.  1.
   -9000005    1    1    2    0  502  0.14523543541E+03 -0.31044574651E+03  0.28143237105E+03  0.59722196267E+03  0.40000000000E+03 0.  1.
<mgrwt>
<rscale>  2 0.52675411E+03</rscale>
<asrwt>0</asrwt>
<pdfrwt beam="1">  1       21 0.24560469E+00 0.52675411E+03</pdfrwt>
<pdfrwt beam="2">  1       21 0.33514469E-01 0.52675411E+03</pdfrwt>
<totfact> 0.47324742E+02</totfact>
</mgrwt>
</event>
<event>
 4    1  0.4857079E-002  0.4385675E+03  0.7818608E-02  0.1031187E+00
         21   -1    0    0  503  502  0.00000000000E+00  0.00000000000E+00  0.58439335916E+03  0.58439335916E+03  0.00000000000E+00 0.  1.
         21   -1    0    0  501  503 -0.00000000000E+00 -0.00000000000E+00 -0.36692708969E+03  0.36692708969E+03  0.00000000000E+00 0. -1.
    9000005    1    1    2  501    0  0.39345154230E+02  0.17548059320E+03 -0.43930363610E+02  0.44076224498E+03  0.40000000000E+03 0. -1.
   -9000005    1    1    2    0  502 -0.39345154230E+02 -0.17548059320E+03  0.26139663308E+03  0.51055820387E+03  0.40000000000E+03 0.  1.
<mgrwt>
<rscale>  2 0.43856753E+03</rscale>
<asrwt>0</asrwt>
<pdfrwt beam="1">  1       21 0.89906671E-01 0.43856753E+03</pdfrwt>
<pdfrwt beam="2">  1       21 0.56450322E-01 0.43856753E+03</pdfrwt>
<totfact> 0.27107377E+03</totfact>
</mgrwt>
</event>
<event>
 4    1  0.4857079E-002  0.4565397E+03  0.7818608E-02  0.1025790E+00
         21   -1    0    0  501  502  0.00000000000E+00  0.00000000000E+00  0.14845054609E+03  0.14845054609E+03  0.00000000000E+00 0. -1.
         21   -1    0    0  502  503 -0.00000000000E+00 -0.00000000000E+00 -0.15200812966E+04  0.15200812966E+04  0.00000000000E+00 0. -1.
    9000005    1    1    2  501    0 -0.18526442771E+02  0.21928348878E+03 -0.45529838814E+03  0.64476747730E+03  0.40000000000E+03 0. -1.
   -9000005    1    1    2    0  503  0.18526442771E+02 -0.21928348878E+03 -0.91633236241E+03  0.10237643654E+04  0.40000000000E+03 0. -1.
<mgrwt>
<rscale>  2 0.45653968E+03</rscale>
<asrwt>0</asrwt>
<pdfrwt beam="1">  1       21 0.22838545E-01 0.45653968E+03</pdfrwt>
<pdfrwt beam="2">  1       21 0.23385867E+00 0.45653968E+03</pdfrwt>
<totfact> 0.12325034E+03</totfact>
</mgrwt>
</event>
<event>
 4    1  0.4857079E-002  0.5184204E+03  0.7818608E-02  0.1009080E+00
         21   -1    0    0  501  502  0.00000000000E+00  0.00000000000E+00  0.19054060884E+04  0.19054060884E+04  0.00000000000E+00 0.  1.
         21   -1    0    0  502  503 -0.00000000000E+00 -0.00000000000E+00 -0.15711289845E+03  0.15711289845E+03  0.00000000000E+00 0.  1.
    9000005    1    1    2  501    0  0.13330928984E+03  0.30164281024E+03  0.12038764138E+04  0.13107548098E+04  0.40000000000E+03 0.  1.
   -9000005    1    1    2    0  503 -0.13330928984E+03 -0.30164281024E+03  0.54441677612E+03  0.75176417702E+03  0.40000000000E+03 0.  1.
<mgrwt>
<rscale>  2 0.51842044E+03</rscale>
<asrwt>0</asrwt>
<pdfrwt beam="1">  1       21 0.29313938E+00 0.51842044E+03</pdfrwt>
<pdfrwt beam="2">  1       21 0.24171216E-01 0.51842044E+03</pdfrwt>
<totfact> 0.46511056E+02</totfact>
</mgrwt>
</event>
<event>
 4    1  0.4857079E-002  0.4009856E+03  0.7818608E-02  0.1043439E+00
         21   -1    0    0  501  502  0.00000000000E+00  0.00000000000E+00  0.93908384952E+03  0.93908384952E+03  0.00000000000E+00 0. -1.
         21   -1    0    0  502  503 -0.00000000000E+00 -0.00000000000E+00 -0.17342873620E+03  0.17342873620E+03  0.00000000000E+00 0. -1.
    9000005    1    1    2  501    0  0.38968969602E+01  0.27826239016E+02  0.44560932966E+03  0.59946406070E+03  0.40000000000E+03 0. -1.
   -9000005    1    1    2    0  503 -0.38968969602E+01 -0.27826239016E+02  0.32004578366E+03  0.51304852502E+03  0.40000000000E+03 0. -1.
<mgrwt>
<rscale>  2 0.40098564E+03</rscale>
<asrwt>0</asrwt>
<pdfrwt beam="1">  1       21 0.14447444E+00 0.40098564E+03</pdfrwt>
<pdfrwt beam="2">  1       21 0.26681344E-01 0.40098564E+03</pdfrwt>
<totfact> 0.38993779E+03</totfact>
</mgrwt>
</event>
<event>
 4    1  0.4857079E-002  0.1155084E+04  0.7818608E-02  0.9153106E-01
         21   -1    0    0  503  502  0.00000000000E+00  0.00000000000E+00  0.33224172583E+04  0.33224172583E+04  0.00000000000E+00 0.  1.
         21   -1    0    0  501  503 -0.00000000000E+00 -0.00000000000E+00 -0.40820336369E+03  0.40820336369E+03  0.00000000000E+00 0. -1.
    9000005    1    1    2  501    0  0.10535446398E+04  0.25350198047E+03  0.12195213371E+04  0.16797177899E+04  0.40000000000E+03 0. -1.
   -9000005    1    1    2    0  502 -0.10535446398E+04 -0.25350198047E+03  0.16946925575E+04  0.20509028321E+04  0.40000000000E+03 0.  1.
<mgrwt>
<rscale>  2 0.11550842E+04</rscale>
<asrwt>0</asrwt>
<pdfrwt beam="1">  1       21 0.51114110E+00 0.11550842E+04</pdfrwt>
<pdfrwt beam="2">  1       21 0.62800520E-01 0.11550842E+04</pdfrwt>
<totfact> 0.18371535E+00</totfact>
</mgrwt>
</event>
<event>
 4    1  0.4857079E-002  0.5220580E+03  0.7818608E-02  0.1008177E+00
         21   -1    0    0  503  502  0.00000000000E+00  0.00000000000E+00  0.33886510775E+03  0.33886510775E+03  0.00000000000E+00 0.  1.
         21   -1    0    0  501  503 -0.00000000000E+00 -0.00000000000E+00 -0.90325713461E+03  0.90325713461E+03  0.00000000000E+00 0.  1.
    9000005    1    1    2  501    0 -0.16678076595E+03  0.29108197664E+03 -0.48777674441E+03  0.71447231815E+03  0.40000000000E+03 0.  1.
   -9000005    1    1    2    0  502  0.16678076595E+03 -0.29108197664E+03 -0.76615282458E+02  0.52764992421E+03  0.40000000000E+03 0.  1.
<mgrwt>
<rscale>  2 0.52205799E+03</rscale>
<asrwt>0</asrwt>
<pdfrwt beam="1">  1       21 0.52133093E-01 0.52205799E+03</pdfrwt>
<pdfrwt beam="2">  1       21 0.13896264E+00 0.52205799E+03</pdfrwt>
<totfact> 0.10497940E+03</totfact>
</mgrwt>
</event>
<event>
 4    1  0.4857079E-002  0.4704807E+03  0.7818608E-02  0.1021785E+00
         21   -1    0    0  501  502  0.00000000000E+00  0.00000000000E+00  0.11063329911E+04  0.11063329911E+04  0.00000000000E+00 0.  1.
         21   -1    0    0  502  503 -0.00000000000E+00 -0.00000000000E+00 -0.20869405300E+03  0.20869405300E+03  0.00000000000E+00 0.  1.
    9000005    1    1    2  501    0  0.58377661440E+02 -0.24071586939E+03  0.58242434506E+03  0.74871236056E+03  0.40000000000E+03 0.  1.
   -9000005    1    1    2    0  503 -0.58377661440E+02  0.24071586939E+03  0.31521459305E+03  0.56631468355E+03  0.40000000000E+03 0.  1.
<mgrwt>
<rscale>  2 0.47048069E+03</rscale>
<asrwt>0</asrwt>
<pdfrwt beam="1">  1       21 0.17020507E+00 0.47048069E+03</pdfrwt>
<pdfrwt beam="2">  1       21 0.32106778E-01 0.47048069E+03</pdfrwt>
<totfact> 0.16717912E+03</totfact>
</mgrwt>
</event>
<event>
 4    1  0.4857079E-002  0.4276968E+03  0.7818608E-02  0.1034590E+00
         21   -1    0    0  503  502  0.00000000000E+00  0.00000000000E+00  0.63374297768E+03  0.63374297768E+03  0.00000000000E+00 0.  1.
         21   -1    0    0  501  503 -0.00000000000E+00 -0.00000000000E+00 -0.32825345913E+03  0.32825345913E+03  0.00000000000E+00 0.  1.
    9000005    1    1    2  501    0 -0.43543080045E+02 -0.14501215773E+03 -0.14345816582E+02  0.42793729466E+03  0.40000000000E+03 0.  1.
   -9000005    1    1    2    0  502  0.43543080045E+02  0.14501215773E+03  0.31983533514E+03  0.53405914215E+03  0.40000000000E+03 0.  1.
<mgrwt>
<rscale>  2 0.42769677E+03</rscale>
<asrwt>0</asrwt>
<pdfrwt beam="1">  1       21 0.97498920E-01 0.42769677E+03</pdfrwt>
<pdfrwt beam="2">  1       21 0.50500532E-01 0.42769677E+03</pdfrwt>
<totfact> 0.28488150E+03</totfact>
</mgrwt>
</event>
<event>
 4    1  0.4857079E-002  0.4163385E+03  0.7818608E-02  0.1038265E+00
         21   -1    0    0  501  502  0.00000000000E+00  0.00000000000E+00  0.10299001163E+04  0.10299001163E+04  0.00000000000E+00 0. -1.
         21   -1    0    0  502  503 -0.00000000000E+00 -0.00000000000E+00 -0.19898913206E+03  0.19898913206E+03  0.00000000000E+00 0. -1.
    9000005    1    1    2  501    0 -0.79546700772E+02 -0.83726256981E+02  0.65673590851E+03  0.77758589059E+03  0.40000000000E+03 0. -1.
   -9000005    1    1    2    0  503  0.79546700772E+02  0.83726256981E+02  0.17417507570E+03  0.45130335774E+03  0.40000000000E+03 0. -1.
<mgrwt>
<rscale>  2 0.41633852E+03</rscale>
<asrwt>0</asrwt>
<pdfrwt beam="1">  1       21 0.15844617E+00 0.41633852E+03</pdfrwt>
<pdfrwt beam="2">  1       21 0.30613713E-01 0.41633852E+03</pdfrwt>
<totfact> 0.22989070E+03</totfact>
</mgrwt>
</event>
<event>
 4    1  0.4857079E-002  0.7244235E+03  0.7818608E-02  0.9676353E-01
         21   -1    0    0  501  502  0.00000000000E+00  0.00000000000E+00  0.23050581218E+04  0.23050581218E+04  0.00000000000E+00 0. -1.
         21   -1    0    0  502  503 -0.00000000000E+00 -0.00000000000E+00 -0.23588837666E+03  0.23588837666E+03  0.00000000000E+00 0. -1.
    9000005    1    1    2  501    0  0.40488302589E+03 -0.44817317421E+03  0.79742507006E+03  0.10773468342E+04  0.40000000000E+03 0. -1.
   -9000005    1    1    2    0  503 -0.40488302589E+03  0.44817317421E+03  0.12717446751E+04  0.14635996643E+04  0.40000000000E+03 0. -1.
<mgrwt>
<rscale>  2 0.72442354E+03</rscale>
<asrwt>0</asrwt>
<pdfrwt beam="1">  1       21 0.35462431E+00 0.72442354E+03</pdfrwt>
<pdfrwt beam="2">  1       21 0.36290521E-01 0.72442354E+03</pdfrwt>
<totfact> 0.79068146E+01</totfact>
</mgrwt>
</event>
<event>
 4    1  0.4857079E-002  0.4275002E+03  0.7818608E-02  0.1034653E+00
         21   -1    0    0  501  502  0.00000000000E+00  0.00000000000E+00  0.32194160155E+04  0.32194160155E+04  0.00000000000E+00 0. -1.
         21   -1    0    0  502  503 -0.00000000000E+00 -0.00000000000E+00 -0.60451870634E+02  0.60451870634E+02  0.00000000000E+00 0. -1.
    9000005    1    1    2  501    0 -0.94000278223E-01  0.15085220682E+03  0.11745929433E+04  0.12499699915E+04  0.40000000000E+03 0. -1.
   -9000005    1    1    2    0  503  0.94000278223E-01 -0.15085220682E+03  0.19843712015E+04  0.20298978946E+04  0.40000000000E+03 0. -1.
<mgrwt>
<rscale>  2 0.42750017E+03</rscale>
<asrwt>0</asrwt>
<pdfrwt beam="1">  1       21 0.49529464E+00 0.42750017E+03</pdfrwt>
<pdfrwt beam="2">  1       21 0.93002903E-02 0.42750017E+03</pdfrwt>
<totfact> 0.14447384E+02</totfact>
</mgrwt>
</event>
<event>
 4    1  0.4857079E-002  0.5634270E+03  0.7818608E-02  0.9984330E-01
         21   -1    0    0  503  502  0.00000000000E+00  0.00000000000E+00  0.17963689574E+04  0.17963689574E+04  0.00000000000E+00 0.  1.
         21   -1    0    0  501  503 -0.00000000000E+00 -0.00000000000E+00 -0.27501534570E+03  0.27501534570E+03  0.00000000000E+00 0.  1.
    9000005    1    1    2  501    0  0.12843704346E+03  0.37543822999E+03  0.14148658449E+03  0.58092029769E+03  0.40000000000E+03 0.  1.
   -9000005    1    1    2    0  502 -0.12843704346E+03 -0.37543822999E+03  0.13798670272E+04  0.14904640054E+04  0.40000000000E+03 0.  1.
<mgrwt>
<rscale>  2 0.56342696E+03</rscale>
<asrwt>0</asrwt>
<pdfrwt beam="1">  1       21 0.27636445E+00 0.56342696E+03</pdfrwt>
<pdfrwt beam="2">  1       21 0.42310054E-01 0.56342696E+03</pdfrwt>
<totfact> 0.18669418E+02</totfact>
</mgrwt>
</event>
<event>
 4    1  0.4857079E-002  0.6186412E+03  0.7818608E-02  0.9867469E-01
         21   -1    0    0  503  502  0.00000000000E+00  0.00000000000E+00  0.14232361631E+04  0.14232361631E+04  0.00000000000E+00 0. -1.
         21   -1    0    0  501  503 -0.00000000000E+00 -0.00000000000E+00 -0.35238835699E+03  0.35238835699E+03  0.00000000000E+00 0.  1.
    9000005    1    1    2  501    0  0.47182301983E+03 -0.99980411326E+01  0.10330089935E+03  0.62720650401E+03  0.40000000000E+03 0.  1.
   -9000005    1    1    2    0  502 -0.47182301983E+03  0.99980411326E+01  0.96754690680E+03  0.11484180161E+04  0.40000000000E+03 0. -1.
<mgrwt>
<rscale>  2 0.61864119E+03</rscale>
<asrwt>0</asrwt>
<pdfrwt beam="1">  1       21 0.21895941E+00 0.61864119E+03</pdfrwt>
<pdfrwt beam="2">  1       21 0.54213594E-01 0.61864119E+03</pdfrwt>
<totfact> 0.24605008E+02</totfact>
</mgrwt>
</event>
<event>
 4    1  0.4857079E-002  0.4528616E+03  0.7818608E-02  0.1026872E+00
         21   -1    0    0  501  502  0.00000000000E+00  0.00000000000E+00  0.12526175025E+03  0.12526175025E+03  0.00000000000E+00 0.  1.
         21   -1    0    0  502  503 -0.00000000000E+00 -0.00000000000E+00 -0.17185627062E+04  0.17185627062E+04  0.00000000000E+00 0. -1.
    9000005    1    1    2  501    0  0.17070505345E+03 -0.12626740829E+03 -0.59610627347E+03  0.74861629888E+03  0.40000000000E+03 0.  1.
   -9000005    1    1    2    0  503 -0.17070505345E+03  0.12626740829E+03 -0.99719468252E+03  0.10952081576E+04  0.40000000000E+03 0. -1.
<mgrwt>
<rscale>  2 0.45286165E+03</rscale>
<asrwt>0</asrwt>
<pdfrwt beam="1">  1       21 0.19271040E-01 0.45286165E+03</pdfrwt>
<pdfrwt beam="2">  1       21 0.26439424E+00 0.45286165E+03</pdfrwt>
<totfact> 0.11083854E+03</totfact>
</mgrwt>
</event>
<event>
 4    1  0.4857079E-002  0.4281016E+03  0.7818608E-02  0.1034461E+00
         21   -1    0    0  501  502  0.00000000000E+00  0.00000000000E+00  0.19977047279E+04  0.19977047279E+04  0.00000000000E+00 0.  1.
         21   -1    0    0  502  503 -0.00000000000E+00 -0.00000000000E+00 -0.99527581770E+02  0.99527581770E+02  0.00000000000E+00 0. -1.
    9000005    1    1    2  501    0 -0.20124161825E+02 -0.15121498616E+03  0.65577991677E+03  0.78314638042E+03  0.40000000000E+03 0. -1.
   -9000005    1    1    2    0  503  0.20124161825E+02  0.15121498616E+03  0.12423972294E+04  0.13140859293E+04  0.40000000000E+03 0.  1.
<mgrwt>
<rscale>  2 0.42810157E+03</rscale>
<asrwt>0</asrwt>
<pdfrwt beam="1">  1       21 0.30733916E+00 0.42810157E+03</pdfrwt>
<pdfrwt beam="2">  1       21 0.15311937E-01 0.42810157E+03</pdfrwt>
<totfact> 0.95319728E+02</totfact>
</mgrwt>
</event>
<event>
 4    1  0.4857079E-002  0.4219640E+03  0.7818608E-02  0.1036429E+00
         21   -1    0    0  501  502  0.00000000000E+00  0.00000000000E+00  0.29647524524E+04  0.29647524524E+04  0.00000000000E+00 0.  1.
         21   -1    0    0  502  503 -0.00000000000E+00 -0.00000000000E+00 -0.64161598384E+02  0.64161598384E+02  0.00000000000E+00 0. -1.
    9000005    1    1    2  501    0  0.10232303274E+03  0.87084029461E+02  0.18333527289E+04  0.18812856933E+04  0.40000000000E+03 0.  1.
   -9000005    1    1    2    0  503 -0.10232303274E+03 -0.87084029461E+02  0.10672381251E+04  0.11476283574E+04  0.40000000000E+03 0. -1.
<mgrwt>
<rscale>  2 0.42196402E+03</rscale>
<asrwt>0</asrwt>
<pdfrwt beam="1">  1       21 0.45611566E+00 0.42196402E+03</pdfrwt>
<pdfrwt beam="2">  1       21 0.98710174E-02 0.42196402E+03</pdfrwt>
<totfact> 0.24408011E+02</totfact>
</mgrwt>
</event>
<event>
 4    1  0.4857079E-002  0.5228199E+03  0.7818608E-02  0.1007988E+00
         21   -1    0    0  501  502  0.00000000000E+00  0.00000000000E+00  0.71338482188E+03  0.71338482188E+03  0.00000000000E+00 0.  1.
         21   -1    0    0  502  503 -0.00000000000E+00 -0.00000000000E+00 -0.10056689019E+04  0.10056689019E+04  0.00000000000E+00 0. -1.
    9000005    1    1    2  501    0 -0.19504712854E+03  0.27440351283E+03  0.53010387887E+03  0.74454737431E+03  0.40000000000E+03 0.  1.
   -9000005    1    1    2    0  503  0.19504712854E+03 -0.27440351283E+03 -0.82238795886E+03  0.97450634943E+03  0.40000000000E+03 0. -1.
<mgrwt>
<rscale>  2 0.52281992E+03</rscale>
<asrwt>0</asrwt>
<pdfrwt beam="1">  1       21 0.10975151E+00 0.52281992E+03</pdfrwt>
<pdfrwt beam="2">  1       21 0.15471829E+00 0.52281992E+03</pdfrwt>
<totfact> 0.14126273E+02</totfact>
</mgrwt>
</event>
<event>
 4    1  0.4857079E-002  0.4514659E+03  0.7818608E-02  0.1027286E+00
         21   -1    0    0  501  502  0.00000000000E+00  0.00000000000E+00  0.93356522045E+03  0.93356522045E+03  0.00000000000E+00 0.  1.
         21   -1    0    0  502  503 -0.00000000000E+00 -0.00000000000E+00 -0.24900088309E+03  0.24900088309E+03  0.00000000000E+00 0.  1.
    9000005    1    1    2  501    0 -0.17612904189E+03  0.11313720931E+03  0.13474917595E+03  0.47114627022E+03  0.40000000000E+03 0.  1.
   -9000005    1    1    2    0  503  0.17612904189E+03 -0.11313720931E+03  0.54981516141E+03  0.71141983332E+03  0.40000000000E+03 0.  1.
<mgrwt>
<rscale>  2 0.45146591E+03</rscale>
<asrwt>0</asrwt>
<pdfrwt beam="1">  1       21 0.14362542E+00 0.45146591E+03</pdfrwt>
<pdfrwt beam="2">  1       21 0.38307829E-01 0.45146591E+03</pdfrwt>
<totfact> 0.18831745E+03</totfact>
</mgrwt>
</event>
<event>
 4    1  0.4857079E-002  0.5480575E+03  0.7818608E-02  0.1001945E+00
         21   -1    0    0  501  502  0.00000000000E+00  0.00000000000E+00  0.96004283596E+03  0.96004283596E+03  0.00000000000E+00 0. -1.
         21   -1    0    0  502  503 -0.00000000000E+00 -0.00000000000E+00 -0.35474133907E+03  0.35474133907E+03  0.00000000000E+00 0. -1.
    9000005    1    1    2  501    0  0.34602251375E+03  0.14365057799E+03  0.76792851063E+02  0.55341142972E+03  0.40000000000E+03 0. -1.
   -9000005    1    1    2    0  503 -0.34602251375E+03 -0.14365057799E+03  0.52850864582E+03  0.76137274530E+03  0.40000000000E+03 0. -1.
<mgrwt>
<rscale>  2 0.54805754E+03</rscale>
<asrwt>0</asrwt>
<pdfrwt beam="1">  1       21 0.14769890E+00 0.54805754E+03</pdfrwt>
<pdfrwt beam="2">  1       21 0.54575591E-01 0.54805754E+03</pdfrwt>
<totfact> 0.79955898E+02</totfact>
</mgrwt>
</event>
<event>
 4    1  0.4857079E-002  0.4509566E+03  0.7818608E-02  0.1027437E+00
         21   -1    0    0  501  502  0.00000000000E+00  0.00000000000E+00  0.14889139998E+03  0.14889139998E+03  0.00000000000E+00 0. -1.
         21   -1    0    0  502  503 -0.00000000000E+00 -0.00000000000E+00 -0.13940784769E+04  0.13940784769E+04  0.00000000000E+00 0. -1.
    9000005    1    1    2  501    0  0.37949027823E+02 -0.20474794759E+03 -0.51279327311E+03  0.68287538519E+03  0.40000000000E+03 0. -1.
   -9000005    1    1    2    0  503 -0.37949027823E+02  0.20474794759E+03 -0.73239380378E+03  0.86009449165E+03  0.40000000000E+03 0. -1.
<mgrwt>
<rscale>  2 0.45095660E+03</rscale>
<asrwt>0</asrwt>
<pdfrwt beam="1">  1       21 0.22906370E-01 0.45095660E+03</pdfrwt>
<pdfrwt beam="2">  1       21 0.21447360E+00 0.45095660E+03</pdfrwt>
<totfact> 0.16316141E+03</totfact>
</mgrwt>
</event>
<event>
 4    1  0.4857079E-002  0.4068384E+03  0.7818608E-02  0.1041437E+00
         21   -1    0    0  501  502  0.00000000000E+00  0.00000000000E+00  0.41702597585E+03  0.41702597585E+03  0.00000000000E+00 0. -1.
         21   -1    0    0  502  503 -0.00000000000E+00 -0.00000000000E+00 -0.60908809849E+03  0.60908809849E+03  0.00000000000E+00 0. -1.
    9000005    1    1    2  501    0  0.55978969359E+02 -0.48824347856E+02  0.20679027064E+03  0.45637668432E+03  0.40000000000E+03 0. -1.
   -9000005    1    1    2    0  503 -0.55978969359E+02  0.48824347856E+02 -0.39885239328E+03  0.56973739002E+03  0.40000000000E+03 0. -1.
<mgrwt>
<rscale>  2 0.40683837E+03</rscale>
<asrwt>0</asrwt>
<pdfrwt beam="1">  1       21 0.64157842E-01 0.40683837E+03</pdfrwt>
<pdfrwt beam="2">  1       21 0.93705862E-01 0.40683837E+03</pdfrwt>
<totfact> 0.18797901E+03</totfact>
</mgrwt>
</event>
<event>
 4    1  0.4857079E-002  0.4059645E+03  0.7818608E-02  0.1041734E+00
         21   -1    0    0  503  502  0.00000000000E+00  0.00000000000E+00  0.22916856403E+03  0.22916856403E+03  0.00000000000E+00 0.  1.
         21   -1    0    0  501  503 -0.00000000000E+00 -0.00000000000E+00 -0.73664174136E+03  0.73664174136E+03  0.00000000000E+00 0.  1.
    9000005    1    1    2  501    0  0.40654594489E+02 -0.56163992849E+02 -0.32814409626E+03  0.52200166480E+03  0.40000000000E+03 0. -1.
   -9000005    1    1    2    0  502 -0.40654594489E+02  0.56163992849E+02 -0.17932908107E+03  0.44380864059E+03  0.40000000000E+03 0. -1.
<mgrwt>
<rscale>  2 0.40596452E+03</rscale>
<asrwt>0</asrwt>
<pdfrwt beam="1">  1       21 0.35256703E-01 0.40596452E+03</pdfrwt>
<pdfrwt beam="2">  1       21 0.11332950E+00 0.40596452E+03</pdfrwt>
<totfact> 0.41824387E+03</totfact>
</mgrwt>
</event>
<event>
 4    1  0.4857079E-002  0.4113638E+03  0.7818608E-02  0.1039914E+00
         21   -1    0    0  503  502  0.00000000000E+00  0.00000000000E+00  0.49955294148E+03  0.49955294148E+03  0.00000000000E+00 0.  1.
         21   -1    0    0  501  503 -0.00000000000E+00 -0.00000000000E+00 -0.44953704417E+03  0.44953704417E+03  0.00000000000E+00 0.  1.
    9000005    1    1    2  501    0  0.52995559447E+02 -0.80072803864E+02 -0.21057962785E+03  0.46212981175E+03  0.40000000000E+03 0.  1.
   -9000005    1    1    2    0  502 -0.52995559447E+02  0.80072803864E+02  0.26059552516E+03  0.48696017391E+03  0.40000000000E+03 0.  1.
<mgrwt>
<rscale>  2 0.41136381E+03</rscale>
<asrwt>0</asrwt>
<pdfrwt beam="1">  1       21 0.76854299E-01 0.41136381E+03</pdfrwt>
<pdfrwt beam="2">  1       21 0.69159545E-01 0.41136381E+03</pdfrwt>
<totfact> 0.25214028E+03</totfact>
</mgrwt>
</event>
<event>
 4    1  0.4857079E-002  0.5108133E+03  0.7818608E-02  0.1010994E+00
         21   -1    0    0  501  502  0.00000000000E+00  0.00000000000E+00  0.12723174291E+04  0.12723174291E+04  0.00000000000E+00 0. -1.
         21   -1    0    0  502  503 -0.00000000000E+00 -0.00000000000E+00 -0.20560828165E+03  0.20560828165E+03  0.00000000000E+00 0. -1.
    9000005    1    1    2  501    0  0.12248927797E+03 -0.29313247683E+03  0.57071650904E+03  0.76592924339E+03  0.40000000000E+03 0. -1.
   -9000005    1    1    2    0  503 -0.12248927797E+03  0.29313247683E+03  0.49599263844E+03  0.71199646739E+03  0.40000000000E+03 0. -1.
<mgrwt>
<rscale>  2 0.51081334E+03</rscale>
<asrwt>0</asrwt>
<pdfrwt beam="1">  1       21 0.19574114E+00 0.51081334E+03</pdfrwt>
<pdfrwt beam="2">  1       21 0.31632044E-01 0.51081334E+03</pdfrwt>
<totfact> 0.11222288E+03</totfact>
</mgrwt>
</event>
<event>
 4    1  0.4857079E-002  0.4737388E+03  0.7818608E-02  0.1020870E+00
         21   -1    0    0  501  502  0.00000000000E+00  0.00000000000E+00  0.15144899189E+03  0.15144899189E+03  0.00000000000E+00 0. -1.
         21   -1    0    0  502  503 -0.00000000000E+00 -0.00000000000E+00 -0.14819638937E+04  0.14819638937E+04  0.00000000000E+00 0.  1.
    9000005    1    1    2  501    0 -0.10355040345E+03 -0.23174509158E+03 -0.65893181548E+03  0.81155382506E+03  0.40000000000E+03 0.  1.
   -9000005    1    1    2    0  503  0.10355040345E+03  0.23174509158E+03 -0.67158308631E+03  0.82185906051E+03  0.40000000000E+03 0. -1.
<mgrwt>
<rscale>  2 0.47373882E+03</rscale>
<asrwt>0</asrwt>
<pdfrwt beam="1">  1       21 0.23299844E-01 0.47373882E+03</pdfrwt>
<pdfrwt beam="2">  1       21 0.22799445E+00 0.47373882E+03</pdfrwt>
<totfact> 0.12808858E+03</totfact>
</mgrwt>
</event>
<event>
 4    1  0.4857079E-002  0.4076564E+03  0.7818608E-02  0.1041160E+00
         21   -1    0    0  503  502  0.00000000000E+00  0.00000000000E+00  0.14334518088E+03  0.14334518088E+03  0.00000000000E+00 0. -1.
         21   -1    0    0  501  503 -0.00000000000E+00 -0.00000000000E+00 -0.26026415603E+04  0.26026415603E+04  0.00000000000E+00 0. -1.
    9000005    1    1    2  501    0 -0.22738481948E+02 -0.75277295535E+02 -0.22520979949E+04  0.22886959362E+04  0.40000000000E+03 0. -1.
   -9000005    1    1    2    0  502  0.22738481948E+02  0.75277295535E+02 -0.20719838456E+03  0.45729080501E+03  0.40000000000E+03 0. -1.
<mgrwt>
<rscale>  2 0.40765636E+03</rscale>
<asrwt>0</asrwt>
<pdfrwt beam="1">  1       21 0.22053103E-01 0.40765636E+03</pdfrwt>
<pdfrwt beam="2">  1       21 0.40040642E+00 0.40765636E+03</pdfrwt>
<totfact> 0.12979592E+02</totfact>
</mgrwt>
</event>
<event>
 4    1  0.4857079E-002  0.5180333E+03  0.7818608E-02  0.1009176E+00
         21   -1    0    0  503  502  0.00000000000E+00  0.00000000000E+00  0.19092775396E+04  0.19092775396E+04  0.00000000000E+00 0.  1.
         21   -1    0    0  501  503 -0.00000000000E+00 -0.00000000000E+00 -0.14384239718E+03  0.14384239718E+03  0.00000000000E+00 0.  1.
    9000005    1    1    2  501    0  0.30153031210E+03  0.13205308613E+03  0.72752693937E+03  0.89311477100E+03  0.40000000000E+03 0.  1.
   -9000005    1    1    2    0  502 -0.30153031210E+03 -0.13205308613E+03  0.10379082031E+04  0.11600051658E+04  0.40000000000E+03 0.  1.
<mgrwt>
<rscale>  2 0.51803335E+03</rscale>
<asrwt>0</asrwt>
<pdfrwt beam="1">  1       21 0.29373499E+00 0.51803335E+03</pdfrwt>
<pdfrwt beam="2">  1       21 0.22129601E-01 0.51803335E+03</pdfrwt>
<totfact> 0.54730905E+02</totfact>
</mgrwt>
</event>
<event>
 4    1  0.4857079E-002  0.4710928E+03  0.7818608E-02  0.1021612E+00
         21   -1    0    0  501  502  0.00000000000E+00  0.00000000000E+00  0.28000867689E+03  0.28000867689E+03  0.00000000000E+00 0.  1.
         21   -1    0    0  502  503 -0.00000000000E+00 -0.00000000000E+00 -0.11573683706E+04  0.11573683706E+04  0.00000000000E+00 0.  1.
    9000005    1    1    2  501    0 -0.21896551001E+03  0.11824793436E+03 -0.35195104687E+02  0.47240571964E+03  0.40000000000E+03 0.  1.
   -9000005    1    1    2    0  503  0.21896551001E+03 -0.11824793436E+03 -0.84216458900E+03  0.96497132782E+03  0.40000000000E+03 0.  1.
<mgrwt>
<rscale>  2 0.47109284E+03</rscale>
<asrwt>0</asrwt>
<pdfrwt beam="1">  1       21 0.43078258E-01 0.47109284E+03</pdfrwt>
<pdfrwt beam="2">  1       21 0.17805667E+00 0.47109284E+03</pdfrwt>
<totfact> 0.80507376E+02</totfact>
</mgrwt>
</event>
<event>
 4    1  0.4857079E-002  0.5291467E+03  0.7818608E-02  0.1006439E+00
         21   -1    0    0  503  502  0.00000000000E+00  0.00000000000E+00  0.12997367671E+04  0.12997367671E+04  0.00000000000E+00 0. -1.
         21   -1    0    0  501  503 -0.00000000000E+00 -0.00000000000E+00 -0.29891160240E+03  0.29891160240E+03  0.00000000000E+00 0. -1.
    9000005    1    1    2  501    0 -0.34623321120E+03  0.10898047504E+02  0.77978317023E+02  0.53486149787E+03  0.40000000000E+03 0. -1.
   -9000005    1    1    2    0  502  0.34623321120E+03 -0.10898047504E+02  0.92284684763E+03  0.10637868716E+04  0.40000000000E+03 0. -1.
<mgrwt>
<rscale>  2 0.52914668E+03</rscale>
<asrwt>0</asrwt>
<pdfrwt beam="1">  1       21 0.19995950E+00 0.52914668E+03</pdfrwt>
<pdfrwt beam="2">  1       21 0.45986401E-01 0.52914668E+03</pdfrwt>
<totfact> 0.48375971E+02</totfact>
</mgrwt>
</event>
<event>
 4    1  0.4857079E-002  0.4080661E+03  0.7818608E-02  0.1041022E+00
         21   -1    0    0  503  502  0.00000000000E+00  0.00000000000E+00  0.43858813470E+03  0.43858813470E+03  0.00000000000E+00 0.  1.
         21   -1    0    0  501  503 -0.00000000000E+00 -0.00000000000E+00 -0.42541770696E+03  0.42541770696E+03  0.00000000000E+00 0.  1.
    9000005    1    1    2  501    0  0.57831638319E+02  0.56333466278E+02 -0.13508293441E+03  0.42984340984E+03  0.40000000000E+03 0.  1.
   -9000005    1    1    2    0  502 -0.57831638319E+02 -0.56333466278E+02  0.14825336215E+03  0.43416243182E+03  0.40000000000E+03 0.  1.
<mgrwt>
<rscale>  2 0.40806612E+03</rscale>
<asrwt>0</asrwt>
<pdfrwt beam="1">  1       21 0.67475097E-01 0.40806612E+03</pdfrwt>
<pdfrwt beam="2">  1       21 0.65448878E-01 0.40806612E+03</pdfrwt>
<totfact> 0.38311183E+03</totfact>
</mgrwt>
</event>
<event>
 4    1  0.4857079E-002  0.4010734E+03  0.7818608E-02  0.1043409E+00
         21   -1    0    0  503  502  0.00000000000E+00  0.00000000000E+00  0.74477144755E+03  0.74477144755E+03  0.00000000000E+00 0.  1.
         21   -1    0    0  501  503 -0.00000000000E+00 -0.00000000000E+00 -0.23798916070E+03  0.23798916070E+03  0.00000000000E+00 0.  1.
    9000005    1    1    2  501    0 -0.25854043637E+02 -0.13835381314E+02  0.10397882125E+03  0.41433252904E+03  0.40000000000E+03 0. -1.
   -9000005    1    1    2    0  502  0.25854043637E+02  0.13835381314E+02  0.40280346560E+03  0.56842807922E+03  0.40000000000E+03 0. -1.
<mgrwt>
<rscale>  2 0.40107337E+03</rscale>
<asrwt>0</asrwt>
<pdfrwt beam="1">  1       21 0.11458022E+00 0.40107337E+03</pdfrwt>
<pdfrwt beam="2">  1       21 0.36613717E-01 0.40107337E+03</pdfrwt>
<totfact> 0.37773089E+03</totfact>
</mgrwt>
</event>
<event>
 4    1  0.4857079E-002  0.4820285E+03  0.7818608E-02  0.1018579E+00
         21   -1    0    0  501  502  0.00000000000E+00  0.00000000000E+00  0.60863689519E+03  0.60863689519E+03  0.00000000000E+00 0. -1.
         21   -1    0    0  502  503 -0.00000000000E+00 -0.00000000000E+00 -0.44056764669E+03  0.44056764669E+03  0.00000000000E+00 0.  1.
    9000005    1    1    2  501    0 -0.24207303644E+03  0.11726926924E+03  0.27570349876E+03  0.55530519150E+03  0.40000000000E+03 0. -1.
   -9000005    1    1    2    0  503  0.24207303644E+03 -0.11726926924E+03 -0.10763425027E+03  0.49389935038E+03  0.40000000000E+03 0.  1.
<mgrwt>
<rscale>  2 0.48202846E+03</rscale>
<asrwt>0</asrwt>
<pdfrwt beam="1">  1       21 0.93636445E-01 0.48202846E+03</pdfrwt>
<pdfrwt beam="2">  1       21 0.67779638E-01 0.48202846E+03</pdfrwt>
<totfact> 0.16182716E+03</totfact>
</mgrwt>
</event>
<event>
 4    1  0.4857079E-002  0.4447612E+03  0.7818608E-02  0.1029296E+00
         21   -1    0    0  503  502  0.00000000000E+00  0.00000000000E+00  0.16778526734E+03  0.16778526734E+03  0.00000000000E+00 0. -1.
         21   -1    0    0  501  503 -0.00000000000E+00 -0.00000000000E+00 -0.12183764688E+04  0.12183764688E+04  0.00000000000E+00 0. -1.
    9000005    1    1    2  501    0  0.14287537737E+03  0.13190594097E+03 -0.64995293442E+03  0.78756038987E+03  0.40000000000E+03 0. -1.
   -9000005    1    1    2    0  502 -0.14287537737E+03 -0.13190594097E+03 -0.40063826699E+03  0.59860134622E+03  0.40000000000E+03 0. -1.
<mgrwt>
<rscale>  2 0.44476123E+03</rscale>
<asrwt>0</asrwt>
<pdfrwt beam="1">  1       21 0.25813118E-01 0.44476123E+03</pdfrwt>
<pdfrwt beam="2">  1       21 0.18744254E+00 0.44476123E+03</pdfrwt>
<totfact> 0.19640562E+03</totfact>
</mgrwt>
</event>
<event>
 4    1  0.4857079E-002  0.4315833E+03  0.7818608E-02  0.1033361E+00
         21   -1    0    0  501  502  0.00000000000E+00  0.00000000000E+00  0.69951336072E+03  0.69951336072E+03  0.00000000000E+00 0. -1.
         21   -1    0    0  502  503 -0.00000000000E+00 -0.00000000000E+00 -0.44745843196E+03  0.44745843196E+03  0.00000000000E+00 0. -1.
    9000005    1    1    2  501    0 -0.32226527957E+02  0.15882578612E+03  0.49095234690E+03  0.65368064555E+03  0.40000000000E+03 0. -1.
   -9000005    1    1    2    0  503  0.32226527957E+02 -0.15882578612E+03 -0.23889741814E+03  0.49329114713E+03  0.40000000000E+03 0. -1.
<mgrwt>
<rscale>  2 0.43158334E+03</rscale>
<asrwt>0</asrwt>
<pdfrwt beam="1">  1       21 0.10761744E+00 0.43158334E+03</pdfrwt>
<pdfrwt beam="2">  1       21 0.68839759E-01 0.43158334E+03</pdfrwt>
<totfact> 0.11362557E+03</totfact>
</mgrwt>
</event>
<event>
 4    1  0.4857079E-002  0.6010592E+03  0.7818608E-02  0.9903211E-01
         21   -1    0    0  503  502  0.00000000000E+00  0.00000000000E+00  0.21582349307E+04  0.21582349307E+04  0.00000000000E+00 0. -1.
         21   -1    0    0  501  503 -0.00000000000E+00 -0.00000000000E+00 -0.24222133750E+03  0.24222133750E+03  0.00000000000E+00 0. -1.
    9000005    1    1    2  501    0  0.44798578112E+03  0.24103117567E+02  0.29090476291E+03  0.66775579477E+03  0.40000000000E+03 0. -1.
   -9000005    1    1    2    0  502 -0.44798578112E+03 -0.24103117567E+02  0.16251088303E+04  0.17327004734E+04  0.40000000000E+03 0. -1.
<mgrwt>
<rscale>  2 0.60105925E+03</rscale>
<asrwt>0</asrwt>
<pdfrwt beam="1">  1       21 0.33203613E+00 0.60105925E+03</pdfrwt>
<pdfrwt beam="2">  1       21 0.37264823E-01 0.60105925E+03</pdfrwt>
<totfact> 0.10915677E+02</totfact>
</mgrwt>
</event>
<event>
 4    1  0.4857079E-002  0.4225726E+03  0.7818608E-02  0.1036232E+00
         21   -1    0    0  503  502  0.00000000000E+00  0.00000000000E+00  0.55495163616E+03  0.55495163616E+03  0.00000000000E+00 0.  1.
         21   -1    0    0  501  503 -0.00000000000E+00 -0.00000000000E+00 -0.35133562247E+03  0.35133562247E+03  0.00000000000E+00 0.  1.
    9000005    1    1    2  501    0  0.13622304134E+03  0.32934048830E+01 -0.29641219705E+02  0.42361086555E+03  0.40000000000E+03 0.  1.
   -9000005    1    1    2    0  502 -0.13622304134E+03 -0.32934048830E+01  0.23325723339E+03  0.48267639308E+03  0.40000000000E+03 0.  1.
<mgrwt>
<rscale>  2 0.42257255E+03</rscale>
<asrwt>0</asrwt>
<pdfrwt beam="1">  1       21 0.85377175E-01 0.42257255E+03</pdfrwt>
<pdfrwt beam="2">  1       21 0.54051634E-01 0.42257255E+03</pdfrwt>
<totfact> 0.33819209E+03</totfact>
</mgrwt>
</event>
<event>
 4    1  0.4857079E-002  0.4431232E+03  0.7818608E-02  0.1029793E+00
         21   -1    0    0  501  502  0.00000000000E+00  0.00000000000E+00  0.21472530954E+03  0.21472530954E+03  0.00000000000E+00 0. -1.
         21   -1    0    0  502  503 -0.00000000000E+00 -0.00000000000E+00 -0.92479071370E+03  0.92479071370E+03  0.00000000000E+00 0. -1.
    9000005    1    1    2  501    0 -0.16892809077E+03  0.88439239613E+02 -0.41524506462E+03  0.60727807687E+03  0.40000000000E+03 0.  1.
   -9000005    1    1    2    0  503  0.16892809077E+03 -0.88439239613E+02 -0.29482033953E+03  0.53223794637E+03  0.40000000000E+03 0.  1.
<mgrwt>
<rscale>  2 0.44312323E+03</rscale>
<asrwt>0</asrwt>
<pdfrwt beam="1">  1       21 0.33034663E-01 0.44312323E+03</pdfrwt>
<pdfrwt beam="2">  1       21 0.14227549E+00 0.44312323E+03</pdfrwt>
<totfact> 0.26163971E+03</totfact>
</mgrwt>
</event>
<event>
 4    1  0.4857079E-002  0.4214100E+03  0.7818608E-02  0.1036608E+00
         21   -1    0    0  501  502  0.00000000000E+00  0.00000000000E+00  0.18808562027E+04  0.18808562027E+04  0.00000000000E+00 0. -1.
         21   -1    0    0  502  503 -0.00000000000E+00 -0.00000000000E+00 -0.12458243608E+03  0.12458243608E+03  0.00000000000E+00 0. -1.
    9000005    1    1    2  501    0 -0.40706017844E+02 -0.12621165691E+03  0.13715376254E+04  0.14348176958E+04  0.40000000000E+03 0. -1.
   -9000005    1    1    2    0  503  0.40706017844E+02  0.12621165691E+03  0.38473614121E+03  0.57062094299E+03  0.40000000000E+03 0. -1.
<mgrwt>
<rscale>  2 0.42140997E+03</rscale>
<asrwt>0</asrwt>
<pdfrwt beam="1">  1       21 0.28936247E+00 0.42140997E+03</pdfrwt>
<pdfrwt beam="2">  1       21 0.19166530E-01 0.42140997E+03</pdfrwt>
<totfact> 0.80524435E+02</totfact>
</mgrwt>
</event>
<event>
 4    1  0.4857079E-002  0.5226232E+03  0.7818608E-02  0.1008037E+00
         21   -1    0    0  503  502  0.00000000000E+00  0.00000000000E+00  0.76254809056E+03  0.76254809056E+03  0.00000000000E+00 0. -1.
         21   -1    0    0  501  503 -0.00000000000E+00 -0.00000000000E+00 -0.51744258062E+03  0.51744258062E+03  0.00000000000E+00 0. -1.
    9000005    1    1    2  501    0  0.31669107406E+03  0.11332145174E+03 -0.23249988311E+03  0.57200627921E+03  0.40000000000E+03 0. -1.
   -9000005    1    1    2    0  502 -0.31669107406E+03 -0.11332145174E+03  0.47760539304E+03  0.70798439197E+03  0.40000000000E+03 0. -1.
<mgrwt>
<rscale>  2 0.52262318E+03</rscale>
<asrwt>0</asrwt>
<pdfrwt beam="1">  1       21 0.11731509E+00 0.52262318E+03</pdfrwt>
<pdfrwt beam="2">  1       21 0.79606550E-01 0.52262318E+03</pdfrwt>
<totfact> 0.63446352E+02</totfact>
</mgrwt>
</event>
<event>
 4    1  0.4857079E-002  0.4240017E+03  0.7818608E-02  0.1035772E+00
         21   -1    0    0  501  502  0.00000000000E+00  0.00000000000E+00  0.58543340193E+03  0.58543340193E+03  0.00000000000E+00 0.  1.
         21   -1    0    0  502  503 -0.00000000000E+00 -0.00000000000E+00 -0.38563035958E+03  0.38563035958E+03  0.00000000000E+00 0.  1.
    9000005    1    1    2  501    0 -0.12046857063E+03 -0.72558820890E+02  0.31902761451E+03  0.53061858035E+03  0.40000000000E+03 0.  1.
   -9000005    1    1    2    0  503  0.12046857063E+03  0.72558820890E+02 -0.11922457216E+03  0.44044518116E+03  0.40000000000E+03 0.  1.
<mgrwt>
<rscale>  2 0.42400172E+03</rscale>
<asrwt>0</asrwt>
<pdfrwt beam="1">  1       21 0.90066677E-01 0.42400172E+03</pdfrwt>
<pdfrwt beam="2">  1       21 0.59327748E-01 0.42400172E+03</pdfrwt>
<totfact> 0.24359537E+03</totfact>
</mgrwt>
</event>
<event>
 4    1  0.4857079E-002  0.5433859E+03  0.7818608E-02  0.1003037E+00
         21   -1    0    0  503  502  0.00000000000E+00  0.00000000000E+00  0.28142519075E+03  0.28142519075E+03  0.00000000000E+00 0.  1.
         21   -1    0    0  501  503 -0.00000000000E+00 -0.00000000000E+00 -0.10913158407E+04  0.10913158407E+04  0.00000000000E+00 0. -1.
    9000005    1    1    2  501    0  0.26822639435E+03 -0.25164032057E+03 -0.53979881545E+03  0.76593146607E+03  0.40000000000E+03 0. -1.
   -9000005    1    1    2    0  502 -0.26822639435E+03  0.25164032057E+03 -0.27009183449E+03  0.60680956537E+03  0.40000000000E+03 0.  1.
<mgrwt>
<rscale>  2 0.54338591E+03</rscale>
<asrwt>0</asrwt>
<pdfrwt beam="1">  1       21 0.43296183E-01 0.54338591E+03</pdfrwt>
<pdfrwt beam="2">  1       21 0.16789475E+00 0.54338591E+03</pdfrwt>
<totfact> 0.91715197E+02</totfact>
</mgrwt>
</event>
<event>
 4    1  0.4857079E-002  0.5586083E+03  0.7818608E-02  0.9995209E-01
         21   -1    0    0  503  502  0.00000000000E+00  0.00000000000E+00  0.75743110889E+03  0.75743110889E+03  0.00000000000E+00 0. -1.
         21   -1    0    0  501  503 -0.00000000000E+00 -0.00000000000E+00 -0.48975026169E+03  0.48975026169E+03  0.00000000000E+00 0. -1.
    9000005    1    1    2  501    0 -0.38019365277E+03 -0.86579695168E+02  0.38234300121E+03  0.67692645671E+03  0.40000000000E+03 0. -1.
   -9000005    1    1    2    0  502  0.38019365277E+03  0.86579695168E+02 -0.11466215400E+03  0.57025491386E+03  0.40000000000E+03 0. -1.
<mgrwt>
<rscale>  2 0.55860832E+03</rscale>
<asrwt>0</asrwt>
<pdfrwt beam="1">  1       21 0.11652786E+00 0.55860832E+03</pdfrwt>
<pdfrwt beam="2">  1       21 0.75346194E-01 0.55860832E+03</pdfrwt>
<totfact> 0.72320979E+02</totfact>
</mgrwt>
</event>
<event>
 4    1  0.4857079E-002  0.4067128E+03  0.7818608E-02  0.1041480E+00
         21   -1    0    0  501  502  0.00000000000E+00  0.00000000000E+00  0.16731640890E+03  0.16731640890E+03  0.00000000000E+00 0.  1.
         21   -1    0    0  502  503 -0.00000000000E+00 -0.00000000000E+00 -0.12066450576E+04  0.12066450576E+04  0.00000000000E+00 0.  1.
    9000005    1    1    2  501    0  0.71304148319E+02  0.18193395470E+02 -0.22765915961E+03  0.46609438332E+03  0.40000000000E+03 0.  1.
   -9000005    1    1    2    0  503 -0.71304148319E+02 -0.18193395470E+02 -0.81166948910E+03  0.90786708319E+03  0.40000000000E+03 0.  1.
<mgrwt>
<rscale>  2 0.40671277E+03</rscale>
<asrwt>0</asrwt>
<pdfrwt beam="1">  1       21 0.25740985E-01 0.40671277E+03</pdfrwt>
<pdfrwt beam="2">  1       21 0.18563771E+00 0.40671277E+03</pdfrwt>
<totfact> 0.20665231E+03</totfact>
</mgrwt>
</event>
<event>
 4    1  0.4857079E-002  0.4448908E+03  0.7818608E-02  0.1029257E+00
         21   -1    0    0  501  502  0.00000000000E+00  0.00000000000E+00  0.12393482291E+04  0.12393482291E+04  0.00000000000E+00 0. -1.
         21   -1    0    0  502  503 -0.00000000000E+00 -0.00000000000E+00 -0.16032617915E+03  0.16032617915E+03  0.00000000000E+00 0. -1.
    9000005    1    1    2  501    0 -0.13066303666E+03  0.14441273144E+03  0.49588607721E+03  0.66620632519E+03  0.40000000000E+03 0. -1.
   -9000005    1    1    2    0  503  0.13066303666E+03 -0.14441273144E+03  0.58313597271E+03  0.73346808303E+03  0.40000000000E+03 0. -1.
<mgrwt>
<rscale>  2 0.44489085E+03</rscale>
<asrwt>0</asrwt>
<pdfrwt beam="1">  1       21 0.19066895E+00 0.44489085E+03</pdfrwt>
<pdfrwt beam="2">  1       21 0.24665567E-01 0.44489085E+03</pdfrwt>
<totfact> 0.20393106E+03</totfact>
</mgrwt>
</event>
<event>
 4    1  0.4857079E-002  0.4941223E+03  0.7818608E-02  0.1015325E+00
         21   -1    0    0  501  502  0.00000000000E+00  0.00000000000E+00  0.13862903842E+04  0.13862903842E+04  0.00000000000E+00 0.  1.
         21   -1    0    0  502  503 -0.00000000000E+00 -0.00000000000E+00 -0.21426352596E+03  0.21426352596E+03  0.00000000000E+00 0. -1.
    9000005    1    1    2  501    0  0.28444624277E+03  0.56983999328E+02  0.24836655761E+03  0.55303054902E+03  0.40000000000E+03 0. -1.
   -9000005    1    1    2    0  503 -0.28444624277E+03 -0.56983999328E+02  0.92366030066E+03  0.10475233612E+04  0.40000000000E+03 0.  1.
<mgrwt>
<rscale>  2 0.49412229E+03</rscale>
<asrwt>0</asrwt>
<pdfrwt beam="1">  1       21 0.21327544E+00 0.49412229E+03</pdfrwt>
<pdfrwt beam="2">  1       21 0.32963620E-01 0.49412229E+03</pdfrwt>
<totfact> 0.79569876E+02</totfact>
</mgrwt>
</event>
<event>
 4    1  0.4857079E-002  0.5014230E+03  0.7818608E-02  0.1013408E+00
         21   -1    0    0  501  502  0.00000000000E+00  0.00000000000E+00  0.30949955764E+03  0.30949955764E+03  0.00000000000E+00 0. -1.
         21   -1    0    0  502  503 -0.00000000000E+00 -0.00000000000E+00 -0.81554857287E+03  0.81554857287E+03  0.00000000000E+00 0.  1.
    9000005    1    1    2  501    0  0.21516482376E+03 -0.21243617401E+03 -0.28819846527E+03  0.57834538538E+03  0.40000000000E+03 0.  1.
   -9000005    1    1    2    0  503 -0.21516482376E+03  0.21243617401E+03 -0.21785054996E+03  0.54670274513E+03  0.40000000000E+03 0. -1.
<mgrwt>
<rscale>  2 0.50142300E+03</rscale>
<asrwt>0</asrwt>
<pdfrwt beam="1">  1       21 0.47615316E-01 0.50142300E+03</pdfrwt>
<pdfrwt beam="2">  1       21 0.12546901E+00 0.50142300E+03</pdfrwt>
<totfact> 0.16761496E+03</totfact>
</mgrwt>
</event>
<event>
 4    1  0.4857079E-002  0.4963421E+03  0.7818608E-02  0.1014738E+00
         21   -1    0    0  501  502  0.00000000000E+00  0.00000000000E+00  0.21708665870E+03  0.21708665870E+03  0.00000000000E+00 0.  1.
         21   -1    0    0  502  503 -0.00000000000E+00 -0.00000000000E+00 -0.23372082581E+04  0.23372082581E+04  0.00000000000E+00 0. -1.
    9000005    1    1    2  501    0  0.26337221283E+03  0.13034778837E+03 -0.19760992717E+04  0.20374797668E+04  0.40000000000E+03 0. -1.
   -9000005    1    1    2    0  503 -0.26337221283E+03 -0.13034778837E+03 -0.14402232773E+03  0.51681515004E+03  0.40000000000E+03 0.  1.
<mgrwt>
<rscale>  2 0.49634209E+03</rscale>
<asrwt>0</asrwt>
<pdfrwt beam="1">  1       21 0.33397946E-01 0.49634209E+03</pdfrwt>
<pdfrwt beam="2">  1       21 0.35957051E+00 0.49634209E+03</pdfrwt>
<totfact> 0.97634802E+01</totfact>
</mgrwt>
</event>
<event>
 4    1  0.4857079E-002  0.4572850E+03  0.7818608E-02  0.1025572E+00
         21   -1    0    0  503  502  0.00000000000E+00  0.00000000000E+00  0.94922673837E+03  0.94922673837E+03  0.00000000000E+00 0. -1.
         21   -1    0    0  501  503 -0.00000000000E+00 -0.00000000000E+00 -0.22033081561E+03  0.22033081561E+03  0.00000000000E+00 0.  1.
    9000005    1    1    2  501    0  0.10564914151E+03 -0.19480196894E+03  0.37194263921E+03  0.58944963743E+03  0.40000000000E+03 0.  1.
   -9000005    1    1    2    0  502 -0.10564914151E+03  0.19480196894E+03  0.35695328355E+03  0.58010791655E+03  0.40000000000E+03 0.  1.
<mgrwt>
<rscale>  2 0.45728497E+03</rscale>
<asrwt>0</asrwt>
<pdfrwt beam="1">  1       21 0.14603488E+00 0.45728497E+03</pdfrwt>
<pdfrwt beam="2">  1       21 0.33897049E-01 0.45728497E+03</pdfrwt>
<totfact> 0.23036273E+03</totfact>
</mgrwt>
</event>
<event>
 4    1  0.4857079E-002  0.4230946E+03  0.7818608E-02  0.1036064E+00
         21   -1    0    0  501  502  0.00000000000E+00  0.00000000000E+00  0.26827706488E+03  0.26827706488E+03  0.00000000000E+00 0. -1.
         21   -1    0    0  502  503 -0.00000000000E+00 -0.00000000000E+00 -0.80706787664E+03  0.80706787664E+03  0.00000000000E+00 0.  1.
    9000005    1    1    2  501    0  0.92758918601E+01 -0.13756093860E+03 -0.45607158123E+02  0.42554561080E+03  0.40000000000E+03 0. -1.
   -9000005    1    1    2    0  503 -0.92758918601E+01  0.13756093860E+03 -0.49318365363E+03  0.64979933072E+03  0.40000000000E+03 0.  1.
<mgrwt>
<rscale>  2 0.42309462E+03</rscale>
<asrwt>0</asrwt>
<pdfrwt beam="1">  1       21 0.41273396E-01 0.42309462E+03</pdfrwt>
<pdfrwt beam="2">  1       21 0.12416429E+00 0.42309462E+03</pdfrwt>
<totfact> 0.23911588E+03</totfact>
</mgrwt>
</event>
<event>
 4    1  0.4857079E-002  0.4017728E+03  0.7818608E-02  0.1043168E+00
         21   -1    0    0  501  502  0.00000000000E+00  0.00000000000E+00  0.51549916919E+03  0.51549916919E+03  0.00000000000E+00 0. -1.
         21   -1    0    0  502  503 -0.00000000000E+00 -0.00000000000E+00 -0.63643817644E+03  0.63643817644E+03  0.00000000000E+00 0. -1.
    9000005    1    1    2  501    0  0.12285054399E+02  0.35643860225E+02  0.35004167498E+03  0.53287013574E+03  0.40000000000E+03 0. -1.
   -9000005    1    1    2    0  503 -0.12285054399E+02 -0.35643860225E+02 -0.47098068223E+03  0.61906720990E+03  0.40000000000E+03 0. -1.
<mgrwt>
<rscale>  2 0.40177283E+03</rscale>
<asrwt>0</asrwt>
<pdfrwt beam="1">  1       21 0.79307565E-01 0.40177283E+03</pdfrwt>
<pdfrwt beam="2">  1       21 0.97913565E-01 0.40177283E+03</pdfrwt>
<totfact> 0.10515602E+03</totfact>
</mgrwt>
</event>
<event>
 4    1  0.4857079E-002  0.4008507E+03  0.7818608E-02  0.1043485E+00
         21   -1    0    0  501  502  0.00000000000E+00  0.00000000000E+00  0.10285010722E+03  0.10285010722E+03  0.00000000000E+00 0.  1.
         21   -1    0    0  502  503 -0.00000000000E+00 -0.00000000000E+00 -0.16378104685E+04  0.16378104685E+04  0.00000000000E+00 0.  1.
    9000005    1    1    2  501    0  0.90179130168E+01 -0.24494574130E+02 -0.95437421330E+03  0.10351383704E+04  0.40000000000E+03 0.  1.
   -9000005    1    1    2    0  503 -0.90179130168E+01  0.24494574130E+02 -0.58058614795E+03  0.70552220525E+03  0.40000000000E+03 0.  1.
<mgrwt>
<rscale>  2 0.40085073E+03</rscale>
<asrwt>0</asrwt>
<pdfrwt beam="1">  1       21 0.15823094E-01 0.40085073E+03</pdfrwt>
<pdfrwt beam="2">  1       21 0.25197084E+00 0.40085073E+03</pdfrwt>
<totfact> 0.19614969E+03</totfact>
</mgrwt>
</event>
<event>
 4    1  0.4857079E-002  0.4071043E+03  0.7818608E-02  0.1041347E+00
         21   -1    0    0  501  502  0.00000000000E+00  0.00000000000E+00  0.72996808686E+03  0.72996808686E+03  0.00000000000E+00 0. -1.
         21   -1    0    0  502  503 -0.00000000000E+00 -0.00000000000E+00 -0.33892252381E+03  0.33892252381E+03  0.00000000000E+00 0. -1.
    9000005    1    1    2  501    0 -0.42578679533E+02 -0.62617679754E+02  0.50258682018E+03  0.64678236648E+03  0.40000000000E+03 0. -1.
   -9000005    1    1    2    0  503  0.42578679533E+02  0.62617679754E+02 -0.11154125713E+03  0.42210824419E+03  0.40000000000E+03 0. -1.
<mgrwt>
<rscale>  2 0.40710431E+03</rscale>
<asrwt>0</asrwt>
<pdfrwt beam="1">  1       21 0.11230278E+00 0.40710431E+03</pdfrwt>
<pdfrwt beam="2">  1       21 0.52141927E-01 0.40710431E+03</pdfrwt>
<totfact> 0.18973118E+03</totfact>
</mgrwt>
</event>
<event>
 4    1  0.4857079E-002  0.4735965E+03  0.7818608E-02  0.1020910E+00
         21   -1    0    0  501  502  0.00000000000E+00  0.00000000000E+00  0.54141450154E+03  0.54141450154E+03  0.00000000000E+00 0.  1.
         21   -1    0    0  502  503 -0.00000000000E+00 -0.00000000000E+00 -0.46319281602E+03  0.46319281602E+03  0.00000000000E+00 0.  1.
    9000005    1    1    2  501    0 -0.11355299541E+03 -0.22671426738E+03  0.20235059971E+03  0.51501398719E+03  0.40000000000E+03 0.  1.
   -9000005    1    1    2    0  503  0.11355299541E+03  0.22671426738E+03 -0.12412891420E+03  0.48959333037E+03  0.40000000000E+03 0.  1.
<mgrwt>
<rscale>  2 0.47359650E+03</rscale>
<asrwt>0</asrwt>
<pdfrwt beam="1">  1       21 0.83294539E-01 0.47359650E+03</pdfrwt>
<pdfrwt beam="2">  1       21 0.71260433E-01 0.47359650E+03</pdfrwt>
<totfact> 0.19119978E+03</totfact>
</mgrwt>
</event>
<event>
 4    1  0.4857079E-002  0.4039521E+03  0.7818608E-02  0.1042420E+00
         21   -1    0    0  501  502  0.00000000000E+00  0.00000000000E+00  0.11833250394E+04  0.11833250394E+04  0.00000000000E+00 0. -1.
         21   -1    0    0  502  503 -0.00000000000E+00 -0.00000000000E+00 -0.16844236905E+03  0.16844236905E+03  0.00000000000E+00 0. -1.
    9000005    1    1    2  501    0  0.48626861378E+02  0.28508737210E+02  0.79525864527E+03  0.89197176672E+03  0.40000000000E+03 0.  1.
   -9000005    1    1    2    0  503 -0.48626861378E+02 -0.28508737210E+02  0.21962402504E+03  0.45979564169E+03  0.40000000000E+03 0.  1.
<mgrwt>
<rscale>  2 0.40395213E+03</rscale>
<asrwt>0</asrwt>
<pdfrwt beam="1">  1       21 0.18205000E+00 0.40395213E+03</pdfrwt>
<pdfrwt beam="2">  1       21 0.25914211E-01 0.40395213E+03</pdfrwt>
<totfact> 0.21627972E+03</totfact>
</mgrwt>
</event>
<event>
 4    1  0.4857079E-002  0.5106996E+03  0.7818608E-02  0.1011023E+00
         21   -1    0    0  503  502  0.00000000000E+00  0.00000000000E+00  0.72285129009E+03  0.72285129009E+03  0.00000000000E+00 0. -1.
         21   -1    0    0  501  503 -0.00000000000E+00 -0.00000000000E+00 -0.77792477505E+03  0.77792477505E+03  0.00000000000E+00 0. -1.
    9000005    1    1    2  501    0  0.22215569497E+03  0.22685005340E+03 -0.57700594281E+03  0.77055172284E+03  0.40000000000E+03 0. -1.
   -9000005    1    1    2    0  502 -0.22215569497E+03 -0.22685005340E+03  0.52193245785E+03  0.73022434231E+03  0.40000000000E+03 0. -1.
<mgrwt>
<rscale>  2 0.51069962E+03</rscale>
<asrwt>0</asrwt>
<pdfrwt beam="1">  1       21 0.11120789E+00 0.51069962E+03</pdfrwt>
<pdfrwt beam="2">  1       21 0.11968074E+00 0.51069962E+03</pdfrwt>
<totfact> 0.27123772E+02</totfact>
</mgrwt>
</event>
<event>
 4    1  0.4857079E-002  0.5239677E+03  0.7818608E-02  0.1007706E+00
         21   -1    0    0  503  502  0.00000000000E+00  0.00000000000E+00  0.78845560973E+03  0.78845560973E+03  0.00000000000E+00 0. -1.
         21   -1    0    0  501  503 -0.00000000000E+00 -0.00000000000E+00 -0.41357614551E+03  0.41357614551E+03  0.00000000000E+00 0. -1.
    9000005    1    1    2  501    0 -0.11504234050E+02 -0.33824520138E+03 -0.51511773062E+02  0.52649370977E+03  0.40000000000E+03 0. -1.
   -9000005    1    1    2    0  502  0.11504234050E+02  0.33824520138E+03  0.42639123728E+03  0.67553804548E+03  0.40000000000E+03 0. -1.
<mgrwt>
<rscale>  2 0.52396771E+03</rscale>
<asrwt>0</asrwt>
<pdfrwt beam="1">  1       21 0.12130086E+00 0.52396771E+03</pdfrwt>
<pdfrwt beam="2">  1       21 0.63627099E-01 0.52396771E+03</pdfrwt>
<totfact> 0.96793912E+02</totfact>
</mgrwt>
</event>
<event>
 4    1  0.4857079E-002  0.4289608E+03  0.7818608E-02  0.1034189E+00
         21   -1    0    0  501  502  0.00000000000E+00  0.00000000000E+00  0.21753156329E+03  0.21753156329E+03  0.00000000000E+00 0. -1.
         21   -1    0    0  502  503 -0.00000000000E+00 -0.00000000000E+00 -0.84769421724E+03  0.84769421724E+03  0.00000000000E+00 0.  1.
    9000005    1    1    2  501    0 -0.13959946242E+03 -0.67226408942E+02 -0.29049784695E+03  0.51806987854E+03  0.40000000000E+03 0.  1.
   -9000005    1    1    2    0  503  0.13959946242E+03  0.67226408942E+02 -0.33966480700E+03  0.54715590199E+03  0.40000000000E+03 0. -1.
<mgrwt>
<rscale>  2 0.42896084E+03</rscale>
<asrwt>0</asrwt>
<pdfrwt beam="1">  1       21 0.33466394E-01 0.42896084E+03</pdfrwt>
<pdfrwt beam="2">  1       21 0.13041449E+00 0.42896084E+03</pdfrwt>
<totfact> 0.32223156E+03</totfact>
</mgrwt>
</event>
<event>
 4    1  0.4857079E-002  0.4033348E+03  0.7818608E-02  0.1042631E+00
         21   -1    0    0  503  502  0.00000000000E+00  0.00000000000E+00  0.63433122408E+03  0.63433122408E+03  0.00000000000E+00 0. -1.
         21   -1    0    0  501  503 -0.00000000000E+00 -0.00000000000E+00 -0.29706797421E+03  0.29706797421E+03  0.00000000000E+00 0. -1.
    9000005    1    1    2  501    0  0.27233367587E+02  0.44015094440E+02 -0.35540843976E+01  0.40335048824E+03  0.40000000000E+03 0. -1.
   -9000005    1    1    2    0  502 -0.27233367587E+02 -0.44015094440E+02  0.34081733427E+03  0.52804871005E+03  0.40000000000E+03 0. -1.
<mgrwt>
<rscale>  2 0.40333483E+03</rscale>
<asrwt>0</asrwt>
<pdfrwt beam="1">  1       21 0.97589419E-01 0.40333483E+03</pdfrwt>
<pdfrwt beam="2">  1       21 0.45702765E-01 0.40333483E+03</pdfrwt>
<totfact> 0.35423324E+03</totfact>
</mgrwt>
</event>
<event>
 4    1  0.4857079E-002  0.4596626E+03  0.7818608E-02  0.1024879E+00
         21   -1    0    0  501  502  0.00000000000E+00  0.00000000000E+00  0.72568752837E+03  0.72568752837E+03  0.00000000000E+00 0. -1.
         21   -1    0    0  502  503 -0.00000000000E+00 -0.00000000000E+00 -0.35825563423E+03  0.35825563423E+03  0.00000000000E+00 0. -1.
    9000005    1    1    2  501    0  0.13322559402E+03 -0.18314099958E+03  0.41826506469E+03  0.62147835760E+03  0.40000000000E+03 0. -1.
   -9000005    1    1    2    0  503 -0.13322559402E+03  0.18314099958E+03 -0.50833170551E+02  0.46246480499E+03  0.40000000000E+03 0. -1.
<mgrwt>
<rscale>  2 0.45966258E+03</rscale>
<asrwt>0</asrwt>
<pdfrwt beam="1">  1       21 0.11164423E+00 0.45966258E+03</pdfrwt>
<pdfrwt beam="2">  1       21 0.55116252E-01 0.45966258E+03</pdfrwt>
<totfact> 0.16732845E+03</totfact>
</mgrwt>
</event>
<event>
 4    1  0.4857079E-002  0.5281266E+03  0.7818608E-02  0.1006687E+00
         21   -1    0    0  503  502  0.00000000000E+00  0.00000000000E+00  0.57013039553E+03  0.57013039553E+03  0.00000000000E+00 0.  1.
         21   -1    0    0  501  503 -0.00000000000E+00 -0.00000000000E+00 -0.49067519146E+03  0.49067519146E+03  0.00000000000E+00 0.  1.
    9000005    1    1    2  501    0  0.32730199754E+03  0.10858707884E+03  0.10817767698E+02  0.52823742331E+03  0.40000000000E+03 0.  1.
   -9000005    1    1    2    0  502 -0.32730199754E+03 -0.10858707884E+03  0.68637436368E+02  0.53256816367E+03  0.40000000000E+03 0.  1.
<mgrwt>
<rscale>  2 0.52812664E+03</rscale>
<asrwt>0</asrwt>
<pdfrwt beam="1">  1       21 0.87712368E-01 0.52812664E+03</pdfrwt>
<pdfrwt beam="2">  1       21 0.75488491E-01 0.52812664E+03</pdfrwt>
<totfact> 0.14576691E+03</totfact>
</mgrwt>
</event>
<event>
 4    1  0.4857079E-002  0.6251313E+03  0.7818608E-02  0.9854596E-01
         21   -1    0    0  501  502  0.00000000000E+00  0.00000000000E+00  0.66629084783E+03  0.66629084783E+03  0.00000000000E+00 0. -1.
         21   -1    0    0  502  503 -0.00000000000E+00 -0.00000000000E+00 -0.65247405623E+03  0.65247405623E+03  0.00000000000E+00 0.  1.
    9000005    1    1    2  501    0 -0.47362245219E+03 -0.80442088589E+02 -0.20274169357E+03  0.65718593346E+03  0.40000000000E+03 0.  1.
   -9000005    1    1    2    0  503  0.47362245219E+03  0.80442088589E+02  0.21655848517E+03  0.66157897059E+03  0.40000000000E+03 0. -1.
<mgrwt>
<rscale>  2 0.62513131E+03</rscale>
<asrwt>0</asrwt>
<pdfrwt beam="1">  1       21 0.10250628E+00 0.62513131E+03</pdfrwt>
<pdfrwt beam="2">  1       21 0.10038062E+00 0.62513131E+03</pdfrwt>
<totfact> 0.49399225E+02</totfact>
</mgrwt>
</event>
<event>
 4    1  0.4857079E-002  0.5360083E+03  0.7818608E-02  0.1004785E+00
         21   -1    0    0  501  502  0.00000000000E+00  0.00000000000E+00  0.61306148140E+03  0.61306148140E+03  0.00000000000E+00 0.  1.
         21   -1    0    0  502  503 -0.00000000000E+00 -0.00000000000E+00 -0.56282030249E+03  0.56282030249E+03  0.00000000000E+00 0. -1.
    9000005    1    1    2  501    0  0.10863837670E+03  0.33985671325E+03  0.26562872454E+03  0.59821693535E+03  0.40000000000E+03 0.  1.
   -9000005    1    1    2    0  503 -0.10863837670E+03 -0.33985671325E+03 -0.21538754564E+03  0.57766484855E+03  0.40000000000E+03 0.  1.
<mgrwt>
<rscale>  2 0.53600829E+03</rscale>
<asrwt>0</asrwt>
<pdfrwt beam="1">  1       21 0.94317152E-01 0.53600829E+03</pdfrwt>
<pdfrwt beam="2">  1       21 0.86587738E-01 0.53600829E+03</pdfrwt>
<totfact> 0.88883853E+02</totfact>
</mgrwt>
</event>
<event>
 4    1  0.4857079E-002  0.4172015E+03  0.7818608E-02  0.1037981E+00
         21   -1    0    0  503  502  0.00000000000E+00  0.00000000000E+00  0.50028454686E+03  0.50028454686E+03  0.00000000000E+00 0. -1.
         21   -1    0    0  501  503 -0.00000000000E+00 -0.00000000000E+00 -0.41285870438E+03  0.41285870438E+03  0.00000000000E+00 0.  1.
    9000005    1    1    2  501    0 -0.81403815019E+02  0.86200204337E+02 -0.13736812420E+03  0.43923462736E+03  0.40000000000E+03 0.  1.
   -9000005    1    1    2    0  502  0.81403815019E+02 -0.86200204337E+02  0.22479396668E+03  0.47390862388E+03  0.40000000000E+03 0. -1.
<mgrwt>
<rscale>  2 0.41720146E+03</rscale>
<asrwt>0</asrwt>
<pdfrwt beam="1">  1       21 0.76966854E-01 0.41720146E+03</pdfrwt>
<pdfrwt beam="2">  1       21 0.63516724E-01 0.41720146E+03</pdfrwt>
<totfact> 0.30302577E+03</totfact>
</mgrwt>
</event>
<event>
 4    1  0.4857079E-002  0.4109235E+03  0.7818608E-02  0.1040062E+00
         21   -1    0    0  501  502  0.00000000000E+00  0.00000000000E+00  0.33514812501E+03  0.33514812501E+03  0.00000000000E+00 0. -1.
         21   -1    0    0  502  503 -0.00000000000E+00 -0.00000000000E+00 -0.61319179977E+03  0.61319179977E+03  0.00000000000E+00 0. -1.
    9000005    1    1    2  501    0  0.25469275453E+02 -0.90605982939E+02  0.61225171698E+02  0.41545956456E+03  0.40000000000E+03 0. -1.
   -9000005    1    1    2    0  503 -0.25469275453E+02  0.90605982939E+02 -0.33926884645E+03  0.53288036022E+03  0.40000000000E+03 0. -1.
<mgrwt>
<rscale>  2 0.41092351E+03</rscale>
<asrwt>0</asrwt>
<pdfrwt beam="1">  1       21 0.51561251E-01 0.41092351E+03</pdfrwt>
<pdfrwt beam="2">  1       21 0.94337199E-01 0.41092351E+03</pdfrwt>
<totfact> 0.29685813E+03</totfact>
</mgrwt>
</event>
<event>
 4    1  0.4857079E-002  0.5093597E+03  0.7818608E-02  0.1011364E+00
         21   -1    0    0  501  502  0.00000000000E+00  0.00000000000E+00  0.56012024543E+03  0.56012024543E+03  0.00000000000E+00 0.  1.
         21   -1    0    0  502  503 -0.00000000000E+00 -0.00000000000E+00 -0.83587378366E+03  0.83587378366E+03  0.00000000000E+00 0. -1.
    9000005    1    1    2  501    0 -0.30290696334E+03 -0.87719191772E+02  0.32818991952E+03  0.60593391416E+03  0.40000000000E+03 0.  1.
   -9000005    1    1    2    0  503  0.30290696334E+03  0.87719191772E+02 -0.60394345776E+03  0.79006011494E+03  0.40000000000E+03 0. -1.
<mgrwt>
<rscale>  2 0.50935968E+03</rscale>
<asrwt>0</asrwt>
<pdfrwt beam="1">  1       21 0.86172345E-01 0.50935968E+03</pdfrwt>
<pdfrwt beam="2">  1       21 0.12859597E+00 0.50935968E+03</pdfrwt>
<totfact> 0.41862435E+02</totfact>
</mgrwt>
</event>
<event>
 4    1  0.4857079E-002  0.4980088E+03  0.7818608E-02  0.1014300E+00
         21   -1    0    0  503  502  0.00000000000E+00  0.00000000000E+00  0.16397628064E+03  0.16397628064E+03  0.00000000000E+00 0.  1.
         21   -1    0    0  501  503 -0.00000000000E+00 -0.00000000000E+00 -0.17634072778E+04  0.17634072778E+04  0.00000000000E+00 0.  1.
    9000005    1    1    2  501    0 -0.28367199344E+03  0.86850490461E+02 -0.43619791776E+03  0.66202827055E+03  0.40000000000E+03 0.  1.
   -9000005    1    1    2    0  502  0.28367199344E+03 -0.86850490461E+02 -0.11632330794E+04  0.12653552879E+04  0.40000000000E+03 0.  1.
<mgrwt>
<rscale>  2 0.49800884E+03</rscale>
<asrwt>0</asrwt>
<pdfrwt beam="1">  1       21 0.25227119E-01 0.49800884E+03</pdfrwt>
<pdfrwt beam="2">  1       21 0.27129344E+00 0.49800884E+03</pdfrwt>
<totfact> 0.58612578E+02</totfact>
</mgrwt>
</event>
<event>
 4    1  0.4857079E-002  0.4529877E+03  0.7818608E-02  0.1026835E+00
         21   -1    0    0  501  502  0.00000000000E+00  0.00000000000E+00  0.87868579977E+03  0.87868579977E+03  0.00000000000E+00 0. -1.
         21   -1    0    0  502  503 -0.00000000000E+00 -0.00000000000E+00 -0.26324798593E+03  0.26324798593E+03  0.00000000000E+00 0. -1.
    9000005    1    1    2  501    0  0.24561097973E+02 -0.21117427191E+03  0.11587323496E+03  0.46757291114E+03  0.40000000000E+03 0. -1.
   -9000005    1    1    2    0  503 -0.24561097973E+02  0.21117427191E+03  0.49956457889E+03  0.67436087455E+03  0.40000000000E+03 0. -1.
<mgrwt>
<rscale>  2 0.45298766E+03</rscale>
<asrwt>0</asrwt>
<pdfrwt beam="1">  1       21 0.13518243E+00 0.45298766E+03</pdfrwt>
<pdfrwt beam="2">  1       21 0.40499691E-01 0.45298766E+03</pdfrwt>
<totfact> 0.19716550E+03</totfact>
</mgrwt>
</event>
<event>
 4    1  0.4857079E-002  0.7130937E+03  0.7818608E-02  0.9695099E-01
         21   -1    0    0  503  502  0.00000000000E+00  0.00000000000E+00  0.61063339108E+03  0.61063339108E+03  0.00000000000E+00 0. -1.
         21   -1    0    0  501  503 -0.00000000000E+00 -0.00000000000E+00 -0.83324888368E+03  0.83324888368E+03  0.00000000000E+00 0.  1.
    9000005    1    1    2  501    0 -0.58191127968E+03 -0.99407836084E+02 -0.12903935638E+03  0.72467496906E+03  0.40000000000E+03 0. -1.
   -9000005    1    1    2    0  502  0.58191127968E+03  0.99407836084E+02 -0.93576136226E+02  0.71920730569E+03  0.40000000000E+03 0.  1.
<mgrwt>
<rscale>  2 0.71309372E+03</rscale>
<asrwt>0</asrwt>
<pdfrwt beam="1">  1       21 0.93943599E-01 0.71309372E+03</pdfrwt>
<pdfrwt beam="2">  1       21 0.12819214E+00 0.71309372E+03</pdfrwt>
<totfact> 0.32038768E+02</totfact>
</mgrwt>
</event>
<event>
 4    1  0.4857079E-002  0.4178753E+03  0.7818608E-02  0.1037760E+00
         21   -1    0    0  501  502  0.00000000000E+00  0.00000000000E+00  0.15628753635E+04  0.15628753635E+04  0.00000000000E+00 0. -1.
         21   -1    0    0  502  503 -0.00000000000E+00 -0.00000000000E+00 -0.11174745648E+03  0.11174745648E+03  0.00000000000E+00 0.  1.
    9000005    1    1    2  501    0  0.91794045221E+02 -0.78699781200E+02  0.73607927225E+03  0.84642335586E+03  0.40000000000E+03 0. -1.
   -9000005    1    1    2    0  503 -0.91794045221E+02  0.78699781200E+02  0.71504863473E+03  0.82819946410E+03  0.40000000000E+03 0. -1.
<mgrwt>
<rscale>  2 0.41787534E+03</rscale>
<asrwt>0</asrwt>
<pdfrwt beam="1">  1       21 0.24044235E+00 0.41787534E+03</pdfrwt>
<pdfrwt beam="2">  1       21 0.17191918E-01 0.41787534E+03</pdfrwt>
<totfact> 0.19602010E+03</totfact>
</mgrwt>
</event>
<event>
 4    1  0.4857079E-002  0.6512790E+03  0.7818608E-02  0.9804382E-01
         21   -1    0    0  501  502  0.00000000000E+00  0.00000000000E+00  0.43670159886E+03  0.43670159886E+03  0.00000000000E+00 0. -1.
         21   -1    0    0  502  503 -0.00000000000E+00 -0.00000000000E+00 -0.10878844967E+04  0.10878844967E+04  0.00000000000E+00 0.  1.
    9000005    1    1    2  501    0 -0.41669453257E+03  0.30088198398E+03 -0.76035538235E+02  0.65570245144E+03  0.40000000000E+03 0. -1.
   -9000005    1    1    2    0  503  0.41669453257E+03 -0.30088198398E+03 -0.57514735963E+03  0.86888364413E+03  0.40000000000E+03 0.  1.
<mgrwt>
<rscale>  2 0.65127897E+03</rscale>
<asrwt>0</asrwt>
<pdfrwt beam="1">  1       21 0.67184862E-01 0.65127897E+03</pdfrwt>
<pdfrwt beam="2">  1       21 0.16736684E+00 0.65127897E+03</pdfrwt>
<totfact> 0.34399298E+02</totfact>
</mgrwt>
</event>
<event>
 4    1  0.4857079E-002  0.4464959E+03  0.7818608E-02  0.1028772E+00
         21   -1    0    0  503  502  0.00000000000E+00  0.00000000000E+00  0.55441463663E+02  0.55441463663E+02  0.00000000000E+00 0. -1.
         21   -1    0    0  501  503 -0.00000000000E+00 -0.00000000000E+00 -0.36530340262E+04  0.36530340262E+04  0.00000000000E+00 0. -1.
    9000005    1    1    2  501    0  0.19835491318E+03  0.37246673580E+01 -0.20308133403E+04  0.20793175246E+04  0.40000000000E+03 0. -1.
   -9000005    1    1    2    0  502 -0.19835491318E+03 -0.37246673580E+01 -0.15667792222E+04  0.16291579653E+04  0.40000000000E+03 0. -1.
<mgrwt>
<rscale>  2 0.44649585E+03</rscale>
<asrwt>0</asrwt>
<pdfrwt beam="1">  1       21 0.85294538E-02 0.44649585E+03</pdfrwt>
<pdfrwt beam="2">  1       21 0.56200537E+00 0.44649585E+03</pdfrwt>
<totfact> 0.53863527E+01</totfact>
</mgrwt>
</event>
<event>
 4    1  0.4857079E-002  0.6280590E+03  0.7818608E-02  0.9848844E-01
         21   -1    0    0  503  502  0.00000000000E+00  0.00000000000E+00  0.65968448005E+03  0.65968448005E+03  0.00000000000E+00 0.  1.
         21   -1    0    0  501  503 -0.00000000000E+00 -0.00000000000E+00 -0.63781985390E+03  0.63781985390E+03  0.00000000000E+00 0. -1.
    9000005    1    1    2  501    0 -0.11986672398E+03  0.46913762195E+03 -0.15126876507E+03  0.64601886902E+03  0.40000000000E+03 0. -1.
   -9000005    1    1    2    0  502  0.11986672398E+03 -0.46913762195E+03  0.17313339122E+03  0.65148546492E+03  0.40000000000E+03 0.  1.
<mgrwt>
<rscale>  2 0.62805903E+03</rscale>
<asrwt>0</asrwt>
<pdfrwt beam="1">  1       21 0.10148992E+00 0.62805903E+03</pdfrwt>
<pdfrwt beam="2">  1       21 0.98126131E-01 0.62805903E+03</pdfrwt>
<totfact> 0.53470617E+02</totfact>
</mgrwt>
</event>
<event>
 4    1  0.4857079E-002  0.4748230E+03  0.7818608E-02  0.1020568E+00
         21   -1    0    0  503  502  0.00000000000E+00  0.00000000000E+00  0.16304125166E+04  0.16304125166E+04  0.00000000000E+00 0. -1.
         21   -1    0    0  501  503 -0.00000000000E+00 -0.00000000000E+00 -0.14068354996E+03  0.14068354996E+03  0.00000000000E+00 0. -1.
    9000005    1    1    2  501    0  0.44690629838E+02  0.25191189426E+03  0.62916594071E+03  0.78823006528E+03  0.40000000000E+03 0. -1.
   -9000005    1    1    2    0  502 -0.44690629838E+02 -0.25191189426E+03  0.86056302595E+03  0.98286600129E+03  0.40000000000E+03 0. -1.
<mgrwt>
<rscale>  2 0.47482297E+03</rscale>
<asrwt>0</asrwt>
<pdfrwt beam="1">  1       21 0.25083268E+00 0.47482297E+03</pdfrwt>
<pdfrwt beam="2">  1       21 0.21643624E-01 0.47482297E+03</pdfrwt>
<totfact> 0.10633249E+03</totfact>
</mgrwt>
</event>
<event>
 4    1  0.4857079E-002  0.4699456E+03  0.7818608E-02  0.1021936E+00
         21   -1    0    0  503  502  0.00000000000E+00  0.00000000000E+00  0.22776172117E+03  0.22776172117E+03  0.00000000000E+00 0.  1.
         21   -1    0    0  501  503 -0.00000000000E+00 -0.00000000000E+00 -0.10245835653E+04  0.10245835653E+04  0.00000000000E+00 0.  1.
    9000005    1    1    2  501    0 -0.24261134300E+03 -0.44593435384E+02 -0.25341868445E+03  0.53391934584E+03  0.40000000000E+03 0.  1.
   -9000005    1    1    2    0  502  0.24261134300E+03  0.44593435384E+02 -0.54340315972E+03  0.71842594067E+03  0.40000000000E+03 0.  1.
<mgrwt>
<rscale>  2 0.46994557E+03</rscale>
<asrwt>0</asrwt>
<pdfrwt beam="1">  1       21 0.35040265E-01 0.46994557E+03</pdfrwt>
<pdfrwt beam="2">  1       21 0.15762824E+00 0.46994557E+03</pdfrwt>
<totfact> 0.17400989E+03</totfact>
</mgrwt>
</event>
<event>
 4    1  0.4857079E-002  0.4720373E+03  0.7818608E-02  0.1021347E+00
         21   -1    0    0  503  502  0.00000000000E+00  0.00000000000E+00  0.18131170598E+04  0.18131170598E+04  0.00000000000E+00 0. -1.
         21   -1    0    0  501  503 -0.00000000000E+00 -0.00000000000E+00 -0.25455902394E+03  0.25455902394E+03  0.00000000000E+00 0. -1.
    9000005    1    1    2  501    0  0.73597348129E+02  0.23958847919E+03  0.35754507518E+02  0.47338947371E+03  0.40000000000E+03 0. -1.
   -9000005    1    1    2    0  502 -0.73597348129E+02 -0.23958847919E+03  0.15228035283E+04  0.15942866100E+04  0.40000000000E+03 0. -1.
<mgrwt>
<rscale>  2 0.47203730E+03</rscale>
<asrwt>0</asrwt>
<pdfrwt beam="1">  1       21 0.27894108E+00 0.47203730E+03</pdfrwt>
<pdfrwt beam="2">  1       21 0.39162928E-01 0.47203730E+03</pdfrwt>
<totfact> 0.22144313E+02</totfact>
</mgrwt>
</event>
<event>
 4    1  0.4857079E-002  0.4324705E+03  0.7818608E-02  0.1033082E+00
         21   -1    0    0  503  502  0.00000000000E+00  0.00000000000E+00  0.51062263188E+03  0.51062263188E+03  0.00000000000E+00 0.  1.
         21   -1    0    0  501  503 -0.00000000000E+00 -0.00000000000E+00 -0.80148145857E+03  0.80148145857E+03  0.00000000000E+00 0.  1.
    9000005    1    1    2  501    0 -0.12990084805E+03 -0.10077960446E+03 -0.62886300160E+03  0.76321650518E+03  0.40000000000E+03 0.  1.
   -9000005    1    1    2    0  502  0.12990084805E+03  0.10077960446E+03  0.33800417492E+03  0.54888758527E+03  0.40000000000E+03 0.  1.
<mgrwt>
<rscale>  2 0.43247053E+03</rscale>
<asrwt>0</asrwt>
<pdfrwt beam="1">  1       21 0.78557328E-01 0.43247053E+03</pdfrwt>
<pdfrwt beam="2">  1       21 0.12330484E+00 0.43247053E+03</pdfrwt>
<totfact> 0.59826305E+02</totfact>
</mgrwt>
</event>
<event>
 4    1  0.4857079E-002  0.5228627E+03  0.7818608E-02  0.1007978E+00
         21   -1    0    0  501  502  0.00000000000E+00  0.00000000000E+00  0.64575845632E+03  0.64575845632E+03  0.00000000000E+00 0. -1.
         21   -1    0    0  502  503 -0.00000000000E+00 -0.00000000000E+00 -0.45152771615E+03  0.45152771615E+03  0.00000000000E+00 0. -1.
    9000005    1    1    2  501    0  0.74269805283E+02 -0.32843477283E+03  0.23415875989E+03  0.57290115100E+03  0.40000000000E+03 0. -1.
   -9000005    1    1    2    0  503 -0.74269805283E+02  0.32843477283E+03 -0.39928019727E+02  0.52438502147E+03  0.40000000000E+03 0. -1.
<mgrwt>
<rscale>  2 0.52286270E+03</rscale>
<asrwt>0</asrwt>
<pdfrwt beam="1">  1       21 0.99347455E-01 0.52286270E+03</pdfrwt>
<pdfrwt beam="2">  1       21 0.69465802E-01 0.52286270E+03</pdfrwt>
<totfact> 0.13087594E+03</totfact>
</mgrwt>
</event>
<event>
 4    1  0.4857079E-002  0.4327188E+03  0.7818608E-02  0.1033005E+00
         21   -1    0    0  503  502  0.00000000000E+00  0.00000000000E+00  0.35517130822E+03  0.35517130822E+03  0.00000000000E+00 0. -1.
         21   -1    0    0  501  503 -0.00000000000E+00 -0.00000000000E+00 -0.53394310369E+03  0.53394310369E+03  0.00000000000E+00 0. -1.
    9000005    1    1    2  501    0  0.20833164635E+01  0.16504913972E+03 -0.39419444452E+02  0.43451058828E+03  0.40000000000E+03 0. -1.
   -9000005    1    1    2    0  502 -0.20833164635E+01 -0.16504913972E+03 -0.13935235102E+03  0.45460382363E+03  0.40000000000E+03 0. -1.
<mgrwt>
<rscale>  2 0.43271880E+03</rscale>
<asrwt>0</asrwt>
<pdfrwt beam="1">  1       21 0.54641740E-01 0.43271880E+03</pdfrwt>
<pdfrwt beam="2">  1       21 0.82145093E-01 0.43271880E+03</pdfrwt>
<totfact> 0.36012529E+03</totfact>
</mgrwt>
</event>
<event>
 4    1  0.4857079E-002  0.4114345E+03  0.7818608E-02  0.1039891E+00
         21   -1    0    0  503  502  0.00000000000E+00  0.00000000000E+00  0.56282303866E+03  0.56282303866E+03  0.00000000000E+00 0.  1.
         21   -1    0    0  501  503 -0.00000000000E+00 -0.00000000000E+00 -0.60030226273E+03  0.60030226273E+03  0.00000000000E+00 0.  1.
    9000005    1    1    2  501    0 -0.89658596451E+02  0.35209408646E+02 -0.42954467984E+03  0.59479996499E+03  0.40000000000E+03 0.  1.
   -9000005    1    1    2    0  502  0.89658596451E+02 -0.35209408646E+02  0.39206545577E+03  0.56832533639E+03  0.40000000000E+03 0.  1.
<mgrwt>
<rscale>  2 0.41143452E+03</rscale>
<asrwt>0</asrwt>
<pdfrwt beam="1">  1       21 0.86588160E-01 0.41143452E+03</pdfrwt>
<pdfrwt beam="2">  1       21 0.92354194E-01 0.41143452E+03</pdfrwt>
<totfact> 0.98183040E+02</totfact>
</mgrwt>
</event>
<event>
 4    1  0.4857079E-002  0.4147687E+03  0.7818608E-02  0.1038782E+00
         21   -1    0    0  503  502  0.00000000000E+00  0.00000000000E+00  0.20633523443E+03  0.20633523443E+03  0.00000000000E+00 0.  1.
         21   -1    0    0  501  503 -0.00000000000E+00 -0.00000000000E+00 -0.10127317090E+04  0.10127317090E+04  0.00000000000E+00 0.  1.
    9000005    1    1    2  501    0 -0.41223645542E+02 -0.10165474003E+03 -0.65943908884E+03  0.77903336708E+03  0.40000000000E+03 0.  1.
   -9000005    1    1    2    0  502  0.41223645542E+02  0.10165474003E+03 -0.14695738575E+03  0.44003357639E+03  0.40000000000E+03 0.  1.
<mgrwt>
<rscale>  2 0.41476870E+03</rscale>
<asrwt>0</asrwt>
<pdfrwt beam="1">  1       21 0.31743882E-01 0.41476870E+03</pdfrwt>
<pdfrwt beam="2">  1       21 0.15580488E+00 0.41476870E+03</pdfrwt>
<totfact> 0.22418286E+03</totfact>
</mgrwt>
</event>
<event>
 4    1  0.4857079E-002  0.4301867E+03  0.7818608E-02  0.1033801E+00
         21   -1    0    0  503  502  0.00000000000E+00  0.00000000000E+00  0.82282443775E+03  0.82282443775E+03  0.00000000000E+00 0. -1.
         21   -1    0    0  501  503 -0.00000000000E+00 -0.00000000000E+00 -0.43661987086E+03  0.43661987086E+03  0.00000000000E+00 0. -1.
    9000005    1    1    2  501    0  0.47489333685E+02  0.15101435998E+03 -0.24539697464E+03  0.49525776006E+03  0.40000000000E+03 0. -1.
   -9000005    1    1    2    0  502 -0.47489333685E+02 -0.15101435998E+03  0.63160154153E+03  0.76418654856E+03  0.40000000000E+03 0. -1.
<mgrwt>
<rscale>  2 0.43018667E+03</rscale>
<asrwt>0</asrwt>
<pdfrwt beam="1">  1       21 0.12658837E+00 0.43018667E+03</pdfrwt>
<pdfrwt beam="2">  1       21 0.67172288E-01 0.43018667E+03</pdfrwt>
<totfact> 0.79814187E+02</totfact>
</mgrwt>
</event>
<event>
 4    1  0.4857079E-002  0.4470156E+03  0.7818608E-02  0.1028616E+00
         21   -1    0    0  503  502  0.00000000000E+00  0.00000000000E+00  0.59260272279E+03  0.59260272279E+03  0.00000000000E+00 0. -1.
         21   -1    0    0  501  503 -0.00000000000E+00 -0.00000000000E+00 -0.36885933521E+03  0.36885933521E+03  0.00000000000E+00 0. -1.
    9000005    1    1    2  501    0  0.18403195327E+03  0.77170058572E+02 -0.28977203100E+02  0.44795385484E+03  0.40000000000E+03 0. -1.
   -9000005    1    1    2    0  502 -0.18403195327E+03 -0.77170058572E+02  0.25272059068E+03  0.51350820316E+03  0.40000000000E+03 0. -1.
<mgrwt>
<rscale>  2 0.44701563E+03</rscale>
<asrwt>0</asrwt>
<pdfrwt beam="1">  1       21 0.91169650E-01 0.44701563E+03</pdfrwt>
<pdfrwt beam="2">  1       21 0.56747590E-01 0.44701563E+03</pdfrwt>
<totfact> 0.25848330E+03</totfact>
</mgrwt>
</event>
<event>
 4    1  0.4857079E-002  0.6835031E+03  0.7818608E-02  0.9745867E-01
         21   -1    0    0  501  502  0.00000000000E+00  0.00000000000E+00  0.44087264858E+03  0.44087264858E+03  0.00000000000E+00 0.  1.
         21   -1    0    0  502  503 -0.00000000000E+00 -0.00000000000E+00 -0.11308730628E+04  0.11308730628E+04  0.00000000000E+00 0. -1.
    9000005    1    1    2  501    0 -0.53115897711E+03  0.15826137273E+03 -0.14779633559E+03  0.69929984834E+03  0.40000000000E+03 0.  1.
   -9000005    1    1    2    0  503  0.53115897711E+03 -0.15826137273E+03 -0.54220407864E+03  0.87244586306E+03  0.40000000000E+03 0. -1.
<mgrwt>
<rscale>  2 0.68350312E+03</rscale>
<asrwt>0</asrwt>
<pdfrwt beam="1">  1       21 0.67826562E-01 0.68350312E+03</pdfrwt>
<pdfrwt beam="2">  1       21 0.17398047E+00 0.68350312E+03</pdfrwt>
<totfact> 0.29787421E+02</totfact>
</mgrwt>
</event>
<event>
 4    1  0.4857079E-002  0.4783504E+03  0.7818608E-02  0.1019590E+00
         21   -1    0    0  501  502  0.00000000000E+00  0.00000000000E+00  0.65120104033E+03  0.65120104033E+03  0.00000000000E+00 0.  1.
         21   -1    0    0  502  503 -0.00000000000E+00 -0.00000000000E+00 -0.11793102561E+04  0.11793102561E+04  0.00000000000E+00 0. -1.
    9000005    1    1    2  501    0 -0.20272200612E+03  0.16650191783E+03  0.50282153111E+03  0.69400907239E+03  0.40000000000E+03 0.  1.
   -9000005    1    1    2    0  503  0.20272200612E+03 -0.16650191783E+03 -0.10309307469E+04  0.11365022241E+04  0.40000000000E+03 0. -1.
<mgrwt>
<rscale>  2 0.47835040E+03</rscale>
<asrwt>0</asrwt>
<pdfrwt beam="1">  1       21 0.10018478E+00 0.47835040E+03</pdfrwt>
<pdfrwt beam="2">  1       21 0.18143234E+00 0.47835040E+03</pdfrwt>
<totfact> 0.11485124E+02</totfact>
</mgrwt>
</event>
<event>
 4    1  0.4857079E-002  0.5319097E+03  0.7818608E-02  0.1005770E+00
         21   -1    0    0  501  502  0.00000000000E+00  0.00000000000E+00  0.22481988174E+04  0.22481988174E+04  0.00000000000E+00 0.  1.
         21   -1    0    0  502  503 -0.00000000000E+00 -0.00000000000E+00 -0.16968193369E+03  0.16968193369E+03  0.00000000000E+00 0.  1.
    9000005    1    1    2  501    0  0.24816656998E+03 -0.24767168807E+03  0.16537272243E+04  0.17371648292E+04  0.40000000000E+03 0.  1.
   -9000005    1    1    2    0  503 -0.24816656998E+03  0.24767168807E+03  0.42478965942E+03  0.68071592187E+03  0.40000000000E+03 0.  1.
<mgrwt>
<rscale>  2 0.53190968E+03</rscale>
<asrwt>0</asrwt>
<pdfrwt beam="1">  1       21 0.34587672E+00 0.53190968E+03</pdfrwt>
<pdfrwt beam="2">  1       21 0.26104914E-01 0.53190968E+03</pdfrwt>
<totfact> 0.18982208E+02</totfact>
</mgrwt>
</event>
<event>
 4    1  0.4857079E-002  0.6056415E+03  0.7818608E-02  0.9893770E-01
         21   -1    0    0  503  502  0.00000000000E+00  0.00000000000E+00  0.31447911093E+04  0.31447911093E+04  0.00000000000E+00 0.  1.
         21   -1    0    0  501  503 -0.00000000000E+00 -0.00000000000E+00 -0.13149369776E+03  0.13149369776E+03  0.00000000000E+00 0. -1.
    9000005    1    1    2  501    0  0.45310685160E+03 -0.38675706534E+02  0.95603361541E+03  0.11317251888E+04  0.40000000000E+03 0. -1.
   -9000005    1    1    2    0  502 -0.45310685160E+03  0.38675706534E+02  0.20572637962E+04  0.21445596182E+04  0.40000000000E+03 0.  1.
<mgrwt>
<rscale>  2 0.60564150E+03</rscale>
<asrwt>0</asrwt>
<pdfrwt beam="1">  1       21 0.48381396E+00 0.60564150E+03</pdfrwt>
<pdfrwt beam="2">  1       21 0.20229802E-01 0.60564150E+03</pdfrwt>
<totfact> 0.37055934E+01</totfact>
</mgrwt>
</event>
<event>
 4    1  0.4857079E-002  0.4136963E+03  0.7818608E-02  0.1039138E+00
         21   -1    0    0  503  502  0.00000000000E+00  0.00000000000E+00  0.69627437736E+03  0.69627437736E+03  0.00000000000E+00 0. -1.
         21   -1    0    0  501  503 -0.00000000000E+00 -0.00000000000E+00 -0.31238204050E+03  0.31238204050E+03  0.00000000000E+00 0. -1.
    9000005    1    1    2  501    0 -0.48111322961E+02  0.93967567943E+02 -0.40888201855E+02  0.41571197754E+03  0.40000000000E+03 0. -1.
   -9000005    1    1    2    0  502  0.48111322961E+02 -0.93967567943E+02  0.42478053872E+03  0.59294444031E+03  0.40000000000E+03 0. -1.
<mgrwt>
<rscale>  2 0.41369627E+03</rscale>
<asrwt>0</asrwt>
<pdfrwt beam="1">  1       21 0.10711914E+00 0.41369627E+03</pdfrwt>
<pdfrwt beam="2">  1       21 0.48058775E-01 0.41369627E+03</pdfrwt>
<totfact> 0.25288683E+03</totfact>
</mgrwt>
</event>
<event>
 4    1  0.4857079E-002  0.4536197E+03  0.7818608E-02  0.1026648E+00
         21   -1    0    0  503  502  0.00000000000E+00  0.00000000000E+00  0.75343008118E+03  0.75343008118E+03  0.00000000000E+00 0. -1.
         21   -1    0    0  501  503 -0.00000000000E+00 -0.00000000000E+00 -0.35152110642E+03  0.35152110642E+03  0.00000000000E+00 0.  1.
    9000005    1    1    2  501    0 -0.18888406250E+03  0.10046718037E+03 -0.59973385188E+02  0.45756709926E+03  0.40000000000E+03 0.  1.
   -9000005    1    1    2    0  502  0.18888406250E+03 -0.10046718037E+03  0.46188235995E+03  0.64738408834E+03  0.40000000000E+03 0. -1.
<mgrwt>
<rscale>  2 0.45361971E+03</rscale>
<asrwt>0</asrwt>
<pdfrwt beam="1">  1       21 0.11591232E+00 0.45361971E+03</pdfrwt>
<pdfrwt beam="2">  1       21 0.54080170E-01 0.45361971E+03</pdfrwt>
<totfact> 0.15910165E+03</totfact>
</mgrwt>
</event>
<event>
 4    1  0.4857079E-002  0.4042587E+03  0.7818608E-02  0.1042315E+00
         21   -1    0    0  501  502  0.00000000000E+00  0.00000000000E+00  0.35658382000E+03  0.35658382000E+03  0.00000000000E+00 0.  1.
         21   -1    0    0  502  503 -0.00000000000E+00 -0.00000000000E+00 -0.46464601904E+03  0.46464601904E+03  0.00000000000E+00 0.  1.
    9000005    1    1    2  501    0 -0.49136483074E+02 -0.31791246686E+02 -0.60727929703E+01  0.40430428658E+03  0.40000000000E+03 0.  1.
   -9000005    1    1    2    0  503  0.49136483074E+02  0.31791246686E+02 -0.10198940607E+03  0.41692555245E+03  0.40000000000E+03 0.  1.
<mgrwt>
<rscale>  2 0.40425868E+03</rscale>
<asrwt>0</asrwt>
<pdfrwt beam="1">  1       21 0.54859049E-01 0.40425868E+03</pdfrwt>
<pdfrwt beam="2">  1       21 0.71484003E-01 0.40425868E+03</pdfrwt>
<totfact> 0.49578803E+03</totfact>
</mgrwt>
</event>
<event>
 4    1  0.4857079E-002  0.4880764E+03  0.7818608E-02  0.1016939E+00
         21   -1    0    0  501  502  0.00000000000E+00  0.00000000000E+00  0.74966018073E+03  0.74966018073E+03  0.00000000000E+00 0. -1.
         21   -1    0    0  502  503 -0.00000000000E+00 -0.00000000000E+00 -0.34130491083E+03  0.34130491083E+03  0.00000000000E+00 0.  1.
    9000005    1    1    2  501    0  0.62371359922E+02  0.27263231363E+03  0.34742200730E+03  0.59909983820E+03  0.40000000000E+03 0.  1.
   -9000005    1    1    2    0  503 -0.62371359922E+02 -0.27263231363E+03  0.60933262599E+02  0.49186525336E+03  0.40000000000E+03 0. -1.
<mgrwt>
<rscale>  2 0.48807639E+03</rscale>
<asrwt>0</asrwt>
<pdfrwt beam="1">  1       21 0.11533234E+00 0.48807639E+03</pdfrwt>
<pdfrwt beam="2">  1       21 0.52508448E-01 0.48807639E+03</pdfrwt>
<totfact> 0.16945433E+03</totfact>
</mgrwt>
</event>
<event>
 4    1  0.4857079E-002  0.8608590E+03  0.7818608E-02  0.9475877E-01
         21   -1    0    0  501  502  0.00000000000E+00  0.00000000000E+00  0.50959177103E+03  0.50959177103E+03  0.00000000000E+00 0.  1.
         21   -1    0    0  502  503 -0.00000000000E+00 -0.00000000000E+00 -0.15407723267E+04  0.15407723267E+04  0.00000000000E+00 0. -1.
    9000005    1    1    2  501    0 -0.29466522466E+03  0.70302956266E+03 -0.27266397599E+03  0.90300819730E+03  0.40000000000E+03 0.  1.
   -9000005    1    1    2    0  503  0.29466522466E+03 -0.70302956266E+03 -0.75851657968E+03  0.11473559004E+04  0.40000000000E+03 0. -1.
<mgrwt>
<rscale>  2 0.86085897E+03</rscale>
<asrwt>0</asrwt>
<pdfrwt beam="1">  1       21 0.78398736E-01 0.86085897E+03</pdfrwt>
<pdfrwt beam="2">  1       21 0.23704189E+00 0.86085897E+03</pdfrwt>
<totfact> 0.75669995E+01</totfact>
</mgrwt>
</event>
<event>
 4    1  0.4857079E-002  0.5262763E+03  0.7818608E-02  0.1007139E+00
         21   -1    0    0  503  502  0.00000000000E+00  0.00000000000E+00  0.21617021019E+03  0.21617021019E+03  0.00000000000E+00 0.  1.
         21   -1    0    0  501  503 -0.00000000000E+00 -0.00000000000E+00 -0.12818516686E+04  0.12818516686E+04  0.00000000000E+00 0. -1.
    9000005    1    1    2  501    0 -0.34099651359E+03  0.26231299371E+02 -0.51652760096E+03  0.73740590308E+03  0.40000000000E+03 0. -1.
   -9000005    1    1    2    0  502  0.34099651359E+03 -0.26231299371E+02 -0.54915385748E+03  0.76061597573E+03  0.40000000000E+03 0. -1.
<mgrwt>
<rscale>  2 0.52627626E+03</rscale>
<asrwt>0</asrwt>
<pdfrwt beam="1">  1       21 0.33256955E-01 0.52627626E+03</pdfrwt>
<pdfrwt beam="2">  1       21 0.19720795E+00 0.52627626E+03</pdfrwt>
<totfact> 0.98583672E+02</totfact>
</mgrwt>
</event>
<event>
 4    1  0.4857079E-002  0.5372562E+03  0.7818608E-02  0.1004487E+00
         21   -1    0    0  503  502  0.00000000000E+00  0.00000000000E+00  0.18042529179E+03  0.18042529179E+03  0.00000000000E+00 0.  1.
         21   -1    0    0  501  503 -0.00000000000E+00 -0.00000000000E+00 -0.23481053525E+04  0.23481053525E+04  0.00000000000E+00 0.  1.
    9000005    1    1    2  501    0 -0.14026735725E+03  0.33010499058E+03 -0.17975456171E+04  0.18761168625E+04  0.40000000000E+03 0.  1.
   -9000005    1    1    2    0  502  0.14026735725E+03 -0.33010499058E+03 -0.37013444368E+03  0.65241378182E+03  0.40000000000E+03 0.  1.
<mgrwt>
<rscale>  2 0.53725621E+03</rscale>
<asrwt>0</asrwt>
<pdfrwt beam="1">  1       21 0.27757739E-01 0.53725621E+03</pdfrwt>
<pdfrwt beam="2">  1       21 0.36124695E+00 0.53725621E+03</pdfrwt>
<totfact> 0.13470927E+02</totfact>
</mgrwt>
</event>
<event>
 4    1  0.4857079E-002  0.4535129E+03  0.7818608E-02  0.1026680E+00
         21   -1    0    0  501  502  0.00000000000E+00  0.00000000000E+00  0.33471044977E+03  0.33471044977E+03  0.00000000000E+00 0.  1.
         21   -1    0    0  502  503 -0.00000000000E+00 -0.00000000000E+00 -0.64290627850E+03  0.64290627850E+03  0.00000000000E+00 0.  1.
    9000005    1    1    2  501    0 -0.18480164621E+03 -0.10734179095E+03 -0.51319654825E+02  0.45640729124E+03  0.40000000000E+03 0. -1.
   -9000005    1    1    2    0  503  0.18480164621E+03  0.10734179095E+03 -0.25687617391E+03  0.52120943703E+03  0.40000000000E+03 0. -1.
<mgrwt>
<rscale>  2 0.45351285E+03</rscale>
<asrwt>0</asrwt>
<pdfrwt beam="1">  1       21 0.51493916E-01 0.45351285E+03</pdfrwt>
<pdfrwt beam="2">  1       21 0.98908657E-01 0.45351285E+03</pdfrwt>
<totfact> 0.26147625E+03</totfact>
</mgrwt>
</event>
<event>
 4    1  0.4857079E-002  0.4637113E+03  0.7818608E-02  0.1023710E+00
         21   -1    0    0  501  502  0.00000000000E+00  0.00000000000E+00  0.17832232785E+04  0.17832232785E+04  0.00000000000E+00 0. -1.
         21   -1    0    0  502  503 -0.00000000000E+00 -0.00000000000E+00 -0.14162301854E+03  0.14162301854E+03  0.00000000000E+00 0. -1.
    9000005    1    1    2  501    0 -0.18791172423E+03  0.14041860772E+03  0.11917471121E+04  0.12787843370E+04  0.40000000000E+03 0. -1.
   -9000005    1    1    2    0  503  0.18791172423E+03 -0.14041860772E+03  0.44985314784E+03  0.64606195997E+03  0.40000000000E+03 0. -1.
<mgrwt>
<rscale>  2 0.46371133E+03</rscale>
<asrwt>0</asrwt>
<pdfrwt beam="1">  1       21 0.27434203E+00 0.46371133E+03</pdfrwt>
<pdfrwt beam="2">  1       21 0.21788158E-01 0.46371133E+03</pdfrwt>
<totfact> 0.75896174E+02</totfact>
</mgrwt>
</event>
<event>
 4    1  0.4857079E-002  0.5517897E+03  0.7818608E-02  0.1001081E+00
         21   -1    0    0  501  502  0.00000000000E+00  0.00000000000E+00  0.22439886418E+03  0.22439886418E+03  0.00000000000E+00 0.  1.
         21   -1    0    0  502  503 -0.00000000000E+00 -0.00000000000E+00 -0.13576140949E+04  0.13576140949E+04  0.00000000000E+00 0.  1.
    9000005    1    1    2  501    0  0.37839232308E+03 -0.35931536568E+02 -0.58557871309E+03  0.80459570885E+03  0.40000000000E+03 0.  1.
   -9000005    1    1    2    0  503 -0.37839232308E+03  0.35931536568E+02 -0.54763651759E+03  0.77741725019E+03  0.40000000000E+03 0.  1.
<mgrwt>
<rscale>  2 0.55178966E+03</rscale>
<asrwt>0</asrwt>
<pdfrwt beam="1">  1       21 0.34522903E-01 0.55178966E+03</pdfrwt>
<pdfrwt beam="2">  1       21 0.20886370E+00 0.55178966E+03</pdfrwt>
<totfact> 0.75678092E+02</totfact>
</mgrwt>
</event>
<event>
 4    1  0.4857079E-002  0.4007566E+03  0.7818608E-02  0.1043518E+00
         21   -1    0    0  501  502  0.00000000000E+00  0.00000000000E+00  0.39232864650E+03  0.39232864650E+03  0.00000000000E+00 0.  1.
         21   -1    0    0  502  503 -0.00000000000E+00 -0.00000000000E+00 -0.10563285027E+04  0.10563285027E+04  0.00000000000E+00 0.  1.
    9000005    1    1    2  501    0 -0.24511037502E+02 -0.22485845106E+01  0.23486007192E+03  0.46450522115E+03  0.40000000000E+03 0.  1.
   -9000005    1    1    2    0  503  0.24511037502E+02  0.22485845106E+01 -0.89885992812E+03  0.98415192804E+03  0.40000000000E+03 0.  1.
<mgrwt>
<rscale>  2 0.40075659E+03</rscale>
<asrwt>0</asrwt>
<pdfrwt beam="1">  1       21 0.60358254E-01 0.40075659E+03</pdfrwt>
<pdfrwt beam="2">  1       21 0.16251208E+00 0.40075659E+03</pdfrwt>
<totfact> 0.52593913E+02</totfact>
</mgrwt>
</event>
<event>
 4    1  0.4857079E-002  0.4032130E+03  0.7818608E-02  0.1042673E+00
         21   -1    0    0  501  502  0.00000000000E+00  0.00000000000E+00  0.56111524374E+03  0.56111524374E+03  0.00000000000E+00 0. -1.
         21   -1    0    0  502  503 -0.00000000000E+00 -0.00000000000E+00 -0.30498942454E+03  0.30498942454E+03  0.00000000000E+00 0. -1.
    9000005    1    1    2  501    0  0.12953111967E+02  0.49122026252E+02  0.31247866818E+02  0.40442203915E+03  0.40000000000E+03 0.  1.
   -9000005    1    1    2    0  503 -0.12953111967E+02 -0.49122026252E+02  0.22487795238E+03  0.46168262913E+03  0.40000000000E+03 0.  1.
<mgrwt>
<rscale>  2 0.40321304E+03</rscale>
<asrwt>0</asrwt>
<pdfrwt beam="1">  1       21 0.86325422E-01 0.40321304E+03</pdfrwt>
<pdfrwt beam="2">  1       21 0.46921450E-01 0.40321304E+03</pdfrwt>
<totfact> 0.44841923E+03</totfact>
</mgrwt>
</event>
<event>
 4    1  0.4857079E-002  0.4374418E+03  0.7818608E-02  0.1031535E+00
         21   -1    0    0  503  502  0.00000000000E+00  0.00000000000E+00  0.26994047898E+03  0.26994047898E+03  0.00000000000E+00 0. -1.
         21   -1    0    0  501  503 -0.00000000000E+00 -0.00000000000E+00 -0.80403738727E+03  0.80403738727E+03  0.00000000000E+00 0. -1.
    9000005    1    1    2  501    0 -0.12210144865E+03 -0.12824422534E+03 -0.82313537388E+02  0.44511893190E+03  0.40000000000E+03 0. -1.
   -9000005    1    1    2    0  502  0.12210144865E+03  0.12824422534E+03 -0.45178337090E+03  0.62885893435E+03  0.40000000000E+03 0. -1.
<mgrwt>
<rscale>  2 0.43744182E+03</rscale>
<asrwt>0</asrwt>
<pdfrwt beam="1">  1       21 0.41529305E-01 0.43744182E+03</pdfrwt>
<pdfrwt beam="2">  1       21 0.12369806E+00 0.43744182E+03</pdfrwt>
<totfact> 0.23702666E+03</totfact>
</mgrwt>
</event>
<event>
 4    1  0.4857079E-002  0.6160253E+03  0.7818608E-02  0.9872705E-01
         21   -1    0    0  501  502  0.00000000000E+00  0.00000000000E+00  0.32531454425E+03  0.32531454425E+03  0.00000000000E+00 0.  1.
         21   -1    0    0  502  503 -0.00000000000E+00 -0.00000000000E+00 -0.12120981436E+04  0.12120981436E+04  0.00000000000E+00 0.  1.
    9000005    1    1    2  501    0 -0.17601655525E+03  0.43417202876E+03 -0.59244849606E+03  0.85468263044E+03  0.40000000000E+03 0.  1.
   -9000005    1    1    2    0  503  0.17601655525E+03 -0.43417202876E+03 -0.29433510329E+03  0.68273005743E+03  0.40000000000E+03 0.  1.
<mgrwt>
<rscale>  2 0.61602531E+03</rscale>
<asrwt>0</asrwt>
<pdfrwt beam="1">  1       21 0.50048391E-01 0.61602531E+03</pdfrwt>
<pdfrwt beam="2">  1       21 0.18647664E+00 0.61602531E+03</pdfrwt>
<totfact> 0.48377752E+02</totfact>
</mgrwt>
</event>
<event>
 4    1  0.4857079E-002  0.4068111E+03  0.7818608E-02  0.1041446E+00
         21   -1    0    0  503  502  0.00000000000E+00  0.00000000000E+00  0.20185565178E+03  0.20185565178E+03  0.00000000000E+00 0. -1.
         21   -1    0    0  501  503 -0.00000000000E+00 -0.00000000000E+00 -0.11811221714E+04  0.11811221714E+04  0.00000000000E+00 0. -1.
    9000005    1    1    2  501    0  0.48610238868E+02  0.55966891051E+02 -0.10721072633E+03  0.42070106733E+03  0.40000000000E+03 0. -1.
   -9000005    1    1    2    0  502 -0.48610238868E+02 -0.55966891051E+02 -0.87205579328E+03  0.96227675583E+03  0.40000000000E+03 0. -1.
<mgrwt>
<rscale>  2 0.40681107E+03</rscale>
<asrwt>0</asrwt>
<pdfrwt beam="1">  1       21 0.31054716E-01 0.40681107E+03</pdfrwt>
<pdfrwt beam="2">  1       21 0.18171110E+00 0.40681107E+03</pdfrwt>
<totfact> 0.15204982E+03</totfact>
</mgrwt>
</event>
<event>
 4    1  0.4857079E-002  0.4529367E+03  0.7818608E-02  0.1026850E+00
         21   -1    0    0  501  502  0.00000000000E+00  0.00000000000E+00  0.75415332193E+03  0.75415332193E+03  0.00000000000E+00 0.  1.
         21   -1    0    0  502  503 -0.00000000000E+00 -0.00000000000E+00 -0.47019069524E+03  0.47019069524E+03  0.00000000000E+00 0.  1.
    9000005    1    1    2  501    0 -0.71132098320E+02 -0.20022947317E+03  0.53939813336E+03  0.70434506005E+03  0.40000000000E+03 0.  1.
   -9000005    1    1    2    0  503  0.71132098320E+02  0.20022947317E+03 -0.25543550668E+03  0.51999895712E+03  0.40000000000E+03 0.  1.
<mgrwt>
<rscale>  2 0.45293666E+03</rscale>
<asrwt>0</asrwt>
<pdfrwt beam="1">  1       21 0.11602359E+00 0.45293666E+03</pdfrwt>
<pdfrwt beam="2">  1       21 0.72337030E-01 0.45293666E+03</pdfrwt>
<totfact> 0.83520189E+02</totfact>
</mgrwt>
</event>
<event>
 4    1  0.4857079E-002  0.4628751E+03  0.7818608E-02  0.1023951E+00
         21   -1    0    0  501  502  0.00000000000E+00  0.00000000000E+00  0.76037871791E+03  0.76037871791E+03  0.00000000000E+00 0. -1.
         21   -1    0    0  502  503 -0.00000000000E+00 -0.00000000000E+00 -0.29044410041E+03  0.29044410041E+03  0.00000000000E+00 0. -1.
    9000005    1    1    2  501    0 -0.82228639130E+02  0.21792613799E+03  0.14417834720E+03  0.48481001074E+03  0.40000000000E+03 0. -1.
   -9000005    1    1    2    0  503  0.82228639130E+02 -0.21792613799E+03  0.32575627030E+03  0.56601280759E+03  0.40000000000E+03 0. -1.
<mgrwt>
<rscale>  2 0.46287509E+03</rscale>
<asrwt>0</asrwt>
<pdfrwt beam="1">  1       21 0.11698134E+00 0.46287509E+03</pdfrwt>
<pdfrwt beam="2">  1       21 0.44683708E-01 0.46287509E+03</pdfrwt>
<totfact> 0.23234325E+03</totfact>
</mgrwt>
</event>
<event>
 4    1  0.4857079E-002  0.6370944E+03  0.7818608E-02  0.9831302E-01
         21   -1    0    0  501  502  0.00000000000E+00  0.00000000000E+00  0.55634122417E+03  0.55634122417E+03  0.00000000000E+00 0. -1.
         21   -1    0    0  502  503 -0.00000000000E+00 -0.00000000000E+00 -0.10430665961E+04  0.10430665961E+04  0.00000000000E+00 0.  1.
    9000005    1    1    2  501    0  0.11501345594E+03 -0.48234960618E+03 -0.68178272772E+03  0.93312213854E+03  0.40000000000E+03 0. -1.
   -9000005    1    1    2    0  503 -0.11501345594E+03  0.48234960618E+03  0.19505735579E+03  0.66628568173E+03  0.40000000000E+03 0. -1.
<mgrwt>
<rscale>  2 0.63709437E+03</rscale>
<asrwt>0</asrwt>
<pdfrwt beam="1">  1       21 0.85590958E-01 0.63709437E+03</pdfrwt>
<pdfrwt beam="2">  1       21 0.16047178E+00 0.63709437E+03</pdfrwt>
<totfact> 0.22289894E+02</totfact>
</mgrwt>
</event>
<event>
 4    1  0.4857079E-002  0.4029529E+03  0.7818608E-02  0.1042762E+00
         21   -1    0    0  501  502  0.00000000000E+00  0.00000000000E+00  0.92977779547E+02  0.92977779547E+02  0.00000000000E+00 0.  1.
         21   -1    0    0  502  503 -0.00000000000E+00 -0.00000000000E+00 -0.24306240519E+04  0.24306240519E+04  0.00000000000E+00 0.  1.
    9000005    1    1    2  501    0  0.37428546415E+02 -0.31146849371E+02 -0.49932488621E+03  0.64163569438E+03  0.40000000000E+03 0.  1.
   -9000005    1    1    2    0  503 -0.37428546415E+02  0.31146849371E+02 -0.18383213861E+04  0.18819661371E+04  0.40000000000E+03 0.  1.
<mgrwt>
<rscale>  2 0.40295288E+03</rscale>
<asrwt>0</asrwt>
<pdfrwt beam="1">  1       21 0.14304274E-01 0.40295288E+03</pdfrwt>
<pdfrwt beam="2">  1       21 0.37394216E+00 0.40295288E+03</pdfrwt>
<totfact> 0.43167676E+02</totfact>
</mgrwt>
</event>
<event>
 4    1  0.4857079E-002  0.4298814E+03  0.7818608E-02  0.1033897E+00
         21   -1    0    0  501  502  0.00000000000E+00  0.00000000000E+00  0.83025321357E+03  0.83025321357E+03  0.00000000000E+00 0. -1.
         21   -1    0    0  502  503 -0.00000000000E+00 -0.00000000000E+00 -0.27638449079E+03  0.27638449079E+03  0.00000000000E+00 0. -1.
    9000005    1    1    2  501    0 -0.15503776087E+03 -0.27591926537E+02  0.52106743830E+03  0.67550669646E+03  0.40000000000E+03 0. -1.
   -9000005    1    1    2    0  503  0.15503776087E+03  0.27591926537E+02  0.32801284475E+02  0.43113100790E+03  0.40000000000E+03 0. -1.
<mgrwt>
<rscale>  2 0.42988140E+03</rscale>
<asrwt>0</asrwt>
<pdfrwt beam="1">  1       21 0.12773126E+00 0.42988140E+03</pdfrwt>
<pdfrwt beam="2">  1       21 0.42520691E-01 0.42988140E+03</pdfrwt>
<totfact> 0.20845319E+03</totfact>
</mgrwt>
</event>
<event>
 4    1  0.4857079E-002  0.5563172E+03  0.7818608E-02  0.1000042E+00
         21   -1    0    0  503  502  0.00000000000E+00  0.00000000000E+00  0.33998558916E+03  0.33998558916E+03  0.00000000000E+00 0.  1.
         21   -1    0    0  501  503 -0.00000000000E+00 -0.00000000000E+00 -0.95020863131E+03  0.95020863131E+03  0.00000000000E+00 0. -1.
    9000005    1    1    2  501    0 -0.20146852213E+03 -0.32999892523E+03 -0.17290604640E+03  0.58256789900E+03  0.40000000000E+03 0. -1.
   -9000005    1    1    2    0  502  0.20146852213E+03  0.32999892523E+03 -0.43731699575E+03  0.70762632147E+03  0.40000000000E+03 0. -1.
<mgrwt>
<rscale>  2 0.55631723E+03</rscale>
<asrwt>0</asrwt>
<pdfrwt beam="1">  1       21 0.52305476E-01 0.55631723E+03</pdfrwt>
<pdfrwt beam="2">  1       21 0.14618594E+00 0.55631723E+03</pdfrwt>
<totfact> 0.89861007E+02</totfact>
</mgrwt>
</event>
<event>
 4    1  0.4857079E-002  0.6970446E+03  0.7818608E-02  0.9722300E-01
         21   -1    0    0  503  502  0.00000000000E+00  0.00000000000E+00  0.72236343835E+03  0.72236343835E+03  0.00000000000E+00 0.  1.
         21   -1    0    0  501  503 -0.00000000000E+00 -0.00000000000E+00 -0.67496965196E+03  0.67496965196E+03  0.00000000000E+00 0. -1.
    9000005    1    1    2  501    0  0.24020431116E+03  0.51785426938E+03  0.64978894689E+02  0.70006671980E+03  0.40000000000E+03 0. -1.
   -9000005    1    1    2    0  502 -0.24020431116E+03 -0.51785426938E+03 -0.17585108299E+02  0.69726637051E+03  0.40000000000E+03 0.  1.
<mgrwt>
<rscale>  2 0.69704459E+03</rscale>
<asrwt>0</asrwt>
<pdfrwt beam="1">  1       21 0.11113284E+00 0.69704459E+03</pdfrwt>
<pdfrwt beam="2">  1       21 0.10384149E+00 0.69704459E+03</pdfrwt>
<totfact> 0.36336620E+02</totfact>
</mgrwt>
</event>
<event>
 4    1  0.4857079E-002  0.4413834E+03  0.7818608E-02  0.1030323E+00
         21   -1    0    0  503  502  0.00000000000E+00  0.00000000000E+00  0.96789339667E+03  0.96789339667E+03  0.00000000000E+00 0.  1.
         21   -1    0    0  501  503 -0.00000000000E+00 -0.00000000000E+00 -0.21262178879E+03  0.21262178879E+03  0.00000000000E+00 0.  1.
    9000005    1    1    2  501    0 -0.44257647269E+02 -0.18127495713E+03  0.51395076686E+03  0.67746936475E+03  0.40000000000E+03 0.  1.
   -9000005    1    1    2    0  502  0.44257647269E+02  0.18127495713E+03  0.24132084102E+03  0.50304582071E+03  0.40000000000E+03 0.  1.
<mgrwt>
<rscale>  2 0.44138345E+03</rscale>
<asrwt>0</asrwt>
<pdfrwt beam="1">  1       21 0.14890667E+00 0.44138345E+03</pdfrwt>
<pdfrwt beam="2">  1       21 0.32711045E-01 0.44138345E+03</pdfrwt>
<totfact> 0.23624361E+03</totfact>
</mgrwt>
</event>
<event>
 4    1  0.4857079E-002  0.4662663E+03  0.7818608E-02  0.1022979E+00
         21   -1    0    0  503  502  0.00000000000E+00  0.00000000000E+00  0.75067929517E+03  0.75067929517E+03  0.00000000000E+00 0.  1.
         21   -1    0    0  501  503 -0.00000000000E+00 -0.00000000000E+00 -0.29410624147E+03  0.29410624147E+03  0.00000000000E+00 0.  1.
    9000005    1    1    2  501    0 -0.23945230562E+03 -0.81737992877E+01  0.29287733020E+03  0.55061905907E+03  0.40000000000E+03 0.  1.
   -9000005    1    1    2    0  502  0.23945230562E+03  0.81737992877E+01  0.16369572349E+03  0.49416647757E+03  0.40000000000E+03 0.  1.
<mgrwt>
<rscale>  2 0.46626625E+03</rscale>
<asrwt>0</asrwt>
<pdfrwt beam="1">  1       21 0.11548912E+00 0.46626625E+03</pdfrwt>
<pdfrwt beam="2">  1       21 0.45247114E-01 0.46626625E+03</pdfrwt>
<totfact> 0.23343844E+03</totfact>
</mgrwt>
</event>
<event>
 4    1  0.4857079E-002  0.4482502E+03  0.7818608E-02  0.1028245E+00
         21   -1    0    0  501  502  0.00000000000E+00  0.00000000000E+00  0.29874696937E+03  0.29874696937E+03  0.00000000000E+00 0.  1.
         21   -1    0    0  502  503 -0.00000000000E+00 -0.00000000000E+00 -0.68336701358E+03  0.68336701358E+03  0.00000000000E+00 0.  1.
    9000005    1    1    2  501    0 -0.88337288749E+02 -0.18200204576E+03 -0.25403466669E+03  0.51522988377E+03  0.40000000000E+03 0.  1.
   -9000005    1    1    2    0  503  0.88337288749E+02  0.18200204576E+03 -0.13058537751E+03  0.46688409918E+03  0.40000000000E+03 0.  1.
<mgrwt>
<rscale>  2 0.44825018E+03</rscale>
<asrwt>0</asrwt>
<pdfrwt beam="1">  1       21 0.45961072E-01 0.44825018E+03</pdfrwt>
<pdfrwt beam="2">  1       21 0.10513339E+00 0.44825018E+03</pdfrwt>
<totfact> 0.28711408E+03</totfact>
</mgrwt>
</event>
<event>
 4    1  0.4857079E-002  0.4806344E+03  0.7818608E-02  0.1018961E+00
         21   -1    0    0  503  502  0.00000000000E+00  0.00000000000E+00  0.50784961475E+03  0.50784961475E+03  0.00000000000E+00 0.  1.
         21   -1    0    0  501  503 -0.00000000000E+00 -0.00000000000E+00 -0.45524360417E+03  0.45524360417E+03  0.00000000000E+00 0. -1.
    9000005    1    1    2  501    0 -0.26161110331E+03  0.50685557909E+02  0.39957679262E+02  0.48229245411E+03  0.40000000000E+03 0.  1.
   -9000005    1    1    2    0  502  0.26161110331E+03 -0.50685557909E+02  0.12648331320E+02  0.48080076481E+03  0.40000000000E+03 0.  1.
<mgrwt>
<rscale>  2 0.48063437E+03</rscale>
<asrwt>0</asrwt>
<pdfrwt beam="1">  1       21 0.78130710E-01 0.48063437E+03</pdfrwt>
<pdfrwt beam="2">  1       21 0.70037478E-01 0.48063437E+03</pdfrwt>
<totfact> 0.23004059E+03</totfact>
</mgrwt>
</event>
<event>
 4    1  0.4857079E-002  0.4861870E+03  0.7818608E-02  0.1017449E+00
         21   -1    0    0  501  502  0.00000000000E+00  0.00000000000E+00  0.42559985026E+03  0.42559985026E+03  0.00000000000E+00 0. -1.
         21   -1    0    0  502  503 -0.00000000000E+00 -0.00000000000E+00 -0.55551960501E+03  0.55551960501E+03  0.00000000000E+00 0.  1.
    9000005    1    1    2  501    0 -0.24902615352E+03 -0.11984903331E+03 -0.72182024139E+02  0.49151608370E+03  0.40000000000E+03 0. -1.
   -9000005    1    1    2    0  503  0.24902615352E+03  0.11984903331E+03 -0.57737730605E+02  0.48960337158E+03  0.40000000000E+03 0. -1.
<mgrwt>
<rscale>  2 0.48618702E+03</rscale>
<asrwt>0</asrwt>
<pdfrwt beam="1">  1       21 0.65476900E-01 0.48618702E+03</pdfrwt>
<pdfrwt beam="2">  1       21 0.85464555E-01 0.48618702E+03</pdfrwt>
<totfact> 0.21675179E+03</totfact>
</mgrwt>
</event>
<event>
 4    1  0.4857079E-002  0.4224054E+03  0.7818608E-02  0.1036286E+00
         21   -1    0    0  503  502  0.00000000000E+00  0.00000000000E+00  0.27262289273E+03  0.27262289273E+03  0.00000000000E+00 0.  1.
         21   -1    0    0  501  503 -0.00000000000E+00 -0.00000000000E+00 -0.18836774326E+04  0.18836774326E+04  0.00000000000E+00 0.  1.
    9000005    1    1    2  501    0 -0.60270954207E+02  0.12162955285E+03 -0.16764642667E+04  0.17288605420E+04  0.40000000000E+03 0.  1.
   -9000005    1    1    2    0  502  0.60270954207E+02 -0.12162955285E+03  0.65409726824E+02  0.42743978337E+03  0.40000000000E+03 0.  1.
<mgrwt>
<rscale>  2 0.42240542E+03</rscale>
<asrwt>0</asrwt>
<pdfrwt beam="1">  1       21 0.41941983E-01 0.42240542E+03</pdfrwt>
<pdfrwt beam="2">  1       21 0.28979653E+00 0.42240542E+03</pdfrwt>
<totfact> 0.17042031E+02</totfact>
</mgrwt>
</event>
<event>
 4    1  0.4857079E-002  0.6334998E+03  0.7818608E-02  0.9838243E-01
         21   -1    0    0  501  502  0.00000000000E+00  0.00000000000E+00  0.39630805202E+03  0.39630805202E+03  0.00000000000E+00 0. -1.
         21   -1    0    0  502  503 -0.00000000000E+00 -0.00000000000E+00 -0.10509306698E+04  0.10509306698E+04  0.00000000000E+00 0.  1.
    9000005    1    1    2  501    0  0.47702908956E+03 -0.11732524470E+03 -0.18920799968E+03  0.66115174693E+03  0.40000000000E+03 0. -1.
   -9000005    1    1    2    0  503 -0.47702908956E+03  0.11732524470E+03 -0.46541461806E+03  0.78608697485E+03  0.40000000000E+03 0.  1.
<mgrwt>
<rscale>  2 0.63349978E+03</rscale>
<asrwt>0</asrwt>
<pdfrwt beam="1">  1       21 0.60970469E-01 0.63349978E+03</pdfrwt>
<pdfrwt beam="2">  1       21 0.16168164E+00 0.63349978E+03</pdfrwt>
<totfact> 0.47421816E+02</totfact>
</mgrwt>
</event>
<event>
 4    1  0.4857079E-002  0.4530716E+03  0.7818608E-02  0.1026810E+00
         21   -1    0    0  501  502  0.00000000000E+00  0.00000000000E+00  0.82628982749E+03  0.82628982749E+03  0.00000000000E+00 0. -1.
         21   -1    0    0  502  503 -0.00000000000E+00 -0.00000000000E+00 -0.51540125955E+03  0.51540125955E+03  0.00000000000E+00 0. -1.
    9000005    1    1    2  501    0  0.19206197095E+03  0.91575347708E+02  0.63826219476E+03  0.78272119829E+03  0.40000000000E+03 0. -1.
   -9000005    1    1    2    0  503 -0.19206197095E+03 -0.91575347708E+02 -0.32737362682E+03  0.55896988875E+03  0.40000000000E+03 0. -1.
<mgrwt>
<rscale>  2 0.45307157E+03</rscale>
<asrwt>0</asrwt>
<pdfrwt beam="1">  1       21 0.12712151E+00 0.45307157E+03</pdfrwt>
<pdfrwt beam="2">  1       21 0.79292502E-01 0.45307157E+03</pdfrwt>
<totfact> 0.53636021E+02</totfact>
</mgrwt>
</event>
<event>
 4    1  0.4857079E-002  0.4027820E+03  0.7818608E-02  0.1042821E+00
         21   -1    0    0  503  502  0.00000000000E+00  0.00000000000E+00  0.96472005655E+03  0.96472005655E+03  0.00000000000E+00 0. -1.
         21   -1    0    0  501  503 -0.00000000000E+00 -0.00000000000E+00 -0.17336770684E+03  0.17336770684E+03  0.00000000000E+00 0. -1.
    9000005    1    1    2  501    0 -0.41757232649E+02  0.22129132022E+02  0.29711095608E+03  0.50050802710E+03  0.40000000000E+03 0.  1.
   -9000005    1    1    2    0  502  0.41757232649E+02 -0.22129132022E+02  0.49424139362E+03  0.63757973629E+03  0.40000000000E+03 0.  1.
<mgrwt>
<rscale>  2 0.40278203E+03</rscale>
<asrwt>0</asrwt>
<pdfrwt beam="1">  1       21 0.14841847E+00 0.40278203E+03</pdfrwt>
<pdfrwt beam="2">  1       21 0.26671955E-01 0.40278203E+03</pdfrwt>
<totfact> 0.36270143E+03</totfact>
</mgrwt>
</event>
<event>
 4    1  0.4857079E-002  0.4106913E+03  0.7818608E-02  0.1040139E+00
         21   -1    0    0  501  502  0.00000000000E+00  0.00000000000E+00  0.55507389452E+03  0.55507389452E+03  0.00000000000E+00 0. -1.
         21   -1    0    0  502  503 -0.00000000000E+00 -0.00000000000E+00 -0.31046183980E+03  0.31046183980E+03  0.00000000000E+00 0.  1.
    9000005    1    1    2  501    0 -0.18873621862E+02  0.91165439076E+02  0.18539150889E+03  0.45059667381E+03  0.40000000000E+03 0. -1.
   -9000005    1    1    2    0  503  0.18873621862E+02 -0.91165439076E+02  0.59220545831E+02  0.41493906050E+03  0.40000000000E+03 0.  1.
<mgrwt>
<rscale>  2 0.41069131E+03</rscale>
<asrwt>0</asrwt>
<pdfrwt beam="1">  1       21 0.85395984E-01 0.41069131E+03</pdfrwt>
<pdfrwt beam="2">  1       21 0.47763360E-01 0.41069131E+03</pdfrwt>
<totfact> 0.44176804E+03</totfact>
</mgrwt>
</event>
<event>
 4    1  0.4857079E-002  0.4238791E+03  0.7818608E-02  0.1035811E+00
         21   -1    0    0  501  502  0.00000000000E+00  0.00000000000E+00  0.17025793781E+04  0.17025793781E+04  0.00000000000E+00 0.  1.
         21   -1    0    0  502  503 -0.00000000000E+00 -0.00000000000E+00 -0.26333542413E+03  0.26333542413E+03  0.00000000000E+00 0.  1.
    9000005    1    1    2  501    0  0.75119799369E+02  0.11845029346E+03  0.14805451538E+04  0.15400283792E+04  0.40000000000E+03 0.  1.
   -9000005    1    1    2    0  503 -0.75119799369E+02 -0.11845029346E+03 -0.41301199775E+02  0.42588642310E+03  0.40000000000E+03 0.  1.
<mgrwt>
<rscale>  2 0.42387906E+03</rscale>
<asrwt>0</asrwt>
<pdfrwt beam="1">  1       21 0.26193528E+00 0.42387906E+03</pdfrwt>
<pdfrwt beam="2">  1       21 0.40513143E-01 0.42387906E+03</pdfrwt>
<totfact> 0.26918992E+02</totfact>
</mgrwt>
</event>
<event>
 4    1  0.4857079E-002  0.5081486E+03  0.7818608E-02  0.1011674E+00
         21   -1    0    0  501  502  0.00000000000E+00  0.00000000000E+00  0.35166722816E+03  0.35166722816E+03  0.00000000000E+00 0. -1.
         21   -1    0    0  502  503 -0.00000000000E+00 -0.00000000000E+00 -0.13516524507E+04  0.13516524507E+04  0.00000000000E+00 0.  1.
    9000005    1    1    2  501    0  0.26116703202E+03  0.17322478899E+03  0.75598979521E+02  0.51374142508E+03  0.40000000000E+03 0. -1.
   -9000005    1    1    2    0  503 -0.26116703202E+03 -0.17322478899E+03 -0.10755842021E+04  0.11895782538E+04  0.40000000000E+03 0.  1.
<mgrwt>
<rscale>  2 0.50814865E+03</rscale>
<asrwt>0</asrwt>
<pdfrwt beam="1">  1       21 0.54102651E-01 0.50814865E+03</pdfrwt>
<pdfrwt beam="2">  1       21 0.20794653E+00 0.50814865E+03</pdfrwt>
<totfact> 0.30542021E+02</totfact>
</mgrwt>
</event>
<event>
 4    1  0.4857079E-002  0.4676528E+03  0.7818608E-02  0.1022585E+00
         21   -1    0    0  501  502  0.00000000000E+00  0.00000000000E+00  0.51632551330E+03  0.51632551330E+03  0.00000000000E+00 0. -1.
         21   -1    0    0  502  503 -0.00000000000E+00 -0.00000000000E+00 -0.74196396815E+03  0.74196396815E+03  0.00000000000E+00 0. -1.
    9000005    1    1    2  501    0 -0.14993371430E+03 -0.19031302836E+03 -0.52495724268E+03  0.70304997979E+03  0.40000000000E+03 0. -1.
   -9000005    1    1    2    0  503  0.14993371430E+03  0.19031302836E+03  0.29931878783E+03  0.55523950165E+03  0.40000000000E+03 0. -1.
<mgrwt>
<rscale>  2 0.46765283E+03</rscale>
<asrwt>0</asrwt>
<pdfrwt beam="1">  1       21 0.79434695E-01 0.46765283E+03</pdfrwt>
<pdfrwt beam="2">  1       21 0.11414830E+00 0.46765283E+03</pdfrwt>
<totfact> 0.69796740E+02</totfact>
</mgrwt>
</event>
<event>
 4    1  0.4857079E-002  0.4630197E+03  0.7818608E-02  0.1023909E+00
         21   -1    0    0  503  502  0.00000000000E+00  0.00000000000E+00  0.67857887514E+03  0.67857887514E+03  0.00000000000E+00 0. -1.
         21   -1    0    0  501  503 -0.00000000000E+00 -0.00000000000E+00 -0.63473614748E+03  0.63473614748E+03  0.00000000000E+00 0.  1.
    9000005    1    1    2  501    0 -0.21573514877E+03  0.88575402963E+02 -0.44345229475E+03  0.64112182473E+03  0.40000000000E+03 0.  1.
   -9000005    1    1    2    0  502  0.21573514877E+03 -0.88575402963E+02  0.48729502241E+03  0.67219319789E+03  0.40000000000E+03 0. -1.
<mgrwt>
<rscale>  2 0.46301971E+03</rscale>
<asrwt>0</asrwt>
<pdfrwt beam="1">  1       21 0.10439675E+00 0.46301971E+03</pdfrwt>
<pdfrwt beam="2">  1       21 0.97651715E-01 0.46301971E+03</pdfrwt>
<totfact> 0.53612300E+02</totfact>
</mgrwt>
</event>
<event>
 4    1  0.4857079E-002  0.4387260E+03  0.7818608E-02  0.1031138E+00
         21   -1    0    0  501  502  0.00000000000E+00  0.00000000000E+00  0.19476041312E+03  0.19476041312E+03  0.00000000000E+00 0.  1.
         21   -1    0    0  502  503 -0.00000000000E+00 -0.00000000000E+00 -0.10095585802E+04  0.10095585802E+04  0.00000000000E+00 0.  1.
    9000005    1    1    2  501    0 -0.17983001051E+03 -0.11902479144E+02 -0.32000609351E+03  0.54303259715E+03  0.40000000000E+03 0.  1.
   -9000005    1    1    2    0  503  0.17983001051E+03  0.11902479144E+02 -0.49479207356E+03  0.66128639616E+03  0.40000000000E+03 0.  1.
<mgrwt>
<rscale>  2 0.43872600E+03</rscale>
<asrwt>0</asrwt>
<pdfrwt beam="1">  1       21 0.29963141E-01 0.43872600E+03</pdfrwt>
<pdfrwt beam="2">  1       21 0.15531670E+00 0.43872600E+03</pdfrwt>
<totfact> 0.25119028E+03</totfact>
</mgrwt>
</event>
<event>
 4    1  0.4857079E-002  0.4618328E+03  0.7818608E-02  0.1024251E+00
         21   -1    0    0  501  502  0.00000000000E+00  0.00000000000E+00  0.24451751624E+04  0.24451751624E+04  0.00000000000E+00 0.  1.
         21   -1    0    0  502  503 -0.00000000000E+00 -0.00000000000E+00 -0.12195328002E+03  0.12195328002E+03  0.00000000000E+00 0. -1.
    9000005    1    1    2  501    0 -0.22376871425E+03 -0.56719485271E+02  0.18465298231E+04  0.19034079765E+04  0.40000000000E+03 0.  1.
   -9000005    1    1    2    0  503  0.22376871425E+03  0.56719485271E+02  0.47669205930E+03  0.66372046592E+03  0.40000000000E+03 0. -1.
<mgrwt>
<rscale>  2 0.46183280E+03</rscale>
<asrwt>0</asrwt>
<pdfrwt beam="1">  1       21 0.37618076E+00 0.46183280E+03</pdfrwt>
<pdfrwt beam="2">  1       21 0.18762045E-01 0.46183280E+03</pdfrwt>
<totfact> 0.24217660E+02</totfact>
</mgrwt>
</event>
<event>
 4    1  0.4857079E-002  0.4923607E+03  0.7818608E-02  0.1015792E+00
         21   -1    0    0  501  502  0.00000000000E+00  0.00000000000E+00  0.17670704927E+04  0.17670704927E+04  0.00000000000E+00 0. -1.
         21   -1    0    0  502  503 -0.00000000000E+00 -0.00000000000E+00 -0.13862283131E+03  0.13862283131E+03  0.00000000000E+00 0.  1.
    9000005    1    1    2  501    0  0.28304028595E+03  0.48034236427E+02  0.91119844441E+03  0.10357131342E+04  0.40000000000E+03 0.  1.
   -9000005    1    1    2    0  503 -0.28304028595E+03 -0.48034236427E+02  0.71724921699E+03  0.86998018978E+03  0.40000000000E+03 0. -1.
<mgrwt>
<rscale>  2 0.49236073E+03</rscale>
<asrwt>0</asrwt>
<pdfrwt beam="1">  1       21 0.27185698E+00 0.49236073E+03</pdfrwt>
<pdfrwt beam="2">  1       21 0.21326591E-01 0.49236073E+03</pdfrwt>
<totfact> 0.80701696E+02</totfact>
</mgrwt>
</event>
<event>
 4    1  0.4857079E-002  0.6473292E+03  0.7818608E-02  0.9811804E-01
         21   -1    0    0  503  502  0.00000000000E+00  0.00000000000E+00  0.29866192854E+03  0.29866192854E+03  0.00000000000E+00 0.  1.
         21   -1    0    0  501  503 -0.00000000000E+00 -0.00000000000E+00 -0.22528827042E+04  0.22528827042E+04  0.00000000000E+00 0.  1.
    9000005    1    1    2  501    0  0.50096297623E+02  0.50648342799E+03 -0.19354948691E+03  0.67564525140E+03  0.40000000000E+03 0.  1.
   -9000005    1    1    2    0  502 -0.50096297623E+02 -0.50648342799E+03 -0.17606712888E+04  0.18758993813E+04  0.40000000000E+03 0.  1.
<mgrwt>
<rscale>  2 0.64732921E+03</rscale>
<asrwt>0</asrwt>
<pdfrwt beam="1">  1       21 0.45947988E-01 0.64732921E+03</pdfrwt>
<pdfrwt beam="2">  1       21 0.34659735E+00 0.64732921E+03</pdfrwt>
<totfact> 0.56127043E+01</totfact>
</mgrwt>
</event>
<event>
 4    1  0.4857079E-002  0.5493076E+03  0.7818608E-02  0.1001654E+00
         21   -1    0    0  501  502  0.00000000000E+00  0.00000000000E+00  0.12273775971E+03  0.12273775971E+03  0.00000000000E+00 0.  1.
         21   -1    0    0  502  503 -0.00000000000E+00 -0.00000000000E+00 -0.36815427722E+04  0.36815427722E+04  0.00000000000E+00 0.  1.
    9000005    1    1    2  501    0  0.15740403621E+03 -0.34199819268E+03 -0.68301071073E+03  0.87649439552E+03  0.40000000000E+03 0.  1.
   -9000005    1    1    2    0  503 -0.15740403621E+03  0.34199819268E+03 -0.28757943018E+04  0.29277861364E+04  0.40000000000E+03 0.  1.
<mgrwt>
<rscale>  2 0.54930756E+03</rscale>
<asrwt>0</asrwt>
<pdfrwt beam="1">  1       21 0.18882731E-01 0.54930756E+03</pdfrwt>
<pdfrwt beam="2">  1       21 0.56639124E+00 0.54930756E+03</pdfrwt>
<totfact> 0.10836436E+01</totfact>
</mgrwt>
</event>
<event>
 4    1  0.4857079E-002  0.4840932E+03  0.7818608E-02  0.1018016E+00
         21   -1    0    0  501  502  0.00000000000E+00  0.00000000000E+00  0.10366656578E+04  0.10366656578E+04  0.00000000000E+00 0. -1.
         21   -1    0    0  502  503 -0.00000000000E+00 -0.00000000000E+00 -0.22760054643E+03  0.22760054643E+03  0.00000000000E+00 0. -1.
    9000005    1    1    2  501    0  0.41948105565E+02  0.26941893126E+03  0.45657887807E+03  0.66544006190E+03  0.40000000000E+03 0. -1.
   -9000005    1    1    2    0  503 -0.41948105565E+02 -0.26941893126E+03  0.35248623334E+03  0.59882614236E+03  0.40000000000E+03 0. -1.
<mgrwt>
<rscale>  2 0.48409318E+03</rscale>
<asrwt>0</asrwt>
<pdfrwt beam="1">  1       21 0.15948702E+00 0.48409318E+03</pdfrwt>
<pdfrwt beam="2">  1       21 0.35015469E-01 0.48409318E+03</pdfrwt>
<totfact> 0.16774218E+03</totfact>
</mgrwt>
</event>
<event>
 4    1  0.4857079E-002  0.4221065E+03  0.7818608E-02  0.1036383E+00
         21   -1    0    0  501  502  0.00000000000E+00  0.00000000000E+00  0.78354620722E+03  0.78354620722E+03  0.00000000000E+00 0.  1.
         21   -1    0    0  502  503 -0.00000000000E+00 -0.00000000000E+00 -0.29720022333E+03  0.29720022333E+03  0.00000000000E+00 0.  1.
    9000005    1    1    2  501    0 -0.16036608859E+02  0.13385349131E+03  0.50506089090E+03  0.65822521486E+03  0.40000000000E+03 0.  1.
   -9000005    1    1    2    0  503  0.16036608859E+02 -0.13385349131E+03 -0.18714907005E+02  0.42252121569E+03  0.40000000000E+03 0.  1.
<mgrwt>
<rscale>  2 0.42210654E+03</rscale>
<asrwt>0</asrwt>
<pdfrwt beam="1">  1       21 0.12054557E+00 0.42210654E+03</pdfrwt>
<pdfrwt beam="2">  1       21 0.45723112E-01 0.42210654E+03</pdfrwt>
<totfact> 0.20846453E+03</totfact>
</mgrwt>
</event>
<event>
 4    1  0.4857079E-002  0.4653838E+03  0.7818608E-02  0.1023231E+00
         21   -1    0    0  501  502  0.00000000000E+00  0.00000000000E+00  0.74602316647E+03  0.74602316647E+03  0.00000000000E+00 0.  1.
         21   -1    0    0  502  503 -0.00000000000E+00 -0.00000000000E+00 -0.31276951309E+03  0.31276951309E+03  0.00000000000E+00 0.  1.
    9000005    1    1    2  501    0 -0.16321681027E+03  0.17303852339E+03  0.35847250649E+03  0.58743901440E+03  0.40000000000E+03 0.  1.
   -9000005    1    1    2    0  503  0.16321681027E+03 -0.17303852339E+03  0.74781146887E+02  0.47135366516E+03  0.40000000000E+03 0.  1.
<mgrwt>
<rscale>  2 0.46538377E+03</rscale>
<asrwt>0</asrwt>
<pdfrwt beam="1">  1       21 0.11477279E+00 0.46538377E+03</pdfrwt>
<pdfrwt beam="2">  1       21 0.48118387E-01 0.46538377E+03</pdfrwt>
<totfact> 0.20833873E+03</totfact>
</mgrwt>
</event>
<event>
 4    1  0.4857079E-002  0.7161826E+03  0.7818608E-02  0.9689951E-01
         21   -1    0    0  501  502  0.00000000000E+00  0.00000000000E+00  0.13332724362E+04  0.13332724362E+04  0.00000000000E+00 0. -1.
         21   -1    0    0  502  503 -0.00000000000E+00 -0.00000000000E+00 -0.57947619569E+03  0.57947619569E+03  0.00000000000E+00 0. -1.
    9000005    1    1    2  501    0 -0.59245550564E+03 -0.43749764641E+02  0.93135992848E+03  0.11748824981E+04  0.40000000000E+03 0. -1.
   -9000005    1    1    2    0  503  0.59245550564E+03  0.43749764641E+02 -0.17756368796E+03  0.73786613376E+03  0.40000000000E+03 0. -1.
<mgrwt>
<rscale>  2 0.71618264E+03</rscale>
<asrwt>0</asrwt>
<pdfrwt beam="1">  1       21 0.20511884E+00 0.71618264E+03</pdfrwt>
<pdfrwt beam="2">  1       21 0.89150184E-01 0.71618264E+03</pdfrwt>
<totfact> 0.94643449E+01</totfact>
</mgrwt>
</event>
<event>
 4    1  0.4857079E-002  0.5518651E+03  0.7818608E-02  0.1001063E+00
         21   -1    0    0  501  502  0.00000000000E+00  0.00000000000E+00  0.95955369235E+03  0.95955369235E+03  0.00000000000E+00 0. -1.
         21   -1    0    0  502  503 -0.00000000000E+00 -0.00000000000E+00 -0.40521119278E+03  0.40521119278E+03  0.00000000000E+00 0.  1.
    9000005    1    1    2  501    0 -0.12610151487E+02 -0.37999476598E+03  0.59484467663E+03  0.81141557010E+03  0.40000000000E+03 0. -1.
   -9000005    1    1    2    0  503  0.12610151487E+02  0.37999476598E+03 -0.40502177051E+02  0.55334931503E+03  0.40000000000E+03 0.  1.
<mgrwt>
<rscale>  2 0.55186505E+03</rscale>
<asrwt>0</asrwt>
<pdfrwt beam="1">  1       21 0.14762364E+00 0.55186505E+03</pdfrwt>
<pdfrwt beam="2">  1       21 0.62340184E-01 0.55186505E+03</pdfrwt>
<totfact> 0.59745695E+02</totfact>
</mgrwt>
</event>
<event>
 4    1  0.4857079E-002  0.4623305E+03  0.7818608E-02  0.1024107E+00
         21   -1    0    0  503  502  0.00000000000E+00  0.00000000000E+00  0.61139613656E+03  0.61139613656E+03  0.00000000000E+00 0.  1.
         21   -1    0    0  501  503 -0.00000000000E+00 -0.00000000000E+00 -0.44314537879E+03  0.44314537879E+03  0.00000000000E+00 0.  1.
    9000005    1    1    2  501    0 -0.16415671082E+03 -0.16371333790E+03  0.32636839467E+03  0.56592032280E+03  0.40000000000E+03 0.  1.
   -9000005    1    1    2    0  502  0.16415671082E+03  0.16371333790E+03 -0.15811763690E+03  0.48862119255E+03  0.40000000000E+03 0.  1.
<mgrwt>
<rscale>  2 0.46233049E+03</rscale>
<asrwt>0</asrwt>
<pdfrwt beam="1">  1       21 0.94060944E-01 0.46233049E+03</pdfrwt>
<pdfrwt beam="2">  1       21 0.68176212E-01 0.46233049E+03</pdfrwt>
<totfact> 0.15916228E+03</totfact>
</mgrwt>
</event>
<event>
 4    1  0.4857079E-002  0.6718686E+03  0.7818608E-02  0.9766588E-01
         21   -1    0    0  503  502  0.00000000000E+00  0.00000000000E+00  0.84587392144E+03  0.84587392144E+03  0.00000000000E+00 0.  1.
         21   -1    0    0  501  503 -0.00000000000E+00 -0.00000000000E+00 -0.67922767531E+03  0.67922767531E+03  0.00000000000E+00 0.  1.
    9000005    1    1    2  501    0  0.50325323936E+03 -0.19530371468E+03  0.43634090977E+03  0.80112468033E+03  0.40000000000E+03 0.  1.
   -9000005    1    1    2    0  502 -0.50325323936E+03  0.19530371468E+03 -0.26969466365E+03  0.72397691641E+03  0.40000000000E+03 0.  1.
<mgrwt>
<rscale>  2 0.67186856E+03</rscale>
<asrwt>0</asrwt>
<pdfrwt beam="1">  1       21 0.13013445E+00 0.67186856E+03</pdfrwt>
<pdfrwt beam="2">  1       21 0.10449657E+00 0.67186856E+03</pdfrwt>
<totfact> 0.24027264E+02</totfact>
</mgrwt>
</event>
<event>
 4    1  0.4857079E-002  0.4331457E+03  0.7818608E-02  0.1032871E+00
         21   -1    0    0  503  502  0.00000000000E+00  0.00000000000E+00  0.12438905516E+03  0.12438905516E+03  0.00000000000E+00 0.  1.
         21   -1    0    0  501  503 -0.00000000000E+00 -0.00000000000E+00 -0.15360928532E+04  0.15360928532E+04  0.00000000000E+00 0.  1.
    9000005    1    1    2  501    0 -0.10080433231E+03 -0.13211230618E+03 -0.59416183136E+03  0.73528460932E+03  0.40000000000E+03 0. -1.
   -9000005    1    1    2    0  502  0.10080433231E+03  0.13211230618E+03 -0.81754196668E+03  0.92519729904E+03  0.40000000000E+03 0. -1.
<mgrwt>
<rscale>  2 0.43314567E+03</rscale>
<asrwt>0</asrwt>
<pdfrwt beam="1">  1       21 0.19136778E-01 0.43314567E+03</pdfrwt>
<pdfrwt beam="2">  1       21 0.23632197E+00 0.43314567E+03</pdfrwt>
<totfact> 0.16865537E+03</totfact>
</mgrwt>
</event>
<event>
 4    1  0.4857079E-002  0.5278620E+03  0.7818608E-02  0.1006752E+00
         21   -1    0    0  503  502  0.00000000000E+00  0.00000000000E+00  0.85730202409E+02  0.85730202409E+02  0.00000000000E+00 0. -1.
         21   -1    0    0  501  503 -0.00000000000E+00 -0.00000000000E+00 -0.38918948651E+04  0.38918948651E+04  0.00000000000E+00 0.  1.
    9000005    1    1    2  501    0 -0.30974751417E+03  0.15064794823E+03 -0.27106620135E+04  0.27615805037E+04  0.40000000000E+03 0.  1.
   -9000005    1    1    2    0  502  0.30974751417E+03 -0.15064794823E+03 -0.10955026492E+04  0.12160445638E+04  0.40000000000E+03 0. -1.
<mgrwt>
<rscale>  2 0.52786203E+03</rscale>
<asrwt>0</asrwt>
<pdfrwt beam="1">  1       21 0.13189265E-01 0.52786203E+03</pdfrwt>
<pdfrwt beam="2">  1       21 0.59875291E+00 0.52786203E+03</pdfrwt>
<totfact> 0.12076091E+01</totfact>
</mgrwt>
</event>
<event>
 4    1  0.4857079E-002  0.5990565E+03  0.7818608E-02  0.9907366E-01
         21   -1    0    0  501  502  0.00000000000E+00  0.00000000000E+00  0.49385027919E+03  0.49385027919E+03  0.00000000000E+00 0.  1.
         21   -1    0    0  502  503 -0.00000000000E+00 -0.00000000000E+00 -0.14425122143E+04  0.14425122143E+04  0.00000000000E+00 0. -1.
    9000005    1    1    2  501    0  0.44589049707E+03  0.70941651411E+01  0.20769992455E+03  0.63404094601E+03  0.40000000000E+03 0.  1.
   -9000005    1    1    2    0  503 -0.44589049707E+03 -0.70941651411E+01 -0.11563618596E+04  0.13023215475E+04  0.40000000000E+03 0. -1.
<mgrwt>
<rscale>  2 0.59905648E+03</rscale>
<asrwt>0</asrwt>
<pdfrwt beam="1">  1       21 0.75976966E-01 0.59905648E+03</pdfrwt>
<pdfrwt beam="2">  1       21 0.22192496E+00 0.59905648E+03</pdfrwt>
<totfact> 0.11164543E+02</totfact>
</mgrwt>
</event>
<event>
 4    1  0.4857079E-002  0.4065666E+03  0.7818608E-02  0.1041529E+00
         21   -1    0    0  501  502  0.00000000000E+00  0.00000000000E+00  0.11248405146E+04  0.11248405146E+04  0.00000000000E+00 0.  1.
         21   -1    0    0  502  503 -0.00000000000E+00 -0.00000000000E+00 -0.15031677297E+03  0.15031677297E+03  0.00000000000E+00 0.  1.
    9000005    1    1    2  501    0  0.72766969166E+02  0.11676352710E+01  0.58266770479E+03  0.71049141401E+03  0.40000000000E+03 0.  1.
   -9000005    1    1    2    0  503 -0.72766969166E+02 -0.11676352710E+01  0.39185603688E+03  0.56466587360E+03  0.40000000000E+03 0.  1.
<mgrwt>
<rscale>  2 0.40656659E+03</rscale>
<asrwt>0</asrwt>
<pdfrwt beam="1">  1       21 0.17305238E+00 0.40656659E+03</pdfrwt>
<pdfrwt beam="2">  1       21 0.23125658E-01 0.40656659E+03</pdfrwt>
<totfact> 0.31188720E+03</totfact>
</mgrwt>
</event>
<event>
 4    1  0.4857079E-002  0.4568327E+03  0.7818608E-02  0.1025704E+00
         21   -1    0    0  501  502  0.00000000000E+00  0.00000000000E+00  0.10936878753E+04  0.10936878753E+04  0.00000000000E+00 0. -1.
         21   -1    0    0  502  503 -0.00000000000E+00 -0.00000000000E+00 -0.37622200431E+03  0.37622200431E+03  0.00000000000E+00 0. -1.
    9000005    1    1    2  501    0  0.21871621333E+03 -0.29314796105E+02  0.87467068900E+03  0.98678516073E+03  0.40000000000E+03 0. -1.
   -9000005    1    1    2    0  503 -0.21871621333E+03  0.29314796105E+02 -0.15720481796E+03  0.48312471892E+03  0.40000000000E+03 0. -1.
<mgrwt>
<rscale>  2 0.45683273E+03</rscale>
<asrwt>0</asrwt>
<pdfrwt beam="1">  1       21 0.16825967E+00 0.45683273E+03</pdfrwt>
<pdfrwt beam="2">  1       21 0.57880309E-01 0.45683273E+03</pdfrwt>
<totfact> 0.50837080E+02</totfact>
</mgrwt>
</event>
<event>
 4    1  0.4857079E-002  0.4142928E+03  0.7818608E-02  0.1038940E+00
         21   -1    0    0  501  502  0.00000000000E+00  0.00000000000E+00  0.99477728808E+03  0.99477728808E+03  0.00000000000E+00 0.  1.
         21   -1    0    0  502  503 -0.00000000000E+00 -0.00000000000E+00 -0.31015551023E+03  0.31015551023E+03  0.00000000000E+00 0.  1.
    9000005    1    1    2  501    0  0.10673483881E+03 -0.15691335126E+02  0.77692379172E+03  0.88048232348E+03  0.40000000000E+03 0.  1.
   -9000005    1    1    2    0  503 -0.10673483881E+03  0.15691335126E+02 -0.92302013877E+02  0.42445047482E+03  0.40000000000E+03 0.  1.
<mgrwt>
<rscale>  2 0.41429282E+03</rscale>
<asrwt>0</asrwt>
<pdfrwt beam="1">  1       21 0.15304266E+00 0.41429282E+03</pdfrwt>
<pdfrwt beam="2">  1       21 0.47716233E-01 0.41429282E+03</pdfrwt>
<totfact> 0.10211029E+03</totfact>
</mgrwt>
</event>
<event>
 4    1  0.4857079E-002  0.4538855E+03  0.7818608E-02  0.1026570E+00
         21   -1    0    0  503  502  0.00000000000E+00  0.00000000000E+00  0.12103577638E+03  0.12103577638E+03  0.00000000000E+00 0.  1.
         21   -1    0    0  501  503 -0.00000000000E+00 -0.00000000000E+00 -0.17563872096E+04  0.17563872096E+04  0.00000000000E+00 0.  1.
    9000005    1    1    2  501    0  0.14971113587E+03  0.15361852244E+03 -0.65260605886E+03  0.79492562086E+03  0.40000000000E+03 0.  1.
   -9000005    1    1    2    0  502 -0.14971113587E+03 -0.15361852244E+03 -0.98274537436E+03  0.10824973651E+04  0.40000000000E+03 0.  1.
<mgrwt>
<rscale>  2 0.45388553E+03</rscale>
<asrwt>0</asrwt>
<pdfrwt beam="1">  1       21 0.18620891E-01 0.45388553E+03</pdfrwt>
<pdfrwt beam="2">  1       21 0.27021338E+00 0.45388553E+03</pdfrwt>
<totfact> 0.10899302E+03</totfact>
</mgrwt>
</event>
<event>
 4    1  0.4857079E-002  0.4043873E+03  0.7818608E-02  0.1042271E+00
         21   -1    0    0  503  502  0.00000000000E+00  0.00000000000E+00  0.56116093754E+03  0.56116093754E+03  0.00000000000E+00 0.  1.
         21   -1    0    0  501  503 -0.00000000000E+00 -0.00000000000E+00 -0.32661941939E+03  0.32661941939E+03  0.00000000000E+00 0.  1.
    9000005    1    1    2  501    0 -0.38863747801E+02 -0.44929546068E+02 -0.28466758993E+02  0.40538797635E+03  0.40000000000E+03 0.  1.
   -9000005    1    1    2    0  502  0.38863747801E+02  0.44929546068E+02  0.26300827714E+03  0.48239238059E+03  0.40000000000E+03 0.  1.
<mgrwt>
<rscale>  2 0.40438726E+03</rscale>
<asrwt>0</asrwt>
<pdfrwt beam="1">  1       21 0.86332452E-01 0.40438726E+03</pdfrwt>
<pdfrwt beam="2">  1       21 0.50249142E-01 0.40438726E+03</pdfrwt>
<totfact> 0.38772821E+03</totfact>
</mgrwt>
</event>
<event>
 4    1  0.4857079E-002  0.6556672E+03  0.7818608E-02  0.9796203E-01
         21   -1    0    0  503  502  0.00000000000E+00  0.00000000000E+00  0.62645663770E+03  0.62645663770E+03  0.00000000000E+00 0.  1.
         21   -1    0    0  501  503 -0.00000000000E+00 -0.00000000000E+00 -0.68790786686E+03  0.68790786686E+03  0.00000000000E+00 0.  1.
    9000005    1    1    2  501    0 -0.20858665685E+03  0.47580573933E+03 -0.63086756217E+02  0.65869525109E+03  0.40000000000E+03 0.  1.
   -9000005    1    1    2    0  502  0.20858665685E+03 -0.47580573933E+03  0.16355270575E+01  0.65566925347E+03  0.40000000000E+03 0.  1.
<mgrwt>
<rscale>  2 0.65566721E+03</rscale>
<asrwt>0</asrwt>
<pdfrwt beam="1">  1       21 0.96377945E-01 0.65566721E+03</pdfrwt>
<pdfrwt beam="2">  1       21 0.10583198E+00 0.65566721E+03</pdfrwt>
<totfact> 0.49931049E+02</totfact>
</mgrwt>
</event>
<event>
 4    1  0.4857079E-002  0.6041393E+03  0.7818608E-02  0.9896855E-01
         21   -1    0    0  501  502  0.00000000000E+00  0.00000000000E+00  0.31741565165E+04  0.31741565165E+04  0.00000000000E+00 0.  1.
         21   -1    0    0  502  503 -0.00000000000E+00 -0.00000000000E+00 -0.12081784645E+03  0.12081784645E+03  0.00000000000E+00 0. -1.
    9000005    1    1    2  501    0  0.26074971528E+03 -0.37012692277E+03  0.11647179429E+04  0.13120793571E+04  0.40000000000E+03 0. -1.
   -9000005    1    1    2    0  503 -0.26074971528E+03  0.37012692277E+03  0.18886207272E+04  0.19828950058E+04  0.40000000000E+03 0.  1.
<mgrwt>
<rscale>  2 0.60413935E+03</rscale>
<asrwt>0</asrwt>
<pdfrwt beam="1">  1       21 0.48833171E+00 0.60413935E+03</pdfrwt>
<pdfrwt beam="2">  1       21 0.18587363E-01 0.60413935E+03</pdfrwt>
<totfact> 0.40504046E+01</totfact>
</mgrwt>
</event>
<event>
 4    1  0.4857079E-002  0.4134887E+03  0.7818608E-02  0.1039207E+00
         21   -1    0    0  501  502  0.00000000000E+00  0.00000000000E+00  0.13122681995E+04  0.13122681995E+04  0.00000000000E+00 0.  1.
         21   -1    0    0  502  503 -0.00000000000E+00 -0.00000000000E+00 -0.25115401084E+03  0.25115401084E+03  0.00000000000E+00 0.  1.
    9000005    1    1    2  501    0  0.10177146036E+03 -0.24808294725E+02  0.10728428589E+04  0.11497672293E+04  0.40000000000E+03 0. -1.
   -9000005    1    1    2    0  503 -0.10177146036E+03  0.24808294725E+02 -0.11728670256E+02  0.41365498104E+03  0.40000000000E+03 0. -1.
<mgrwt>
<rscale>  2 0.41348867E+03</rscale>
<asrwt>0</asrwt>
<pdfrwt beam="1">  1       21 0.20188741E+00 0.41348867E+03</pdfrwt>
<pdfrwt beam="2">  1       21 0.38639079E-01 0.41348867E+03</pdfrwt>
<totfact> 0.71135438E+02</totfact>
</mgrwt>
</event>
<event>
 4    1  0.4857079E-002  0.4280490E+03  0.7818608E-02  0.1034478E+00
         21   -1    0    0  503  502  0.00000000000E+00  0.00000000000E+00  0.26070767031E+03  0.26070767031E+03  0.00000000000E+00 0. -1.
         21   -1    0    0  501  503 -0.00000000000E+00 -0.00000000000E+00 -0.20612472924E+04  0.20612472924E+04  0.00000000000E+00 0. -1.
    9000005    1    1    2  501    0  0.14344146813E+03 -0.51483317092E+02 -0.18427663267E+04  0.18918281427E+04  0.40000000000E+03 0. -1.
   -9000005    1    1    2    0  502 -0.14344146813E+03  0.51483317092E+02  0.42226704597E+02  0.43012682002E+03  0.40000000000E+03 0. -1.
<mgrwt>
<rscale>  2 0.42804905E+03</rscale>
<asrwt>0</asrwt>
<pdfrwt beam="1">  1       21 0.40108873E-01 0.42804905E+03</pdfrwt>
<pdfrwt beam="2">  1       21 0.31711496E+00 0.42804905E+03</pdfrwt>
<totfact> 0.12765556E+02</totfact>
</mgrwt>
</event>
<event>
 4    1  0.4857079E-002  0.4025920E+03  0.7818608E-02  0.1042886E+00
         21   -1    0    0  503  502  0.00000000000E+00  0.00000000000E+00  0.35806819568E+03  0.35806819568E+03  0.00000000000E+00 0.  1.
         21   -1    0    0  501  503 -0.00000000000E+00 -0.00000000000E+00 -0.56564969395E+03  0.56564969395E+03  0.00000000000E+00 0.  1.
    9000005    1    1    2  501    0 -0.25963493934E+02  0.37499474996E+02 -0.31021951533E+03  0.50824842482E+03  0.40000000000E+03 0.  1.
   -9000005    1    1    2    0  502  0.25963493934E+02 -0.37499474996E+02  0.10263801707E+03  0.41546946481E+03  0.40000000000E+03 0.  1.
<mgrwt>
<rscale>  2 0.40259199E+03</rscale>
<asrwt>0</asrwt>
<pdfrwt beam="1">  1       21 0.55087415E-01 0.40259199E+03</pdfrwt>
<pdfrwt beam="2">  1       21 0.87023030E-01 0.40259199E+03</pdfrwt>
<totfact> 0.31285497E+03</totfact>
</mgrwt>
</event>
<event>
 4    1  0.4857079E-002  0.5563645E+03  0.7818608E-02  0.1000031E+00
         21   -1    0    0  503  502  0.00000000000E+00  0.00000000000E+00  0.78153440594E+03  0.78153440594E+03  0.00000000000E+00 0. -1.
         21   -1    0    0  501  503 -0.00000000000E+00 -0.00000000000E+00 -0.83579086401E+03  0.83579086401E+03  0.00000000000E+00 0.  1.
    9000005    1    1    2  501    0  0.72463401610E+02 -0.37985586705E+03 -0.61368179139E+03  0.82833976446E+03  0.40000000000E+03 0.  1.
   -9000005    1    1    2    0  502 -0.72463401610E+02  0.37985586705E+03  0.55942533331E+03  0.78898550548E+03  0.40000000000E+03 0. -1.
<mgrwt>
<rscale>  2 0.55636447E+03</rscale>
<asrwt>0</asrwt>
<pdfrwt beam="1">  1       21 0.12023606E+00 0.55636447E+03</pdfrwt>
<pdfrwt beam="2">  1       21 0.12858321E+00 0.55636447E+03</pdfrwt>
<totfact> 0.18166176E+02</totfact>
</mgrwt>
</event>
<event>
 4    1  0.4857079E-002  0.4027127E+03  0.7818608E-02  0.1042844E+00
         21   -1    0    0  503  502  0.00000000000E+00  0.00000000000E+00  0.24373160859E+03  0.24373160859E+03  0.00000000000E+00 0.  1.
         21   -1    0    0  501  503 -0.00000000000E+00 -0.00000000000E+00 -0.76371006999E+03  0.76371006999E+03  0.00000000000E+00 0.  1.
    9000005    1    1    2  501    0 -0.74106921156E+01  0.46071692037E+02 -0.44072253715E+03  0.59700408200E+03  0.40000000000E+03 0.  1.
   -9000005    1    1    2    0  502  0.74106921156E+01 -0.46071692037E+02 -0.79255924243E+02  0.41043759659E+03  0.40000000000E+03 0.  1.
<mgrwt>
<rscale>  2 0.40271270E+03</rscale>
<asrwt>0</asrwt>
<pdfrwt beam="1">  1       21 0.37497171E-01 0.40271270E+03</pdfrwt>
<pdfrwt beam="2">  1       21 0.11749386E+00 0.40271270E+03</pdfrwt>
<totfact> 0.33775881E+03</totfact>
</mgrwt>
</event>
<event>
 4    1  0.4857079E-002  0.6298112E+03  0.7818608E-02  0.9845417E-01
         21   -1    0    0  503  502  0.00000000000E+00  0.00000000000E+00  0.28972431724E+03  0.28972431724E+03  0.00000000000E+00 0. -1.
         21   -1    0    0  501  503 -0.00000000000E+00 -0.00000000000E+00 -0.17341431967E+04  0.17341431967E+04  0.00000000000E+00 0.  1.
    9000005    1    1    2  501    0  0.89169653479E+02  0.47823726950E+03 -0.11864901126E+04  0.13432873484E+04  0.40000000000E+03 0.  1.
   -9000005    1    1    2    0  502 -0.89169653479E+02 -0.47823726950E+03 -0.25792876694E+03  0.68058016563E+03  0.40000000000E+03 0. -1.
<mgrwt>
<rscale>  2 0.62981117E+03</rscale>
<asrwt>0</asrwt>
<pdfrwt beam="1">  1       21 0.44572971E-01 0.62981117E+03</pdfrwt>
<pdfrwt beam="2">  1       21 0.26679127E+00 0.62981117E+03</pdfrwt>
<totfact> 0.18613339E+02</totfact>
</mgrwt>
</event>
<event>
 4    1  0.4857079E-002  0.5317025E+03  0.7818608E-02  0.1005820E+00
         21   -1    0    0  503  502  0.00000000000E+00  0.00000000000E+00  0.58320211343E+03  0.58320211343E+03  0.00000000000E+00 0.  1.
         21   -1    0    0  501  503 -0.00000000000E+00 -0.00000000000E+00 -0.52808405522E+03  0.52808405522E+03  0.00000000000E+00 0.  1.
    9000005    1    1    2  501    0  0.49342854141E+02 -0.34680378481E+03 -0.13160905061E+03  0.54774859618E+03  0.40000000000E+03 0.  1.
   -9000005    1    1    2    0  502 -0.49342854141E+02  0.34680378481E+03  0.18672710882E+03  0.56353757247E+03  0.40000000000E+03 0.  1.
<mgrwt>
<rscale>  2 0.53170253E+03</rscale>
<asrwt>0</asrwt>
<pdfrwt beam="1">  1       21 0.89723402E-01 0.53170253E+03</pdfrwt>
<pdfrwt beam="2">  1       21 0.81243700E-01 0.53170253E+03</pdfrwt>
<totfact> 0.11644284E+03</totfact>
</mgrwt>
</event>
<event>
 4    1  0.4857079E-002  0.5197899E+03  0.7818608E-02  0.1008739E+00
         21   -1    0    0  503  502  0.00000000000E+00  0.00000000000E+00  0.29924162059E+03  0.29924162059E+03  0.00000000000E+00 0. -1.
         21   -1    0    0  501  503 -0.00000000000E+00 -0.00000000000E+00 -0.92545544751E+03  0.92545544751E+03  0.00000000000E+00 0.  1.
    9000005    1    1    2  501    0 -0.33189089089E+03 -0.54794641138E+01 -0.40873043389E+03  0.66124288697E+03  0.40000000000E+03 0.  1.
   -9000005    1    1    2    0  502  0.33189089089E+03  0.54794641138E+01 -0.21748339303E+03  0.56345418113E+03  0.40000000000E+03 0. -1.
<mgrwt>
<rscale>  2 0.51978995E+03</rscale>
<asrwt>0</asrwt>
<pdfrwt beam="1">  1       21 0.46037173E-01 0.51978995E+03</pdfrwt>
<pdfrwt beam="2">  1       21 0.14237776E+00 0.51978995E+03</pdfrwt>
<totfact> 0.12826647E+03</totfact>
</mgrwt>
</event>
<event>
 4    1  0.4857079E-002  0.4942827E+03  0.7818608E-02  0.1015282E+00
         21   -1    0    0  501  502  0.00000000000E+00  0.00000000000E+00  0.79944639921E+03  0.79944639921E+03  0.00000000000E+00 0. -1.
         21   -1    0    0  502  503 -0.00000000000E+00 -0.00000000000E+00 -0.76760037279E+03  0.76760037279E+03  0.00000000000E+00 0.  1.
    9000005    1    1    2  501    0 -0.26397191608E+03  0.12097197585E+03  0.62378201154E+03  0.79587649126E+03  0.40000000000E+03 0. -1.
   -9000005    1    1    2    0  503  0.26397191608E+03 -0.12097197585E+03 -0.59193598512E+03  0.77117028074E+03  0.40000000000E+03 0.  1.
<mgrwt>
<rscale>  2 0.49428270E+03</rscale>
<asrwt>0</asrwt>
<pdfrwt beam="1">  1       21 0.12299175E+00 0.49428270E+03</pdfrwt>
<pdfrwt beam="2">  1       21 0.11809237E+00 0.49428270E+03</pdfrwt>
<totfact> 0.21911223E+02</totfact>
</mgrwt>
</event>
<event>
 4    1  0.4857079E-002  0.4741564E+03  0.7818608E-02  0.1020754E+00
         21   -1    0    0  503  502  0.00000000000E+00  0.00000000000E+00  0.15572735985E+04  0.15572735985E+04  0.00000000000E+00 0. -1.
         21   -1    0    0  501  503 -0.00000000000E+00 -0.00000000000E+00 -0.14437709760E+03  0.14437709760E+03  0.00000000000E+00 0.  1.
    9000005    1    1    2  501    0  0.13308314722E+03 -0.21705559035E+03  0.70066470048E+03  0.84602321237E+03  0.40000000000E+03 0.  1.
   -9000005    1    1    2    0  502 -0.13308314722E+03  0.21705559035E+03  0.71223180044E+03  0.85562748374E+03  0.40000000000E+03 0. -1.
<mgrwt>
<rscale>  2 0.47415636E+03</rscale>
<asrwt>0</asrwt>
<pdfrwt beam="1">  1       21 0.23958054E+00 0.47415636E+03</pdfrwt>
<pdfrwt beam="2">  1       21 0.22211862E-01 0.47415636E+03</pdfrwt>
<totfact> 0.11878969E+03</totfact>
</mgrwt>
</event>
<event>
 4    1  0.4857079E-002  0.4284220E+03  0.7818608E-02  0.1034360E+00
         21   -1    0    0  501  502  0.00000000000E+00  0.00000000000E+00  0.52141634629E+03  0.52141634629E+03  0.00000000000E+00 0. -1.
         21   -1    0    0  502  503 -0.00000000000E+00 -0.00000000000E+00 -0.88466290721E+03  0.88466290721E+03  0.00000000000E+00 0. -1.
    9000005    1    1    2  501    0 -0.15256719707E+03  0.16391314182E+02  0.36389806816E+03  0.56210962348E+03  0.40000000000E+03 0. -1.
   -9000005    1    1    2    0  503  0.15256719707E+03 -0.16391314182E+02 -0.72714462907E+03  0.84396963002E+03  0.40000000000E+03 0. -1.
<mgrwt>
<rscale>  2 0.42842202E+03</rscale>
<asrwt>0</asrwt>
<pdfrwt beam="1">  1       21 0.80217901E-01 0.42842202E+03</pdfrwt>
<pdfrwt beam="2">  1       21 0.13610198E+00 0.42842202E+03</pdfrwt>
<totfact> 0.44233999E+02</totfact>
</mgrwt>
</event>
<event>
 4    1  0.4857079E-002  0.4040054E+03  0.7818608E-02  0.1042402E+00
         21   -1    0    0  501  502  0.00000000000E+00  0.00000000000E+00  0.20623901988E+04  0.20623901988E+04  0.00000000000E+00 0.  1.
         21   -1    0    0  502  503 -0.00000000000E+00 -0.00000000000E+00 -0.79148604716E+02  0.79148604716E+02  0.00000000000E+00 0.  1.
    9000005    1    1    2  501    0 -0.37905568979E+02 -0.42232077835E+02  0.10018598881E+04  0.10802516447E+04  0.40000000000E+03 0.  1.
   -9000005    1    1    2    0  503  0.37905568979E+02  0.42232077835E+02  0.98138170596E+03  0.10612871588E+04  0.40000000000E+03 0.  1.
<mgrwt>
<rscale>  2 0.40400542E+03</rscale>
<asrwt>0</asrwt>
<pdfrwt beam="1">  1       21 0.31729076E+00 0.40400542E+03</pdfrwt>
<pdfrwt beam="2">  1       21 0.12176710E-01 0.40400542E+03</pdfrwt>
<totfact> 0.12838199E+03</totfact>
</mgrwt>
</event>
<event>
 4    1  0.4857079E-002  0.4426903E+03  0.7818608E-02  0.1029925E+00
         21   -1    0    0  501  502  0.00000000000E+00  0.00000000000E+00  0.71499189079E+03  0.71499189079E+03  0.00000000000E+00 0. -1.
         21   -1    0    0  502  503 -0.00000000000E+00 -0.00000000000E+00 -0.37833189924E+03  0.37833189924E+03  0.00000000000E+00 0. -1.
    9000005    1    1    2  501    0 -0.14108969022E+03  0.12676122854E+03  0.45527320819E+03  0.63501842796E+03  0.40000000000E+03 0. -1.
   -9000005    1    1    2    0  503  0.14108969022E+03 -0.12676122854E+03 -0.11861321664E+03  0.45830536208E+03  0.40000000000E+03 0. -1.
<mgrwt>
<rscale>  2 0.44269031E+03</rscale>
<asrwt>0</asrwt>
<pdfrwt beam="1">  1       21 0.10999875E+00 0.44269031E+03</pdfrwt>
<pdfrwt beam="2">  1       21 0.58204908E-01 0.44269031E+03</pdfrwt>
<totfact> 0.15527182E+03</totfact>
</mgrwt>
</event>
<event>
 4    1  0.4857079E-002  0.5241783E+03  0.7818608E-02  0.1007654E+00
         21   -1    0    0  503  502  0.00000000000E+00  0.00000000000E+00  0.47803078485E+03  0.47803078485E+03  0.00000000000E+00 0.  1.
         21   -1    0    0  501  503 -0.00000000000E+00 -0.00000000000E+00 -0.59263508216E+03  0.59263508216E+03  0.00000000000E+00 0. -1.
    9000005    1    1    2  501    0  0.30555189768E+03 -0.14629073614E+03 -0.15022036221E+03  0.54527891843E+03  0.40000000000E+03 0. -1.
   -9000005    1    1    2    0  502 -0.30555189768E+03  0.14629073614E+03  0.35616064896E+02  0.52538694858E+03  0.40000000000E+03 0.  1.
<mgrwt>
<rscale>  2 0.52417835E+03</rscale>
<asrwt>0</asrwt>
<pdfrwt beam="1">  1       21 0.73543198E-01 0.52417835E+03</pdfrwt>
<pdfrwt beam="2">  1       21 0.91174628E-01 0.52417835E+03</pdfrwt>
<totfact> 0.14132764E+03</totfact>
</mgrwt>
</event>
<event>
 4    1  0.4857079E-002  0.4167630E+03  0.7818608E-02  0.1038125E+00
         21   -1    0    0  501  502  0.00000000000E+00  0.00000000000E+00  0.71478562295E+03  0.71478562295E+03  0.00000000000E+00 0. -1.
         21   -1    0    0  502  503 -0.00000000000E+00 -0.00000000000E+00 -0.36404457367E+03  0.36404457367E+03  0.00000000000E+00 0. -1.
    9000005    1    1    2  501    0 -0.41201140185E+01 -0.11693754544E+03  0.48641489732E+03  0.64053947357E+03  0.40000000000E+03 0. -1.
   -9000005    1    1    2    0  503  0.41201140185E+01  0.11693754544E+03 -0.13567384804E+03  0.43829072305E+03  0.40000000000E+03 0. -1.
<mgrwt>
<rscale>  2 0.41676296E+03</rscale>
<asrwt>0</asrwt>
<pdfrwt beam="1">  1       21 0.10996702E+00 0.41676296E+03</pdfrwt>
<pdfrwt beam="2">  1       21 0.56006858E-01 0.41676296E+03</pdfrwt>
<totfact> 0.17071866E+03</totfact>
</mgrwt>
</event>
<event>
 4    1  0.4857079E-002  0.4326240E+03  0.7818608E-02  0.1033034E+00
         21   -1    0    0  501  502  0.00000000000E+00  0.00000000000E+00  0.10342897909E+03  0.10342897909E+03  0.00000000000E+00 0.  1.
         21   -1    0    0  502  503 -0.00000000000E+00 -0.00000000000E+00 -0.19005500473E+04  0.19005500473E+04  0.00000000000E+00 0.  1.
    9000005    1    1    2  501    0 -0.77145920923E+02  0.14564360267E+03 -0.11177704853E+04  0.11985718210E+04  0.40000000000E+03 0.  1.
   -9000005    1    1    2    0  503  0.77145920923E+02 -0.14564360267E+03 -0.67935058291E+03  0.80540720547E+03  0.40000000000E+03 0.  1.
<mgrwt>
<rscale>  2 0.43262403E+03</rscale>
<asrwt>0</asrwt>
<pdfrwt beam="1">  1       21 0.15912151E-01 0.43262403E+03</pdfrwt>
<pdfrwt beam="2">  1       21 0.29239230E+00 0.43262403E+03</pdfrwt>
<totfact> 0.10882599E+03</totfact>
</mgrwt>
</event>
<event>
 4    1  0.4857079E-002  0.4949031E+03  0.7818608E-02  0.1015118E+00
         21   -1    0    0  501  502  0.00000000000E+00  0.00000000000E+00  0.21768705052E+04  0.21768705052E+04  0.00000000000E+00 0.  1.
         21   -1    0    0  502  503 -0.00000000000E+00 -0.00000000000E+00 -0.22655670503E+03  0.22655670503E+03  0.00000000000E+00 0.  1.
    9000005    1    1    2  501    0 -0.23294576302E+03  0.17511533107E+03  0.18277575534E+04  0.18935751324E+04  0.40000000000E+03 0.  1.
   -9000005    1    1    2    0  503  0.23294576302E+03 -0.17511533107E+03  0.12255624669E+03  0.50985207785E+03  0.40000000000E+03 0.  1.
<mgrwt>
<rscale>  2 0.49490313E+03</rscale>
<asrwt>0</asrwt>
<pdfrwt beam="1">  1       21 0.33490314E+00 0.49490313E+03</pdfrwt>
<pdfrwt beam="2">  1       21 0.34854879E-01 0.49490313E+03</pdfrwt>
<totfact> 0.12711659E+02</totfact>
</mgrwt>
</event>
<event>
 4    1  0.4857079E-002  0.4101391E+03  0.7818608E-02  0.1040324E+00
         21   -1    0    0  503  502  0.00000000000E+00  0.00000000000E+00  0.46958569251E+03  0.46958569251E+03  0.00000000000E+00 0. -1.
         21   -1    0    0  501  503 -0.00000000000E+00 -0.00000000000E+00 -0.65316383584E+03  0.65316383584E+03  0.00000000000E+00 0. -1.
    9000005    1    1    2  501    0 -0.73091561211E+02  0.53588663373E+02 -0.46902481819E+03  0.62305569674E+03  0.40000000000E+03 0. -1.
   -9000005    1    1    2    0  502  0.73091561211E+02 -0.53588663373E+02  0.28544667486E+03  0.49969383161E+03  0.40000000000E+03 0. -1.
<mgrwt>
<rscale>  2 0.41013915E+03</rscale>
<asrwt>0</asrwt>
<pdfrwt beam="1">  1       21 0.72243953E-01 0.41013915E+03</pdfrwt>
<pdfrwt beam="2">  1       21 0.10048674E+00 0.41013915E+03</pdfrwt>
<totfact> 0.12170293E+03</totfact>
</mgrwt>
</event>
<event>
 4    1  0.4857079E-002  0.6119081E+03  0.7818608E-02  0.9881004E-01
         21   -1    0    0  501  502  0.00000000000E+00  0.00000000000E+00  0.36944681081E+03  0.36944681081E+03  0.00000000000E+00 0. -1.
         21   -1    0    0  502  503 -0.00000000000E+00 -0.00000000000E+00 -0.12894364981E+04  0.12894364981E+04  0.00000000000E+00 0. -1.
    9000005    1    1    2  501    0 -0.71913646250E+02  0.45744942284E+03 -0.76290786223E+02  0.61664562841E+03  0.40000000000E+03 0.  1.
   -9000005    1    1    2    0  503  0.71913646250E+02 -0.45744942284E+03 -0.84369890102E+03  0.10422376805E+04  0.40000000000E+03 0.  1.
<mgrwt>
<rscale>  2 0.61190812E+03</rscale>
<asrwt>0</asrwt>
<pdfrwt beam="1">  1       21 0.56837970E-01 0.61190812E+03</pdfrwt>
<pdfrwt beam="2">  1       21 0.19837485E+00 0.61190812E+03</pdfrwt>
<totfact> 0.30469767E+02</totfact>
</mgrwt>
</event>
<event>
 4    1  0.4857079E-002  0.5236327E+03  0.7818608E-02  0.1007788E+00
         21   -1    0    0  503  502  0.00000000000E+00  0.00000000000E+00  0.23936123027E+03  0.23936123027E+03  0.00000000000E+00 0. -1.
         21   -1    0    0  501  503 -0.00000000000E+00 -0.00000000000E+00 -0.23883610224E+04  0.23883610224E+04  0.00000000000E+00 0. -1.
    9000005    1    1    2  501    0  0.29611812058E+03 -0.16280451870E+03 -0.20222822024E+04  0.20889750019E+04  0.40000000000E+03 0. -1.
   -9000005    1    1    2    0  502 -0.29611812058E+03  0.16280451870E+03 -0.12671758976E+03  0.53874725075E+03  0.40000000000E+03 0. -1.
<mgrwt>
<rscale>  2 0.52363275E+03</rscale>
<asrwt>0</asrwt>
<pdfrwt beam="1">  1       21 0.36824804E-01 0.52363275E+03</pdfrwt>
<pdfrwt beam="2">  1       21 0.36744016E+00 0.52363275E+03</pdfrwt>
<totfact> 0.70381676E+01</totfact>
</mgrwt>
</event>
<event>
 4    1  0.4857079E-002  0.5657063E+03  0.7818608E-02  0.9979225E-01
         21   -1    0    0  501  502  0.00000000000E+00  0.00000000000E+00  0.84353707675E+03  0.84353707675E+03  0.00000000000E+00 0.  1.
         21   -1    0    0  502  503 -0.00000000000E+00 -0.00000000000E+00 -0.72455695144E+03  0.72455695144E+03  0.00000000000E+00 0. -1.
    9000005    1    1    2  501    0 -0.25329311097E+03  0.30962264274E+03  0.60064905917E+03  0.82510779492E+03  0.40000000000E+03 0.  1.
   -9000005    1    1    2    0  503  0.25329311097E+03 -0.30962264274E+03 -0.48166893386E+03  0.74298623326E+03  0.40000000000E+03 0. -1.
<mgrwt>
<rscale>  2 0.56570627E+03</rscale>
<asrwt>0</asrwt>
<pdfrwt beam="1">  1       21 0.12977494E+00 0.56570627E+03</pdfrwt>
<pdfrwt beam="2">  1       21 0.11147030E+00 0.56570627E+03</pdfrwt>
<totfact> 0.21388988E+02</totfact>
</mgrwt>
</event>
<event>
 4    1  0.4857079E-002  0.4797772E+03  0.7818608E-02  0.1019196E+00
         21   -1    0    0  501  502  0.00000000000E+00  0.00000000000E+00  0.37263713957E+03  0.37263713957E+03  0.00000000000E+00 0.  1.
         21   -1    0    0  502  503 -0.00000000000E+00 -0.00000000000E+00 -0.73976239986E+03  0.73976239986E+03  0.00000000000E+00 0. -1.
    9000005    1    1    2  501    0  0.29988583223E+02  0.26322396000E+03  0.42347884754E+02  0.48164251430E+03  0.40000000000E+03 0.  1.
   -9000005    1    1    2    0  503 -0.29988583223E+02 -0.26322396000E+03 -0.40947314504E+03  0.63075702513E+03  0.40000000000E+03 0. -1.
<mgrwt>
<rscale>  2 0.47977721E+03</rscale>
<asrwt>0</asrwt>
<pdfrwt beam="1">  1       21 0.57328791E-01 0.47977721E+03</pdfrwt>
<pdfrwt beam="2">  1       21 0.11380960E+00 0.47977721E+03</pdfrwt>
<totfact> 0.14534107E+03</totfact>
</mgrwt>
</event>
<event>
 4    1  0.4857079E-002  0.4639865E+03  0.7818608E-02  0.1023631E+00
         21   -1    0    0  501  502  0.00000000000E+00  0.00000000000E+00  0.14593067153E+04  0.14593067153E+04  0.00000000000E+00 0. -1.
         21   -1    0    0  502  503 -0.00000000000E+00 -0.00000000000E+00 -0.16815439007E+03  0.16815439007E+03  0.00000000000E+00 0.  1.
    9000005    1    1    2  501    0  0.89616283548E+02 -0.21737620887E+03  0.93059592093E+03  0.10398520388E+04  0.40000000000E+03 0. -1.
   -9000005    1    1    2    0  503 -0.89616283548E+02  0.21737620887E+03  0.36055640428E+03  0.58760906658E+03  0.40000000000E+03 0.  1.
<mgrwt>
<rscale>  2 0.46398652E+03</rscale>
<asrwt>0</asrwt>
<pdfrwt beam="1">  1       21 0.22450872E+00 0.46398652E+03</pdfrwt>
<pdfrwt beam="2">  1       21 0.25869907E-01 0.46398652E+03</pdfrwt>
<totfact> 0.11045463E+03</totfact>
</mgrwt>
</event>
<event>
 4    1  0.4857079E-002  0.4329986E+03  0.7818608E-02  0.1032917E+00
         21   -1    0    0  501  502  0.00000000000E+00  0.00000000000E+00  0.15826184978E+04  0.15826184978E+04  0.00000000000E+00 0.  1.
         21   -1    0    0  502  503 -0.00000000000E+00 -0.00000000000E+00 -0.17929291799E+03  0.17929291799E+03  0.00000000000E+00 0.  1.
    9000005    1    1    2  501    0  0.59865684275E+02  0.15460868865E+03  0.12147811579E+04  0.12896437525E+04  0.40000000000E+03 0.  1.
   -9000005    1    1    2    0  503 -0.59865684275E+02 -0.15460868865E+03  0.18854442192E+03  0.47226766330E+03  0.40000000000E+03 0.  1.
<mgrwt>
<rscale>  2 0.43299855E+03</rscale>
<asrwt>0</asrwt>
<pdfrwt beam="1">  1       21 0.24347976E+00 0.43299855E+03</pdfrwt>
<pdfrwt beam="2">  1       21 0.27583527E-01 0.43299855E+03</pdfrwt>
<totfact> 0.75246363E+02</totfact>
</mgrwt>
</event>
<event>
 4    1  0.4857079E-002  0.5993844E+03  0.7818608E-02  0.9906684E-01
         21   -1    0    0  501  502  0.00000000000E+00  0.00000000000E+00  0.11095917921E+04  0.11095917921E+04  0.00000000000E+00 0.  1.
         21   -1    0    0  502  503 -0.00000000000E+00 -0.00000000000E+00 -0.55627961311E+03  0.55627961311E+03  0.00000000000E+00 0. -1.
    9000005    1    1    2  501    0 -0.30721407420E+03  0.32385360075E+03  0.81514615669E+03  0.10117929130E+04  0.40000000000E+03 0. -1.
   -9000005    1    1    2    0  503  0.30721407420E+03 -0.32385360075E+03 -0.26183397767E+03  0.65407849221E+03  0.40000000000E+03 0.  1.
<mgrwt>
<rscale>  2 0.59938439E+03</rscale>
<asrwt>0</asrwt>
<pdfrwt beam="1">  1       21 0.17070643E+00 0.59938439E+03</pdfrwt>
<pdfrwt beam="2">  1       21 0.85581479E-01 0.59938439E+03</pdfrwt>
<totfact> 0.18947704E+02</totfact>
</mgrwt>
</event>
<event>
 4    1  0.4857079E-002  0.4517972E+03  0.7818608E-02  0.1027187E+00
         21   -1    0    0  501  502  0.00000000000E+00  0.00000000000E+00  0.14361030960E+03  0.14361030960E+03  0.00000000000E+00 0. -1.
         21   -1    0    0  502  503 -0.00000000000E+00 -0.00000000000E+00 -0.14343564101E+04  0.14343564101E+04  0.00000000000E+00 0. -1.
    9000005    1    1    2  501    0  0.21373156083E+02 -0.20895916852E+03 -0.72049917916E+03  0.85043507281E+03  0.40000000000E+03 0. -1.
   -9000005    1    1    2    0  503 -0.21373156083E+02  0.20895916852E+03 -0.57024692131E+03  0.72753164686E+03  0.40000000000E+03 0. -1.
<mgrwt>
<rscale>  2 0.45179724E+03</rscale>
<asrwt>0</asrwt>
<pdfrwt beam="1">  1       21 0.22093894E-01 0.45179724E+03</pdfrwt>
<pdfrwt beam="2">  1       21 0.22067022E+00 0.45179724E+03</pdfrwt>
<totfact> 0.15952413E+03</totfact>
</mgrwt>
</event>
<event>
 4    1  0.4857079E-002  0.8786926E+03  0.7818608E-02  0.9452616E-01
         21   -1    0    0  503  502  0.00000000000E+00  0.00000000000E+00  0.30507476309E+04  0.30507476309E+04  0.00000000000E+00 0.  1.
         21   -1    0    0  501  503 -0.00000000000E+00 -0.00000000000E+00 -0.28714746027E+03  0.28714746027E+03  0.00000000000E+00 0. -1.
    9000005    1    1    2  501    0  0.78236393373E+03 -0.27091886239E+01  0.80699102365E+03  0.11930361171E+04  0.40000000000E+03 0. -1.
   -9000005    1    1    2    0  502 -0.78236393373E+03  0.27091886239E+01  0.19566091470E+04  0.21448589741E+04  0.40000000000E+03 0.  1.
<mgrwt>
<rscale>  2 0.87869259E+03</rscale>
<asrwt>0</asrwt>
<pdfrwt beam="1">  1       21 0.46934577E+00 0.87869259E+03</pdfrwt>
<pdfrwt beam="2">  1       21 0.44176535E-01 0.87869259E+03</pdfrwt>
<totfact> 0.86224884E+00</totfact>
</mgrwt>
</event>
<event>
 4    1  0.4857079E-002  0.4376082E+03  0.7818608E-02  0.1031483E+00
         21   -1    0    0  503  502  0.00000000000E+00  0.00000000000E+00  0.28179203211E+04  0.28179203211E+04  0.00000000000E+00 0.  1.
         21   -1    0    0  501  503 -0.00000000000E+00 -0.00000000000E+00 -0.75231846968E+02  0.75231846968E+02  0.00000000000E+00 0.  1.
    9000005    1    1    2  501    0  0.11125646188E+03 -0.13828583416E+03  0.18211392403E+04  0.18729786717E+04  0.40000000000E+03 0. -1.
   -9000005    1    1    2    0  502 -0.11125646188E+03  0.13828583416E+03  0.92154923388E+03  0.10201734964E+04  0.40000000000E+03 0. -1.
<mgrwt>
<rscale>  2 0.43760824E+03</rscale>
<asrwt>0</asrwt>
<pdfrwt beam="1">  1       21 0.43352612E+00 0.43760824E+03</pdfrwt>
<pdfrwt beam="2">  1       21 0.11574133E-01 0.43760824E+03</pdfrwt>
<totfact> 0.25697635E+02</totfact>
</mgrwt>
</event>
<event>
 4    1  0.4857079E-002  0.5212079E+03  0.7818608E-02  0.1008387E+00
         21   -1    0    0  501  502  0.00000000000E+00  0.00000000000E+00  0.25430860836E+03  0.25430860836E+03  0.00000000000E+00 0.  1.
         21   -1    0    0  502  503 -0.00000000000E+00 -0.00000000000E+00 -0.11107991414E+04  0.11107991414E+04  0.00000000000E+00 0.  1.
    9000005    1    1    2  501    0  0.15166747582E+03  0.29774939108E+03 -0.56187834682E+03  0.76639741632E+03  0.40000000000E+03 0.  1.
   -9000005    1    1    2    0  503 -0.15166747582E+03 -0.29774939108E+03 -0.29461218623E+03  0.59871033346E+03  0.40000000000E+03 0.  1.
<mgrwt>
<rscale>  2 0.52120795E+03</rscale>
<asrwt>0</asrwt>
<pdfrwt beam="1">  1       21 0.39124401E-01 0.52120795E+03</pdfrwt>
<pdfrwt beam="2">  1       21 0.17089218E+00 0.52120795E+03</pdfrwt>
<totfact> 0.10847528E+03</totfact>
</mgrwt>
</event>
<event>
 4    1  0.4857079E-002  0.4472272E+03  0.7818608E-02  0.1028552E+00
         21   -1    0    0  501  502  0.00000000000E+00  0.00000000000E+00  0.26564438962E+03  0.26564438962E+03  0.00000000000E+00 0. -1.
         21   -1    0    0  502  503 -0.00000000000E+00 -0.00000000000E+00 -0.11546922739E+04  0.11546922739E+04  0.00000000000E+00 0.  1.
    9000005    1    1    2  501    0 -0.25613280618E+02  0.19838389655E+03 -0.25622777150E+02  0.44796064254E+03  0.40000000000E+03 0. -1.
   -9000005    1    1    2    0  503  0.25613280618E+02 -0.19838389655E+03 -0.86342510714E+03  0.97237602099E+03  0.40000000000E+03 0.  1.
<mgrwt>
<rscale>  2 0.44722725E+03</rscale>
<asrwt>0</asrwt>
<pdfrwt beam="1">  1       21 0.40868368E-01 0.44722725E+03</pdfrwt>
<pdfrwt beam="2">  1       21 0.17764496E+00 0.44722725E+03</pdfrwt>
<totfact> 0.91375867E+02</totfact>
</mgrwt>
</event>
<event>
 4    1  0.4857079E-002  0.5377353E+03  0.7818608E-02  0.1004373E+00
         21   -1    0    0  503  502  0.00000000000E+00  0.00000000000E+00  0.18804975908E+04  0.18804975908E+04  0.00000000000E+00 0. -1.
         21   -1    0    0  501  503 -0.00000000000E+00 -0.00000000000E+00 -0.19542561179E+03  0.19542561179E+03  0.00000000000E+00 0. -1.
    9000005    1    1    2  501    0 -0.29081140308E+03  0.21115858750E+03  0.36330944010E+03  0.64896299625E+03  0.40000000000E+03 0. -1.
   -9000005    1    1    2    0  502  0.29081140308E+03 -0.21115858750E+03  0.13217625389E+04  0.14269602064E+04  0.40000000000E+03 0. -1.
<mgrwt>
<rscale>  2 0.53773527E+03</rscale>
<asrwt>0</asrwt>
<pdfrwt beam="1">  1       21 0.28930731E+00 0.53773527E+03</pdfrwt>
<pdfrwt beam="2">  1       21 0.30065480E-01 0.53773527E+03</pdfrwt>
<totfact> 0.31634599E+02</totfact>
</mgrwt>
</event>
<event>
 4    1  0.4857079E-002  0.5089198E+03  0.7818608E-02  0.1011477E+00
         21   -1    0    0  503  502  0.00000000000E+00  0.00000000000E+00  0.18296661216E+04  0.18296661216E+04  0.00000000000E+00 0.  1.
         21   -1    0    0  501  503 -0.00000000000E+00 -0.00000000000E+00 -0.21726251645E+03  0.21726251645E+03  0.00000000000E+00 0. -1.
    9000005    1    1    2  501    0  0.11112488974E+03 -0.29436482341E+03  0.20204700029E+03  0.54756039001E+03  0.40000000000E+03 0. -1.
   -9000005    1    1    2    0  502 -0.11112488974E+03  0.29436482341E+03  0.14103566049E+04  0.14993682481E+04  0.40000000000E+03 0.  1.
<mgrwt>
<rscale>  2 0.50891983E+03</rscale>
<asrwt>0</asrwt>
<pdfrwt beam="1">  1       21 0.28148709E+00 0.50891983E+03</pdfrwt>
<pdfrwt beam="2">  1       21 0.33425004E-01 0.50891983E+03</pdfrwt>
<totfact> 0.28931781E+02</totfact>
</mgrwt>
</event>
<event>
 4    1  0.4857079E-002  0.4408955E+03  0.7818608E-02  0.1030472E+00
         21   -1    0    0  503  502  0.00000000000E+00  0.00000000000E+00  0.10354494080E+04  0.10354494080E+04  0.00000000000E+00 0.  1.
         21   -1    0    0  501  503 -0.00000000000E+00 -0.00000000000E+00 -0.28527858826E+03  0.28527858826E+03  0.00000000000E+00 0.  1.
    9000005    1    1    2  501    0  0.16956221933E+03  0.75083140998E+02 -0.11060016119E+02  0.44103418036E+03  0.40000000000E+03 0.  1.
   -9000005    1    1    2    0  502 -0.16956221933E+03 -0.75083140998E+02  0.76123083589E+03  0.87969381593E+03  0.40000000000E+03 0.  1.
<mgrwt>
<rscale>  2 0.44089548E+03</rscale>
<asrwt>0</asrwt>
<pdfrwt beam="1">  1       21 0.15929991E+00 0.44089548E+03</pdfrwt>
<pdfrwt beam="2">  1       21 0.43889014E-01 0.44089548E+03</pdfrwt>
<totfact> 0.10766918E+03</totfact>
</mgrwt>
</event>
<event>
 4    1  0.4857079E-002  0.4030624E+03  0.7818608E-02  0.1042724E+00
         21   -1    0    0  501  502  0.00000000000E+00  0.00000000000E+00  0.43054868575E+03  0.43054868575E+03  0.00000000000E+00 0. -1.
         21   -1    0    0  502  503 -0.00000000000E+00 -0.00000000000E+00 -0.49307401831E+03  0.49307401831E+03  0.00000000000E+00 0. -1.
    9000005    1    1    2  501    0  0.48297203075E+02  0.11256240373E+02  0.19248377459E+03  0.44666466869E+03  0.40000000000E+03 0. -1.
   -9000005    1    1    2    0  503 -0.48297203075E+02 -0.11256240373E+02 -0.25500910716E+03  0.47695803537E+03  0.40000000000E+03 0. -1.
<mgrwt>
<rscale>  2 0.40306243E+03</rscale>
<asrwt>0</asrwt>
<pdfrwt beam="1">  1       21 0.66238259E-01 0.40306243E+03</pdfrwt>
<pdfrwt beam="2">  1       21 0.75857541E-01 0.40306243E+03</pdfrwt>
<totfact> 0.28701118E+03</totfact>
</mgrwt>
</event>
<event>
 4    1  0.4857079E-002  0.6285613E+03  0.7818608E-02  0.9847860E-01
         21   -1    0    0  501  502  0.00000000000E+00  0.00000000000E+00  0.40688670760E+03  0.40688670760E+03  0.00000000000E+00 0. -1.
         21   -1    0    0  502  503 -0.00000000000E+00 -0.00000000000E+00 -0.10831114385E+04  0.10831114385E+04  0.00000000000E+00 0. -1.
    9000005    1    1    2  501    0  0.32205840947E+02 -0.48378931509E+03 -0.98431668863E+02  0.63622174674E+03  0.40000000000E+03 0.  1.
   -9000005    1    1    2    0  503 -0.32205840947E+02  0.48378931509E+03 -0.57779306207E+03  0.85377639940E+03  0.40000000000E+03 0.  1.
<mgrwt>
<rscale>  2 0.62856131E+03</rscale>
<asrwt>0</asrwt>
<pdfrwt beam="1">  1       21 0.62597955E-01 0.62856131E+03</pdfrwt>
<pdfrwt beam="2">  1       21 0.16663253E+00 0.62856131E+03</pdfrwt>
<totfact> 0.41117000E+02</totfact>
</mgrwt>
</event>
<event>
 4    1  0.4857079E-002  0.4138830E+03  0.7818608E-02  0.1039076E+00
         21   -1    0    0  503  502  0.00000000000E+00  0.00000000000E+00  0.42646872898E+03  0.42646872898E+03  0.00000000000E+00 0.  1.
         21   -1    0    0  501  503 -0.00000000000E+00 -0.00000000000E+00 -0.55268703362E+03  0.55268703362E+03  0.00000000000E+00 0.  1.
    9000005    1    1    2  501    0  0.79640815895E+02 -0.70402132179E+02 -0.31902492635E+03  0.52256676454E+03  0.40000000000E+03 0.  1.
   -9000005    1    1    2    0  502 -0.79640815895E+02  0.70402132179E+02  0.19280662171E+03  0.45658899806E+03  0.40000000000E+03 0.  1.
<mgrwt>
<rscale>  2 0.41388298E+03</rscale>
<asrwt>0</asrwt>
<pdfrwt beam="1">  1       21 0.65610574E-01 0.41388298E+03</pdfrwt>
<pdfrwt beam="2">  1       21 0.85028774E-01 0.41388298E+03</pdfrwt>
<totfact> 0.22430577E+03</totfact>
</mgrwt>
</event>
<event>
 4    1  0.4857079E-002  0.5195080E+03  0.7818608E-02  0.1008809E+00
         21   -1    0    0  501  502  0.00000000000E+00  0.00000000000E+00  0.52358286825E+03  0.52358286825E+03  0.00000000000E+00 0.  1.
         21   -1    0    0  502  503 -0.00000000000E+00 -0.00000000000E+00 -0.55979314327E+03  0.55979314327E+03  0.00000000000E+00 0.  1.
    9000005    1    1    2  501    0 -0.45834002300E+02  0.32831053826E+03  0.13432678643E+03  0.53659318935E+03  0.40000000000E+03 0.  1.
   -9000005    1    1    2    0  503  0.45834002300E+02 -0.32831053826E+03 -0.17053706145E+03  0.54678282218E+03  0.40000000000E+03 0.  1.
<mgrwt>
<rscale>  2 0.51950800E+03</rscale>
<asrwt>0</asrwt>
<pdfrwt beam="1">  1       21 0.80551211E-01 0.51950800E+03</pdfrwt>
<pdfrwt beam="2">  1       21 0.86122022E-01 0.51950800E+03</pdfrwt>
<totfact> 0.13140887E+03</totfact>
</mgrwt>
</event>
<event>
 4    1  0.4857079E-002  0.4448377E+03  0.7818608E-02  0.1029273E+00
         21   -1    0    0  501  502  0.00000000000E+00  0.00000000000E+00  0.17255153889E+03  0.17255153889E+03  0.00000000000E+00 0.  1.
         21   -1    0    0  502  503 -0.00000000000E+00 -0.00000000000E+00 -0.12760597136E+04  0.12760597136E+04  0.00000000000E+00 0.  1.
    9000005    1    1    2  501    0  0.45354230430E+02 -0.18927107500E+03 -0.78228710199E+03  0.89991869410E+03  0.40000000000E+03 0.  1.
   -9000005    1    1    2    0  503 -0.45354230430E+02  0.18927107500E+03 -0.32122107268E+03  0.54869255835E+03  0.40000000000E+03 0.  1.
<mgrwt>
<rscale>  2 0.44483766E+03</rscale>
<asrwt>0</asrwt>
<pdfrwt beam="1">  1       21 0.26546392E-01 0.44483766E+03</pdfrwt>
<pdfrwt beam="2">  1       21 0.19631687E+00 0.44483766E+03</pdfrwt>
<totfact> 0.16179403E+03</totfact>
</mgrwt>
</event>
<event>
 4    1  0.4857079E-002  0.4466348E+03  0.7818608E-02  0.1028730E+00
         21   -1    0    0  501  502  0.00000000000E+00  0.00000000000E+00  0.10309957448E+03  0.10309957448E+03  0.00000000000E+00 0.  1.
         21   -1    0    0  502  503 -0.00000000000E+00 -0.00000000000E+00 -0.24562209841E+04  0.24562209841E+04  0.00000000000E+00 0.  1.
    9000005    1    1    2  501    0 -0.12323510997E+03 -0.15587091605E+03 -0.58699435114E+03  0.73759406388E+03  0.40000000000E+03 0.  1.
   -9000005    1    1    2    0  503  0.12323510997E+03  0.15587091605E+03 -0.17661270585E+04  0.18217264947E+04  0.40000000000E+03 0.  1.
<mgrwt>
<rscale>  2 0.44663479E+03</rscale>
<asrwt>0</asrwt>
<pdfrwt beam="1">  1       21 0.15861474E-01 0.44663479E+03</pdfrwt>
<pdfrwt beam="2">  1       21 0.37788013E+00 0.44663479E+03</pdfrwt>
<totfact> 0.32706381E+02</totfact>
</mgrwt>
</event>
<event>
 4    1  0.4857079E-002  0.4517612E+03  0.7818608E-02  0.1027198E+00
         21   -1    0    0  501  502  0.00000000000E+00  0.00000000000E+00  0.51090205822E+03  0.51090205822E+03  0.00000000000E+00 0.  1.
         21   -1    0    0  502  503 -0.00000000000E+00 -0.00000000000E+00 -0.49475383518E+03  0.49475383518E+03  0.00000000000E+00 0.  1.
    9000005    1    1    2  501    0  0.67009412825E+02  0.19899229260E+03  0.22874380664E+03  0.50637132916E+03  0.40000000000E+03 0.  1.
   -9000005    1    1    2    0  503 -0.67009412825E+02 -0.19899229260E+03 -0.21259558360E+03  0.49928456424E+03  0.40000000000E+03 0.  1.
<mgrwt>
<rscale>  2 0.45176121E+03</rscale>
<asrwt>0</asrwt>
<pdfrwt beam="1">  1       21 0.78600316E-01 0.45176121E+03</pdfrwt>
<pdfrwt beam="2">  1       21 0.76115975E-01 0.45176121E+03</pdfrwt>
<totfact> 0.18976953E+03</totfact>
</mgrwt>
</event>
<event>
 4    1  0.4857079E-002  0.4604026E+03  0.7818608E-02  0.1024665E+00
         21   -1    0    0  501  502  0.00000000000E+00  0.00000000000E+00  0.73017942748E+02  0.73017942748E+02  0.00000000000E+00 0.  1.
         21   -1    0    0  502  503 -0.00000000000E+00 -0.00000000000E+00 -0.30024772869E+04  0.30024772869E+04  0.00000000000E+00 0.  1.
    9000005    1    1    2  501    0 -0.12121278776E+03  0.19307506068E+03 -0.17446433800E+04  0.18043699849E+04  0.40000000000E+03 0.  1.
   -9000005    1    1    2    0  503  0.12121278776E+03 -0.19307506068E+03 -0.11848159642E+04  0.12711252448E+04  0.40000000000E+03 0.  1.
<mgrwt>
<rscale>  2 0.46040256E+03</rscale>
<asrwt>0</asrwt>
<pdfrwt beam="1">  1       21 0.11233532E-01 0.46040256E+03</pdfrwt>
<pdfrwt beam="2">  1       21 0.46191948E+00 0.46040256E+03</pdfrwt>
<totfact> 0.17178145E+02</totfact>
</mgrwt>
</event>
<event>
 4    1  0.4857079E-002  0.4293682E+03  0.7818608E-02  0.1034060E+00
         21   -1    0    0  503  502  0.00000000000E+00  0.00000000000E+00  0.12055693819E+03  0.12055693819E+03  0.00000000000E+00 0. -1.
         21   -1    0    0  501  503 -0.00000000000E+00 -0.00000000000E+00 -0.15295077639E+04  0.15295077639E+04  0.00000000000E+00 0.  1.
    9000005    1    1    2  501    0 -0.11692333264E+03  0.10337318933E+03 -0.71595372993E+03  0.83483341176E+03  0.40000000000E+03 0. -1.
   -9000005    1    1    2    0  502  0.11692333264E+03 -0.10337318933E+03 -0.69299709578E+03  0.81523129034E+03  0.40000000000E+03 0. -1.
<mgrwt>
<rscale>  2 0.42936824E+03</rscale>
<asrwt>0</asrwt>
<pdfrwt beam="1">  1       21 0.18547221E-01 0.42936824E+03</pdfrwt>
<pdfrwt beam="2">  1       21 0.23530889E+00 0.42936824E+03</pdfrwt>
<totfact> 0.18188390E+03</totfact>
</mgrwt>
</event>
<event>
 4    1  0.4857079E-002  0.5210556E+03  0.7818608E-02  0.1008425E+00
         21   -1    0    0  501  502  0.00000000000E+00  0.00000000000E+00  0.29167160873E+03  0.29167160873E+03  0.00000000000E+00 0.  1.
         21   -1    0    0  502  503 -0.00000000000E+00 -0.00000000000E+00 -0.12494785103E+04  0.12494785103E+04  0.00000000000E+00 0.  1.
    9000005    1    1    2  501    0  0.24095075586E+02 -0.33304405785E+03 -0.89767567138E+02  0.52873162687E+03  0.40000000000E+03 0.  1.
   -9000005    1    1    2    0  503 -0.24095075586E+02  0.33304405785E+03 -0.86803933443E+03  0.10124184922E+04  0.40000000000E+03 0.  1.
<mgrwt>
<rscale>  2 0.52105558E+03</rscale>
<asrwt>0</asrwt>
<pdfrwt beam="1">  1       21 0.44872555E-01 0.52105558E+03</pdfrwt>
<pdfrwt beam="2">  1       21 0.19222746E+00 0.52105558E+03</pdfrwt>
<totfact> 0.57665759E+02</totfact>
</mgrwt>
</event>
<event>
 4    1  0.4857079E-002  0.4437721E+03  0.7818608E-02  0.1029596E+00
         21   -1    0    0  503  502  0.00000000000E+00  0.00000000000E+00  0.21430690647E+03  0.21430690647E+03  0.00000000000E+00 0. -1.
         21   -1    0    0  501  503 -0.00000000000E+00 -0.00000000000E+00 -0.12524088937E+04  0.12524088937E+04  0.00000000000E+00 0. -1.
    9000005    1    1    2  501    0 -0.72173607707E+02 -0.17811407408E+03 -0.89747199756E+03  0.10011941068E+04  0.40000000000E+03 0. -1.
   -9000005    1    1    2    0  502  0.72173607707E+02  0.17811407408E+03 -0.14062998967E+03  0.46552169340E+03  0.40000000000E+03 0. -1.
<mgrwt>
<rscale>  2 0.44377207E+03</rscale>
<asrwt>0</asrwt>
<pdfrwt beam="1">  1       21 0.32970294E-01 0.44377207E+03</pdfrwt>
<pdfrwt beam="2">  1       21 0.19267829E+00 0.44377207E+03</pdfrwt>
<totfact> 0.11146105E+03</totfact>
</mgrwt>
</event>
<event>
 4    1  0.4857079E-002  0.4870352E+03  0.7818608E-02  0.1017219E+00
         21   -1    0    0  501  502  0.00000000000E+00  0.00000000000E+00  0.48921627557E+03  0.48921627557E+03  0.00000000000E+00 0. -1.
         21   -1    0    0  502  503 -0.00000000000E+00 -0.00000000000E+00 -0.84133643721E+03  0.84133643721E+03  0.00000000000E+00 0. -1.
    9000005    1    1    2  501    0  0.21680084534E+03 -0.17378353752E+03 -0.60910232258E+03  0.77987753130E+03  0.40000000000E+03 0. -1.
   -9000005    1    1    2    0  503 -0.21680084534E+03  0.17378353752E+03  0.25698216094E+03  0.55067518148E+03  0.40000000000E+03 0. -1.
<mgrwt>
<rscale>  2 0.48703524E+03</rscale>
<asrwt>0</asrwt>
<pdfrwt beam="1">  1       21 0.75264042E-01 0.48703524E+03</pdfrwt>
<pdfrwt beam="2">  1       21 0.12943638E+00 0.48703524E+03</pdfrwt>
<totfact> 0.56855302E+02</totfact>
</mgrwt>
</event>
<event>
 4    1  0.4857079E-002  0.4543765E+03  0.7818608E-02  0.1026425E+00
         21   -1    0    0  503  502  0.00000000000E+00  0.00000000000E+00  0.29813950331E+03  0.29813950331E+03  0.00000000000E+00 0. -1.
         21   -1    0    0  501  503 -0.00000000000E+00 -0.00000000000E+00 -0.16539318961E+04  0.16539318961E+04  0.00000000000E+00 0. -1.
    9000005    1    1    2  501    0  0.21554082469E+03  0.39691889877E+00 -0.14220605839E+04  0.14928879090E+04  0.40000000000E+03 0. -1.
   -9000005    1    1    2    0  502 -0.21554082469E+03 -0.39691889877E+00  0.66268191130E+02  0.45918349035E+03  0.40000000000E+03 0. -1.
<mgrwt>
<rscale>  2 0.45437650E+03</rscale>
<asrwt>0</asrwt>
<pdfrwt beam="1">  1       21 0.45867617E-01 0.45437650E+03</pdfrwt>
<pdfrwt beam="2">  1       21 0.25445106E+00 0.45437650E+03</pdfrwt>
<totfact> 0.22684975E+02</totfact>
</mgrwt>
</event>
<event>
 4    1  0.4857079E-002  0.4328127E+03  0.7818608E-02  0.1032975E+00
         21   -1    0    0  501  502  0.00000000000E+00  0.00000000000E+00  0.97658392168E+03  0.97658392168E+03  0.00000000000E+00 0. -1.
         21   -1    0    0  502  503 -0.00000000000E+00 -0.00000000000E+00 -0.73079646899E+03  0.73079646899E+03  0.00000000000E+00 0. -1.
    9000005    1    1    2  501    0 -0.27152930522E+02  0.16306294534E+03  0.85603488877E+03  0.95923017914E+03  0.40000000000E+03 0. -1.
   -9000005    1    1    2    0  503  0.27152930522E+02 -0.16306294534E+03 -0.61024743607E+03  0.74815021153E+03  0.40000000000E+03 0. -1.
<mgrwt>
<rscale>  2 0.43281267E+03</rscale>
<asrwt>0</asrwt>
<pdfrwt beam="1">  1       21 0.15024368E+00 0.43281267E+03</pdfrwt>
<pdfrwt beam="2">  1       21 0.11243023E+00 0.43281267E+03</pdfrwt>
<totfact> 0.15079750E+02</totfact>
</mgrwt>
</event>
<event>
 4    1  0.4857079E-002  0.5670544E+03  0.7818608E-02  0.9976218E-01
         21   -1    0    0  503  502  0.00000000000E+00  0.00000000000E+00  0.46105946162E+03  0.46105946162E+03  0.00000000000E+00 0. -1.
         21   -1    0    0  501  503 -0.00000000000E+00 -0.00000000000E+00 -0.72630390065E+03  0.72630390065E+03  0.00000000000E+00 0.  1.
    9000005    1    1    2  501    0  0.13019479404E+03 -0.38026314626E+03 -0.25102020424E+03  0.62013054089E+03  0.40000000000E+03 0.  1.
   -9000005    1    1    2    0  502 -0.13019479404E+03  0.38026314626E+03 -0.14224234781E+02  0.56723282138E+03  0.40000000000E+03 0. -1.
<mgrwt>
<rscale>  2 0.56705445E+03</rscale>
<asrwt>0</asrwt>
<pdfrwt beam="1">  1       21 0.70932225E-01 0.56705445E+03</pdfrwt>
<pdfrwt beam="2">  1       21 0.11173906E+00 0.56705445E+03</pdfrwt>
<totfact> 0.91971620E+02</totfact>
</mgrwt>
</event>
<event>
 4    1  0.4857079E-002  0.4857841E+03  0.7818608E-02  0.1017558E+00
         21   -1    0    0  503  502  0.00000000000E+00  0.00000000000E+00  0.25008657005E+03  0.25008657005E+03  0.00000000000E+00 0.  1.
         21   -1    0    0  501  503 -0.00000000000E+00 -0.00000000000E+00 -0.12041691584E+04  0.12041691584E+04  0.00000000000E+00 0.  1.
    9000005    1    1    2  501    0 -0.26521455552E+03 -0.75149138914E+02 -0.81527248929E+03  0.94902865359E+03  0.40000000000E+03 0.  1.
   -9000005    1    1    2    0  502  0.26521455552E+03  0.75149138914E+02 -0.13881009903E+03  0.50522707482E+03  0.40000000000E+03 0.  1.
<mgrwt>
<rscale>  2 0.48578406E+03</rscale>
<asrwt>0</asrwt>
<pdfrwt beam="1">  1       21 0.38474857E-01 0.48578406E+03</pdfrwt>
<pdfrwt beam="2">  1       21 0.18525679E+00 0.48578406E+03</pdfrwt>
<totfact> 0.89943607E+02</totfact>
</mgrwt>
</event>
<event>
 4    1  0.4857079E-002  0.5243341E+03  0.7818608E-02  0.1007616E+00
         21   -1    0    0  501  502  0.00000000000E+00  0.00000000000E+00  0.70598989946E+03  0.70598989946E+03  0.00000000000E+00 0. -1.
         21   -1    0    0  502  503 -0.00000000000E+00 -0.00000000000E+00 -0.50894994106E+03  0.50894994106E+03  0.00000000000E+00 0. -1.
    9000005    1    1    2  501    0  0.28006919453E+02  0.33784883066E+03 -0.19587238429E+03  0.55972512079E+03  0.40000000000E+03 0. -1.
   -9000005    1    1    2    0  503 -0.28006919453E+02 -0.33784883066E+03  0.39291234269E+03  0.65521471973E+03  0.40000000000E+03 0. -1.
<mgrwt>
<rscale>  2 0.52433407E+03</rscale>
<asrwt>0</asrwt>
<pdfrwt beam="1">  1       21 0.10861383E+00 0.52433407E+03</pdfrwt>
<pdfrwt beam="2">  1       21 0.78299991E-01 0.52433407E+03</pdfrwt>
<totfact> 0.79897466E+02</totfact>
</mgrwt>
</event>
<event>
 4    1  0.4857079E-002  0.4494197E+03  0.7818608E-02  0.1027895E+00
         21   -1    0    0  503  502  0.00000000000E+00  0.00000000000E+00  0.67735990463E+03  0.67735990463E+03  0.00000000000E+00 0. -1.
         21   -1    0    0  501  503 -0.00000000000E+00 -0.00000000000E+00 -0.91460239051E+03  0.91460239051E+03  0.00000000000E+00 0. -1.
    9000005    1    1    2  501    0 -0.97236214814E+01 -0.20465454754E+03 -0.77208925451E+03  0.89336434313E+03  0.40000000000E+03 0. -1.
   -9000005    1    1    2    0  502  0.97236214814E+01  0.20465454754E+03  0.53484676863E+03  0.69859795201E+03  0.40000000000E+03 0. -1.
<mgrwt>
<rscale>  2 0.44941966E+03</rscale>
<asrwt>0</asrwt>
<pdfrwt beam="1">  1       21 0.10420922E+00 0.44941966E+03</pdfrwt>
<pdfrwt beam="2">  1       21 0.14070806E+00 0.44941966E+03</pdfrwt>
<totfact> 0.21513595E+02</totfact>
</mgrwt>
</event>
<event>
 4    1  0.4857079E-002  0.5483016E+03  0.7818608E-02  0.1001888E+00
         21   -1    0    0  501  502  0.00000000000E+00  0.00000000000E+00  0.87444286104E+03  0.87444286104E+03  0.00000000000E+00 0. -1.
         21   -1    0    0  502  503 -0.00000000000E+00 -0.00000000000E+00 -0.43656744710E+03  0.43656744710E+03  0.00000000000E+00 0.  1.
    9000005    1    1    2  501    0  0.25737978650E+03  0.27274582265E+03  0.52110334343E+03  0.75642800900E+03  0.40000000000E+03 0.  1.
   -9000005    1    1    2    0  503 -0.25737978650E+03 -0.27274582265E+03 -0.83227929499E+02  0.55458229914E+03  0.40000000000E+03 0. -1.
<mgrwt>
<rscale>  2 0.54830159E+03</rscale>
<asrwt>0</asrwt>
<pdfrwt beam="1">  1       21 0.13452967E+00 0.54830159E+03</pdfrwt>
<pdfrwt beam="2">  1       21 0.67164223E-01 0.54830159E+03</pdfrwt>
<totfact> 0.64986275E+02</totfact>
</mgrwt>
</event>
<event>
 4    1  0.4857079E-002  0.4622844E+03  0.7818608E-02  0.1024121E+00
         21   -1    0    0  503  502  0.00000000000E+00  0.00000000000E+00  0.43091832611E+03  0.43091832611E+03  0.00000000000E+00 0. -1.
         21   -1    0    0  501  503 -0.00000000000E+00 -0.00000000000E+00 -0.61388017836E+03  0.61388017836E+03  0.00000000000E+00 0. -1.
    9000005    1    1    2  501    0 -0.16773677292E+03 -0.15991001599E+03 -0.32046410453E+03  0.56249807155E+03  0.40000000000E+03 0. -1.
   -9000005    1    1    2    0  502  0.16773677292E+03  0.15991001599E+03  0.13750225229E+03  0.48230043291E+03  0.40000000000E+03 0. -1.
<mgrwt>
<rscale>  2 0.46228437E+03</rscale>
<asrwt>0</asrwt>
<pdfrwt beam="1">  1       21 0.66295127E-01 0.46228437E+03</pdfrwt>
<pdfrwt beam="2">  1       21 0.94443105E-01 0.46228437E+03</pdfrwt>
<totfact> 0.16780819E+03</totfact>
</mgrwt>
</event>
<event>
 4    1  0.4857079E-002  0.4536941E+03  0.7818608E-02  0.1026626E+00
         21   -1    0    0  503  502  0.00000000000E+00  0.00000000000E+00  0.15805560932E+04  0.15805560932E+04  0.00000000000E+00 0.  1.
         21   -1    0    0  501  503 -0.00000000000E+00 -0.00000000000E+00 -0.41794233999E+03  0.41794233999E+03  0.00000000000E+00 0.  1.
    9000005    1    1    2  501    0  0.19644922019E+03  0.85123465553E+02  0.14103816323E+04  0.14815581829E+04  0.40000000000E+03 0.  1.
   -9000005    1    1    2    0  502 -0.19644922019E+03 -0.85123465553E+02 -0.24776787909E+03  0.51694025033E+03  0.40000000000E+03 0.  1.
<mgrwt>
<rscale>  2 0.45369406E+03</rscale>
<asrwt>0</asrwt>
<pdfrwt beam="1">  1       21 0.24316247E+00 0.45369406E+03</pdfrwt>
<pdfrwt beam="2">  1       21 0.64298822E-01 0.45369406E+03</pdfrwt>
<totfact> 0.12851784E+02</totfact>
</mgrwt>
</event>
<event>
 4    1  0.4857079E-002  0.4161373E+03  0.7818608E-02  0.1038331E+00
         21   -1    0    0  501  502  0.00000000000E+00  0.00000000000E+00  0.55389710908E+03  0.55389710908E+03  0.00000000000E+00 0.  1.
         21   -1    0    0  502  503 -0.00000000000E+00 -0.00000000000E+00 -0.41289187842E+03  0.41289187842E+03  0.00000000000E+00 0.  1.
    9000005    1    1    2  501    0  0.69170338936E+02  0.91573410023E+02  0.30869640892E+03  0.51813482617E+03  0.40000000000E+03 0.  1.
   -9000005    1    1    2    0  503 -0.69170338936E+02 -0.91573410023E+02 -0.16769117827E+03  0.44865416133E+03  0.40000000000E+03 0.  1.
<mgrwt>
<rscale>  2 0.41613727E+03</rscale>
<asrwt>0</asrwt>
<pdfrwt beam="1">  1       21 0.85214940E-01 0.41613727E+03</pdfrwt>
<pdfrwt beam="2">  1       21 0.63521828E-01 0.41613727E+03</pdfrwt>
<totfact> 0.23953165E+03</totfact>
</mgrwt>
</event>
<event>
 4    1  0.4857079E-002  0.4047296E+03  0.7818608E-02  0.1042154E+00
         21   -1    0    0  503  502  0.00000000000E+00  0.00000000000E+00  0.17633871946E+03  0.17633871946E+03  0.00000000000E+00 0.  1.
         21   -1    0    0  501  503 -0.00000000000E+00 -0.00000000000E+00 -0.93839793197E+03  0.93839793197E+03  0.00000000000E+00 0.  1.
    9000005    1    1    2  501    0 -0.18195780492E+02 -0.58948840669E+02 -0.43701980613E+03  0.59564449397E+03  0.40000000000E+03 0.  1.
   -9000005    1    1    2    0  502  0.18195780492E+02  0.58948840669E+02 -0.32503940638E+03  0.51909215746E+03  0.40000000000E+03 0.  1.
<mgrwt>
<rscale>  2 0.40472960E+03</rscale>
<asrwt>0</asrwt>
<pdfrwt beam="1">  1       21 0.27129034E-01 0.40472960E+03</pdfrwt>
<pdfrwt beam="2">  1       21 0.14436891E+00 0.40472960E+03</pdfrwt>
<totfact> 0.37759965E+03</totfact>
</mgrwt>
</event>
<event>
 4    1  0.4857079E-002  0.4722537E+03  0.7818608E-02  0.1021286E+00
         21   -1    0    0  501  502  0.00000000000E+00  0.00000000000E+00  0.23176276798E+03  0.23176276798E+03  0.00000000000E+00 0.  1.
         21   -1    0    0  502  503 -0.00000000000E+00 -0.00000000000E+00 -0.11483448879E+04  0.11483448879E+04  0.00000000000E+00 0.  1.
    9000005    1    1    2  501    0  0.12759973415E+03 -0.21619876235E+03 -0.18053451323E+03  0.50558511397E+03  0.40000000000E+03 0.  1.
   -9000005    1    1    2    0  503 -0.12759973415E+03  0.21619876235E+03 -0.73604760667E+03  0.87452254190E+03  0.40000000000E+03 0.  1.
<mgrwt>
<rscale>  2 0.47225374E+03</rscale>
<asrwt>0</asrwt>
<pdfrwt beam="1">  1       21 0.35655811E-01 0.47225374E+03</pdfrwt>
<pdfrwt beam="2">  1       21 0.17666844E+00 0.47225374E+03</pdfrwt>
<totfact> 0.12145434E+03</totfact>
</mgrwt>
</event>
<event>
 4    1  0.4857079E-002  0.5569043E+03  0.7818608E-02  0.9999084E-01
         21   -1    0    0  501  502  0.00000000000E+00  0.00000000000E+00  0.89900043901E+03  0.89900043901E+03  0.00000000000E+00 0. -1.
         21   -1    0    0  502  503 -0.00000000000E+00 -0.00000000000E+00 -0.35327488213E+03  0.35327488213E+03  0.00000000000E+00 0.  1.
    9000005    1    1    2  501    0 -0.89251804345E+02  0.37706301097E+03  0.17695225000E+03  0.58434107985E+03  0.40000000000E+03 0. -1.
   -9000005    1    1    2    0  503  0.89251804345E+02 -0.37706301097E+03  0.36877330688E+03  0.66793424129E+03  0.40000000000E+03 0. -1.
<mgrwt>
<rscale>  2 0.55690430E+03</rscale>
<asrwt>0</asrwt>
<pdfrwt beam="1">  1       21 0.13830776E+00 0.55690430E+03</pdfrwt>
<pdfrwt beam="2">  1       21 0.54349982E-01 0.55690430E+03</pdfrwt>
<totfact> 0.96011676E+02</totfact>
</mgrwt>
</event>
<event>
 4    1  0.4857079E-002  0.4142681E+03  0.7818608E-02  0.1038948E+00
         21   -1    0    0  501  502  0.00000000000E+00  0.00000000000E+00  0.29080156918E+03  0.29080156918E+03  0.00000000000E+00 0.  1.
         21   -1    0    0  502  503 -0.00000000000E+00 -0.00000000000E+00 -0.88762876651E+03  0.88762876651E+03  0.00000000000E+00 0.  1.
    9000005    1    1    2  501    0 -0.48247497467E+02  0.96385911634E+02  0.42686941466E+02  0.41646157079E+03  0.40000000000E+03 0.  1.
   -9000005    1    1    2    0  503  0.48247497467E+02 -0.96385911634E+02 -0.63951413879E+03  0.76196876490E+03  0.40000000000E+03 0.  1.
<mgrwt>
<rscale>  2 0.41426811E+03</rscale>
<asrwt>0</asrwt>
<pdfrwt beam="1">  1       21 0.44738703E-01 0.41426811E+03</pdfrwt>
<pdfrwt beam="2">  1       21 0.13655827E+00 0.41426811E+03</pdfrwt>
<totfact> 0.15864125E+03</totfact>
</mgrwt>
</event>
<event>
 4    1  0.4857079E-002  0.5125703E+03  0.7818608E-02  0.1010549E+00
         21   -1    0    0  501  502  0.00000000000E+00  0.00000000000E+00  0.60167422069E+03  0.60167422069E+03  0.00000000000E+00 0. -1.
         21   -1    0    0  502  503 -0.00000000000E+00 -0.00000000000E+00 -0.44080401739E+03  0.44080401739E+03  0.00000000000E+00 0. -1.
    9000005    1    1    2  501    0 -0.26383823470E+02  0.31942476388E+03  0.13096153889E+03  0.52903611464E+03  0.40000000000E+03 0. -1.
   -9000005    1    1    2    0  503  0.26383823470E+02 -0.31942476388E+03  0.29908664408E+02  0.51344212344E+03  0.40000000000E+03 0. -1.
<mgrwt>
<rscale>  2 0.51257027E+03</rscale>
<asrwt>0</asrwt>
<pdfrwt beam="1">  1       21 0.92565265E-01 0.51257027E+03</pdfrwt>
<pdfrwt beam="2">  1       21 0.67816003E-01 0.51257027E+03</pdfrwt>
<totfact> 0.16439432E+03</totfact>
</mgrwt>
</event>
<event>
 4    1  0.4857079E-002  0.4067647E+03  0.7818608E-02  0.1041462E+00
         21   -1    0    0  503  502  0.00000000000E+00  0.00000000000E+00  0.15739340524E+04  0.15739340524E+04  0.00000000000E+00 0.  1.
         21   -1    0    0  501  503 -0.00000000000E+00 -0.00000000000E+00 -0.14553005927E+03  0.14553005927E+03  0.00000000000E+00 0.  1.
    9000005    1    1    2  501    0  0.37567809772E+02  0.63609334662E+02  0.26118698342E+03  0.48340058760E+03  0.40000000000E+03 0. -1.
   -9000005    1    1    2    0  502 -0.37567809772E+02 -0.63609334662E+02  0.11672170097E+04  0.12360635241E+04  0.40000000000E+03 0. -1.
<mgrwt>
<rscale>  2 0.40676466E+03</rscale>
<asrwt>0</asrwt>
<pdfrwt beam="1">  1       21 0.24214369E+00 0.40676466E+03</pdfrwt>
<pdfrwt beam="2">  1       21 0.22389241E-01 0.40676466E+03</pdfrwt>
<totfact> 0.11660651E+03</totfact>
</mgrwt>
</event>
<event>
 4    1  0.4857079E-002  0.5401254E+03  0.7818608E-02  0.1003806E+00
         21   -1    0    0  501  502  0.00000000000E+00  0.00000000000E+00  0.10579739132E+04  0.10579739132E+04  0.00000000000E+00 0. -1.
         21   -1    0    0  502  503 -0.00000000000E+00 -0.00000000000E+00 -0.27603416262E+03  0.27603416262E+03  0.00000000000E+00 0. -1.
    9000005    1    1    2  501    0  0.25198602700E+03 -0.26122499133E+03  0.41240102741E+03  0.67956608311E+03  0.40000000000E+03 0. -1.
   -9000005    1    1    2    0  503 -0.25198602700E+03  0.26122499133E+03  0.36953872316E+03  0.65444199271E+03  0.40000000000E+03 0. -1.
<mgrwt>
<rscale>  2 0.54012541E+03</rscale>
<asrwt>0</asrwt>
<pdfrwt beam="1">  1       21 0.16276522E+00 0.54012541E+03</pdfrwt>
<pdfrwt beam="2">  1       21 0.42466795E-01 0.54012541E+03</pdfrwt>
<totfact> 0.10440639E+03</totfact>
</mgrwt>
</event>
<event>
 4    1  0.4857079E-002  0.6135699E+03  0.7818608E-02  0.9877646E-01
         21   -1    0    0  503  502  0.00000000000E+00  0.00000000000E+00  0.20062844191E+03  0.20062844191E+03  0.00000000000E+00 0.  1.
         21   -1    0    0  501  503 -0.00000000000E+00 -0.00000000000E+00 -0.20411901750E+04  0.20411901750E+04  0.00000000000E+00 0. -1.
    9000005    1    1    2  501    0  0.38090170087E+03 -0.26717400829E+03 -0.12387272179E+04  0.13823578324E+04  0.40000000000E+03 0. -1.
   -9000005    1    1    2    0  502 -0.38090170087E+03  0.26717400829E+03 -0.60183451521E+03  0.85946078452E+03  0.40000000000E+03 0. -1.
<mgrwt>
<rscale>  2 0.61356993E+03</rscale>
<asrwt>0</asrwt>
<pdfrwt beam="1">  1       21 0.30865915E-01 0.61356993E+03</pdfrwt>
<pdfrwt beam="2">  1       21 0.31402924E+00 0.61356993E+03</pdfrwt>
<totfact> 0.20504174E+02</totfact>
</mgrwt>
</event>
<event>
 4    1  0.4857079E-002  0.4508032E+03  0.7818608E-02  0.1027483E+00
         21   -1    0    0  501  502  0.00000000000E+00  0.00000000000E+00  0.44026989180E+03  0.44026989180E+03  0.00000000000E+00 0. -1.
         21   -1    0    0  502  503 -0.00000000000E+00 -0.00000000000E+00 -0.10991227446E+04  0.10991227446E+04  0.00000000000E+00 0. -1.
    9000005    1    1    2  501    0  0.53498794352E+02 -0.20090143618E+03  0.25677663047E+03  0.51880414995E+03  0.40000000000E+03 0. -1.
   -9000005    1    1    2    0  503 -0.53498794352E+02  0.20090143618E+03 -0.91562948330E+03  0.10205884865E+04  0.40000000000E+03 0. -1.
<mgrwt>
<rscale>  2 0.45080318E+03</rscale>
<asrwt>0</asrwt>
<pdfrwt beam="1">  1       21 0.67733830E-01 0.45080318E+03</pdfrwt>
<pdfrwt beam="2">  1       21 0.16909581E+00 0.45080318E+03</pdfrwt>
<totfact> 0.35524950E+02</totfact>
</mgrwt>
</event>
<event>
 4    1  0.4857079E-002  0.4060863E+03  0.7818608E-02  0.1041692E+00
         21   -1    0    0  503  502  0.00000000000E+00  0.00000000000E+00  0.18028717414E+03  0.18028717414E+03  0.00000000000E+00 0.  1.
         21   -1    0    0  501  503 -0.00000000000E+00 -0.00000000000E+00 -0.91857991052E+03  0.91857991052E+03  0.00000000000E+00 0.  1.
    9000005    1    1    2  501    0  0.58617317360E+02  0.38341399323E+02 -0.40492148280E+03  0.57346966793E+03  0.40000000000E+03 0. -1.
   -9000005    1    1    2    0  502 -0.58617317360E+02 -0.38341399323E+02 -0.33337125358E+03  0.52539741673E+03  0.40000000000E+03 0. -1.
<mgrwt>
<rscale>  2 0.40608626E+03</rscale>
<asrwt>0</asrwt>
<pdfrwt beam="1">  1       21 0.27736488E-01 0.40608626E+03</pdfrwt>
<pdfrwt beam="2">  1       21 0.14131999E+00 0.40608626E+03</pdfrwt>
<totfact> 0.38251693E+03</totfact>
</mgrwt>
</event>
<event>
 4    1  0.4857079E-002  0.4490374E+03  0.7818608E-02  0.1028009E+00
         21   -1    0    0  503  502  0.00000000000E+00  0.00000000000E+00  0.90441410140E+03  0.90441410140E+03  0.00000000000E+00 0.  1.
         21   -1    0    0  501  503 -0.00000000000E+00 -0.00000000000E+00 -0.35729531402E+03  0.35729531402E+03  0.00000000000E+00 0. -1.
    9000005    1    1    2  501    0  0.18261018832E+03  0.91039121056E+02 -0.11328386224E+03  0.46310672192E+03  0.40000000000E+03 0. -1.
   -9000005    1    1    2    0  502 -0.18261018832E+03 -0.91039121056E+02  0.66040264962E+03  0.79860269350E+03  0.40000000000E+03 0.  1.
<mgrwt>
<rscale>  2 0.44903742E+03</rscale>
<asrwt>0</asrwt>
<pdfrwt beam="1">  1       21 0.13914063E+00 0.44903742E+03</pdfrwt>
<pdfrwt beam="2">  1       21 0.54968510E-01 0.44903742E+03</pdfrwt>
<totfact> 0.96057405E+02</totfact>
</mgrwt>
</event>
<event>
 4    1  0.4857079E-002  0.4014178E+03  0.7818608E-02  0.1043290E+00
         21   -1    0    0  501  502  0.00000000000E+00  0.00000000000E+00  0.22514251238E+04  0.22514251238E+04  0.00000000000E+00 0. -1.
         21   -1    0    0  502  503 -0.00000000000E+00 -0.00000000000E+00 -0.80465263536E+02  0.80465263536E+02  0.00000000000E+00 0. -1.
    9000005    1    1    2  501    0  0.30636396752E+02 -0.14059030740E+02  0.14731250867E+04  0.15268378323E+04  0.40000000000E+03 0.  1.
   -9000005    1    1    2    0  503 -0.30636396752E+02  0.14059030740E+02  0.69783477365E+03  0.80505255510E+03  0.40000000000E+03 0.  1.
<mgrwt>
<rscale>  2 0.40141779E+03</rscale>
<asrwt>0</asrwt>
<pdfrwt beam="1">  1       21 0.34637305E+00 0.40141779E+03</pdfrwt>
<pdfrwt beam="2">  1       21 0.12379273E-01 0.40141779E+03</pdfrwt>
<totfact> 0.83268667E+02</totfact>
</mgrwt>
</event>
<event>
 4    1  0.4857079E-002  0.5076831E+03  0.7818608E-02  0.1011793E+00
         21   -1    0    0  501  502  0.00000000000E+00  0.00000000000E+00  0.75241665832E+03  0.75241665832E+03  0.00000000000E+00 0. -1.
         21   -1    0    0  502  503 -0.00000000000E+00 -0.00000000000E+00 -0.38357738740E+03  0.38357738740E+03  0.00000000000E+00 0. -1.
    9000005    1    1    2  501    0  0.15555587248E+03  0.27119092153E+03  0.37017599697E+03  0.62830917080E+03  0.40000000000E+03 0. -1.
   -9000005    1    1    2    0  503 -0.15555587248E+03 -0.27119092153E+03 -0.13367260446E+01  0.50768487492E+03  0.40000000000E+03 0. -1.
<mgrwt>
<rscale>  2 0.50768312E+03</rscale>
<asrwt>0</asrwt>
<pdfrwt beam="1">  1       21 0.11575641E+00 0.50768312E+03</pdfrwt>
<pdfrwt beam="2">  1       21 0.59011906E-01 0.50768312E+03</pdfrwt>
<totfact> 0.12944251E+03</totfact>
</mgrwt>
</event>
<event>
 4    1  0.4857079E-002  0.6122028E+03  0.7818608E-02  0.9880408E-01
         21   -1    0    0  503  502  0.00000000000E+00  0.00000000000E+00  0.35929106975E+03  0.35929106975E+03  0.00000000000E+00 0. -1.
         21   -1    0    0  501  503 -0.00000000000E+00 -0.00000000000E+00 -0.16897467342E+04  0.16897467342E+04  0.00000000000E+00 0.  1.
    9000005    1    1    2  501    0 -0.24779352177E+02 -0.46279399299E+03 -0.12989924092E+04  0.14360270107E+04  0.40000000000E+03 0. -1.
   -9000005    1    1    2    0  502  0.24779352177E+02  0.46279399299E+03 -0.31463255267E+02  0.61301079328E+03  0.40000000000E+03 0. -1.
<mgrwt>
<rscale>  2 0.61220282E+03</rscale>
<asrwt>0</asrwt>
<pdfrwt beam="1">  1       21 0.55275550E-01 0.61220282E+03</pdfrwt>
<pdfrwt beam="2">  1       21 0.25996103E+00 0.61220282E+03</pdfrwt>
<totfact> 0.13033449E+02</totfact>
</mgrwt>
</event>
<event>
 4    1  0.4857079E-002  0.4663701E+03  0.7818608E-02  0.1022950E+00
         21   -1    0    0  503  502  0.00000000000E+00  0.00000000000E+00  0.96149313586E+03  0.96149313586E+03  0.00000000000E+00 0. -1.
         21   -1    0    0  501  503 -0.00000000000E+00 -0.00000000000E+00 -0.23150059248E+03  0.23150059248E+03  0.00000000000E+00 0. -1.
    9000005    1    1    2  501    0 -0.99316960666E+02 -0.21825955939E+03  0.45515553044E+03  0.65166529049E+03  0.40000000000E+03 0.  1.
   -9000005    1    1    2    0  502  0.99316960666E+02  0.21825955939E+03  0.27483701294E+03  0.54132843785E+03  0.40000000000E+03 0.  1.
<mgrwt>
<rscale>  2 0.46637013E+03</rscale>
<asrwt>0</asrwt>
<pdfrwt beam="1">  1       21 0.14792202E+00 0.46637013E+03</pdfrwt>
<pdfrwt beam="2">  1       21 0.35615476E-01 0.46637013E+03</pdfrwt>
<totfact> 0.20062759E+03</totfact>
</mgrwt>
</event>
<event>
 4    1  0.4857079E-002  0.7026456E+03  0.7818608E-02  0.9712718E-01
         21   -1    0    0  503  502  0.00000000000E+00  0.00000000000E+00  0.24521759355E+04  0.24521759355E+04  0.00000000000E+00 0.  1.
         21   -1    0    0  501  503 -0.00000000000E+00 -0.00000000000E+00 -0.95814531423E+03  0.95814531423E+03  0.00000000000E+00 0. -1.
    9000005    1    1    2  501    0 -0.56398923473E+03 -0.12500820641E+03 -0.76843913047E+03  0.10412538623E+04  0.40000000000E+03 0. -1.
   -9000005    1    1    2    0  502  0.56398923473E+03  0.12500820641E+03  0.22624697518E+04  0.23690673875E+04  0.40000000000E+03 0.  1.
<mgrwt>
<rscale>  2 0.70264565E+03</rscale>
<asrwt>0</asrwt>
<pdfrwt beam="1">  1       21 0.37725783E+00 0.70264565E+03</pdfrwt>
<pdfrwt beam="2">  1       21 0.14740697E+00 0.70264565E+03</pdfrwt>
<totfact> 0.22029037E+00</totfact>
</mgrwt>
</event>
<event>
 4    1  0.4857079E-002  0.4129864E+03  0.7818608E-02  0.1039373E+00
         21   -1    0    0  501  502  0.00000000000E+00  0.00000000000E+00  0.44102097152E+03  0.44102097152E+03  0.00000000000E+00 0.  1.
         21   -1    0    0  502  503 -0.00000000000E+00 -0.00000000000E+00 -0.51158882647E+03  0.51158882647E+03  0.00000000000E+00 0.  1.
    9000005    1    1    2  501    0  0.16884524158E+02  0.10135404332E+03 -0.27058693990E+03  0.49373578086E+03  0.40000000000E+03 0.  1.
   -9000005    1    1    2    0  503 -0.16884524158E+02 -0.10135404332E+03  0.20001908495E+03  0.45887401713E+03  0.40000000000E+03 0.  1.
<mgrwt>
<rscale>  2 0.41298635E+03</rscale>
<asrwt>0</asrwt>
<pdfrwt beam="1">  1       21 0.67849380E-01 0.41298635E+03</pdfrwt>
<pdfrwt beam="2">  1       21 0.78705973E-01 0.41298635E+03</pdfrwt>
<totfact> 0.24903185E+03</totfact>
</mgrwt>
</event>
<event>
 4    1  0.4857079E-002  0.4047231E+03  0.7818608E-02  0.1042156E+00
         21   -1    0    0  501  502  0.00000000000E+00  0.00000000000E+00  0.21198497696E+03  0.21198497696E+03  0.00000000000E+00 0. -1.
         21   -1    0    0  502  503 -0.00000000000E+00 -0.00000000000E+00 -0.92648901243E+03  0.92648901243E+03  0.00000000000E+00 0. -1.
    9000005    1    1    2  501    0 -0.24742611957E+02  0.56467474080E+02 -0.12533332062E+03  0.42368527675E+03  0.40000000000E+03 0. -1.
   -9000005    1    1    2    0  503  0.24742611957E+02 -0.56467474080E+02 -0.58917071485E+03  0.71478871263E+03  0.40000000000E+03 0. -1.
<mgrwt>
<rscale>  2 0.40472308E+03</rscale>
<asrwt>0</asrwt>
<pdfrwt beam="1">  1       21 0.32613073E-01 0.40472308E+03</pdfrwt>
<pdfrwt beam="2">  1       21 0.14253677E+00 0.40472308E+03</pdfrwt>
<totfact> 0.27131652E+03</totfact>
</mgrwt>
</event>
<event>
 4    1  0.4857079E-002  0.4900148E+03  0.7818608E-02  0.1016419E+00
         21   -1    0    0  501  502  0.00000000000E+00  0.00000000000E+00  0.12026086648E+04  0.12026086648E+04  0.00000000000E+00 0. -1.
         21   -1    0    0  502  503 -0.00000000000E+00 -0.00000000000E+00 -0.24150611581E+03  0.24150611581E+03  0.00000000000E+00 0. -1.
    9000005    1    1    2  501    0 -0.27739470688E+03 -0.56273063894E+02  0.78110919113E+03  0.92208787520E+03  0.40000000000E+03 0.  1.
   -9000005    1    1    2    0  503  0.27739470688E+03  0.56273063894E+02  0.17999335789E+03  0.52202690545E+03  0.40000000000E+03 0.  1.
<mgrwt>
<rscale>  2 0.49001478E+03</rscale>
<asrwt>0</asrwt>
<pdfrwt beam="1">  1       21 0.18501671E+00 0.49001478E+03</pdfrwt>
<pdfrwt beam="2">  1       21 0.37154788E-01 0.49001478E+03</pdfrwt>
<totfact> 0.96806540E+02</totfact>
</mgrwt>
</event>
<event>
 4    1  0.4857079E-002  0.5171780E+03  0.7818608E-02  0.1009390E+00
         21   -1    0    0  501  502  0.00000000000E+00  0.00000000000E+00  0.17766675627E+03  0.17766675627E+03  0.00000000000E+00 0. -1.
         21   -1    0    0  502  503 -0.00000000000E+00 -0.00000000000E+00 -0.21012112609E+04  0.21012112609E+04  0.00000000000E+00 0.  1.
    9000005    1    1    2  501    0 -0.12350583645E+03 -0.30367650649E+03 -0.35506005854E+03  0.62732826925E+03  0.40000000000E+03 0. -1.
   -9000005    1    1    2    0  503  0.12350583645E+03  0.30367650649E+03 -0.15684844461E+04  0.16515497479E+04  0.40000000000E+03 0.  1.
<mgrwt>
<rscale>  2 0.51717803E+03</rscale>
<asrwt>0</asrwt>
<pdfrwt beam="1">  1       21 0.27333347E-01 0.51717803E+03</pdfrwt>
<pdfrwt beam="2">  1       21 0.32326328E+00 0.51717803E+03</pdfrwt>
<totfact> 0.24032523E+02</totfact>
</mgrwt>
</event>
<event>
 4    1  0.4857079E-002  0.4125774E+03  0.7818608E-02  0.1039510E+00
         21   -1    0    0  503  502  0.00000000000E+00  0.00000000000E+00  0.82981632022E+03  0.82981632022E+03  0.00000000000E+00 0. -1.
         21   -1    0    0  501  503 -0.00000000000E+00 -0.00000000000E+00 -0.49888014728E+03  0.49888014728E+03  0.00000000000E+00 0. -1.
    9000005    1    1    2  501    0  0.76509421661E+02  0.66078818487E+02 -0.34431664898E+03  0.53737701535E+03  0.40000000000E+03 0. -1.
   -9000005    1    1    2    0  502 -0.76509421661E+02 -0.66078818487E+02  0.67525282192E+03  0.79131945216E+03  0.40000000000E+03 0. -1.
<mgrwt>
<rscale>  2 0.41257739E+03</rscale>
<asrwt>0</asrwt>
<pdfrwt beam="1">  1       21 0.12766405E+00 0.41257739E+03</pdfrwt>
<pdfrwt beam="2">  1       21 0.76750792E-01 0.41257739E+03</pdfrwt>
<totfact> 0.58262313E+02</totfact>
</mgrwt>
</event>
<event>
 4    1  0.4857079E-002  0.5918451E+03  0.7818608E-02  0.9922471E-01
         21   -1    0    0  503  502  0.00000000000E+00  0.00000000000E+00  0.54660156926E+03  0.54660156926E+03  0.00000000000E+00 0. -1.
         21   -1    0    0  501  503 -0.00000000000E+00 -0.00000000000E+00 -0.93076471721E+03  0.93076471721E+03  0.00000000000E+00 0. -1.
    9000005    1    1    2  501    0 -0.40252620414E+03  0.16808707328E+03 -0.60435534413E+03  0.84588769421E+03  0.40000000000E+03 0. -1.
   -9000005    1    1    2    0  502  0.40252620414E+03 -0.16808707328E+03  0.22019219619E+03  0.63147859226E+03  0.40000000000E+03 0. -1.
<mgrwt>
<rscale>  2 0.59184509E+03</rscale>
<asrwt>0</asrwt>
<pdfrwt beam="1">  1       21 0.84092550E-01 0.59184509E+03</pdfrwt>
<pdfrwt beam="2">  1       21 0.14319457E+00 0.59184509E+03</pdfrwt>
<totfact> 0.32321679E+02</totfact>
</mgrwt>
</event>
<event>
 4    1  0.4857079E-002  0.4857211E+03  0.7818608E-02  0.1017575E+00
         21   -1    0    0  501  502  0.00000000000E+00  0.00000000000E+00  0.47809981088E+03  0.47809981088E+03  0.00000000000E+00 0.  1.
         21   -1    0    0  502  503 -0.00000000000E+00 -0.00000000000E+00 -0.50759642515E+03  0.50759642515E+03  0.00000000000E+00 0. -1.
    9000005    1    1    2  501    0 -0.19095368218E+03 -0.19864968388E+03  0.67487969605E+02  0.49038722627E+03  0.40000000000E+03 0. -1.
   -9000005    1    1    2    0  503  0.19095368218E+03  0.19864968388E+03 -0.96984583876E+02  0.49530900977E+03  0.40000000000E+03 0. -1.
<mgrwt>
<rscale>  2 0.48572112E+03</rscale>
<asrwt>0</asrwt>
<pdfrwt beam="1">  1       21 0.73553817E-01 0.48572112E+03</pdfrwt>
<pdfrwt beam="2">  1       21 0.78091758E-01 0.48572112E+03</pdfrwt>
<totfact> 0.20574338E+03</totfact>
</mgrwt>
</event>
<event>
 4    1  0.4857079E-002  0.4221308E+03  0.7818608E-02  0.1036375E+00
         21   -1    0    0  503  502  0.00000000000E+00  0.00000000000E+00  0.12241900953E+03  0.12241900953E+03  0.00000000000E+00 0.  1.
         21   -1    0    0  501  503 -0.00000000000E+00 -0.00000000000E+00 -0.17288166809E+04  0.17288166809E+04  0.00000000000E+00 0.  1.
    9000005    1    1    2  501    0  0.62382936582E+02  0.11959439631E+03 -0.11711601417E+04  0.12449138636E+04  0.40000000000E+03 0. -1.
   -9000005    1    1    2    0  502 -0.62382936582E+02 -0.11959439631E+03 -0.43523752971E+03  0.60632182682E+03  0.40000000000E+03 0. -1.
<mgrwt>
<rscale>  2 0.42213085E+03</rscale>
<asrwt>0</asrwt>
<pdfrwt beam="1">  1       21 0.18833695E-01 0.42213085E+03</pdfrwt>
<pdfrwt beam="2">  1       21 0.26597179E+00 0.42213085E+03</pdfrwt>
<totfact> 0.11505705E+03</totfact>
</mgrwt>
</event>
<event>
 4    1  0.4857079E-002  0.4986289E+03  0.7818608E-02  0.1014137E+00
         21   -1    0    0  501  502  0.00000000000E+00  0.00000000000E+00  0.89958047919E+03  0.89958047919E+03  0.00000000000E+00 0.  1.
         21   -1    0    0  502  503 -0.00000000000E+00 -0.00000000000E+00 -0.28318861782E+03  0.28318861782E+03  0.00000000000E+00 0.  1.
    9000005    1    1    2  501    0  0.93688462017E+02 -0.28258325856E+03  0.39985855090E+03  0.63915388339E+03  0.40000000000E+03 0.  1.
   -9000005    1    1    2    0  503 -0.93688462017E+02  0.28258325856E+03  0.21653331047E+03  0.54361521362E+03  0.40000000000E+03 0.  1.
<mgrwt>
<rscale>  2 0.49862895E+03</rscale>
<asrwt>0</asrwt>
<pdfrwt beam="1">  1       21 0.13839700E+00 0.49862895E+03</pdfrwt>
<pdfrwt beam="2">  1       21 0.43567480E-01 0.49862895E+03</pdfrwt>
<totfact> 0.15651784E+03</totfact>
</mgrwt>
</event>
<event>
 4    1  0.4857079E-002  0.4384753E+03  0.7818608E-02  0.1031216E+00
         21   -1    0    0  503  502  0.00000000000E+00  0.00000000000E+00  0.82067150870E+03  0.82067150870E+03  0.00000000000E+00 0. -1.
         21   -1    0    0  501  503 -0.00000000000E+00 -0.00000000000E+00 -0.23450959121E+03  0.23450959121E+03  0.00000000000E+00 0. -1.
    9000005    1    1    2  501    0  0.15213435496E+03 -0.95476293158E+02  0.30986424124E+03  0.53691380361E+03  0.40000000000E+03 0. -1.
   -9000005    1    1    2    0  502 -0.15213435496E+03  0.95476293158E+02  0.27629767625E+03  0.51826729630E+03  0.40000000000E+03 0. -1.
<mgrwt>
<rscale>  2 0.43847530E+03</rscale>
<asrwt>0</asrwt>
<pdfrwt beam="1">  1       21 0.12625715E+00 0.43847530E+03</pdfrwt>
<pdfrwt beam="2">  1       21 0.36078399E-01 0.43847530E+03</pdfrwt>
<totfact> 0.29992910E+03</totfact>
</mgrwt>
</event>
<event>
 4    1  0.4857079E-002  0.6520860E+03  0.7818608E-02  0.9802873E-01
         21   -1    0    0  501  502  0.00000000000E+00  0.00000000000E+00  0.77843547184E+03  0.77843547184E+03  0.00000000000E+00 0.  1.
         21   -1    0    0  502  503 -0.00000000000E+00 -0.00000000000E+00 -0.75257547683E+03  0.75257547683E+03  0.00000000000E+00 0. -1.
    9000005    1    1    2  501    0  0.51401801236E+03  0.31649567942E+02 -0.38789548904E+03  0.75873521244E+03  0.40000000000E+03 0. -1.
   -9000005    1    1    2    0  503 -0.51401801236E+03 -0.31649567942E+02  0.41375548406E+03  0.77227573623E+03  0.40000000000E+03 0.  1.
<mgrwt>
<rscale>  2 0.65208605E+03</rscale>
<asrwt>0</asrwt>
<pdfrwt beam="1">  1       21 0.11975930E+00 0.65208605E+03</pdfrwt>
<pdfrwt beam="2">  1       21 0.11578084E+00 0.65208605E+03</pdfrwt>
<totfact> 0.23209398E+02</totfact>
</mgrwt>
</event>
<event>
 4    1  0.4857079E-002  0.5707306E+03  0.7818608E-02  0.9968063E-01
         21   -1    0    0  501  502  0.00000000000E+00  0.00000000000E+00  0.11229650610E+04  0.11229650610E+04  0.00000000000E+00 0. -1.
         21   -1    0    0  502  503 -0.00000000000E+00 -0.00000000000E+00 -0.62455343575E+03  0.62455343575E+03  0.00000000000E+00 0.  1.
    9000005    1    1    2  501    0 -0.15410147710E+03  0.37681044763E+03  0.88864204169E+03  0.10561335412E+04  0.40000000000E+03 0. -1.
   -9000005    1    1    2    0  503  0.15410147710E+03 -0.37681044763E+03 -0.39023041648E+03  0.69138495546E+03  0.40000000000E+03 0.  1.
<mgrwt>
<rscale>  2 0.57073057E+03</rscale>
<asrwt>0</asrwt>
<pdfrwt beam="1">  1       21 0.17276386E+00 0.57073057E+03</pdfrwt>
<pdfrwt beam="2">  1       21 0.96085144E-01 0.57073057E+03</pdfrwt>
<totfact> 0.14044254E+02</totfact>
</mgrwt>
</event>
<event>
 4    1  0.4857079E-002  0.4084320E+03  0.7818608E-02  0.1040898E+00
         21   -1    0    0  501  502  0.00000000000E+00  0.00000000000E+00  0.34505712574E+03  0.34505712574E+03  0.00000000000E+00 0.  1.
         21   -1    0    0  502  503 -0.00000000000E+00 -0.00000000000E+00 -0.95149076649E+03  0.95149076649E+03  0.00000000000E+00 0.  1.
    9000005    1    1    2  501    0 -0.17825189550E+02 -0.80616203574E+02  0.15145671490E+03  0.43560974065E+03  0.40000000000E+03 0.  1.
   -9000005    1    1    2    0  503  0.17825189550E+02  0.80616203574E+02 -0.75789035565E+03  0.86093815158E+03  0.40000000000E+03 0.  1.
<mgrwt>
<rscale>  2 0.40843201E+03</rscale>
<asrwt>0</asrwt>
<pdfrwt beam="1">  1       21 0.53085712E-01 0.40843201E+03</pdfrwt>
<pdfrwt beam="2">  1       21 0.14638319E+00 0.40843201E+03</pdfrwt>
<totfact> 0.92068637E+02</totfact>
</mgrwt>
</event>
<event>
 4    1  0.4857079E-002  0.4230342E+03  0.7818608E-02  0.1036083E+00
         21   -1    0    0  503  502  0.00000000000E+00  0.00000000000E+00  0.21243004641E+03  0.21243004641E+03  0.00000000000E+00 0. -1.
         21   -1    0    0  501  503 -0.00000000000E+00 -0.00000000000E+00 -0.25771527655E+04  0.25771527655E+04  0.00000000000E+00 0. -1.
    9000005    1    1    2  501    0 -0.27257237263E+02  0.13496273520E+03 -0.23266983942E+04  0.23648431903E+04  0.40000000000E+03 0. -1.
   -9000005    1    1    2    0  502  0.27257237263E+02 -0.13496273520E+03 -0.38024324819E+02  0.42473962160E+03  0.40000000000E+03 0. -1.
<mgrwt>
<rscale>  2 0.42303416E+03</rscale>
<asrwt>0</asrwt>
<pdfrwt beam="1">  1       21 0.32681546E-01 0.42303416E+03</pdfrwt>
<pdfrwt beam="2">  1       21 0.39648503E+00 0.42303416E+03</pdfrwt>
<totfact> 0.62887476E+01</totfact>
</mgrwt>
</event>
<event>
 4    1  0.4857079E-002  0.4907579E+03  0.7818608E-02  0.1016220E+00
         21   -1    0    0  501  502  0.00000000000E+00  0.00000000000E+00  0.10088358552E+04  0.10088358552E+04  0.00000000000E+00 0.  1.
         21   -1    0    0  502  503 -0.00000000000E+00 -0.00000000000E+00 -0.24101781321E+03  0.24101781321E+03  0.00000000000E+00 0.  1.
    9000005    1    1    2  501    0  0.14329489615E+03  0.24558072249E+03  0.44474274000E+03  0.66229859074E+03  0.40000000000E+03 0.  1.
   -9000005    1    1    2    0  503 -0.14329489615E+03 -0.24558072249E+03  0.32307530196E+03  0.58755507763E+03  0.40000000000E+03 0.  1.
<mgrwt>
<rscale>  2 0.49075790E+03</rscale>
<asrwt>0</asrwt>
<pdfrwt beam="1">  1       21 0.15520551E+00 0.49075790E+03</pdfrwt>
<pdfrwt beam="2">  1       21 0.37079664E-01 0.49075790E+03</pdfrwt>
<totfact> 0.16060704E+03</totfact>
</mgrwt>
</event>
<event>
 4    1  0.4857079E-002  0.4370218E+03  0.7818608E-02  0.1031665E+00
         21   -1    0    0  503  502  0.00000000000E+00  0.00000000000E+00  0.14744509713E+04  0.14744509713E+04  0.00000000000E+00 0.  1.
         21   -1    0    0  501  503 -0.00000000000E+00 -0.00000000000E+00 -0.13525168829E+03  0.13525168829E+03  0.00000000000E+00 0.  1.
    9000005    1    1    2  501    0  0.11859215428E+03 -0.13009206357E+03  0.83511731787E+03  0.94255449639E+03  0.40000000000E+03 0.  1.
   -9000005    1    1    2    0  502 -0.11859215428E+03  0.13009206357E+03  0.50408196511E+03  0.66714816316E+03  0.40000000000E+03 0.  1.
<mgrwt>
<rscale>  2 0.43702179E+03</rscale>
<asrwt>0</asrwt>
<pdfrwt beam="1">  1       21 0.22683860E+00 0.43702179E+03</pdfrwt>
<pdfrwt beam="2">  1       21 0.20807953E-01 0.43702179E+03</pdfrwt>
<totfact> 0.16463297E+03</totfact>
</mgrwt>
</event>
<event>
 4    1  0.4857079E-002  0.4877764E+03  0.7818608E-02  0.1017020E+00
         21   -1    0    0  501  502  0.00000000000E+00  0.00000000000E+00  0.17544136252E+03  0.17544136252E+03  0.00000000000E+00 0. -1.
         21   -1    0    0  502  503 -0.00000000000E+00 -0.00000000000E+00 -0.14389648161E+04  0.14389648161E+04  0.00000000000E+00 0. -1.
    9000005    1    1    2  501    0 -0.27256269677E+03  0.60294077850E+02 -0.43812092753E+03  0.65564910328E+03  0.40000000000E+03 0. -1.
   -9000005    1    1    2    0  503  0.27256269677E+03 -0.60294077850E+02 -0.82540252606E+03  0.95875707534E+03  0.40000000000E+03 0. -1.
<mgrwt>
<rscale>  2 0.48777638E+03</rscale>
<asrwt>0</asrwt>
<pdfrwt beam="1">  1       21 0.26990979E-01 0.48777638E+03</pdfrwt>
<pdfrwt beam="2">  1       21 0.22137921E+00 0.48777638E+03</pdfrwt>
<totfact> 0.10528778E+03</totfact>
</mgrwt>
</event>
<event>
 4    1  0.4857079E-002  0.4351547E+03  0.7818608E-02  0.1032244E+00
         21   -1    0    0  501  502  0.00000000000E+00  0.00000000000E+00  0.10743519608E+04  0.10743519608E+04  0.00000000000E+00 0.  1.
         21   -1    0    0  502  503 -0.00000000000E+00 -0.00000000000E+00 -0.24507661543E+03  0.24507661543E+03  0.00000000000E+00 0. -1.
    9000005    1    1    2  501    0 -0.57404079028E+02 -0.16144461644E+03  0.65040185951E+02  0.43998842968E+03  0.40000000000E+03 0. -1.
   -9000005    1    1    2    0  503  0.57404079028E+02  0.16144461644E+03  0.76423515947E+03  0.87944014659E+03  0.40000000000E+03 0.  1.
<mgrwt>
<rscale>  2 0.43515468E+03</rscale>
<asrwt>0</asrwt>
<pdfrwt beam="1">  1       21 0.16528491E+00 0.43515468E+03</pdfrwt>
<pdfrwt beam="2">  1       21 0.37704095E-01 0.43515468E+03</pdfrwt>
<totfact> 0.13320663E+03</totfact>
</mgrwt>
</event>
<event>
 4    1  0.4857079E-002  0.4326652E+03  0.7818608E-02  0.1033021E+00
         21   -1    0    0  501  502  0.00000000000E+00  0.00000000000E+00  0.85357069287E+03  0.85357069287E+03  0.00000000000E+00 0. -1.
         21   -1    0    0  502  503 -0.00000000000E+00 -0.00000000000E+00 -0.23147578694E+03  0.23147578694E+03  0.00000000000E+00 0. -1.
    9000005    1    1    2  501    0  0.15439953171E+03  0.57965227293E+02  0.18668725386E+03  0.47122321009E+03  0.40000000000E+03 0. -1.
   -9000005    1    1    2    0  503 -0.15439953171E+03 -0.57965227293E+02  0.43540765207E+03  0.61382326972E+03  0.40000000000E+03 0. -1.
<mgrwt>
<rscale>  2 0.43266521E+03</rscale>
<asrwt>0</asrwt>
<pdfrwt beam="1">  1       21 0.13131857E+00 0.43266521E+03</pdfrwt>
<pdfrwt beam="2">  1       21 0.35611660E-01 0.43266521E+03</pdfrwt>
<totfact> 0.27880478E+03</totfact>
</mgrwt>
</event>
<event>
 4    1  0.4857079E-002  0.4365726E+03  0.7818608E-02  0.1031804E+00
         21   -1    0    0  501  502  0.00000000000E+00  0.00000000000E+00  0.86003573128E+03  0.86003573128E+03  0.00000000000E+00 0. -1.
         21   -1    0    0  502  503 -0.00000000000E+00 -0.00000000000E+00 -0.22298760565E+03  0.22298760565E+03  0.00000000000E+00 0. -1.
    9000005    1    1    2  501    0  0.97252886326E+02  0.14538745446E+03  0.27601732204E+03  0.51650866196E+03  0.40000000000E+03 0. -1.
   -9000005    1    1    2    0  503 -0.97252886326E+02 -0.14538745446E+03  0.36103080359E+03  0.56651467497E+03  0.40000000000E+03 0. -1.
<mgrwt>
<rscale>  2 0.43657260E+03</rscale>
<asrwt>0</asrwt>
<pdfrwt beam="1">  1       21 0.13231319E+00 0.43657260E+03</pdfrwt>
<pdfrwt beam="2">  1       21 0.34305786E-01 0.43657260E+03</pdfrwt>
<totfact> 0.29439847E+03</totfact>
</mgrwt>
</event>
<event>
 4    1  0.4857079E-002  0.4035763E+03  0.7818608E-02  0.1042548E+00
         21   -1    0    0  501  502  0.00000000000E+00  0.00000000000E+00  0.67741283357E+03  0.67741283357E+03  0.00000000000E+00 0. -1.
         21   -1    0    0  502  503 -0.00000000000E+00 -0.00000000000E+00 -0.60537820644E+03  0.60537820644E+03  0.00000000000E+00 0. -1.
    9000005    1    1    2  501    0  0.53457052944E+02 -0.40219135665E+01  0.53401245367E+03  0.66936024155E+03  0.40000000000E+03 0. -1.
   -9000005    1    1    2    0  503 -0.53457052944E+02  0.40219135665E+01 -0.46197782653E+03  0.61343079847E+03  0.40000000000E+03 0. -1.
<mgrwt>
<rscale>  2 0.40357630E+03</rscale>
<asrwt>0</asrwt>
<pdfrwt beam="1">  1       21 0.10421736E+00 0.40357630E+03</pdfrwt>
<pdfrwt beam="2">  1       21 0.93135108E-01 0.40357630E+03</pdfrwt>
<totfact> 0.61990677E+02</totfact>
</mgrwt>
</event>
<event>
 4    1  0.4857079E-002  0.4181639E+03  0.7818608E-02  0.1037666E+00
         21   -1    0    0  501  502  0.00000000000E+00  0.00000000000E+00  0.99970676877E+03  0.99970676877E+03  0.00000000000E+00 0.  1.
         21   -1    0    0  502  503 -0.00000000000E+00 -0.00000000000E+00 -0.27435775339E+03  0.27435775339E+03  0.00000000000E+00 0.  1.
    9000005    1    1    2  501    0  0.12151851549E+03  0.97121853506E+01  0.74620078935E+03  0.85538102281E+03  0.40000000000E+03 0.  1.
   -9000005    1    1    2    0  503 -0.12151851549E+03 -0.97121853506E+01 -0.20851773975E+02  0.41868349935E+03  0.40000000000E+03 0.  1.
<mgrwt>
<rscale>  2 0.41816393E+03</rscale>
<asrwt>0</asrwt>
<pdfrwt beam="1">  1       21 0.15380104E+00 0.41816393E+03</pdfrwt>
<pdfrwt beam="2">  1       21 0.42208886E-01 0.41816393E+03</pdfrwt>
<totfact> 0.12995659E+03</totfact>
</mgrwt>
</event>
<event>
 4    1  0.4857079E-002  0.4260939E+03  0.7818608E-02  0.1035101E+00
         21   -1    0    0  503  502  0.00000000000E+00  0.00000000000E+00  0.35096476550E+03  0.35096476550E+03  0.00000000000E+00 0.  1.
         21   -1    0    0  501  503 -0.00000000000E+00 -0.00000000000E+00 -0.10433906373E+04  0.10433906373E+04  0.00000000000E+00 0.  1.
    9000005    1    1    2  501    0  0.86571641089E+02  0.11858079084E+03 -0.84126169760E+03  0.94301500351E+03  0.40000000000E+03 0.  1.
   -9000005    1    1    2    0  502 -0.86571641089E+02 -0.11858079084E+03  0.14883582580E+03  0.45134039930E+03  0.40000000000E+03 0.  1.
<mgrwt>
<rscale>  2 0.42609395E+03</rscale>
<asrwt>0</asrwt>
<pdfrwt beam="1">  1       21 0.53994579E-01 0.42609395E+03</pdfrwt>
<pdfrwt beam="2">  1       21 0.16052164E+00 0.42609395E+03</pdfrwt>
<totfact> 0.68429605E+02</totfact>
</mgrwt>
</event>
<event>
 4    1  0.4857079E-002  0.7235425E+03  0.7818608E-02  0.9677797E-01
         21   -1    0    0  503  502  0.00000000000E+00  0.00000000000E+00  0.46807089407E+03  0.46807089407E+03  0.00000000000E+00 0.  1.
         21   -1    0    0  501  503 -0.00000000000E+00 -0.00000000000E+00 -0.11909708058E+04  0.11909708058E+04  0.00000000000E+00 0.  1.
    9000005    1    1    2  501    0  0.69346293518E+02  0.59891968628E+03 -0.56614592483E+03  0.91871372431E+03  0.40000000000E+03 0.  1.
   -9000005    1    1    2    0  502 -0.69346293518E+02 -0.59891968628E+03 -0.15675398694E+03  0.74032797560E+03  0.40000000000E+03 0.  1.
<mgrwt>
<rscale>  2 0.72354247E+03</rscale>
<asrwt>0</asrwt>
<pdfrwt beam="1">  1       21 0.72010908E-01 0.72354247E+03</pdfrwt>
<pdfrwt beam="2">  1       21 0.18322627E+00 0.72354247E+03</pdfrwt>
<totfact> 0.22019621E+02</totfact>
</mgrwt>
</event>
<event>
 4    1  0.4857079E-002  0.4156197E+03  0.7818608E-02  0.1038501E+00
         21   -1    0    0  503  502  0.00000000000E+00  0.00000000000E+00  0.42483810800E+03  0.42483810800E+03  0.00000000000E+00 0. -1.
         21   -1    0    0  501  503 -0.00000000000E+00 -0.00000000000E+00 -0.40921713007E+03  0.40921713007E+03  0.00000000000E+00 0. -1.
    9000005    1    1    2  501    0 -0.10726449996E+03 -0.35129230966E+02 -0.25531458025E+02  0.41640315941E+03  0.40000000000E+03 0. -1.
   -9000005    1    1    2    0  502  0.10726449996E+03  0.35129230966E+02  0.41152435955E+02  0.41765207865E+03  0.40000000000E+03 0. -1.
<mgrwt>
<rscale>  2 0.41561970E+03</rscale>
<asrwt>0</asrwt>
<pdfrwt beam="1">  1       21 0.65359709E-01 0.41561970E+03</pdfrwt>
<pdfrwt beam="2">  1       21 0.62956482E-01 0.41561970E+03</pdfrwt>
<totfact> 0.44691569E+03</totfact>
</mgrwt>
</event>
<event>
 4    1  0.4857079E-002  0.4583659E+03  0.7818608E-02  0.1025256E+00
         21   -1    0    0  503  502  0.00000000000E+00  0.00000000000E+00  0.52079953824E+03  0.52079953824E+03  0.00000000000E+00 0.  1.
         21   -1    0    0  501  503 -0.00000000000E+00 -0.00000000000E+00 -0.50671429960E+03  0.50671429960E+03  0.00000000000E+00 0. -1.
    9000005    1    1    2  501    0  0.83337959883E+02  0.20773555059E+03 -0.22492162306E+03  0.51057713526E+03  0.40000000000E+03 0.  1.
   -9000005    1    1    2    0  502 -0.83337959883E+02 -0.20773555059E+03  0.23900686169E+03  0.51693670258E+03  0.40000000000E+03 0.  1.
<mgrwt>
<rscale>  2 0.45836587E+03</rscale>
<asrwt>0</asrwt>
<pdfrwt beam="1">  1       21 0.80123006E-01 0.45836587E+03</pdfrwt>
<pdfrwt beam="2">  1       21 0.77956046E-01 0.45836587E+03</pdfrwt>
<totfact> 0.17144651E+03</totfact>
</mgrwt>
</event>
<event>
 4    1  0.4857079E-002  0.4411542E+03  0.7818608E-02  0.1030393E+00
         21   -1    0    0  501  502  0.00000000000E+00  0.00000000000E+00  0.56008051364E+03  0.56008051364E+03  0.00000000000E+00 0.  1.
         21   -1    0    0  502  503 -0.00000000000E+00 -0.00000000000E+00 -0.45225653839E+03  0.45225653839E+03  0.00000000000E+00 0.  1.
    9000005    1    1    2  501    0  0.43688352229E+02 -0.18085451396E+03  0.29754369346E+03  0.53211772838E+03  0.40000000000E+03 0.  1.
   -9000005    1    1    2    0  503 -0.43688352229E+02  0.18085451396E+03 -0.18971971821E+03  0.48021932366E+03  0.40000000000E+03 0.  1.
<mgrwt>
<rscale>  2 0.44115420E+03</rscale>
<asrwt>0</asrwt>
<pdfrwt beam="1">  1       21 0.86166233E-01 0.44115420E+03</pdfrwt>
<pdfrwt beam="2">  1       21 0.69577929E-01 0.44115420E+03</pdfrwt>
<totfact> 0.18866879E+03</totfact>
</mgrwt>
</event>
<event>
 4    1  0.4857079E-002  0.4985165E+03  0.7818608E-02  0.1014167E+00
         21   -1    0    0  501  502  0.00000000000E+00  0.00000000000E+00  0.33922636630E+03  0.33922636630E+03  0.00000000000E+00 0.  1.
         21   -1    0    0  502  503 -0.00000000000E+00 -0.00000000000E+00 -0.13707398151E+04  0.13707398151E+04  0.00000000000E+00 0.  1.
    9000005    1    1    2  501    0  0.26442948552E+03 -0.13636625502E+03  0.67603018955E+02  0.50307939383E+03  0.40000000000E+03 0.  1.
   -9000005    1    1    2    0  503 -0.26442948552E+03  0.13636625502E+03 -0.10991164678E+04  0.12068867876E+04  0.40000000000E+03 0.  1.
<mgrwt>
<rscale>  2 0.49851651E+03</rscale>
<asrwt>0</asrwt>
<pdfrwt beam="1">  1       21 0.52188671E-01 0.49851651E+03</pdfrwt>
<pdfrwt beam="2">  1       21 0.21088305E+00 0.49851651E+03</pdfrwt>
<totfact> 0.31711191E+02</totfact>
</mgrwt>
</event>
<event>
 4    1  0.4857079E-002  0.4449127E+03  0.7818608E-02  0.1029250E+00
         21   -1    0    0  501  502  0.00000000000E+00  0.00000000000E+00  0.17307059764E+04  0.17307059764E+04  0.00000000000E+00 0. -1.
         21   -1    0    0  502  503 -0.00000000000E+00 -0.00000000000E+00 -0.52095404589E+03  0.52095404589E+03  0.00000000000E+00 0. -1.
    9000005    1    1    2  501    0 -0.91309948799E+02 -0.17207487070E+03  0.15994710247E+04  0.16601972253E+04  0.40000000000E+03 0. -1.
   -9000005    1    1    2    0  503  0.91309948799E+02  0.17207487070E+03 -0.38971909420E+03  0.59146279702E+03  0.40000000000E+03 0. -1.
<mgrwt>
<rscale>  2 0.44491265E+03</rscale>
<asrwt>0</asrwt>
<pdfrwt beam="1">  1       21 0.26626246E+00 0.44491265E+03</pdfrwt>
<pdfrwt beam="2">  1       21 0.80146777E-01 0.44491265E+03</pdfrwt>
<totfact> 0.56685257E+01</totfact>
</mgrwt>
</event>
<event>
 4    1  0.4857079E-002  0.6685167E+03  0.7818608E-02  0.9772641E-01
         21   -1    0    0  501  502  0.00000000000E+00  0.00000000000E+00  0.28460787872E+03  0.28460787872E+03  0.00000000000E+00 0.  1.
         21   -1    0    0  502  503 -0.00000000000E+00 -0.00000000000E+00 -0.15705944362E+04  0.15705944362E+04  0.00000000000E+00 0. -1.
    9000005    1    1    2  501    0 -0.63391876791E+01 -0.53560652726E+03 -0.62990345800E+03  0.91852757376E+03  0.40000000000E+03 0. -1.
   -9000005    1    1    2    0  503  0.63391876791E+01  0.53560652726E+03 -0.65608309950E+03  0.93667474120E+03  0.40000000000E+03 0.  1.
<mgrwt>
<rscale>  2 0.66851667E+03</rscale>
<asrwt>0</asrwt>
<pdfrwt beam="1">  1       21 0.43785827E-01 0.66851667E+03</pdfrwt>
<pdfrwt beam="2">  1       21 0.24162992E+00 0.66851667E+03</pdfrwt>
<totfact> 0.27309441E+02</totfact>
</mgrwt>
</event>
<event>
 4    1  0.4857079E-002  0.6138348E+03  0.7818608E-02  0.9877112E-01
         21   -1    0    0  501  502  0.00000000000E+00  0.00000000000E+00  0.11431169872E+04  0.11431169872E+04  0.00000000000E+00 0.  1.
         21   -1    0    0  502  503 -0.00000000000E+00 -0.00000000000E+00 -0.33213116419E+03  0.33213116419E+03  0.00000000000E+00 0. -1.
    9000005    1    1    2  501    0  0.46229220207E+03 -0.55489094310E+02  0.46964357379E+03  0.77288951738E+03  0.40000000000E+03 0.  1.
   -9000005    1    1    2    0  503 -0.46229220207E+03  0.55489094310E+02  0.34134224924E+03  0.70235863403E+03  0.40000000000E+03 0. -1.
<mgrwt>
<rscale>  2 0.61383477E+03</rscale>
<asrwt>0</asrwt>
<pdfrwt beam="1">  1       21 0.17586415E+00 0.61383477E+03</pdfrwt>
<pdfrwt beam="2">  1       21 0.51097103E-01 0.61383477E+03</pdfrwt>
<totfact> 0.55092585E+02</totfact>
</mgrwt>
</event>
<event>
 4    1  0.4857079E-002  0.7426232E+03  0.7818608E-02  0.9646995E-01
         21   -1    0    0  503  502  0.00000000000E+00  0.00000000000E+00  0.61082711442E+03  0.61082711442E+03  0.00000000000E+00 0.  1.
         21   -1    0    0  501  503 -0.00000000000E+00 -0.00000000000E+00 -0.99935285381E+03  0.99935285381E+03  0.00000000000E+00 0. -1.
    9000005    1    1    2  501    0 -0.56370588934E+03  0.27152324685E+03 -0.44443593381E+03  0.86545508406E+03  0.40000000000E+03 0. -1.
   -9000005    1    1    2    0  502  0.56370588934E+03 -0.27152324685E+03  0.55910194417E+02  0.74472488417E+03  0.40000000000E+03 0.  1.
<mgrwt>
<rscale>  2 0.74262319E+03</rscale>
<asrwt>0</asrwt>
<pdfrwt beam="1">  1       21 0.93973404E-01 0.74262319E+03</pdfrwt>
<pdfrwt beam="2">  1       21 0.15374659E+00 0.74262319E+03</pdfrwt>
<totfact> 0.19430393E+02</totfact>
</mgrwt>
</event>
<event>
 4    1  0.4857079E-002  0.4159110E+03  0.7818608E-02  0.1038405E+00
         21   -1    0    0  501  502  0.00000000000E+00  0.00000000000E+00  0.84055848087E+03  0.84055848087E+03  0.00000000000E+00 0.  1.
         21   -1    0    0  502  503 -0.00000000000E+00 -0.00000000000E+00 -0.48473075548E+03  0.48473075548E+03  0.00000000000E+00 0.  1.
    9000005    1    1    2  501    0 -0.11379674933E+03 -0.56769021222E+01  0.68058416376E+03  0.79760687769E+03  0.40000000000E+03 0.  1.
   -9000005    1    1    2    0  503  0.11379674933E+03  0.56769021222E+01 -0.32475643837E+03  0.52768235866E+03  0.40000000000E+03 0.  1.
<mgrwt>
<rscale>  2 0.41591096E+03</rscale>
<asrwt>0</asrwt>
<pdfrwt beam="1">  1       21 0.12931669E+00 0.41591096E+03</pdfrwt>
<pdfrwt beam="2">  1       21 0.74573962E-01 0.41591096E+03</pdfrwt>
<totfact> 0.60085162E+02</totfact>
</mgrwt>
</event>
<event>
 4    1  0.4857079E-002  0.4807007E+03  0.7818608E-02  0.1018943E+00
         21   -1    0    0  503  502  0.00000000000E+00  0.00000000000E+00  0.91803127911E+03  0.91803127911E+03  0.00000000000E+00 0. -1.
         21   -1    0    0  501  503 -0.00000000000E+00 -0.00000000000E+00 -0.25336683662E+03  0.25336683662E+03  0.00000000000E+00 0. -1.
    9000005    1    1    2  501    0  0.21461517927E+03 -0.15815651827E+03  0.28489927619E+03  0.55878507229E+03  0.40000000000E+03 0. -1.
   -9000005    1    1    2    0  502 -0.21461517927E+03  0.15815651827E+03  0.37976516630E+03  0.61261304343E+03  0.40000000000E+03 0. -1.
<mgrwt>
<rscale>  2 0.48070070E+03</rscale>
<asrwt>0</asrwt>
<pdfrwt beam="1">  1       21 0.14123558E+00 0.48070070E+03</pdfrwt>
<pdfrwt beam="2">  1       21 0.38979514E-01 0.48070070E+03</pdfrwt>
<totfact> 0.18795752E+03</totfact>
</mgrwt>
</event>
<event>
 4    1  0.4857079E-002  0.5149112E+03  0.7818608E-02  0.1009959E+00
         21   -1    0    0  503  502  0.00000000000E+00  0.00000000000E+00  0.10657782997E+04  0.10657782997E+04  0.00000000000E+00 0. -1.
         21   -1    0    0  501  503 -0.00000000000E+00 -0.00000000000E+00 -0.31257648921E+03  0.31257648921E+03  0.00000000000E+00 0.  1.
    9000005    1    1    2  501    0 -0.20849428912E+03 -0.24832172772E+03  0.65224520035E+02  0.51902580578E+03  0.40000000000E+03 0.  1.
   -9000005    1    1    2    0  502  0.20849428912E+03  0.24832172772E+03  0.68797729042E+03  0.85932898310E+03  0.40000000000E+03 0. -1.
<mgrwt>
<rscale>  2 0.51491121E+03</rscale>
<asrwt>0</asrwt>
<pdfrwt beam="1">  1       21 0.16396589E+00 0.51491121E+03</pdfrwt>
<pdfrwt beam="2">  1       21 0.48088691E-01 0.51491121E+03</pdfrwt>
<totfact> 0.79467921E+02</totfact>
</mgrwt>
</event>
<event>
 4    1  0.4857079E-002  0.4268645E+03  0.7818608E-02  0.1034855E+00
         21   -1    0    0  503  502  0.00000000000E+00  0.00000000000E+00  0.46519206196E+03  0.46519206196E+03  0.00000000000E+00 0. -1.
         21   -1    0    0  501  503 -0.00000000000E+00 -0.00000000000E+00 -0.44396081153E+03  0.44396081153E+03  0.00000000000E+00 0. -1.
    9000005    1    1    2  501    0 -0.80755402652E+02  0.12526704305E+03 -0.14535567030E+03  0.45093407281E+03  0.40000000000E+03 0. -1.
   -9000005    1    1    2    0  502  0.80755402652E+02 -0.12526704305E+03  0.16658692073E+03  0.45821880068E+03  0.40000000000E+03 0. -1.
<mgrwt>
<rscale>  2 0.42686446E+03</rscale>
<asrwt>0</asrwt>
<pdfrwt beam="1">  1       21 0.71568010E-01 0.42686446E+03</pdfrwt>
<pdfrwt beam="2">  1       21 0.68301663E-01 0.42686446E+03</pdfrwt>
<totfact> 0.30307252E+03</totfact>
</mgrwt>
</event>
<event>
 4    1  0.4857079E-002  0.4041162E+03  0.7818608E-02  0.1042364E+00
         21   -1    0    0  503  502  0.00000000000E+00  0.00000000000E+00  0.24222256914E+03  0.24222256914E+03  0.00000000000E+00 0. -1.
         21   -1    0    0  501  503 -0.00000000000E+00 -0.00000000000E+00 -0.67451311416E+03  0.67451311416E+03  0.00000000000E+00 0. -1.
    9000005    1    1    2  501    0 -0.56795401275E+02 -0.91764546358E+01 -0.22579254240E+03  0.46291705210E+03  0.40000000000E+03 0.  1.
   -9000005    1    1    2    0  502  0.56795401275E+02  0.91764546358E+01 -0.20649800262E+03  0.45381863119E+03  0.40000000000E+03 0.  1.
<mgrwt>
<rscale>  2 0.40411623E+03</rscale>
<asrwt>0</asrwt>
<pdfrwt beam="1">  1       21 0.37265011E-01 0.40411623E+03</pdfrwt>
<pdfrwt beam="2">  1       21 0.10377125E+00 0.40411623E+03</pdfrwt>
<totfact> 0.46493247E+03</totfact>
</mgrwt>
</event>
<event>
 4    1  0.4857079E-002  0.4079649E+03  0.7818608E-02  0.1041056E+00
         21   -1    0    0  503  502  0.00000000000E+00  0.00000000000E+00  0.20482716228E+03  0.20482716228E+03  0.00000000000E+00 0.  1.
         21   -1    0    0  501  503 -0.00000000000E+00 -0.00000000000E+00 -0.12216549493E+04  0.12216549493E+04  0.00000000000E+00 0.  1.
    9000005    1    1    2  501    0  0.55676679335E+00  0.80218876906E+02 -0.92114905859E+03  0.10074477487E+04  0.40000000000E+03 0.  1.
   -9000005    1    1    2    0  502 -0.55676679335E+00 -0.80218876906E+02 -0.95678728416E+02  0.41903436288E+03  0.40000000000E+03 0.  1.
<mgrwt>
<rscale>  2 0.40796492E+03</rscale>
<asrwt>0</asrwt>
<pdfrwt beam="1">  1       21 0.31511871E-01 0.40796492E+03</pdfrwt>
<pdfrwt beam="2">  1       21 0.18794692E+00 0.40796492E+03</pdfrwt>
<totfact> 0.13364888E+03</totfact>
</mgrwt>
</event>
<event>
 4    1  0.4857079E-002  0.4192325E+03  0.7818608E-02  0.1037316E+00
         21   -1    0    0  501  502  0.00000000000E+00  0.00000000000E+00  0.75814530088E+03  0.75814530088E+03  0.00000000000E+00 0. -1.
         21   -1    0    0  502  503 -0.00000000000E+00 -0.00000000000E+00 -0.30089336241E+03  0.30089336241E+03  0.00000000000E+00 0.  1.
    9000005    1    1    2  501    0  0.55529681931E+02 -0.11257138033E+03  0.48232567325E+03  0.63905705248E+03  0.40000000000E+03 0. -1.
   -9000005    1    1    2    0  503 -0.55529681931E+02  0.11257138033E+03 -0.25073734789E+02  0.41998161081E+03  0.40000000000E+03 0.  1.
<mgrwt>
<rscale>  2 0.41923247E+03</rscale>
<asrwt>0</asrwt>
<pdfrwt beam="1">  1       21 0.11663774E+00 0.41923247E+03</pdfrwt>
<pdfrwt beam="2">  1       21 0.46291287E-01 0.41923247E+03</pdfrwt>
<totfact> 0.22101331E+03</totfact>
</mgrwt>
</event>
<event>
 4    1  0.4857079E-002  0.4294350E+03  0.7818608E-02  0.1034039E+00
         21   -1    0    0  501  502  0.00000000000E+00  0.00000000000E+00  0.39852756255E+03  0.39852756255E+03  0.00000000000E+00 0.  1.
         21   -1    0    0  502  503 -0.00000000000E+00 -0.00000000000E+00 -0.46751908767E+03  0.46751908767E+03  0.00000000000E+00 0.  1.
    9000005    1    1    2  501    0  0.76716618223E+02 -0.13612107472E+03  0.92880429932E+01  0.42953539346E+03  0.40000000000E+03 0. -1.
   -9000005    1    1    2    0  503 -0.76716618223E+02  0.13612107472E+03 -0.78279568104E+02  0.43651125676E+03  0.40000000000E+03 0. -1.
<mgrwt>
<rscale>  2 0.42943496E+03</rscale>
<asrwt>0</asrwt>
<pdfrwt beam="1">  1       21 0.61311933E-01 0.42943496E+03</pdfrwt>
<pdfrwt beam="2">  1       21 0.71926013E-01 0.42943496E+03</pdfrwt>
<totfact> 0.38040197E+03</totfact>
</mgrwt>
</event>
<event>
 4    1  0.4857079E-002  0.4661026E+03  0.7818608E-02  0.1023026E+00
         21   -1    0    0  501  502  0.00000000000E+00  0.00000000000E+00  0.99295014223E+03  0.99295014223E+03  0.00000000000E+00 0. -1.
         21   -1    0    0  502  503 -0.00000000000E+00 -0.00000000000E+00 -0.29679911177E+03  0.29679911177E+03  0.00000000000E+00 0.  1.
    9000005    1    1    2  501    0  0.23115555169E+03  0.61796130307E+02  0.67867730006E+03  0.82331921417E+03  0.40000000000E+03 0.  1.
   -9000005    1    1    2    0  503 -0.23115555169E+03 -0.61796130307E+02  0.17473730397E+02  0.46643003982E+03  0.40000000000E+03 0.  1.
<mgrwt>
<rscale>  2 0.46610262E+03</rscale>
<asrwt>0</asrwt>
<pdfrwt beam="1">  1       21 0.15276156E+00 0.46610262E+03</pdfrwt>
<pdfrwt beam="2">  1       21 0.45661402E-01 0.46610262E+03</pdfrwt>
<totfact> 0.11006273E+03</totfact>
</mgrwt>
</event>
<event>
 4    1  0.4857079E-002  0.4646432E+03  0.7818608E-02  0.1023443E+00
         21   -1    0    0  501  502  0.00000000000E+00  0.00000000000E+00  0.30987431503E+03  0.30987431503E+03  0.00000000000E+00 0. -1.
         21   -1    0    0  502  503 -0.00000000000E+00 -0.00000000000E+00 -0.74644972134E+03  0.74644972134E+03  0.00000000000E+00 0. -1.
    9000005    1    1    2  501    0  0.21474758477E+03 -0.98877793220E+02 -0.35462263977E+03  0.58450881926E+03  0.40000000000E+03 0. -1.
   -9000005    1    1    2    0  503 -0.21474758477E+03  0.98877793220E+02 -0.81952766547E+02  0.47181521711E+03  0.40000000000E+03 0. -1.
<mgrwt>
<rscale>  2 0.46464324E+03</rscale>
<asrwt>0</asrwt>
<pdfrwt beam="1">  1       21 0.47672972E-01 0.46464324E+03</pdfrwt>
<pdfrwt beam="2">  1       21 0.11483842E+00 0.46464324E+03</pdfrwt>
<totfact> 0.21223171E+03</totfact>
</mgrwt>
</event>
<event>
 4    1  0.4857079E-002  0.4694427E+03  0.7818608E-02  0.1022078E+00
         21   -1    0    0  501  502  0.00000000000E+00  0.00000000000E+00  0.11859808163E+04  0.11859808163E+04  0.00000000000E+00 0. -1.
         21   -1    0    0  502  503 -0.00000000000E+00 -0.00000000000E+00 -0.18845533183E+03  0.18845533183E+03  0.00000000000E+00 0. -1.
    9000005    1    1    2  501    0 -0.23507600565E+03  0.71524284553E+02  0.41746436378E+03  0.62821409308E+03  0.40000000000E+03 0. -1.
   -9000005    1    1    2    0  503  0.23507600565E+03 -0.71524284553E+02  0.58006112068E+03  0.74622205505E+03  0.40000000000E+03 0. -1.
<mgrwt>
<rscale>  2 0.46944270E+03</rscale>
<asrwt>0</asrwt>
<pdfrwt beam="1">  1       21 0.18245858E+00 0.46944270E+03</pdfrwt>
<pdfrwt beam="2">  1       21 0.28993129E-01 0.46944270E+03</pdfrwt>
<totfact> 0.16753148E+03</totfact>
</mgrwt>
</event>
<event>
 4    1  0.4857079E-002  0.4181182E+03  0.7818608E-02  0.1037681E+00
         21   -1    0    0  503  502  0.00000000000E+00  0.00000000000E+00  0.91983042883E+03  0.91983042883E+03  0.00000000000E+00 0. -1.
         21   -1    0    0  501  503 -0.00000000000E+00 -0.00000000000E+00 -0.25701129382E+03  0.25701129382E+03  0.00000000000E+00 0. -1.
    9000005    1    1    2  501    0 -0.79578240445E+02  0.92141694472E+02  0.63173498541E+03  0.75756971957E+03  0.40000000000E+03 0.  1.
   -9000005    1    1    2    0  502  0.79578240445E+02 -0.92141694472E+02  0.31084149591E+02  0.41927200308E+03  0.40000000000E+03 0.  1.
<mgrwt>
<rscale>  2 0.41811815E+03</rscale>
<asrwt>0</asrwt>
<pdfrwt beam="1">  1       21 0.14151237E+00 0.41811815E+03</pdfrwt>
<pdfrwt beam="2">  1       21 0.39540199E-01 0.41811815E+03</pdfrwt>
<totfact> 0.18613527E+03</totfact>
</mgrwt>
</event>
<event>
 4    1  0.4857079E-002  0.4595510E+03  0.7818608E-02  0.1024912E+00
         21   -1    0    0  501  502  0.00000000000E+00  0.00000000000E+00  0.49103836536E+03  0.49103836536E+03  0.00000000000E+00 0. -1.
         21   -1    0    0  502  503 -0.00000000000E+00 -0.00000000000E+00 -0.43316917055E+03  0.43316917055E+03  0.00000000000E+00 0.  1.
    9000005    1    1    2  501    0 -0.22622967917E+03  0.27016651935E+01 -0.10071554155E+02  0.45966140031E+03  0.40000000000E+03 0. -1.
   -9000005    1    1    2    0  503  0.22622967917E+03 -0.27016651935E+01  0.67940748957E+02  0.46454613560E+03  0.40000000000E+03 0.  1.
<mgrwt>
<rscale>  2 0.45955105E+03</rscale>
<asrwt>0</asrwt>
<pdfrwt beam="1">  1       21 0.75544364E-01 0.45955105E+03</pdfrwt>
<pdfrwt beam="2">  1       21 0.66641411E-01 0.45955105E+03</pdfrwt>
<totfact> 0.27988298E+03</totfact>
</mgrwt>
</event>
<event>
 4    1  0.4857079E-002  0.4267644E+03  0.7818608E-02  0.1034887E+00
         21   -1    0    0  501  502  0.00000000000E+00  0.00000000000E+00  0.16288789009E+04  0.16288789009E+04  0.00000000000E+00 0.  1.
         21   -1    0    0  502  503 -0.00000000000E+00 -0.00000000000E+00 -0.14168564290E+03  0.14168564290E+03  0.00000000000E+00 0.  1.
    9000005    1    1    2  501    0 -0.83002687505E+02 -0.12344392084E+03  0.11501003672E+04  0.12267268247E+04  0.40000000000E+03 0. -1.
   -9000005    1    1    2    0  503  0.83002687505E+02  0.12344392084E+03  0.33709289078E+03  0.54383771912E+03  0.40000000000E+03 0. -1.
<mgrwt>
<rscale>  2 0.42676439E+03</rscale>
<asrwt>0</asrwt>
<pdfrwt beam="1">  1       21 0.25059674E+00 0.42676439E+03</pdfrwt>
<pdfrwt beam="2">  1       21 0.21797792E-01 0.42676439E+03</pdfrwt>
<totfact> 0.10777994E+03</totfact>
</mgrwt>
</event>
<event>
 4    1  0.4857079E-002  0.6006748E+03  0.7818608E-02  0.9904007E-01
         21   -1    0    0  501  502  0.00000000000E+00  0.00000000000E+00  0.29869560508E+03  0.29869560508E+03  0.00000000000E+00 0. -1.
         21   -1    0    0  502  503 -0.00000000000E+00 -0.00000000000E+00 -0.12144359944E+04  0.12144359944E+04  0.00000000000E+00 0.  1.
    9000005    1    1    2  501    0  0.32480660318E+02  0.44693986698E+03 -0.40259264156E+03  0.72311207501E+03  0.40000000000E+03 0. -1.
   -9000005    1    1    2    0  503 -0.32480660318E+02 -0.44693986698E+03 -0.51314774774E+03  0.79001952445E+03  0.40000000000E+03 0.  1.
<mgrwt>
<rscale>  2 0.60067482E+03</rscale>
<asrwt>0</asrwt>
<pdfrwt beam="1">  1       21 0.45953171E-01 0.60067482E+03</pdfrwt>
<pdfrwt beam="2">  1       21 0.18683630E+00 0.60067482E+03</pdfrwt>
<totfact> 0.57981573E+02</totfact>
</mgrwt>
</event>
<event>
 4    1  0.4857079E-002  0.4211237E+03  0.7818608E-02  0.1036701E+00
         21   -1    0    0  501  502  0.00000000000E+00  0.00000000000E+00  0.62670519026E+03  0.62670519026E+03  0.00000000000E+00 0. -1.
         21   -1    0    0  502  503 -0.00000000000E+00 -0.00000000000E+00 -0.29965029584E+03  0.29965029584E+03  0.00000000000E+00 0.  1.
    9000005    1    1    2  501    0 -0.70199908625E+02 -0.11143241232E+03  0.27277415144E+03  0.50174789225E+03  0.40000000000E+03 0. -1.
   -9000005    1    1    2    0  503  0.70199908625E+02  0.11143241232E+03  0.54280742978E+02  0.42460759384E+03  0.40000000000E+03 0.  1.
<mgrwt>
<rscale>  2 0.42112375E+03</rscale>
<asrwt>0</asrwt>
<pdfrwt beam="1">  1       21 0.96416183E-01 0.42112375E+03</pdfrwt>
<pdfrwt beam="2">  1       21 0.46100046E-01 0.42112375E+03</pdfrwt>
<totfact> 0.35569067E+03</totfact>
</mgrwt>
</event>
<event>
 4    1  0.4857079E-002  0.6448581E+03  0.7818608E-02  0.9816476E-01
         21   -1    0    0  503  502  0.00000000000E+00  0.00000000000E+00  0.15488225396E+04  0.15488225396E+04  0.00000000000E+00 0. -1.
         21   -1    0    0  501  503 -0.00000000000E+00 -0.00000000000E+00 -0.30762967018E+03  0.30762967018E+03  0.00000000000E+00 0.  1.
    9000005    1    1    2  501    0  0.50002059033E+03 -0.76298175321E+02  0.95169181825E+03  0.11495909356E+04  0.40000000000E+03 0. -1.
   -9000005    1    1    2    0  502 -0.50002059033E+03  0.76298175321E+02  0.28950105118E+03  0.70686127419E+03  0.40000000000E+03 0.  1.
<mgrwt>
<rscale>  2 0.64485813E+03</rscale>
<asrwt>0</asrwt>
<pdfrwt beam="1">  1       21 0.23828039E+00 0.64485813E+03</pdfrwt>
<pdfrwt beam="2">  1       21 0.47327643E-01 0.64485813E+03</pdfrwt>
<totfact> 0.24532817E+02</totfact>
</mgrwt>
</event>
<event>
 4    1  0.4857079E-002  0.4661662E+03  0.7818608E-02  0.1023008E+00
         21   -1    0    0  501  502  0.00000000000E+00  0.00000000000E+00  0.66278954398E+02  0.66278954398E+02  0.00000000000E+00 0. -1.
         21   -1    0    0  502  503 -0.00000000000E+00 -0.00000000000E+00 -0.34957188695E+04  0.34957188695E+04  0.00000000000E+00 0. -1.
    9000005    1    1    2  501    0  0.20943501668E+03  0.11596495074E+03 -0.12709962577E+04  0.13537881603E+04  0.40000000000E+03 0. -1.
   -9000005    1    1    2    0  503 -0.20943501668E+03 -0.11596495074E+03 -0.21584436574E+04  0.22082096636E+04  0.40000000000E+03 0. -1.
<mgrwt>
<rscale>  2 0.46616617E+03</rscale>
<asrwt>0</asrwt>
<pdfrwt beam="1">  1       21 0.10196764E-01 0.46616617E+03</pdfrwt>
<pdfrwt beam="2">  1       21 0.53780282E+00 0.46616617E+03</pdfrwt>
<totfact> 0.58577774E+01</totfact>
</mgrwt>
</event>
<event>
 4    1  0.4857079E-002  0.4742876E+03  0.7818608E-02  0.1020717E+00
         21   -1    0    0  501  502  0.00000000000E+00  0.00000000000E+00  0.61658159108E+03  0.61658159108E+03  0.00000000000E+00 0. -1.
         21   -1    0    0  502  503 -0.00000000000E+00 -0.00000000000E+00 -0.44798397867E+03  0.44798397867E+03  0.00000000000E+00 0. -1.
    9000005    1    1    2  501    0 -0.25439886744E+03 -0.15163510194E+02  0.31362168512E+03  0.56860115826E+03  0.40000000000E+03 0. -1.
   -9000005    1    1    2    0  503  0.25439886744E+03  0.15163510194E+02 -0.14502407272E+03  0.49596441149E+03  0.40000000000E+03 0. -1.
<mgrwt>
<rscale>  2 0.47428759E+03</rscale>
<asrwt>0</asrwt>
<pdfrwt beam="1">  1       21 0.94858707E-01 0.47428759E+03</pdfrwt>
<pdfrwt beam="2">  1       21 0.68920612E-01 0.47428759E+03</pdfrwt>
<totfact> 0.15153463E+03</totfact>
</mgrwt>
</event>
<event>
 4    1  0.4857079E-002  0.4431545E+03  0.7818608E-02  0.1029783E+00
         21   -1    0    0  503  502  0.00000000000E+00  0.00000000000E+00  0.10789712579E+04  0.10789712579E+04  0.00000000000E+00 0.  1.
         21   -1    0    0  501  503 -0.00000000000E+00 -0.00000000000E+00 -0.32408932837E+03  0.32408932837E+03  0.00000000000E+00 0. -1.
    9000005    1    1    2  501    0 -0.13378790521E+03 -0.13596577746E+03 -0.87048855454E+02  0.45162307233E+03  0.40000000000E+03 0. -1.
   -9000005    1    1    2    0  502  0.13378790521E+03  0.13596577746E+03  0.84193078498E+03  0.95143751393E+03  0.40000000000E+03 0.  1.
<mgrwt>
<rscale>  2 0.44315448E+03</rscale>
<asrwt>0</asrwt>
<pdfrwt beam="1">  1       21 0.16599558E+00 0.44315448E+03</pdfrwt>
<pdfrwt beam="2">  1       21 0.49859897E-01 0.44315448E+03</pdfrwt>
<totfact> 0.73269391E+02</totfact>
</mgrwt>
</event>
<event>
 4    1  0.4857079E-002  0.4191225E+03  0.7818608E-02  0.1037352E+00
         21   -1    0    0  503  502  0.00000000000E+00  0.00000000000E+00  0.61797920281E+03  0.61797920281E+03  0.00000000000E+00 0.  1.
         21   -1    0    0  501  503 -0.00000000000E+00 -0.00000000000E+00 -0.64481381783E+03  0.64481381783E+03  0.00000000000E+00 0.  1.
    9000005    1    1    2  501    0 -0.12277240171E+03  0.24302531170E+02 -0.48555978291E+03  0.64142963638E+03  0.40000000000E+03 0.  1.
   -9000005    1    1    2    0  502  0.12277240171E+03 -0.24302531170E+02  0.45872516789E+03  0.62136338426E+03  0.40000000000E+03 0.  1.
<mgrwt>
<rscale>  2 0.41912251E+03</rscale>
<asrwt>0</asrwt>
<pdfrwt beam="1">  1       21 0.95073724E-01 0.41912251E+03</pdfrwt>
<pdfrwt beam="2">  1       21 0.99202125E-01 0.41912251E+03</pdfrwt>
<totfact> 0.66058615E+02</totfact>
</mgrwt>
</event>
<event>
 4    1  0.4857079E-002  0.4263631E+03  0.7818608E-02  0.1035015E+00
         21   -1    0    0  501  502  0.00000000000E+00  0.00000000000E+00  0.28677044042E+03  0.28677044042E+03  0.00000000000E+00 0. -1.
         21   -1    0    0  502  503 -0.00000000000E+00 -0.00000000000E+00 -0.84052140629E+03  0.84052140629E+03  0.00000000000E+00 0.  1.
    9000005    1    1    2  501    0 -0.72311486833E+02 -0.12867212124E+03  0.25805354218E+01  0.42637087738E+03  0.40000000000E+03 0. -1.
   -9000005    1    1    2    0  503  0.72311486833E+02  0.12867212124E+03 -0.55633150129E+03  0.70092096933E+03  0.40000000000E+03 0.  1.
<mgrwt>
<rscale>  2 0.42636307E+03</rscale>
<asrwt>0</asrwt>
<pdfrwt beam="1">  1       21 0.44118530E-01 0.42636307E+03</pdfrwt>
<pdfrwt beam="2">  1       21 0.12931098E+00 0.42636307E+03</pdfrwt>
<totfact> 0.18727991E+03</totfact>
</mgrwt>
</event>
<event>
 4    1  0.4857079E-002  0.4616438E+03  0.7818608E-02  0.1024306E+00
         21   -1    0    0  503  502  0.00000000000E+00  0.00000000000E+00  0.13929706093E+04  0.13929706093E+04  0.00000000000E+00 0. -1.
         21   -1    0    0  501  503 -0.00000000000E+00 -0.00000000000E+00 -0.22977125836E+03  0.22977125836E+03  0.00000000000E+00 0. -1.
    9000005    1    1    2  501    0  0.27566717005E+02 -0.22881225678E+03  0.10506185015E+04  0.11475688251E+04  0.40000000000E+03 0. -1.
   -9000005    1    1    2    0  502 -0.27566717005E+02  0.22881225678E+03  0.11258084953E+03  0.47517304261E+03  0.40000000000E+03 0. -1.
<mgrwt>
<rscale>  2 0.46164377E+03</rscale>
<asrwt>0</asrwt>
<pdfrwt beam="1">  1       21 0.21430317E+00 0.46164377E+03</pdfrwt>
<pdfrwt beam="2">  1       21 0.35349425E-01 0.46164377E+03</pdfrwt>
<totfact> 0.69063236E+02</totfact>
</mgrwt>
</event>
<event>
 4    1  0.4857079E-002  0.4648023E+03  0.7818608E-02  0.1023398E+00
         21   -1    0    0  503  502  0.00000000000E+00  0.00000000000E+00  0.58170232486E+03  0.58170232486E+03  0.00000000000E+00 0. -1.
         21   -1    0    0  501  503 -0.00000000000E+00 -0.00000000000E+00 -0.82766140733E+03  0.82766140733E+03  0.00000000000E+00 0. -1.
    9000005    1    1    2  501    0  0.20468494276E+03  0.11893394687E+03 -0.64618961027E+03  0.79599134539E+03  0.40000000000E+03 0. -1.
   -9000005    1    1    2    0  502 -0.20468494276E+03 -0.11893394687E+03  0.40023052779E+03  0.61337238680E+03  0.40000000000E+03 0. -1.
<mgrwt>
<rscale>  2 0.46480233E+03</rscale>
<asrwt>0</asrwt>
<pdfrwt beam="1">  1       21 0.89492666E-01 0.46480233E+03</pdfrwt>
<pdfrwt beam="2">  1       21 0.12733252E+00 0.46480233E+03</pdfrwt>
<totfact> 0.40039829E+02</totfact>
</mgrwt>
</event>
<event>
 4    1  0.4857079E-002  0.6282816E+03  0.7818608E-02  0.9848408E-01
         21   -1    0    0  503  502  0.00000000000E+00  0.00000000000E+00  0.17500436750E+03  0.17500436750E+03  0.00000000000E+00 0.  1.
         21   -1    0    0  501  503 -0.00000000000E+00 -0.00000000000E+00 -0.25627419304E+04  0.25627419304E+04  0.00000000000E+00 0.  1.
    9000005    1    1    2  501    0 -0.48430352666E+03  0.13705927070E+02 -0.16677710386E+04  0.17821891021E+04  0.40000000000E+03 0.  1.
   -9000005    1    1    2    0  502  0.48430352666E+03 -0.13705927070E+02 -0.71996652430E+03  0.95555719582E+03  0.40000000000E+03 0.  1.
<mgrwt>
<rscale>  2 0.62828159E+03</rscale>
<asrwt>0</asrwt>
<pdfrwt beam="1">  1       21 0.26923751E-01 0.62828159E+03</pdfrwt>
<pdfrwt beam="2">  1       21 0.39426796E+00 0.62828159E+03</pdfrwt>
<totfact> 0.84318975E+01</totfact>
</mgrwt>
</event>
<event>
 4    1  0.4857079E-002  0.4575805E+03  0.7818608E-02  0.1025485E+00
         21   -1    0    0  503  502  0.00000000000E+00  0.00000000000E+00  0.90059656428E+03  0.90059656428E+03  0.00000000000E+00 0. -1.
         21   -1    0    0  501  503 -0.00000000000E+00 -0.00000000000E+00 -0.55609444037E+03  0.55609444037E+03  0.00000000000E+00 0. -1.
    9000005    1    1    2  501    0  0.15204647581E+03  0.16205473683E+03 -0.38335921876E+03  0.59694569196E+03  0.40000000000E+03 0. -1.
   -9000005    1    1    2    0  502 -0.15204647581E+03 -0.16205473683E+03  0.72786134268E+03  0.85974531269E+03  0.40000000000E+03 0. -1.
<mgrwt>
<rscale>  2 0.45758045E+03</rscale>
<asrwt>0</asrwt>
<pdfrwt beam="1">  1       21 0.13855332E+00 0.45758045E+03</pdfrwt>
<pdfrwt beam="2">  1       21 0.85552990E-01 0.45758045E+03</pdfrwt>
<totfact> 0.35823896E+02</totfact>
</mgrwt>
</event>
<event>
 4    1  0.4857079E-002  0.4135573E+03  0.7818608E-02  0.1039184E+00
         21   -1    0    0  503  502  0.00000000000E+00  0.00000000000E+00  0.24005133243E+03  0.24005133243E+03  0.00000000000E+00 0. -1.
         21   -1    0    0  501  503 -0.00000000000E+00 -0.00000000000E+00 -0.74860763902E+03  0.74860763902E+03  0.00000000000E+00 0. -1.
    9000005    1    1    2  501    0  0.97510429458E+02  0.39004798331E+02 -0.14567007384E+03  0.43846257373E+03  0.40000000000E+03 0. -1.
   -9000005    1    1    2    0  502 -0.97510429458E+02 -0.39004798331E+02 -0.36288623276E+03  0.55019639773E+03  0.40000000000E+03 0. -1.
<mgrwt>
<rscale>  2 0.41355732E+03</rscale>
<asrwt>0</asrwt>
<pdfrwt beam="1">  1       21 0.36930975E-01 0.41355732E+03</pdfrwt>
<pdfrwt beam="2">  1       21 0.11517040E+00 0.41355732E+03</pdfrwt>
<totfact> 0.36464455E+03</totfact>
</mgrwt>
</event>
<event>
 4    1  0.4857079E-002  0.5531138E+03  0.7818608E-02  0.1000776E+00
         21   -1    0    0  503  502  0.00000000000E+00  0.00000000000E+00  0.22738841798E+03  0.22738841798E+03  0.00000000000E+00 0. -1.
         21   -1    0    0  501  503 -0.00000000000E+00 -0.00000000000E+00 -0.14096441887E+04  0.14096441887E+04  0.00000000000E+00 0. -1.
    9000005    1    1    2  501    0 -0.97485694734E+02  0.36936624416E+03 -0.76582783669E+03  0.94468362876E+03  0.40000000000E+03 0. -1.
   -9000005    1    1    2    0  502  0.97485694734E+02 -0.36936624416E+03 -0.41642793408E+03  0.69234897797E+03  0.40000000000E+03 0. -1.
<mgrwt>
<rscale>  2 0.55311381E+03</rscale>
<asrwt>0</asrwt>
<pdfrwt beam="1">  1       21 0.34982834E-01 0.55311381E+03</pdfrwt>
<pdfrwt beam="2">  1       21 0.21686833E+00 0.55311381E+03</pdfrwt>
<totfact> 0.65268860E+02</totfact>
</mgrwt>
</event>
<event>
 4    1  0.4857079E-002  0.4273355E+03  0.7818608E-02  0.1034705E+00
         21   -1    0    0  501  502  0.00000000000E+00  0.00000000000E+00  0.10732371768E+04  0.10732371768E+04  0.00000000000E+00 0. -1.
         21   -1    0    0  502  503 -0.00000000000E+00 -0.00000000000E+00 -0.42289740970E+03  0.42289740970E+03  0.00000000000E+00 0. -1.
    9000005    1    1    2  501    0 -0.77625110564E+02  0.12880204966E+03  0.90348301384E+03  0.99944843894E+03  0.40000000000E+03 0. -1.
   -9000005    1    1    2    0  503  0.77625110564E+02 -0.12880204966E+03 -0.25314324676E+03  0.49668614755E+03  0.40000000000E+03 0. -1.
<mgrwt>
<rscale>  2 0.42733550E+03</rscale>
<asrwt>0</asrwt>
<pdfrwt beam="1">  1       21 0.16511341E+00 0.42733550E+03</pdfrwt>
<pdfrwt beam="2">  1       21 0.65061141E-01 0.42733550E+03</pdfrwt>
<totfact> 0.42055778E+02</totfact>
</mgrwt>
</event>
<event>
 4    1  0.4857079E-002  0.6269432E+03  0.7818608E-02  0.9851032E-01
         21   -1    0    0  503  502  0.00000000000E+00  0.00000000000E+00  0.48424255559E+03  0.48424255559E+03  0.00000000000E+00 0.  1.
         21   -1    0    0  501  503 -0.00000000000E+00 -0.00000000000E+00 -0.87584014993E+03  0.87584014993E+03  0.00000000000E+00 0.  1.
    9000005    1    1    2  501    0 -0.22187357345E+03  0.42875394940E+03 -0.37983396479E+03  0.73302910756E+03  0.40000000000E+03 0.  1.
   -9000005    1    1    2    0  502  0.22187357345E+03 -0.42875394940E+03 -0.11763629551E+02  0.62705359795E+03  0.40000000000E+03 0.  1.
<mgrwt>
<rscale>  2 0.62694324E+03</rscale>
<asrwt>0</asrwt>
<pdfrwt beam="1">  1       21 0.74498856E-01 0.62694324E+03</pdfrwt>
<pdfrwt beam="2">  1       21 0.13474464E+00 0.62694324E+03</pdfrwt>
<totfact> 0.49805350E+02</totfact>
</mgrwt>
</event>
<event>
 4    1  0.4857079E-002  0.5136780E+03  0.7818608E-02  0.1010269E+00
         21   -1    0    0  503  502  0.00000000000E+00  0.00000000000E+00  0.14688587688E+04  0.14688587688E+04  0.00000000000E+00 0. -1.
         21   -1    0    0  501  503 -0.00000000000E+00 -0.00000000000E+00 -0.20086367611E+03  0.20086367611E+03  0.00000000000E+00 0. -1.
    9000005    1    1    2  501    0  0.27551992980E+03  0.16719416369E+03  0.90537799214E+03  0.10409488118E+04  0.40000000000E+03 0. -1.
   -9000005    1    1    2    0  502 -0.27551992980E+03 -0.16719416369E+03  0.36261710051E+03  0.62877363309E+03  0.40000000000E+03 0. -1.
<mgrwt>
<rscale>  2 0.51367803E+03</rscale>
<asrwt>0</asrwt>
<pdfrwt beam="1">  1       21 0.22597826E+00 0.51367803E+03</pdfrwt>
<pdfrwt beam="2">  1       21 0.30902105E-01 0.51367803E+03</pdfrwt>
<totfact> 0.74423023E+02</totfact>
</mgrwt>
</event>
<event>
 4    1  0.4857079E-002  0.4409433E+03  0.7818608E-02  0.1030458E+00
         21   -1    0    0  503  502  0.00000000000E+00  0.00000000000E+00  0.36141600782E+03  0.36141600782E+03  0.00000000000E+00 0.  1.
         21   -1    0    0  501  503 -0.00000000000E+00 -0.00000000000E+00 -0.80382452689E+03  0.80382452689E+03  0.00000000000E+00 0.  1.
    9000005    1    1    2  501    0  0.12070289475E+03 -0.14093193143E+03 -0.55626761018E+03  0.70983424279E+03  0.40000000000E+03 0.  1.
   -9000005    1    1    2    0  502 -0.12070289475E+03  0.14093193143E+03  0.11385909111E+03  0.45540629193E+03  0.40000000000E+03 0.  1.
<mgrwt>
<rscale>  2 0.44094330E+03</rscale>
<asrwt>0</asrwt>
<pdfrwt beam="1">  1       21 0.55602463E-01 0.44094330E+03</pdfrwt>
<pdfrwt beam="2">  1       21 0.12366531E+00 0.44094330E+03</pdfrwt>
<totfact> 0.12779441E+03</totfact>
</mgrwt>
</event>
<event>
 4    1  0.4857079E-002  0.4661500E+03  0.7818608E-02  0.1023013E+00
         21   -1    0    0  503  502  0.00000000000E+00  0.00000000000E+00  0.48676180796E+03  0.48676180796E+03  0.00000000000E+00 0.  1.
         21   -1    0    0  501  503 -0.00000000000E+00 -0.00000000000E+00 -0.80576079075E+03  0.80576079075E+03  0.00000000000E+00 0.  1.
    9000005    1    1    2  501    0  0.18713012863E+03  0.14925859915E+03 -0.59108196129E+03  0.75277732393E+03  0.40000000000E+03 0.  1.
   -9000005    1    1    2    0  502 -0.18713012863E+03 -0.14925859915E+03  0.27208297850E+03  0.53974527478E+03  0.40000000000E+03 0.  1.
<mgrwt>
<rscale>  2 0.46614999E+03</rscale>
<asrwt>0</asrwt>
<pdfrwt beam="1">  1       21 0.74886433E-01 0.46614999E+03</pdfrwt>
<pdfrwt beam="2">  1       21 0.12396320E+00 0.46614999E+03</pdfrwt>
<totfact> 0.64875221E+02</totfact>
</mgrwt>
</event>
<event>
 4    1  0.4857079E-002  0.6103714E+03  0.7818608E-02  0.9884119E-01
         21   -1    0    0  503  502  0.00000000000E+00  0.00000000000E+00  0.86029503662E+03  0.86029503662E+03  0.00000000000E+00 0.  1.
         21   -1    0    0  501  503 -0.00000000000E+00 -0.00000000000E+00 -0.63428786598E+03  0.63428786598E+03  0.00000000000E+00 0.  1.
    9000005    1    1    2  501    0 -0.35503725354E+03 -0.29411186166E+03 -0.30791544597E+03  0.68364110500E+03  0.40000000000E+03 0.  1.
   -9000005    1    1    2    0  502  0.35503725354E+03  0.29411186166E+03  0.53392261660E+03  0.81094179760E+03  0.40000000000E+03 0.  1.
<mgrwt>
<rscale>  2 0.61037139E+03</rscale>
<asrwt>0</asrwt>
<pdfrwt beam="1">  1       21 0.13235308E+00 0.61037139E+03</pdfrwt>
<pdfrwt beam="2">  1       21 0.97582748E-01 0.61037139E+03</pdfrwt>
<totfact> 0.27761776E+02</totfact>
</mgrwt>
</event>
<event>
 4    1  0.4857079E-002  0.4025572E+03  0.7818608E-02  0.1042898E+00
         21   -1    0    0  501  502  0.00000000000E+00  0.00000000000E+00  0.10584013123E+03  0.10584013123E+03  0.00000000000E+00 0.  1.
         21   -1    0    0  502  503 -0.00000000000E+00 -0.00000000000E+00 -0.16291427236E+04  0.16291427236E+04  0.00000000000E+00 0.  1.
    9000005    1    1    2  501    0  0.30651403413E+02  0.33359107947E+02 -0.54884593772E+03  0.68064983800E+03  0.40000000000E+03 0.  1.
   -9000005    1    1    2    0  503 -0.30651403413E+02 -0.33359107947E+02 -0.97445665467E+03  0.10543330169E+04  0.40000000000E+03 0.  1.
<mgrwt>
<rscale>  2 0.40255725E+03</rscale>
<asrwt>0</asrwt>
<pdfrwt beam="1">  1       21 0.16283097E-01 0.40255725E+03</pdfrwt>
<pdfrwt beam="2">  1       21 0.25063734E+00 0.40255725E+03</pdfrwt>
<totfact> 0.18930564E+03</totfact>
</mgrwt>
</event>
<event>
 4    1  0.4857079E-002  0.4152002E+03  0.7818608E-02  0.1038640E+00
         21   -1    0    0  501  502  0.00000000000E+00  0.00000000000E+00  0.26649276879E+03  0.26649276879E+03  0.00000000000E+00 0. -1.
         21   -1    0    0  502  503 -0.00000000000E+00 -0.00000000000E+00 -0.20109849128E+04  0.20109849128E+04  0.00000000000E+00 0.  1.
    9000005    1    1    2  501    0 -0.10994189667E+03  0.17435767640E+02  0.65622947574E+02  0.42035413390E+03  0.40000000000E+03 0. -1.
   -9000005    1    1    2    0  503  0.10994189667E+03 -0.17435767640E+02 -0.18101150916E+04  0.18571235477E+04  0.40000000000E+03 0.  1.
<mgrwt>
<rscale>  2 0.41520022E+03</rscale>
<asrwt>0</asrwt>
<pdfrwt beam="1">  1       21 0.40998886E-01 0.41520022E+03</pdfrwt>
<pdfrwt beam="2">  1       21 0.30938230E+00 0.41520022E+03</pdfrwt>
<totfact> 0.13696645E+02</totfact>
</mgrwt>
</event>
<event>
 4    1  0.4857079E-002  0.5312477E+03  0.7818608E-02  0.1005930E+00
         21   -1    0    0  501  502  0.00000000000E+00  0.00000000000E+00  0.15894386461E+03  0.15894386461E+03  0.00000000000E+00 0.  1.
         21   -1    0    0  502  503 -0.00000000000E+00 -0.00000000000E+00 -0.20539982627E+04  0.20539982627E+04  0.00000000000E+00 0. -1.
    9000005    1    1    2  501    0 -0.28835177477E+03 -0.19768009107E+03 -0.13548665914E+04  0.14552964114E+04  0.40000000000E+03 0. -1.
   -9000005    1    1    2    0  503  0.28835177477E+03  0.19768009107E+03 -0.54018780669E+03  0.75764571596E+03  0.40000000000E+03 0.  1.
<mgrwt>
<rscale>  2 0.53124774E+03</rscale>
<asrwt>0</asrwt>
<pdfrwt beam="1">  1       21 0.24452904E-01 0.53124774E+03</pdfrwt>
<pdfrwt beam="2">  1       21 0.31599971E+00 0.53124774E+03</pdfrwt>
<totfact> 0.32851626E+02</totfact>
</mgrwt>
</event>
<event>
 4    1  0.4857079E-002  0.4971401E+03  0.7818608E-02  0.1014528E+00
         21   -1    0    0  501  502  0.00000000000E+00  0.00000000000E+00  0.74761616595E+03  0.74761616595E+03  0.00000000000E+00 0.  1.
         21   -1    0    0  502  503 -0.00000000000E+00 -0.00000000000E+00 -0.50630234017E+03  0.50630234017E+03  0.00000000000E+00 0.  1.
    9000005    1    1    2  501    0 -0.11473579144E+03 -0.27200002766E+03  0.49001327352E+03  0.69804106262E+03  0.40000000000E+03 0.  1.
   -9000005    1    1    2    0  503  0.11473579144E+03  0.27200002766E+03 -0.24869944775E+03  0.55587744350E+03  0.40000000000E+03 0.  1.
<mgrwt>
<rscale>  2 0.49714014E+03</rscale>
<asrwt>0</asrwt>
<pdfrwt beam="1">  1       21 0.11501787E+00 0.49714014E+03</pdfrwt>
<pdfrwt beam="2">  1       21 0.77892668E-01 0.49714014E+03</pdfrwt>
<totfact> 0.70796432E+02</totfact>
</mgrwt>
</event>
<event>
 4    1  0.4857079E-002  0.4113886E+03  0.7818608E-02  0.1039906E+00
         21   -1    0    0  503  502  0.00000000000E+00  0.00000000000E+00  0.13273973905E+04  0.13273973905E+04  0.00000000000E+00 0. -1.
         21   -1    0    0  501  503 -0.00000000000E+00 -0.00000000000E+00 -0.21014899944E+03  0.21014899944E+03  0.00000000000E+00 0. -1.
    9000005    1    1    2  501    0  0.31331586552E+02 -0.90878592601E+02  0.76500500397E+02  0.41844105137E+03  0.40000000000E+03 0. -1.
   -9000005    1    1    2    0  502 -0.31331586552E+02  0.90878592601E+02  0.10407478907E+04  0.11191053386E+04  0.40000000000E+03 0. -1.
<mgrwt>
<rscale>  2 0.41138861E+03</rscale>
<asrwt>0</asrwt>
<pdfrwt beam="1">  1       21 0.20421498E+00 0.41138861E+03</pdfrwt>
<pdfrwt beam="2">  1       21 0.32330616E-01 0.41138861E+03</pdfrwt>
<totfact> 0.98577896E+02</totfact>
</mgrwt>
</event>
<event>
 4    1  0.4857079E-002  0.5020302E+03  0.7818608E-02  0.1013250E+00
         21   -1    0    0  503  502  0.00000000000E+00  0.00000000000E+00  0.45694637100E+03  0.45694637100E+03  0.00000000000E+00 0. -1.
         21   -1    0    0  501  503 -0.00000000000E+00 -0.00000000000E+00 -0.13216520345E+04  0.13216520345E+04  0.00000000000E+00 0. -1.
    9000005    1    1    2  501    0  0.24384250580E+03 -0.18048587440E+03 -0.11111813054E+04  0.12193269504E+04  0.40000000000E+03 0. -1.
   -9000005    1    1    2    0  502 -0.24384250580E+03  0.18048587440E+03  0.24647564187E+03  0.55927145513E+03  0.40000000000E+03 0. -1.
<mgrwt>
<rscale>  2 0.50203020E+03</rscale>
<asrwt>0</asrwt>
<pdfrwt beam="1">  1       21 0.70299443E-01 0.50203020E+03</pdfrwt>
<pdfrwt beam="2">  1       21 0.20333108E+00 0.50203020E+03</pdfrwt>
<totfact> 0.18428708E+02</totfact>
</mgrwt>
</event>
<event>
 4    1  0.4857079E-002  0.4184430E+03  0.7818608E-02  0.1037574E+00
         21   -1    0    0  501  502  0.00000000000E+00  0.00000000000E+00  0.61934476681E+03  0.61934476681E+03  0.00000000000E+00 0.  1.
         21   -1    0    0  502  503 -0.00000000000E+00 -0.00000000000E+00 -0.50361971586E+03  0.50361971586E+03  0.00000000000E+00 0.  1.
    9000005    1    1    2  501    0  0.59105584737E+02  0.10770837481E+03  0.42973385652E+03  0.59980476123E+03  0.40000000000E+03 0.  1.
   -9000005    1    1    2    0  503 -0.59105584737E+02 -0.10770837481E+03 -0.31400880558E+03  0.52315972144E+03  0.40000000000E+03 0.  1.
<mgrwt>
<rscale>  2 0.41844302E+03</rscale>
<asrwt>0</asrwt>
<pdfrwt beam="1">  1       21 0.95283810E-01 0.41844302E+03</pdfrwt>
<pdfrwt beam="2">  1       21 0.77479957E-01 0.41844302E+03</pdfrwt>
<totfact> 0.11754251E+03</totfact>
</mgrwt>
</event>
<event>
 4    1  0.4857079E-002  0.4260293E+03  0.7818608E-02  0.1035122E+00
         21   -1    0    0  501  502  0.00000000000E+00  0.00000000000E+00  0.16779295564E+04  0.16779295564E+04  0.00000000000E+00 0. -1.
         21   -1    0    0  502  503 -0.00000000000E+00 -0.00000000000E+00 -0.11201802190E+03  0.11201802190E+03  0.00000000000E+00 0. -1.
    9000005    1    1    2  501    0  0.24668165666E+02  0.14454210936E+03  0.94884136654E+03  0.10400965718E+04  0.40000000000E+03 0. -1.
   -9000005    1    1    2    0  503 -0.24668165666E+02 -0.14454210936E+03  0.61707016792E+03  0.74985100648E+03  0.40000000000E+03 0. -1.
<mgrwt>
<rscale>  2 0.42602927E+03</rscale>
<asrwt>0</asrwt>
<pdfrwt beam="1">  1       21 0.25814299E+00 0.42602927E+03</pdfrwt>
<pdfrwt beam="2">  1       21 0.17233543E-01 0.42602927E+03</pdfrwt>
<totfact> 0.15137831E+03</totfact>
</mgrwt>
</event>
<event>
 4    1  0.4857079E-002  0.4871100E+03  0.7818608E-02  0.1017199E+00
         21   -1    0    0  503  502  0.00000000000E+00  0.00000000000E+00  0.60222313853E+03  0.60222313853E+03  0.00000000000E+00 0. -1.
         21   -1    0    0  501  503 -0.00000000000E+00 -0.00000000000E+00 -0.46583765757E+03  0.46583765757E+03  0.00000000000E+00 0.  1.
    9000005    1    1    2  501    0  0.35056598509E+02  0.27576662865E+03 -0.14151929131E+03  0.50725132665E+03  0.40000000000E+03 0.  1.
   -9000005    1    1    2    0  502 -0.35056598509E+02 -0.27576662865E+03  0.27790477228E+03  0.56080946945E+03  0.40000000000E+03 0. -1.
<mgrwt>
<rscale>  2 0.48711005E+03</rscale>
<asrwt>0</asrwt>
<pdfrwt beam="1">  1       21 0.92649714E-01 0.48711005E+03</pdfrwt>
<pdfrwt beam="2">  1       21 0.71667332E-01 0.48711005E+03</pdfrwt>
<totfact> 0.14610019E+03</totfact>
</mgrwt>
</event>
<event>
 4    1  0.4857079E-002  0.4235385E+03  0.7818608E-02  0.1035921E+00
         21   -1    0    0  503  502  0.00000000000E+00  0.00000000000E+00  0.13347798556E+04  0.13347798556E+04  0.00000000000E+00 0. -1.
         21   -1    0    0  501  503 -0.00000000000E+00 -0.00000000000E+00 -0.16533772671E+03  0.16533772671E+03  0.00000000000E+00 0. -1.
    9000005    1    1    2  501    0 -0.13238775471E+03 -0.43108516272E+02  0.26022925401E+03  0.49709569141E+03  0.40000000000E+03 0. -1.
   -9000005    1    1    2    0  502  0.13238775471E+03  0.43108516272E+02  0.90921287491E+03  0.10030218909E+04  0.40000000000E+03 0. -1.
<mgrwt>
<rscale>  2 0.42353850E+03</rscale>
<asrwt>0</asrwt>
<pdfrwt beam="1">  1       21 0.20535074E+00 0.42353850E+03</pdfrwt>
<pdfrwt beam="2">  1       21 0.25436574E-01 0.42353850E+03</pdfrwt>
<totfact> 0.15463585E+03</totfact>
</mgrwt>
</event>
<event>
 4    1  0.4857079E-002  0.5547503E+03  0.7818608E-02  0.1000400E+00
         21   -1    0    0  503  502  0.00000000000E+00  0.00000000000E+00  0.46081006985E+03  0.46081006985E+03  0.00000000000E+00 0.  1.
         21   -1    0    0  501  503 -0.00000000000E+00 -0.00000000000E+00 -0.67162874158E+03  0.67162874158E+03  0.00000000000E+00 0. -1.
    9000005    1    1    2  501    0 -0.28623618368E+03  0.25654763285E+03 -0.14793121117E+03  0.57413542306E+03  0.40000000000E+03 0.  1.
   -9000005    1    1    2    0  502  0.28623618368E+03 -0.25654763285E+03 -0.62887460568E+02  0.55830338837E+03  0.40000000000E+03 0.  1.
<mgrwt>
<rscale>  2 0.55475025E+03</rscale>
<asrwt>0</asrwt>
<pdfrwt beam="1">  1       21 0.70893857E-01 0.55475025E+03</pdfrwt>
<pdfrwt beam="2">  1       21 0.10332750E+00 0.55475025E+03</pdfrwt>
<totfact> 0.11231292E+03</totfact>
</mgrwt>
</event>
<event>
 4    1  0.4857079E-002  0.5348351E+03  0.7818608E-02  0.1005066E+00
         21   -1    0    0  503  502  0.00000000000E+00  0.00000000000E+00  0.31281562890E+03  0.31281562890E+03  0.00000000000E+00 0. -1.
         21   -1    0    0  501  503 -0.00000000000E+00 -0.00000000000E+00 -0.91788062493E+03  0.91788062493E+03  0.00000000000E+00 0.  1.
    9000005    1    1    2  501    0  0.74041273301E+01  0.35495594976E+03 -0.34025197109E+03  0.63389269692E+03  0.40000000000E+03 0. -1.
   -9000005    1    1    2    0  502 -0.74041273301E+01 -0.35495594976E+03 -0.26481302493E+03  0.59680355691E+03  0.40000000000E+03 0.  1.
<mgrwt>
<rscale>  2 0.53483507E+03</rscale>
<asrwt>0</asrwt>
<pdfrwt beam="1">  1       21 0.48125482E-01 0.53483507E+03</pdfrwt>
<pdfrwt beam="2">  1       21 0.14121240E+00 0.53483507E+03</pdfrwt>
<totfact> 0.11875885E+03</totfact>
</mgrwt>
</event>
<event>
 4    1  0.4857079E-002  0.4569632E+03  0.7818608E-02  0.1025666E+00
         21   -1    0    0  503  502  0.00000000000E+00  0.00000000000E+00  0.15883214626E+04  0.15883214626E+04  0.00000000000E+00 0. -1.
         21   -1    0    0  501  503 -0.00000000000E+00 -0.00000000000E+00 -0.15126197413E+03  0.15126197413E+03  0.00000000000E+00 0.  1.
    9000005    1    1    2  501    0 -0.20929211680E+03  0.70797002859E+02  0.40389741216E+03  0.60987582779E+03  0.40000000000E+03 0.  1.
   -9000005    1    1    2    0  502  0.20929211680E+03 -0.70797002859E+02  0.10331620763E+04  0.11297076089E+04  0.40000000000E+03 0. -1.
<mgrwt>
<rscale>  2 0.45696324E+03</rscale>
<asrwt>0</asrwt>
<pdfrwt beam="1">  1       21 0.24435714E+00 0.45696324E+03</pdfrwt>
<pdfrwt beam="2">  1       21 0.23271074E-01 0.45696324E+03</pdfrwt>
<totfact> 0.10225291E+03</totfact>
</mgrwt>
</event>
<event>
 4    1  0.4857079E-002  0.4150840E+03  0.7818608E-02  0.1038678E+00
         21   -1    0    0  501  502  0.00000000000E+00  0.00000000000E+00  0.34240017058E+03  0.34240017058E+03  0.00000000000E+00 0. -1.
         21   -1    0    0  502  503 -0.00000000000E+00 -0.00000000000E+00 -0.81369444643E+03  0.81369444643E+03  0.00000000000E+00 0. -1.
    9000005    1    1    2  501    0 -0.44298012153E+02  0.10164831483E+03  0.12142981115E+03  0.43248108956E+03  0.40000000000E+03 0. -1.
   -9000005    1    1    2    0  503  0.44298012153E+02 -0.10164831483E+03 -0.59272408700E+03  0.72361352745E+03  0.40000000000E+03 0. -1.
<mgrwt>
<rscale>  2 0.41508396E+03</rscale>
<asrwt>0</asrwt>
<pdfrwt beam="1">  1       21 0.52676950E-01 0.41508396E+03</pdfrwt>
<pdfrwt beam="2">  1       21 0.12518376E+00 0.41508396E+03</pdfrwt>
<totfact> 0.14065784E+03</totfact>
</mgrwt>
</event>
<event>
 4    1  0.4857079E-002  0.4689281E+03  0.7818608E-02  0.1022223E+00
         21   -1    0    0  501  502  0.00000000000E+00  0.00000000000E+00  0.10899727350E+04  0.10899727350E+04  0.00000000000E+00 0.  1.
         21   -1    0    0  502  503 -0.00000000000E+00 -0.00000000000E+00 -0.21676190637E+03  0.21676190637E+03  0.00000000000E+00 0. -1.
    9000005    1    1    2  501    0 -0.33060046497E+02 -0.24248836941E+03  0.60859240913E+03  0.76829570897E+03  0.40000000000E+03 0.  1.
   -9000005    1    1    2    0  503  0.33060046497E+02  0.24248836941E+03  0.26461841949E+03  0.53843893239E+03  0.40000000000E+03 0.  1.
<mgrwt>
<rscale>  2 0.46892811E+03</rscale>
<asrwt>0</asrwt>
<pdfrwt beam="1">  1       21 0.16768811E+00 0.46892811E+03</pdfrwt>
<pdfrwt beam="2">  1       21 0.33347986E-01 0.46892811E+03</pdfrwt>
<totfact> 0.16171935E+03</totfact>
</mgrwt>
</event>
<event>
 4    1  0.4857079E-002  0.4315211E+03  0.7818608E-02  0.1033381E+00
         21   -1    0    0  501  502  0.00000000000E+00  0.00000000000E+00  0.75450290978E+03  0.75450290978E+03  0.00000000000E+00 0.  1.
         21   -1    0    0  502  503 -0.00000000000E+00 -0.00000000000E+00 -0.38194038905E+03  0.38194038905E+03  0.00000000000E+00 0.  1.
    9000005    1    1    2  501    0  0.77546907912E+02  0.14211585481E+03  0.52427949955E+03  0.67902830041E+03  0.40000000000E+03 0.  1.
   -9000005    1    1    2    0  503 -0.77546907912E+02 -0.14211585481E+03 -0.15171697882E+03  0.45741499842E+03  0.40000000000E+03 0.  1.
<mgrwt>
<rscale>  2 0.43152108E+03</rscale>
<asrwt>0</asrwt>
<pdfrwt beam="1">  1       21 0.11607737E+00 0.43152108E+03</pdfrwt>
<pdfrwt beam="2">  1       21 0.58760060E-01 0.43152108E+03</pdfrwt>
<totfact> 0.13362593E+03</totfact>
</mgrwt>
</event>
<event>
 4    1  0.4857079E-002  0.4043720E+03  0.7818608E-02  0.1042276E+00
         21   -1    0    0  501  502  0.00000000000E+00  0.00000000000E+00  0.25417821040E+03  0.25417821040E+03  0.00000000000E+00 0.  1.
         21   -1    0    0  502  503 -0.00000000000E+00 -0.00000000000E+00 -0.64384694951E+03  0.64384694951E+03  0.00000000000E+00 0.  1.
    9000005    1    1    2  501    0 -0.56226162279E+02 -0.18849448704E+02 -0.20773937035E+03  0.45461228430E+03  0.40000000000E+03 0. -1.
   -9000005    1    1    2    0  503  0.56226162279E+02  0.18849448704E+02 -0.18192936877E+03  0.44341287561E+03  0.40000000000E+03 0. -1.
<mgrwt>
<rscale>  2 0.40437196E+03</rscale>
<asrwt>0</asrwt>
<pdfrwt beam="1">  1       21 0.39104341E-01 0.40437196E+03</pdfrwt>
<pdfrwt beam="2">  1       21 0.99053375E-01 0.40437196E+03</pdfrwt>
<totfact> 0.47187601E+03</totfact>
</mgrwt>
</event>
<event>
 4    1  0.4857079E-002  0.4662369E+03  0.7818608E-02  0.1022988E+00
         21   -1    0    0  501  502  0.00000000000E+00  0.00000000000E+00  0.14210207314E+03  0.14210207314E+03  0.00000000000E+00 0.  1.
         21   -1    0    0  502  503 -0.00000000000E+00 -0.00000000000E+00 -0.15375472540E+04  0.15375472540E+04  0.00000000000E+00 0.  1.
    9000005    1    1    2  501    0  0.35736614599E+01 -0.23950804398E+03 -0.75763037376E+03  0.88959578317E+03  0.40000000000E+03 0.  1.
   -9000005    1    1    2    0  503 -0.35736614599E+01  0.23950804398E+03 -0.63781480713E+03  0.79005354400E+03  0.40000000000E+03 0.  1.
<mgrwt>
<rscale>  2 0.46623693E+03</rscale>
<asrwt>0</asrwt>
<pdfrwt beam="1">  1       21 0.21861859E-01 0.46623693E+03</pdfrwt>
<pdfrwt beam="2">  1       21 0.23654572E+00 0.46623693E+03</pdfrwt>
<totfact> 0.12839712E+03</totfact>
</mgrwt>
</event>
<event>
 4    1  0.4857079E-002  0.4508352E+03  0.7818608E-02  0.1027473E+00
         21   -1    0    0  503  502  0.00000000000E+00  0.00000000000E+00  0.11165452363E+04  0.11165452363E+04  0.00000000000E+00 0. -1.
         21   -1    0    0  501  503 -0.00000000000E+00 -0.00000000000E+00 -0.27039191156E+03  0.27039191156E+03  0.00000000000E+00 0.  1.
    9000005    1    1    2  501    0 -0.20772378689E+03  0.10158779518E+02  0.26665691526E+02  0.45162310785E+03  0.40000000000E+03 0.  1.
   -9000005    1    1    2    0  502  0.20772378689E+03 -0.10158779518E+02  0.81948763323E+03  0.93531404002E+03  0.40000000000E+03 0. -1.
<mgrwt>
<rscale>  2 0.45083519E+03</rscale>
<asrwt>0</asrwt>
<pdfrwt beam="1">  1       21 0.17177619E+00 0.45083519E+03</pdfrwt>
<pdfrwt beam="2">  1       21 0.41598756E-01 0.45083519E+03</pdfrwt>
<totfact> 0.96892184E+02</totfact>
</mgrwt>
</event>
<event>
 4    1  0.4857079E-002  0.4545907E+03  0.7818608E-02  0.1026362E+00
         21   -1    0    0  503  502  0.00000000000E+00  0.00000000000E+00  0.15211004001E+04  0.15211004001E+04  0.00000000000E+00 0.  1.
         21   -1    0    0  501  503 -0.00000000000E+00 -0.00000000000E+00 -0.14747038700E+03  0.14747038700E+03  0.00000000000E+00 0.  1.
    9000005    1    1    2  501    0  0.82373310266E+02  0.19966800541E+03  0.45269686321E+03  0.64155056277E+03  0.40000000000E+03 0.  1.
   -9000005    1    1    2    0  502 -0.82373310266E+02 -0.19966800541E+03  0.92093314993E+03  0.10270202244E+04  0.40000000000E+03 0.  1.
<mgrwt>
<rscale>  2 0.45459067E+03</rscale>
<asrwt>0</asrwt>
<pdfrwt beam="1">  1       21 0.23401544E+00 0.45459067E+03</pdfrwt>
<pdfrwt beam="2">  1       21 0.22687753E-01 0.45459067E+03</pdfrwt>
<totfact> 0.12466684E+03</totfact>
</mgrwt>
</event>
<event>
 4    1  0.4857079E-002  0.4710154E+03  0.7818608E-02  0.1021634E+00
         21   -1    0    0  503  502  0.00000000000E+00  0.00000000000E+00  0.67236398945E+03  0.67236398945E+03  0.00000000000E+00 0.  1.
         21   -1    0    0  501  503 -0.00000000000E+00 -0.00000000000E+00 -0.38320425637E+03  0.38320425637E+03  0.00000000000E+00 0.  1.
    9000005    1    1    2  501    0 -0.10373454553E+03 -0.22604127673E+03 -0.52146981932E+02  0.47389326060E+03  0.40000000000E+03 0.  1.
   -9000005    1    1    2    0  502  0.10373454553E+03  0.22604127673E+03  0.34130671501E+03  0.58167498522E+03  0.40000000000E+03 0.  1.
<mgrwt>
<rscale>  2 0.47101541E+03</rscale>
<asrwt>0</asrwt>
<pdfrwt beam="1">  1       21 0.10344061E+00 0.47101541E+03</pdfrwt>
<pdfrwt beam="2">  1       21 0.58954501E-01 0.47101541E+03</pdfrwt>
<totfact> 0.17383954E+03</totfact>
</mgrwt>
</event>
<event>
 4    1  0.4857079E-002  0.4211998E+03  0.7818608E-02  0.1036677E+00
         21   -1    0    0  501  502  0.00000000000E+00  0.00000000000E+00  0.23127067423E+03  0.23127067423E+03  0.00000000000E+00 0. -1.
         21   -1    0    0  502  503 -0.00000000000E+00 -0.00000000000E+00 -0.84809801604E+03  0.84809801604E+03  0.00000000000E+00 0. -1.
    9000005    1    1    2  501    0 -0.12588383643E+03  0.39529365375E+02 -0.14163684332E+03  0.44437631169E+03  0.40000000000E+03 0. -1.
   -9000005    1    1    2    0  503  0.12588383643E+03 -0.39529365375E+02 -0.47519049849E+03  0.63499237858E+03  0.40000000000E+03 0. -1.
<mgrwt>
<rscale>  2 0.42119985E+03</rscale>
<asrwt>0</asrwt>
<pdfrwt beam="1">  1       21 0.35580104E-01 0.42119985E+03</pdfrwt>
<pdfrwt beam="2">  1       21 0.13047662E+00 0.42119985E+03</pdfrwt>
<totfact> 0.28527828E+03</totfact>
</mgrwt>
</event>
<event>
 4    1  0.4857079E-002  0.4183072E+03  0.7818608E-02  0.1037619E+00
         21   -1    0    0  503  502  0.00000000000E+00  0.00000000000E+00  0.71770888953E+03  0.71770888953E+03  0.00000000000E+00 0.  1.
         21   -1    0    0  501  503 -0.00000000000E+00 -0.00000000000E+00 -0.30310218075E+03  0.30310218075E+03  0.00000000000E+00 0.  1.
    9000005    1    1    2  501    0  0.11989152177E+03  0.24635582031E+02 -0.18452236920E+02  0.41871395241E+03  0.40000000000E+03 0.  1.
   -9000005    1    1    2    0  502 -0.11989152177E+03 -0.24635582031E+02  0.43305894570E+03  0.60209711787E+03  0.40000000000E+03 0.  1.
<mgrwt>
<rscale>  2 0.41830717E+03</rscale>
<asrwt>0</asrwt>
<pdfrwt beam="1">  1       21 0.11041675E+00 0.41830717E+03</pdfrwt>
<pdfrwt beam="2">  1       21 0.46631105E-01 0.41830717E+03</pdfrwt>
<totfact> 0.24956201E+03</totfact>
</mgrwt>
</event>
<event>
 4    1  0.4857079E-002  0.6299648E+03  0.7818608E-02  0.9845117E-01
         21   -1    0    0  501  502  0.00000000000E+00  0.00000000000E+00  0.39045401979E+03  0.39045401979E+03  0.00000000000E+00 0. -1.
         21   -1    0    0  502  503 -0.00000000000E+00 -0.00000000000E+00 -0.10686414514E+04  0.10686414514E+04  0.00000000000E+00 0. -1.
    9000005    1    1    2  501    0  0.21387257322E+03 -0.43716608048E+03 -0.17778250523E+03  0.65457030078E+03  0.40000000000E+03 0. -1.
   -9000005    1    1    2    0  503 -0.21387257322E+03  0.43716608048E+03 -0.50040492642E+03  0.80452517045E+03  0.40000000000E+03 0. -1.
<mgrwt>
<rscale>  2 0.62996481E+03</rscale>
<asrwt>0</asrwt>
<pdfrwt beam="1">  1       21 0.60069850E-01 0.62996481E+03</pdfrwt>
<pdfrwt beam="2">  1       21 0.16440638E+00 0.62996481E+03</pdfrwt>
<totfact> 0.46791512E+02</totfact>
</mgrwt>
</event>
<event>
 4    1  0.4857079E-002  0.4424122E+03  0.7818608E-02  0.1030009E+00
         21   -1    0    0  503  502  0.00000000000E+00  0.00000000000E+00  0.12712034038E+04  0.12712034038E+04  0.00000000000E+00 0. -1.
         21   -1    0    0  501  503 -0.00000000000E+00 -0.00000000000E+00 -0.23947470550E+03  0.23947470550E+03  0.00000000000E+00 0. -1.
    9000005    1    1    2  501    0 -0.17348046345E+03  0.75053991940E+02  0.64523795191E+02  0.44709271192E+03  0.40000000000E+03 0. -1.
   -9000005    1    1    2    0  502  0.17348046345E+03 -0.75053991940E+02  0.96720490311E+03  0.10635853974E+04  0.40000000000E+03 0. -1.
<mgrwt>
<rscale>  2 0.44241222E+03</rscale>
<asrwt>0</asrwt>
<pdfrwt beam="1">  1       21 0.19556975E+00 0.44241222E+03</pdfrwt>
<pdfrwt beam="2">  1       21 0.36842263E-01 0.44241222E+03</pdfrwt>
<totfact> 0.85173623E+02</totfact>
</mgrwt>
</event>
<event>
 4    1  0.4857079E-002  0.5170384E+03  0.7818608E-02  0.1009425E+00
         21   -1    0    0  501  502  0.00000000000E+00  0.00000000000E+00  0.44352078619E+03  0.44352078619E+03  0.00000000000E+00 0.  1.
         21   -1    0    0  502  503 -0.00000000000E+00 -0.00000000000E+00 -0.62668064955E+03  0.62668064955E+03  0.00000000000E+00 0. -1.
    9000005    1    1    2  501    0  0.32655978164E+03 -0.26217955322E+02 -0.19616287386E+03  0.55299958883E+03  0.40000000000E+03 0. -1.
   -9000005    1    1    2    0  503 -0.32655978164E+03  0.26217955322E+02  0.13003010507E+02  0.51720184691E+03  0.40000000000E+03 0.  1.
<mgrwt>
<rscale>  2 0.51703837E+03</rscale>
<asrwt>0</asrwt>
<pdfrwt beam="1">  1       21 0.68233967E-01 0.51703837E+03</pdfrwt>
<pdfrwt beam="2">  1       21 0.96412407E-01 0.51703837E+03</pdfrwt>
<totfact> 0.14681154E+03</totfact>
</mgrwt>
</event>
<event>
 4    1  0.4857079E-002  0.4532666E+03  0.7818608E-02  0.1026752E+00
         21   -1    0    0  503  502  0.00000000000E+00  0.00000000000E+00  0.37200356251E+03  0.37200356251E+03  0.00000000000E+00 0.  1.
         21   -1    0    0  501  503 -0.00000000000E+00 -0.00000000000E+00 -0.55326135643E+03  0.55326135643E+03  0.00000000000E+00 0.  1.
    9000005    1    1    2  501    0 -0.15937349308E+03  0.14160049821E+03 -0.71157536203E+02  0.45881805364E+03  0.40000000000E+03 0.  1.
   -9000005    1    1    2    0  502  0.15937349308E+03 -0.14160049821E+03 -0.11010025772E+03  0.46644686529E+03  0.40000000000E+03 0.  1.
<mgrwt>
<rscale>  2 0.45326660E+03</rscale>
<asrwt>0</asrwt>
<pdfrwt beam="1">  1       21 0.57231318E-01 0.45326660E+03</pdfrwt>
<pdfrwt beam="2">  1       21 0.85117131E-01 0.45326660E+03</pdfrwt>
<totfact> 0.29770988E+03</totfact>
</mgrwt>
</event>
<event>
 4    1  0.4857079E-002  0.4362164E+03  0.7818608E-02  0.1031914E+00
         21   -1    0    0  503  502  0.00000000000E+00  0.00000000000E+00  0.30223734048E+03  0.30223734048E+03  0.00000000000E+00 0. -1.
         21   -1    0    0  501  503 -0.00000000000E+00 -0.00000000000E+00 -0.74864321537E+03  0.74864321537E+03  0.00000000000E+00 0.  1.
    9000005    1    1    2  501    0 -0.16753159468E+03  0.47094663571E+02 -0.43274040790E+03  0.61445016330E+03  0.40000000000E+03 0.  1.
   -9000005    1    1    2    0  502  0.16753159468E+03 -0.47094663571E+02 -0.13665466997E+02  0.43643039255E+03  0.40000000000E+03 0. -1.
<mgrwt>
<rscale>  2 0.43621639E+03</rscale>
<asrwt>0</asrwt>
<pdfrwt beam="1">  1       21 0.46498053E-01 0.43621639E+03</pdfrwt>
<pdfrwt beam="2">  1       21 0.11517588E+00 0.43621639E+03</pdfrwt>
<totfact> 0.22445760E+03</totfact>
</mgrwt>
</event>
<event>
 4    1  0.4857079E-002  0.5148146E+03  0.7818608E-02  0.1009983E+00
         21   -1    0    0  501  502  0.00000000000E+00  0.00000000000E+00  0.16962494493E+04  0.16962494493E+04  0.00000000000E+00 0.  1.
         21   -1    0    0  502  503 -0.00000000000E+00 -0.00000000000E+00 -0.15626659548E+03  0.15626659548E+03  0.00000000000E+00 0.  1.
    9000005    1    1    2  501    0  0.17709597364E+03 -0.27142414152E+03  0.78033865405E+03  0.93485959560E+03  0.40000000000E+03 0.  1.
   -9000005    1    1    2    0  503 -0.17709597364E+03  0.27142414152E+03  0.75964419974E+03  0.91765644915E+03  0.40000000000E+03 0.  1.
<mgrwt>
<rscale>  2 0.51481458E+03</rscale>
<asrwt>0</asrwt>
<pdfrwt beam="1">  1       21 0.26096144E+00 0.51481458E+03</pdfrwt>
<pdfrwt beam="2">  1       21 0.24041016E-01 0.51481458E+03</pdfrwt>
<totfact> 0.73860977E+02</totfact>
</mgrwt>
</event>
<event>
 4    1  0.4857079E-002  0.5888152E+03  0.7818608E-02  0.9928887E-01
         21   -1    0    0  503  502  0.00000000000E+00  0.00000000000E+00  0.65864185512E+03  0.65864185512E+03  0.00000000000E+00 0. -1.
         21   -1    0    0  501  503 -0.00000000000E+00 -0.00000000000E+00 -0.53543228417E+03  0.53543228417E+03  0.00000000000E+00 0.  1.
    9000005    1    1    2  501    0 -0.28905069122E+03 -0.32117447752E+03 -0.15976451761E+02  0.58903191265E+03  0.40000000000E+03 0. -1.
   -9000005    1    1    2    0  502  0.28905069122E+03  0.32117447752E+03  0.13918602271E+03  0.60504222665E+03  0.40000000000E+03 0. -1.
<mgrwt>
<rscale>  2 0.58881521E+03</rscale>
<asrwt>0</asrwt>
<pdfrwt beam="1">  1       21 0.10132952E+00 0.58881521E+03</pdfrwt>
<pdfrwt beam="2">  1       21 0.82374198E-01 0.58881521E+03</pdfrwt>
<totfact> 0.82501360E+02</totfact>
</mgrwt>
</event>
<event>
 4    1  0.4857079E-002  0.5247463E+03  0.7818608E-02  0.1007514E+00
         21   -1    0    0  503  502  0.00000000000E+00  0.00000000000E+00  0.89444118516E+03  0.89444118516E+03  0.00000000000E+00 0. -1.
         21   -1    0    0  501  503 -0.00000000000E+00 -0.00000000000E+00 -0.34242518907E+03  0.34242518907E+03  0.00000000000E+00 0.  1.
    9000005    1    1    2  501    0 -0.55134947258E+02  0.33513997687E+03  0.79510297053E+02  0.53073586071E+03  0.40000000000E+03 0.  1.
   -9000005    1    1    2    0  502  0.55134947258E+02 -0.33513997687E+03  0.47250569903E+03  0.70613051352E+03  0.40000000000E+03 0. -1.
<mgrwt>
<rscale>  2 0.52474629E+03</rscale>
<asrwt>0</asrwt>
<pdfrwt beam="1">  1       21 0.13760634E+00 0.52474629E+03</pdfrwt>
<pdfrwt beam="2">  1       21 0.52680799E-01 0.52474629E+03</pdfrwt>
<totfact> 0.10526577E+03</totfact>
</mgrwt>
</event>
<event>
 4    1  0.4857079E-002  0.5642702E+03  0.7818608E-02  0.9982439E-01
         21   -1    0    0  503  502  0.00000000000E+00  0.00000000000E+00  0.12154462692E+04  0.12154462692E+04  0.00000000000E+00 0. -1.
         21   -1    0    0  501  503 -0.00000000000E+00 -0.00000000000E+00 -0.44605394811E+03  0.44605394811E+03  0.00000000000E+00 0. -1.
    9000005    1    1    2  501    0  0.35901639183E+03 -0.17177931205E+03 -0.14899984028E+03  0.58361104689E+03  0.40000000000E+03 0. -1.
   -9000005    1    1    2    0  502 -0.35901639183E+03  0.17177931205E+03  0.91839216141E+03  0.10778891705E+04  0.40000000000E+03 0. -1.
<mgrwt>
<rscale>  2 0.56427024E+03</rscale>
<asrwt>0</asrwt>
<pdfrwt beam="1">  1       21 0.18699173E+00 0.56427024E+03</pdfrwt>
<pdfrwt beam="2">  1       21 0.68623685E-01 0.56427024E+03</pdfrwt>
<totfact> 0.24454455E+02</totfact>
</mgrwt>
</event>
<event>
 4    1  0.4857079E-002  0.4435764E+03  0.7818608E-02  0.1029655E+00
         21   -1    0    0  501  502  0.00000000000E+00  0.00000000000E+00  0.69942514040E+03  0.69942514040E+03  0.00000000000E+00 0. -1.
         21   -1    0    0  502  503 -0.00000000000E+00 -0.00000000000E+00 -0.34474202037E+03  0.34474202037E+03  0.00000000000E+00 0. -1.
    9000005    1    1    2  501    0  0.18458124548E+03  0.51863144249E+02 -0.46594491274E+02  0.44601689265E+03  0.40000000000E+03 0. -1.
   -9000005    1    1    2    0  503 -0.18458124548E+03 -0.51863144249E+02  0.40127761131E+03  0.59815026812E+03  0.40000000000E+03 0. -1.
<mgrwt>
<rscale>  2 0.44357640E+03</rscale>
<asrwt>0</asrwt>
<pdfrwt beam="1">  1       21 0.10760387E+00 0.44357640E+03</pdfrwt>
<pdfrwt beam="2">  1       21 0.53037234E-01 0.44357640E+03</pdfrwt>
<totfact> 0.20040360E+03</totfact>
</mgrwt>
</event>
<event>
 4    1  0.4857079E-002  0.4335111E+03  0.7818608E-02  0.1032757E+00
         21   -1    0    0  501  502  0.00000000000E+00  0.00000000000E+00  0.55559045234E+03  0.55559045234E+03  0.00000000000E+00 0. -1.
         21   -1    0    0  502  503 -0.00000000000E+00 -0.00000000000E+00 -0.55577329131E+03  0.55577329131E+03  0.00000000000E+00 0. -1.
    9000005    1    1    2  501    0  0.20088589771E+02 -0.16591652602E+03  0.34754415485E+03  0.55562467963E+03  0.40000000000E+03 0. -1.
   -9000005    1    1    2    0  503 -0.20088589771E+02  0.16591652602E+03 -0.34772699382E+03  0.55573906402E+03  0.40000000000E+03 0. -1.
<mgrwt>
<rscale>  2 0.43351107E+03</rscale>
<asrwt>0</asrwt>
<pdfrwt beam="1">  1       21 0.85475454E-01 0.43351107E+03</pdfrwt>
<pdfrwt beam="2">  1       21 0.85503583E-01 0.43351107E+03</pdfrwt>
<totfact> 0.12022172E+03</totfact>
</mgrwt>
</event>
<event>
 4    1  0.4857079E-002  0.4412802E+03  0.7818608E-02  0.1030355E+00
         21   -1    0    0  501  502  0.00000000000E+00  0.00000000000E+00  0.59146807227E+03  0.59146807227E+03  0.00000000000E+00 0. -1.
         21   -1    0    0  502  503 -0.00000000000E+00 -0.00000000000E+00 -0.55376304453E+03  0.55376304453E+03  0.00000000000E+00 0. -1.
    9000005    1    1    2  501    0 -0.45697318570E+00  0.18635459294E+03  0.38347427461E+03  0.58462018646E+03  0.40000000000E+03 0. -1.
   -9000005    1    1    2    0  503  0.45697318570E+00 -0.18635459294E+03 -0.34576924686E+03  0.56061093033E+03  0.40000000000E+03 0. -1.
<mgrwt>
<rscale>  2 0.44128023E+03</rscale>
<asrwt>0</asrwt>
<pdfrwt beam="1">  1       21 0.90995088E-01 0.44128023E+03</pdfrwt>
<pdfrwt beam="2">  1       21 0.85194314E-01 0.44128023E+03</pdfrwt>
<totfact> 0.10428322E+03</totfact>
</mgrwt>
</event>
<event>
 4    1  0.4857079E-002  0.7044594E+03  0.7818608E-02  0.9709636E-01
         21   -1    0    0  501  502  0.00000000000E+00  0.00000000000E+00  0.62406172760E+03  0.62406172760E+03  0.00000000000E+00 0. -1.
         21   -1    0    0  502  503 -0.00000000000E+00 -0.00000000000E+00 -0.79917469208E+03  0.79917469208E+03  0.00000000000E+00 0. -1.
    9000005    1    1    2  501    0  0.41099874221E+03  0.40907584345E+03 -0.13764953997E+03  0.71778158770E+03  0.40000000000E+03 0. -1.
   -9000005    1    1    2    0  503 -0.41099874221E+03 -0.40907584345E+03 -0.37463424514E+02  0.70545483198E+03  0.40000000000E+03 0. -1.
<mgrwt>
<rscale>  2 0.70445938E+03</rscale>
<asrwt>0</asrwt>
<pdfrwt beam="1">  1       21 0.96009497E-01 0.70445938E+03</pdfrwt>
<pdfrwt beam="2">  1       21 0.12294995E+00 0.70445938E+03</pdfrwt>
<totfact> 0.33976545E+02</totfact>
</mgrwt>
</event>
<event>
 4    1  0.4857079E-002  0.4578762E+03  0.7818608E-02  0.1025399E+00
         21   -1    0    0  501  502  0.00000000000E+00  0.00000000000E+00  0.63950684380E+03  0.63950684380E+03  0.00000000000E+00 0. -1.
         21   -1    0    0  502  503 -0.00000000000E+00 -0.00000000000E+00 -0.87383856899E+03  0.87383856899E+03  0.00000000000E+00 0. -1.
    9000005    1    1    2  501    0  0.11149612478E+03  0.19292283383E+03  0.48095854330E+03  0.66405702016E+03  0.40000000000E+03 0. -1.
   -9000005    1    1    2    0  503 -0.11149612478E+03 -0.19292283383E+03 -0.71529026849E+03  0.84928839263E+03  0.40000000000E+03 0. -1.
<mgrwt>
<rscale>  2 0.45787619E+03</rscale>
<asrwt>0</asrwt>
<pdfrwt beam="1">  1       21 0.98385669E-01 0.45787619E+03</pdfrwt>
<pdfrwt beam="2">  1       21 0.13443670E+00 0.45787619E+03</pdfrwt>
<totfact> 0.27808185E+02</totfact>
</mgrwt>
</event>
<event>
 4    1  0.4857079E-002  0.4038634E+03  0.7818608E-02  0.1042450E+00
         21   -1    0    0  503  502  0.00000000000E+00  0.00000000000E+00  0.10451648916E+04  0.10451648916E+04  0.00000000000E+00 0.  1.
         21   -1    0    0  501  503 -0.00000000000E+00 -0.00000000000E+00 -0.17939924273E+03  0.17939924273E+03  0.00000000000E+00 0.  1.
    9000005    1    1    2  501    0 -0.32824173264E+02 -0.45035755503E+02  0.65373893966E+03  0.76842712527E+03  0.40000000000E+03 0.  1.
   -9000005    1    1    2    0  502  0.32824173264E+02  0.45035755503E+02  0.21202670923E+03  0.45613700908E+03  0.40000000000E+03 0.  1.
<mgrwt>
<rscale>  2 0.40386340E+03</rscale>
<asrwt>0</asrwt>
<pdfrwt beam="1">  1       21 0.16079460E+00 0.40386340E+03</pdfrwt>
<pdfrwt beam="2">  1       21 0.27599884E-01 0.40386340E+03</pdfrwt>
<totfact> 0.27231224E+03</totfact>
</mgrwt>
</event>
<event>
 4    1  0.4857079E-002  0.4239507E+03  0.7818608E-02  0.1035788E+00
         21   -1    0    0  501  502  0.00000000000E+00  0.00000000000E+00  0.42548973213E+03  0.42548973213E+03  0.00000000000E+00 0.  1.
         21   -1    0    0  502  503 -0.00000000000E+00 -0.00000000000E+00 -0.74674920262E+03  0.74674920262E+03  0.00000000000E+00 0. -1.
    9000005    1    1    2  501    0 -0.30389054952E+02  0.13715197974E+03  0.22564268212E+03  0.48025907613E+03  0.40000000000E+03 0.  1.
   -9000005    1    1    2    0  503  0.30389054952E+02 -0.13715197974E+03 -0.54690215261E+03  0.69197985862E+03  0.40000000000E+03 0. -1.
<mgrwt>
<rscale>  2 0.42395066E+03</rscale>
<asrwt>0</asrwt>
<pdfrwt beam="1">  1       21 0.65459959E-01 0.42395066E+03</pdfrwt>
<pdfrwt beam="2">  1       21 0.11488449E+00 0.42395066E+03</pdfrwt>
<totfact> 0.10845636E+03</totfact>
</mgrwt>
</event>
<event>
 4    1  0.4857079E-002  0.4762027E+03  0.7818608E-02  0.1020184E+00
         21   -1    0    0  501  502  0.00000000000E+00  0.00000000000E+00  0.81474707759E+03  0.81474707759E+03  0.00000000000E+00 0. -1.
         21   -1    0    0  502  503 -0.00000000000E+00 -0.00000000000E+00 -0.28295854379E+03  0.28295854379E+03  0.00000000000E+00 0. -1.
    9000005    1    1    2  501    0  0.19489828481E+03 -0.16965744669E+03  0.19570163332E+03  0.51484766671E+03  0.40000000000E+03 0. -1.
   -9000005    1    1    2    0  503 -0.19489828481E+03  0.16965744669E+03  0.33608690048E+03  0.58285795466E+03  0.40000000000E+03 0. -1.
<mgrwt>
<rscale>  2 0.47620268E+03</rscale>
<asrwt>0</asrwt>
<pdfrwt beam="1">  1       21 0.12534570E+00 0.47620268E+03</pdfrwt>
<pdfrwt beam="2">  1       21 0.43532084E-01 0.47620268E+03</pdfrwt>
<totfact> 0.20472999E+03</totfact>
</mgrwt>
</event>
<event>
 4    1  0.4857079E-002  0.5849050E+03  0.7818608E-02  0.9937228E-01
         21   -1    0    0  503  502  0.00000000000E+00  0.00000000000E+00  0.45725418382E+03  0.45725418382E+03  0.00000000000E+00 0.  1.
         21   -1    0    0  501  503 -0.00000000000E+00 -0.00000000000E+00 -0.12076993737E+04  0.12076993737E+04  0.00000000000E+00 0.  1.
    9000005    1    1    2  501    0  0.41942391415E+03  0.78724076263E+02 -0.88872085105E+03  0.10639260552E+04  0.40000000000E+03 0. -1.
   -9000005    1    1    2    0  502 -0.41942391415E+03 -0.78724076263E+02  0.13827566121E+03  0.60102750222E+03  0.40000000000E+03 0. -1.
<mgrwt>
<rscale>  2 0.58490503E+03</rscale>
<asrwt>0</asrwt>
<pdfrwt beam="1">  1       21 0.70346798E-01 0.58490503E+03</pdfrwt>
<pdfrwt beam="2">  1       21 0.18579990E+00 0.58490503E+03</pdfrwt>
<totfact> 0.23372772E+02</totfact>
</mgrwt>
</event>
<event>
 4    1  0.4857079E-002  0.4403537E+03  0.7818608E-02  0.1030638E+00
         21   -1    0    0  503  502  0.00000000000E+00  0.00000000000E+00  0.11527520995E+04  0.11527520995E+04  0.00000000000E+00 0.  1.
         21   -1    0    0  501  503 -0.00000000000E+00 -0.00000000000E+00 -0.20836226746E+03  0.20836226746E+03  0.00000000000E+00 0.  1.
    9000005    1    1    2  501    0 -0.89765825525E+02 -0.16079028973E+03  0.17346595614E+03  0.47328834619E+03  0.40000000000E+03 0.  1.
   -9000005    1    1    2    0  502  0.89765825525E+02  0.16079028973E+03  0.77092387594E+03  0.88782602079E+03  0.40000000000E+03 0.  1.
<mgrwt>
<rscale>  2 0.44035374E+03</rscale>
<asrwt>0</asrwt>
<pdfrwt beam="1">  1       21 0.17734647E+00 0.44035374E+03</pdfrwt>
<pdfrwt beam="2">  1       21 0.32055734E-01 0.44035374E+03</pdfrwt>
<totfact> 0.15088708E+03</totfact>
</mgrwt>
</event>
<event>
 4    1  0.4857079E-002  0.7003264E+03  0.7818608E-02  0.9716674E-01
         21   -1    0    0  503  502  0.00000000000E+00  0.00000000000E+00  0.46850817604E+03  0.46850817604E+03  0.00000000000E+00 0.  1.
         21   -1    0    0  501  503 -0.00000000000E+00 -0.00000000000E+00 -0.17829155708E+04  0.17829155708E+04  0.00000000000E+00 0.  1.
    9000005    1    1    2  501    0  0.23229440697E+03 -0.52582926393E+03 -0.13805071478E+04  0.15479848485E+04  0.40000000000E+03 0.  1.
   -9000005    1    1    2    0  502 -0.23229440697E+03  0.52582926393E+03  0.66099752989E+02  0.70343889831E+03  0.40000000000E+03 0.  1.
<mgrwt>
<rscale>  2 0.70032643E+03</rscale>
<asrwt>0</asrwt>
<pdfrwt beam="1">  1       21 0.72078179E-01 0.70032643E+03</pdfrwt>
<pdfrwt beam="2">  1       21 0.27429471E+00 0.70032643E+03</pdfrwt>
<totfact> 0.56733295E+01</totfact>
</mgrwt>
</event>
<event>
 4    1  0.4857079E-002  0.4611465E+03  0.7818608E-02  0.1024449E+00
         21   -1    0    0  501  502  0.00000000000E+00  0.00000000000E+00  0.72336227901E+03  0.72336227901E+03  0.00000000000E+00 0. -1.
         21   -1    0    0  502  503 -0.00000000000E+00 -0.00000000000E+00 -0.31738744551E+03  0.31738744551E+03  0.00000000000E+00 0. -1.
    9000005    1    1    2  501    0 -0.17813142705E+03 -0.14465560856E+03  0.61677480895E+02  0.46525279369E+03  0.40000000000E+03 0. -1.
   -9000005    1    1    2    0  503  0.17813142705E+03  0.14465560856E+03  0.34429735260E+03  0.57549693083E+03  0.40000000000E+03 0. -1.
<mgrwt>
<rscale>  2 0.46114645E+03</rscale>
<asrwt>0</asrwt>
<pdfrwt beam="1">  1       21 0.11128650E+00 0.46114645E+03</pdfrwt>
<pdfrwt beam="2">  1       21 0.48828838E-01 0.46114645E+03</pdfrwt>
<totfact> 0.21846726E+03</totfact>
</mgrwt>
</event>
<event>
 4    1  0.4857079E-002  0.4757643E+03  0.7818608E-02  0.1020306E+00
         21   -1    0    0  501  502  0.00000000000E+00  0.00000000000E+00  0.21924653494E+03  0.21924653494E+03  0.00000000000E+00 0. -1.
         21   -1    0    0  502  503 -0.00000000000E+00 -0.00000000000E+00 -0.16985856343E+04  0.16985856343E+04  0.00000000000E+00 0. -1.
    9000005    1    1    2  501    0 -0.22610070121E+03  0.12341039295E+03 -0.13914296523E+03  0.49569387423E+03  0.40000000000E+03 0. -1.
   -9000005    1    1    2    0  503  0.22610070121E+03 -0.12341039295E+03 -0.13401961341E+04  0.14221382950E+04  0.40000000000E+03 0. -1.
<mgrwt>
<rscale>  2 0.47576428E+03</rscale>
<asrwt>0</asrwt>
<pdfrwt beam="1">  1       21 0.33730238E-01 0.47576428E+03</pdfrwt>
<pdfrwt beam="2">  1       21 0.26132085E+00 0.47576428E+03</pdfrwt>
<totfact> 0.38312287E+02</totfact>
</mgrwt>
</event>
<event>
 4    1  0.4857079E-002  0.4660180E+03  0.7818608E-02  0.1023050E+00
         21   -1    0    0  503  502  0.00000000000E+00  0.00000000000E+00  0.10648874332E+04  0.10648874332E+04  0.00000000000E+00 0.  1.
         21   -1    0    0  501  503 -0.00000000000E+00 -0.00000000000E+00 -0.37246108519E+03  0.37246108519E+03  0.00000000000E+00 0.  1.
    9000005    1    1    2  501    0 -0.21947205847E+03  0.94893484736E+02 -0.13720083025E+03  0.48579504497E+03  0.40000000000E+03 0.  1.
   -9000005    1    1    2    0  502  0.21947205847E+03 -0.94893484736E+02  0.82962717828E+03  0.95155347345E+03  0.40000000000E+03 0.  1.
<mgrwt>
<rscale>  2 0.46601798E+03</rscale>
<asrwt>0</asrwt>
<pdfrwt beam="1">  1       21 0.16382883E+00 0.46601798E+03</pdfrwt>
<pdfrwt beam="2">  1       21 0.57301706E-01 0.46601798E+03</pdfrwt>
<totfact> 0.55795527E+02</totfact>
</mgrwt>
</event>
<event>
 4    1  0.4857079E-002  0.4031924E+03  0.7818608E-02  0.1042680E+00
         21   -1    0    0  501  502  0.00000000000E+00  0.00000000000E+00  0.36212262715E+03  0.36212262715E+03  0.00000000000E+00 0.  1.
         21   -1    0    0  502  503 -0.00000000000E+00 -0.00000000000E+00 -0.48754634329E+03  0.48754634329E+03  0.00000000000E+00 0.  1.
    9000005    1    1    2  501    0 -0.86158541498E+01  0.49898371901E+02  0.56866821525E+02  0.40718290221E+03  0.40000000000E+03 0.  1.
   -9000005    1    1    2    0  503  0.86158541498E+01 -0.49898371901E+02 -0.18229053767E+03  0.44248606824E+03  0.40000000000E+03 0.  1.
<mgrwt>
<rscale>  2 0.40319236E+03</rscale>
<asrwt>0</asrwt>
<pdfrwt beam="1">  1       21 0.55711174E-01 0.40319236E+03</pdfrwt>
<pdfrwt beam="2">  1       21 0.75007130E-01 0.40319236E+03</pdfrwt>
<totfact> 0.43024637E+03</totfact>
</mgrwt>
</event>
<event>
 4    1  0.4857079E-002  0.5210716E+03  0.7818608E-02  0.1008421E+00
         21   -1    0    0  501  502  0.00000000000E+00  0.00000000000E+00  0.47171491643E+03  0.47171491643E+03  0.00000000000E+00 0. -1.
         21   -1    0    0  502  503 -0.00000000000E+00 -0.00000000000E+00 -0.11011452947E+04  0.11011452947E+04  0.00000000000E+00 0.  1.
    9000005    1    1    2  501    0  0.28582850466E+03  0.17267787816E+03  0.22859265842E+03  0.56900807302E+03  0.40000000000E+03 0. -1.
   -9000005    1    1    2    0  503 -0.28582850466E+03 -0.17267787816E+03 -0.85802303670E+03  0.10038521381E+04  0.40000000000E+03 0.  1.
<mgrwt>
<rscale>  2 0.52107157E+03</rscale>
<asrwt>0</asrwt>
<pdfrwt beam="1">  1       21 0.72571525E-01 0.52107157E+03</pdfrwt>
<pdfrwt beam="2">  1       21 0.16940697E+00 0.52107157E+03</pdfrwt>
<totfact> 0.29288790E+02</totfact>
</mgrwt>
</event>
<event>
 4    1  0.4857079E-002  0.4076651E+03  0.7818608E-02  0.1041157E+00
         21   -1    0    0  503  502  0.00000000000E+00  0.00000000000E+00  0.22302243498E+04  0.22302243498E+04  0.00000000000E+00 0.  1.
         21   -1    0    0  501  503 -0.00000000000E+00 -0.00000000000E+00 -0.97719681945E+02  0.97719681945E+02  0.00000000000E+00 0.  1.
    9000005    1    1    2  501    0  0.16323036956E+02  0.76970282262E+02  0.49907950789E+03  0.64441541034E+03  0.40000000000E+03 0.  1.
   -9000005    1    1    2    0  502 -0.16323036956E+02 -0.76970282262E+02  0.16334251600E+04  0.16835286215E+04  0.40000000000E+03 0.  1.
<mgrwt>
<rscale>  2 0.40766514E+03</rscale>
<asrwt>0</asrwt>
<pdfrwt beam="1">  1       21 0.34311140E+00 0.40766514E+03</pdfrwt>
<pdfrwt beam="2">  1       21 0.15033799E-01 0.40766514E+03</pdfrwt>
<totfact> 0.60742383E+02</totfact>
</mgrwt>
</event>
<event>
 4    1  0.4857079E-002  0.4254505E+03  0.7818608E-02  0.1035307E+00
         21   -1    0    0  501  502  0.00000000000E+00  0.00000000000E+00  0.29692685198E+03  0.29692685198E+03  0.00000000000E+00 0. -1.
         21   -1    0    0  502  503 -0.00000000000E+00 -0.00000000000E+00 -0.10944613286E+04  0.10944613286E+04  0.00000000000E+00 0. -1.
    9000005    1    1    2  501    0 -0.56476506907E+02 -0.13348610007E+03  0.64279229799E+02  0.43027892596E+03  0.40000000000E+03 0. -1.
   -9000005    1    1    2    0  503  0.56476506907E+02  0.13348610007E+03 -0.86181370646E+03  0.96110925466E+03  0.40000000000E+03 0. -1.
<mgrwt>
<rscale>  2 0.42545051E+03</rscale>
<asrwt>0</asrwt>
<pdfrwt beam="1">  1       21 0.45681054E-01 0.42545051E+03</pdfrwt>
<pdfrwt beam="2">  1       21 0.16837867E+00 0.42545051E+03</pdfrwt>
<totfact> 0.85360293E+02</totfact>
</mgrwt>
</event>
<event>
 4    1  0.4857079E-002  0.5162217E+03  0.7818608E-02  0.1009629E+00
         21   -1    0    0  503  502  0.00000000000E+00  0.00000000000E+00  0.88880555007E+03  0.88880555007E+03  0.00000000000E+00 0. -1.
         21   -1    0    0  501  503 -0.00000000000E+00 -0.00000000000E+00 -0.31104960945E+03  0.31104960945E+03  0.00000000000E+00 0. -1.
    9000005    1    1    2  501    0  0.22200400404E+03 -0.23916331566E+03  0.17490629699E+03  0.54504777965E+03  0.40000000000E+03 0. -1.
   -9000005    1    1    2    0  502 -0.22200400404E+03  0.23916331566E+03  0.40284964362E+03  0.65480737987E+03  0.40000000000E+03 0. -1.
<mgrwt>
<rscale>  2 0.51622173E+03</rscale>
<asrwt>0</asrwt>
<pdfrwt beam="1">  1       21 0.13673931E+00 0.51622173E+03</pdfrwt>
<pdfrwt beam="2">  1       21 0.47853786E-01 0.51622173E+03</pdfrwt>
<totfact> 0.13182918E+03</totfact>
</mgrwt>
</event>
<event>
 4    1  0.4857079E-002  0.6175828E+03  0.7818608E-02  0.9869584E-01
         21   -1    0    0  503  502  0.00000000000E+00  0.00000000000E+00  0.60307442006E+03  0.60307442006E+03  0.00000000000E+00 0.  1.
         21   -1    0    0  501  503 -0.00000000000E+00 -0.00000000000E+00 -0.88141720951E+03  0.88141720951E+03  0.00000000000E+00 0.  1.
    9000005    1    1    2  501    0 -0.25802064402E+02 -0.46983268465E+03  0.25531917907E+03  0.66827867039E+03  0.40000000000E+03 0.  1.
   -9000005    1    1    2    0  502  0.25802064402E+02  0.46983268465E+03 -0.53366196852E+03  0.81621295919E+03  0.40000000000E+03 0.  1.
<mgrwt>
<rscale>  2 0.61758279E+03</rscale>
<asrwt>0</asrwt>
<pdfrwt beam="1">  1       21 0.92780680E-01 0.61758279E+03</pdfrwt>
<pdfrwt beam="2">  1       21 0.13560265E+00 0.61758279E+03</pdfrwt>
<totfact> 0.29346369E+02</totfact>
</mgrwt>
</event>
<event>
 4    1  0.4857079E-002  0.6143543E+03  0.7818608E-02  0.9876065E-01
         21   -1    0    0  501  502  0.00000000000E+00  0.00000000000E+00  0.57857921289E+03  0.57857921289E+03  0.00000000000E+00 0. -1.
         21   -1    0    0  502  503 -0.00000000000E+00 -0.00000000000E+00 -0.67759708174E+03  0.67759708174E+03  0.00000000000E+00 0. -1.
    9000005    1    1    2  501    0  0.28719467649E+03  0.36735606955E+03  0.71749802636E+02  0.61852994933E+03  0.40000000000E+03 0. -1.
   -9000005    1    1    2    0  503 -0.28719467649E+03 -0.36735606955E+03 -0.17076767149E+03  0.63764634529E+03  0.40000000000E+03 0. -1.
<mgrwt>
<rscale>  2 0.61435435E+03</rscale>
<asrwt>0</asrwt>
<pdfrwt beam="1">  1       21 0.89012187E-01 0.61435435E+03</pdfrwt>
<pdfrwt beam="2">  1       21 0.10424570E+00 0.61435435E+03</pdfrwt>
<totfact> 0.63550959E+02</totfact>
</mgrwt>
</event>
<event>
 4    1  0.4857079E-002  0.4161702E+03  0.7818608E-02  0.1038320E+00
         21   -1    0    0  503  502  0.00000000000E+00  0.00000000000E+00  0.10846708573E+03  0.10846708573E+03  0.00000000000E+00 0. -1.
         21   -1    0    0  501  503 -0.00000000000E+00 -0.00000000000E+00 -0.21377426152E+04  0.21377426152E+04  0.00000000000E+00 0.  1.
    9000005    1    1    2  501    0  0.11449288587E+03 -0.94346760201E+01 -0.15796109646E+04  0.16335141363E+04  0.40000000000E+03 0.  1.
   -9000005    1    1    2    0  502 -0.11449288587E+03  0.94346760201E+01 -0.44966456491E+03  0.61269556466E+03  0.40000000000E+03 0. -1.
<mgrwt>
<rscale>  2 0.41617020E+03</rscale>
<asrwt>0</asrwt>
<pdfrwt beam="1">  1       21 0.16687243E-01 0.41617020E+03</pdfrwt>
<pdfrwt beam="2">  1       21 0.32888349E+00 0.41617020E+03</pdfrwt>
<totfact> 0.60680360E+02</totfact>
</mgrwt>
</event>
<event>
 4    1  0.4857079E-002  0.4289712E+03  0.7818608E-02  0.1034185E+00
         21   -1    0    0  503  502  0.00000000000E+00  0.00000000000E+00  0.19324270988E+03  0.19324270988E+03  0.00000000000E+00 0. -1.
         21   -1    0    0  501  503 -0.00000000000E+00 -0.00000000000E+00 -0.96146549115E+03  0.96146549115E+03  0.00000000000E+00 0. -1.
    9000005    1    1    2  501    0  0.14433800242E+03 -0.56416852152E+02 -0.32760223500E+03  0.53975878365E+03  0.40000000000E+03 0.  1.
   -9000005    1    1    2    0  502 -0.14433800242E+03  0.56416852152E+02 -0.44062054626E+03  0.61494941738E+03  0.40000000000E+03 0.  1.
<mgrwt>
<rscale>  2 0.42897123E+03</rscale>
<asrwt>0</asrwt>
<pdfrwt beam="1">  1       21 0.29729648E-01 0.42897123E+03</pdfrwt>
<pdfrwt beam="2">  1       21 0.14791777E+00 0.42897123E+03</pdfrwt>
<totfact> 0.29247906E+03</totfact>
</mgrwt>
</event>
<event>
 4    1  0.4857079E-002  0.4172176E+03  0.7818608E-02  0.1037976E+00
         21   -1    0    0  503  502  0.00000000000E+00  0.00000000000E+00  0.54478917603E+03  0.54478917603E+03  0.00000000000E+00 0.  1.
         21   -1    0    0  501  503 -0.00000000000E+00 -0.00000000000E+00 -0.90672896702E+03  0.90672896702E+03  0.00000000000E+00 0.  1.
    9000005    1    1    2  501    0  0.81585306881E+02 -0.86106649856E+02 -0.76502042269E+03  0.87139357617E+03  0.40000000000E+03 0.  1.
   -9000005    1    1    2    0  502 -0.81585306881E+02  0.86106649856E+02  0.40308063171E+03  0.58012456689E+03  0.40000000000E+03 0.  1.
<mgrwt>
<rscale>  2 0.41721759E+03</rscale>
<asrwt>0</asrwt>
<pdfrwt beam="1">  1       21 0.83813719E-01 0.41721759E+03</pdfrwt>
<pdfrwt beam="2">  1       21 0.13949676E+00 0.41721759E+03</pdfrwt>
<totfact> 0.37649864E+02</totfact>
</mgrwt>
</event>
<event>
 4    1  0.4857079E-002  0.4337730E+03  0.7818608E-02  0.1032675E+00
         21   -1    0    0  503  502  0.00000000000E+00  0.00000000000E+00  0.11439913639E+03  0.11439913639E+03  0.00000000000E+00 0. -1.
         21   -1    0    0  501  503 -0.00000000000E+00 -0.00000000000E+00 -0.26942087587E+04  0.26942087587E+04  0.00000000000E+00 0.  1.
    9000005    1    1    2  501    0 -0.16123966253E+03 -0.46483806735E+02 -0.21663532790E+04  0.22093540917E+04  0.40000000000E+03 0.  1.
   -9000005    1    1    2    0  502  0.16123966253E+03  0.46483806735E+02 -0.41345634332E+03  0.59925380340E+03  0.40000000000E+03 0. -1.
<mgrwt>
<rscale>  2 0.43377295E+03</rscale>
<asrwt>0</asrwt>
<pdfrwt beam="1">  1       21 0.17599865E-01 0.43377295E+03</pdfrwt>
<pdfrwt beam="2">  1       21 0.41449370E+00 0.43377295E+03</pdfrwt>
<totfact> 0.15849908E+02</totfact>
</mgrwt>
</event>
<event>
 4    1  0.4857079E-002  0.4921897E+03  0.7818608E-02  0.1015838E+00
         21   -1    0    0  503  502  0.00000000000E+00  0.00000000000E+00  0.55362225477E+03  0.55362225477E+03  0.00000000000E+00 0. -1.
         21   -1    0    0  501  503 -0.00000000000E+00 -0.00000000000E+00 -0.76005438864E+03  0.76005438864E+03  0.00000000000E+00 0.  1.
    9000005    1    1    2  501    0  0.18368949801E+03 -0.22024726885E+03 -0.53106240360E+03  0.72407041621E+03  0.40000000000E+03 0.  1.
   -9000005    1    1    2    0  502 -0.18368949801E+03  0.22024726885E+03  0.32463026974E+03  0.58960622719E+03  0.40000000000E+03 0. -1.
<mgrwt>
<rscale>  2 0.49218969E+03</rscale>
<asrwt>0</asrwt>
<pdfrwt beam="1">  1       21 0.85172655E-01 0.49218969E+03</pdfrwt>
<pdfrwt beam="2">  1       21 0.11693144E+00 0.49218969E+03</pdfrwt>
<totfact> 0.55293403E+02</totfact>
</mgrwt>
</event>
<event>
 4    1  0.4857079E-002  0.4580724E+03  0.7818608E-02  0.1025342E+00
         21   -1    0    0  503  502  0.00000000000E+00  0.00000000000E+00  0.60059126363E+03  0.60059126363E+03  0.00000000000E+00 0. -1.
         21   -1    0    0  501  503 -0.00000000000E+00 -0.00000000000E+00 -0.71727224174E+03  0.71727224174E+03  0.00000000000E+00 0. -1.
    9000005    1    1    2  501    0  0.90685590267E+02 -0.20397654304E+03 -0.53025456811E+03  0.70071407392E+03  0.40000000000E+03 0. -1.
   -9000005    1    1    2    0  502 -0.90685590267E+02  0.20397654304E+03  0.41357359000E+03  0.61714943145E+03  0.40000000000E+03 0. -1.
<mgrwt>
<rscale>  2 0.45807238E+03</rscale>
<asrwt>0</asrwt>
<pdfrwt beam="1">  1       21 0.92398657E-01 0.45807238E+03</pdfrwt>
<pdfrwt beam="2">  1       21 0.11034957E+00 0.45807238E+03</pdfrwt>
<totfact> 0.53488218E+02</totfact>
</mgrwt>
</event>
<event>
 4    1  0.4857079E-002  0.6313930E+03  0.7818608E-02  0.9842334E-01
         21   -1    0    0  503  502  0.00000000000E+00  0.00000000000E+00  0.66669935746E+03  0.66669935746E+03  0.00000000000E+00 0.  1.
         21   -1    0    0  501  503 -0.00000000000E+00 -0.00000000000E+00 -0.60237721038E+03  0.60237721038E+03  0.00000000000E+00 0. -1.
    9000005    1    1    2  501    0 -0.44446621154E+03 -0.20274842576E+03  0.86520550287E+02  0.63729345122E+03  0.40000000000E+03 0. -1.
   -9000005    1    1    2    0  502  0.44446621154E+03  0.20274842576E+03 -0.22198403203E+02  0.63178311662E+03  0.40000000000E+03 0. -1.
<mgrwt>
<rscale>  2 0.63139301E+03</rscale>
<asrwt>0</asrwt>
<pdfrwt beam="1">  1       21 0.10256913E+00 0.63139301E+03</pdfrwt>
<pdfrwt beam="2">  1       21 0.92673416E-01 0.63139301E+03</pdfrwt>
<totfact> 0.59759405E+02</totfact>
</mgrwt>
</event>
<event>
 4    1  0.4857079E-002  0.4399178E+03  0.7818608E-02  0.1030772E+00
         21   -1    0    0  501  502  0.00000000000E+00  0.00000000000E+00  0.11761919498E+04  0.11761919498E+04  0.00000000000E+00 0.  1.
         21   -1    0    0  502  503 -0.00000000000E+00 -0.00000000000E+00 -0.33238128747E+03  0.33238128747E+03  0.00000000000E+00 0.  1.
    9000005    1    1    2  501    0  0.12608450174E+03  0.13277927683E+03  0.95791275562E+03  0.10540988973E+04  0.40000000000E+03 0.  1.
   -9000005    1    1    2    0  503 -0.12608450174E+03 -0.13277927683E+03 -0.11410209333E+03  0.45447433991E+03  0.40000000000E+03 0.  1.
<mgrwt>
<rscale>  2 0.43991776E+03</rscale>
<asrwt>0</asrwt>
<pdfrwt beam="1">  1       21 0.18095261E+00 0.43991776E+03</pdfrwt>
<pdfrwt beam="2">  1       21 0.51135583E-01 0.43991776E+03</pdfrwt>
<totfact> 0.54278070E+02</totfact>
</mgrwt>
</event>
<event>
 4    1  0.4857079E-002  0.4212400E+03  0.7818608E-02  0.1036663E+00
         21   -1    0    0  501  502  0.00000000000E+00  0.00000000000E+00  0.60699684486E+03  0.60699684486E+03  0.00000000000E+00 0.  1.
         21   -1    0    0  502  503 -0.00000000000E+00 -0.00000000000E+00 -0.33201817836E+03  0.33201817836E+03  0.00000000000E+00 0.  1.
    9000005    1    1    2  501    0  0.29081072173E+02  0.12883102283E+03  0.29981769963E+03  0.51704331947E+03  0.40000000000E+03 0.  1.
   -9000005    1    1    2    0  503 -0.29081072173E+02 -0.12883102283E+03 -0.24839033127E+02  0.42197170375E+03  0.40000000000E+03 0.  1.
<mgrwt>
<rscale>  2 0.42124000E+03</rscale>
<asrwt>0</asrwt>
<pdfrwt beam="1">  1       21 0.93384130E-01 0.42124000E+03</pdfrwt>
<pdfrwt beam="2">  1       21 0.51079720E-01 0.42124000E+03</pdfrwt>
<totfact> 0.30905769E+03</totfact>
</mgrwt>
</event>
<event>
 4    1  0.4857079E-002  0.4097715E+03  0.7818608E-02  0.1040448E+00
         21   -1    0    0  501  502  0.00000000000E+00  0.00000000000E+00  0.64812173816E+03  0.64812173816E+03  0.00000000000E+00 0.  1.
         21   -1    0    0  502  503 -0.00000000000E+00 -0.00000000000E+00 -0.33256911522E+03  0.33256911522E+03  0.00000000000E+00 0.  1.
    9000005    1    1    2  501    0  0.75297660788E+02 -0.47359719705E+02  0.38828377199E+03  0.56451480792E+03  0.40000000000E+03 0.  1.
   -9000005    1    1    2    0  503 -0.75297660788E+02  0.47359719705E+02 -0.72731149052E+02  0.41617604546E+03  0.40000000000E+03 0.  1.
<mgrwt>
<rscale>  2 0.40977150E+03</rscale>
<asrwt>0</asrwt>
<pdfrwt beam="1">  1       21 0.99711036E-01 0.40977150E+03</pdfrwt>
<pdfrwt beam="2">  1       21 0.51164480E-01 0.40977150E+03</pdfrwt>
<totfact> 0.26429758E+03</totfact>
</mgrwt>
</event>
<event>
 4    1  0.4857079E-002  0.4399689E+03  0.7818608E-02  0.1030756E+00
         21   -1    0    0  503  502  0.00000000000E+00  0.00000000000E+00  0.76515564890E+03  0.76515564890E+03  0.00000000000E+00 0.  1.
         21   -1    0    0  501  503 -0.00000000000E+00 -0.00000000000E+00 -0.31842589663E+03  0.31842589663E+03  0.00000000000E+00 0.  1.
    9000005    1    1    2  501    0 -0.15152487506E+03 -0.10301870869E+03  0.46897890049E+03  0.64305042664E+03  0.40000000000E+03 0.  1.
   -9000005    1    1    2    0  502  0.15152487506E+03  0.10301870869E+03 -0.22249148218E+02  0.44053111888E+03  0.40000000000E+03 0.  1.
<mgrwt>
<rscale>  2 0.43996891E+03</rscale>
<asrwt>0</asrwt>
<pdfrwt beam="1">  1       21 0.11771625E+00 0.43996891E+03</pdfrwt>
<pdfrwt beam="2">  1       21 0.48988599E-01 0.43996891E+03</pdfrwt>
<totfact> 0.19007227E+03</totfact>
</mgrwt>
</event>
<event>
 4    1  0.4857079E-002  0.4082486E+03  0.7818608E-02  0.1040960E+00
         21   -1    0    0  501  502  0.00000000000E+00  0.00000000000E+00  0.29370283407E+03  0.29370283407E+03  0.00000000000E+00 0.  1.
         21   -1    0    0  502  503 -0.00000000000E+00 -0.00000000000E+00 -0.90663222179E+03  0.90663222179E+03  0.00000000000E+00 0.  1.
    9000005    1    1    2  501    0 -0.42213429410E+02 -0.69892316832E+02  0.60616423639E+02  0.41272419409E+03  0.40000000000E+03 0.  1.
   -9000005    1    1    2    0  503  0.42213429410E+02  0.69892316832E+02 -0.67354581136E+03  0.78761086177E+03  0.40000000000E+03 0.  1.
<mgrwt>
<rscale>  2 0.40824859E+03</rscale>
<asrwt>0</asrwt>
<pdfrwt beam="1">  1       21 0.45185051E-01 0.40824859E+03</pdfrwt>
<pdfrwt beam="2">  1       21 0.13948188E+00 0.40824859E+03</pdfrwt>
<totfact> 0.14731479E+03</totfact>
</mgrwt>
</event>
<event>
 4    1  0.4857079E-002  0.4647318E+03  0.7818608E-02  0.1023418E+00
         21   -1    0    0  503  502  0.00000000000E+00  0.00000000000E+00  0.17824003998E+04  0.17824003998E+04  0.00000000000E+00 0. -1.
         21   -1    0    0  501  503 -0.00000000000E+00 -0.00000000000E+00 -0.12117669108E+03  0.12117669108E+03  0.00000000000E+00 0.  1.
    9000005    1    1    2  501    0  0.19936764249E+03  0.12738995252E+03  0.82422496090E+03  0.94621479752E+03  0.40000000000E+03 0. -1.
   -9000005    1    1    2    0  502 -0.19936764249E+03 -0.12738995252E+03  0.83699874779E+03  0.95736229332E+03  0.40000000000E+03 0.  1.
<mgrwt>
<rscale>  2 0.46473181E+03</rscale>
<asrwt>0</asrwt>
<pdfrwt beam="1">  1       21 0.27421543E+00 0.46473181E+03</pdfrwt>
<pdfrwt beam="2">  1       21 0.18642569E-01 0.46473181E+03</pdfrwt>
<totfact> 0.10229116E+03</totfact>
</mgrwt>
</event>
<event>
 4    1  0.4857079E-002  0.4207569E+03  0.7818608E-02  0.1036820E+00
         21   -1    0    0  503  502  0.00000000000E+00  0.00000000000E+00  0.99901575719E+03  0.99901575719E+03  0.00000000000E+00 0. -1.
         21   -1    0    0  501  503 -0.00000000000E+00 -0.00000000000E+00 -0.20182893000E+03  0.20182893000E+03  0.00000000000E+00 0. -1.
    9000005    1    1    2  501    0 -0.86792641636E+02  0.97485352334E+02  0.18889609006E+03  0.46121371337E+03  0.40000000000E+03 0. -1.
   -9000005    1    1    2    0  502  0.86792641636E+02 -0.97485352334E+02  0.60829073713E+03  0.73963097382E+03  0.40000000000E+03 0. -1.
<mgrwt>
<rscale>  2 0.42075689E+03</rscale>
<asrwt>0</asrwt>
<pdfrwt beam="1">  1       21 0.15369473E+00 0.42075689E+03</pdfrwt>
<pdfrwt beam="2">  1       21 0.31050605E-01 0.42075689E+03</pdfrwt>
<totfact> 0.24258085E+03</totfact>
</mgrwt>
</event>
<event>
 4    1  0.4857079E-002  0.4208933E+03  0.7818608E-02  0.1036776E+00
         21   -1    0    0  503  502  0.00000000000E+00  0.00000000000E+00  0.20113413642E+03  0.20113413642E+03  0.00000000000E+00 0.  1.
         21   -1    0    0  501  503 -0.00000000000E+00 -0.00000000000E+00 -0.10899775114E+04  0.10899775114E+04  0.00000000000E+00 0.  1.
    9000005    1    1    2  501    0  0.13070952358E+03  0.81353560474E+01 -0.72724988186E+03  0.84026397890E+03  0.40000000000E+03 0.  1.
   -9000005    1    1    2    0  502 -0.13070952358E+03 -0.81353560474E+01 -0.16159349316E+03  0.45084766896E+03  0.40000000000E+03 0.  1.
<mgrwt>
<rscale>  2 0.42089329E+03</rscale>
<asrwt>0</asrwt>
<pdfrwt beam="1">  1       21 0.30943713E-01 0.42089329E+03</pdfrwt>
<pdfrwt beam="2">  1       21 0.16768885E+00 0.42089329E+03</pdfrwt>
<totfact> 0.19165813E+03</totfact>
</mgrwt>
</event>
<event>
 4    1  0.4857079E-002  0.5183977E+03  0.7818608E-02  0.1009085E+00
         21   -1    0    0  503  502  0.00000000000E+00  0.00000000000E+00  0.93580558269E+03  0.93580558269E+03  0.00000000000E+00 0. -1.
         21   -1    0    0  501  503 -0.00000000000E+00 -0.00000000000E+00 -0.31825062044E+03  0.31825062044E+03  0.00000000000E+00 0.  1.
    9000005    1    1    2  501    0 -0.21473954761E+03 -0.25024615021E+03  0.50472526140E+03  0.72352180236E+03  0.40000000000E+03 0. -1.
   -9000005    1    1    2    0  502  0.21473954761E+03  0.25024615021E+03  0.11282970085E+03  0.53053440077E+03  0.40000000000E+03 0.  1.
<mgrwt>
<rscale>  2 0.51839773E+03</rscale>
<asrwt>0</asrwt>
<pdfrwt beam="1">  1       21 0.14397009E+00 0.51839773E+03</pdfrwt>
<pdfrwt beam="2">  1       21 0.48961634E-01 0.51839773E+03</pdfrwt>
<totfact> 0.10931696E+03</totfact>
</mgrwt>
</event>
<event>
 4    1  0.4857079E-002  0.5272523E+03  0.7818608E-02  0.1006901E+00
         21   -1    0    0  503  502  0.00000000000E+00  0.00000000000E+00  0.21582759166E+03  0.21582759166E+03  0.00000000000E+00 0.  1.
         21   -1    0    0  501  503 -0.00000000000E+00 -0.00000000000E+00 -0.13961520619E+04  0.13961520619E+04  0.00000000000E+00 0. -1.
    9000005    1    1    2  501    0 -0.25118114289E+03 -0.23431390522E+03 -0.81444532841E+03  0.97021449468E+03  0.40000000000E+03 0. -1.
   -9000005    1    1    2    0  502  0.25118114289E+03  0.23431390522E+03 -0.36587914185E+03  0.64176515889E+03  0.40000000000E+03 0. -1.
<mgrwt>
<rscale>  2 0.52725229E+03</rscale>
<asrwt>0</asrwt>
<pdfrwt beam="1">  1       21 0.33204246E-01 0.52725229E+03</pdfrwt>
<pdfrwt beam="2">  1       21 0.21479262E+00 0.52725229E+03</pdfrwt>
<totfact> 0.75606244E+02</totfact>
</mgrwt>
</event>
<event>
 4    1  0.4857079E-002  0.5975302E+03  0.7818608E-02  0.9910543E-01
         21   -1    0    0  503  502  0.00000000000E+00  0.00000000000E+00  0.77919378860E+03  0.77919378860E+03  0.00000000000E+00 0.  1.
         21   -1    0    0  501  503 -0.00000000000E+00 -0.00000000000E+00 -0.46743632766E+03  0.46743632766E+03  0.00000000000E+00 0.  1.
    9000005    1    1    2  501    0  0.91892850565E+02 -0.43427874971E+03  0.24340144657E+03  0.64520275312E+03  0.40000000000E+03 0.  1.
   -9000005    1    1    2    0  502 -0.91892850565E+02  0.43427874971E+03  0.68356014365E+02  0.60142736314E+03  0.40000000000E+03 0.  1.
<mgrwt>
<rscale>  2 0.59753019E+03</rscale>
<asrwt>0</asrwt>
<pdfrwt beam="1">  1       21 0.11987597E+00 0.59753019E+03</pdfrwt>
<pdfrwt beam="2">  1       21 0.71913281E-01 0.59753019E+03</pdfrwt>
<totfact> 0.73901803E+02</totfact>
</mgrwt>
</event>
<event>
 4    1  0.4857079E-002  0.5417421E+03  0.7818608E-02  0.1003424E+00
         21   -1    0    0  503  502  0.00000000000E+00  0.00000000000E+00  0.63727157427E+03  0.63727157427E+03  0.00000000000E+00 0. -1.
         21   -1    0    0  501  503 -0.00000000000E+00 -0.00000000000E+00 -0.64636288162E+03  0.64636288162E+03  0.00000000000E+00 0.  1.
    9000005    1    1    2  501    0  0.35340102750E+03 -0.92693933965E+02  0.33959120880E+03  0.63937988765E+03  0.40000000000E+03 0.  1.
   -9000005    1    1    2    0  502 -0.35340102750E+03  0.92693933965E+02 -0.34868251615E+03  0.64425456824E+03  0.40000000000E+03 0. -1.
<mgrwt>
<rscale>  2 0.54174205E+03</rscale>
<asrwt>0</asrwt>
<pdfrwt beam="1">  1       21 0.98041781E-01 0.54174205E+03</pdfrwt>
<pdfrwt beam="2">  1       21 0.99440443E-01 0.54174205E+03</pdfrwt>
<totfact> 0.57986856E+02</totfact>
</mgrwt>
</event>
<event>
 4    1  0.4857079E-002  0.4059670E+03  0.7818608E-02  0.1041733E+00
         21   -1    0    0  503  502  0.00000000000E+00  0.00000000000E+00  0.19349357650E+03  0.19349357650E+03  0.00000000000E+00 0. -1.
         21   -1    0    0  501  503 -0.00000000000E+00 -0.00000000000E+00 -0.14539973228E+04  0.14539973228E+04  0.00000000000E+00 0. -1.
    9000005    1    1    2  501    0  0.15896016858E+02 -0.67501819927E+02 -0.11603994169E+04  0.12293640575E+04  0.40000000000E+03 0. -1.
   -9000005    1    1    2    0  502 -0.15896016858E+02  0.67501819927E+02 -0.10010432932E+03  0.41812684175E+03  0.40000000000E+03 0. -1.
<mgrwt>
<rscale>  2 0.40596697E+03</rscale>
<asrwt>0</asrwt>
<pdfrwt beam="1">  1       21 0.29768243E-01 0.40596697E+03</pdfrwt>
<pdfrwt beam="2">  1       21 0.22369189E+00 0.40596697E+03</pdfrwt>
<totfact> 0.87275228E+02</totfact>
</mgrwt>
</event>
<event>
 4    1  0.4857079E-002  0.4439544E+03  0.7818608E-02  0.1029540E+00
         21   -1    0    0  501  502  0.00000000000E+00  0.00000000000E+00  0.14768670183E+04  0.14768670183E+04  0.00000000000E+00 0.  1.
         21   -1    0    0  502  503 -0.00000000000E+00 -0.00000000000E+00 -0.16666568203E+03  0.16666568203E+03  0.00000000000E+00 0.  1.
    9000005    1    1    2  501    0 -0.13378938870E+03 -0.13854940774E+03  0.10219291495E+04  0.11141968971E+04  0.40000000000E+03 0.  1.
   -9000005    1    1    2    0  503  0.13378938870E+03  0.13854940774E+03  0.28827218676E+03  0.52933580322E+03  0.40000000000E+03 0.  1.
<mgrwt>
<rscale>  2 0.44395443E+03</rscale>
<asrwt>0</asrwt>
<pdfrwt beam="1">  1       21 0.22721030E+00 0.44395443E+03</pdfrwt>
<pdfrwt beam="2">  1       21 0.25640875E-01 0.44395443E+03</pdfrwt>
<totfact> 0.10907422E+03</totfact>
</mgrwt>
</event>
<event>
 4    1  0.4857079E-002  0.4171733E+03  0.7818608E-02  0.1037990E+00
         21   -1    0    0  501  502  0.00000000000E+00  0.00000000000E+00  0.19174522207E+04  0.19174522207E+04  0.00000000000E+00 0. -1.
         21   -1    0    0  502  503 -0.00000000000E+00 -0.00000000000E+00 -0.11558840987E+03  0.11558840987E+03  0.00000000000E+00 0.  1.
    9000005    1    1    2  501    0  0.57241811251E+02 -0.10371580689E+03  0.42983777878E+03  0.59899424840E+03  0.40000000000E+03 0.  1.
   -9000005    1    1    2    0  503 -0.57241811251E+02  0.10371580689E+03  0.13720260320E+04  0.14340463821E+04  0.40000000000E+03 0. -1.
<mgrwt>
<rscale>  2 0.41717334E+03</rscale>
<asrwt>0</asrwt>
<pdfrwt beam="1">  1       21 0.29499263E+00 0.41717334E+03</pdfrwt>
<pdfrwt beam="2">  1       21 0.17782834E-01 0.41717334E+03</pdfrwt>
<totfact> 0.86020074E+02</totfact>
</mgrwt>
</event>
<event>
 4    1  0.4857079E-002  0.4068357E+03  0.7818608E-02  0.1041438E+00
         21   -1    0    0  501  502  0.00000000000E+00  0.00000000000E+00  0.10338664045E+04  0.10338664045E+04  0.00000000000E+00 0.  1.
         21   -1    0    0  502  503 -0.00000000000E+00 -0.00000000000E+00 -0.23497006462E+03  0.23497006462E+03  0.00000000000E+00 0.  1.
    9000005    1    1    2  501    0 -0.55761311649E+02  0.49050641467E+02  0.75757952792E+03  0.85990815233E+03  0.40000000000E+03 0.  1.
   -9000005    1    1    2    0  503  0.55761311649E+02 -0.49050641467E+02  0.41316811933E+02  0.40892831677E+03  0.40000000000E+03 0.  1.
<mgrwt>
<rscale>  2 0.40683570E+03</rscale>
<asrwt>0</asrwt>
<pdfrwt beam="1">  1       21 0.15905637E+00 0.40683570E+03</pdfrwt>
<pdfrwt beam="2">  1       21 0.36149241E-01 0.40683570E+03</pdfrwt>
<totfact> 0.16360610E+03</totfact>
</mgrwt>
</event>
<event>
 4    1  0.4857079E-002  0.4406365E+03  0.7818608E-02  0.1030552E+00
         21   -1    0    0  503  502  0.00000000000E+00  0.00000000000E+00  0.72488844322E+03  0.72488844322E+03  0.00000000000E+00 0. -1.
         21   -1    0    0  501  503 -0.00000000000E+00 -0.00000000000E+00 -0.30614283129E+03  0.30614283129E+03  0.00000000000E+00 0. -1.
    9000005    1    1    2  501    0  0.33011000114E+02 -0.18185383870E+03  0.27048324518E+02  0.44146591787E+03  0.40000000000E+03 0. -1.
   -9000005    1    1    2    0  502 -0.33011000114E+02  0.18185383870E+03  0.39169728742E+03  0.58956535664E+03  0.40000000000E+03 0. -1.
<mgrwt>
<rscale>  2 0.44063652E+03</rscale>
<asrwt>0</asrwt>
<pdfrwt beam="1">  1       21 0.11152130E+00 0.44063652E+03</pdfrwt>
<pdfrwt beam="2">  1       21 0.47098897E-01 0.44063652E+03</pdfrwt>
<totfact> 0.23635370E+03</totfact>
</mgrwt>
</event>
<event>
 4    1  0.4857079E-002  0.4242765E+03  0.7818608E-02  0.1035683E+00
         21   -1    0    0  501  502  0.00000000000E+00  0.00000000000E+00  0.29407090454E+03  0.29407090454E+03  0.00000000000E+00 0.  1.
         21   -1    0    0  502  503 -0.00000000000E+00 -0.00000000000E+00 -0.85403629211E+03  0.85403629211E+03  0.00000000000E+00 0.  1.
    9000005    1    1    2  501    0 -0.18366922482E+02 -0.14026127948E+03  0.25534017397E+02  0.42504418171E+03  0.40000000000E+03 0.  1.
   -9000005    1    1    2    0  503  0.18366922482E+02  0.14026127948E+03 -0.58549940496E+03  0.72306301494E+03  0.40000000000E+03 0.  1.
<mgrwt>
<rscale>  2 0.42427653E+03</rscale>
<asrwt>0</asrwt>
<pdfrwt beam="1">  1       21 0.45241678E-01 0.42427653E+03</pdfrwt>
<pdfrwt beam="2">  1       21 0.13139020E+00 0.42427653E+03</pdfrwt>
<totfact> 0.17064529E+03</totfact>
</mgrwt>
</event>
<event>
 4    1  0.4857079E-002  0.4048382E+03  0.7818608E-02  0.1042117E+00
         21   -1    0    0  503  502  0.00000000000E+00  0.00000000000E+00  0.23410574345E+04  0.23410574345E+04  0.00000000000E+00 0. -1.
         21   -1    0    0  501  503 -0.00000000000E+00 -0.00000000000E+00 -0.13815410939E+03  0.13815410939E+03  0.00000000000E+00 0. -1.
    9000005    1    1    2  501    0 -0.35163690526E+01  0.62302668736E+02  0.23084791302E+03  0.46603084268E+03  0.40000000000E+03 0. -1.
   -9000005    1    1    2    0  502  0.35163690526E+01 -0.62302668736E+02  0.19720554121E+04  0.20131807012E+04  0.40000000000E+03 0. -1.
<mgrwt>
<rscale>  2 0.40483822E+03</rscale>
<asrwt>0</asrwt>
<pdfrwt beam="1">  1       21 0.36016265E+00 0.40483822E+03</pdfrwt>
<pdfrwt beam="2">  1       21 0.21254480E-01 0.40483822E+03</pdfrwt>
<totfact> 0.24965201E+02</totfact>
</mgrwt>
</event>
<event>
 4    1  0.4857079E-002  0.4124012E+03  0.7818608E-02  0.1039568E+00
         21   -1    0    0  503  502  0.00000000000E+00  0.00000000000E+00  0.52793627023E+03  0.52793627023E+03  0.00000000000E+00 0.  1.
         21   -1    0    0  501  503 -0.00000000000E+00 -0.00000000000E+00 -0.21922576673E+04  0.21922576673E+04  0.00000000000E+00 0. -1.
    9000005    1    1    2  501    0  0.98822211994E+02 -0.17575928298E+02 -0.20883565740E+04  0.21286869012E+04  0.40000000000E+03 0. -1.
   -9000005    1    1    2    0  502 -0.98822211994E+02  0.17575928298E+02  0.42403517693E+03  0.59150703640E+03  0.40000000000E+03 0.  1.
<mgrwt>
<rscale>  2 0.41240119E+03</rscale>
<asrwt>0</asrwt>
<pdfrwt beam="1">  1       21 0.81220965E-01 0.41240119E+03</pdfrwt>
<pdfrwt beam="2">  1       21 0.33727041E+00 0.41240119E+03</pdfrwt>
<totfact> 0.21032745E+01</totfact>
</mgrwt>
</event>
<event>
 4    1  0.4857079E-002  0.4540490E+03  0.7818608E-02  0.1026521E+00
         21   -1    0    0  503  502  0.00000000000E+00  0.00000000000E+00  0.15868620940E+04  0.15868620940E+04  0.00000000000E+00 0.  1.
         21   -1    0    0  501  503 -0.00000000000E+00 -0.00000000000E+00 -0.21978123850E+03  0.21978123850E+03  0.00000000000E+00 0. -1.
    9000005    1    1    2  501    0  0.88065389595E+02  0.19597193096E+03  0.10592292738E+03  0.46624047134E+03  0.40000000000E+03 0.  1.
   -9000005    1    1    2    0  502 -0.88065389595E+02 -0.19597193096E+03  0.12611579281E+04  0.13404028611E+04  0.40000000000E+03 0.  1.
<mgrwt>
<rscale>  2 0.45404902E+03</rscale>
<asrwt>0</asrwt>
<pdfrwt beam="1">  1       21 0.24413262E+00 0.45404902E+03</pdfrwt>
<pdfrwt beam="2">  1       21 0.33812499E-01 0.45404902E+03</pdfrwt>
<totfact> 0.49164134E+02</totfact>
</mgrwt>
</event>
<event>
 4    1  0.4857079E-002  0.4146151E+03  0.7818608E-02  0.1038833E+00
         21   -1    0    0  501  502  0.00000000000E+00  0.00000000000E+00  0.57733018968E+03  0.57733018968E+03  0.00000000000E+00 0. -1.
         21   -1    0    0  502  503 -0.00000000000E+00 -0.00000000000E+00 -0.41343910838E+03  0.41343910838E+03  0.00000000000E+00 0. -1.
    9000005    1    1    2  501    0 -0.10724547357E+03  0.20102778050E+02  0.34398375803E+03  0.53873048834E+03  0.40000000000E+03 0. -1.
   -9000005    1    1    2    0  503  0.10724547357E+03 -0.20102778050E+02 -0.18009267672E+03  0.45203880972E+03  0.40000000000E+03 0. -1.
<mgrwt>
<rscale>  2 0.41461514E+03</rscale>
<asrwt>0</asrwt>
<pdfrwt beam="1">  1       21 0.88820030E-01 0.41461514E+03</pdfrwt>
<pdfrwt beam="2">  1       21 0.63606016E-01 0.41461514E+03</pdfrwt>
<totfact> 0.21683280E+03</totfact>
</mgrwt>
</event>
<event>
 4    1  0.4857079E-002  0.4099013E+03  0.7818608E-02  0.1040404E+00
         21   -1    0    0  503  502  0.00000000000E+00  0.00000000000E+00  0.31652366242E+03  0.31652366242E+03  0.00000000000E+00 0. -1.
         21   -1    0    0  501  503 -0.00000000000E+00 -0.00000000000E+00 -0.13932917572E+04  0.13932917572E+04  0.00000000000E+00 0. -1.
    9000005    1    1    2  501    0  0.39835866588E+02 -0.80201102489E+02 -0.12110028942E+04  0.12784940840E+04  0.40000000000E+03 0. -1.
   -9000005    1    1    2    0  502 -0.39835866588E+02  0.80201102489E+02  0.13423479947E+03  0.43132133555E+03  0.40000000000E+03 0. -1.
<mgrwt>
<rscale>  2 0.40990135E+03</rscale>
<asrwt>0</asrwt>
<pdfrwt beam="1">  1       21 0.48695948E-01 0.40990135E+03</pdfrwt>
<pdfrwt beam="2">  1       21 0.21435258E+00 0.40990135E+03</pdfrwt>
<totfact> 0.36528973E+02</totfact>
</mgrwt>
</event>
<event>
 4    1  0.4857079E-002  0.5898465E+03  0.7818608E-02  0.9926698E-01
         21   -1    0    0  501  502  0.00000000000E+00  0.00000000000E+00  0.34373250153E+03  0.34373250153E+03  0.00000000000E+00 0. -1.
         21   -1    0    0  502  503 -0.00000000000E+00 -0.00000000000E+00 -0.13122349516E+04  0.13122349516E+04  0.00000000000E+00 0.  1.
    9000005    1    1    2  501    0 -0.25985117406E+03  0.34698171705E+03 -0.88322637839E+02  0.59642252890E+03  0.40000000000E+03 0. -1.
   -9000005    1    1    2    0  503  0.25985117406E+03 -0.34698171705E+03 -0.88017981226E+03  0.10595449243E+04  0.40000000000E+03 0.  1.
<mgrwt>
<rscale>  2 0.58984654E+03</rscale>
<asrwt>0</asrwt>
<pdfrwt beam="1">  1       21 0.52881924E-01 0.58984654E+03</pdfrwt>
<pdfrwt beam="2">  1       21 0.20188230E+00 0.58984654E+03</pdfrwt>
<totfact> 0.34023986E+02</totfact>
</mgrwt>
</event>
<event>
 4    1  0.4857079E-002  0.4364845E+03  0.7818608E-02  0.1031831E+00
         21   -1    0    0  503  502  0.00000000000E+00  0.00000000000E+00  0.13368611756E+03  0.13368611756E+03  0.00000000000E+00 0. -1.
         21   -1    0    0  501  503 -0.00000000000E+00 -0.00000000000E+00 -0.14265904879E+04  0.14265904879E+04  0.00000000000E+00 0. -1.
    9000005    1    1    2  501    0 -0.14875673773E+03  0.91597889236E+02 -0.62140411744E+03  0.75938252384E+03  0.40000000000E+03 0. -1.
   -9000005    1    1    2    0  502  0.14875673773E+03 -0.91597889236E+02 -0.67150025293E+03  0.80089408165E+03  0.40000000000E+03 0. -1.
<mgrwt>
<rscale>  2 0.43648452E+03</rscale>
<asrwt>0</asrwt>
<pdfrwt beam="1">  1       21 0.20567094E-01 0.43648452E+03</pdfrwt>
<pdfrwt beam="2">  1       21 0.21947547E+00 0.43648452E+03</pdfrwt>
<totfact> 0.18751112E+03</totfact>
</mgrwt>
</event>
<event>
 4    1  0.4857079E-002  0.4719044E+03  0.7818608E-02  0.1021384E+00
         21   -1    0    0  501  502  0.00000000000E+00  0.00000000000E+00  0.54692103258E+03  0.54692103258E+03  0.00000000000E+00 0. -1.
         21   -1    0    0  502  503 -0.00000000000E+00 -0.00000000000E+00 -0.61399626184E+03  0.61399626184E+03  0.00000000000E+00 0.  1.
    9000005    1    1    2  501    0 -0.20422018469E+03  0.14487179505E+03  0.30334903984E+03  0.56099408268E+03  0.40000000000E+03 0. -1.
   -9000005    1    1    2    0  503  0.20422018469E+03 -0.14487179505E+03 -0.37042426910E+03  0.59992321173E+03  0.40000000000E+03 0.  1.
<mgrwt>
<rscale>  2 0.47190436E+03</rscale>
<asrwt>0</asrwt>
<pdfrwt beam="1">  1       21 0.84141697E-01 0.47190436E+03</pdfrwt>
<pdfrwt beam="2">  1       21 0.94460963E-01 0.47190436E+03</pdfrwt>
<totfact> 0.96987346E+02</totfact>
</mgrwt>
</event>
<event>
 4    1  0.4857079E-002  0.4410046E+03  0.7818608E-02  0.1030439E+00
         21   -1    0    0  501  502  0.00000000000E+00  0.00000000000E+00  0.42461783667E+03  0.42461783667E+03  0.00000000000E+00 0.  1.
         21   -1    0    0  502  503 -0.00000000000E+00 -0.00000000000E+00 -0.52870683229E+03  0.52870683229E+03  0.00000000000E+00 0.  1.
    9000005    1    1    2  501    0 -0.16587422706E+03  0.83491102327E+02  0.12224103351E+03  0.45763292456E+03  0.40000000000E+03 0.  1.
   -9000005    1    1    2    0  503  0.16587422706E+03 -0.83491102327E+02 -0.22633002913E+03  0.49569174439E+03  0.40000000000E+03 0.  1.
<mgrwt>
<rscale>  2 0.44100456E+03</rscale>
<asrwt>0</asrwt>
<pdfrwt beam="1">  1       21 0.65325821E-01 0.44100456E+03</pdfrwt>
<pdfrwt beam="2">  1       21 0.81339512E-01 0.44100456E+03</pdfrwt>
<totfact> 0.24849317E+03</totfact>
</mgrwt>
</event>
<event>
 4    1  0.4857079E-002  0.4376307E+03  0.7818608E-02  0.1031476E+00
         21   -1    0    0  501  502  0.00000000000E+00  0.00000000000E+00  0.53645501808E+02  0.53645501808E+02  0.00000000000E+00 0. -1.
         21   -1    0    0  502  503 -0.00000000000E+00 -0.00000000000E+00 -0.40802029456E+04  0.40802029456E+04  0.00000000000E+00 0. -1.
    9000005    1    1    2  501    0 -0.58495280943E+02  0.16762733611E+03 -0.12824659723E+04  0.13550791829E+04  0.40000000000E+03 0. -1.
   -9000005    1    1    2    0  503  0.58495280943E+02 -0.16762733611E+03 -0.27440914714E+04  0.27787692645E+04  0.40000000000E+03 0. -1.
<mgrwt>
<rscale>  2 0.43763069E+03</rscale>
<asrwt>0</asrwt>
<pdfrwt beam="1">  1       21 0.82531511E-02 0.43763069E+03</pdfrwt>
<pdfrwt beam="2">  1       21 0.62772376E+00 0.43763069E+03</pdfrwt>
<totfact> 0.17580163E+01</totfact>
</mgrwt>
</event>
<event>
 4    1  0.4857079E-002  0.4935759E+03  0.7818608E-02  0.1015469E+00
         21   -1    0    0  503  502  0.00000000000E+00  0.00000000000E+00  0.42391171081E+03  0.42391171081E+03  0.00000000000E+00 0.  1.
         21   -1    0    0  501  503 -0.00000000000E+00 -0.00000000000E+00 -0.57831907014E+03  0.57831907014E+03  0.00000000000E+00 0.  1.
    9000005    1    1    2  501    0 -0.25373400399E+03 -0.13869459434E+03 -0.11690897643E+03  0.50723253449E+03  0.40000000000E+03 0.  1.
   -9000005    1    1    2    0  502  0.25373400399E+03  0.13869459434E+03 -0.37498382900E+02  0.49499824646E+03  0.40000000000E+03 0.  1.
<mgrwt>
<rscale>  2 0.49357587E+03</rscale>
<asrwt>0</asrwt>
<pdfrwt beam="1">  1       21 0.65217186E-01 0.49357587E+03</pdfrwt>
<pdfrwt beam="2">  1       21 0.88972165E-01 0.49357587E+03</pdfrwt>
<totfact> 0.19838942E+03</totfact>
</mgrwt>
</event>
<event>
 4    1  0.4857079E-002  0.4361207E+03  0.7818608E-02  0.1031944E+00
         21   -1    0    0  503  502  0.00000000000E+00  0.00000000000E+00  0.23956166306E+03  0.23956166306E+03  0.00000000000E+00 0. -1.
         21   -1    0    0  501  503 -0.00000000000E+00 -0.00000000000E+00 -0.86944954476E+03  0.86944954476E+03  0.00000000000E+00 0. -1.
    9000005    1    1    2  501    0  0.21459138848E+02 -0.17245524906E+03 -0.47833940761E+03  0.64730973764E+03  0.40000000000E+03 0. -1.
   -9000005    1    1    2    0  502 -0.21459138848E+02  0.17245524906E+03 -0.15154847408E+03  0.46170147018E+03  0.40000000000E+03 0. -1.
<mgrwt>
<rscale>  2 0.43612075E+03</rscale>
<asrwt>0</asrwt>
<pdfrwt beam="1">  1       21 0.36855640E-01 0.43612075E+03</pdfrwt>
<pdfrwt beam="2">  1       21 0.13376147E+00 0.43612075E+03</pdfrwt>
<totfact> 0.24751144E+03</totfact>
</mgrwt>
</event>
<event>
 4    1  0.4857079E-002  0.4010175E+03  0.7818608E-02  0.1043428E+00
         21   -1    0    0  503  502  0.00000000000E+00  0.00000000000E+00  0.21234220428E+03  0.21234220428E+03  0.00000000000E+00 0. -1.
         21   -1    0    0  501  503 -0.00000000000E+00 -0.00000000000E+00 -0.75734140143E+03  0.75734140143E+03  0.00000000000E+00 0. -1.
    9000005    1    1    2  501    0 -0.21492676339E+02 -0.18790725255E+02 -0.27336814712E+03  0.48532996029E+03  0.40000000000E+03 0. -1.
   -9000005    1    1    2    0  502  0.21492676339E+02  0.18790725255E+02 -0.27163105002E+03  0.48435364542E+03  0.40000000000E+03 0. -1.
<mgrwt>
<rscale>  2 0.40101749E+03</rscale>
<asrwt>0</asrwt>
<pdfrwt beam="1">  1       21 0.32668032E-01 0.40101749E+03</pdfrwt>
<pdfrwt beam="2">  1       21 0.11651406E+00 0.40101749E+03</pdfrwt>
<totfact> 0.45591777E+03</totfact>
</mgrwt>
</event>
<event>
 4    1  0.4857079E-002  0.4703813E+03  0.7818608E-02  0.1021813E+00
         21   -1    0    0  501  502  0.00000000000E+00  0.00000000000E+00  0.74428288640E+03  0.74428288640E+03  0.00000000000E+00 0. -1.
         21   -1    0    0  502  503 -0.00000000000E+00 -0.00000000000E+00 -0.51325309704E+03  0.51325309704E+03  0.00000000000E+00 0. -1.
    9000005    1    1    2  501    0  0.72791080548E+02 -0.23655865114E+03  0.52338981609E+03  0.70370124089E+03  0.40000000000E+03 0. -1.
   -9000005    1    1    2    0  503 -0.72791080548E+02  0.23655865114E+03 -0.29236002673E+03  0.55383474256E+03  0.40000000000E+03 0. -1.
<mgrwt>
<rscale>  2 0.47038127E+03</rscale>
<asrwt>0</asrwt>
<pdfrwt beam="1">  1       21 0.11450506E+00 0.47038127E+03</pdfrwt>
<pdfrwt beam="2">  1       21 0.78962015E-01 0.47038127E+03</pdfrwt>
<totfact> 0.70134478E+02</totfact>
</mgrwt>
</event>
<event>
 4    1  0.4857079E-002  0.4845323E+03  0.7818608E-02  0.1017897E+00
         21   -1    0    0  501  502  0.00000000000E+00  0.00000000000E+00  0.10120864755E+04  0.10120864755E+04  0.00000000000E+00 0. -1.
         21   -1    0    0  502  503 -0.00000000000E+00 -0.00000000000E+00 -0.58121815611E+03  0.58121815611E+03  0.00000000000E+00 0. -1.
    9000005    1    1    2  501    0 -0.16925206947E+03 -0.21476797005E+03  0.83297775517E+03  0.96365112182E+03  0.40000000000E+03 0. -1.
   -9000005    1    1    2    0  503  0.16925206947E+03  0.21476797005E+03 -0.40210943581E+03  0.62965350976E+03  0.40000000000E+03 0. -1.
<mgrwt>
<rscale>  2 0.48453229E+03</rscale>
<asrwt>0</asrwt>
<pdfrwt beam="1">  1       21 0.15570561E+00 0.48453229E+03</pdfrwt>
<pdfrwt beam="2">  1       21 0.89418178E-01 0.48453229E+03</pdfrwt>
<totfact> 0.23247064E+02</totfact>
</mgrwt>
</event>
<event>
 4    1  0.4857079E-002  0.5317251E+03  0.7818608E-02  0.1005815E+00
         21   -1    0    0  503  502  0.00000000000E+00  0.00000000000E+00  0.46092894836E+03  0.46092894836E+03  0.00000000000E+00 0.  1.
         21   -1    0    0  501  503 -0.00000000000E+00 -0.00000000000E+00 -0.77528117562E+03  0.77528117562E+03  0.00000000000E+00 0.  1.
    9000005    1    1    2  501    0  0.32089786581E+03  0.14055662733E+03 -0.43962332443E+03  0.68992773038E+03  0.40000000000E+03 0.  1.
   -9000005    1    1    2    0  502 -0.32089786581E+03 -0.14055662733E+03  0.12527109717E+03  0.54628239360E+03  0.40000000000E+03 0.  1.
<mgrwt>
<rscale>  2 0.53172512E+03</rscale>
<asrwt>0</asrwt>
<pdfrwt beam="1">  1       21 0.70912146E-01 0.53172512E+03</pdfrwt>
<pdfrwt beam="2">  1       21 0.11927403E+00 0.53172512E+03</pdfrwt>
<totfact> 0.79026537E+02</totfact>
</mgrwt>
</event>
<event>
 4    1  0.4857079E-002  0.6684920E+03  0.7818608E-02  0.9772686E-01
         21   -1    0    0  501  502  0.00000000000E+00  0.00000000000E+00  0.31267027585E+03  0.31267027585E+03  0.00000000000E+00 0.  1.
         21   -1    0    0  502  503 -0.00000000000E+00 -0.00000000000E+00 -0.18787908724E+04  0.18787908724E+04  0.00000000000E+00 0.  1.
    9000005    1    1    2  501    0  0.15588795125E+03 -0.51242614159E+03 -0.24707504612E+03  0.71269045338E+03  0.40000000000E+03 0.  1.
   -9000005    1    1    2    0  503 -0.15588795125E+03  0.51242614159E+03 -0.13190455505E+04  0.14787706949E+04  0.40000000000E+03 0.  1.
<mgrwt>
<rscale>  2 0.66849204E+03</rscale>
<asrwt>0</asrwt>
<pdfrwt beam="1">  1       21 0.48103120E-01 0.66849204E+03</pdfrwt>
<pdfrwt beam="2">  1       21 0.28904474E+00 0.66849204E+03</pdfrwt>
<totfact> 0.11385308E+02</totfact>
</mgrwt>
</event>
<event>
 4    1  0.4857079E-002  0.5137788E+03  0.7818608E-02  0.1010244E+00
         21   -1    0    0  501  502  0.00000000000E+00  0.00000000000E+00  0.44106461677E+03  0.44106461677E+03  0.00000000000E+00 0.  1.
         21   -1    0    0  502  503 -0.00000000000E+00 -0.00000000000E+00 -0.61249535761E+03  0.61249535761E+03  0.00000000000E+00 0.  1.
    9000005    1    1    2  501    0  0.31231034429E+03  0.80193084054E+02 -0.60318771907E+01  0.51381423241E+03  0.40000000000E+03 0.  1.
   -9000005    1    1    2    0  503 -0.31231034429E+03 -0.80193084054E+02 -0.16539886364E+03  0.53974574197E+03  0.40000000000E+03 0.  1.
<mgrwt>
<rscale>  2 0.51377883E+03</rscale>
<asrwt>0</asrwt>
<pdfrwt beam="1">  1       21 0.67856095E-01 0.51377883E+03</pdfrwt>
<pdfrwt beam="2">  1       21 0.94230055E-01 0.51377883E+03</pdfrwt>
<totfact> 0.15724922E+03</totfact>
</mgrwt>
</event>
<event>
 4    1  0.4857079E-002  0.4265568E+03  0.7818608E-02  0.1034953E+00
         21   -1    0    0  503  502  0.00000000000E+00  0.00000000000E+00  0.41444377149E+03  0.41444377149E+03  0.00000000000E+00 0.  1.
         21   -1    0    0  501  503 -0.00000000000E+00 -0.00000000000E+00 -0.11557080429E+04  0.11557080429E+04  0.00000000000E+00 0.  1.
    9000005    1    1    2  501    0  0.82059405271E+02  0.12335707297E+03 -0.98886414206E+03  0.10769415049E+04  0.40000000000E+03 0.  1.
   -9000005    1    1    2    0  502 -0.82059405271E+02 -0.12335707297E+03  0.24759987067E+03  0.49321030950E+03  0.40000000000E+03 0.  1.
<mgrwt>
<rscale>  2 0.42655681E+03</rscale>
<asrwt>0</asrwt>
<pdfrwt beam="1">  1       21 0.63760581E-01 0.42655681E+03</pdfrwt>
<pdfrwt beam="2">  1       21 0.17780124E+00 0.42655681E+03</pdfrwt>
<totfact> 0.35618707E+02</totfact>
</mgrwt>
</event>
<event>
 4    1  0.4857079E-002  0.4433090E+03  0.7818608E-02  0.1029736E+00
         21   -1    0    0  501  502  0.00000000000E+00  0.00000000000E+00  0.43156512560E+03  0.43156512560E+03  0.00000000000E+00 0.  1.
         21   -1    0    0  502  503 -0.00000000000E+00 -0.00000000000E+00 -0.55513145184E+03  0.55513145184E+03  0.00000000000E+00 0.  1.
    9000005    1    1    2  501    0  0.19101799369E+03 -0.59186601280E+01 -0.27092050116E+03  0.51953904800E+03  0.40000000000E+03 0.  1.
   -9000005    1    1    2    0  503 -0.19101799369E+03  0.59186601280E+01  0.14735417492E+03  0.46715752944E+03  0.40000000000E+03 0.  1.
<mgrwt>
<rscale>  2 0.44330904E+03</rscale>
<asrwt>0</asrwt>
<pdfrwt beam="1">  1       21 0.66394635E-01 0.44330904E+03</pdfrwt>
<pdfrwt beam="2">  1       21 0.85404838E-01 0.44330904E+03</pdfrwt>
<totfact> 0.21375450E+03</totfact>
</mgrwt>
</event>
<event>
 4    1  0.4857079E-002  0.7510820E+03  0.7818608E-02  0.9633654E-01
         21   -1    0    0  501  502  0.00000000000E+00  0.00000000000E+00  0.27548408076E+03  0.27548408076E+03  0.00000000000E+00 0.  1.
         21   -1    0    0  502  503 -0.00000000000E+00 -0.00000000000E+00 -0.20640227699E+04  0.20640227699E+04  0.00000000000E+00 0. -1.
    9000005    1    1    2  501    0 -0.63237650294E+03 -0.64993343289E+02 -0.99811489629E+03  0.12491427150E+04  0.40000000000E+03 0.  1.
   -9000005    1    1    2    0  503  0.63237650294E+03  0.64993343289E+02 -0.79042379289E+03  0.10903641357E+04  0.40000000000E+03 0.  1.
<mgrwt>
<rscale>  2 0.75108200E+03</rscale>
<asrwt>0</asrwt>
<pdfrwt beam="1">  1       21 0.42382166E-01 0.75108200E+03</pdfrwt>
<pdfrwt beam="2">  1       21 0.31754196E+00 0.75108200E+03</pdfrwt>
<totfact> 0.96361944E+01</totfact>
</mgrwt>
</event>
<event>
 4    1  0.4857079E-002  0.4804082E+03  0.7818608E-02  0.1019023E+00
         21   -1    0    0  501  502  0.00000000000E+00  0.00000000000E+00  0.43972369900E+03  0.43972369900E+03  0.00000000000E+00 0.  1.
         21   -1    0    0  502  503 -0.00000000000E+00 -0.00000000000E+00 -0.53005172382E+03  0.53005172382E+03  0.00000000000E+00 0.  1.
    9000005    1    1    2  501    0  0.24854594880E+03  0.94957495815E+02 -0.93166940996E+02  0.48935885970E+03  0.40000000000E+03 0. -1.
   -9000005    1    1    2    0  503 -0.24854594880E+03 -0.94957495815E+02  0.28389161828E+01  0.48041656312E+03  0.40000000000E+03 0. -1.
<mgrwt>
<rscale>  2 0.48040818E+03</rscale>
<asrwt>0</asrwt>
<pdfrwt beam="1">  1       21 0.67649800E-01 0.48040818E+03</pdfrwt>
<pdfrwt beam="2">  1       21 0.81546419E-01 0.48040818E+03</pdfrwt>
<totfact> 0.22528394E+03</totfact>
</mgrwt>
</event>
<event>
 4    1  0.4857079E-002  0.6491897E+03  0.7818608E-02  0.9808301E-01
         21   -1    0    0  501  502  0.00000000000E+00  0.00000000000E+00  0.47314527746E+03  0.47314527746E+03  0.00000000000E+00 0.  1.
         21   -1    0    0  502  503 -0.00000000000E+00 -0.00000000000E+00 -0.16603225254E+04  0.16603225254E+04  0.00000000000E+00 0. -1.
    9000005    1    1    2  501    0 -0.20009402642E+03  0.47054189005E+03  0.13266571389E+03  0.66260658112E+03  0.40000000000E+03 0.  1.
   -9000005    1    1    2    0  503  0.20009402642E+03 -0.47054189005E+03 -0.13198429619E+04  0.14708612218E+04  0.40000000000E+03 0. -1.
<mgrwt>
<rscale>  2 0.64918972E+03</rscale>
<asrwt>0</asrwt>
<pdfrwt beam="1">  1       21 0.72791581E-01 0.64918972E+03</pdfrwt>
<pdfrwt beam="2">  1       21 0.25543424E+00 0.64918972E+03</pdfrwt>
<totfact> 0.74096219E+01</totfact>
</mgrwt>
</event>
<event>
 4    1  0.4857079E-002  0.4138177E+03  0.7818608E-02  0.1039097E+00
         21   -1    0    0  501  502  0.00000000000E+00  0.00000000000E+00  0.32110276646E+03  0.32110276646E+03  0.00000000000E+00 0. -1.
         21   -1    0    0  502  503 -0.00000000000E+00 -0.00000000000E+00 -0.53947210345E+03  0.53947210345E+03  0.00000000000E+00 0. -1.
    9000005    1    1    2  501    0  0.95236671804E+02  0.46637394826E+02 -0.63171194832E+02  0.41861159815E+03  0.40000000000E+03 0.  1.
   -9000005    1    1    2    0  503 -0.95236671804E+02 -0.46637394826E+02 -0.15519814215E+03  0.44196327176E+03  0.40000000000E+03 0.  1.
<mgrwt>
<rscale>  2 0.41381768E+03</rscale>
<asrwt>0</asrwt>
<pdfrwt beam="1">  1       21 0.49400426E-01 0.41381768E+03</pdfrwt>
<pdfrwt beam="2">  1       21 0.82995708E-01 0.41381768E+03</pdfrwt>
<totfact> 0.43914757E+03</totfact>
</mgrwt>
</event>
<event>
 4    1  0.4857079E-002  0.5018807E+03  0.7818608E-02  0.1013289E+00
         21   -1    0    0  503  502  0.00000000000E+00  0.00000000000E+00  0.18379100896E+04  0.18379100896E+04  0.00000000000E+00 0. -1.
         21   -1    0    0  501  503 -0.00000000000E+00 -0.00000000000E+00 -0.25337648045E+03  0.25337648045E+03  0.00000000000E+00 0. -1.
    9000005    1    1    2  501    0  0.12342648613E+03 -0.27685769926E+03  0.83764915851E+02  0.50882299893E+03  0.40000000000E+03 0. -1.
   -9000005    1    1    2    0  502 -0.12342648613E+03  0.27685769926E+03  0.15007686933E+04  0.15824635711E+04  0.40000000000E+03 0. -1.
<mgrwt>
<rscale>  2 0.50188075E+03</rscale>
<asrwt>0</asrwt>
<pdfrwt beam="1">  1       21 0.28275539E+00 0.50188075E+03</pdfrwt>
<pdfrwt beam="2">  1       21 0.38980998E-01 0.50188075E+03</pdfrwt>
<totfact> 0.20856238E+02</totfact>
</mgrwt>
</event>
<event>
 4    1  0.4857079E-002  0.4474519E+03  0.7818608E-02  0.1028485E+00
         21   -1    0    0  503  502  0.00000000000E+00  0.00000000000E+00  0.33217116528E+03  0.33217116528E+03  0.00000000000E+00 0. -1.
         21   -1    0    0  501  503 -0.00000000000E+00 -0.00000000000E+00 -0.60715468210E+03  0.60715468210E+03  0.00000000000E+00 0. -1.
    9000005    1    1    2  501    0  0.15021560443E+01 -0.20052659335E+03 -0.97447662480E+02  0.45794019046E+03  0.40000000000E+03 0. -1.
   -9000005    1    1    2    0  502 -0.15021560443E+01  0.20052659335E+03 -0.17753585434E+03  0.48138565692E+03  0.40000000000E+03 0. -1.
<mgrwt>
<rscale>  2 0.44745186E+03</rscale>
<asrwt>0</asrwt>
<pdfrwt beam="1">  1       21 0.51103256E-01 0.44745186E+03</pdfrwt>
<pdfrwt beam="2">  1       21 0.93408413E-01 0.44745186E+03</pdfrwt>
<totfact> 0.30560563E+03</totfact>
</mgrwt>
</event>
<event>
 4    1  0.4857079E-002  0.4588023E+03  0.7818608E-02  0.1025129E+00
         21   -1    0    0  503  502  0.00000000000E+00  0.00000000000E+00  0.23524423127E+04  0.23524423127E+04  0.00000000000E+00 0. -1.
         21   -1    0    0  501  503 -0.00000000000E+00 -0.00000000000E+00 -0.92482910610E+02  0.92482910610E+02  0.00000000000E+00 0. -1.
    9000005    1    1    2  501    0  0.60298149599E+02 -0.21648026416E+03  0.90974650765E+03  0.10188907104E+04  0.40000000000E+03 0.  1.
   -9000005    1    1    2    0  502 -0.60298149599E+02  0.21648026416E+03  0.13502128945E+04  0.14260345129E+04  0.40000000000E+03 0.  1.
<mgrwt>
<rscale>  2 0.45880232E+03</rscale>
<asrwt>0</asrwt>
<pdfrwt beam="1">  1       21 0.36191416E+00 0.45880232E+03</pdfrwt>
<pdfrwt beam="2">  1       21 0.14228142E-01 0.45880232E+03</pdfrwt>
<totfact> 0.49943259E+02</totfact>
</mgrwt>
</event>
<event>
 4    1  0.4857079E-002  0.5545650E+03  0.7818608E-02  0.1000443E+00
         21   -1    0    0  503  502  0.00000000000E+00  0.00000000000E+00  0.10405437492E+04  0.10405437492E+04  0.00000000000E+00 0. -1.
         21   -1    0    0  501  503 -0.00000000000E+00 -0.00000000000E+00 -0.59765043270E+03  0.59765043270E+03  0.00000000000E+00 0. -1.
    9000005    1    1    2  501    0  0.38621863614E+02  0.38216585049E+03 -0.36089887782E+03  0.66165730227E+03  0.40000000000E+03 0. -1.
   -9000005    1    1    2    0  502 -0.38621863614E+02 -0.38216585049E+03  0.80379219431E+03  0.97653687962E+03  0.40000000000E+03 0. -1.
<mgrwt>
<rscale>  2 0.55456504E+03</rscale>
<asrwt>0</asrwt>
<pdfrwt beam="1">  1       21 0.16008365E+00 0.55456504E+03</pdfrwt>
<pdfrwt beam="2">  1       21 0.91946221E-01 0.55456504E+03</pdfrwt>
<totfact> 0.19529061E+02</totfact>
</mgrwt>
</event>
<event>
 4    1  0.4857079E-002  0.6584166E+03  0.7818608E-02  0.9791113E-01
         21   -1    0    0  501  502  0.00000000000E+00  0.00000000000E+00  0.20016051740E+04  0.20016051740E+04  0.00000000000E+00 0.  1.
         21   -1    0    0  502  503 -0.00000000000E+00 -0.00000000000E+00 -0.21864627169E+03  0.21864627169E+03  0.00000000000E+00 0.  1.
    9000005    1    1    2  501    0  0.21389070284E+03  0.47724544564E+03  0.99933505164E+03  0.11967384817E+04  0.40000000000E+03 0.  1.
   -9000005    1    1    2    0  503 -0.21389070284E+03 -0.47724544564E+03  0.78362385071E+03  0.10235129640E+04  0.40000000000E+03 0.  1.
<mgrwt>
<rscale>  2 0.65841662E+03</rscale>
<asrwt>0</asrwt>
<pdfrwt beam="1">  1       21 0.30793925E+00 0.65841662E+03</pdfrwt>
<pdfrwt beam="2">  1       21 0.33637889E-01 0.65841662E+03</pdfrwt>
<totfact> 0.18431138E+02</totfact>
</mgrwt>
</event>
<event>
 4    1  0.4857079E-002  0.4126888E+03  0.7818608E-02  0.1039472E+00
         21   -1    0    0  501  502  0.00000000000E+00  0.00000000000E+00  0.15431620840E+04  0.15431620840E+04  0.00000000000E+00 0.  1.
         21   -1    0    0  502  503 -0.00000000000E+00 -0.00000000000E+00 -0.22734531754E+03  0.22734531754E+03  0.00000000000E+00 0.  1.
    9000005    1    1    2  501    0 -0.26275070992E+02  0.98090152120E+02  0.12929175147E+04  0.13571837595E+04  0.40000000000E+03 0.  1.
   -9000005    1    1    2    0  503  0.26275070992E+02 -0.98090152120E+02  0.22899251744E+02  0.41332364199E+03  0.40000000000E+03 0.  1.
<mgrwt>
<rscale>  2 0.41268881E+03</rscale>
<asrwt>0</asrwt>
<pdfrwt beam="1">  1       21 0.23740955E+00 0.41268881E+03</pdfrwt>
<pdfrwt beam="2">  1       21 0.34976204E-01 0.41268881E+03</pdfrwt>
<totfact> 0.51679447E+02</totfact>
</mgrwt>
</event>
<event>
 4    1  0.4857079E-002  0.4525693E+03  0.7818608E-02  0.1026959E+00
         21   -1    0    0  503  502  0.00000000000E+00  0.00000000000E+00  0.35654301164E+03  0.35654301164E+03  0.00000000000E+00 0. -1.
         21   -1    0    0  501  503 -0.00000000000E+00 -0.00000000000E+00 -0.58076592797E+03  0.58076592797E+03  0.00000000000E+00 0. -1.
    9000005    1    1    2  501    0 -0.20118688425E+03  0.65900229689E+02 -0.63269407187E+02  0.45697048105E+03  0.40000000000E+03 0. -1.
   -9000005    1    1    2    0  502  0.20118688425E+03 -0.65900229689E+02 -0.16095350914E+03  0.48033845856E+03  0.40000000000E+03 0. -1.
<mgrwt>
<rscale>  2 0.45256933E+03</rscale>
<asrwt>0</asrwt>
<pdfrwt beam="1">  1       21 0.54852772E-01 0.45256933E+03</pdfrwt>
<pdfrwt beam="2">  1       21 0.89348603E-01 0.45256933E+03</pdfrwt>
<totfact> 0.29123282E+03</totfact>
</mgrwt>
</event>
<event>
 4    1  0.4857079E-002  0.4037434E+03  0.7818608E-02  0.1042491E+00
         21   -1    0    0  503  502  0.00000000000E+00  0.00000000000E+00  0.15063485440E+03  0.15063485440E+03  0.00000000000E+00 0. -1.
         21   -1    0    0  501  503 -0.00000000000E+00 -0.00000000000E+00 -0.12910372402E+04  0.12910372402E+04  0.00000000000E+00 0. -1.
    9000005    1    1    2  501    0 -0.30810291632E+02  0.45381290513E+02 -0.86015471995E+03  0.95019728364E+03  0.40000000000E+03 0. -1.
   -9000005    1    1    2    0  502  0.30810291632E+02 -0.45381290513E+02 -0.28024766590E+03  0.49147481099E+03  0.40000000000E+03 0. -1.
<mgrwt>
<rscale>  2 0.40374340E+03</rscale>
<asrwt>0</asrwt>
<pdfrwt beam="1">  1       21 0.23174592E-01 0.40374340E+03</pdfrwt>
<pdfrwt beam="2">  1       21 0.19862112E+00 0.40374340E+03</pdfrwt>
<totfact> 0.20711858E+03</totfact>
</mgrwt>
</event>
<event>
 4    1  0.4857079E-002  0.4064764E+03  0.7818608E-02  0.1041560E+00
         21   -1    0    0  501  502  0.00000000000E+00  0.00000000000E+00  0.33081651302E+03  0.33081651302E+03  0.00000000000E+00 0. -1.
         21   -1    0    0  502  503 -0.00000000000E+00 -0.00000000000E+00 -0.52299205900E+03  0.52299205900E+03  0.00000000000E+00 0. -1.
    9000005    1    1    2  501    0 -0.66736726753E+02  0.27735790211E+02 -0.54945767094E+01  0.40651353622E+03  0.40000000000E+03 0. -1.
   -9000005    1    1    2    0  503  0.66736726753E+02 -0.27735790211E+02 -0.18668096927E+03  0.44729503579E+03  0.40000000000E+03 0. -1.
<mgrwt>
<rscale>  2 0.40647640E+03</rscale>
<asrwt>0</asrwt>
<pdfrwt beam="1">  1       21 0.50894848E-01 0.40647640E+03</pdfrwt>
<pdfrwt beam="2">  1       21 0.80460317E-01 0.40647640E+03</pdfrwt>
<totfact> 0.44411115E+03</totfact>
</mgrwt>
</event>
<event>
 4    1  0.4857079E-002  0.4922562E+03  0.7818608E-02  0.1015820E+00
         21   -1    0    0  503  502  0.00000000000E+00  0.00000000000E+00  0.19759279842E+03  0.19759279842E+03  0.00000000000E+00 0. -1.
         21   -1    0    0  501  503 -0.00000000000E+00 -0.00000000000E+00 -0.17127450556E+04  0.17127450556E+04  0.00000000000E+00 0. -1.
    9000005    1    1    2  501    0  0.19229851612E+03  0.21292581191E+03 -0.12665933601E+04  0.13588873612E+04  0.40000000000E+03 0. -1.
   -9000005    1    1    2    0  502 -0.19229851612E+03 -0.21292581191E+03 -0.24855889709E+03  0.55145049279E+03  0.40000000000E+03 0. -1.
<mgrwt>
<rscale>  2 0.49225615E+03</rscale>
<asrwt>0</asrwt>
<pdfrwt beam="1">  1       21 0.30398893E-01 0.49225615E+03</pdfrwt>
<pdfrwt beam="2">  1       21 0.26349923E+00 0.49225615E+03</pdfrwt>
<totfact> 0.45385674E+02</totfact>
</mgrwt>
</event>
<event>
 4    1  0.4857079E-002  0.4237747E+03  0.7818608E-02  0.1035845E+00
         21   -1    0    0  501  502  0.00000000000E+00  0.00000000000E+00  0.12760555944E+03  0.12760555944E+03  0.00000000000E+00 0.  1.
         21   -1    0    0  502  503 -0.00000000000E+00 -0.00000000000E+00 -0.19293017820E+04  0.19293017820E+04  0.00000000000E+00 0.  1.
    9000005    1    1    2  501    0 -0.11799959849E+03 -0.75240152563E+02 -0.36591175058E+03  0.55988962753E+03  0.40000000000E+03 0.  1.
   -9000005    1    1    2    0  503  0.11799959849E+03  0.75240152563E+02 -0.14357844719E+04  0.14970177139E+04  0.40000000000E+03 0.  1.
<mgrwt>
<rscale>  2 0.42377469E+03</rscale>
<asrwt>0</asrwt>
<pdfrwt beam="1">  1       21 0.19631624E-01 0.42377469E+03</pdfrwt>
<pdfrwt beam="2">  1       21 0.29681566E+00 0.42377469E+03</pdfrwt>
<totfact> 0.69327646E+02</totfact>
</mgrwt>
</event>
<event>
 4    1  0.4857079E-002  0.4161203E+03  0.7818608E-02  0.1038336E+00
         21   -1    0    0  503  502  0.00000000000E+00  0.00000000000E+00  0.12516647567E+04  0.12516647567E+04  0.00000000000E+00 0. -1.
         21   -1    0    0  501  503 -0.00000000000E+00 -0.00000000000E+00 -0.16049455134E+03  0.16049455134E+03  0.00000000000E+00 0. -1.
    9000005    1    1    2  501    0  0.73856502432E+02 -0.87757065474E+02  0.28325453535E+03  0.50337780770E+03  0.40000000000E+03 0. -1.
   -9000005    1    1    2    0  502 -0.73856502432E+02  0.87757065474E+02  0.80791566997E+03  0.90878150029E+03  0.40000000000E+03 0. -1.
<mgrwt>
<rscale>  2 0.41612028E+03</rscale>
<asrwt>0</asrwt>
<pdfrwt beam="1">  1       21 0.19256380E+00 0.41612028E+03</pdfrwt>
<pdfrwt beam="2">  1       21 0.24691470E-01 0.41612028E+03</pdfrwt>
<totfact> 0.20007475E+03</totfact>
</mgrwt>
</event>
<event>
 4    1  0.4857079E-002  0.5146864E+03  0.7818608E-02  0.1010015E+00
         21   -1    0    0  501  502  0.00000000000E+00  0.00000000000E+00  0.54839532243E+03  0.54839532243E+03  0.00000000000E+00 0.  1.
         21   -1    0    0  502  503 -0.00000000000E+00 -0.00000000000E+00 -0.58902045802E+03  0.58902045802E+03  0.00000000000E+00 0.  1.
    9000005    1    1    2  501    0 -0.32381380402E+03 -0.68329624499E+01 -0.26153492601E+03  0.57732364110E+03  0.40000000000E+03 0.  1.
   -9000005    1    1    2    0  503  0.32381380402E+03  0.68329624499E+01  0.22090979042E+03  0.56009213934E+03  0.40000000000E+03 0.  1.
<mgrwt>
<rscale>  2 0.51468638E+03</rscale>
<asrwt>0</asrwt>
<pdfrwt beam="1">  1       21 0.84368512E-01 0.51468638E+03</pdfrwt>
<pdfrwt beam="2">  1       21 0.90618532E-01 0.51468638E+03</pdfrwt>
<totfact> 0.10474141E+03</totfact>
</mgrwt>
</event>
<event>
 4    1  0.4857079E-002  0.4063587E+03  0.7818608E-02  0.1041600E+00
         21   -1    0    0  503  502  0.00000000000E+00  0.00000000000E+00  0.18498247485E+03  0.18498247485E+03  0.00000000000E+00 0. -1.
         21   -1    0    0  501  503 -0.00000000000E+00 -0.00000000000E+00 -0.95435628339E+03  0.95435628339E+03  0.00000000000E+00 0. -1.
    9000005    1    1    2  501    0  0.50573814740E+02 -0.50692135575E+02 -0.52952375829E+03  0.66747495379E+03  0.40000000000E+03 0. -1.
   -9000005    1    1    2    0  502 -0.50573814740E+02  0.50692135575E+02 -0.23985005025E+03  0.47186380445E+03  0.40000000000E+03 0. -1.
<mgrwt>
<rscale>  2 0.40635871E+03</rscale>
<asrwt>0</asrwt>
<pdfrwt beam="1">  1       21 0.28458843E-01 0.40635871E+03</pdfrwt>
<pdfrwt beam="2">  1       21 0.14682404E+00 0.40635871E+03</pdfrwt>
<totfact> 0.32827924E+03</totfact>
</mgrwt>
</event>
<event>
 4    1  0.4857079E-002  0.4047351E+03  0.7818608E-02  0.1042152E+00
         21   -1    0    0  503  502  0.00000000000E+00  0.00000000000E+00  0.78174470899E+02  0.78174470899E+02  0.00000000000E+00 0. -1.
         21   -1    0    0  501  503 -0.00000000000E+00 -0.00000000000E+00 -0.26975288315E+04  0.26975288315E+04  0.00000000000E+00 0. -1.
    9000005    1    1    2  501    0 -0.61725858513E+02  0.66039951721E+00 -0.19653504758E+04  0.20065923878E+04  0.40000000000E+03 0. -1.
   -9000005    1    1    2    0  502  0.61725858513E+02 -0.66039951721E+00 -0.65400388478E+03  0.76911091466E+03  0.40000000000E+03 0. -1.
<mgrwt>
<rscale>  2 0.40473512E+03</rscale>
<asrwt>0</asrwt>
<pdfrwt beam="1">  1       21 0.12026841E-01 0.40473512E+03</pdfrwt>
<pdfrwt beam="2">  1       21 0.41500446E+00 0.40473512E+03</pdfrwt>
<totfact> 0.32460368E+02</totfact>
</mgrwt>
</event>
<event>
 4    1  0.4857079E-002  0.4518042E+03  0.7818608E-02  0.1027185E+00
         21   -1    0    0  501  502  0.00000000000E+00  0.00000000000E+00  0.29103871852E+03  0.29103871852E+03  0.00000000000E+00 0.  1.
         21   -1    0    0  502  503 -0.00000000000E+00 -0.00000000000E+00 -0.89145936563E+03  0.89145936563E+03  0.00000000000E+00 0.  1.
    9000005    1    1    2  501    0 -0.18570855696E+03 -0.98180408848E+02 -0.27190778854E+02  0.45262169553E+03  0.40000000000E+03 0.  1.
   -9000005    1    1    2    0  503  0.18570855696E+03  0.98180408848E+02 -0.57322986826E+03  0.72987638863E+03  0.40000000000E+03 0.  1.
<mgrwt>
<rscale>  2 0.45180423E+03</rscale>
<asrwt>0</asrwt>
<pdfrwt beam="1">  1       21 0.44775187E-01 0.45180423E+03</pdfrwt>
<pdfrwt beam="2">  1       21 0.13714760E+00 0.45180423E+03</pdfrwt>
<totfact> 0.15415332E+03</totfact>
</mgrwt>
</event>
<event>
 4    1  0.4857079E-002  0.4459000E+03  0.7818608E-02  0.1028952E+00
         21   -1    0    0  503  502  0.00000000000E+00  0.00000000000E+00  0.44993280182E+03  0.44993280182E+03  0.00000000000E+00 0.  1.
         21   -1    0    0  501  503 -0.00000000000E+00 -0.00000000000E+00 -0.54370436468E+03  0.54370436468E+03  0.00000000000E+00 0. -1.
    9000005    1    1    2  501    0  0.16756715922E+03 -0.10367288076E+03 -0.26186300228E+03  0.51710642137E+03  0.40000000000E+03 0. -1.
   -9000005    1    1    2    0  502 -0.16756715922E+03  0.10367288076E+03  0.16809143941E+03  0.47653074514E+03  0.40000000000E+03 0.  1.
<mgrwt>
<rscale>  2 0.44590001E+03</rscale>
<asrwt>0</asrwt>
<pdfrwt beam="1">  1       21 0.69220431E-01 0.44590001E+03</pdfrwt>
<pdfrwt beam="2">  1       21 0.83646825E-01 0.44590001E+03</pdfrwt>
<totfact> 0.20421178E+03</totfact>
</mgrwt>
</event>
<event>
 4    1  0.4857079E-002  0.4001626E+03  0.7818608E-02  0.1043723E+00
         21   -1    0    0  501  502  0.00000000000E+00  0.00000000000E+00  0.42731885985E+03  0.42731885985E+03  0.00000000000E+00 0.  1.
         21   -1    0    0  502  503 -0.00000000000E+00 -0.00000000000E+00 -0.45660084382E+03  0.45660084382E+03  0.00000000000E+00 0.  1.
    9000005    1    1    2  501    0  0.30185678690E+01  0.10998742395E+02 -0.20178399217E+03  0.44815941760E+03  0.40000000000E+03 0.  1.
   -9000005    1    1    2    0  503 -0.30185678690E+01 -0.10998742395E+02  0.17250200819E+03  0.43576028607E+03  0.40000000000E+03 0.  1.
<mgrwt>
<rscale>  2 0.40016257E+03</rscale>
<asrwt>0</asrwt>
<pdfrwt beam="1">  1       21 0.65741363E-01 0.40016257E+03</pdfrwt>
<pdfrwt beam="2">  1       21 0.70246284E-01 0.40016257E+03</pdfrwt>
<totfact> 0.34771074E+03</totfact>
</mgrwt>
</event>
<event>
 4    1  0.4857079E-002  0.4269781E+03  0.7818608E-02  0.1034819E+00
         21   -1    0    0  501  502  0.00000000000E+00  0.00000000000E+00  0.15751528895E+03  0.15751528895E+03  0.00000000000E+00 0.  1.
         21   -1    0    0  502  503 -0.00000000000E+00 -0.00000000000E+00 -0.12282363825E+04  0.12282363825E+04  0.00000000000E+00 0.  1.
    9000005    1    1    2  501    0  0.14670656957E+03  0.28061718034E+02 -0.36898017196E+03  0.56431963006E+03  0.40000000000E+03 0.  1.
   -9000005    1    1    2    0  503 -0.14670656957E+03 -0.28061718034E+02 -0.70174092158E+03  0.82143204137E+03  0.40000000000E+03 0.  1.
<mgrwt>
<rscale>  2 0.42697808E+03</rscale>
<asrwt>0</asrwt>
<pdfrwt beam="1">  1       21 0.24233120E-01 0.42697808E+03</pdfrwt>
<pdfrwt beam="2">  1       21 0.18895945E+00 0.42697808E+03</pdfrwt>
<totfact> 0.21847756E+03</totfact>
</mgrwt>
</event>
<event>
 4    1  0.4857079E-002  0.7423658E+03  0.7818608E-02  0.9647404E-01
         21   -1    0    0  501  502  0.00000000000E+00  0.00000000000E+00  0.73559471973E+03  0.73559471973E+03  0.00000000000E+00 0.  1.
         21   -1    0    0  502  503 -0.00000000000E+00 -0.00000000000E+00 -0.74920043605E+03  0.74920043605E+03  0.00000000000E+00 0. -1.
    9000005    1    1    2  501    0 -0.39190306132E+03 -0.48735920926E+03 -0.58666287661E+01  0.74238899888E+03  0.40000000000E+03 0. -1.
   -9000005    1    1    2    0  503  0.39190306132E+03  0.48735920926E+03 -0.77390875594E+01  0.74240615690E+03  0.40000000000E+03 0.  1.
<mgrwt>
<rscale>  2 0.74236582E+03</rscale>
<asrwt>0</asrwt>
<pdfrwt beam="1">  1       21 0.11316842E+00 0.74236582E+03</pdfrwt>
<pdfrwt beam="2">  1       21 0.11526160E+00 0.74236582E+03</pdfrwt>
<totfact> 0.26367622E+02</totfact>
</mgrwt>
</event>
<event>
 4    1  0.4857079E-002  0.4479959E+03  0.7818608E-02  0.1028321E+00
         21   -1    0    0  503  502  0.00000000000E+00  0.00000000000E+00  0.80186480572E+02  0.80186480572E+02  0.00000000000E+00 0. -1.
         21   -1    0    0  501  503 -0.00000000000E+00 -0.00000000000E+00 -0.25826426649E+04  0.25826426649E+04  0.00000000000E+00 0. -1.
    9000005    1    1    2  501    0 -0.19675496893E+03 -0.44584408810E+02 -0.14851516934E+04  0.15512497670E+04  0.40000000000E+03 0. -1.
   -9000005    1    1    2    0  502  0.19675496893E+03  0.44584408810E+02 -0.10173044909E+04  0.11115793784E+04  0.40000000000E+03 0. -1.
<mgrwt>
<rscale>  2 0.44799586E+03</rscale>
<asrwt>0</asrwt>
<pdfrwt beam="1">  1       21 0.12336381E-01 0.44799586E+03</pdfrwt>
<pdfrwt beam="2">  1       21 0.39732967E+00 0.44799586E+03</pdfrwt>
<totfact> 0.39116520E+02</totfact>
</mgrwt>
</event>
<event>
 4    1  0.4857079E-002  0.4530289E+03  0.7818608E-02  0.1026823E+00
         21   -1    0    0  503  502  0.00000000000E+00  0.00000000000E+00  0.20255289077E+04  0.20255289077E+04  0.00000000000E+00 0. -1.
         21   -1    0    0  501  503 -0.00000000000E+00 -0.00000000000E+00 -0.11053083931E+03  0.11053083931E+03  0.00000000000E+00 0. -1.
    9000005    1    1    2  501    0 -0.18292269053E+03 -0.10851019622E+03  0.64925737658E+03  0.79168826847E+03  0.40000000000E+03 0. -1.
   -9000005    1    1    2    0  502  0.18292269053E+03  0.10851019622E+03  0.12657406918E+04  0.13443714785E+04  0.40000000000E+03 0. -1.
<mgrwt>
<rscale>  2 0.45302889E+03</rscale>
<asrwt>0</asrwt>
<pdfrwt beam="1">  1       21 0.31161980E+00 0.45302889E+03</pdfrwt>
<pdfrwt beam="2">  1       21 0.17004746E-01 0.45302889E+03</pdfrwt>
<totfact> 0.72841830E+02</totfact>
</mgrwt>
</event>
<event>
 4    1  0.4857079E-002  0.5012062E+03  0.7818608E-02  0.1013465E+00
         21   -1    0    0  503  502  0.00000000000E+00  0.00000000000E+00  0.15341101067E+04  0.15341101067E+04  0.00000000000E+00 0.  1.
         21   -1    0    0  501  503 -0.00000000000E+00 -0.00000000000E+00 -0.23458482540E+03  0.23458482540E+03  0.00000000000E+00 0.  1.
    9000005    1    1    2  501    0 -0.53554544296E+02 -0.29721968588E+03  0.16380078143E+03  0.52729339735E+03  0.40000000000E+03 0.  1.
   -9000005    1    1    2    0  502  0.53554544296E+02  0.29721968588E+03  0.11357244999E+04  0.12414015348E+04  0.40000000000E+03 0.  1.
<mgrwt>
<rscale>  2 0.50120618E+03</rscale>
<asrwt>0</asrwt>
<pdfrwt beam="1">  1       21 0.23601693E+00 0.50120618E+03</pdfrwt>
<pdfrwt beam="2">  1       21 0.36089974E-01 0.50120618E+03</pdfrwt>
<totfact> 0.47279130E+02</totfact>
</mgrwt>
</event>
<event>
 4    1  0.4857079E-002  0.4200159E+03  0.7818608E-02  0.1037061E+00
         21   -1    0    0  503  502  0.00000000000E+00  0.00000000000E+00  0.11645432498E+04  0.11645432498E+04  0.00000000000E+00 0.  1.
         21   -1    0    0  501  503 -0.00000000000E+00 -0.00000000000E+00 -0.18019191774E+03  0.18019191774E+03  0.00000000000E+00 0.  1.
    9000005    1    1    2  501    0  0.12675493828E+03  0.18616600448E+02  0.76053442800E+03  0.86880723314E+03  0.40000000000E+03 0.  1.
   -9000005    1    1    2    0  502 -0.12675493828E+03 -0.18616600448E+02  0.22381690406E+03  0.47592793439E+03  0.40000000000E+03 0.  1.
<mgrwt>
<rscale>  2 0.42001594E+03</rscale>
<asrwt>0</asrwt>
<pdfrwt beam="1">  1       21 0.17916050E+00 0.42001594E+03</pdfrwt>
<pdfrwt beam="2">  1       21 0.27721834E-01 0.42001594E+03</pdfrwt>
<totfact> 0.19715631E+03</totfact>
</mgrwt>
</event>
<event>
 4    1  0.4857079E-002  0.5602684E+03  0.7818608E-02  0.9991448E-01
         21   -1    0    0  503  502  0.00000000000E+00  0.00000000000E+00  0.15350259373E+04  0.15350259373E+04  0.00000000000E+00 0.  1.
         21   -1    0    0  501  503 -0.00000000000E+00 -0.00000000000E+00 -0.46716611630E+03  0.46716611630E+03  0.00000000000E+00 0. -1.
    9000005    1    1    2  501    0  0.35807321014E+02  0.39066414711E+03 -0.21673937619E+03  0.60073005358E+03  0.40000000000E+03 0. -1.
   -9000005    1    1    2    0  502 -0.35807321014E+02 -0.39066414711E+03  0.12845991972E+04  0.14014620000E+04  0.40000000000E+03 0.  1.
<mgrwt>
<rscale>  2 0.56026836E+03</rscale>
<asrwt>0</asrwt>
<pdfrwt beam="1">  1       21 0.23615783E+00 0.56026836E+03</pdfrwt>
<pdfrwt beam="2">  1       21 0.71871711E-01 0.56026836E+03</pdfrwt>
<totfact> 0.10469282E+02</totfact>
</mgrwt>
</event>
<event>
 4    1  0.4857079E-002  0.4116354E+03  0.7818608E-02  0.1039824E+00
         21   -1    0    0  503  502  0.00000000000E+00  0.00000000000E+00  0.22276614574E+04  0.22276614574E+04  0.00000000000E+00 0. -1.
         21   -1    0    0  501  503 -0.00000000000E+00 -0.00000000000E+00 -0.13410732630E+03  0.13410732630E+03  0.00000000000E+00 0. -1.
    9000005    1    1    2  501    0 -0.97059807642E+02 -0.48026535511E+01  0.26988758574E+03  0.49222249103E+03  0.40000000000E+03 0. -1.
   -9000005    1    1    2    0  502  0.97059807642E+02  0.48026535511E+01  0.18236665453E+04  0.18695462926E+04  0.40000000000E+03 0. -1.
<mgrwt>
<rscale>  2 0.41163536E+03</rscale>
<asrwt>0</asrwt>
<pdfrwt beam="1">  1       21 0.34271712E+00 0.41163536E+03</pdfrwt>
<pdfrwt beam="2">  1       21 0.20631898E-01 0.41163536E+03</pdfrwt>
<totfact> 0.33622128E+02</totfact>
</mgrwt>
</event>
<event>
 4    1  0.4857079E-002  0.7607430E+03  0.7818608E-02  0.9618645E-01
         21   -1    0    0  501  502  0.00000000000E+00  0.00000000000E+00  0.47739142901E+03  0.47739142901E+03  0.00000000000E+00 0. -1.
         21   -1    0    0  502  503 -0.00000000000E+00 -0.00000000000E+00 -0.13147888699E+04  0.13147888699E+04  0.00000000000E+00 0.  1.
    9000005    1    1    2  501    0 -0.20340261480E+03 -0.61429417433E+03 -0.16848342936E+03  0.77917688768E+03  0.40000000000E+03 0. -1.
   -9000005    1    1    2    0  503  0.20340261480E+03  0.61429417433E+03 -0.66891401153E+03  0.10130034112E+04  0.40000000000E+03 0.  1.
<mgrwt>
<rscale>  2 0.76074303E+03</rscale>
<asrwt>0</asrwt>
<pdfrwt beam="1">  1       21 0.73444836E-01 0.76074303E+03</pdfrwt>
<pdfrwt beam="2">  1       21 0.20227521E+00 0.76074303E+03</pdfrwt>
<totfact> 0.15354292E+02</totfact>
</mgrwt>
</event>
<event>
 4    1  0.4857079E-002  0.4095059E+03  0.7818608E-02  0.1040537E+00
         21   -1    0    0  501  502  0.00000000000E+00  0.00000000000E+00  0.31903021162E+03  0.31903021162E+03  0.00000000000E+00 0.  1.
         21   -1    0    0  502  503 -0.00000000000E+00 -0.00000000000E+00 -0.78311609684E+03  0.78311609684E+03  0.00000000000E+00 0.  1.
    9000005    1    1    2  501    0 -0.80315465638E+02  0.35277569494E+02  0.83940648613E+02  0.41802047010E+03  0.40000000000E+03 0.  1.
   -9000005    1    1    2    0  503  0.80315465638E+02 -0.35277569494E+02 -0.54802653383E+03  0.68412583836E+03  0.40000000000E+03 0.  1.
<mgrwt>
<rscale>  2 0.40950590E+03</rscale>
<asrwt>0</asrwt>
<pdfrwt beam="1">  1       21 0.49081571E-01 0.40950590E+03</pdfrwt>
<pdfrwt beam="2">  1       21 0.12047940E+00 0.40950590E+03</pdfrwt>
<totfact> 0.18074053E+03</totfact>
</mgrwt>
</event>
<event>
 4    1  0.4857079E-002  0.4358172E+03  0.7818608E-02  0.1032038E+00
         21   -1    0    0  501  502  0.00000000000E+00  0.00000000000E+00  0.99394257168E+03  0.99394257168E+03  0.00000000000E+00 0. -1.
         21   -1    0    0  502  503 -0.00000000000E+00 -0.00000000000E+00 -0.24066797910E+03  0.24066797910E+03  0.00000000000E+00 0. -1.
    9000005    1    1    2  501    0 -0.17272270887E+03 -0.10171338006E+02  0.96470182433E+02  0.44636653815E+03  0.40000000000E+03 0. -1.
   -9000005    1    1    2    0  503  0.17272270887E+03  0.10171338006E+02  0.65680441014E+03  0.78824401264E+03  0.40000000000E+03 0. -1.
<mgrwt>
<rscale>  2 0.43581715E+03</rscale>
<asrwt>0</asrwt>
<pdfrwt beam="1">  1       21 0.15291424E+00 0.43581715E+03</pdfrwt>
<pdfrwt beam="2">  1       21 0.37025844E-01 0.43581715E+03</pdfrwt>
<totfact> 0.17148712E+03</totfact>
</mgrwt>
</event>
<event>
 4    1  0.4857079E-002  0.4164921E+03  0.7818608E-02  0.1038214E+00
         21   -1    0    0  501  502  0.00000000000E+00  0.00000000000E+00  0.93533536087E+02  0.93533536087E+02  0.00000000000E+00 0.  1.
         21   -1    0    0  502  503 -0.00000000000E+00 -0.00000000000E+00 -0.18918444753E+04  0.18918444753E+04  0.00000000000E+00 0. -1.
    9000005    1    1    2  501    0 -0.11602460377E+03  0.19810763024E+01 -0.75983817142E+03  0.86649851708E+03  0.40000000000E+03 0. -1.
   -9000005    1    1    2    0  503  0.11602460377E+03 -0.19810763024E+01 -0.10384727678E+04  0.11188794943E+04  0.40000000000E+03 0. -1.
<mgrwt>
<rscale>  2 0.41649206E+03</rscale>
<asrwt>0</asrwt>
<pdfrwt beam="1">  1       21 0.14389776E-01 0.41649206E+03</pdfrwt>
<pdfrwt beam="2">  1       21 0.29105297E+00 0.41649206E+03</pdfrwt>
<totfact> 0.13477090E+03</totfact>
</mgrwt>
</event>
<event>
 4    1  0.4857079E-002  0.4546059E+03  0.7818608E-02  0.1026357E+00
         21   -1    0    0  503  502  0.00000000000E+00  0.00000000000E+00  0.52876920346E+03  0.52876920346E+03  0.00000000000E+00 0.  1.
         21   -1    0    0  501  503 -0.00000000000E+00 -0.00000000000E+00 -0.45577549078E+03  0.45577549078E+03  0.00000000000E+00 0.  1.
    9000005    1    1    2  501    0  0.21453907855E+03  0.25288829796E+02 -0.14930751724E+03  0.47849689220E+03  0.40000000000E+03 0.  1.
   -9000005    1    1    2    0  502 -0.21453907855E+03 -0.25288829796E+02  0.22230122992E+03  0.50604780205E+03  0.40000000000E+03 0.  1.
<mgrwt>
<rscale>  2 0.45460592E+03</rscale>
<asrwt>0</asrwt>
<pdfrwt beam="1">  1       21 0.81349108E-01 0.45460592E+03</pdfrwt>
<pdfrwt beam="2">  1       21 0.70119306E-01 0.45460592E+03</pdfrwt>
<totfact> 0.21095327E+03</totfact>
</mgrwt>
</event>
<event>
 4    1  0.4857079E-002  0.4154072E+03  0.7818608E-02  0.1038572E+00
         21   -1    0    0  501  502  0.00000000000E+00  0.00000000000E+00  0.10622758376E+04  0.10622758376E+04  0.00000000000E+00 0.  1.
         21   -1    0    0  502  503 -0.00000000000E+00 -0.00000000000E+00 -0.94343477612E+03  0.94343477612E+03  0.00000000000E+00 0.  1.
    9000005    1    1    2  501    0 -0.10796279816E+03 -0.30119403257E+02  0.97186103103E+03  0.10569186382E+04  0.40000000000E+03 0.  1.
   -9000005    1    1    2    0  503  0.10796279816E+03  0.30119403257E+02 -0.85301996956E+03  0.94879197546E+03  0.40000000000E+03 0.  1.
<mgrwt>
<rscale>  2 0.41540720E+03</rscale>
<asrwt>0</asrwt>
<pdfrwt beam="1">  1       21 0.16342705E+00 0.41540720E+03</pdfrwt>
<pdfrwt beam="2">  1       21 0.14514381E+00 0.41540720E+03</pdfrwt>
<totfact> 0.62502208E+01</totfact>
</mgrwt>
</event>
<event>
 4    1  0.4857079E-002  0.5254394E+03  0.7818608E-02  0.1007344E+00
         21   -1    0    0  503  502  0.00000000000E+00  0.00000000000E+00  0.11353756477E+04  0.11353756477E+04  0.00000000000E+00 0.  1.
         21   -1    0    0  501  503 -0.00000000000E+00 -0.00000000000E+00 -0.26350092750E+03  0.26350092750E+03  0.00000000000E+00 0. -1.
    9000005    1    1    2  501    0  0.32045576285E+03  0.11573528581E+03  0.24164186338E+03  0.57834016155E+03  0.40000000000E+03 0.  1.
   -9000005    1    1    2    0  502 -0.32045576285E+03 -0.11573528581E+03  0.63023285684E+03  0.82053641367E+03  0.40000000000E+03 0.  1.
<mgrwt>
<rscale>  2 0.52543939E+03</rscale>
<asrwt>0</asrwt>
<pdfrwt beam="1">  1       21 0.17467317E+00 0.52543939E+03</pdfrwt>
<pdfrwt beam="2">  1       21 0.40538605E-01 0.52543939E+03</pdfrwt>
<totfact> 0.94490129E+02</totfact>
</mgrwt>
</event>
<event>
 4    1  0.4857079E-002  0.4236585E+03  0.7818608E-02  0.1035882E+00
         21   -1    0    0  503  502  0.00000000000E+00  0.00000000000E+00  0.38193561470E+03  0.38193561470E+03  0.00000000000E+00 0. -1.
         21   -1    0    0  501  503 -0.00000000000E+00 -0.00000000000E+00 -0.81541059184E+03  0.81541059184E+03  0.00000000000E+00 0.  1.
    9000005    1    1    2  501    0  0.29142189029E+02 -0.13651826180E+03 -0.60641706184E+03  0.73974871131E+03  0.40000000000E+03 0.  1.
   -9000005    1    1    2    0  502 -0.29142189029E+02  0.13651826180E+03  0.17294208470E+03  0.45759749524E+03  0.40000000000E+03 0. -1.
<mgrwt>
<rscale>  2 0.42365847E+03</rscale>
<asrwt>0</asrwt>
<pdfrwt beam="1">  1       21 0.58759326E-01 0.42365847E+03</pdfrwt>
<pdfrwt beam="2">  1       21 0.12544778E+00 0.42365847E+03</pdfrwt>
<totfact> 0.11007480E+03</totfact>
</mgrwt>
</event>
<event>
 4    1  0.4857079E-002  0.4762633E+03  0.7818608E-02  0.1020167E+00
         21   -1    0    0  501  502  0.00000000000E+00  0.00000000000E+00  0.34043555740E+03  0.34043555740E+03  0.00000000000E+00 0.  1.
         21   -1    0    0  502  503 -0.00000000000E+00 -0.00000000000E+00 -0.72512625531E+03  0.72512625531E+03  0.00000000000E+00 0. -1.
    9000005    1    1    2  501    0 -0.15758437119E+03 -0.20492414688E+03 -0.34411563834E+03  0.58757324018E+03  0.40000000000E+03 0. -1.
   -9000005    1    1    2    0  503  0.15758437119E+03  0.20492414688E+03 -0.40575059565E+02  0.47798857254E+03  0.40000000000E+03 0.  1.
<mgrwt>
<rscale>  2 0.47626331E+03</rscale>
<asrwt>0</asrwt>
<pdfrwt beam="1">  1       21 0.52374702E-01 0.47626331E+03</pdfrwt>
<pdfrwt beam="2">  1       21 0.11155788E+00 0.47626331E+03</pdfrwt>
<totfact> 0.18595742E+03</totfact>
</mgrwt>
</event>
<event>
 4    1  0.4857079E-002  0.5740455E+03  0.7818608E-02  0.9960766E-01
         21   -1    0    0  501  502  0.00000000000E+00  0.00000000000E+00  0.49419196538E+03  0.49419196538E+03  0.00000000000E+00 0.  1.
         21   -1    0    0  502  503 -0.00000000000E+00 -0.00000000000E+00 -0.92804907351E+03  0.92804907351E+03  0.00000000000E+00 0.  1.
    9000005    1    1    2  501    0  0.35027807086E+03  0.21641051657E+03  0.16036846722E+03  0.59602540540E+03  0.40000000000E+03 0.  1.
   -9000005    1    1    2    0  503 -0.35027807086E+03 -0.21641051657E+03 -0.59422557535E+03  0.82621563348E+03  0.40000000000E+03 0.  1.
<mgrwt>
<rscale>  2 0.57404550E+03</rscale>
<asrwt>0</asrwt>
<pdfrwt beam="1">  1       21 0.76029534E-01 0.57404550E+03</pdfrwt>
<pdfrwt beam="2">  1       21 0.14277678E+00 0.57404550E+03</pdfrwt>
<totfact> 0.41446575E+02</totfact>
</mgrwt>
</event>
<event>
 4    1  0.4857079E-002  0.5088226E+03  0.7818608E-02  0.1011501E+00
         21   -1    0    0  501  502  0.00000000000E+00  0.00000000000E+00  0.19992708647E+04  0.19992708647E+04  0.00000000000E+00 0. -1.
         21   -1    0    0  502  503 -0.00000000000E+00 -0.00000000000E+00 -0.23909882338E+03  0.23909882338E+03  0.00000000000E+00 0.  1.
    9000005    1    1    2  501    0  0.27104550461E+03 -0.15948267034E+03  0.16378277229E+04  0.17150451999E+04  0.40000000000E+03 0. -1.
   -9000005    1    1    2    0  503 -0.27104550461E+03  0.15948267034E+03  0.12234431842E+03  0.52332448821E+03  0.40000000000E+03 0.  1.
<mgrwt>
<rscale>  2 0.50882255E+03</rscale>
<asrwt>0</asrwt>
<pdfrwt beam="1">  1       21 0.30758012E+00 0.50882255E+03</pdfrwt>
<pdfrwt beam="2">  1       21 0.36784436E-01 0.50882255E+03</pdfrwt>
<totfact> 0.16562578E+02</totfact>
</mgrwt>
</event>
<event>
 4    1  0.4857079E-002  0.4226960E+03  0.7818608E-02  0.1036192E+00
         21   -1    0    0  503  502  0.00000000000E+00  0.00000000000E+00  0.39322937739E+03  0.39322937739E+03  0.00000000000E+00 0.  1.
         21   -1    0    0  501  503 -0.00000000000E+00 -0.00000000000E+00 -0.47522560554E+03  0.47522560554E+03  0.00000000000E+00 0. -1.
    9000005    1    1    2  501    0 -0.40986059751E+02 -0.13035359092E+03 -0.13196247930E+03  0.44281600208E+03  0.40000000000E+03 0. -1.
   -9000005    1    1    2    0  502  0.40986059751E+02  0.13035359092E+03  0.49966251154E+02  0.42563898084E+03  0.40000000000E+03 0.  1.
<mgrwt>
<rscale>  2 0.42269601E+03</rscale>
<asrwt>0</asrwt>
<pdfrwt beam="1">  1       21 0.60496828E-01 0.42269601E+03</pdfrwt>
<pdfrwt beam="2">  1       21 0.73111631E-01 0.42269601E+03</pdfrwt>
<totfact> 0.37842400E+03</totfact>
</mgrwt>
</event>
<event>
 4    1  0.4857079E-002  0.4161015E+03  0.7818608E-02  0.1038343E+00
         21   -1    0    0  501  502  0.00000000000E+00  0.00000000000E+00  0.11058295421E+04  0.11058295421E+04  0.00000000000E+00 0. -1.
         21   -1    0    0  502  503 -0.00000000000E+00 -0.00000000000E+00 -0.21429192994E+03  0.21429192994E+03  0.00000000000E+00 0. -1.
    9000005    1    1    2  501    0  0.11123271275E+03  0.27708871370E+02  0.78833839398E+03  0.89141344020E+03  0.40000000000E+03 0. -1.
   -9000005    1    1    2    0  503 -0.11123271275E+03 -0.27708871370E+02  0.10319921820E+03  0.42870803185E+03  0.40000000000E+03 0. -1.
<mgrwt>
<rscale>  2 0.41610155E+03</rscale>
<asrwt>0</asrwt>
<pdfrwt beam="1">  1       21 0.17012762E+00 0.41610155E+03</pdfrwt>
<pdfrwt beam="2">  1       21 0.32967990E-01 0.41610155E+03</pdfrwt>
<totfact> 0.16243736E+03</totfact>
</mgrwt>
</event>
<event>
 4    1  0.4857079E-002  0.4395799E+03  0.7818608E-02  0.1030876E+00
         21   -1    0    0  501  502  0.00000000000E+00  0.00000000000E+00  0.11754546514E+04  0.11754546514E+04  0.00000000000E+00 0. -1.
         21   -1    0    0  502  503 -0.00000000000E+00 -0.00000000000E+00 -0.21981214522E+03  0.21981214522E+03  0.00000000000E+00 0. -1.
    9000005    1    1    2  501    0  0.14266907886E+03  0.11347246208E+03  0.82813041968E+03  0.93756624178E+03  0.40000000000E+03 0. -1.
   -9000005    1    1    2    0  503 -0.14266907886E+03 -0.11347246208E+03  0.12751208651E+03  0.45770055486E+03  0.40000000000E+03 0. -1.
<mgrwt>
<rscale>  2 0.43957987E+03</rscale>
<asrwt>0</asrwt>
<pdfrwt beam="1">  1       21 0.18083917E+00 0.43957987E+03</pdfrwt>
<pdfrwt beam="2">  1       21 0.33817254E-01 0.43957987E+03</pdfrwt>
<totfact> 0.12807706E+03</totfact>
</mgrwt>
</event>
<event>
 4    1  0.4857079E-002  0.5250388E+03  0.7818608E-02  0.1007442E+00
         21   -1    0    0  503  502  0.00000000000E+00  0.00000000000E+00  0.18729023017E+04  0.18729023017E+04  0.00000000000E+00 0. -1.
         21   -1    0    0  501  503 -0.00000000000E+00 -0.00000000000E+00 -0.22089703122E+03  0.22089703122E+03  0.00000000000E+00 0.  1.
    9000005    1    1    2  501    0 -0.27068434232E+03 -0.20590235450E+03  0.14307515749E+04  0.15240458857E+04  0.40000000000E+03 0. -1.
   -9000005    1    1    2    0  502  0.27068434232E+03  0.20590235450E+03  0.22125369559E+03  0.56975344718E+03  0.40000000000E+03 0.  1.
<mgrwt>
<rscale>  2 0.52503885E+03</rscale>
<asrwt>0</asrwt>
<pdfrwt beam="1">  1       21 0.28813880E+00 0.52503885E+03</pdfrwt>
<pdfrwt beam="2">  1       21 0.33984160E-01 0.52503885E+03</pdfrwt>
<totfact> 0.25295415E+02</totfact>
</mgrwt>
</event>
<event>
 4    1  0.4857079E-002  0.6409771E+03  0.7818608E-02  0.9823859E-01
         21   -1    0    0  503  502  0.00000000000E+00  0.00000000000E+00  0.24352125713E+04  0.24352125713E+04  0.00000000000E+00 0.  1.
         21   -1    0    0  501  503 -0.00000000000E+00 -0.00000000000E+00 -0.16891938546E+03  0.16891938546E+03  0.00000000000E+00 0. -1.
    9000005    1    1    2  501    0 -0.49438293934E+03 -0.80231766432E+02  0.10876161501E+04  0.12624422827E+04  0.40000000000E+03 0.  1.
   -9000005    1    1    2    0  502  0.49438293934E+03  0.80231766432E+02  0.11786770357E+04  0.13416896741E+04  0.40000000000E+03 0.  1.
<mgrwt>
<rscale>  2 0.64097709E+03</rscale>
<asrwt>0</asrwt>
<pdfrwt beam="1">  1       21 0.37464806E+00 0.64097709E+03</pdfrwt>
<pdfrwt beam="2">  1       21 0.25987600E-01 0.64097709E+03</pdfrwt>
<totfact> 0.11995496E+02</totfact>
</mgrwt>
</event>
<event>
 4    1  0.4857079E-002  0.4166022E+03  0.7818608E-02  0.1038178E+00
         21   -1    0    0  501  502  0.00000000000E+00  0.00000000000E+00  0.19211053774E+03  0.19211053774E+03  0.00000000000E+00 0.  1.
         21   -1    0    0  502  503 -0.00000000000E+00 -0.00000000000E+00 -0.10836244701E+04  0.10836244701E+04  0.00000000000E+00 0.  1.
    9000005    1    1    2  501    0 -0.11267311572E+03  0.29363291127E+02 -0.18564040099E+03  0.45609186832E+03  0.40000000000E+03 0.  1.
   -9000005    1    1    2    0  503  0.11267311572E+03 -0.29363291127E+02 -0.70587353132E+03  0.81964313948E+03  0.40000000000E+03 0.  1.
<mgrwt>
<rscale>  2 0.41660225E+03</rscale>
<asrwt>0</asrwt>
<pdfrwt beam="1">  1       21 0.29555466E-01 0.41660225E+03</pdfrwt>
<pdfrwt beam="2">  1       21 0.16671146E+00 0.41660225E+03</pdfrwt>
<totfact> 0.21383793E+03</totfact>
</mgrwt>
</event>
<event>
 4    1  0.4857079E-002  0.4827624E+03  0.7818608E-02  0.1018379E+00
         21   -1    0    0  503  502  0.00000000000E+00  0.00000000000E+00  0.83173073149E+03  0.83173073149E+03  0.00000000000E+00 0. -1.
         21   -1    0    0  501  503 -0.00000000000E+00 -0.00000000000E+00 -0.29411360316E+03  0.29411360316E+03  0.00000000000E+00 0. -1.
    9000005    1    1    2  501    0  0.61706211578E+02 -0.26315754162E+03  0.39119948982E+03  0.62136671064E+03  0.40000000000E+03 0. -1.
   -9000005    1    1    2    0  502 -0.61706211578E+02  0.26315754162E+03  0.14641763850E+03  0.50447762401E+03  0.40000000000E+03 0. -1.
<mgrwt>
<rscale>  2 0.48276241E+03</rscale>
<asrwt>0</asrwt>
<pdfrwt beam="1">  1       21 0.12795857E+00 0.48276241E+03</pdfrwt>
<pdfrwt beam="2">  1       21 0.45248247E-01 0.48276241E+03</pdfrwt>
<totfact> 0.17857764E+03</totfact>
</mgrwt>
</event>
<event>
 4    1  0.4857079E-002  0.4918357E+03  0.7818608E-02  0.1015932E+00
         21   -1    0    0  503  502  0.00000000000E+00  0.00000000000E+00  0.65257414398E+03  0.65257414398E+03  0.00000000000E+00 0.  1.
         21   -1    0    0  501  503 -0.00000000000E+00 -0.00000000000E+00 -0.39671560363E+03  0.39671560363E+03  0.00000000000E+00 0.  1.
    9000005    1    1    2  501    0 -0.22209346801E+03 -0.18049062838E+03 -0.64494399657E+01  0.49187800392E+03  0.40000000000E+03 0.  1.
   -9000005    1    1    2    0  502  0.22209346801E+03  0.18049062838E+03  0.26230798031E+03  0.55741174369E+03  0.40000000000E+03 0.  1.
<mgrwt>
<rscale>  2 0.49183572E+03</rscale>
<asrwt>0</asrwt>
<pdfrwt beam="1">  1       21 0.10039602E+00 0.49183572E+03</pdfrwt>
<pdfrwt beam="2">  1       21 0.61033170E-01 0.49183572E+03</pdfrwt>
<totfact> 0.17204493E+03</totfact>
</mgrwt>
</event>
<event>
 4    1  0.4857079E-002  0.5437785E+03  0.7818608E-02  0.1002944E+00
         21   -1    0    0  501  502  0.00000000000E+00  0.00000000000E+00  0.86740147212E+03  0.86740147212E+03  0.00000000000E+00 0. -1.
         21   -1    0    0  502  503 -0.00000000000E+00 -0.00000000000E+00 -0.70022816011E+03  0.70022816011E+03  0.00000000000E+00 0.  1.
    9000005    1    1    2  501    0 -0.15171698475E+03 -0.33567404860E+03  0.64507499143E+03  0.84369239355E+03  0.40000000000E+03 0. -1.
   -9000005    1    1    2    0  503  0.15171698475E+03  0.33567404860E+03 -0.47790167942E+03  0.72393723868E+03  0.40000000000E+03 0.  1.
<mgrwt>
<rscale>  2 0.54377855E+03</rscale>
<asrwt>0</asrwt>
<pdfrwt beam="1">  1       21 0.13344638E+00 0.54377855E+03</pdfrwt>
<pdfrwt beam="2">  1       21 0.10772741E+00 0.54377855E+03</pdfrwt>
<totfact> 0.21842116E+02</totfact>
</mgrwt>
</event>
<event>
 4    1  0.4857079E-002  0.4470036E+03  0.7818608E-02  0.1028619E+00
         21   -1    0    0  503  502  0.00000000000E+00  0.00000000000E+00  0.18468729122E+03  0.18468729122E+03  0.00000000000E+00 0.  1.
         21   -1    0    0  501  503 -0.00000000000E+00 -0.00000000000E+00 -0.11789857036E+04  0.11789857036E+04  0.00000000000E+00 0.  1.
    9000005    1    1    2  501    0  0.13699251964E+03 -0.14506981082E+03 -0.69281525869E+03  0.82450299157E+03  0.40000000000E+03 0.  1.
   -9000005    1    1    2    0  502 -0.13699251964E+03  0.14506981082E+03 -0.30148315373E+03  0.53917000327E+03  0.40000000000E+03 0.  1.
<mgrwt>
<rscale>  2 0.44700358E+03</rscale>
<asrwt>0</asrwt>
<pdfrwt beam="1">  1       21 0.28413428E-01 0.44700358E+03</pdfrwt>
<pdfrwt beam="2">  1       21 0.18138243E+00 0.44700358E+03</pdfrwt>
<totfact> 0.17907575E+03</totfact>
</mgrwt>
</event>
<event>
 4    1  0.4857079E-002  0.5541806E+03  0.7818608E-02  0.1000531E+00
         21   -1    0    0  503  502  0.00000000000E+00  0.00000000000E+00  0.39352916520E+03  0.39352916520E+03  0.00000000000E+00 0.  1.
         21   -1    0    0  501  503 -0.00000000000E+00 -0.00000000000E+00 -0.90097650802E+03  0.90097650802E+03  0.00000000000E+00 0.  1.
    9000005    1    1    2  501    0 -0.14502598820E+03 -0.35508251605E+03 -0.49049071860E+03  0.74006572376E+03  0.40000000000E+03 0.  1.
   -9000005    1    1    2    0  502  0.14502598820E+03  0.35508251605E+03 -0.16956624216E+02  0.55443994946E+03  0.40000000000E+03 0.  1.
<mgrwt>
<rscale>  2 0.55418059E+03</rscale>
<asrwt>0</asrwt>
<pdfrwt beam="1">  1       21 0.60542950E-01 0.55418059E+03</pdfrwt>
<pdfrwt beam="2">  1       21 0.13861177E+00 0.55418059E+03</pdfrwt>
<totfact> 0.75474368E+02</totfact>
</mgrwt>
</event>
<event>
 4    1  0.4857079E-002  0.4507564E+03  0.7818608E-02  0.1027497E+00
         21   -1    0    0  503  502  0.00000000000E+00  0.00000000000E+00  0.37309696360E+03  0.37309696360E+03  0.00000000000E+00 0.  1.
         21   -1    0    0  501  503 -0.00000000000E+00 -0.00000000000E+00 -0.57848714364E+03  0.57848714364E+03  0.00000000000E+00 0.  1.
    9000005    1    1    2  501    0  0.11324633306E+03 -0.17423147219E+03 -0.21788451538E+03  0.50065457143E+03  0.40000000000E+03 0.  1.
   -9000005    1    1    2    0  502 -0.11324633306E+03  0.17423147219E+03  0.12494335341E+02  0.45092953581E+03  0.40000000000E+03 0.  1.
<mgrwt>
<rscale>  2 0.45075641E+03</rscale>
<asrwt>0</asrwt>
<pdfrwt beam="1">  1       21 0.57399533E-01 0.45075641E+03</pdfrwt>
<pdfrwt beam="2">  1       21 0.88998022E-01 0.45075641E+03</pdfrwt>
<totfact> 0.26660514E+03</totfact>
</mgrwt>
</event>
<event>
 4    1  0.4857079E-002  0.4087273E+03  0.7818608E-02  0.1040799E+00
         21   -1    0    0  501  502  0.00000000000E+00  0.00000000000E+00  0.28252480096E+03  0.28252480096E+03  0.00000000000E+00 0.  1.
         21   -1    0    0  502  503 -0.00000000000E+00 -0.00000000000E+00 -0.67755033930E+03  0.67755033930E+03  0.00000000000E+00 0.  1.
    9000005    1    1    2  501    0 -0.54026136362E+02  0.64336282597E+02 -0.26245113533E+02  0.40956902550E+03  0.40000000000E+03 0.  1.
   -9000005    1    1    2    0  503  0.54026136362E+02 -0.64336282597E+02 -0.36878042480E+03  0.55050611476E+03  0.40000000000E+03 0.  1.
<mgrwt>
<rscale>  2 0.40872727E+03</rscale>
<asrwt>0</asrwt>
<pdfrwt beam="1">  1       21 0.43465354E-01 0.40872727E+03</pdfrwt>
<pdfrwt beam="2">  1       21 0.10423851E+00 0.40872727E+03</pdfrwt>
<totfact> 0.33442511E+03</totfact>
</mgrwt>
</event>
<event>
 4    1  0.4857079E-002  0.4297633E+03  0.7818608E-02  0.1033935E+00
         21   -1    0    0  503  502  0.00000000000E+00  0.00000000000E+00  0.11599804038E+04  0.11599804038E+04  0.00000000000E+00 0.  1.
         21   -1    0    0  501  503 -0.00000000000E+00 -0.00000000000E+00 -0.22287267308E+03  0.22287267308E+03  0.00000000000E+00 0.  1.
    9000005    1    1    2  501    0 -0.99038526705E+02 -0.12201572731E+03  0.99055047823E+02  0.44103103063E+03  0.40000000000E+03 0.  1.
   -9000005    1    1    2    0  502  0.99038526705E+02  0.12201572731E+03  0.83805268288E+03  0.94182204623E+03  0.40000000000E+03 0.  1.
<mgrwt>
<rscale>  2 0.42976327E+03</rscale>
<asrwt>0</asrwt>
<pdfrwt beam="1">  1       21 0.17845852E+00 0.42976327E+03</pdfrwt>
<pdfrwt beam="2">  1       21 0.34288104E-01 0.42976327E+03</pdfrwt>
<totfact> 0.13003566E+03</totfact>
</mgrwt>
</event>
<event>
 4    1  0.4857079E-002  0.4405053E+03  0.7818608E-02  0.1030592E+00
         21   -1    0    0  501  502  0.00000000000E+00  0.00000000000E+00  0.10548189125E+04  0.10548189125E+04  0.00000000000E+00 0. -1.
         21   -1    0    0  502  503 -0.00000000000E+00 -0.00000000000E+00 -0.20156062906E+03  0.20156062906E+03  0.00000000000E+00 0. -1.
    9000005    1    1    2  501    0  0.37875916974E+02  0.18058331216E+03  0.61225867240E+03  0.75425831096E+03  0.40000000000E+03 0.  1.
   -9000005    1    1    2    0  503 -0.37875916974E+02 -0.18058331216E+03  0.24099961106E+03  0.50212123063E+03  0.40000000000E+03 0.  1.
<mgrwt>
<rscale>  2 0.44050530E+03</rscale>
<asrwt>0</asrwt>
<pdfrwt beam="1">  1       21 0.16227983E+00 0.44050530E+03</pdfrwt>
<pdfrwt beam="2">  1       21 0.31009328E-01 0.44050530E+03</pdfrwt>
<totfact> 0.20756020E+03</totfact>
</mgrwt>
</event>
<event>
 4    1  0.4857079E-002  0.4510161E+03  0.7818608E-02  0.1027419E+00
         21   -1    0    0  501  502  0.00000000000E+00  0.00000000000E+00  0.30749117154E+03  0.30749117154E+03  0.00000000000E+00 0.  1.
         21   -1    0    0  502  503 -0.00000000000E+00 -0.00000000000E+00 -0.10001991629E+04  0.10001991629E+04  0.00000000000E+00 0.  1.
    9000005    1    1    2  501    0 -0.12439474602E+03  0.16715691010E+03  0.34113647294E+02  0.45230435148E+03  0.40000000000E+03 0.  1.
   -9000005    1    1    2    0  503  0.12439474602E+03 -0.16715691010E+03 -0.72682163863E+03  0.85538598294E+03  0.40000000000E+03 0.  1.
<mgrwt>
<rscale>  2 0.45101606E+03</rscale>
<asrwt>0</asrwt>
<pdfrwt beam="1">  1       21 0.47306333E-01 0.45101606E+03</pdfrwt>
<pdfrwt beam="2">  1       21 0.15387680E+00 0.45101606E+03</pdfrwt>
<totfact> 0.10078685E+03</totfact>
</mgrwt>
</event>
<event>
 4    1  0.4857079E-002  0.4362044E+03  0.7818608E-02  0.1031918E+00
         21   -1    0    0  503  502  0.00000000000E+00  0.00000000000E+00  0.13882818386E+04  0.13882818386E+04  0.00000000000E+00 0.  1.
         21   -1    0    0  501  503 -0.00000000000E+00 -0.00000000000E+00 -0.11465628644E+04  0.11465628644E+04  0.00000000000E+00 0. -1.
    9000005    1    1    2  501    0  0.78050924087E+02  0.15550661084E+03 -0.10684003990E+04  0.11540163194E+04  0.40000000000E+03 0. -1.
   -9000005    1    1    2    0  502 -0.78050924087E+02 -0.15550661084E+03  0.13101193732E+04  0.13808283836E+04  0.40000000000E+03 0.  1.
<mgrwt>
<rscale>  2 0.43620437E+03</rscale>
<asrwt>0</asrwt>
<pdfrwt beam="1">  1       21 0.21358182E+00 0.43620437E+03</pdfrwt>
<pdfrwt beam="2">  1       21 0.17639429E+00 0.43620437E+03</pdfrwt>
<totfact> 0.16176485E+01</totfact>
</mgrwt>
</event>
<event>
 4    1  0.4857079E-002  0.5821112E+03  0.7818608E-02  0.9943231E-01
         21   -1    0    0  503  502  0.00000000000E+00  0.00000000000E+00  0.19448364757E+04  0.19448364757E+04  0.00000000000E+00 0. -1.
         21   -1    0    0  501  503 -0.00000000000E+00 -0.00000000000E+00 -0.51837825580E+03  0.51837825580E+03  0.00000000000E+00 0. -1.
    9000005    1    1    2  501    0 -0.37782609147E+03 -0.19000240215E+03 -0.29027736864E+03  0.65047245826E+03  0.40000000000E+03 0. -1.
   -9000005    1    1    2    0  502  0.37782609147E+03  0.19000240215E+03  0.17167355885E+04  0.18127422732E+04  0.40000000000E+03 0. -1.
<mgrwt>
<rscale>  2 0.58211122E+03</rscale>
<asrwt>0</asrwt>
<pdfrwt beam="1">  1       21 0.29920561E+00 0.58211122E+03</pdfrwt>
<pdfrwt beam="2">  1       21 0.79750502E-01 0.58211122E+03</pdfrwt>
<totfact> 0.33397261E+01</totfact>
</mgrwt>
</event>
<event>
 4    1  0.4857079E-002  0.4562631E+03  0.7818608E-02  0.1025871E+00
         21   -1    0    0  503  502  0.00000000000E+00  0.00000000000E+00  0.37192969300E+03  0.37192969300E+03  0.00000000000E+00 0. -1.
         21   -1    0    0  501  503 -0.00000000000E+00 -0.00000000000E+00 -0.58584688919E+03  0.58584688919E+03  0.00000000000E+00 0. -1.
    9000005    1    1    2  501    0 -0.45188834355E+01  0.21944387053E+03 -0.58248327734E+01  0.45630029728E+03  0.40000000000E+03 0. -1.
   -9000005    1    1    2    0  502  0.45188834355E+01 -0.21944387053E+03 -0.20809236342E+03  0.50147628491E+03  0.40000000000E+03 0. -1.
<mgrwt>
<rscale>  2 0.45626312E+03</rscale>
<asrwt>0</asrwt>
<pdfrwt beam="1">  1       21 0.57219953E-01 0.45626312E+03</pdfrwt>
<pdfrwt beam="2">  1       21 0.90130290E-01 0.45626312E+03</pdfrwt>
<totfact> 0.26000191E+03</totfact>
</mgrwt>
</event>
<event>
 4    1  0.4857079E-002  0.5190321E+03  0.7818608E-02  0.1008927E+00
         21   -1    0    0  501  502  0.00000000000E+00  0.00000000000E+00  0.11569724329E+04  0.11569724329E+04  0.00000000000E+00 0. -1.
         21   -1    0    0  502  503 -0.00000000000E+00 -0.00000000000E+00 -0.28469169480E+03  0.28469169480E+03  0.00000000000E+00 0. -1.
    9000005    1    1    2  501    0  0.26921258664E+03 -0.19214303592E+03  0.12852329840E+03  0.53470795888E+03  0.40000000000E+03 0. -1.
   -9000005    1    1    2    0  503 -0.26921258664E+03  0.19214303592E+03  0.74375743968E+03  0.90695616881E+03  0.40000000000E+03 0. -1.
<mgrwt>
<rscale>  2 0.51903214E+03</rscale>
<asrwt>0</asrwt>
<pdfrwt beam="1">  1       21 0.17799576E+00 0.51903214E+03</pdfrwt>
<pdfrwt beam="2">  1       21 0.43798723E-01 0.51903214E+03</pdfrwt>
<totfact> 0.76321863E+02</totfact>
</mgrwt>
</event>
<event>
 4    1  0.4857079E-002  0.7019301E+03  0.7818608E-02  0.9713937E-01
         21   -1    0    0  501  502  0.00000000000E+00  0.00000000000E+00  0.72803838318E+03  0.72803838318E+03  0.00000000000E+00 0. -1.
         21   -1    0    0  502  503 -0.00000000000E+00 -0.00000000000E+00 -0.69633631841E+03  0.69633631841E+03  0.00000000000E+00 0. -1.
    9000005    1    1    2  501    0 -0.35448247468E+03 -0.45502524618E+03  0.13526975880E+03  0.71484523301E+03  0.40000000000E+03 0. -1.
   -9000005    1    1    2    0  503  0.35448247468E+03  0.45502524618E+03 -0.10356769403E+03  0.70952946857E+03  0.40000000000E+03 0. -1.
<mgrwt>
<rscale>  2 0.70193005E+03</rscale>
<asrwt>0</asrwt>
<pdfrwt beam="1">  1       21 0.11200590E+00 0.70193005E+03</pdfrwt>
<pdfrwt beam="2">  1       21 0.10712866E+00 0.70193005E+03</pdfrwt>
<totfact> 0.32918114E+02</totfact>
</mgrwt>
</event>
<event>
 4    1  0.4857079E-002  0.4437749E+03  0.7818608E-02  0.1029595E+00
         21   -1    0    0  503  502  0.00000000000E+00  0.00000000000E+00  0.13453267831E+04  0.13453267831E+04  0.00000000000E+00 0.  1.
         21   -1    0    0  501  503 -0.00000000000E+00 -0.00000000000E+00 -0.19606269681E+03  0.19606269681E+03  0.00000000000E+00 0.  1.
    9000005    1    1    2  501    0 -0.18250907765E+03  0.60221370417E+02  0.18669258084E+03  0.48144604747E+03  0.40000000000E+03 0.  1.
   -9000005    1    1    2    0  502  0.18250907765E+03 -0.60221370417E+02  0.96257150548E+03  0.10599434325E+04  0.40000000000E+03 0.  1.
<mgrwt>
<rscale>  2 0.44377492E+03</rscale>
<asrwt>0</asrwt>
<pdfrwt beam="1">  1       21 0.20697335E+00 0.44377492E+03</pdfrwt>
<pdfrwt beam="2">  1       21 0.30163493E-01 0.44377492E+03</pdfrwt>
<totfact> 0.10689349E+03</totfact>
</mgrwt>
</event>
<event>
 4    1  0.4857079E-002  0.6202790E+03  0.7818608E-02  0.9864204E-01
         21   -1    0    0  503  502  0.00000000000E+00  0.00000000000E+00  0.29848362220E+04  0.29848362220E+04  0.00000000000E+00 0. -1.
         21   -1    0    0  501  503 -0.00000000000E+00 -0.00000000000E+00 -0.13213038274E+03  0.13213038274E+03  0.00000000000E+00 0.  1.
    9000005    1    1    2  501    0  0.10767911478E+03  0.46168305832E+03  0.16700291568E+04  0.17815003291E+04  0.40000000000E+03 0. -1.
   -9000005    1    1    2    0  502 -0.10767911478E+03 -0.46168305832E+03  0.11826766825E+04  0.13354662756E+04  0.40000000000E+03 0.  1.
<mgrwt>
<rscale>  2 0.62027900E+03</rscale>
<asrwt>0</asrwt>
<pdfrwt beam="1">  1       21 0.45920552E+00 0.62027900E+03</pdfrwt>
<pdfrwt beam="2">  1       21 0.20327753E-01 0.62027900E+03</pdfrwt>
<totfact> 0.54064279E+01</totfact>
</mgrwt>
</event>
<event>
 4    1  0.4857079E-002  0.4039216E+03  0.7818608E-02  0.1042430E+00
         21   -1    0    0  501  502  0.00000000000E+00  0.00000000000E+00  0.12098108999E+04  0.12098108999E+04  0.00000000000E+00 0. -1.
         21   -1    0    0  502  503 -0.00000000000E+00 -0.00000000000E+00 -0.31277231380E+03  0.31277231380E+03  0.00000000000E+00 0. -1.
    9000005    1    1    2  501    0  0.49990847875E+02  0.25564910581E+02  0.10226917617E+04  0.10995685922E+04  0.40000000000E+03 0. -1.
   -9000005    1    1    2    0  503 -0.49990847875E+02 -0.25564910581E+02 -0.12565317553E+03  0.42301462155E+03  0.40000000000E+03 0. -1.
<mgrwt>
<rscale>  2 0.40392159E+03</rscale>
<asrwt>0</asrwt>
<pdfrwt beam="1">  1       21 0.18612475E+00 0.40392159E+03</pdfrwt>
<pdfrwt beam="2">  1       21 0.48118818E-01 0.40392159E+03</pdfrwt>
<totfact> 0.57894251E+02</totfact>
</mgrwt>
</event>
<event>
 4    1  0.4857079E-002  0.5846236E+03  0.7818608E-02  0.9937831E-01
         21   -1    0    0  503  502  0.00000000000E+00  0.00000000000E+00  0.46356784178E+03  0.46356784178E+03  0.00000000000E+00 0. -1.
         21   -1    0    0  501  503 -0.00000000000E+00 -0.00000000000E+00 -0.74668791904E+03  0.74668791904E+03  0.00000000000E+00 0.  1.
    9000005    1    1    2  501    0 -0.39735301960E+03 -0.15458098313E+03 -0.73677958214E+02  0.58924794786E+03  0.40000000000E+03 0. -1.
   -9000005    1    1    2    0  502  0.39735301960E+03  0.15458098313E+03 -0.20944211905E+03  0.62100781296E+03  0.40000000000E+03 0.  1.
<mgrwt>
<rscale>  2 0.58462356E+03</rscale>
<asrwt>0</asrwt>
<pdfrwt beam="1">  1       21 0.71318130E-01 0.58462356E+03</pdfrwt>
<pdfrwt beam="2">  1       21 0.11487506E+00 0.58462356E+03</pdfrwt>
<totfact> 0.84261768E+02</totfact>
</mgrwt>
</event>
<event>
 4    1  0.4857079E-002  0.6916361E+03  0.7818608E-02  0.9731643E-01
         21   -1    0    0  501  502  0.00000000000E+00  0.00000000000E+00  0.82862619147E+03  0.82862619147E+03  0.00000000000E+00 0. -1.
         21   -1    0    0  502  503 -0.00000000000E+00 -0.00000000000E+00 -0.87149379449E+03  0.87149379449E+03  0.00000000000E+00 0.  1.
    9000005    1    1    2  501    0 -0.53257320926E+03 -0.18634991407E+03  0.47246614562E+03  0.83760657379E+03  0.40000000000E+03 0. -1.
   -9000005    1    1    2    0  503  0.53257320926E+03  0.18634991407E+03 -0.51533374864E+03  0.86251341218E+03  0.40000000000E+03 0.  1.
<mgrwt>
<rscale>  2 0.69163611E+03</rscale>
<asrwt>0</asrwt>
<pdfrwt beam="1">  1       21 0.12748095E+00 0.69163611E+03</pdfrwt>
<pdfrwt beam="2">  1       21 0.13407597E+00 0.69163611E+03</pdfrwt>
<totfact> 0.13307846E+02</totfact>
</mgrwt>
</event>
<event>
 4    1  0.4857079E-002  0.4810107E+03  0.7818608E-02  0.1018858E+00
         21   -1    0    0  501  502  0.00000000000E+00  0.00000000000E+00  0.23865305298E+03  0.23865305298E+03  0.00000000000E+00 0. -1.
         21   -1    0    0  502  503 -0.00000000000E+00 -0.00000000000E+00 -0.10620670541E+04  0.10620670541E+04  0.00000000000E+00 0. -1.
    9000005    1    1    2  501    0  0.24561984788E+03  0.10508197612E+03 -0.60372134152E+03  0.77191371900E+03  0.40000000000E+03 0. -1.
   -9000005    1    1    2    0  503 -0.24561984788E+03 -0.10508197612E+03 -0.21969265959E+03  0.52880638806E+03  0.40000000000E+03 0. -1.
<mgrwt>
<rscale>  2 0.48101074E+03</rscale>
<asrwt>0</asrwt>
<pdfrwt beam="1">  1       21 0.36715855E-01 0.48101074E+03</pdfrwt>
<pdfrwt beam="2">  1       21 0.16339493E+00 0.48101074E+03</pdfrwt>
<totfact> 0.14250763E+03</totfact>
</mgrwt>
</event>
<event>
 4    1  0.4857079E-002  0.4543806E+03  0.7818608E-02  0.1026424E+00
         21   -1    0    0  503  502  0.00000000000E+00  0.00000000000E+00  0.28223189992E+03  0.28223189992E+03  0.00000000000E+00 0. -1.
         21   -1    0    0  501  503 -0.00000000000E+00 -0.00000000000E+00 -0.73331689724E+03  0.73331689724E+03  0.00000000000E+00 0. -1.
    9000005    1    1    2  501    0 -0.16872946893E+03  0.13413456476E+03 -0.25059265662E+03  0.51890114155E+03  0.40000000000E+03 0. -1.
   -9000005    1    1    2    0  502  0.16872946893E+03 -0.13413456476E+03 -0.20049234070E+03  0.49664765561E+03  0.40000000000E+03 0. -1.
<mgrwt>
<rscale>  2 0.45438058E+03</rscale>
<asrwt>0</asrwt>
<pdfrwt beam="1">  1       21 0.43420293E-01 0.45438058E+03</pdfrwt>
<pdfrwt beam="2">  1       21 0.11281798E+00 0.45438058E+03</pdfrwt>
<totfact> 0.27094059E+03</totfact>
</mgrwt>
</event>
<event>
 4    1  0.4857079E-002  0.4179515E+03  0.7818608E-02  0.1037735E+00
         21   -1    0    0  501  502  0.00000000000E+00  0.00000000000E+00  0.48783792112E+03  0.48783792112E+03  0.00000000000E+00 0. -1.
         21   -1    0    0  502  503 -0.00000000000E+00 -0.00000000000E+00 -0.55435483522E+03  0.55435483522E+03  0.00000000000E+00 0. -1.
    9000005    1    1    2  501    0 -0.14458181966E+02  0.12030955407E+03  0.27681173424E+03  0.50130645721E+03  0.40000000000E+03 0. -1.
   -9000005    1    1    2    0  503  0.14458181966E+02 -0.12030955407E+03 -0.34332864833E+03  0.54088629913E+03  0.40000000000E+03 0. -1.
<mgrwt>
<rscale>  2 0.41795147E+03</rscale>
<asrwt>0</asrwt>
<pdfrwt beam="1">  1       21 0.75051988E-01 0.41795147E+03</pdfrwt>
<pdfrwt beam="2">  1       21 0.85285359E-01 0.41795147E+03</pdfrwt>
<totfact> 0.16434039E+03</totfact>
</mgrwt>
</event>
<event>
 4    1  0.4857079E-002  0.5481365E+03  0.7818608E-02  0.1001926E+00
         21   -1    0    0  501  502  0.00000000000E+00  0.00000000000E+00  0.21338394555E+03  0.21338394555E+03  0.00000000000E+00 0. -1.
         21   -1    0    0  502  503 -0.00000000000E+00 -0.00000000000E+00 -0.22409486844E+04  0.22409486844E+04  0.00000000000E+00 0. -1.
    9000005    1    1    2  501    0 -0.24738295325E+03 -0.28152321306E+03 -0.26563778512E+03  0.60911171219E+03  0.40000000000E+03 0. -1.
   -9000005    1    1    2    0  503  0.24738295325E+03  0.28152321306E+03 -0.17619269537E+04  0.18452209178E+04  0.40000000000E+03 0. -1.
<mgrwt>
<rscale>  2 0.54813652E+03</rscale>
<asrwt>0</asrwt>
<pdfrwt beam="1">  1       21 0.32828300E-01 0.54813652E+03</pdfrwt>
<pdfrwt beam="2">  1       21 0.34476132E+00 0.54813652E+03</pdfrwt>
<totfact> 0.12120397E+02</totfact>
</mgrwt>
</event>
<event>
 4    1  0.4857079E-002  0.4596528E+03  0.7818608E-02  0.1024882E+00
         21   -1    0    0  501  502  0.00000000000E+00  0.00000000000E+00  0.17339253362E+04  0.17339253362E+04  0.00000000000E+00 0.  1.
         21   -1    0    0  502  503 -0.00000000000E+00 -0.00000000000E+00 -0.16230792284E+03  0.16230792284E+03  0.00000000000E+00 0. -1.
    9000005    1    1    2  501    0  0.11370482303E+03  0.19583642399E+03  0.12591646626E+04  0.13404388607E+04  0.40000000000E+03 0.  1.
   -9000005    1    1    2    0  503 -0.11370482303E+03 -0.19583642399E+03  0.31245275073E+03  0.55579439830E+03  0.40000000000E+03 0. -1.
<mgrwt>
<rscale>  2 0.45965279E+03</rscale>
<asrwt>0</asrwt>
<pdfrwt beam="1">  1       21 0.26675773E+00 0.45965279E+03</pdfrwt>
<pdfrwt beam="2">  1       21 0.24970451E-01 0.45965279E+03</pdfrwt>
<totfact> 0.64959577E+02</totfact>
</mgrwt>
</event>
<event>
 4    1  0.4857079E-002  0.4804491E+03  0.7818608E-02  0.1019012E+00
         21   -1    0    0  501  502  0.00000000000E+00  0.00000000000E+00  0.48913453707E+03  0.48913453707E+03  0.00000000000E+00 0. -1.
         21   -1    0    0  502  503 -0.00000000000E+00 -0.00000000000E+00 -0.50463191371E+03  0.50463191371E+03  0.00000000000E+00 0. -1.
    9000005    1    1    2  501    0  0.15777705326E+03 -0.21433084405E+03  0.11876408040E+03  0.49491031111E+03  0.40000000000E+03 0. -1.
   -9000005    1    1    2    0  503 -0.15777705326E+03  0.21433084405E+03 -0.13426145704E+03  0.49885613968E+03  0.40000000000E+03 0. -1.
<mgrwt>
<rscale>  2 0.48044907E+03</rscale>
<asrwt>0</asrwt>
<pdfrwt beam="1">  1       21 0.75251467E-01 0.48044907E+03</pdfrwt>
<pdfrwt beam="2">  1       21 0.77635679E-01 0.48044907E+03</pdfrwt>
<totfact> 0.19832330E+03</totfact>
</mgrwt>
</event>
<event>
 4    1  0.4857079E-002  0.5598516E+03  0.7818608E-02  0.9992390E-01
         21   -1    0    0  503  502  0.00000000000E+00  0.00000000000E+00  0.16535564346E+03  0.16535564346E+03  0.00000000000E+00 0.  1.
         21   -1    0    0  501  503 -0.00000000000E+00 -0.00000000000E+00 -0.21656988254E+04  0.21656988254E+04  0.00000000000E+00 0. -1.
    9000005    1    1    2  501    0  0.35644283557E+03  0.16242652114E+03 -0.14118463119E+04  0.15187968522E+04  0.40000000000E+03 0. -1.
   -9000005    1    1    2    0  502 -0.35644283557E+03 -0.16242652114E+03 -0.58849687005E+03  0.81225761668E+03  0.40000000000E+03 0. -1.
<mgrwt>
<rscale>  2 0.55985165E+03</rscale>
<asrwt>0</asrwt>
<pdfrwt beam="1">  1       21 0.25439331E-01 0.55985165E+03</pdfrwt>
<pdfrwt beam="2">  1       21 0.33318442E+00 0.55985165E+03</pdfrwt>
<totfact> 0.23553391E+02</totfact>
</mgrwt>
</event>
<event>
 4    1  0.4857079E-002  0.4740355E+03  0.7818608E-02  0.1020787E+00
         21   -1    0    0  501  502  0.00000000000E+00  0.00000000000E+00  0.24657015918E+03  0.24657015918E+03  0.00000000000E+00 0.  1.
         21   -1    0    0  502  503 -0.00000000000E+00 -0.00000000000E+00 -0.10682613093E+04  0.10682613093E+04  0.00000000000E+00 0. -1.
    9000005    1    1    2  501    0 -0.22134519728E+03  0.12536334965E+03 -0.15888072115E+03  0.49995274712E+03  0.40000000000E+03 0.  1.
   -9000005    1    1    2    0  503  0.22134519728E+03 -0.12536334965E+03 -0.66281042898E+03  0.81487872138E+03  0.40000000000E+03 0. -1.
<mgrwt>
<rscale>  2 0.47403551E+03</rscale>
<asrwt>0</asrwt>
<pdfrwt beam="1">  1       21 0.37933870E-01 0.47403551E+03</pdfrwt>
<pdfrwt beam="2">  1       21 0.16434790E+00 0.47403551E+03</pdfrwt>
<totfact> 0.13151816E+03</totfact>
</mgrwt>
</event>
<event>
 4    1  0.4857079E-002  0.6171388E+03  0.7818608E-02  0.9870473E-01
         21   -1    0    0  501  502  0.00000000000E+00  0.00000000000E+00  0.81642536295E+03  0.81642536295E+03  0.00000000000E+00 0.  1.
         21   -1    0    0  502  503 -0.00000000000E+00 -0.00000000000E+00 -0.59063298503E+03  0.59063298503E+03  0.00000000000E+00 0.  1.
    9000005    1    1    2  501    0  0.67781281892E+02  0.46504406480E+03  0.43542718925E+03  0.75528611897E+03  0.40000000000E+03 0.  1.
   -9000005    1    1    2    0  503 -0.67781281892E+02 -0.46504406480E+03 -0.20963481133E+03  0.65177222901E+03  0.40000000000E+03 0.  1.
<mgrwt>
<rscale>  2 0.61713879E+03</rscale>
<asrwt>0</asrwt>
<pdfrwt beam="1">  1       21 0.12560390E+00 0.61713879E+03</pdfrwt>
<pdfrwt beam="2">  1       21 0.90866613E-01 0.61713879E+03</pdfrwt>
<totfact> 0.37717188E+02</totfact>
</mgrwt>
</event>
<event>
 4    1  0.4857079E-002  0.4427776E+03  0.7818608E-02  0.1029898E+00
         21   -1    0    0  501  502  0.00000000000E+00  0.00000000000E+00  0.10119036302E+03  0.10119036302E+03  0.00000000000E+00 0. -1.
         21   -1    0    0  502  503 -0.00000000000E+00 -0.00000000000E+00 -0.19416023615E+04  0.19416023615E+04  0.00000000000E+00 0. -1.
    9000005    1    1    2  501    0  0.14954571762E+03 -0.11699606170E+03 -0.87301235791E+03  0.97887822387E+03  0.40000000000E+03 0. -1.
   -9000005    1    1    2    0  503 -0.14954571762E+03  0.11699606170E+03 -0.96739964059E+03  0.10639145007E+04  0.40000000000E+03 0. -1.
<mgrwt>
<rscale>  2 0.44277760E+03</rscale>
<asrwt>0</asrwt>
<pdfrwt beam="1">  1       21 0.15567748E-01 0.44277760E+03</pdfrwt>
<pdfrwt beam="2">  1       21 0.29870806E+00 0.44277760E+03</pdfrwt>
<totfact> 0.10330002E+03</totfact>
</mgrwt>
</event>
<event>
 4    1  0.4857079E-002  0.4209409E+03  0.7818608E-02  0.1036761E+00
         21   -1    0    0  503  502  0.00000000000E+00  0.00000000000E+00  0.67928891035E+03  0.67928891035E+03  0.00000000000E+00 0. -1.
         21   -1    0    0  501  503 -0.00000000000E+00 -0.00000000000E+00 -0.26098437534E+03  0.26098437534E+03  0.00000000000E+00 0. -1.
    9000005    1    1    2  501    0  0.11741483719E+03  0.58352418059E+02  0.21989369437E+03  0.47491524034E+03  0.40000000000E+03 0. -1.
   -9000005    1    1    2    0  502 -0.11741483719E+03 -0.58352418059E+02  0.19841084063E+03  0.46535804534E+03  0.40000000000E+03 0. -1.
<mgrwt>
<rscale>  2 0.42094091E+03</rscale>
<asrwt>0</asrwt>
<pdfrwt beam="1">  1       21 0.10450599E+00 0.42094091E+03</pdfrwt>
<pdfrwt beam="2">  1       21 0.40151443E-01 0.42094091E+03</pdfrwt>
<totfact> 0.38979703E+03</totfact>
</mgrwt>
</event>
<event>
 4    1  0.4857079E-002  0.4239089E+03  0.7818608E-02  0.1035802E+00
         21   -1    0    0  503  502  0.00000000000E+00  0.00000000000E+00  0.40472094497E+03  0.40472094497E+03  0.00000000000E+00 0.  1.
         21   -1    0    0  501  503 -0.00000000000E+00 -0.00000000000E+00 -0.96852384599E+03  0.96852384599E+03  0.00000000000E+00 0. -1.
    9000005    1    1    2  501    0  0.10325797639E+03 -0.95060822496E+02 -0.78719376528E+03  0.89407650330E+03  0.40000000000E+03 0. -1.
   -9000005    1    1    2    0  502 -0.10325797639E+03  0.95060822496E+02  0.22339086426E+03  0.47916828766E+03  0.40000000000E+03 0.  1.
<mgrwt>
<rscale>  2 0.42390892E+03</rscale>
<asrwt>0</asrwt>
<pdfrwt beam="1">  1       21 0.62264760E-01 0.42390892E+03</pdfrwt>
<pdfrwt beam="2">  1       21 0.14900367E+00 0.42390892E+03</pdfrwt>
<totfact> 0.61617335E+02</totfact>
</mgrwt>
</event>
<event>
 4    1  0.4857079E-002  0.4569966E+03  0.7818608E-02  0.1025656E+00
         21   -1    0    0  503  502  0.00000000000E+00  0.00000000000E+00  0.22515723926E+04  0.22515723926E+04  0.00000000000E+00 0. -1.
         21   -1    0    0  501  503 -0.00000000000E+00 -0.00000000000E+00 -0.11387804470E+03  0.11387804470E+03  0.00000000000E+00 0. -1.
    9000005    1    1    2  501    0 -0.13989433238E+03  0.17110073681E+03  0.55947381187E+03  0.72239658951E+03  0.40000000000E+03 0. -1.
   -9000005    1    1    2    0  502  0.13989433238E+03 -0.17110073681E+03  0.15782205361E+04  0.16430538478E+04  0.40000000000E+03 0. -1.
<mgrwt>
<rscale>  2 0.45699659E+03</rscale>
<asrwt>0</asrwt>
<pdfrwt beam="1">  1       21 0.34639572E+00 0.45699659E+03</pdfrwt>
<pdfrwt beam="2">  1       21 0.17519701E-01 0.45699659E+03</pdfrwt>
<totfact> 0.42276778E+02</totfact>
</mgrwt>
</event>
<event>
 4    1  0.4857079E-002  0.7479796E+03  0.7818608E-02  0.9638525E-01
         21   -1    0    0  503  502  0.00000000000E+00  0.00000000000E+00  0.94915526117E+03  0.94915526117E+03  0.00000000000E+00 0. -1.
         21   -1    0    0  501  503 -0.00000000000E+00 -0.00000000000E+00 -0.81584848036E+03  0.81584848036E+03  0.00000000000E+00 0.  1.
    9000005    1    1    2  501    0 -0.63021011490E+03  0.48048977566E+02 -0.39824042991E+03  0.84738948140E+03  0.40000000000E+03 0.  1.
   -9000005    1    1    2    0  502  0.63021011490E+03 -0.48048977566E+02  0.53154721072E+03  0.91761426013E+03  0.40000000000E+03 0. -1.
<mgrwt>
<rscale>  2 0.74797961E+03</rscale>
<asrwt>0</asrwt>
<pdfrwt beam="1">  1       21 0.14602389E+00 0.74797961E+03</pdfrwt>
<pdfrwt beam="2">  1       21 0.12551515E+00 0.74797961E+03</pdfrwt>
<totfact> 0.10810686E+02</totfact>
</mgrwt>
</event>
<event>
 4    1  0.4857079E-002  0.4254075E+03  0.7818608E-02  0.1035321E+00
         21   -1    0    0  503  502  0.00000000000E+00  0.00000000000E+00  0.19345956476E+04  0.19345956476E+04  0.00000000000E+00 0.  1.
         21   -1    0    0  501  503 -0.00000000000E+00 -0.00000000000E+00 -0.13242128007E+03  0.13242128007E+03  0.00000000000E+00 0.  1.
    9000005    1    1    2  501    0  0.79868463372E+02  0.12079972041E+03  0.34109999370E+03  0.54527126239E+03  0.40000000000E+03 0.  1.
   -9000005    1    1    2    0  502 -0.79868463372E+02 -0.12079972041E+03  0.14610743739E+04  0.15217456653E+04  0.40000000000E+03 0.  1.
<mgrwt>
<rscale>  2 0.42540750E+03</rscale>
<asrwt>0</asrwt>
<pdfrwt beam="1">  1       21 0.29763008E+00 0.42540750E+03</pdfrwt>
<pdfrwt beam="2">  1       21 0.20372506E-01 0.42540750E+03</pdfrwt>
<totfact> 0.63829750E+02</totfact>
</mgrwt>
</event>
<event>
 4    1  0.4857079E-002  0.4434478E+03  0.7818608E-02  0.1029694E+00
         21   -1    0    0  501  502  0.00000000000E+00  0.00000000000E+00  0.19770329338E+03  0.19770329338E+03  0.00000000000E+00 0. -1.
         21   -1    0    0  502  503 -0.00000000000E+00 -0.00000000000E+00 -0.11864415714E+04  0.11864415714E+04  0.00000000000E+00 0. -1.
    9000005    1    1    2  501    0 -0.19117939983E+03  0.98198557504E+01 -0.21611555091E+03  0.49330712931E+03  0.40000000000E+03 0. -1.
   -9000005    1    1    2    0  503  0.19117939983E+03 -0.98198557504E+01 -0.77262272714E+03  0.89083773549E+03  0.40000000000E+03 0. -1.
<mgrwt>
<rscale>  2 0.44344785E+03</rscale>
<asrwt>0</asrwt>
<pdfrwt beam="1">  1       21 0.30415892E-01 0.44344785E+03</pdfrwt>
<pdfrwt beam="2">  1       21 0.18252947E+00 0.44344785E+03</pdfrwt>
<totfact> 0.15383133E+03</totfact>
</mgrwt>
</event>
<event>
 4    1  0.4857079E-002  0.4182155E+03  0.7818608E-02  0.1037649E+00
         21   -1    0    0  503  502  0.00000000000E+00  0.00000000000E+00  0.75679908018E+03  0.75679908018E+03  0.00000000000E+00 0. -1.
         21   -1    0    0  501  503 -0.00000000000E+00 -0.00000000000E+00 -0.29966233372E+03  0.29966233372E+03  0.00000000000E+00 0. -1.
    9000005    1    1    2  501    0  0.12089674668E+03 -0.16976749048E+02  0.48121704626E+03  0.63755319698E+03  0.40000000000E+03 0. -1.
   -9000005    1    1    2    0  502 -0.12089674668E+03  0.16976749048E+02 -0.24080299809E+02  0.41890821692E+03  0.40000000000E+03 0. -1.
<mgrwt>
<rscale>  2 0.41821553E+03</rscale>
<asrwt>0</asrwt>
<pdfrwt beam="1">  1       21 0.11643063E+00 0.41821553E+03</pdfrwt>
<pdfrwt beam="2">  1       21 0.46101898E-01 0.41821553E+03</pdfrwt>
<totfact> 0.22400912E+03</totfact>
</mgrwt>
</event>
<event>
 4    1  0.4857079E-002  0.4536158E+03  0.7818608E-02  0.1026649E+00
         21   -1    0    0  503  502  0.00000000000E+00  0.00000000000E+00  0.60416507836E+03  0.60416507836E+03  0.00000000000E+00 0.  1.
         21   -1    0    0  501  503 -0.00000000000E+00 -0.00000000000E+00 -0.34589607006E+03  0.34589607006E+03  0.00000000000E+00 0.  1.
    9000005    1    1    2  501    0  0.13582599315E+03 -0.16528327863E+03  0.18801824566E+03  0.49103780233E+03  0.40000000000E+03 0.  1.
   -9000005    1    1    2    0  502 -0.13582599315E+03  0.16528327863E+03  0.70250762641E+02  0.45902334610E+03  0.40000000000E+03 0.  1.
<mgrwt>
<rscale>  2 0.45361577E+03</rscale>
<asrwt>0</asrwt>
<pdfrwt beam="1">  1       21 0.92948473E-01 0.45361577E+03</pdfrwt>
<pdfrwt beam="2">  1       21 0.53214780E-01 0.45361577E+03</pdfrwt>
<totfact> 0.28292860E+03</totfact>
</mgrwt>
</event>
<event>
 4    1  0.4857079E-002  0.4453117E+03  0.7818608E-02  0.1029129E+00
         21   -1    0    0  501  502  0.00000000000E+00  0.00000000000E+00  0.27545445536E+03  0.27545445536E+03  0.00000000000E+00 0.  1.
         21   -1    0    0  502  503 -0.00000000000E+00 -0.00000000000E+00 -0.78673604953E+03  0.78673604953E+03  0.00000000000E+00 0.  1.
    9000005    1    1    2  501    0  0.48401467912E+02 -0.18963063783E+03 -0.41042621129E+03  0.60560065705E+03  0.40000000000E+03 0.  1.
   -9000005    1    1    2    0  503 -0.48401467912E+02  0.18963063783E+03 -0.10085538287E+03  0.45658984784E+03  0.40000000000E+03 0.  1.
<mgrwt>
<rscale>  2 0.44531167E+03</rscale>
<asrwt>0</asrwt>
<pdfrwt beam="1">  1       21 0.42377609E-01 0.44531167E+03</pdfrwt>
<pdfrwt beam="2">  1       21 0.12103631E+00 0.44531167E+03</pdfrwt>
<totfact> 0.23957659E+03</totfact>
</mgrwt>
</event>
<event>
 4    1  0.4857079E-002  0.4199724E+03  0.7818608E-02  0.1037075E+00
         21   -1    0    0  503  502  0.00000000000E+00  0.00000000000E+00  0.31454997112E+03  0.31454997112E+03  0.00000000000E+00 0.  1.
         21   -1    0    0  501  503 -0.00000000000E+00 -0.00000000000E+00 -0.72713726029E+03  0.72713726029E+03  0.00000000000E+00 0. -1.
    9000005    1    1    2  501    0 -0.21217301850E+01  0.12795434726E+03 -0.45545951362E+03  0.61953223102E+03  0.40000000000E+03 0. -1.
   -9000005    1    1    2    0  502  0.21217301850E+01 -0.12795434726E+03  0.42872224457E+02  0.42215500039E+03  0.40000000000E+03 0.  1.
<mgrwt>
<rscale>  2 0.41997240E+03</rscale>
<asrwt>0</asrwt>
<pdfrwt beam="1">  1       21 0.48392304E-01 0.41997240E+03</pdfrwt>
<pdfrwt beam="2">  1       21 0.11186727E+00 0.41997240E+03</pdfrwt>
<totfact> 0.22330004E+03</totfact>
</mgrwt>
</event>
<event>
 4    1  0.4857079E-002  0.4306620E+03  0.7818608E-02  0.1033651E+00
         21   -1    0    0  503  502  0.00000000000E+00  0.00000000000E+00  0.91128537249E+03  0.91128537249E+03  0.00000000000E+00 0. -1.
         21   -1    0    0  501  503 -0.00000000000E+00 -0.00000000000E+00 -0.21690288340E+03  0.21690288340E+03  0.00000000000E+00 0. -1.
    9000005    1    1    2  501    0 -0.15667956275E+03 -0.30351952392E+02  0.48728088210E+03  0.65031714144E+03  0.40000000000E+03 0. -1.
   -9000005    1    1    2    0  502  0.15667956275E+03  0.30351952392E+02  0.20710160699E+03  0.47787111444E+03  0.40000000000E+03 0. -1.
<mgrwt>
<rscale>  2 0.43066196E+03</rscale>
<asrwt>0</asrwt>
<pdfrwt beam="1">  1       21 0.14019775E+00 0.43066196E+03</pdfrwt>
<pdfrwt beam="2">  1       21 0.33369675E-01 0.43066196E+03</pdfrwt>
<totfact> 0.26794215E+03</totfact>
</mgrwt>
</event>
<event>
 4    1  0.4857079E-002  0.5720290E+03  0.7818608E-02  0.9965199E-01
         21   -1    0    0  501  502  0.00000000000E+00  0.00000000000E+00  0.13476700013E+03  0.13476700013E+03  0.00000000000E+00 0.  1.
         21   -1    0    0  502  503 -0.00000000000E+00 -0.00000000000E+00 -0.24336154792E+04  0.24336154792E+04  0.00000000000E+00 0. -1.
    9000005    1    1    2  501    0 -0.20083115637E+03  0.35620783143E+03 -0.12109935816E+04  0.13392993046E+04  0.40000000000E+03 0.  1.
   -9000005    1    1    2    0  503  0.20083115637E+03 -0.35620783143E+03 -0.10878548975E+04  0.12290831748E+04  0.40000000000E+03 0. -1.
<mgrwt>
<rscale>  2 0.57202900E+03</rscale>
<asrwt>0</asrwt>
<pdfrwt beam="1">  1       21 0.20733385E-01 0.57202900E+03</pdfrwt>
<pdfrwt beam="2">  1       21 0.37440237E+00 0.57202900E+03</pdfrwt>
<totfact> 0.19298461E+02</totfact>
</mgrwt>
</event>
<event>
 4    1  0.4857079E-002  0.4860142E+03  0.7818608E-02  0.1017495E+00
         21   -1    0    0  501  502  0.00000000000E+00  0.00000000000E+00  0.86515361102E+03  0.86515361102E+03  0.00000000000E+00 0. -1.
         21   -1    0    0  502  503 -0.00000000000E+00 -0.00000000000E+00 -0.35894577971E+03  0.35894577971E+03  0.00000000000E+00 0. -1.
    9000005    1    1    2  501    0  0.25349701122E+03 -0.10931179364E+03  0.55254938588E+03  0.73588085093E+03  0.40000000000E+03 0. -1.
   -9000005    1    1    2    0  503 -0.25349701122E+03  0.10931179364E+03 -0.46341554581E+02  0.48821853980E+03  0.40000000000E+03 0. -1.
<mgrwt>
<rscale>  2 0.48601420E+03</rscale>
<asrwt>0</asrwt>
<pdfrwt beam="1">  1       21 0.13310056E+00 0.48601420E+03</pdfrwt>
<pdfrwt beam="2">  1       21 0.55222428E-01 0.48601420E+03</pdfrwt>
<totfact> 0.10529340E+03</totfact>
</mgrwt>
</event>
<event>
 4    1  0.4857079E-002  0.5000389E+03  0.7818608E-02  0.1013769E+00
         21   -1    0    0  503  502  0.00000000000E+00  0.00000000000E+00  0.23974206753E+03  0.23974206753E+03  0.00000000000E+00 0.  1.
         21   -1    0    0  501  503 -0.00000000000E+00 -0.00000000000E+00 -0.13468650761E+04  0.13468650761E+04  0.00000000000E+00 0.  1.
    9000005    1    1    2  501    0 -0.15481743817E+03 -0.25704173798E+03 -0.93039870530E+03  0.10562578497E+04  0.40000000000E+03 0.  1.
   -9000005    1    1    2    0  502  0.15481743817E+03  0.25704173798E+03 -0.17672430330E+03  0.53034929395E+03  0.40000000000E+03 0.  1.
<mgrwt>
<rscale>  2 0.50003889E+03</rscale>
<asrwt>0</asrwt>
<pdfrwt beam="1">  1       21 0.36883395E-01 0.50003889E+03</pdfrwt>
<pdfrwt beam="2">  1       21 0.20721001E+00 0.50003889E+03</pdfrwt>
<totfact> 0.69253782E+02</totfact>
</mgrwt>
</event>
<event>
 4    1  0.4857079E-002  0.4703934E+03  0.7818608E-02  0.1021809E+00
         21   -1    0    0  501  502  0.00000000000E+00  0.00000000000E+00  0.15542867539E+04  0.15542867539E+04  0.00000000000E+00 0. -1.
         21   -1    0    0  502  503 -0.00000000000E+00 -0.00000000000E+00 -0.20245044623E+03  0.20245044623E+03  0.00000000000E+00 0. -1.
    9000005    1    1    2  501    0  0.10842191461E+03  0.22251890328E+03  0.11544558651E+04  0.12466107325E+04  0.40000000000E+03 0. -1.
   -9000005    1    1    2    0  503 -0.10842191461E+03 -0.22251890328E+03  0.19738044257E+03  0.51012646765E+03  0.40000000000E+03 0. -1.
<mgrwt>
<rscale>  2 0.47039342E+03</rscale>
<asrwt>0</asrwt>
<pdfrwt beam="1">  1       21 0.23912103E+00 0.47039342E+03</pdfrwt>
<pdfrwt beam="2">  1       21 0.31146223E-01 0.47039342E+03</pdfrwt>
<totfact> 0.61759177E+02</totfact>
</mgrwt>
</event>
<event>
 4    1  0.4857079E-002  0.4573081E+03  0.7818608E-02  0.1025565E+00
         21   -1    0    0  503  502  0.00000000000E+00  0.00000000000E+00  0.12239223888E+04  0.12239223888E+04  0.00000000000E+00 0.  1.
         21   -1    0    0  501  503 -0.00000000000E+00 -0.00000000000E+00 -0.40533679907E+03  0.40533679907E+03  0.00000000000E+00 0.  1.
    9000005    1    1    2  501    0  0.21800624582E+03  0.40049816345E+02 -0.21028169839E+03  0.50333796170E+03  0.40000000000E+03 0.  1.
   -9000005    1    1    2    0  502 -0.21800624582E+03 -0.40049816345E+02  0.10288672881E+04  0.11259212262E+04  0.40000000000E+03 0.  1.
<mgrwt>
<rscale>  2 0.45730811E+03</rscale>
<asrwt>0</asrwt>
<pdfrwt beam="1">  1       21 0.18829575E+00 0.45730811E+03</pdfrwt>
<pdfrwt beam="2">  1       21 0.62359508E-01 0.45730811E+03</pdfrwt>
<totfact> 0.31113548E+02</totfact>
</mgrwt>
</event>
<event>
 4    1  0.4857079E-002  0.4302540E+03  0.7818608E-02  0.1033780E+00
         21   -1    0    0  501  502  0.00000000000E+00  0.00000000000E+00  0.10609816608E+04  0.10609816608E+04  0.00000000000E+00 0. -1.
         21   -1    0    0  502  503 -0.00000000000E+00 -0.00000000000E+00 -0.12521972468E+04  0.12521972468E+04  0.00000000000E+00 0. -1.
    9000005    1    1    2  501    0 -0.14609853041E+03  0.61430434442E+02  0.97738196434E+03  0.10678923087E+04  0.40000000000E+03 0. -1.
   -9000005    1    1    2    0  503  0.14609853041E+03 -0.61430434442E+02 -0.11685975503E+04  0.12452865989E+04  0.40000000000E+03 0. -1.
<mgrwt>
<rscale>  2 0.43025397E+03</rscale>
<asrwt>0</asrwt>
<pdfrwt beam="1">  1       21 0.16322795E+00 0.43025397E+03</pdfrwt>
<pdfrwt beam="2">  1       21 0.19264573E+00 0.43025397E+03</pdfrwt>
<totfact> 0.27861900E+01</totfact>
</mgrwt>
</event>
<event>
 4    1  0.4857079E-002  0.4981069E+03  0.7818608E-02  0.1014274E+00
         21   -1    0    0  501  502  0.00000000000E+00  0.00000000000E+00  0.18354983033E+03  0.18354983033E+03  0.00000000000E+00 0. -1.
         21   -1    0    0  502  503 -0.00000000000E+00 -0.00000000000E+00 -0.13523122692E+04  0.13523122692E+04  0.00000000000E+00 0. -1.
    9000005    1    1    2  501    0  0.14102919499E+03  0.26119196512E+03 -0.60026638305E+03  0.78001936328E+03  0.40000000000E+03 0. -1.
   -9000005    1    1    2    0  503 -0.14102919499E+03 -0.26119196512E+03 -0.56849605587E+03  0.75584273630E+03  0.40000000000E+03 0. -1.
<mgrwt>
<rscale>  2 0.49810689E+03</rscale>
<asrwt>0</asrwt>
<pdfrwt beam="1">  1       21 0.28238435E-01 0.49810689E+03</pdfrwt>
<pdfrwt beam="2">  1       21 0.20804804E+00 0.49810689E+03</pdfrwt>
<totfact> 0.11702393E+03</totfact>
</mgrwt>
</event>
<event>
 4    1  0.4857079E-002  0.4599079E+03  0.7818608E-02  0.1024808E+00
         21   -1    0    0  501  502  0.00000000000E+00  0.00000000000E+00  0.13419867853E+03  0.13419867853E+03  0.00000000000E+00 0. -1.
         21   -1    0    0  502  503 -0.00000000000E+00 -0.00000000000E+00 -0.16838356337E+04  0.16838356337E+04  0.00000000000E+00 0. -1.
    9000005    1    1    2  501    0  0.22529647353E+03 -0.27508897475E+02 -0.54492255573E+03  0.71306088952E+03  0.40000000000E+03 0. -1.
   -9000005    1    1    2    0  503 -0.22529647353E+03  0.27508897475E+02 -0.10047143994E+04  0.11049734227E+04  0.40000000000E+03 0. -1.
<mgrwt>
<rscale>  2 0.45990786E+03</rscale>
<asrwt>0</asrwt>
<pdfrwt beam="1">  1       21 0.20645950E-01 0.45990786E+03</pdfrwt>
<pdfrwt beam="2">  1       21 0.25905165E+00 0.45990786E+03</pdfrwt>
<totfact> 0.10439888E+03</totfact>
</mgrwt>
</event>
<event>
 4    1  0.4857079E-002  0.4178909E+03  0.7818608E-02  0.1037755E+00
         21   -1    0    0  501  502  0.00000000000E+00  0.00000000000E+00  0.85834663882E+03  0.85834663882E+03  0.00000000000E+00 0. -1.
         21   -1    0    0  502  503 -0.00000000000E+00 -0.00000000000E+00 -0.20475843263E+03  0.20475843263E+03  0.00000000000E+00 0. -1.
    9000005    1    1    2  501    0  0.79805570179E+02  0.90905754392E+02  0.36924458700E+03  0.55765074217E+03  0.40000000000E+03 0. -1.
   -9000005    1    1    2    0  503 -0.79805570179E+02 -0.90905754392E+02  0.28434361920E+03  0.50545432928E+03  0.40000000000E+03 0. -1.
<mgrwt>
<rscale>  2 0.41789088E+03</rscale>
<asrwt>0</asrwt>
<pdfrwt beam="1">  1       21 0.13205333E+00 0.41789088E+03</pdfrwt>
<pdfrwt beam="2">  1       21 0.31501298E-01 0.41789088E+03</pdfrwt>
<totfact> 0.35365206E+03</totfact>
</mgrwt>
</event>
<event>
 4    1  0.4857079E-002  0.4901089E+03  0.7818608E-02  0.1016393E+00
         21   -1    0    0  503  502  0.00000000000E+00  0.00000000000E+00  0.28949009582E+03  0.28949009582E+03  0.00000000000E+00 0.  1.
         21   -1    0    0  501  503 -0.00000000000E+00 -0.00000000000E+00 -0.12469612447E+04  0.12469612447E+04  0.00000000000E+00 0. -1.
    9000005    1    1    2  501    0  0.27459221048E+03  0.69324265861E+02 -0.92309679644E+03  0.10451384748E+04  0.40000000000E+03 0. -1.
   -9000005    1    1    2    0  502 -0.27459221048E+03 -0.69324265861E+02 -0.34374352406E+02  0.49131286569E+03  0.40000000000E+03 0.  1.
<mgrwt>
<rscale>  2 0.49010890E+03</rscale>
<asrwt>0</asrwt>
<pdfrwt beam="1">  1       21 0.44536939E-01 0.49010890E+03</pdfrwt>
<pdfrwt beam="2">  1       21 0.19184019E+00 0.49010890E+03</pdfrwt>
<totfact> 0.59707644E+02</totfact>
</mgrwt>
</event>
<event>
 4    1  0.4857079E-002  0.4287125E+03  0.7818608E-02  0.1034267E+00
         21   -1    0    0  503  502  0.00000000000E+00  0.00000000000E+00  0.25395597891E+03  0.25395597891E+03  0.00000000000E+00 0.  1.
         21   -1    0    0  501  503 -0.00000000000E+00 -0.00000000000E+00 -0.10109200917E+04  0.10109200917E+04  0.00000000000E+00 0.  1.
    9000005    1    1    2  501    0 -0.10654541553E+03 -0.11154595360E+03 -0.71557345659E+03  0.83417012480E+03  0.40000000000E+03 0.  1.
   -9000005    1    1    2    0  502  0.10654541553E+03  0.11154595360E+03 -0.41390656203E+02  0.43070594581E+03  0.40000000000E+03 0.  1.
<mgrwt>
<rscale>  2 0.42871252E+03</rscale>
<asrwt>0</asrwt>
<pdfrwt beam="1">  1       21 0.39070151E-01 0.42871252E+03</pdfrwt>
<pdfrwt beam="2">  1       21 0.15552617E+00 0.42871252E+03</pdfrwt>
<totfact> 0.14713662E+03</totfact>
</mgrwt>
</event>
<event>
 4    1  0.4857079E-002  0.4576199E+03  0.7818608E-02  0.1025474E+00
         21   -1    0    0  501  502  0.00000000000E+00  0.00000000000E+00  0.35075332312E+03  0.35075332312E+03  0.00000000000E+00 0. -1.
         21   -1    0    0  502  503 -0.00000000000E+00 -0.00000000000E+00 -0.65437717371E+03  0.65437717371E+03  0.00000000000E+00 0.  1.
    9000005    1    1    2  501    0 -0.17959572860E+03  0.13100126693E+03 -0.30056735879E+03  0.54750040624E+03  0.40000000000E+03 0.  1.
   -9000005    1    1    2    0  503  0.17959572860E+03 -0.13100126693E+03 -0.30564918028E+01  0.45763009059E+03  0.40000000000E+03 0. -1.
<mgrwt>
<rscale>  2 0.45761988E+03</rscale>
<asrwt>0</asrwt>
<pdfrwt beam="1">  1       21 0.53962051E-01 0.45761988E+03</pdfrwt>
<pdfrwt beam="2">  1       21 0.10067341E+00 0.45761988E+03</pdfrwt>
<totfact> 0.22621052E+03</totfact>
</mgrwt>
</event>
<event>
 4    1  0.4857079E-002  0.4382967E+03  0.7818608E-02  0.1031271E+00
         21   -1    0    0  503  502  0.00000000000E+00  0.00000000000E+00  0.26468013632E+03  0.26468013632E+03  0.00000000000E+00 0.  1.
         21   -1    0    0  501  503 -0.00000000000E+00 -0.00000000000E+00 -0.73822242325E+03  0.73822242325E+03  0.00000000000E+00 0.  1.
    9000005    1    1    2  501    0  0.14492236914E+03 -0.10536385278E+03 -0.17171449723E+03  0.47073336732E+03  0.40000000000E+03 0.  1.
   -9000005    1    1    2    0  502 -0.14492236914E+03  0.10536385278E+03 -0.30182778969E+03  0.53216919225E+03  0.40000000000E+03 0.  1.
<mgrwt>
<rscale>  2 0.43829674E+03</rscale>
<asrwt>0</asrwt>
<pdfrwt beam="1">  1       21 0.40720021E-01 0.43829674E+03</pdfrwt>
<pdfrwt beam="2">  1       21 0.11357268E+00 0.43829674E+03</pdfrwt>
<totfact> 0.30624309E+03</totfact>
</mgrwt>
</event>
<event>
 4    1  0.4857079E-002  0.4273581E+03  0.7818608E-02  0.1034698E+00
         21   -1    0    0  501  502  0.00000000000E+00  0.00000000000E+00  0.28099897857E+03  0.28099897857E+03  0.00000000000E+00 0. -1.
         21   -1    0    0  502  503 -0.00000000000E+00 -0.00000000000E+00 -0.67158871660E+03  0.67158871660E+03  0.00000000000E+00 0. -1.
    9000005    1    1    2  501    0  0.14561269553E+03 -0.37840114026E+02 -0.28079203038E+03  0.51135026709E+03  0.40000000000E+03 0. -1.
   -9000005    1    1    2    0  503 -0.14561269553E+03  0.37840114026E+02 -0.10979770765E+03  0.44123742808E+03  0.40000000000E+03 0. -1.
<mgrwt>
<rscale>  2 0.42735808E+03</rscale>
<asrwt>0</asrwt>
<pdfrwt beam="1">  1       21 0.43230612E-01 0.42735808E+03</pdfrwt>
<pdfrwt beam="2">  1       21 0.10332134E+00 0.42735808E+03</pdfrwt>
<totfact> 0.34318806E+03</totfact>
</mgrwt>
</event>
<event>
 4    1  0.4857079E-002  0.4230671E+03  0.7818608E-02  0.1036073E+00
         21   -1    0    0  501  502  0.00000000000E+00  0.00000000000E+00  0.10939210489E+03  0.10939210489E+03  0.00000000000E+00 0.  1.
         21   -1    0    0  502  503 -0.00000000000E+00 -0.00000000000E+00 -0.16609641927E+04  0.16609641927E+04  0.00000000000E+00 0. -1.
    9000005    1    1    2  501    0 -0.32450873429E+02  0.13391311577E+03 -0.88390186944E+03  0.97993280207E+03  0.40000000000E+03 0. -1.
   -9000005    1    1    2    0  503  0.32450873429E+02 -0.13391311577E+03 -0.66767021834E+03  0.79042349549E+03  0.40000000000E+03 0. -1.
<mgrwt>
<rscale>  2 0.42306711E+03</rscale>
<asrwt>0</asrwt>
<pdfrwt beam="1">  1       21 0.16829556E-01 0.42306711E+03</pdfrwt>
<pdfrwt beam="2">  1       21 0.25553294E+00 0.42306711E+03</pdfrwt>
<totfact> 0.16439892E+03</totfact>
</mgrwt>
</event>
<event>
 4    1  0.4857079E-002  0.5376880E+03  0.7818608E-02  0.1004385E+00
         21   -1    0    0  501  502  0.00000000000E+00  0.00000000000E+00  0.33850794325E+03  0.33850794325E+03  0.00000000000E+00 0. -1.
         21   -1    0    0  502  503 -0.00000000000E+00 -0.00000000000E+00 -0.86956816715E+03  0.86956816715E+03  0.00000000000E+00 0. -1.
    9000005    1    1    2  501    0  0.34747130698E+03  0.91499306926E+02 -0.34617855286E+03  0.63949043997E+03  0.40000000000E+03 0. -1.
   -9000005    1    1    2    0  503 -0.34747130698E+03 -0.91499306926E+02 -0.18488167104E+03  0.56858567044E+03  0.40000000000E+03 0. -1.
<mgrwt>
<rscale>  2 0.53768804E+03</rscale>
<asrwt>0</asrwt>
<pdfrwt beam="1">  1       21 0.52078145E-01 0.53768804E+03</pdfrwt>
<pdfrwt beam="2">  1       21 0.13377972E+00 0.53768804E+03</pdfrwt>
<totfact> 0.11571639E+03</totfact>
</mgrwt>
</event>
<event>
 4    1  0.4857079E-002  0.5663961E+03  0.7818608E-02  0.9977685E-01
         21   -1    0    0  501  502  0.00000000000E+00  0.00000000000E+00  0.64183092147E+03  0.64183092147E+03  0.00000000000E+00 0.  1.
         21   -1    0    0  502  503 -0.00000000000E+00 -0.00000000000E+00 -0.56089231350E+03  0.56089231350E+03  0.00000000000E+00 0.  1.
    9000005    1    1    2  501    0  0.39614444379E+03 -0.62242359704E+02  0.23889260022E+03  0.61471473557E+03  0.40000000000E+03 0.  1.
   -9000005    1    1    2    0  503 -0.39614444379E+03  0.62242359704E+02 -0.15795399225E+03  0.58800849939E+03  0.40000000000E+03 0.  1.
<mgrwt>
<rscale>  2 0.56639609E+03</rscale>
<asrwt>0</asrwt>
<pdfrwt beam="1">  1       21 0.98743219E-01 0.56639609E+03</pdfrwt>
<pdfrwt beam="2">  1       21 0.86291125E-01 0.56639609E+03</pdfrwt>
<totfact> 0.79378780E+02</totfact>
</mgrwt>
</event>
<event>
 4    1  0.4857079E-002  0.4857022E+03  0.7818608E-02  0.1017580E+00
         21   -1    0    0  503  502  0.00000000000E+00  0.00000000000E+00  0.15096628551E+04  0.15096628551E+04  0.00000000000E+00 0.  1.
         21   -1    0    0  501  503 -0.00000000000E+00 -0.00000000000E+00 -0.16835666961E+03  0.16835666961E+03  0.00000000000E+00 0.  1.
    9000005    1    1    2  501    0 -0.11153632942E+03 -0.25192506759E+03  0.89550955780E+03  0.10187462690E+04  0.40000000000E+03 0.  1.
   -9000005    1    1    2    0  502  0.11153632942E+03  0.25192506759E+03  0.44579662768E+03  0.65927325572E+03  0.40000000000E+03 0.  1.
<mgrwt>
<rscale>  2 0.48570216E+03</rscale>
<asrwt>0</asrwt>
<pdfrwt beam="1">  1       21 0.23225581E+00 0.48570216E+03</pdfrwt>
<pdfrwt beam="2">  1       21 0.25901027E-01 0.48570216E+03</pdfrwt>
<totfact> 0.97468995E+02</totfact>
</mgrwt>
</event>
<event>
 4    1  0.4857079E-002  0.4371033E+03  0.7818608E-02  0.1031639E+00
         21   -1    0    0  503  502  0.00000000000E+00  0.00000000000E+00  0.10366021248E+04  0.10366021248E+04  0.00000000000E+00 0. -1.
         21   -1    0    0  501  503 -0.00000000000E+00 -0.00000000000E+00 -0.49076831873E+03  0.49076831873E+03  0.00000000000E+00 0.  1.
    9000005    1    1    2  501    0  0.83353372188E+02  0.15527893346E+03 -0.33055860749E+03  0.54802219373E+03  0.40000000000E+03 0.  1.
   -9000005    1    1    2    0  502 -0.83353372188E+02 -0.15527893346E+03  0.87639241354E+03  0.97934824978E+03  0.40000000000E+03 0. -1.
<mgrwt>
<rscale>  2 0.43710334E+03</rscale>
<asrwt>0</asrwt>
<pdfrwt beam="1">  1       21 0.15947725E+00 0.43710334E+03</pdfrwt>
<pdfrwt beam="2">  1       21 0.75502818E-01 0.43710334E+03</pdfrwt>
<totfact> 0.32990136E+02</totfact>
</mgrwt>
</event>
<event>
 4    1  0.4857079E-002  0.4768195E+03  0.7818608E-02  0.1020013E+00
         21   -1    0    0  501  502  0.00000000000E+00  0.00000000000E+00  0.11359785062E+04  0.11359785062E+04  0.00000000000E+00 0. -1.
         21   -1    0    0  502  503 -0.00000000000E+00 -0.00000000000E+00 -0.30905858117E+03  0.30905858117E+03  0.00000000000E+00 0.  1.
    9000005    1    1    2  501    0  0.55879275057E+02 -0.25344485725E+03  0.84237965214E+03  0.96796707970E+03  0.40000000000E+03 0. -1.
   -9000005    1    1    2    0  503 -0.55879275057E+02  0.25344485725E+03 -0.15459727123E+02  0.47707000766E+03  0.40000000000E+03 0.  1.
<mgrwt>
<rscale>  2 0.47681945E+03</rscale>
<asrwt>0</asrwt>
<pdfrwt beam="1">  1       21 0.17476592E+00 0.47681945E+03</pdfrwt>
<pdfrwt beam="2">  1       21 0.47547475E-01 0.47681945E+03</pdfrwt>
<totfact> 0.68912528E+02</totfact>
</mgrwt>
</event>
<event>
 4    1  0.4857079E-002  0.5522355E+03  0.7818608E-02  0.1000978E+00
         21   -1    0    0  503  502  0.00000000000E+00  0.00000000000E+00  0.80781152585E+03  0.80781152585E+03  0.00000000000E+00 0.  1.
         21   -1    0    0  501  503 -0.00000000000E+00 -0.00000000000E+00 -0.47952178998E+03  0.47952178998E+03  0.00000000000E+00 0. -1.
    9000005    1    1    2  501    0 -0.21512235368E+03  0.31414388489E+03 -0.13272312138E+03  0.56796076838E+03  0.40000000000E+03 0. -1.
   -9000005    1    1    2    0  502  0.21512235368E+03 -0.31414388489E+03  0.46101285726E+03  0.71937254745E+03  0.40000000000E+03 0.  1.
<mgrwt>
<rscale>  2 0.55223546E+03</rscale>
<asrwt>0</asrwt>
<pdfrwt beam="1">  1       21 0.12427870E+00 0.55223546E+03</pdfrwt>
<pdfrwt beam="2">  1       21 0.73772583E-01 0.55223546E+03</pdfrwt>
<totfact> 0.64513854E+02</totfact>
</mgrwt>
</event>
<event>
 4    1  0.4857079E-002  0.5811668E+03  0.7818608E-02  0.9945268E-01
         21   -1    0    0  503  502  0.00000000000E+00  0.00000000000E+00  0.77976249226E+03  0.77976249226E+03  0.00000000000E+00 0. -1.
         21   -1    0    0  501  503 -0.00000000000E+00 -0.00000000000E+00 -0.47268572715E+03  0.47268572715E+03  0.00000000000E+00 0. -1.
    9000005    1    1    2  501    0  0.30120918636E+03  0.29500494036E+03 -0.27567690820E+02  0.58182030419E+03  0.40000000000E+03 0. -1.
   -9000005    1    1    2    0  502 -0.30120918636E+03 -0.29500494036E+03  0.33464445593E+03  0.67062791522E+03  0.40000000000E+03 0. -1.
<mgrwt>
<rscale>  2 0.58116683E+03</rscale>
<asrwt>0</asrwt>
<pdfrwt beam="1">  1       21 0.11996346E+00 0.58116683E+03</pdfrwt>
<pdfrwt beam="2">  1       21 0.72720881E-01 0.58116683E+03</pdfrwt>
<totfact> 0.72294776E+02</totfact>
</mgrwt>
</event>
<event>
 4    1  0.4857079E-002  0.4204801E+03  0.7818608E-02  0.1036910E+00
         21   -1    0    0  501  502  0.00000000000E+00  0.00000000000E+00  0.71868718516E+03  0.71868718516E+03  0.00000000000E+00 0.  1.
         21   -1    0    0  502  503 -0.00000000000E+00 -0.00000000000E+00 -0.27320611286E+03  0.27320611286E+03  0.00000000000E+00 0.  1.
    9000005    1    1    2  501    0  0.21683921900E+02  0.12780194691E+03  0.37921771089E+03  0.56622398603E+03  0.40000000000E+03 0. -1.
   -9000005    1    1    2    0  503 -0.21683921900E+02 -0.12780194691E+03  0.66263361419E+02  0.42566931199E+03  0.40000000000E+03 0. -1.
<mgrwt>
<rscale>  2 0.42048012E+03</rscale>
<asrwt>0</asrwt>
<pdfrwt beam="1">  1       21 0.11056726E+00 0.42048012E+03</pdfrwt>
<pdfrwt beam="2">  1       21 0.42031710E-01 0.42048012E+03</pdfrwt>
<totfact> 0.30864462E+03</totfact>
</mgrwt>
</event>
<event>
 4    1  0.4857079E-002  0.4659124E+03  0.7818608E-02  0.1023080E+00
         21   -1    0    0  501  502  0.00000000000E+00  0.00000000000E+00  0.11638004443E+04  0.11638004443E+04  0.00000000000E+00 0. -1.
         21   -1    0    0  502  503 -0.00000000000E+00 -0.00000000000E+00 -0.33853004875E+03  0.33853004875E+03  0.00000000000E+00 0. -1.
    9000005    1    1    2  501    0 -0.21632584971E+03  0.10137808915E+03  0.91598530129E+03  0.10276689459E+04  0.40000000000E+03 0. -1.
   -9000005    1    1    2    0  503  0.21632584971E+03 -0.10137808915E+03 -0.90714905740E+02  0.47466154714E+03  0.40000000000E+03 0. -1.
<mgrwt>
<rscale>  2 0.46591243E+03</rscale>
<asrwt>0</asrwt>
<pdfrwt beam="1">  1       21 0.17904622E+00 0.46591243E+03</pdfrwt>
<pdfrwt beam="2">  1       21 0.52081546E-01 0.46591243E+03</pdfrwt>
<totfact> 0.53174626E+02</totfact>
</mgrwt>
</event>
<event>
 4    1  0.4857079E-002  0.4145358E+03  0.7818608E-02  0.1038860E+00
         21   -1    0    0  503  502  0.00000000000E+00  0.00000000000E+00  0.37768036692E+03  0.37768036692E+03  0.00000000000E+00 0. -1.
         21   -1    0    0  501  503 -0.00000000000E+00 -0.00000000000E+00 -0.48989403951E+03  0.48989403951E+03  0.00000000000E+00 0. -1.
    9000005    1    1    2  501    0 -0.33586009837E+02 -0.10349829435E+03 -0.17189865801E+03  0.44876393083E+03  0.40000000000E+03 0. -1.
   -9000005    1    1    2    0  502  0.33586009837E+02  0.10349829435E+03  0.59684985422E+02  0.41881047560E+03  0.40000000000E+03 0. -1.
<mgrwt>
<rscale>  2 0.41453578E+03</rscale>
<asrwt>0</asrwt>
<pdfrwt beam="1">  1       21 0.58104672E-01 0.41453578E+03</pdfrwt>
<pdfrwt beam="2">  1       21 0.75368314E-01 0.41453578E+03</pdfrwt>
<totfact> 0.38684208E+03</totfact>
</mgrwt>
</event>
<event>
 4    1  0.4857079E-002  0.4277887E+03  0.7818608E-02  0.1034561E+00
         21   -1    0    0  501  502  0.00000000000E+00  0.00000000000E+00  0.39407149205E+03  0.39407149205E+03  0.00000000000E+00 0. -1.
         21   -1    0    0  502  503 -0.00000000000E+00 -0.00000000000E+00 -0.13551933674E+04  0.13551933674E+04  0.00000000000E+00 0. -1.
    9000005    1    1    2  501    0 -0.10259064428E+03 -0.11170638658E+03  0.22855244850E+03  0.48501482329E+03  0.40000000000E+03 0. -1.
   -9000005    1    1    2    0  503  0.10259064428E+03  0.11170638658E+03 -0.11896743239E+04  0.12642500362E+04  0.40000000000E+03 0. -1.
<mgrwt>
<rscale>  2 0.42778868E+03</rscale>
<asrwt>0</asrwt>
<pdfrwt beam="1">  1       21 0.60626383E-01 0.42778868E+03</pdfrwt>
<pdfrwt beam="2">  1       21 0.20849129E+00 0.42778868E+03</pdfrwt>
<totfact> 0.24629785E+02</totfact>
</mgrwt>
</event>
<event>
 4    1  0.4857079E-002  0.4202193E+03  0.7818608E-02  0.1036995E+00
         21   -1    0    0  503  502  0.00000000000E+00  0.00000000000E+00  0.21182062918E+03  0.21182062918E+03  0.00000000000E+00 0.  1.
         21   -1    0    0  501  503 -0.00000000000E+00 -0.00000000000E+00 -0.97622356558E+03  0.97622356558E+03  0.00000000000E+00 0. -1.
    9000005    1    1    2  501    0  0.12808205300E+03  0.13387553447E+02 -0.60921286901E+03  0.74008415647E+03  0.40000000000E+03 0. -1.
   -9000005    1    1    2    0  502 -0.12808205300E+03 -0.13387553447E+02 -0.15519006739E+03  0.44796003829E+03  0.40000000000E+03 0. -1.
<mgrwt>
<rscale>  2 0.42021927E+03</rscale>
<asrwt>0</asrwt>
<pdfrwt beam="1">  1       21 0.32587789E-01 0.42021927E+03</pdfrwt>
<pdfrwt beam="2">  1       21 0.15018824E+00 0.42021927E+03</pdfrwt>
<totfact> 0.23457701E+03</totfact>
</mgrwt>
</event>
<event>
 4    1  0.4857079E-002  0.5757739E+03  0.7818608E-02  0.9956983E-01
         21   -1    0    0  501  502  0.00000000000E+00  0.00000000000E+00  0.58847845547E+03  0.58847845547E+03  0.00000000000E+00 0.  1.
         21   -1    0    0  502  503 -0.00000000000E+00 -0.00000000000E+00 -0.60686003697E+03  0.60686003697E+03  0.00000000000E+00 0. -1.
    9000005    1    1    2  501    0 -0.37821152153E+03 -0.16873522205E+03  0.15085477855E+03  0.59520811015E+03  0.40000000000E+03 0.  1.
   -9000005    1    1    2    0  503  0.37821152153E+03  0.16873522205E+03 -0.16923636005E+03  0.60013038228E+03  0.40000000000E+03 0. -1.
<mgrwt>
<rscale>  2 0.57577385E+03</rscale>
<asrwt>0</asrwt>
<pdfrwt beam="1">  1       21 0.90535147E-01 0.57577385E+03</pdfrwt>
<pdfrwt beam="2">  1       21 0.93363083E-01 0.57577385E+03</pdfrwt>
<totfact> 0.80852520E+02</totfact>
</mgrwt>
</event>
<event>
 4    1  0.4857079E-002  0.5721315E+03  0.7818608E-02  0.9964973E-01
         21   -1    0    0  503  502  0.00000000000E+00  0.00000000000E+00  0.12036955639E+03  0.12036955639E+03  0.00000000000E+00 0. -1.
         21   -1    0    0  501  503 -0.00000000000E+00 -0.00000000000E+00 -0.27456810929E+04  0.27456810929E+04  0.00000000000E+00 0. -1.
    9000005    1    1    2  501    0 -0.37537371517E+03 -0.16257010636E+03 -0.14528234729E+04  0.15614193892E+04  0.40000000000E+03 0. -1.
   -9000005    1    1    2    0  502  0.37537371517E+03  0.16257010636E+03 -0.11724880637E+04  0.13046312602E+04  0.40000000000E+03 0. -1.
<mgrwt>
<rscale>  2 0.57213151E+03</rscale>
<asrwt>0</asrwt>
<pdfrwt beam="1">  1       21 0.18518395E-01 0.57213151E+03</pdfrwt>
<pdfrwt beam="2">  1       21 0.42241244E+00 0.57213151E+03</pdfrwt>
<totfact> 0.11728782E+02</totfact>
</mgrwt>
</event>
<event>
 4    1  0.4857079E-002  0.6130716E+03  0.7818608E-02  0.9878652E-01
         21   -1    0    0  503  502  0.00000000000E+00  0.00000000000E+00  0.67690350912E+03  0.67690350912E+03  0.00000000000E+00 0.  1.
         21   -1    0    0  501  503 -0.00000000000E+00 -0.00000000000E+00 -0.60010408657E+03  0.60010408657E+03  0.00000000000E+00 0.  1.
    9000005    1    1    2  501    0  0.35389345836E+03  0.30102518959E+03  0.21294485726E+03  0.64900096831E+03  0.40000000000E+03 0.  1.
   -9000005    1    1    2    0  502 -0.35389345836E+03 -0.30102518959E+03 -0.13614543471E+03  0.62800662738E+03  0.40000000000E+03 0.  1.
<mgrwt>
<rscale>  2 0.61307157E+03</rscale>
<asrwt>0</asrwt>
<pdfrwt beam="1">  1       21 0.10413900E+00 0.61307157E+03</pdfrwt>
<pdfrwt beam="2">  1       21 0.92323705E-01 0.61307157E+03</pdfrwt>
<totfact> 0.58407953E+02</totfact>
</mgrwt>
</event>
<event>
 4    1  0.4857079E-002  0.4125665E+03  0.7818608E-02  0.1039513E+00
         21   -1    0    0  501  502  0.00000000000E+00  0.00000000000E+00  0.12961336209E+04  0.12961336209E+04  0.00000000000E+00 0. -1.
         21   -1    0    0  502  503 -0.00000000000E+00 -0.00000000000E+00 -0.13187906601E+03  0.13187906601E+03  0.00000000000E+00 0. -1.
    9000005    1    1    2  501    0  0.58452597709E+02  0.82428274812E+02  0.62852397442E+03  0.75183343440E+03  0.40000000000E+03 0.  1.
   -9000005    1    1    2    0  503 -0.58452597709E+02 -0.82428274812E+02  0.53573058051E+03  0.67617925254E+03  0.40000000000E+03 0.  1.
<mgrwt>
<rscale>  2 0.41256651E+03</rscale>
<asrwt>0</asrwt>
<pdfrwt beam="1">  1       21 0.19940516E+00 0.41256651E+03</pdfrwt>
<pdfrwt beam="2">  1       21 0.20289088E-01 0.41256651E+03</pdfrwt>
<totfact> 0.26288071E+03</totfact>
</mgrwt>
</event>
<event>
 4    1  0.4857079E-002  0.4825252E+03  0.7818608E-02  0.1018443E+00
         21   -1    0    0  501  502  0.00000000000E+00  0.00000000000E+00  0.44966026763E+03  0.44966026763E+03  0.00000000000E+00 0.  1.
         21   -1    0    0  502  503 -0.00000000000E+00 -0.00000000000E+00 -0.52623983241E+03  0.52623983241E+03  0.00000000000E+00 0. -1.
    9000005    1    1    2  501    0  0.22775644636E+03  0.14476732639E+03 -0.10011292853E+03  0.49280135563E+03  0.40000000000E+03 0. -1.
   -9000005    1    1    2    0  503 -0.22775644636E+03 -0.14476732639E+03  0.23533363754E+02  0.48309874442E+03  0.40000000000E+03 0.  1.
<mgrwt>
<rscale>  2 0.48252521E+03</rscale>
<asrwt>0</asrwt>
<pdfrwt beam="1">  1       21 0.69178503E-01 0.48252521E+03</pdfrwt>
<pdfrwt beam="2">  1       21 0.80959974E-01 0.48252521E+03</pdfrwt>
<totfact> 0.21771577E+03</totfact>
</mgrwt>
</event>
<event>
 4    1  0.4857079E-002  0.5000941E+03  0.7818608E-02  0.1013754E+00
         21   -1    0    0  501  502  0.00000000000E+00  0.00000000000E+00  0.10123606025E+04  0.10123606025E+04  0.00000000000E+00 0.  1.
         21   -1    0    0  502  503 -0.00000000000E+00 -0.00000000000E+00 -0.34302625672E+03  0.34302625672E+03  0.00000000000E+00 0.  1.
    9000005    1    1    2  501    0  0.35010118850E+02  0.29810804480E+03 -0.23819395327E+02  0.50066104142E+03  0.40000000000E+03 0.  1.
   -9000005    1    1    2    0  503 -0.35010118850E+02 -0.29810804480E+03  0.69315374108E+03  0.85472581778E+03  0.40000000000E+03 0.  1.
<mgrwt>
<rscale>  2 0.50009411E+03</rscale>
<asrwt>0</asrwt>
<pdfrwt beam="1">  1       21 0.15574778E+00 0.50009411E+03</pdfrwt>
<pdfrwt beam="2">  1       21 0.52773270E-01 0.50009411E+03</pdfrwt>
<totfact> 0.75674853E+02</totfact>
</mgrwt>
</event>
<event>
 4    1  0.4857079E-002  0.4801355E+03  0.7818608E-02  0.1019098E+00
         21   -1    0    0  501  502  0.00000000000E+00  0.00000000000E+00  0.13672830497E+04  0.13672830497E+04  0.00000000000E+00 0.  1.
         21   -1    0    0  502  503 -0.00000000000E+00 -0.00000000000E+00 -0.19539224594E+03  0.19539224594E+03  0.00000000000E+00 0.  1.
    9000005    1    1    2  501    0  0.23658139840E+03  0.12066213934E+03  0.87524842138E+03  0.99829349846E+03  0.40000000000E+03 0.  1.
   -9000005    1    1    2    0  503 -0.23658139840E+03 -0.12066213934E+03  0.29664238234E+03  0.56438179714E+03  0.40000000000E+03 0.  1.
<mgrwt>
<rscale>  2 0.48013551E+03</rscale>
<asrwt>0</asrwt>
<pdfrwt beam="1">  1       21 0.21035123E+00 0.48013551E+03</pdfrwt>
<pdfrwt beam="2">  1       21 0.30060346E-01 0.48013551E+03</pdfrwt>
<totfact> 0.10061259E+03</totfact>
</mgrwt>
</event>
<event>
 4    1  0.4857079E-002  0.4553457E+03  0.7818608E-02  0.1026140E+00
         21   -1    0    0  501  502  0.00000000000E+00  0.00000000000E+00  0.57319623190E+03  0.57319623190E+03  0.00000000000E+00 0. -1.
         21   -1    0    0  502  503 -0.00000000000E+00 -0.00000000000E+00 -0.36303987343E+03  0.36303987343E+03  0.00000000000E+00 0. -1.
    9000005    1    1    2  501    0 -0.10548351743E+03  0.19029705287E+03  0.13324410357E+03  0.47444044085E+03  0.40000000000E+03 0. -1.
   -9000005    1    1    2    0  503  0.10548351743E+03 -0.19029705287E+03  0.76912254898E+02  0.46179566448E+03  0.40000000000E+03 0. -1.
<mgrwt>
<rscale>  2 0.45534574E+03</rscale>
<asrwt>0</asrwt>
<pdfrwt beam="1">  1       21 0.88184036E-01 0.45534574E+03</pdfrwt>
<pdfrwt beam="2">  1       21 0.55852288E-01 0.45534574E+03</pdfrwt>
<totfact> 0.28861687E+03</totfact>
</mgrwt>
</event>
<event>
 4    1  0.4857079E-002  0.4539621E+03  0.7818608E-02  0.1026547E+00
         21   -1    0    0  503  502  0.00000000000E+00  0.00000000000E+00  0.63032958222E+03  0.63032958222E+03  0.00000000000E+00 0. -1.
         21   -1    0    0  501  503 -0.00000000000E+00 -0.00000000000E+00 -0.32781571251E+03  0.32781571251E+03  0.00000000000E+00 0. -1.
    9000005    1    1    2  501    0 -0.82269215470E+02  0.19827595098E+03  0.12653241433E+03  0.47126640919E+03  0.40000000000E+03 0. -1.
   -9000005    1    1    2    0  502  0.82269215470E+02 -0.19827595098E+03  0.17598145537E+03  0.48687888554E+03  0.40000000000E+03 0. -1.
<mgrwt>
<rscale>  2 0.45396209E+03</rscale>
<asrwt>0</asrwt>
<pdfrwt beam="1">  1       21 0.96973782E-01 0.45396209E+03</pdfrwt>
<pdfrwt beam="2">  1       21 0.50433187E-01 0.45396209E+03</pdfrwt>
<totfact> 0.28665707E+03</totfact>
</mgrwt>
</event>
<event>
 4    1  0.4857079E-002  0.4574257E+03  0.7818608E-02  0.1025530E+00
         21   -1    0    0  501  502  0.00000000000E+00  0.00000000000E+00  0.77602189525E+03  0.77602189525E+03  0.00000000000E+00 0. -1.
         21   -1    0    0  502  503 -0.00000000000E+00 -0.00000000000E+00 -0.32034357469E+03  0.32034357469E+03  0.00000000000E+00 0. -1.
    9000005    1    1    2  501    0 -0.67343347951E+02 -0.21143109028E+03  0.44595263565E+03  0.63883643109E+03  0.40000000000E+03 0. -1.
   -9000005    1    1    2    0  503  0.67343347951E+02  0.21143109028E+03  0.97256849109E+01  0.45752903885E+03  0.40000000000E+03 0. -1.
<mgrwt>
<rscale>  2 0.45742566E+03</rscale>
<asrwt>0</asrwt>
<pdfrwt beam="1">  1       21 0.11938798E+00 0.45742566E+03</pdfrwt>
<pdfrwt beam="2">  1       21 0.49283627E-01 0.45742566E+03</pdfrwt>
<totfact> 0.17986571E+03</totfact>
</mgrwt>
</event>
<event>
 4    1  0.4857079E-002  0.4075983E+03  0.7818608E-02  0.1041180E+00
         21   -1    0    0  501  502  0.00000000000E+00  0.00000000000E+00  0.33096300744E+03  0.33096300744E+03  0.00000000000E+00 0. -1.
         21   -1    0    0  502  503 -0.00000000000E+00 -0.00000000000E+00 -0.78049484271E+03  0.78049484271E+03  0.00000000000E+00 0. -1.
    9000005    1    1    2  501    0  0.75523478561E+02 -0.20798085419E+02  0.10720743590E+03  0.42146149348E+03  0.40000000000E+03 0. -1.
   -9000005    1    1    2    0  503 -0.75523478561E+02  0.20798085419E+02 -0.55673927116E+03  0.68999635668E+03  0.40000000000E+03 0. -1.
<mgrwt>
<rscale>  2 0.40759828E+03</rscale>
<asrwt>0</asrwt>
<pdfrwt beam="1">  1       21 0.50917386E-01 0.40759828E+03</pdfrwt>
<pdfrwt beam="2">  1       21 0.12007613E+00 0.40759828E+03</pdfrwt>
<totfact> 0.16875966E+03</totfact>
</mgrwt>
</event>
<event>
 4    1  0.4857079E-002  0.5271690E+03  0.7818608E-02  0.1006921E+00
         21   -1    0    0  503  502  0.00000000000E+00  0.00000000000E+00  0.22223774381E+03  0.22223774381E+03  0.00000000000E+00 0.  1.
         21   -1    0    0  501  503 -0.00000000000E+00 -0.00000000000E+00 -0.13668030655E+04  0.13668030655E+04  0.00000000000E+00 0.  1.
    9000005    1    1    2  501    0  0.33946867556E+03  0.51654725476E+02 -0.80405252067E+03  0.96146120480E+03  0.40000000000E+03 0.  1.
   -9000005    1    1    2    0  502 -0.33946867556E+03 -0.51654725476E+02 -0.34051280107E+03  0.62757960455E+03  0.40000000000E+03 0.  1.
<mgrwt>
<rscale>  2 0.52716904E+03</rscale>
<asrwt>0</asrwt>
<pdfrwt beam="1">  1       21 0.34190422E-01 0.52716904E+03</pdfrwt>
<pdfrwt beam="2">  1       21 0.21027739E+00 0.52716904E+03</pdfrwt>
<totfact> 0.76277482E+02</totfact>
</mgrwt>
</event>
<event>
 4    1  0.4857079E-002  0.5596701E+03  0.7818608E-02  0.9992801E-01
         21   -1    0    0  503  502  0.00000000000E+00  0.00000000000E+00  0.10123264047E+04  0.10123264047E+04  0.00000000000E+00 0.  1.
         21   -1    0    0  501  503 -0.00000000000E+00 -0.00000000000E+00 -0.10370812134E+04  0.10370812134E+04  0.00000000000E+00 0.  1.
    9000005    1    1    2  501    0  0.36272891431E+03  0.14716791785E+03 -0.87071389268E+03  0.10350716614E+04  0.40000000000E+03 0.  1.
   -9000005    1    1    2    0  502 -0.36272891431E+03 -0.14716791785E+03  0.84595908403E+03  0.10143359568E+04  0.40000000000E+03 0.  1.
<mgrwt>
<rscale>  2 0.55967014E+03</rscale>
<asrwt>0</asrwt>
<pdfrwt beam="1">  1       21 0.15574252E+00 0.55967014E+03</pdfrwt>
<pdfrwt beam="2">  1       21 0.15955096E+00 0.55967014E+03</pdfrwt>
<totfact> 0.50943373E+01</totfact>
</mgrwt>
</event>
<event>
 4    1  0.4857079E-002  0.4430944E+03  0.7818608E-02  0.1029802E+00
         21   -1    0    0  503  502  0.00000000000E+00  0.00000000000E+00  0.51392509812E+03  0.51392509812E+03  0.00000000000E+00 0. -1.
         21   -1    0    0  501  503 -0.00000000000E+00 -0.00000000000E+00 -0.44246519568E+03  0.44246519568E+03  0.00000000000E+00 0. -1.
    9000005    1    1    2  501    0 -0.12326089117E+03  0.14539399619E+03 -0.14100626829E+03  0.46498970861E+03  0.40000000000E+03 0. -1.
   -9000005    1    1    2    0  502  0.12326089117E+03 -0.14539399619E+03  0.21246617073E+03  0.49140058519E+03  0.40000000000E+03 0. -1.
<mgrwt>
<rscale>  2 0.44309442E+03</rscale>
<asrwt>0</asrwt>
<pdfrwt beam="1">  1       21 0.79065400E-01 0.44309442E+03</pdfrwt>
<pdfrwt beam="2">  1       21 0.68071569E-01 0.44309442E+03</pdfrwt>
<totfact> 0.24184116E+03</totfact>
</mgrwt>
</event>
<event>
 4    1  0.4857079E-002  0.4249459E+03  0.7818608E-02  0.1035469E+00
         21   -1    0    0  501  502  0.00000000000E+00  0.00000000000E+00  0.91427054141E+02  0.91427054141E+02  0.00000000000E+00 0.  1.
         21   -1    0    0  502  503 -0.00000000000E+00 -0.00000000000E+00 -0.19751814129E+04  0.19751814129E+04  0.00000000000E+00 0.  1.
    9000005    1    1    2  501    0  0.14083950579E+03  0.27262745245E+02 -0.94783046397E+03  0.10387307698E+04  0.40000000000E+03 0.  1.
   -9000005    1    1    2    0  503 -0.14083950579E+03 -0.27262745245E+02 -0.93592389475E+03  0.10278776972E+04  0.40000000000E+03 0.  1.
<mgrwt>
<rscale>  2 0.42494591E+03</rscale>
<asrwt>0</asrwt>
<pdfrwt beam="1">  1       21 0.14065701E-01 0.42494591E+03</pdfrwt>
<pdfrwt beam="2">  1       21 0.30387405E+00 0.42494591E+03</pdfrwt>
<totfact> 0.11720841E+03</totfact>
</mgrwt>
</event>
<event>
 4    1  0.4857079E-002  0.4820794E+03  0.7818608E-02  0.1018565E+00
         21   -1    0    0  503  502  0.00000000000E+00  0.00000000000E+00  0.73841629091E+03  0.73841629091E+03  0.00000000000E+00 0.  1.
         21   -1    0    0  501  503 -0.00000000000E+00 -0.00000000000E+00 -0.59222356346E+03  0.59222356346E+03  0.00000000000E+00 0.  1.
    9000005    1    1    2  501    0 -0.24968491215E+03 -0.10028978249E+03 -0.38232707657E+03  0.61528415330E+03  0.40000000000E+03 0.  1.
   -9000005    1    1    2    0  502  0.24968491215E+03  0.10028978249E+03  0.52851980401E+03  0.71535570107E+03  0.40000000000E+03 0.  1.
<mgrwt>
<rscale>  2 0.48207945E+03</rscale>
<asrwt>0</asrwt>
<pdfrwt beam="1">  1       21 0.11360251E+00 0.48207945E+03</pdfrwt>
<pdfrwt beam="2">  1       21 0.91111318E-01 0.48207945E+03</pdfrwt>
<totfact> 0.50910744E+02</totfact>
</mgrwt>
</event>
<event>
 4    1  0.4857079E-002  0.6450804E+03  0.7818608E-02  0.9816054E-01
         21   -1    0    0  503  502  0.00000000000E+00  0.00000000000E+00  0.13473808819E+04  0.13473808819E+04  0.00000000000E+00 0.  1.
         21   -1    0    0  501  503 -0.00000000000E+00 -0.00000000000E+00 -0.39837667536E+03  0.39837667536E+03  0.00000000000E+00 0.  1.
    9000005    1    1    2  501    0  0.34642218555E+03 -0.36894498951E+03  0.60692140911E+02  0.64792921828E+03  0.40000000000E+03 0.  1.
   -9000005    1    1    2    0  502 -0.34642218555E+03  0.36894498951E+03  0.88831206559E+03  0.10978283389E+04  0.40000000000E+03 0.  1.
<mgrwt>
<rscale>  2 0.64508041E+03</rscale>
<asrwt>0</asrwt>
<pdfrwt beam="1">  1       21 0.20728936E+00 0.64508041E+03</pdfrwt>
<pdfrwt beam="2">  1       21 0.61288720E-01 0.64508041E+03</pdfrwt>
<totfact> 0.22219097E+02</totfact>
</mgrwt>
</event>
<event>
 4    1  0.4857079E-002  0.7460412E+03  0.7818608E-02  0.9641582E-01
         21   -1    0    0  501  502  0.00000000000E+00  0.00000000000E+00  0.21514128851E+03  0.21514128851E+03  0.00000000000E+00 0.  1.
         21   -1    0    0  502  503 -0.00000000000E+00 -0.00000000000E+00 -0.33507234982E+04  0.33507234982E+04  0.00000000000E+00 0. -1.
    9000005    1    1    2  501    0  0.51907503993E+03  0.35656493504E+03 -0.71660507130E+03  0.10344565134E+04  0.40000000000E+03 0. -1.
   -9000005    1    1    2    0  503 -0.51907503993E+03 -0.35656493504E+03 -0.24189771383E+04  0.25314082732E+04  0.40000000000E+03 0. -1.
<mgrwt>
<rscale>  2 0.74604119E+03</rscale>
<asrwt>0</asrwt>
<pdfrwt beam="1">  1       21 0.33098659E-01 0.74604119E+03</pdfrwt>
<pdfrwt beam="2">  1       21 0.51549593E+00 0.74604119E+03</pdfrwt>
<totfact> 0.77714878E+00</totfact>
</mgrwt>
</event>
<event>
 4    1  0.4857079E-002  0.4176201E+03  0.7818608E-02  0.1037844E+00
         21   -1    0    0  501  502  0.00000000000E+00  0.00000000000E+00  0.14184152492E+03  0.14184152492E+03  0.00000000000E+00 0.  1.
         21   -1    0    0  502  503 -0.00000000000E+00 -0.00000000000E+00 -0.13939034415E+04  0.13939034415E+04  0.00000000000E+00 0. -1.
    9000005    1    1    2  501    0  0.10999634840E+03  0.48035304589E+02 -0.36239028463E+03  0.55293155593E+03  0.40000000000E+03 0.  1.
   -9000005    1    1    2    0  503 -0.10999634840E+03 -0.48035304589E+02 -0.88967163196E+03  0.98281341050E+03  0.40000000000E+03 0. -1.
<mgrwt>
<rscale>  2 0.41762015E+03</rscale>
<asrwt>0</asrwt>
<pdfrwt beam="1">  1       21 0.21821774E-01 0.41762015E+03</pdfrwt>
<pdfrwt beam="2">  1       21 0.21444668E+00 0.41762015E+03</pdfrwt>
<totfact> 0.18194574E+03</totfact>
</mgrwt>
</event>
<event>
 4    1  0.4857079E-002  0.4229167E+03  0.7818608E-02  0.1036121E+00
         21   -1    0    0  503  502  0.00000000000E+00  0.00000000000E+00  0.54026426468E+03  0.54026426468E+03  0.00000000000E+00 0. -1.
         21   -1    0    0  501  503 -0.00000000000E+00 -0.00000000000E+00 -0.14352991932E+04  0.14352991932E+04  0.00000000000E+00 0. -1.
    9000005    1    1    2  501    0 -0.63020165965E+02  0.12201218061E+03 -0.13139242544E+04  0.13803099144E+04  0.40000000000E+03 0. -1.
   -9000005    1    1    2    0  502  0.63020165965E+02 -0.12201218061E+03  0.41888932595E+03  0.59525354340E+03  0.40000000000E+03 0. -1.
<mgrwt>
<rscale>  2 0.42291667E+03</rscale>
<asrwt>0</asrwt>
<pdfrwt beam="1">  1       21 0.83117581E-01 0.42291667E+03</pdfrwt>
<pdfrwt beam="2">  1       21 0.22081526E+00 0.42291667E+03</pdfrwt>
<totfact> 0.10094628E+02</totfact>
</mgrwt>
</event>
<event>
 4    1  0.4857079E-002  0.5129230E+03  0.7818608E-02  0.1010460E+00
         21   -1    0    0  503  502  0.00000000000E+00  0.00000000000E+00  0.13423480178E+04  0.13423480178E+04  0.00000000000E+00 0. -1.
         21   -1    0    0  501  503 -0.00000000000E+00 -0.00000000000E+00 -0.36324153128E+03  0.36324153128E+03  0.00000000000E+00 0. -1.
    9000005    1    1    2  501    0  0.28292087140E+03 -0.15180834573E+03 -0.89113778723E+02  0.52060662584E+03  0.40000000000E+03 0. -1.
   -9000005    1    1    2    0  502 -0.28292087140E+03  0.15180834573E+03  0.10682202652E+04  0.11849829232E+04  0.40000000000E+03 0. -1.
<mgrwt>
<rscale>  2 0.51292299E+03</rscale>
<asrwt>0</asrwt>
<pdfrwt beam="1">  1       21 0.20651508E+00 0.51292299E+03</pdfrwt>
<pdfrwt beam="2">  1       21 0.55883313E-01 0.51292299E+03</pdfrwt>
<totfact> 0.29037318E+02</totfact>
</mgrwt>
</event>
<event>
 4    1  0.4857079E-002  0.4721674E+03  0.7818608E-02  0.1021310E+00
         21   -1    0    0  503  502  0.00000000000E+00  0.00000000000E+00  0.36825987686E+03  0.36825987686E+03  0.00000000000E+00 0. -1.
         21   -1    0    0  501  503 -0.00000000000E+00 -0.00000000000E+00 -0.81128857794E+03  0.81128857794E+03  0.00000000000E+00 0.  1.
    9000005    1    1    2  501    0  0.99861949394E+02  0.23015137518E+03 -0.51862710536E+03  0.70136733517E+03  0.40000000000E+03 0.  1.
   -9000005    1    1    2    0  502 -0.99861949394E+02 -0.23015137518E+03  0.75598404280E+02  0.47818111962E+03  0.40000000000E+03 0. -1.
<mgrwt>
<rscale>  2 0.47216741E+03</rscale>
<asrwt>0</asrwt>
<pdfrwt beam="1">  1       21 0.56655365E-01 0.47216741E+03</pdfrwt>
<pdfrwt beam="2">  1       21 0.12481363E+00 0.47216741E+03</pdfrwt>
<totfact> 0.11832529E+03</totfact>
</mgrwt>
</event>
<event>
 4    1  0.4857079E-002  0.4052445E+03  0.7818608E-02  0.1041979E+00
         21   -1    0    0  501  502  0.00000000000E+00  0.00000000000E+00  0.59636091764E+03  0.59636091764E+03  0.00000000000E+00 0. -1.
         21   -1    0    0  502  503 -0.00000000000E+00 -0.00000000000E+00 -0.38417220873E+03  0.38417220873E+03  0.00000000000E+00 0. -1.
    9000005    1    1    2  501    0  0.33541173388E+02  0.55660532960E+02  0.36699638021E+03  0.54672611821E+03  0.40000000000E+03 0. -1.
   -9000005    1    1    2    0  503 -0.33541173388E+02 -0.55660532960E+02 -0.15480767129E+03  0.43380700817E+03  0.40000000000E+03 0. -1.
<mgrwt>
<rscale>  2 0.40524450E+03</rscale>
<asrwt>0</asrwt>
<pdfrwt beam="1">  1       21 0.91747833E-01 0.40524450E+03</pdfrwt>
<pdfrwt beam="2">  1       21 0.59103417E-01 0.40524450E+03</pdfrwt>
<totfact> 0.23685618E+03</totfact>
</mgrwt>
</event>
<event>
 4    1  0.4857079E-002  0.4925987E+03  0.7818608E-02  0.1015729E+00
         21   -1    0    0  503  502  0.00000000000E+00  0.00000000000E+00  0.14045554140E+04  0.14045554140E+04  0.00000000000E+00 0. -1.
         21   -1    0    0  501  503 -0.00000000000E+00 -0.00000000000E+00 -0.21782124539E+03  0.21782124539E+03  0.00000000000E+00 0.  1.
    9000005    1    1    2  501    0  0.22822977814E+03  0.17482756677E+03  0.22441961392E+03  0.54131106847E+03  0.40000000000E+03 0.  1.
   -9000005    1    1    2    0  502 -0.22822977814E+03 -0.17482756677E+03  0.96231455468E+03  0.10810655909E+04  0.40000000000E+03 0. -1.
<mgrwt>
<rscale>  2 0.49259873E+03</rscale>
<asrwt>0</asrwt>
<pdfrwt beam="1">  1       21 0.21608544E+00 0.49259873E+03</pdfrwt>
<pdfrwt beam="2">  1       21 0.33510962E-01 0.49259873E+03</pdfrwt>
<totfact> 0.73857840E+02</totfact>
</mgrwt>
</event>
<event>
 4    1  0.4857079E-002  0.4508701E+03  0.7818608E-02  0.1027463E+00
         21   -1    0    0  501  502  0.00000000000E+00  0.00000000000E+00  0.22726517829E+04  0.22726517829E+04  0.00000000000E+00 0. -1.
         21   -1    0    0  502  503 -0.00000000000E+00 -0.00000000000E+00 -0.15015024014E+03  0.15015024014E+03  0.00000000000E+00 0. -1.
    9000005    1    1    2  501    0 -0.15582942377E+03  0.13784415926E+03  0.18314938477E+04  0.18861743121E+04  0.40000000000E+03 0. -1.
   -9000005    1    1    2    0  503  0.15582942377E+03 -0.13784415926E+03  0.29100769508E+03  0.53662771094E+03  0.40000000000E+03 0. -1.
<mgrwt>
<rscale>  2 0.45087007E+03</rscale>
<asrwt>0</asrwt>
<pdfrwt beam="1">  1       21 0.34963871E+00 0.45087007E+03</pdfrwt>
<pdfrwt beam="2">  1       21 0.23100039E-01 0.45087007E+03</pdfrwt>
<totfact> 0.23939950E+02</totfact>
</mgrwt>
</event>
<event>
 4    1  0.4857079E-002  0.4819060E+03  0.7818608E-02  0.1018613E+00
         21   -1    0    0  501  502  0.00000000000E+00  0.00000000000E+00  0.65993674678E+03  0.65993674678E+03  0.00000000000E+00 0. -1.
         21   -1    0    0  502  503 -0.00000000000E+00 -0.00000000000E+00 -0.13368485974E+04  0.13368485974E+04  0.00000000000E+00 0.  1.
    9000005    1    1    2  501    0 -0.26792746471E+03 -0.21171517035E+02  0.51851584270E+03  0.70787854793E+03  0.40000000000E+03 0.  1.
   -9000005    1    1    2    0  503  0.26792746471E+03  0.21171517035E+02 -0.11954276934E+04  0.12889067963E+04  0.40000000000E+03 0. -1.
<mgrwt>
<rscale>  2 0.48190597E+03</rscale>
<asrwt>0</asrwt>
<pdfrwt beam="1">  1       21 0.10152873E+00 0.48190597E+03</pdfrwt>
<pdfrwt beam="2">  1       21 0.20566901E+00 0.48190597E+03</pdfrwt>
<totfact> 0.75903417E+01</totfact>
</mgrwt>
</event>
<event>
 4    1  0.4857079E-002  0.4354072E+03  0.7818608E-02  0.1032165E+00
         21   -1    0    0  503  502  0.00000000000E+00  0.00000000000E+00  0.29026258005E+03  0.29026258005E+03  0.00000000000E+00 0.  1.
         21   -1    0    0  501  503 -0.00000000000E+00 -0.00000000000E+00 -0.13479452115E+04  0.13479452115E+04  0.00000000000E+00 0. -1.
    9000005    1    1    2  501    0  0.16672748592E+03  0.42206655621E+02 -0.11169224577E+04  0.11987890694E+04  0.40000000000E+03 0. -1.
   -9000005    1    1    2    0  502 -0.16672748592E+03 -0.42206655621E+02  0.59239826290E+02  0.43941872213E+03  0.40000000000E+03 0.  1.
<mgrwt>
<rscale>  2 0.43540723E+03</rscale>
<asrwt>0</asrwt>
<pdfrwt beam="1">  1       21 0.44655780E-01 0.43540723E+03</pdfrwt>
<pdfrwt beam="2">  1       21 0.20737619E+00 0.43540723E+03</pdfrwt>
<totfact> 0.47980292E+02</totfact>
</mgrwt>
</event>
<event>
 4    1  0.4857079E-002  0.4434951E+03  0.7818608E-02  0.1029680E+00
         21   -1    0    0  501  502  0.00000000000E+00  0.00000000000E+00  0.17302537792E+04  0.17302537792E+04  0.00000000000E+00 0.  1.
         21   -1    0    0  502  503 -0.00000000000E+00 -0.00000000000E+00 -0.21204156187E+03  0.21204156187E+03  0.00000000000E+00 0.  1.
    9000005    1    1    2  501    0  0.16900920193E+03  0.90132006571E+02  0.14205558865E+04  0.14881757005E+04  0.40000000000E+03 0.  1.
   -9000005    1    1    2    0  503 -0.16900920193E+03 -0.90132006571E+02  0.97656330774E+02  0.45411964050E+03  0.40000000000E+03 0.  1.
<mgrwt>
<rscale>  2 0.44349508E+03</rscale>
<asrwt>0</asrwt>
<pdfrwt beam="1">  1       21 0.26619288E+00 0.44349508E+03</pdfrwt>
<pdfrwt beam="2">  1       21 0.32621780E-01 0.44349508E+03</pdfrwt>
<totfact> 0.38952322E+02</totfact>
</mgrwt>
</event>
<event>
 4    1  0.4857079E-002  0.6097327E+03  0.7818608E-02  0.9885417E-01
         21   -1    0    0  503  502  0.00000000000E+00  0.00000000000E+00  0.51567755914E+03  0.51567755914E+03  0.00000000000E+00 0.  1.
         21   -1    0    0  501  503 -0.00000000000E+00 -0.00000000000E+00 -0.72372016014E+03  0.72372016014E+03  0.00000000000E+00 0.  1.
    9000005    1    1    2  501    0  0.77030532477E+02 -0.45369616208E+03 -0.14241222645E+03  0.62614307683E+03  0.40000000000E+03 0.  1.
   -9000005    1    1    2    0  502 -0.77030532477E+02  0.45369616208E+03 -0.65630374552E+02  0.61325464245E+03  0.40000000000E+03 0.  1.
<mgrwt>
<rscale>  2 0.60973265E+03</rscale>
<asrwt>0</asrwt>
<pdfrwt beam="1">  1       21 0.79335009E-01 0.60973265E+03</pdfrwt>
<pdfrwt beam="2">  1       21 0.11134156E+00 0.60973265E+03</pdfrwt>
<totfact> 0.70793071E+02</totfact>
</mgrwt>
</event>
<event>
 4    1  0.4857079E-002  0.4111844E+03  0.7818608E-02  0.1039974E+00
         21   -1    0    0  503  502  0.00000000000E+00  0.00000000000E+00  0.34680823127E+03  0.34680823127E+03  0.00000000000E+00 0.  1.
         21   -1    0    0  501  503 -0.00000000000E+00 -0.00000000000E+00 -0.51816826986E+03  0.51816826986E+03  0.00000000000E+00 0.  1.
    9000005    1    1    2  501    0 -0.13372471691E+02 -0.94306879321E+02 -0.19087864809E+03  0.45332909545E+03  0.40000000000E+03 0.  1.
   -9000005    1    1    2    0  502  0.13372471691E+02  0.94306879321E+02  0.19518609505E+02  0.41164740568E+03  0.40000000000E+03 0.  1.
<mgrwt>
<rscale>  2 0.41118440E+03</rscale>
<asrwt>0</asrwt>
<pdfrwt beam="1">  1       21 0.53355113E-01 0.41118440E+03</pdfrwt>
<pdfrwt beam="2">  1       21 0.79718195E-01 0.41118440E+03</pdfrwt>
<totfact> 0.40945610E+03</totfact>
</mgrwt>
</event>
<event>
 4    1  0.4857079E-002  0.6203637E+03  0.7818608E-02  0.9864036E-01
         21   -1    0    0  501  502  0.00000000000E+00  0.00000000000E+00  0.11417595228E+04  0.11417595228E+04  0.00000000000E+00 0. -1.
         21   -1    0    0  502  503 -0.00000000000E+00 -0.00000000000E+00 -0.49811947630E+03  0.49811947630E+03  0.00000000000E+00 0. -1.
    9000005    1    1    2  501    0 -0.24361183140E+03 -0.40682236137E+03  0.78804629447E+03  0.10029297684E+04  0.40000000000E+03 0. -1.
   -9000005    1    1    2    0  503  0.24361183140E+03  0.40682236137E+03 -0.14440624793E+03  0.63694923075E+03  0.40000000000E+03 0. -1.
<mgrwt>
<rscale>  2 0.62036373E+03</rscale>
<asrwt>0</asrwt>
<pdfrwt beam="1">  1       21 0.17565531E+00 0.62036373E+03</pdfrwt>
<pdfrwt beam="2">  1       21 0.76633766E-01 0.62036373E+03</pdfrwt>
<totfact> 0.22390771E+02</totfact>
</mgrwt>
</event>
<event>
 4    1  0.4857079E-002  0.5363984E+03  0.7818608E-02  0.1004692E+00
         21   -1    0    0  503  502  0.00000000000E+00  0.00000000000E+00  0.19190239049E+03  0.19190239049E+03  0.00000000000E+00 0. -1.
         21   -1    0    0  501  503 -0.00000000000E+00 -0.00000000000E+00 -0.16723932273E+04  0.16723932273E+04  0.00000000000E+00 0.  1.
    9000005    1    1    2  501    0  0.23910596063E+03  0.26561551441E+03 -0.44037790461E+03  0.69401438081E+03  0.40000000000E+03 0. -1.
   -9000005    1    1    2    0  502 -0.23910596063E+03 -0.26561551441E+03 -0.10401129322E+04  0.11702812370E+04  0.40000000000E+03 0. -1.
<mgrwt>
<rscale>  2 0.53639842E+03</rscale>
<asrwt>0</asrwt>
<pdfrwt beam="1">  1       21 0.29523444E-01 0.53639842E+03</pdfrwt>
<pdfrwt beam="2">  1       21 0.25729127E+00 0.53639842E+03</pdfrwt>
<totfact> 0.51450951E+02</totfact>
</mgrwt>
</event>
<event>
 4    1  0.4857079E-002  0.4675728E+03  0.7818608E-02  0.1022608E+00
         21   -1    0    0  503  502  0.00000000000E+00  0.00000000000E+00  0.41598355776E+03  0.41598355776E+03  0.00000000000E+00 0.  1.
         21   -1    0    0  501  503 -0.00000000000E+00 -0.00000000000E+00 -0.92968558715E+03  0.92968558715E+03  0.00000000000E+00 0.  1.
    9000005    1    1    2  501    0 -0.59161848132E+02 -0.23478535737E+03 -0.70045808887E+03  0.84217921049E+03  0.40000000000E+03 0.  1.
   -9000005    1    1    2    0  502  0.59161848132E+02  0.23478535737E+03  0.18675605948E+03  0.50348993442E+03  0.40000000000E+03 0.  1.
<mgrwt>
<rscale>  2 0.46757276E+03</rscale>
<asrwt>0</asrwt>
<pdfrwt beam="1">  1       21 0.63997471E-01 0.46757276E+03</pdfrwt>
<pdfrwt beam="2">  1       21 0.14302855E+00 0.46757276E+03</pdfrwt>
<totfact> 0.63472424E+02</totfact>
</mgrwt>
</event>
<event>
 4    1  0.4857079E-002  0.4206295E+03  0.7818608E-02  0.1036862E+00
         21   -1    0    0  501  502  0.00000000000E+00  0.00000000000E+00  0.78350140069E+03  0.78350140069E+03  0.00000000000E+00 0. -1.
         21   -1    0    0  502  503 -0.00000000000E+00 -0.00000000000E+00 -0.23003625498E+03  0.23003625498E+03  0.00000000000E+00 0.  1.
    9000005    1    1    2  501    0  0.12704174698E+03  0.28098990856E+02  0.20811279830E+03  0.46929744894E+03  0.40000000000E+03 0.  1.
   -9000005    1    1    2    0  503 -0.12704174698E+03 -0.28098990856E+02  0.34535234740E+03  0.54424020673E+03  0.40000000000E+03 0. -1.
<mgrwt>
<rscale>  2 0.42062948E+03</rscale>
<asrwt>0</asrwt>
<pdfrwt beam="1">  1       21 0.12053868E+00 0.42062948E+03</pdfrwt>
<pdfrwt beam="2">  1       21 0.35390194E-01 0.42062948E+03</pdfrwt>
<totfact> 0.35354182E+03</totfact>
</mgrwt>
</event>
<event>
 4    1  0.4857079E-002  0.4352184E+03  0.7818608E-02  0.1032224E+00
         21   -1    0    0  503  502  0.00000000000E+00  0.00000000000E+00  0.13102676285E+03  0.13102676285E+03  0.00000000000E+00 0.  1.
         21   -1    0    0  501  503 -0.00000000000E+00 -0.00000000000E+00 -0.15334169326E+04  0.15334169326E+04  0.00000000000E+00 0.  1.
    9000005    1    1    2  501    0  0.15261181535E+03 -0.78260579597E+02 -0.90032905054E+03  0.10000037419E+04  0.40000000000E+03 0.  1.
   -9000005    1    1    2    0  502 -0.15261181535E+03  0.78260579597E+02 -0.50206111923E+03  0.66443995361E+03  0.40000000000E+03 0.  1.
<mgrwt>
<rscale>  2 0.43521843E+03</rscale>
<asrwt>0</asrwt>
<pdfrwt beam="1">  1       21 0.20157963E-01 0.43521843E+03</pdfrwt>
<pdfrwt beam="2">  1       21 0.23591030E+00 0.43521843E+03</pdfrwt>
<totfact> 0.15355316E+03</totfact>
</mgrwt>
</event>
<event>
 4    1  0.4857079E-002  0.5075717E+03  0.7818608E-02  0.1011821E+00
         21   -1    0    0  501  502  0.00000000000E+00  0.00000000000E+00  0.22645680925E+03  0.22645680925E+03  0.00000000000E+00 0.  1.
         21   -1    0    0  502  503 -0.00000000000E+00 -0.00000000000E+00 -0.17509076267E+04  0.17509076267E+04  0.00000000000E+00 0. -1.
    9000005    1    1    2  501    0 -0.21190496360E+03  0.22961997076E+03 -0.17710415617E+03  0.53758248363E+03  0.40000000000E+03 0.  1.
   -9000005    1    1    2    0  503  0.21190496360E+03 -0.22961997076E+03 -0.13473466613E+04  0.14397819523E+04  0.40000000000E+03 0. -1.
<mgrwt>
<rscale>  2 0.50757171E+03</rscale>
<asrwt>0</asrwt>
<pdfrwt beam="1">  1       21 0.34839509E-01 0.50757171E+03</pdfrwt>
<pdfrwt beam="2">  1       21 0.26937040E+00 0.50757171E+03</pdfrwt>
<totfact> 0.31538079E+02</totfact>
</mgrwt>
</event>
<event>
 4    1  0.4857079E-002  0.5857891E+03  0.7818608E-02  0.9935336E-01
         21   -1    0    0  503  502  0.00000000000E+00  0.00000000000E+00  0.43689888317E+03  0.43689888317E+03  0.00000000000E+00 0.  1.
         21   -1    0    0  501  503 -0.00000000000E+00 -0.00000000000E+00 -0.11808545122E+04  0.11808545122E+04  0.00000000000E+00 0. -1.
    9000005    1    1    2  501    0  0.27248153735E+03 -0.33000409618E+03 -0.84005955594E+03  0.10241332673E+04  0.40000000000E+03 0. -1.
   -9000005    1    1    2    0  502 -0.27248153735E+03  0.33000409618E+03  0.96103926890E+02  0.59362012808E+03  0.40000000000E+03 0.  1.
<mgrwt>
<rscale>  2 0.58578912E+03</rscale>
<asrwt>0</asrwt>
<pdfrwt beam="1">  1       21 0.67215215E-01 0.58578912E+03</pdfrwt>
<pdfrwt beam="2">  1       21 0.18166992E+00 0.58578912E+03</pdfrwt>
<totfact> 0.27687478E+02</totfact>
</mgrwt>
</event>
<event>
 4    1  0.4857079E-002  0.4305494E+03  0.7818608E-02  0.1033687E+00
         21   -1    0    0  501  502  0.00000000000E+00  0.00000000000E+00  0.18555968154E+03  0.18555968154E+03  0.00000000000E+00 0.  1.
         21   -1    0    0  502  503 -0.00000000000E+00 -0.00000000000E+00 -0.10840034688E+04  0.10840034688E+04  0.00000000000E+00 0. -1.
    9000005    1    1    2  501    0 -0.10909008646E+03  0.11606937895E+03 -0.62698687760E+03  0.76058220619E+03  0.40000000000E+03 0. -1.
   -9000005    1    1    2    0  503  0.10909008646E+03 -0.11606937895E+03 -0.27145690966E+03  0.50898094414E+03  0.40000000000E+03 0.  1.
<mgrwt>
<rscale>  2 0.43054936E+03</rscale>
<asrwt>0</asrwt>
<pdfrwt beam="1">  1       21 0.28547644E-01 0.43054936E+03</pdfrwt>
<pdfrwt beam="2">  1       21 0.16676976E+00 0.43054936E+03</pdfrwt>
<totfact> 0.22744667E+03</totfact>
</mgrwt>
</event>
<event>
 4    1  0.4857079E-002  0.4554566E+03  0.7818608E-02  0.1026107E+00
         21   -1    0    0  501  502  0.00000000000E+00  0.00000000000E+00  0.29132238278E+03  0.29132238278E+03  0.00000000000E+00 0. -1.
         21   -1    0    0  502  503 -0.00000000000E+00 -0.00000000000E+00 -0.11198302803E+04  0.11198302803E+04  0.00000000000E+00 0.  1.
    9000005    1    1    2  501    0  0.14731723736E+03  0.16043164527E+03  0.11513682490E+02  0.45560206991E+03  0.40000000000E+03 0. -1.
   -9000005    1    1    2    0  503 -0.14731723736E+03 -0.16043164527E+03 -0.84002157999E+03  0.95555059316E+03  0.40000000000E+03 0.  1.
<mgrwt>
<rscale>  2 0.45545656E+03</rscale>
<asrwt>0</asrwt>
<pdfrwt beam="1">  1       21 0.44818828E-01 0.45545656E+03</pdfrwt>
<pdfrwt beam="2">  1       21 0.17228158E+00 0.45545656E+03</pdfrwt>
<totfact> 0.82091973E+02</totfact>
</mgrwt>
</event>
<event>
 4    1  0.4857079E-002  0.4236150E+03  0.7818608E-02  0.1035896E+00
         21   -1    0    0  503  502  0.00000000000E+00  0.00000000000E+00  0.37439050062E+03  0.37439050062E+03  0.00000000000E+00 0.  1.
         21   -1    0    0  501  503 -0.00000000000E+00 -0.00000000000E+00 -0.13178054244E+04  0.13178054244E+04  0.00000000000E+00 0.  1.
    9000005    1    1    2  501    0 -0.99590566967E+02 -0.97628935557E+02 -0.11466160455E+04  0.12223657578E+04  0.40000000000E+03 0.  1.
   -9000005    1    1    2    0  502  0.99590566967E+02  0.97628935557E+02  0.20320112176E+03  0.46983016716E+03  0.40000000000E+03 0.  1.
<mgrwt>
<rscale>  2 0.42361503E+03</rscale>
<asrwt>0</asrwt>
<pdfrwt beam="1">  1       21 0.57598538E-01 0.42361503E+03</pdfrwt>
<pdfrwt beam="2">  1       21 0.20273930E+00 0.42361503E+03</pdfrwt>
<totfact> 0.30116111E+02</totfact>
</mgrwt>
</event>
<event>
 4    1  0.4857079E-002  0.6128198E+03  0.7818608E-02  0.9879160E-01
         21   -1    0    0  503  502  0.00000000000E+00  0.00000000000E+00  0.13033545388E+04  0.13033545388E+04  0.00000000000E+00 0.  1.
         21   -1    0    0  501  503 -0.00000000000E+00 -0.00000000000E+00 -0.53703637265E+03  0.53703637265E+03  0.00000000000E+00 0. -1.
    9000005    1    1    2  501    0  0.31611909929E+03 -0.34002465170E+03 -0.24329301922E+03  0.65934781557E+03  0.40000000000E+03 0. -1.
   -9000005    1    1    2    0  502 -0.31611909929E+03  0.34002465170E+03  0.10096111854E+04  0.11810430959E+04  0.40000000000E+03 0.  1.
<mgrwt>
<rscale>  2 0.61281975E+03</rscale>
<asrwt>0</asrwt>
<pdfrwt beam="1">  1       21 0.20051608E+00 0.61281975E+03</pdfrwt>
<pdfrwt beam="2">  1       21 0.82620981E-01 0.61281975E+03</pdfrwt>
<totfact> 0.12646505E+02</totfact>
</mgrwt>
</event>
<event>
 4    1  0.4857079E-002  0.5072970E+03  0.7818608E-02  0.1011892E+00
         21   -1    0    0  503  502  0.00000000000E+00  0.00000000000E+00  0.64896018579E+03  0.64896018579E+03  0.00000000000E+00 0. -1.
         21   -1    0    0  501  503 -0.00000000000E+00 -0.00000000000E+00 -0.51750406434E+03  0.51750406434E+03  0.00000000000E+00 0. -1.
    9000005    1    1    2  501    0  0.21857306145E+03 -0.22265682829E+03 -0.21622753705E+03  0.55145679264E+03  0.40000000000E+03 0. -1.
   -9000005    1    1    2    0  502 -0.21857306145E+03  0.22265682829E+03  0.34768365850E+03  0.61500745749E+03  0.40000000000E+03 0. -1.
<mgrwt>
<rscale>  2 0.50729700E+03</rscale>
<asrwt>0</asrwt>
<pdfrwt beam="1">  1       21 0.99840029E-01 0.50729700E+03</pdfrwt>
<pdfrwt beam="2">  1       21 0.79616010E-01 0.50729700E+03</pdfrwt>
<totfact> 0.95204184E+02</totfact>
</mgrwt>
</event>
<event>
 4    1  0.4857079E-002  0.4993887E+03  0.7818608E-02  0.1013939E+00
         21   -1    0    0  501  502  0.00000000000E+00  0.00000000000E+00  0.19264924357E+03  0.19264924357E+03  0.00000000000E+00 0. -1.
         21   -1    0    0  502  503 -0.00000000000E+00 -0.00000000000E+00 -0.15017250224E+04  0.15017250224E+04  0.00000000000E+00 0.  1.
    9000005    1    1    2  501    0 -0.14397083345E+03 -0.26203328135E+03 -0.33984984639E+03  0.60405873846E+03  0.40000000000E+03 0. -1.
   -9000005    1    1    2    0  503  0.14397083345E+03  0.26203328135E+03 -0.96922593245E+03  0.10903155275E+04  0.40000000000E+03 0.  1.
<mgrwt>
<rscale>  2 0.49938867E+03</rscale>
<asrwt>0</asrwt>
<pdfrwt beam="1">  1       21 0.29638344E-01 0.49938867E+03</pdfrwt>
<pdfrwt beam="2">  1       21 0.23103462E+00 0.49938867E+03</pdfrwt>
<totfact> 0.75589359E+02</totfact>
</mgrwt>
</event>
<event>
 4    1  0.4857079E-002  0.4267541E+03  0.7818608E-02  0.1034890E+00
         21   -1    0    0  503  502  0.00000000000E+00  0.00000000000E+00  0.45395435630E+03  0.45395435630E+03  0.00000000000E+00 0.  1.
         21   -1    0    0  501  503 -0.00000000000E+00 -0.00000000000E+00 -0.40179088661E+03  0.40179088661E+03  0.00000000000E+00 0.  1.
    9000005    1    1    2  501    0  0.55640609714E+02 -0.13792445816E+03  0.94468950364E+01  0.42685861528E+03  0.40000000000E+03 0.  1.
   -9000005    1    1    2    0  502 -0.55640609714E+02  0.13792445816E+03  0.42716574656E+02  0.42888662763E+03  0.40000000000E+03 0.  1.
<mgrwt>
<rscale>  2 0.42675407E+03</rscale>
<asrwt>0</asrwt>
<pdfrwt beam="1">  1       21 0.69839132E-01 0.42675407E+03</pdfrwt>
<pdfrwt beam="2">  1       21 0.61813983E-01 0.42675407E+03</pdfrwt>
<totfact> 0.39966717E+03</totfact>
</mgrwt>
</event>
<event>
 4    1  0.4857079E-002  0.4935839E+03  0.7818608E-02  0.1015467E+00
         21   -1    0    0  501  502  0.00000000000E+00  0.00000000000E+00  0.11093814426E+04  0.11093814426E+04  0.00000000000E+00 0. -1.
         21   -1    0    0  502  503 -0.00000000000E+00 -0.00000000000E+00 -0.28272516938E+03  0.28272516938E+03  0.00000000000E+00 0.  1.
    9000005    1    1    2  501    0  0.22116627933E+03 -0.18630766973E+03  0.74221485013E+03  0.89135175698E+03  0.40000000000E+03 0. -1.
   -9000005    1    1    2    0  503 -0.22116627933E+03  0.18630766973E+03  0.84441423126E+02  0.50075485505E+03  0.40000000000E+03 0.  1.
<mgrwt>
<rscale>  2 0.49358390E+03</rscale>
<asrwt>0</asrwt>
<pdfrwt beam="1">  1       21 0.17067407E+00 0.49358390E+03</pdfrwt>
<pdfrwt beam="2">  1       21 0.43496181E-01 0.49358390E+03</pdfrwt>
<totfact> 0.88321906E+02</totfact>
</mgrwt>
</event>
<event>
 4    1  0.4857079E-002  0.4441468E+03  0.7818608E-02  0.1029482E+00
         21   -1    0    0  501  502  0.00000000000E+00  0.00000000000E+00  0.16562349685E+03  0.16562349685E+03  0.00000000000E+00 0. -1.
         21   -1    0    0  502  503 -0.00000000000E+00 -0.00000000000E+00 -0.12843503702E+04  0.12843503702E+04  0.00000000000E+00 0.  1.
    9000005    1    1    2  501    0 -0.51541749715E+02  0.18603726123E+03 -0.75476246322E+03  0.87574698996E+03  0.40000000000E+03 0.  1.
   -9000005    1    1    2    0  503  0.51541749715E+02 -0.18603726123E+03 -0.36396441009E+03  0.57422687707E+03  0.40000000000E+03 0.  1.
<mgrwt>
<rscale>  2 0.44414684E+03</rscale>
<asrwt>0</asrwt>
<pdfrwt beam="1">  1       21 0.25480539E-01 0.44414684E+03</pdfrwt>
<pdfrwt beam="2">  1       21 0.19759236E+00 0.44414684E+03</pdfrwt>
<totfact> 0.17190407E+03</totfact>
</mgrwt>
</event>
<event>
 4    1  0.4857079E-002  0.4431482E+03  0.7818608E-02  0.1029785E+00
         21   -1    0    0  503  502  0.00000000000E+00  0.00000000000E+00  0.53995803639E+03  0.53995803639E+03  0.00000000000E+00 0. -1.
         21   -1    0    0  501  503 -0.00000000000E+00 -0.00000000000E+00 -0.36563446958E+03  0.36563446958E+03  0.00000000000E+00 0. -1.
    9000005    1    1    2  501    0  0.18215131897E+03  0.56579651952E+02  0.12013444246E+03  0.45914338096E+03  0.40000000000E+03 0. -1.
   -9000005    1    1    2    0  502 -0.18215131897E+03 -0.56579651952E+02  0.54189124349E+02  0.44644912500E+03  0.40000000000E+03 0. -1.
<mgrwt>
<rscale>  2 0.44314824E+03</rscale>
<asrwt>0</asrwt>
<pdfrwt beam="1">  1       21 0.83070467E-01 0.44314824E+03</pdfrwt>
<pdfrwt beam="2">  1       21 0.56251457E-01 0.44314824E+03</pdfrwt>
<totfact> 0.32831820E+03</totfact>
</mgrwt>
</event>
<event>
 4    1  0.4857079E-002  0.4058168E+03  0.7818608E-02  0.1041784E+00
         21   -1    0    0  501  502  0.00000000000E+00  0.00000000000E+00  0.68974809173E+03  0.68974809173E+03  0.00000000000E+00 0. -1.
         21   -1    0    0  502  503 -0.00000000000E+00 -0.00000000000E+00 -0.32294785750E+03  0.32294785750E+03  0.00000000000E+00 0. -1.
    9000005    1    1    2  501    0 -0.39584335556E+02  0.55860144936E+02  0.44192140124E+03  0.59998483338E+03  0.40000000000E+03 0. -1.
   -9000005    1    1    2    0  503  0.39584335556E+02 -0.55860144936E+02 -0.75121167013E+02  0.41271111585E+03  0.40000000000E+03 0. -1.
<mgrwt>
<rscale>  2 0.40581680E+03</rscale>
<asrwt>0</asrwt>
<pdfrwt beam="1">  1       21 0.10611509E+00 0.40581680E+03</pdfrwt>
<pdfrwt beam="2">  1       21 0.49684286E-01 0.40581680E+03</pdfrwt>
<totfact> 0.24200715E+03</totfact>
</mgrwt>
</event>
<event>
 4    1  0.4857079E-002  0.6254737E+03  0.7818608E-02  0.9853922E-01
         21   -1    0    0  501  502  0.00000000000E+00  0.00000000000E+00  0.73086700478E+03  0.73086700478E+03  0.00000000000E+00 0.  1.
         21   -1    0    0  502  503 -0.00000000000E+00 -0.00000000000E+00 -0.70831317420E+03  0.70831317420E+03  0.00000000000E+00 0. -1.
    9000005    1    1    2  501    0 -0.42238821375E+03  0.22979463014E+03  0.36694026614E+03  0.72516379810E+03  0.40000000000E+03 0.  1.
   -9000005    1    1    2    0  503  0.42238821375E+03 -0.22979463014E+03 -0.34438643557E+03  0.71401638087E+03  0.40000000000E+03 0. -1.
<mgrwt>
<rscale>  2 0.62547372E+03</rscale>
<asrwt>0</asrwt>
<pdfrwt beam="1">  1       21 0.11244108E+00 0.62547372E+03</pdfrwt>
<pdfrwt beam="2">  1       21 0.10897126E+00 0.62547372E+03</pdfrwt>
<totfact> 0.31994449E+02</totfact>
</mgrwt>
</event>
<event>
 4    1  0.4857079E-002  0.4194335E+03  0.7818608E-02  0.1037251E+00
         21   -1    0    0  501  502  0.00000000000E+00  0.00000000000E+00  0.51839359785E+03  0.51839359785E+03  0.00000000000E+00 0. -1.
         21   -1    0    0  502  503 -0.00000000000E+00 -0.00000000000E+00 -0.42566333883E+03  0.42566333883E+03  0.00000000000E+00 0. -1.
    9000005    1    1    2  501    0 -0.10178910496E+03  0.74588311861E+02  0.25890346854E+03  0.49290510667E+03  0.40000000000E+03 0. -1.
   -9000005    1    1    2    0  503  0.10178910496E+03 -0.74588311861E+02 -0.16617320952E+03  0.45115183001E+03  0.40000000000E+03 0. -1.
<mgrwt>
<rscale>  2 0.41943347E+03</rscale>
<asrwt>0</asrwt>
<pdfrwt beam="1">  1       21 0.79752862E-01 0.41943347E+03</pdfrwt>
<pdfrwt beam="2">  1       21 0.65486667E-01 0.41943347E+03</pdfrwt>
<totfact> 0.26076799E+03</totfact>
</mgrwt>
</event>
<event>
 4    1  0.4857079E-002  0.4864887E+03  0.7818608E-02  0.1017367E+00
         21   -1    0    0  503  502  0.00000000000E+00  0.00000000000E+00  0.15948560178E+04  0.15948560178E+04  0.00000000000E+00 0.  1.
         21   -1    0    0  501  503 -0.00000000000E+00 -0.00000000000E+00 -0.17363124413E+03  0.17363124413E+03  0.00000000000E+00 0. -1.
    9000005    1    1    2  501    0  0.25543854203E+03 -0.10687559997E+03  0.37351419663E+03  0.61333848543E+03  0.40000000000E+03 0. -1.
   -9000005    1    1    2    0  502 -0.25543854203E+03  0.10687559997E+03  0.10477105771E+04  0.11551487765E+04  0.40000000000E+03 0.  1.
<mgrwt>
<rscale>  2 0.48648869E+03</rscale>
<asrwt>0</asrwt>
<pdfrwt beam="1">  1       21 0.24536245E+00 0.48648869E+03</pdfrwt>
<pdfrwt beam="2">  1       21 0.26712500E-01 0.48648869E+03</pdfrwt>
<totfact> 0.75973916E+02</totfact>
</mgrwt>
</event>
<event>
 4    1  0.4857079E-002  0.6115074E+03  0.7818608E-02  0.9881815E-01
         21   -1    0    0  501  502  0.00000000000E+00  0.00000000000E+00  0.86968940020E+03  0.86968940020E+03  0.00000000000E+00 0. -1.
         21   -1    0    0  502  503 -0.00000000000E+00 -0.00000000000E+00 -0.10535023955E+04  0.10535023955E+04  0.00000000000E+00 0.  1.
    9000005    1    1    2  501    0 -0.28765905356E+03  0.36220661196E+03  0.64787581746E+03  0.89088968772E+03  0.40000000000E+03 0. -1.
   -9000005    1    1    2    0  503  0.28765905356E+03 -0.36220661196E+03 -0.83168881274E+03  0.10323021079E+04  0.40000000000E+03 0.  1.
<mgrwt>
<rscale>  2 0.61150745E+03</rscale>
<asrwt>0</asrwt>
<pdfrwt beam="1">  1       21 0.13379837E+00 0.61150745E+03</pdfrwt>
<pdfrwt beam="2">  1       21 0.16207729E+00 0.61150745E+03</pdfrwt>
<totfact> 0.71837788E+01</totfact>
</mgrwt>
</event>
<event>
 4    1  0.4857079E-002  0.4311282E+03  0.7818608E-02  0.1033504E+00
         21   -1    0    0  501  502  0.00000000000E+00  0.00000000000E+00  0.11888055474E+03  0.11888055474E+03  0.00000000000E+00 0. -1.
         21   -1    0    0  502  503 -0.00000000000E+00 -0.00000000000E+00 -0.16186413983E+04  0.16186413983E+04  0.00000000000E+00 0. -1.
    9000005    1    1    2  501    0 -0.16083480116E+03 -0.19106683290E+01 -0.58955354324E+03  0.73037309936E+03  0.40000000000E+03 0. -1.
   -9000005    1    1    2    0  503  0.16083480116E+03  0.19106683290E+01 -0.91020730034E+03  0.10071488537E+04  0.40000000000E+03 0. -1.
<mgrwt>
<rscale>  2 0.43112815E+03</rscale>
<asrwt>0</asrwt>
<pdfrwt beam="1">  1       21 0.18289315E-01 0.43112815E+03</pdfrwt>
<pdfrwt beam="2">  1       21 0.24902177E+00 0.43112815E+03</pdfrwt>
<totfact> 0.15351301E+03</totfact>
</mgrwt>
</event>
<event>
 4    1  0.4857079E-002  0.4015660E+03  0.7818608E-02  0.1043239E+00
         21   -1    0    0  501  502  0.00000000000E+00  0.00000000000E+00  0.35838435920E+03  0.35838435920E+03  0.00000000000E+00 0. -1.
         21   -1    0    0  502  503 -0.00000000000E+00 -0.00000000000E+00 -0.51458341121E+03  0.51458341121E+03  0.00000000000E+00 0. -1.
    9000005    1    1    2  501    0  0.10075126147E+02 -0.33966880924E+02  0.76592115961E+02  0.40880509952E+03  0.40000000000E+03 0. -1.
   -9000005    1    1    2    0  503 -0.10075126147E+02  0.33966880924E+02 -0.23279116796E+03  0.46416267089E+03  0.40000000000E+03 0. -1.
<mgrwt>
<rscale>  2 0.40156601E+03</rscale>
<asrwt>0</asrwt>
<pdfrwt beam="1">  1       21 0.55136056E-01 0.40156601E+03</pdfrwt>
<pdfrwt beam="2">  1       21 0.79166678E-01 0.40156601E+03</pdfrwt>
<totfact> 0.38913202E+03</totfact>
</mgrwt>
</event>
<event>
 4    1  0.4857079E-002  0.6557424E+03  0.7818608E-02  0.9796063E-01
         21   -1    0    0  503  502  0.00000000000E+00  0.00000000000E+00  0.58294680235E+03  0.58294680235E+03  0.00000000000E+00 0.  1.
         21   -1    0    0  501  503 -0.00000000000E+00 -0.00000000000E+00 -0.85775869294E+03  0.85775869294E+03  0.00000000000E+00 0.  1.
    9000005    1    1    2  501    0 -0.26067224655E+03  0.44949764844E+03 -0.40698664747E+03  0.77177476462E+03  0.40000000000E+03 0.  1.
   -9000005    1    1    2    0  502  0.26067224655E+03 -0.44949764844E+03  0.13217475688E+03  0.66893073067E+03  0.40000000000E+03 0.  1.
<mgrwt>
<rscale>  2 0.65574245E+03</rscale>
<asrwt>0</asrwt>
<pdfrwt beam="1">  1       21 0.89684123E-01 0.65574245E+03</pdfrwt>
<pdfrwt beam="2">  1       21 0.13196288E+00 0.65574245E+03</pdfrwt>
<totfact> 0.33777598E+02</totfact>
</mgrwt>
</event>
<event>
 4    1  0.4857079E-002  0.4445076E+03  0.7818608E-02  0.1029373E+00
         21   -1    0    0  501  502  0.00000000000E+00  0.00000000000E+00  0.43470687146E+03  0.43470687146E+03  0.00000000000E+00 0.  1.
         21   -1    0    0  502  503 -0.00000000000E+00 -0.00000000000E+00 -0.45456489547E+03  0.45456489547E+03  0.00000000000E+00 0.  1.
    9000005    1    1    2  501    0 -0.84961730313E+02 -0.17426570106E+03 -0.13861073682E+02  0.44472368899E+03  0.40000000000E+03 0.  1.
   -9000005    1    1    2    0  503  0.84961730313E+02  0.17426570106E+03 -0.59969503308E+01  0.44454807794E+03  0.40000000000E+03 0.  1.
<mgrwt>
<rscale>  2 0.44450763E+03</rscale>
<asrwt>0</asrwt>
<pdfrwt beam="1">  1       21 0.66877980E-01 0.44450763E+03</pdfrwt>
<pdfrwt beam="2">  1       21 0.69933061E-01 0.44450763E+03</pdfrwt>
<totfact> 0.33255100E+03</totfact>
</mgrwt>
</event>
<event>
 4    1  0.4857079E-002  0.5236889E+03  0.7818608E-02  0.1007774E+00
         21   -1    0    0  501  502  0.00000000000E+00  0.00000000000E+00  0.79591386062E+03  0.79591386062E+03  0.00000000000E+00 0. -1.
         21   -1    0    0  502  503 -0.00000000000E+00 -0.00000000000E+00 -0.70485064702E+03  0.70485064702E+03  0.00000000000E+00 0.  1.
    9000005    1    1    2  501    0 -0.98063305236E+02  0.32347119308E+03  0.58201090335E+03  0.78293468195E+03  0.40000000000E+03 0. -1.
   -9000005    1    1    2    0  503  0.98063305236E+02 -0.32347119308E+03 -0.49094768974E+03  0.71782982569E+03  0.40000000000E+03 0.  1.
<mgrwt>
<rscale>  2 0.52368886E+03</rscale>
<asrwt>0</asrwt>
<pdfrwt beam="1">  1       21 0.12244829E+00 0.52368886E+03</pdfrwt>
<pdfrwt beam="2">  1       21 0.10843856E+00 0.52368886E+03</pdfrwt>
<totfact> 0.27090900E+02</totfact>
</mgrwt>
</event>
<event>
 4    1  0.4857079E-002  0.4801020E+03  0.7818608E-02  0.1019107E+00
         21   -1    0    0  501  502  0.00000000000E+00  0.00000000000E+00  0.47638053172E+03  0.47638053172E+03  0.00000000000E+00 0. -1.
         21   -1    0    0  502  503 -0.00000000000E+00 -0.00000000000E+00 -0.73247336661E+03  0.73247336661E+03  0.00000000000E+00 0. -1.
    9000005    1    1    2  501    0  0.22687683184E+03  0.13793062523E+03  0.22409459607E+03  0.52982670959E+03  0.40000000000E+03 0. -1.
   -9000005    1    1    2    0  503 -0.22687683184E+03 -0.13793062523E+03 -0.48018743095E+03  0.67902718874E+03  0.40000000000E+03 0. -1.
<mgrwt>
<rscale>  2 0.48010202E+03</rscale>
<asrwt>0</asrwt>
<pdfrwt beam="1">  1       21 0.73289312E-01 0.48010202E+03</pdfrwt>
<pdfrwt beam="2">  1       21 0.11268821E+00 0.48010202E+03</pdfrwt>
<totfact> 0.86243848E+02</totfact>
</mgrwt>
</event>
<event>
 4    1  0.4857079E-002  0.4730944E+03  0.7818608E-02  0.1021050E+00
         21   -1    0    0  501  502  0.00000000000E+00  0.00000000000E+00  0.61243802133E+03  0.61243802133E+03  0.00000000000E+00 0.  1.
         21   -1    0    0  502  503 -0.00000000000E+00 -0.00000000000E+00 -0.36722992665E+03  0.36722992665E+03  0.00000000000E+00 0. -1.
    9000005    1    1    2  501    0 -0.14128218826E+03  0.20942228463E+03  0.88546964859E+02  0.48130958333E+03  0.40000000000E+03 0.  1.
   -9000005    1    1    2    0  503  0.14128218826E+03 -0.20942228463E+03  0.15666112981E+03  0.49835836465E+03  0.40000000000E+03 0. -1.
<mgrwt>
<rscale>  2 0.47309444E+03</rscale>
<asrwt>0</asrwt>
<pdfrwt beam="1">  1       21 0.94221234E-01 0.47309444E+03</pdfrwt>
<pdfrwt beam="2">  1       21 0.56496912E-01 0.47309444E+03</pdfrwt>
<totfact> 0.23902609E+03</totfact>
</mgrwt>
</event>
<event>
 4    1  0.4857079E-002  0.5742041E+03  0.7818608E-02  0.9960419E-01
         21   -1    0    0  501  502  0.00000000000E+00  0.00000000000E+00  0.33356247961E+03  0.33356247961E+03  0.00000000000E+00 0. -1.
         21   -1    0    0  502  503 -0.00000000000E+00 -0.00000000000E+00 -0.10687886051E+04  0.10687886051E+04  0.00000000000E+00 0.  1.
    9000005    1    1    2  501    0 -0.36530867174E+03 -0.19042027245E+03 -0.17537509631E+03  0.60038881586E+03  0.40000000000E+03 0. -1.
   -9000005    1    1    2    0  503  0.36530867174E+03  0.19042027245E+03 -0.55985102922E+03  0.80196226889E+03  0.40000000000E+03 0.  1.
<mgrwt>
<rscale>  2 0.57420406E+03</rscale>
<asrwt>0</asrwt>
<pdfrwt beam="1">  1       21 0.51317304E-01 0.57420406E+03</pdfrwt>
<pdfrwt beam="2">  1       21 0.16442902E+00 0.57420406E+03</pdfrwt>
<totfact> 0.67148969E+02</totfact>
</mgrwt>
</event>
<event>
 4    1  0.4857079E-002  0.4177678E+03  0.7818608E-02  0.1037795E+00
         21   -1    0    0  501  502  0.00000000000E+00  0.00000000000E+00  0.43139757161E+03  0.43139757161E+03  0.00000000000E+00 0. -1.
         21   -1    0    0  502  503 -0.00000000000E+00 -0.00000000000E+00 -0.41783070504E+03  0.41783070504E+03  0.00000000000E+00 0. -1.
    9000005    1    1    2  501    0 -0.81095266471E+02 -0.89182498395E+02 -0.68864777248E+02  0.42340561854E+03  0.40000000000E+03 0.  1.
   -9000005    1    1    2    0  503  0.81095266471E+02  0.89182498395E+02  0.82431643819E+02  0.42582265812E+03  0.40000000000E+03 0.  1.
<mgrwt>
<rscale>  2 0.41776783E+03</rscale>
<asrwt>0</asrwt>
<pdfrwt beam="1">  1       21 0.66368857E-01 0.41776783E+03</pdfrwt>
<pdfrwt beam="2">  1       21 0.64281647E-01 0.41776783E+03</pdfrwt>
<totfact> 0.41219255E+03</totfact>
</mgrwt>
</event>
<event>
 4    1  0.4857079E-002  0.5778630E+03  0.7818608E-02  0.9952428E-01
         21   -1    0    0  503  502  0.00000000000E+00  0.00000000000E+00  0.11162052103E+04  0.11162052103E+04  0.00000000000E+00 0. -1.
         21   -1    0    0  501  503 -0.00000000000E+00 -0.00000000000E+00 -0.39994118938E+03  0.39994118938E+03  0.00000000000E+00 0. -1.
    9000005    1    1    2  501    0  0.34455408274E+03  0.23496414248E+03 -0.22407283871E+02  0.57829728562E+03  0.40000000000E+03 0. -1.
   -9000005    1    1    2    0  502 -0.34455408274E+03 -0.23496414248E+03  0.73867130475E+03  0.93784911401E+03  0.40000000000E+03 0. -1.
<mgrwt>
<rscale>  2 0.57786302E+03</rscale>
<asrwt>0</asrwt>
<pdfrwt beam="1">  1       21 0.17172388E+00 0.57786302E+03</pdfrwt>
<pdfrwt beam="2">  1       21 0.61529414E-01 0.57786302E+03</pdfrwt>
<totfact> 0.39882973E+02</totfact>
</mgrwt>
</event>
<event>
 4    1  0.4857079E-002  0.4124564E+03  0.7818608E-02  0.1039550E+00
         21   -1    0    0  501  502  0.00000000000E+00  0.00000000000E+00  0.15755939087E+03  0.15755939087E+03  0.00000000000E+00 0.  1.
         21   -1    0    0  502  503 -0.00000000000E+00 -0.00000000000E+00 -0.33502345304E+04  0.33502345304E+04  0.00000000000E+00 0.  1.
    9000005    1    1    2  501    0 -0.78303546017E+02  0.63157460400E+02 -0.15246641509E+03  0.43973437193E+03  0.40000000000E+03 0.  1.
   -9000005    1    1    2    0  503  0.78303546017E+02 -0.63157460400E+02 -0.30402087244E+04  0.30680595493E+04  0.40000000000E+03 0.  1.
<mgrwt>
<rscale>  2 0.41245643E+03</rscale>
<asrwt>0</asrwt>
<pdfrwt beam="1">  1       21 0.24239908E-01 0.41245643E+03</pdfrwt>
<pdfrwt beam="2">  1       21 0.51542067E+00 0.41245643E+03</pdfrwt>
<totfact> 0.17719516E+01</totfact>
</mgrwt>
</event>
<event>
 4    1  0.4857079E-002  0.7239052E+03  0.7818608E-02  0.9677202E-01
         21   -1    0    0  503  502  0.00000000000E+00  0.00000000000E+00  0.15369199200E+04  0.15369199200E+04  0.00000000000E+00 0.  1.
         21   -1    0    0  501  503 -0.00000000000E+00 -0.00000000000E+00 -0.43010206654E+03  0.43010206654E+03  0.00000000000E+00 0. -1.
    9000005    1    1    2  501    0 -0.39799821100E+03 -0.45347126671E+03  0.10011408713E+04  0.12354439728E+04  0.40000000000E+03 0.  1.
   -9000005    1    1    2    0  502  0.39799821100E+03  0.45347126671E+03  0.10567698220E+03  0.73157801379E+03  0.40000000000E+03 0. -1.
<mgrwt>
<rscale>  2 0.72390522E+03</rscale>
<asrwt>0</asrwt>
<pdfrwt beam="1">  1       21 0.23644922E+00 0.72390522E+03</pdfrwt>
<pdfrwt beam="2">  1       21 0.66169549E-01 0.72390522E+03</pdfrwt>
<totfact> 0.11767612E+02</totfact>
</mgrwt>
</event>
<event>
 4    1  0.4857079E-002  0.4047678E+03  0.7818608E-02  0.1042141E+00
         21   -1    0    0  501  502  0.00000000000E+00  0.00000000000E+00  0.40506747202E+03  0.40506747202E+03  0.00000000000E+00 0. -1.
         21   -1    0    0  502  503 -0.00000000000E+00 -0.00000000000E+00 -0.46973726235E+03  0.46973726235E+03  0.00000000000E+00 0. -1.
    9000005    1    1    2  501    0 -0.54426723722E+02  0.29575971092E+02  0.13070974595E+03  0.42534931998E+03  0.40000000000E+03 0. -1.
   -9000005    1    1    2    0  503  0.54426723722E+02 -0.29575971092E+02 -0.19537953628E+03  0.44945541438E+03  0.40000000000E+03 0. -1.
<mgrwt>
<rscale>  2 0.40476784E+03</rscale>
<asrwt>0</asrwt>
<pdfrwt beam="1">  1       21 0.62318073E-01 0.40476784E+03</pdfrwt>
<pdfrwt beam="2">  1       21 0.72267271E-01 0.40476784E+03</pdfrwt>
<totfact> 0.36645041E+03</totfact>
</mgrwt>
</event>
<event>
 4    1  0.4857079E-002  0.5694760E+03  0.7818608E-02  0.9970839E-01
         21   -1    0    0  501  502  0.00000000000E+00  0.00000000000E+00  0.16037758777E+04  0.16037758777E+04  0.00000000000E+00 0. -1.
         21   -1    0    0  502  503 -0.00000000000E+00 -0.00000000000E+00 -0.38948622463E+03  0.38948622463E+03  0.00000000000E+00 0. -1.
    9000005    1    1    2  501    0 -0.34297499799E+03  0.21603474841E+03  0.12982231482E+04  0.14176340164E+04  0.40000000000E+03 0. -1.
   -9000005    1    1    2    0  503  0.34297499799E+03 -0.21603474841E+03 -0.83933495146E+02  0.57562808598E+03  0.40000000000E+03 0. -1.
<mgrwt>
<rscale>  2 0.56947595E+03</rscale>
<asrwt>0</asrwt>
<pdfrwt beam="1">  1       21 0.24673475E+00 0.56947595E+03</pdfrwt>
<pdfrwt beam="2">  1       21 0.59920959E-01 0.56947595E+03</pdfrwt>
<totfact> 0.13445760E+02</totfact>
</mgrwt>
</event>
<event>
 4    1  0.4857079E-002  0.5135171E+03  0.7818608E-02  0.1010310E+00
         21   -1    0    0  501  502  0.00000000000E+00  0.00000000000E+00  0.16702415406E+04  0.16702415406E+04  0.00000000000E+00 0. -1.
         21   -1    0    0  502  503 -0.00000000000E+00 -0.00000000000E+00 -0.15792590212E+03  0.15792590212E+03  0.00000000000E+00 0. -1.
    9000005    1    1    2  501    0 -0.32011923953E+03  0.34977866911E+02  0.77153253410E+03  0.92680215250E+03  0.40000000000E+03 0. -1.
   -9000005    1    1    2    0  503  0.32011923953E+03 -0.34977866911E+02  0.74078310438E+03  0.90136529023E+03  0.40000000000E+03 0. -1.
<mgrwt>
<rscale>  2 0.51351707E+03</rscale>
<asrwt>0</asrwt>
<pdfrwt beam="1">  1       21 0.25696022E+00 0.51351707E+03</pdfrwt>
<pdfrwt beam="2">  1       21 0.24296294E-01 0.51351707E+03</pdfrwt>
<totfact> 0.76608774E+02</totfact>
</mgrwt>
</event>
<event>
 4    1  0.4857079E-002  0.4566335E+03  0.7818608E-02  0.1025762E+00
         21   -1    0    0  503  502  0.00000000000E+00  0.00000000000E+00  0.13399073356E+04  0.13399073356E+04  0.00000000000E+00 0.  1.
         21   -1    0    0  501  503 -0.00000000000E+00 -0.00000000000E+00 -0.16054873000E+03  0.16054873000E+03  0.00000000000E+00 0.  1.
    9000005    1    1    2  501    0  0.16170771334E+03  0.14954865367E+03  0.72115017169E+03  0.85356414785E+03  0.40000000000E+03 0.  1.
   -9000005    1    1    2    0  502 -0.16170771334E+03 -0.14954865367E+03  0.45820843394E+03  0.64689191779E+03  0.40000000000E+03 0.  1.
<mgrwt>
<rscale>  2 0.45663353E+03</rscale>
<asrwt>0</asrwt>
<pdfrwt beam="1">  1       21 0.20613958E+00 0.45663353E+03</pdfrwt>
<pdfrwt beam="2">  1       21 0.24699806E-01 0.45663353E+03</pdfrwt>
<totfact> 0.15939232E+03</totfact>
</mgrwt>
</event>
<event>
 4    1  0.4857079E-002  0.4390929E+03  0.7818608E-02  0.1031025E+00
         21   -1    0    0  501  502  0.00000000000E+00  0.00000000000E+00  0.43629110312E+03  0.43629110312E+03  0.00000000000E+00 0. -1.
         21   -1    0    0  502  503 -0.00000000000E+00 -0.00000000000E+00 -0.46550368611E+03  0.46550368611E+03  0.00000000000E+00 0.  1.
    9000005    1    1    2  501    0 -0.63830743325E+02  0.16949392555E+03 -0.11611182865E+03  0.45418554726E+03  0.40000000000E+03 0.  1.
   -9000005    1    1    2    0  503  0.63830743325E+02 -0.16949392555E+03  0.86899245661E+02  0.44760924196E+03  0.40000000000E+03 0. -1.
<mgrwt>
<rscale>  2 0.43909288E+03</rscale>
<asrwt>0</asrwt>
<pdfrwt beam="1">  1       21 0.67121708E-01 0.43909288E+03</pdfrwt>
<pdfrwt beam="2">  1       21 0.71615951E-01 0.43909288E+03</pdfrwt>
<totfact> 0.31323802E+03</totfact>
</mgrwt>
</event>
<event>
 4    1  0.4857079E-002  0.4030235E+03  0.7818608E-02  0.1042738E+00
         21   -1    0    0  503  502  0.00000000000E+00  0.00000000000E+00  0.31675734296E+04  0.31675734296E+04  0.00000000000E+00 0. -1.
         21   -1    0    0  501  503 -0.00000000000E+00 -0.00000000000E+00 -0.10900727990E+03  0.10900727990E+03  0.00000000000E+00 0. -1.
    9000005    1    1    2  501    0  0.14450149064E+02 -0.47107903524E+02  0.33705361203E+03  0.52538852173E+03  0.40000000000E+03 0. -1.
   -9000005    1    1    2    0  502 -0.14450149064E+02  0.47107903524E+02  0.27215125377E+04  0.27511921878E+04  0.40000000000E+03 0. -1.
<mgrwt>
<rscale>  2 0.40302352E+03</rscale>
<asrwt>0</asrwt>
<pdfrwt beam="1">  1       21 0.48731892E+00 0.40302352E+03</pdfrwt>
<pdfrwt beam="2">  1       21 0.16770353E-01 0.40302352E+03</pdfrwt>
<totfact> 0.57118555E+01</totfact>
</mgrwt>
</event>
<event>
 4    1  0.4857079E-002  0.4339956E+03  0.7818608E-02  0.1032605E+00
         21   -1    0    0  501  502  0.00000000000E+00  0.00000000000E+00  0.13039123508E+04  0.13039123508E+04  0.00000000000E+00 0.  1.
         21   -1    0    0  502  503 -0.00000000000E+00 -0.00000000000E+00 -0.15555607331E+03  0.15555607331E+03  0.00000000000E+00 0.  1.
    9000005    1    1    2  501    0 -0.13613260422E+03 -0.99096468254E+02  0.76914941960E+03  0.88314383065E+03  0.40000000000E+03 0. -1.
   -9000005    1    1    2    0  503  0.13613260422E+03  0.99096468254E+02  0.37920685791E+03  0.57632459347E+03  0.40000000000E+03 0. -1.
<mgrwt>
<rscale>  2 0.43399562E+03</rscale>
<asrwt>0</asrwt>
<pdfrwt beam="1">  1       21 0.20060189E+00 0.43399562E+03</pdfrwt>
<pdfrwt beam="2">  1       21 0.23931704E-01 0.43399562E+03</pdfrwt>
<totfact> 0.18622151E+03</totfact>
</mgrwt>
</event>
<event>
 4    1  0.4857079E-002  0.5718823E+03  0.7818608E-02  0.9965522E-01
         21   -1    0    0  501  502  0.00000000000E+00  0.00000000000E+00  0.55129002758E+03  0.55129002758E+03  0.00000000000E+00 0. -1.
         21   -1    0    0  502  503 -0.00000000000E+00 -0.00000000000E+00 -0.66449876804E+03  0.66449876804E+03  0.00000000000E+00 0. -1.
    9000005    1    1    2  501    0 -0.30007024823E+03 -0.27750175128E+03  0.14245778822E+03  0.58935863213E+03  0.40000000000E+03 0. -1.
   -9000005    1    1    2    0  503  0.30007024823E+03  0.27750175128E+03 -0.25566652868E+03  0.62643016349E+03  0.40000000000E+03 0. -1.
<mgrwt>
<rscale>  2 0.57188231E+03</rscale>
<asrwt>0</asrwt>
<pdfrwt beam="1">  1       21 0.84813851E-01 0.57188231E+03</pdfrwt>
<pdfrwt beam="2">  1       21 0.10223058E+00 0.57188231E+03</pdfrwt>
<totfact> 0.75797388E+02</totfact>
</mgrwt>
</event>
<event>
 4    1  0.4857079E-002  0.4525614E+03  0.7818608E-02  0.1026961E+00
         21   -1    0    0  501  502  0.00000000000E+00  0.00000000000E+00  0.61997971381E+03  0.61997971381E+03  0.00000000000E+00 0. -1.
         21   -1    0    0  502  503 -0.00000000000E+00 -0.00000000000E+00 -0.36092787580E+03  0.36092787580E+03  0.00000000000E+00 0. -1.
    9000005    1    1    2  501    0  0.76416000953E+02  0.19741428730E+03  0.27227531311E+03  0.52815305752E+03  0.40000000000E+03 0. -1.
   -9000005    1    1    2    0  503 -0.76416000953E+02 -0.19741428730E+03 -0.13223475109E+02  0.45275453209E+03  0.40000000000E+03 0. -1.
<mgrwt>
<rscale>  2 0.45256138E+03</rscale>
<asrwt>0</asrwt>
<pdfrwt beam="1">  1       21 0.95381494E-01 0.45256138E+03</pdfrwt>
<pdfrwt beam="2">  1       21 0.55527366E-01 0.45256138E+03</pdfrwt>
<totfact> 0.24276142E+03</totfact>
</mgrwt>
</event>
<event>
 4    1  0.4857079E-002  0.6511508E+03  0.7818608E-02  0.9804622E-01
         21   -1    0    0  501  502  0.00000000000E+00  0.00000000000E+00  0.15958417334E+04  0.15958417334E+04  0.00000000000E+00 0.  1.
         21   -1    0    0  502  503 -0.00000000000E+00 -0.00000000000E+00 -0.27633305996E+03  0.27633305996E+03  0.00000000000E+00 0. -1.
    9000005    1    1    2  501    0  0.27854475298E+03  0.43175242484E+03  0.84347454799E+03  0.10655733897E+04  0.40000000000E+03 0. -1.
   -9000005    1    1    2    0  503 -0.27854475298E+03 -0.43175242484E+03  0.47603412545E+03  0.80660140364E+03  0.40000000000E+03 0.  1.
<mgrwt>
<rscale>  2 0.65115078E+03</rscale>
<asrwt>0</asrwt>
<pdfrwt beam="1">  1       21 0.24551411E+00 0.65115078E+03</pdfrwt>
<pdfrwt beam="2">  1       21 0.42512779E-01 0.65115078E+03</pdfrwt>
<totfact> 0.27639857E+02</totfact>
</mgrwt>
</event>
<event>
 4    1  0.4857079E-002  0.4090592E+03  0.7818608E-02  0.1040687E+00
         21   -1    0    0  501  502  0.00000000000E+00  0.00000000000E+00  0.91217023891E+03  0.91217023891E+03  0.00000000000E+00 0. -1.
         21   -1    0    0  502  503 -0.00000000000E+00 -0.00000000000E+00 -0.30791974366E+03  0.30791974366E+03  0.00000000000E+00 0. -1.
    9000005    1    1    2  501    0  0.85605917637E+02  0.10398278473E+01  0.68999921418E+03  0.80213986931E+03  0.40000000000E+03 0. -1.
   -9000005    1    1    2    0  503 -0.85605917637E+02 -0.10398278473E+01 -0.85748718932E+02  0.41795011326E+03  0.40000000000E+03 0. -1.
<mgrwt>
<rscale>  2 0.40905923E+03</rscale>
<asrwt>0</asrwt>
<pdfrwt beam="1">  1       21 0.14033388E+00 0.40905923E+03</pdfrwt>
<pdfrwt beam="2">  1       21 0.47372269E-01 0.40905923E+03</pdfrwt>
<totfact> 0.13121393E+03</totfact>
</mgrwt>
</event>
<event>
 4    1  0.4857079E-002  0.4084734E+03  0.7818608E-02  0.1040884E+00
         21   -1    0    0  501  502  0.00000000000E+00  0.00000000000E+00  0.33846440820E+03  0.33846440820E+03  0.00000000000E+00 0. -1.
         21   -1    0    0  502  503 -0.00000000000E+00 -0.00000000000E+00 -0.54329954529E+03  0.54329954529E+03  0.00000000000E+00 0. -1.
    9000005    1    1    2  501    0  0.73938047183E+02  0.37198444566E+02  0.31779408387E+02  0.40970781039E+03  0.40000000000E+03 0. -1.
   -9000005    1    1    2    0  503 -0.73938047183E+02 -0.37198444566E+02 -0.23661454548E+03  0.47205614309E+03  0.40000000000E+03 0. -1.
<mgrwt>
<rscale>  2 0.40847345E+03</rscale>
<asrwt>0</asrwt>
<pdfrwt beam="1">  1       21 0.52071447E-01 0.40847345E+03</pdfrwt>
<pdfrwt beam="2">  1       21 0.83584545E-01 0.40847345E+03</pdfrwt>
<totfact> 0.38696911E+03</totfact>
</mgrwt>
</event>
<event>
 4    1  0.4857079E-002  0.4969181E+03  0.7818608E-02  0.1014586E+00
         21   -1    0    0  503  502  0.00000000000E+00  0.00000000000E+00  0.16972728679E+03  0.16972728679E+03  0.00000000000E+00 0. -1.
         21   -1    0    0  501  503 -0.00000000000E+00 -0.00000000000E+00 -0.14548510977E+04  0.14548510977E+04  0.00000000000E+00 0. -1.
    9000005    1    1    2  501    0  0.22645042489E+02  0.29396399680E+03 -0.64345742657E+03  0.81299759482E+03  0.40000000000E+03 0. -1.
   -9000005    1    1    2    0  502 -0.22645042489E+02 -0.29396399680E+03 -0.64166638434E+03  0.81158078966E+03  0.40000000000E+03 0. -1.
<mgrwt>
<rscale>  2 0.49691813E+03</rscale>
<asrwt>0</asrwt>
<pdfrwt beam="1">  1       21 0.26111889E-01 0.49691813E+03</pdfrwt>
<pdfrwt beam="2">  1       21 0.22382326E+00 0.49691813E+03</pdfrwt>
<totfact> 0.10795842E+03</totfact>
</mgrwt>
</event>
<event>
 4    1  0.4857079E-002  0.5132856E+03  0.7818608E-02  0.1010368E+00
         21   -1    0    0  503  502  0.00000000000E+00  0.00000000000E+00  0.79340632863E+03  0.79340632863E+03  0.00000000000E+00 0. -1.
         21   -1    0    0  501  503 -0.00000000000E+00 -0.00000000000E+00 -0.38880992504E+03  0.38880992504E+03  0.00000000000E+00 0.  1.
    9000005    1    1    2  501    0  0.19917353050E+02  0.32103805461E+03  0.42811872416E+03  0.66839193250E+03  0.40000000000E+03 0.  1.
   -9000005    1    1    2    0  502 -0.19917353050E+02 -0.32103805461E+03 -0.23522320564E+02  0.51382432117E+03  0.40000000000E+03 0. -1.
<mgrwt>
<rscale>  2 0.51328563E+03</rscale>
<asrwt>0</asrwt>
<pdfrwt beam="1">  1       21 0.12206251E+00 0.51328563E+03</pdfrwt>
<pdfrwt beam="2">  1       21 0.59816911E-01 0.51328563E+03</pdfrwt>
<totfact> 0.10958806E+03</totfact>
</mgrwt>
</event>
<event>
 4    1  0.4857079E-002  0.5862720E+03  0.7818608E-02  0.9934304E-01
         21   -1    0    0  503  502  0.00000000000E+00  0.00000000000E+00  0.17794321251E+04  0.17794321251E+04  0.00000000000E+00 0. -1.
         21   -1    0    0  501  503 -0.00000000000E+00 -0.00000000000E+00 -0.41342992169E+03  0.41342992169E+03  0.00000000000E+00 0. -1.
    9000005    1    1    2  501    0  0.30505313293E+03  0.30109366823E+03 -0.11730868313E+03  0.59789308249E+03  0.40000000000E+03 0. -1.
   -9000005    1    1    2    0  502 -0.30505313293E+03 -0.30109366823E+03  0.14833108866E+04  0.15949689643E+04  0.40000000000E+03 0. -1.
<mgrwt>
<rscale>  2 0.58627196E+03</rscale>
<asrwt>0</asrwt>
<pdfrwt beam="1">  1       21 0.27375878E+00 0.58627196E+03</pdfrwt>
<pdfrwt beam="2">  1       21 0.63604605E-01 0.58627196E+03</pdfrwt>
<totfact> 0.79648069E+01</totfact>
</mgrwt>
</event>
<event>
 4    1  0.4857079E-002  0.4227285E+03  0.7818608E-02  0.1036182E+00
         21   -1    0    0  501  502  0.00000000000E+00  0.00000000000E+00  0.15499342140E+04  0.15499342140E+04  0.00000000000E+00 0. -1.
         21   -1    0    0  502  503 -0.00000000000E+00 -0.00000000000E+00 -0.14053186076E+03  0.14053186076E+03  0.00000000000E+00 0. -1.
    9000005    1    1    2  501    0  0.70824136459E+02  0.11697580804E+03  0.10628868530E+04  0.11438653156E+04  0.40000000000E+03 0. -1.
   -9000005    1    1    2    0  503 -0.70824136459E+02 -0.11697580804E+03  0.34651550019E+03  0.54660075909E+03  0.40000000000E+03 0. -1.
<mgrwt>
<rscale>  2 0.42272852E+03</rscale>
<asrwt>0</asrwt>
<pdfrwt beam="1">  1       21 0.23845141E+00 0.42272852E+03</pdfrwt>
<pdfrwt beam="2">  1       21 0.21620287E-01 0.42272852E+03</pdfrwt>
<totfact> 0.13033201E+03</totfact>
</mgrwt>
</event>
<event>
 4    1  0.4857079E-002  0.4164445E+03  0.7818608E-02  0.1038230E+00
         21   -1    0    0  503  502  0.00000000000E+00  0.00000000000E+00  0.29513874741E+03  0.29513874741E+03  0.00000000000E+00 0.  1.
         21   -1    0    0  501  503 -0.00000000000E+00 -0.00000000000E+00 -0.10647053349E+04  0.10647053349E+04  0.00000000000E+00 0.  1.
    9000005    1    1    2  501    0 -0.36497752817E+02 -0.10997251733E+03 -0.83992608303E+03  0.93749766158E+03  0.40000000000E+03 0.  1.
   -9000005    1    1    2    0  502  0.36497752817E+02  0.10997251733E+03  0.70359495500E+02  0.42234642077E+03  0.40000000000E+03 0.  1.
<mgrwt>
<rscale>  2 0.41644452E+03</rscale>
<asrwt>0</asrwt>
<pdfrwt beam="1">  1       21 0.45405961E-01 0.41644452E+03</pdfrwt>
<pdfrwt beam="2">  1       21 0.16380082E+00 0.41644452E+03</pdfrwt>
<totfact> 0.93822492E+02</totfact>
</mgrwt>
</event>
<event>
 4    1  0.4857079E-002  0.5734379E+03  0.7818608E-02  0.9962100E-01
         21   -1    0    0  503  502  0.00000000000E+00  0.00000000000E+00  0.11314940283E+04  0.11314940283E+04  0.00000000000E+00 0. -1.
         21   -1    0    0  501  503 -0.00000000000E+00 -0.00000000000E+00 -0.43699854411E+03  0.43699854411E+03  0.00000000000E+00 0.  1.
    9000005    1    1    2  501    0  0.99827694149E+02 -0.39857928168E+03 -0.10664803902E+03  0.58327079177E+03  0.40000000000E+03 0.  1.
   -9000005    1    1    2    0  502 -0.99827694149E+02  0.39857928168E+03  0.80114352325E+03  0.98522178069E+03  0.40000000000E+03 0. -1.
<mgrwt>
<rscale>  2 0.57343789E+03</rscale>
<asrwt>0</asrwt>
<pdfrwt beam="1">  1       21 0.17407600E+00 0.57343789E+03</pdfrwt>
<pdfrwt beam="2">  1       21 0.67230546E-01 0.57343789E+03</pdfrwt>
<totfact> 0.31519858E+02</totfact>
</mgrwt>
</event>
<event>
 4    1  0.4857079E-002  0.4343655E+03  0.7818608E-02  0.1032490E+00
         21   -1    0    0  501  502  0.00000000000E+00  0.00000000000E+00  0.10276823339E+04  0.10276823339E+04  0.00000000000E+00 0.  1.
         21   -1    0    0  502  503 -0.00000000000E+00 -0.00000000000E+00 -0.18929783427E+03  0.18929783427E+03  0.00000000000E+00 0.  1.
    9000005    1    1    2  501    0 -0.15657664773E+03  0.64475744738E+02  0.52484312423E+03  0.68127356717E+03  0.40000000000E+03 0.  1.
   -9000005    1    1    2    0  503  0.15657664773E+03 -0.64475744738E+02  0.31354137542E+03  0.53570660102E+03  0.40000000000E+03 0.  1.
<mgrwt>
<rscale>  2 0.43436548E+03</rscale>
<asrwt>0</asrwt>
<pdfrwt beam="1">  1       21 0.15810497E+00 0.43436548E+03</pdfrwt>
<pdfrwt beam="2">  1       21 0.29122744E-01 0.43436548E+03</pdfrwt>
<totfact> 0.25345085E+03</totfact>
</mgrwt>
</event>
<event>
 4    1  0.4857079E-002  0.4341296E+03  0.7818608E-02  0.1032563E+00
         21   -1    0    0  501  502  0.00000000000E+00  0.00000000000E+00  0.16011426526E+04  0.16011426526E+04  0.00000000000E+00 0. -1.
         21   -1    0    0  502  503 -0.00000000000E+00 -0.00000000000E+00 -0.21595738103E+03  0.21595738103E+03  0.00000000000E+00 0. -1.
    9000005    1    1    2  501    0  0.67828914924E+02 -0.15449190698E+03  0.13054057544E+04  0.13757008012E+04  0.40000000000E+03 0. -1.
   -9000005    1    1    2    0  503 -0.67828914924E+02  0.15449190698E+03  0.79779517248E+02  0.44139923243E+03  0.40000000000E+03 0. -1.
<mgrwt>
<rscale>  2 0.43412960E+03</rscale>
<asrwt>0</asrwt>
<pdfrwt beam="1">  1       21 0.24632963E+00 0.43412960E+03</pdfrwt>
<pdfrwt beam="2">  1       21 0.33224214E-01 0.43412960E+03</pdfrwt>
<totfact> 0.49895385E+02</totfact>
</mgrwt>
</event>
<event>
 4    1  0.4857079E-002  0.4650114E+03  0.7818608E-02  0.1023338E+00
         21   -1    0    0  501  502  0.00000000000E+00  0.00000000000E+00  0.41266787720E+03  0.41266787720E+03  0.00000000000E+00 0.  1.
         21   -1    0    0  502  503 -0.00000000000E+00 -0.00000000000E+00 -0.62039175118E+03  0.62039175118E+03  0.00000000000E+00 0.  1.
    9000005    1    1    2  501    0  0.13237428850E+03  0.19675526261E+03  0.99746291368E+02  0.47558901193E+03  0.40000000000E+03 0.  1.
   -9000005    1    1    2    0  503 -0.13237428850E+03 -0.19675526261E+03 -0.30747016535E+03  0.55747061645E+03  0.40000000000E+03 0.  1.
<mgrwt>
<rscale>  2 0.46501138E+03</rscale>
<asrwt>0</asrwt>
<pdfrwt beam="1">  1       21 0.63487366E-01 0.46501138E+03</pdfrwt>
<pdfrwt beam="2">  1       21 0.95444884E-01 0.46501138E+03</pdfrwt>
<totfact> 0.17995368E+03</totfact>
</mgrwt>
</event>
<event>
 4    1  0.4857079E-002  0.4394686E+03  0.7818608E-02  0.1030910E+00
         21   -1    0    0  501  502  0.00000000000E+00  0.00000000000E+00  0.38552028412E+03  0.38552028412E+03  0.00000000000E+00 0.  1.
         21   -1    0    0  502  503 -0.00000000000E+00 -0.00000000000E+00 -0.50452277177E+03  0.50452277177E+03  0.00000000000E+00 0.  1.
    9000005    1    1    2  501    0  0.10139463303E+03 -0.15116795210E+03 -0.22136838821E+02  0.44002575036E+03  0.40000000000E+03 0.  1.
   -9000005    1    1    2    0  503 -0.10139463303E+03  0.15116795210E+03 -0.96865648831E+02  0.45001730553E+03  0.40000000000E+03 0.  1.
<mgrwt>
<rscale>  2 0.43946857E+03</rscale>
<asrwt>0</asrwt>
<pdfrwt beam="1">  1       21 0.59310813E-01 0.43946857E+03</pdfrwt>
<pdfrwt beam="2">  1       21 0.77618888E-01 0.43946857E+03</pdfrwt>
<totfact> 0.34271187E+03</totfact>
</mgrwt>
</event>
<event>
 4    1  0.4857079E-002  0.4037245E+03  0.7818608E-02  0.1042498E+00
         21   -1    0    0  501  502  0.00000000000E+00  0.00000000000E+00  0.90594596682E+03  0.90594596682E+03  0.00000000000E+00 0.  1.
         21   -1    0    0  502  503 -0.00000000000E+00 -0.00000000000E+00 -0.22197699259E+03  0.22197699259E+03  0.00000000000E+00 0.  1.
    9000005    1    1    2  501    0  0.30039789851E+02  0.45727999741E+02  0.58747765521E+03  0.71282777324E+03  0.40000000000E+03 0.  1.
   -9000005    1    1    2    0  503 -0.30039789851E+02 -0.45727999741E+02  0.96491319013E+02  0.41509518617E+03  0.40000000000E+03 0.  1.
<mgrwt>
<rscale>  2 0.40372446E+03</rscale>
<asrwt>0</asrwt>
<pdfrwt beam="1">  1       21 0.13937630E+00 0.40372446E+03</pdfrwt>
<pdfrwt beam="2">  1       21 0.34150307E-01 0.40372446E+03</pdfrwt>
<totfact> 0.26265890E+03</totfact>
</mgrwt>
</event>
<event>
 4    1  0.4857079E-002  0.4350736E+03  0.7818608E-02  0.1032269E+00
         21   -1    0    0  501  502  0.00000000000E+00  0.00000000000E+00  0.99604868135E+03  0.99604868135E+03  0.00000000000E+00 0. -1.
         21   -1    0    0  502  503 -0.00000000000E+00 -0.00000000000E+00 -0.68660378518E+03  0.68660378518E+03  0.00000000000E+00 0. -1.
    9000005    1    1    2  501    0 -0.51797240302E+01  0.17106192098E+03  0.87020474275E+03  0.97290559905E+03  0.40000000000E+03 0. -1.
   -9000005    1    1    2    0  503  0.51797240302E+01 -0.17106192098E+03 -0.56075984658E+03  0.70974686747E+03  0.40000000000E+03 0. -1.
<mgrwt>
<rscale>  2 0.43507357E+03</rscale>
<asrwt>0</asrwt>
<pdfrwt beam="1">  1       21 0.15323826E+00 0.43507357E+03</pdfrwt>
<pdfrwt beam="2">  1       21 0.10563135E+00 0.43507357E+03</pdfrwt>
<totfact> 0.16656503E+02</totfact>
</mgrwt>
</event>
<event>
 4    1  0.4857079E-002  0.4412929E+03  0.7818608E-02  0.1030351E+00
         21   -1    0    0  501  502  0.00000000000E+00  0.00000000000E+00  0.64429611416E+03  0.64429611416E+03  0.00000000000E+00 0. -1.
         21   -1    0    0  502  503 -0.00000000000E+00 -0.00000000000E+00 -0.43261471810E+03  0.43261471810E+03  0.00000000000E+00 0. -1.
    9000005    1    1    2  501    0 -0.21180544758E+02 -0.18517780983E+03  0.40142183745E+03  0.59655588867E+03  0.40000000000E+03 0. -1.
   -9000005    1    1    2    0  503  0.21180544758E+02  0.18517780983E+03 -0.18974044140E+03  0.48035494359E+03  0.40000000000E+03 0. -1.
<mgrwt>
<rscale>  2 0.44129291E+03</rscale>
<asrwt>0</asrwt>
<pdfrwt beam="1">  1       21 0.99122479E-01 0.44129291E+03</pdfrwt>
<pdfrwt beam="2">  1       21 0.66556110E-01 0.44129291E+03</pdfrwt>
<totfact> 0.14927462E+03</totfact>
</mgrwt>
</event>
<event>
 4    1  0.4857079E-002  0.5591813E+03  0.7818608E-02  0.9993909E-01
         21   -1    0    0  503  502  0.00000000000E+00  0.00000000000E+00  0.74348178381E+03  0.74348178381E+03  0.00000000000E+00 0. -1.
         21   -1    0    0  501  503 -0.00000000000E+00 -0.00000000000E+00 -0.69061764175E+03  0.69061764175E+03  0.00000000000E+00 0.  1.
    9000005    1    1    2  501    0  0.39045458139E+03 -0.15130469521E+02 -0.42195517061E+03  0.70052114690E+03  0.40000000000E+03 0.  1.
   -9000005    1    1    2    0  502 -0.39045458139E+03  0.15130469521E+02  0.47481931267E+03  0.73357827867E+03  0.40000000000E+03 0. -1.
<mgrwt>
<rscale>  2 0.55918129E+03</rscale>
<asrwt>0</asrwt>
<pdfrwt beam="1">  1       21 0.11438181E+00 0.55918129E+03</pdfrwt>
<pdfrwt beam="2">  1       21 0.10624887E+00 0.55918129E+03</pdfrwt>
<totfact> 0.33415838E+02</totfact>
</mgrwt>
</event>
<event>
 4    1  0.4857079E-002  0.4649935E+03  0.7818608E-02  0.1023343E+00
         21   -1    0    0  503  502  0.00000000000E+00  0.00000000000E+00  0.19827025264E+03  0.19827025264E+03  0.00000000000E+00 0.  1.
         21   -1    0    0  501  503 -0.00000000000E+00 -0.00000000000E+00 -0.20696152919E+04  0.20696152919E+04  0.00000000000E+00 0.  1.
    9000005    1    1    2  501    0  0.71799457567E+02 -0.22597292538E+03 -0.17156057213E+04  0.17775044068E+04  0.40000000000E+03 0.  1.
   -9000005    1    1    2    0  502 -0.71799457567E+02  0.22597292538E+03 -0.15573931793E+03  0.49038113775E+03  0.40000000000E+03 0.  1.
<mgrwt>
<rscale>  2 0.46499347E+03</rscale>
<asrwt>0</asrwt>
<pdfrwt beam="1">  1       21 0.30503118E-01 0.46499347E+03</pdfrwt>
<pdfrwt beam="2">  1       21 0.31840233E+00 0.46499347E+03</pdfrwt>
<totfact> 0.21313270E+02</totfact>
</mgrwt>
</event>
<event>
 4    1  0.4857079E-002  0.4437827E+03  0.7818608E-02  0.1029592E+00
         21   -1    0    0  501  502  0.00000000000E+00  0.00000000000E+00  0.22655772504E+04  0.22655772504E+04  0.00000000000E+00 0.  1.
         21   -1    0    0  502  503 -0.00000000000E+00 -0.00000000000E+00 -0.23338775432E+03  0.23338775432E+03  0.00000000000E+00 0.  1.
    9000005    1    1    2  501    0 -0.16483778191E+03 -0.98851399807E+02  0.20058997541E+04  0.20544042731E+04  0.40000000000E+03 0.  1.
   -9000005    1    1    2    0  503  0.16483778191E+03  0.98851399807E+02  0.26289741950E+02  0.44456073165E+03  0.40000000000E+03 0.  1.
<mgrwt>
<rscale>  2 0.44378271E+03</rscale>
<asrwt>0</asrwt>
<pdfrwt beam="1">  1       21 0.34855033E+00 0.44378271E+03</pdfrwt>
<pdfrwt beam="2">  1       21 0.35905810E-01 0.44378271E+03</pdfrwt>
<totfact> 0.10208405E+02</totfact>
</mgrwt>
</event>
<event>
 4    1  0.4857079E-002  0.5141606E+03  0.7818608E-02  0.1010147E+00
         21   -1    0    0  501  502  0.00000000000E+00  0.00000000000E+00  0.67580770633E+03  0.67580770633E+03  0.00000000000E+00 0.  1.
         21   -1    0    0  502  503 -0.00000000000E+00 -0.00000000000E+00 -0.39416044684E+03  0.39416044684E+03  0.00000000000E+00 0.  1.
    9000005    1    1    2  501    0  0.10050720209E+03 -0.30701693316E+03  0.18735994435E+03  0.54723381078E+03  0.40000000000E+03 0.  1.
   -9000005    1    1    2    0  503 -0.10050720209E+03  0.30701693316E+03  0.94287315137E+02  0.52273434239E+03  0.40000000000E+03 0.  1.
<mgrwt>
<rscale>  2 0.51416057E+03</rscale>
<asrwt>0</asrwt>
<pdfrwt beam="1">  1       21 0.10397042E+00 0.51416057E+03</pdfrwt>
<pdfrwt beam="2">  1       21 0.60640069E-01 0.51416057E+03</pdfrwt>
<totfact> 0.15893411E+03</totfact>
</mgrwt>
</event>
<event>
 4    1  0.4857079E-002  0.4392002E+03  0.7818608E-02  0.1030992E+00
         21   -1    0    0  501  502  0.00000000000E+00  0.00000000000E+00  0.25199054116E+04  0.25199054116E+04  0.00000000000E+00 0. -1.
         21   -1    0    0  502  503 -0.00000000000E+00 -0.00000000000E+00 -0.94393341499E+02  0.94393341499E+02  0.00000000000E+00 0.  1.
    9000005    1    1    2  501    0 -0.17638407782E+03  0.42255325474E+02  0.17810876661E+04  0.18344400044E+04  0.40000000000E+03 0. -1.
   -9000005    1    1    2    0  503  0.17638407782E+03 -0.42255325474E+02  0.64442440400E+03  0.77985874869E+03  0.40000000000E+03 0.  1.
<mgrwt>
<rscale>  2 0.43920025E+03</rscale>
<asrwt>0</asrwt>
<pdfrwt beam="1">  1       21 0.38767770E+00 0.43920025E+03</pdfrwt>
<pdfrwt beam="2">  1       21 0.14522054E-01 0.43920025E+03</pdfrwt>
<totfact> 0.33580391E+02</totfact>
</mgrwt>
</event>
<event>
 4    1  0.4857079E-002  0.4131628E+03  0.7818608E-02  0.1039315E+00
         21   -1    0    0  501  502  0.00000000000E+00  0.00000000000E+00  0.57442487021E+03  0.57442487021E+03  0.00000000000E+00 0. -1.
         21   -1    0    0  502  503 -0.00000000000E+00 -0.00000000000E+00 -0.31746495597E+03  0.31746495597E+03  0.00000000000E+00 0. -1.
    9000005    1    1    2  501    0 -0.98100682959E+02 -0.32859855329E+02  0.24122466501E+03  0.47842747945E+03  0.40000000000E+03 0. -1.
   -9000005    1    1    2    0  503  0.98100682959E+02  0.32859855329E+02  0.15735249241E+02  0.41346234672E+03  0.40000000000E+03 0. -1.
<mgrwt>
<rscale>  2 0.41316282E+03</rscale>
<asrwt>0</asrwt>
<pdfrwt beam="1">  1       21 0.88373057E-01 0.41316282E+03</pdfrwt>
<pdfrwt beam="2">  1       21 0.48840763E-01 0.41316282E+03</pdfrwt>
<totfact> 0.38853355E+03</totfact>
</mgrwt>
</event>
<event>
 4    1  0.4857079E-002  0.6231933E+03  0.7818608E-02  0.9858422E-01
         21   -1    0    0  503  502  0.00000000000E+00  0.00000000000E+00  0.75041475493E+03  0.75041475493E+03  0.00000000000E+00 0.  1.
         21   -1    0    0  501  503 -0.00000000000E+00 -0.00000000000E+00 -0.55321949349E+03  0.55321949349E+03  0.00000000000E+00 0. -1.
    9000005    1    1    2  501    0  0.28011997799E+03  0.38717260879E+03 -0.66935496048E+02  0.62677762540E+03  0.40000000000E+03 0. -1.
   -9000005    1    1    2    0  502 -0.28011997799E+03 -0.38717260879E+03  0.26413075749E+03  0.67685662302E+03  0.40000000000E+03 0.  1.
<mgrwt>
<rscale>  2 0.62319325E+03</rscale>
<asrwt>0</asrwt>
<pdfrwt beam="1">  1       21 0.11544842E+00 0.62319325E+03</pdfrwt>
<pdfrwt beam="2">  1       21 0.85110692E-01 0.62319325E+03</pdfrwt>
<totfact> 0.54597191E+02</totfact>
</mgrwt>
</event>
<event>
 4    1  0.4857079E-002  0.4438030E+03  0.7818608E-02  0.1029586E+00
         21   -1    0    0  501  502  0.00000000000E+00  0.00000000000E+00  0.12378414709E+04  0.12378414709E+04  0.00000000000E+00 0.  1.
         21   -1    0    0  502  503 -0.00000000000E+00 -0.00000000000E+00 -0.48878994959E+03  0.48878994959E+03  0.00000000000E+00 0. -1.
    9000005    1    1    2  501    0  0.18793006439E+03 -0.40538651657E+02  0.10835326403E+04  0.11708988317E+04  0.40000000000E+03 0.  1.
   -9000005    1    1    2    0  503 -0.18793006439E+03  0.40538651657E+02 -0.33448111896E+03  0.55573258886E+03  0.40000000000E+03 0. -1.
<mgrwt>
<rscale>  2 0.44380299E+03</rscale>
<asrwt>0</asrwt>
<pdfrwt beam="1">  1       21 0.19043715E+00 0.44380299E+03</pdfrwt>
<pdfrwt beam="2">  1       21 0.75198454E-01 0.44380299E+03</pdfrwt>
<totfact> 0.19903457E+02</totfact>
</mgrwt>
</event>
<event>
 4    1  0.4857079E-002  0.4650739E+03  0.7818608E-02  0.1023320E+00
         21   -1    0    0  503  502  0.00000000000E+00  0.00000000000E+00  0.20677962362E+04  0.20677962362E+04  0.00000000000E+00 0.  1.
         21   -1    0    0  501  503 -0.00000000000E+00 -0.00000000000E+00 -0.11189473783E+03  0.11189473783E+03  0.00000000000E+00 0. -1.
    9000005    1    1    2  501    0 -0.21378883808E+03 -0.10289835645E+03  0.12561990431E+04  0.13395259516E+04  0.40000000000E+03 0. -1.
   -9000005    1    1    2    0  502  0.21378883808E+03  0.10289835645E+03  0.69970245530E+03  0.84016502248E+03  0.40000000000E+03 0.  1.
<mgrwt>
<rscale>  2 0.46507391E+03</rscale>
<asrwt>0</asrwt>
<pdfrwt beam="1">  1       21 0.31812247E+00 0.46507391E+03</pdfrwt>
<pdfrwt beam="2">  1       21 0.17214577E-01 0.46507391E+03</pdfrwt>
<totfact> 0.64602443E+02</totfact>
</mgrwt>
</event>
<event>
 4    1  0.4857079E-002  0.6799235E+03  0.7818608E-02  0.9752195E-01
         21   -1    0    0  503  502  0.00000000000E+00  0.00000000000E+00  0.35822482055E+03  0.35822482055E+03  0.00000000000E+00 0.  1.
         21   -1    0    0  501  503 -0.00000000000E+00 -0.00000000000E+00 -0.14011121868E+04  0.14011121868E+04  0.00000000000E+00 0. -1.
    9000005    1    1    2  501    0  0.10932482012E+03 -0.53883586607E+03 -0.76858558916E+03  0.10261675374E+04  0.40000000000E+03 0. -1.
   -9000005    1    1    2    0  502 -0.10932482012E+03  0.53883586607E+03 -0.27430177715E+03  0.73316947004E+03  0.40000000000E+03 0.  1.
<mgrwt>
<rscale>  2 0.67992353E+03</rscale>
<asrwt>0</asrwt>
<pdfrwt beam="1">  1       21 0.55111510E-01 0.67992353E+03</pdfrwt>
<pdfrwt beam="2">  1       21 0.21555572E+00 0.67992353E+03</pdfrwt>
<totfact> 0.24445147E+02</totfact>
</mgrwt>
</event>
<event>
 4    1  0.4857079E-002  0.4200505E+03  0.7818608E-02  0.1037050E+00
         21   -1    0    0  503  502  0.00000000000E+00  0.00000000000E+00  0.56377173622E+03  0.56377173622E+03  0.00000000000E+00 0. -1.
         21   -1    0    0  501  503 -0.00000000000E+00 -0.00000000000E+00 -0.10013587423E+04  0.10013587423E+04  0.00000000000E+00 0. -1.
    9000005    1    1    2  501    0 -0.23971760946E+02 -0.12596738655E+03 -0.86764194232E+03  0.96397353069E+03  0.40000000000E+03 0. -1.
   -9000005    1    1    2    0  502  0.23971760946E+02  0.12596738655E+03  0.43005493622E+03  0.60115694786E+03  0.40000000000E+03 0. -1.
<mgrwt>
<rscale>  2 0.42005051E+03</rscale>
<asrwt>0</asrwt>
<pdfrwt beam="1">  1       21 0.86734114E-01 0.42005051E+03</pdfrwt>
<pdfrwt beam="2">  1       21 0.15405519E+00 0.42005051E+03</pdfrwt>
<totfact> 0.26566912E+02</totfact>
</mgrwt>
</event>
<event>
 4    1  0.4857079E-002  0.4893806E+03  0.7818608E-02  0.1016589E+00
         21   -1    0    0  503  502  0.00000000000E+00  0.00000000000E+00  0.14017767577E+03  0.14017767577E+03  0.00000000000E+00 0.  1.
         21   -1    0    0  501  503 -0.00000000000E+00 -0.00000000000E+00 -0.17086439995E+04  0.17086439995E+04  0.00000000000E+00 0.  1.
    9000005    1    1    2  501    0  0.23830173321E+03 -0.15068390523E+03 -0.79276220077E+03  0.93164653292E+03  0.40000000000E+03 0.  1.
   -9000005    1    1    2    0  502 -0.23830173321E+03  0.15068390523E+03 -0.77570412292E+03  0.91717514230E+03  0.40000000000E+03 0.  1.
<mgrwt>
<rscale>  2 0.48938058E+03</rscale>
<asrwt>0</asrwt>
<pdfrwt beam="1">  1       21 0.21565797E-01 0.48938058E+03</pdfrwt>
<pdfrwt beam="2">  1       21 0.26286829E+00 0.48938058E+03</pdfrwt>
<totfact> 0.89728631E+02</totfact>
</mgrwt>
</event>
<event>
 4    1  0.4857079E-002  0.4583331E+03  0.7818608E-02  0.1025266E+00
         21   -1    0    0  503  502  0.00000000000E+00  0.00000000000E+00  0.14273436731E+03  0.14273436731E+03  0.00000000000E+00 0.  1.
         21   -1    0    0  501  503 -0.00000000000E+00 -0.00000000000E+00 -0.15606889412E+04  0.15606889412E+04  0.00000000000E+00 0.  1.
    9000005    1    1    2  501    0  0.10837022275E+03  0.19576808889E+03 -0.91229786535E+03  0.10209586891E+04  0.40000000000E+03 0. -1.
   -9000005    1    1    2    0  502 -0.10837022275E+03 -0.19576808889E+03 -0.50565670858E+03  0.68246461940E+03  0.40000000000E+03 0. -1.
<mgrwt>
<rscale>  2 0.45833312E+03</rscale>
<asrwt>0</asrwt>
<pdfrwt beam="1">  1       21 0.21959133E-01 0.45833312E+03</pdfrwt>
<pdfrwt beam="2">  1       21 0.24010599E+00 0.45833312E+03</pdfrwt>
<totfact> 0.12141710E+03</totfact>
</mgrwt>
</event>
<event>
 4    1  0.4857079E-002  0.4428015E+03  0.7818608E-02  0.1029891E+00
         21   -1    0    0  501  502  0.00000000000E+00  0.00000000000E+00  0.32066898681E+03  0.32066898681E+03  0.00000000000E+00 0.  1.
         21   -1    0    0  502  503 -0.00000000000E+00 -0.00000000000E+00 -0.63427794853E+03  0.63427794853E+03  0.00000000000E+00 0.  1.
    9000005    1    1    2  501    0  0.61865874458E+01  0.18982868721E+03 -0.66223220400E+02  0.44772616550E+03  0.40000000000E+03 0.  1.
   -9000005    1    1    2    0  503 -0.61865874458E+01 -0.18982868721E+03 -0.24738574132E+03  0.50722076984E+03  0.40000000000E+03 0.  1.
<mgrwt>
<rscale>  2 0.44280154E+03</rscale>
<asrwt>0</asrwt>
<pdfrwt beam="1">  1       21 0.49333690E-01 0.44280154E+03</pdfrwt>
<pdfrwt beam="2">  1       21 0.97581223E-01 0.44280154E+03</pdfrwt>
<totfact> 0.29711684E+03</totfact>
</mgrwt>
</event>
<event>
 4    1  0.4857079E-002  0.5574404E+03  0.7818608E-02  0.9997863E-01
         21   -1    0    0  503  502  0.00000000000E+00  0.00000000000E+00  0.15001792321E+04  0.15001792321E+04  0.00000000000E+00 0. -1.
         21   -1    0    0  501  503 -0.00000000000E+00 -0.00000000000E+00 -0.21015081078E+03  0.21015081078E+03  0.00000000000E+00 0.  1.
    9000005    1    1    2  501    0  0.32140945151E+03 -0.21779743105E+03  0.74745670380E+03  0.93243298984E+03  0.40000000000E+03 0. -1.
   -9000005    1    1    2    0  502 -0.32140945151E+03  0.21779743105E+03  0.54257171755E+03  0.77789705307E+03  0.40000000000E+03 0. -1.
<mgrwt>
<rscale>  2 0.55744036E+03</rscale>
<asrwt>0</asrwt>
<pdfrwt beam="1">  1       21 0.23079680E+00 0.55744036E+03</pdfrwt>
<pdfrwt beam="2">  1       21 0.32330895E-01 0.55744036E+03</pdfrwt>
<totfact> 0.62215554E+02</totfact>
</mgrwt>
</event>
<event>
 4    1  0.4857079E-002  0.4691680E+03  0.7818608E-02  0.1022155E+00
         21   -1    0    0  503  502  0.00000000000E+00  0.00000000000E+00  0.33373229956E+03  0.33373229956E+03  0.00000000000E+00 0. -1.
         21   -1    0    0  501  503 -0.00000000000E+00 -0.00000000000E+00 -0.69272457854E+03  0.69272457854E+03  0.00000000000E+00 0. -1.
    9000005    1    1    2  501    0  0.19907594471E+03 -0.14313403706E+03 -0.29178231210E+03  0.55249932306E+03  0.40000000000E+03 0.  1.
   -9000005    1    1    2    0  502 -0.19907594471E+03  0.14313403706E+03 -0.67209966880E+02  0.47395755504E+03  0.40000000000E+03 0.  1.
<mgrwt>
<rscale>  2 0.46916797E+03</rscale>
<asrwt>0</asrwt>
<pdfrwt beam="1">  1       21 0.51343431E-01 0.46916797E+03</pdfrwt>
<pdfrwt beam="2">  1       21 0.10657301E+00 0.46916797E+03</pdfrwt>
<totfact> 0.21791264E+03</totfact>
</mgrwt>
</event>
<event>
 4    1  0.4857079E-002  0.4118813E+03  0.7818608E-02  0.1039742E+00
         21   -1    0    0  501  502  0.00000000000E+00  0.00000000000E+00  0.22425922215E+03  0.22425922215E+03  0.00000000000E+00 0. -1.
         21   -1    0    0  502  503 -0.00000000000E+00 -0.00000000000E+00 -0.76288411632E+03  0.76288411632E+03  0.00000000000E+00 0. -1.
    9000005    1    1    2  501    0 -0.89870587367E+02 -0.39616750945E+02 -0.31455667326E+03  0.51825872894E+03  0.40000000000E+03 0. -1.
   -9000005    1    1    2    0  503  0.89870587367E+02  0.39616750945E+02 -0.22406822092E+03  0.46888460953E+03  0.40000000000E+03 0. -1.
<mgrwt>
<rscale>  2 0.41188131E+03</rscale>
<asrwt>0</asrwt>
<pdfrwt beam="1">  1       21 0.34501419E-01 0.41188131E+03</pdfrwt>
<pdfrwt beam="2">  1       21 0.11736679E+00 0.41188131E+03</pdfrwt>
<totfact> 0.39946892E+03</totfact>
</mgrwt>
</event>
<event>
 4    1  0.4857079E-002  0.9890774E+03  0.7818608E-02  0.9320606E-01
         21   -1    0    0  503  502  0.00000000000E+00  0.00000000000E+00  0.17270279118E+04  0.17270279118E+04  0.00000000000E+00 0. -1.
         21   -1    0    0  501  503 -0.00000000000E+00 -0.00000000000E+00 -0.12292701160E+04  0.12292701160E+04  0.00000000000E+00 0.  1.
    9000005    1    1    2  501    0  0.69757854235E+03  0.57589780550E+03 -0.83652795316E+03  0.12953968973E+04  0.40000000000E+03 0.  1.
   -9000005    1    1    2    0  502 -0.69757854235E+03 -0.57589780550E+03  0.13342857490E+04  0.16609011305E+04  0.40000000000E+03 0. -1.
<mgrwt>
<rscale>  2 0.98907740E+03</rscale>
<asrwt>0</asrwt>
<pdfrwt beam="1">  1       21 0.26569660E+00 0.98907740E+03</pdfrwt>
<pdfrwt beam="2">  1       21 0.18911848E+00 0.98907740E+03</pdfrwt>
<totfact> 0.47039213E+00</totfact>
</mgrwt>
</event>
<event>
 4    1  0.4857079E-002  0.4856804E+03  0.7818608E-02  0.1017586E+00
         21   -1    0    0  501  502  0.00000000000E+00  0.00000000000E+00  0.84294109506E+03  0.84294109506E+03  0.00000000000E+00 0. -1.
         21   -1    0    0  502  503 -0.00000000000E+00 -0.00000000000E+00 -0.28988588501E+03  0.28988588501E+03  0.00000000000E+00 0.  1.
    9000005    1    1    2  501    0 -0.24622212666E+03 -0.12353193447E+03  0.17106579730E+03  0.51492619034E+03  0.40000000000E+03 0. -1.
   -9000005    1    1    2    0  503  0.24622212666E+03  0.12353193447E+03  0.38198941275E+03  0.61790078973E+03  0.40000000000E+03 0. -1.
<mgrwt>
<rscale>  2 0.48568042E+03</rscale>
<asrwt>0</asrwt>
<pdfrwt beam="1">  1       21 0.12968324E+00 0.48568042E+03</pdfrwt>
<pdfrwt beam="2">  1       21 0.44597829E-01 0.48568042E+03</pdfrwt>
<totfact> 0.17760853E+03</totfact>
</mgrwt>
</event>
<event>
 4    1  0.4857079E-002  0.6164878E+03  0.7818608E-02  0.9871777E-01
         21   -1    0    0  503  502  0.00000000000E+00  0.00000000000E+00  0.33762061314E+03  0.33762061314E+03  0.00000000000E+00 0. -1.
         21   -1    0    0  501  503 -0.00000000000E+00 -0.00000000000E+00 -0.12337521665E+04  0.12337521665E+04  0.00000000000E+00 0.  1.
    9000005    1    1    2  501    0 -0.21335516319E+03 -0.41777603383E+03 -0.68058860722E+03  0.91829085391E+03  0.40000000000E+03 0. -1.
   -9000005    1    1    2    0  502  0.21335516319E+03  0.41777603383E+03 -0.21554294618E+03  0.65308192576E+03  0.40000000000E+03 0.  1.
<mgrwt>
<rscale>  2 0.61648783E+03</rscale>
<asrwt>0</asrwt>
<pdfrwt beam="1">  1       21 0.51941633E-01 0.61648783E+03</pdfrwt>
<pdfrwt beam="2">  1       21 0.18980802E+00 0.61648783E+03</pdfrwt>
<totfact> 0.42341429E+02</totfact>
</mgrwt>
</event>
<event>
 4    1  0.4857079E-002  0.4617838E+03  0.7818608E-02  0.1024265E+00
         21   -1    0    0  503  502  0.00000000000E+00  0.00000000000E+00  0.85076960105E+03  0.85076960105E+03  0.00000000000E+00 0. -1.
         21   -1    0    0  501  503 -0.00000000000E+00 -0.00000000000E+00 -0.64035713411E+03  0.64035713411E+03  0.00000000000E+00 0. -1.
    9000005    1    1    2  501    0 -0.19695429196E+03 -0.12022188161E+03 -0.47641913141E+03  0.66349037876E+03  0.40000000000E+03 0. -1.
   -9000005    1    1    2    0  502  0.19695429196E+03  0.12022188161E+03  0.68683159835E+03  0.82763635640E+03  0.40000000000E+03 0. -1.
<mgrwt>
<rscale>  2 0.46178382E+03</rscale>
<asrwt>0</asrwt>
<pdfrwt beam="1">  1       21 0.13088763E+00 0.46178382E+03</pdfrwt>
<pdfrwt beam="2">  1       21 0.98516482E-01 0.46178382E+03</pdfrwt>
<totfact> 0.29666824E+02</totfact>
</mgrwt>
</event>
<event>
 4    1  0.4857079E-002  0.5364926E+03  0.7818608E-02  0.1004670E+00
         21   -1    0    0  503  502  0.00000000000E+00  0.00000000000E+00  0.27274209167E+04  0.27274209167E+04  0.00000000000E+00 0. -1.
         21   -1    0    0  501  503 -0.00000000000E+00 -0.00000000000E+00 -0.13473524636E+03  0.13473524636E+03  0.00000000000E+00 0.  1.
    9000005    1    1    2  501    0  0.28993261101E+03  0.20919693832E+03  0.63006650141E+03  0.82753131308E+03  0.40000000000E+03 0.  1.
   -9000005    1    1    2    0  502 -0.28993261101E+03 -0.20919693832E+03  0.19626191689E+04  0.20346248500E+04  0.40000000000E+03 0. -1.
<mgrwt>
<rscale>  2 0.53649257E+03</rscale>
<asrwt>0</asrwt>
<pdfrwt beam="1">  1       21 0.41960318E+00 0.53649257E+03</pdfrwt>
<pdfrwt beam="2">  1       21 0.20728501E-01 0.53649257E+03</pdfrwt>
<totfact> 0.10070291E+02</totfact>
</mgrwt>
</event>
<event>
 4    1  0.4857079E-002  0.5142779E+03  0.7818608E-02  0.1010118E+00
         21   -1    0    0  501  502  0.00000000000E+00  0.00000000000E+00  0.87447777134E+03  0.87447777134E+03  0.00000000000E+00 0.  1.
         21   -1    0    0  502  503 -0.00000000000E+00 -0.00000000000E+00 -0.56937438809E+03  0.56937438809E+03  0.00000000000E+00 0.  1.
    9000005    1    1    2  501    0  0.24043277441E+03 -0.21604133971E+03  0.64685286022E+03  0.82637788103E+03  0.40000000000E+03 0.  1.
   -9000005    1    1    2    0  503 -0.24043277441E+03  0.21604133971E+03 -0.34174947697E+03  0.61747427840E+03  0.40000000000E+03 0.  1.
<mgrwt>
<rscale>  2 0.51427792E+03</rscale>
<asrwt>0</asrwt>
<pdfrwt beam="1">  1       21 0.13453504E+00 0.51427792E+03</pdfrwt>
<pdfrwt beam="2">  1       21 0.87596060E-01 0.51427792E+03</pdfrwt>
<totfact> 0.35724439E+02</totfact>
</mgrwt>
</event>
<event>
 4    1  0.4857079E-002  0.4946694E+03  0.7818608E-02  0.1015180E+00
         21   -1    0    0  503  502  0.00000000000E+00  0.00000000000E+00  0.88458396709E+03  0.88458396709E+03  0.00000000000E+00 0. -1.
         21   -1    0    0  501  503 -0.00000000000E+00 -0.00000000000E+00 -0.36307847350E+03  0.36307847350E+03  0.00000000000E+00 0. -1.
    9000005    1    1    2  501    0 -0.84572403075E+02  0.27846964910E+03 -0.43657071113E+02  0.49659216334E+03  0.40000000000E+03 0. -1.
   -9000005    1    1    2    0  502  0.84572403075E+02 -0.27846964910E+03  0.56516256470E+03  0.75107027725E+03  0.40000000000E+03 0. -1.
<mgrwt>
<rscale>  2 0.49466942E+03</rscale>
<asrwt>0</asrwt>
<pdfrwt beam="1">  1       21 0.13608984E+00 0.49466942E+03</pdfrwt>
<pdfrwt beam="2">  1       21 0.55858227E-01 0.49466942E+03</pdfrwt>
<totfact> 0.96575743E+02</totfact>
</mgrwt>
</event>
<event>
 4    1  0.4857079E-002  0.4797991E+03  0.7818608E-02  0.1019190E+00
         21   -1    0    0  501  502  0.00000000000E+00  0.00000000000E+00  0.57217997646E+03  0.57217997646E+03  0.00000000000E+00 0. -1.
         21   -1    0    0  502  503 -0.00000000000E+00 -0.00000000000E+00 -0.59000384327E+03  0.59000384327E+03  0.00000000000E+00 0.  1.
    9000005    1    1    2  501    0  0.23051731758E+03  0.13064820277E+03  0.31881731696E+03  0.57606568044E+03  0.40000000000E+03 0. -1.
   -9000005    1    1    2    0  503 -0.23051731758E+03 -0.13064820277E+03 -0.33664118377E+03  0.58611813929E+03  0.40000000000E+03 0.  1.
<mgrwt>
<rscale>  2 0.47979911E+03</rscale>
<asrwt>0</asrwt>
<pdfrwt beam="1">  1       21 0.88027689E-01 0.47979911E+03</pdfrwt>
<pdfrwt beam="2">  1       21 0.90769822E-01 0.47979911E+03</pdfrwt>
<totfact> 0.95634495E+02</totfact>
</mgrwt>
</event>
<event>
 4    1  0.4857079E-002  0.5274969E+03  0.7818608E-02  0.1006841E+00
         21   -1    0    0  503  502  0.00000000000E+00  0.00000000000E+00  0.15357523204E+04  0.15357523204E+04  0.00000000000E+00 0.  1.
         21   -1    0    0  501  503 -0.00000000000E+00 -0.00000000000E+00 -0.18746089005E+03  0.18746089005E+03  0.00000000000E+00 0. -1.
    9000005    1    1    2  501    0 -0.25812345924E+03  0.22721200255E+03  0.51647810702E+03  0.73824294737E+03  0.40000000000E+03 0.  1.
   -9000005    1    1    2    0  502  0.25812345924E+03 -0.22721200255E+03  0.83181332336E+03  0.98497026312E+03  0.40000000000E+03 0.  1.
<mgrwt>
<rscale>  2 0.52749693E+03</rscale>
<asrwt>0</asrwt>
<pdfrwt beam="1">  1       21 0.23626958E+00 0.52749693E+03</pdfrwt>
<pdfrwt beam="2">  1       21 0.28840138E-01 0.52749693E+03</pdfrwt>
<totfact> 0.73086498E+02</totfact>
</mgrwt>
</event>
<event>
 4    1  0.4857079E-002  0.4519418E+03  0.7818608E-02  0.1027145E+00
         21   -1    0    0  501  502  0.00000000000E+00  0.00000000000E+00  0.68859308409E+03  0.68859308409E+03  0.00000000000E+00 0.  1.
         21   -1    0    0  502  503 -0.00000000000E+00 -0.00000000000E+00 -0.55497693540E+03  0.55497693540E+03  0.00000000000E+00 0.  1.
    9000005    1    1    2  501    0 -0.18969914785E+03  0.90915612195E+02  0.49104816004E+03  0.66736774773E+03  0.40000000000E+03 0.  1.
   -9000005    1    1    2    0  503  0.18969914785E+03 -0.90915612195E+02 -0.35743201135E+03  0.57620227175E+03  0.40000000000E+03 0.  1.
<mgrwt>
<rscale>  2 0.45194183E+03</rscale>
<asrwt>0</asrwt>
<pdfrwt beam="1">  1       21 0.10593740E+00 0.45194183E+03</pdfrwt>
<pdfrwt beam="2">  1       21 0.85381066E-01 0.45194183E+03</pdfrwt>
<totfact> 0.71502670E+02</totfact>
</mgrwt>
</event>
<event>
 4    1  0.4857079E-002  0.6086785E+03  0.7818608E-02  0.9887563E-01
         21   -1    0    0  503  502  0.00000000000E+00  0.00000000000E+00  0.83090408209E+03  0.83090408209E+03  0.00000000000E+00 0.  1.
         21   -1    0    0  501  503 -0.00000000000E+00 -0.00000000000E+00 -0.57115173440E+03  0.57115173440E+03  0.00000000000E+00 0.  1.
    9000005    1    1    2  501    0 -0.41433498422E+03 -0.19701781295E+03 -0.19842589198E+03  0.64020491437E+03  0.40000000000E+03 0.  1.
   -9000005    1    1    2    0  502  0.41433498422E+03  0.19701781295E+03  0.45817823966E+03  0.76185090212E+03  0.40000000000E+03 0.  1.
<mgrwt>
<rscale>  2 0.60867848E+03</rscale>
<asrwt>0</asrwt>
<pdfrwt beam="1">  1       21 0.12783140E+00 0.60867848E+03</pdfrwt>
<pdfrwt beam="2">  1       21 0.87869498E-01 0.60867848E+03</pdfrwt>
<totfact> 0.39137378E+02</totfact>
</mgrwt>
</event>
<event>
 4    1  0.4857079E-002  0.4137411E+03  0.7818608E-02  0.1039123E+00
         21   -1    0    0  501  502  0.00000000000E+00  0.00000000000E+00  0.13926878066E+03  0.13926878066E+03  0.00000000000E+00 0. -1.
         21   -1    0    0  502  503 -0.00000000000E+00 -0.00000000000E+00 -0.17634042803E+04  0.17634042803E+04  0.00000000000E+00 0. -1.
    9000005    1    1    2  501    0  0.10213985644E+03  0.27371141538E+02 -0.28842671850E+03  0.50435275513E+03  0.40000000000E+03 0. -1.
   -9000005    1    1    2    0  503 -0.10213985644E+03 -0.27371141538E+02 -0.13357087811E+04  0.13983203058E+04  0.40000000000E+03 0. -1.
<mgrwt>
<rscale>  2 0.41374114E+03</rscale>
<asrwt>0</asrwt>
<pdfrwt beam="1">  1       21 0.21425965E-01 0.41374114E+03</pdfrwt>
<pdfrwt beam="2">  1       21 0.27129298E+00 0.41374114E+03</pdfrwt>
<totfact> 0.83999196E+02</totfact>
</mgrwt>
</event>
<event>
 4    1  0.4857079E-002  0.4469667E+03  0.7818608E-02  0.1028630E+00
         21   -1    0    0  503  502  0.00000000000E+00  0.00000000000E+00  0.54452416698E+03  0.54452416698E+03  0.00000000000E+00 0.  1.
         21   -1    0    0  501  503 -0.00000000000E+00 -0.00000000000E+00 -0.80254677746E+03  0.80254677746E+03  0.00000000000E+00 0. -1.
    9000005    1    1    2  501    0  0.19523223855E+03  0.40787327148E+02 -0.62525918768E+03  0.76858850161E+03  0.40000000000E+03 0. -1.
   -9000005    1    1    2    0  502 -0.19523223855E+03 -0.40787327148E+02  0.36723657721E+03  0.57848244283E+03  0.40000000000E+03 0.  1.
<mgrwt>
<rscale>  2 0.44696670E+03</rscale>
<asrwt>0</asrwt>
<pdfrwt beam="1">  1       21 0.83772949E-01 0.44696670E+03</pdfrwt>
<pdfrwt beam="2">  1       21 0.12346873E+00 0.44696670E+03</pdfrwt>
<totfact> 0.51036208E+02</totfact>
</mgrwt>
</event>
<event>
 4    1  0.4857079E-002  0.5639504E+03  0.7818608E-02  0.9983156E-01
         21   -1    0    0  501  502  0.00000000000E+00  0.00000000000E+00  0.79608069931E+03  0.79608069931E+03  0.00000000000E+00 0.  1.
         21   -1    0    0  502  503 -0.00000000000E+00 -0.00000000000E+00 -0.44922588172E+03  0.44922588172E+03  0.00000000000E+00 0. -1.
    9000005    1    1    2  501    0  0.36919646801E+02  0.39582442153E+03  0.38057188933E+03  0.68034917208E+03  0.40000000000E+03 0.  1.
   -9000005    1    1    2    0  503 -0.36919646801E+02 -0.39582442153E+03 -0.33717071734E+02  0.56495740895E+03  0.40000000000E+03 0. -1.
<mgrwt>
<rscale>  2 0.56395038E+03</rscale>
<asrwt>0</asrwt>
<pdfrwt beam="1">  1       21 0.12247395E+00 0.56395038E+03</pdfrwt>
<pdfrwt beam="2">  1       21 0.69111674E-01 0.56395038E+03</pdfrwt>
<totfact> 0.77386221E+02</totfact>
</mgrwt>
</event>
<event>
 4    1  0.4857079E-002  0.4297805E+03  0.7818608E-02  0.1033929E+00
         21   -1    0    0  503  502  0.00000000000E+00  0.00000000000E+00  0.13677248462E+03  0.13677248462E+03  0.00000000000E+00 0. -1.
         21   -1    0    0  501  503 -0.00000000000E+00 -0.00000000000E+00 -0.14317679510E+04  0.14317679510E+04  0.00000000000E+00 0. -1.
    9000005    1    1    2  501    0  0.10231672888E+03  0.11934209576E+03 -0.83434592382E+03  0.93853309448E+03  0.40000000000E+03 0. -1.
   -9000005    1    1    2    0  502 -0.10231672888E+03 -0.11934209576E+03 -0.46064954252E+03  0.63000734111E+03  0.40000000000E+03 0. -1.
<mgrwt>
<rscale>  2 0.42978047E+03</rscale>
<asrwt>0</asrwt>
<pdfrwt beam="1">  1       21 0.21041922E-01 0.42978047E+03</pdfrwt>
<pdfrwt beam="2">  1       21 0.22027198E+00 0.42978047E+03</pdfrwt>
<totfact> 0.17797532E+03</totfact>
</mgrwt>
</event>
<event>
 4    1  0.4857079E-002  0.7710114E+03  0.7818608E-02  0.9602951E-01
         21   -1    0    0  503  502  0.00000000000E+00  0.00000000000E+00  0.47582211095E+03  0.47582211095E+03  0.00000000000E+00 0. -1.
         21   -1    0    0  501  503 -0.00000000000E+00 -0.00000000000E+00 -0.12724347090E+04  0.12724347090E+04  0.00000000000E+00 0. -1.
    9000005    1    1    2  501    0 -0.62899216776E+03 -0.19704687963E+03 -0.28051531784E+03  0.82045564379E+03  0.40000000000E+03 0. -1.
   -9000005    1    1    2    0  502  0.62899216776E+03  0.19704687963E+03 -0.51609728024E+03  0.92780117619E+03  0.40000000000E+03 0. -1.
<mgrwt>
<rscale>  2 0.77101143E+03</rscale>
<asrwt>0</asrwt>
<pdfrwt beam="1">  1       21 0.73203403E-01 0.77101143E+03</pdfrwt>
<pdfrwt beam="2">  1       21 0.19575918E+00 0.77101143E+03</pdfrwt>
<totfact> 0.17087358E+02</totfact>
</mgrwt>
</event>
<event>
 4    1  0.4857079E-002  0.4266200E+03  0.7818608E-02  0.1034933E+00
         21   -1    0    0  503  502  0.00000000000E+00  0.00000000000E+00  0.48758661152E+03  0.48758661152E+03  0.00000000000E+00 0.  1.
         21   -1    0    0  501  503 -0.00000000000E+00 -0.00000000000E+00 -0.13942199390E+04  0.13942199390E+04  0.00000000000E+00 0. -1.
    9000005    1    1    2  501    0  0.24657415025E+02 -0.14627601925E+03 -0.12584728984E+04  0.13288185347E+04  0.40000000000E+03 0. -1.
   -9000005    1    1    2    0  502 -0.24657415025E+02  0.14627601925E+03  0.35183957100E+03  0.55298801582E+03  0.40000000000E+03 0.  1.
<mgrwt>
<rscale>  2 0.42662004E+03</rscale>
<asrwt>0</asrwt>
<pdfrwt beam="1">  1       21 0.75013326E-01 0.42662004E+03</pdfrwt>
<pdfrwt beam="2">  1       21 0.21449537E+00 0.42662004E+03</pdfrwt>
<totfact> 0.14000505E+02</totfact>
</mgrwt>
</event>
<event>
 4    1  0.4857079E-002  0.4040695E+03  0.7818608E-02  0.1042380E+00
         21   -1    0    0  501  502  0.00000000000E+00  0.00000000000E+00  0.45381018643E+03  0.45381018643E+03  0.00000000000E+00 0.  1.
         21   -1    0    0  502  503 -0.00000000000E+00 -0.00000000000E+00 -0.62602564463E+03  0.62602564463E+03  0.00000000000E+00 0.  1.
    9000005    1    1    2  501    0 -0.47263810703E+02  0.32222982442E+02  0.26599734718E+03  0.48376314153E+03  0.40000000000E+03 0.  1.
   -9000005    1    1    2    0  503  0.47263810703E+02 -0.32222982442E+02 -0.43821280538E+03  0.59607268953E+03  0.40000000000E+03 0.  1.
<mgrwt>
<rscale>  2 0.40406953E+03</rscale>
<asrwt>0</asrwt>
<pdfrwt beam="1">  1       21 0.69816952E-01 0.40406953E+03</pdfrwt>
<pdfrwt beam="2">  1       21 0.96311637E-01 0.40406953E+03</pdfrwt>
<totfact> 0.14599944E+03</totfact>
</mgrwt>
</event>
<event>
 4    1  0.4857079E-002  0.4289283E+03  0.7818608E-02  0.1034199E+00
         21   -1    0    0  503  502  0.00000000000E+00  0.00000000000E+00  0.54035660750E+03  0.54035660750E+03  0.00000000000E+00 0.  1.
         21   -1    0    0  501  503 -0.00000000000E+00 -0.00000000000E+00 -0.41367983839E+03  0.41367983839E+03  0.00000000000E+00 0. -1.
    9000005    1    1    2  501    0  0.15316958346E+03 -0.22771803182E+02 -0.13732314569E+03  0.45037442496E+03  0.40000000000E+03 0. -1.
   -9000005    1    1    2    0  502 -0.15316958346E+03  0.22771803182E+02  0.26399991479E+03  0.50366202093E+03  0.40000000000E+03 0.  1.
<mgrwt>
<rscale>  2 0.42892829E+03</rscale>
<asrwt>0</asrwt>
<pdfrwt beam="1">  1       21 0.83131786E-01 0.42892829E+03</pdfrwt>
<pdfrwt beam="2">  1       21 0.63643052E-01 0.42892829E+03</pdfrwt>
<totfact> 0.25144539E+03</totfact>
</mgrwt>
</event>
<event>
 4    1  0.4857079E-002  0.5206788E+03  0.7818608E-02  0.1008518E+00
         21   -1    0    0  501  502  0.00000000000E+00  0.00000000000E+00  0.17575839666E+03  0.17575839666E+03  0.00000000000E+00 0. -1.
         21   -1    0    0  502  503 -0.00000000000E+00 -0.00000000000E+00 -0.17692360469E+04  0.17692360469E+04  0.00000000000E+00 0. -1.
    9000005    1    1    2  501    0  0.39870600197E+01 -0.33330237845E+03 -0.44859317991E+03  0.68727157164E+03  0.40000000000E+03 0. -1.
   -9000005    1    1    2    0  503 -0.39870600197E+01  0.33330237845E+03 -0.11448844703E+04  0.12577228719E+04  0.40000000000E+03 0. -1.
<mgrwt>
<rscale>  2 0.52067876E+03</rscale>
<asrwt>0</asrwt>
<pdfrwt beam="1">  1       21 0.27039755E-01 0.52067876E+03</pdfrwt>
<pdfrwt beam="2">  1       21 0.27219014E+00 0.52067876E+03</pdfrwt>
<totfact> 0.49990725E+02</totfact>
</mgrwt>
</event>
<event>
 4    1  0.4857079E-002  0.4094181E+03  0.7818608E-02  0.1040566E+00
         21   -1    0    0  503  502  0.00000000000E+00  0.00000000000E+00  0.48616199521E+03  0.48616199521E+03  0.00000000000E+00 0.  1.
         21   -1    0    0  501  503 -0.00000000000E+00 -0.00000000000E+00 -0.71320943984E+03  0.71320943984E+03  0.00000000000E+00 0. -1.
    9000005    1    1    2  501    0 -0.64088746846E+02  0.59294373042E+02 -0.54453354281E+03  0.68127818796E+03  0.40000000000E+03 0. -1.
   -9000005    1    1    2    0  502  0.64088746846E+02 -0.59294373042E+02  0.31748609818E+03  0.51809324709E+03  0.40000000000E+03 0.  1.
<mgrwt>
<rscale>  2 0.40941811E+03</rscale>
<asrwt>0</asrwt>
<pdfrwt beam="1">  1       21 0.74794154E-01 0.40941811E+03</pdfrwt>
<pdfrwt beam="2">  1       21 0.10972453E+00 0.40941811E+03</pdfrwt>
<totfact> 0.90684009E+02</totfact>
</mgrwt>
</event>
<event>
 4    1  0.4857079E-002  0.5252957E+03  0.7818608E-02  0.1007379E+00
         21   -1    0    0  503  502  0.00000000000E+00  0.00000000000E+00  0.42106917703E+03  0.42106917703E+03  0.00000000000E+00 0. -1.
         21   -1    0    0  501  503 -0.00000000000E+00 -0.00000000000E+00 -0.68557688029E+03  0.68557688029E+03  0.00000000000E+00 0. -1.
    9000005    1    1    2  501    0  0.21719222323E+03  0.26222712864E+03 -0.24849359127E+03  0.58110635320E+03  0.40000000000E+03 0. -1.
   -9000005    1    1    2    0  502 -0.21719222323E+03 -0.26222712864E+03 -0.16014111986E+02  0.52553970412E+03  0.40000000000E+03 0. -1.
<mgrwt>
<rscale>  2 0.52529566E+03</rscale>
<asrwt>0</asrwt>
<pdfrwt beam="1">  1       21 0.64779874E-01 0.52529566E+03</pdfrwt>
<pdfrwt beam="2">  1       21 0.10547337E+00 0.52529566E+03</pdfrwt>
<totfact> 0.13202736E+03</totfact>
</mgrwt>
</event>
<event>
 4    1  0.4857079E-002  0.5103619E+03  0.7818608E-02  0.1011109E+00
         21   -1    0    0  501  502  0.00000000000E+00  0.00000000000E+00  0.15596259418E+04  0.15596259418E+04  0.00000000000E+00 0.  1.
         21   -1    0    0  502  503 -0.00000000000E+00 -0.00000000000E+00 -0.32732274976E+03  0.32732274976E+03  0.00000000000E+00 0.  1.
    9000005    1    1    2  501    0 -0.20453472456E+03 -0.24214625260E+03  0.12764334934E+04  0.13746824085E+04  0.40000000000E+03 0.  1.
   -9000005    1    1    2    0  503  0.20453472456E+03  0.24214625260E+03 -0.44130301416E+02  0.51226628300E+03  0.40000000000E+03 0.  1.
<mgrwt>
<rscale>  2 0.51036189E+03</rscale>
<asrwt>0</asrwt>
<pdfrwt beam="1">  1       21 0.23994245E+00 0.51036189E+03</pdfrwt>
<pdfrwt beam="2">  1       21 0.50357347E-01 0.51036189E+03</pdfrwt>
<totfact> 0.22216662E+02</totfact>
</mgrwt>
</event>
<event>
 4    1  0.4857079E-002  0.4768860E+03  0.7818608E-02  0.1019995E+00
         21   -1    0    0  503  502  0.00000000000E+00  0.00000000000E+00  0.20635587196E+03  0.20635587196E+03  0.00000000000E+00 0. -1.
         21   -1    0    0  501  503 -0.00000000000E+00 -0.00000000000E+00 -0.12986274944E+04  0.12986274944E+04  0.00000000000E+00 0. -1.
    9000005    1    1    2  501    0  0.14907086708E+03 -0.21259851355E+03 -0.83888483453E+03  0.96496011160E+03  0.40000000000E+03 0. -1.
   -9000005    1    1    2    0  502 -0.14907086708E+03  0.21259851355E+03 -0.25338678789E+03  0.54002325474E+03  0.40000000000E+03 0. -1.
<mgrwt>
<rscale>  2 0.47688599E+03</rscale>
<asrwt>0</asrwt>
<pdfrwt beam="1">  1       21 0.31747058E-01 0.47688599E+03</pdfrwt>
<pdfrwt beam="2">  1       21 0.19978884E+00 0.47688599E+03</pdfrwt>
<totfact> 0.10609861E+03</totfact>
</mgrwt>
</event>
<event>
 4    1  0.4857079E-002  0.4290875E+03  0.7818608E-02  0.1034149E+00
         21   -1    0    0  501  502  0.00000000000E+00  0.00000000000E+00  0.28441267045E+03  0.28441267045E+03  0.00000000000E+00 0.  1.
         21   -1    0    0  502  503 -0.00000000000E+00 -0.00000000000E+00 -0.87451241083E+03  0.87451241083E+03  0.00000000000E+00 0.  1.
    9000005    1    1    2  501    0 -0.69678079819E+02 -0.13878409284E+03  0.27873441005E+00  0.42908756324E+03  0.40000000000E+03 0.  1.
   -9000005    1    1    2    0  503  0.69678079819E+02  0.13878409284E+03 -0.59037847479E+03  0.72983751804E+03  0.40000000000E+03 0.  1.
<mgrwt>
<rscale>  2 0.42908747E+03</rscale>
<asrwt>0</asrwt>
<pdfrwt beam="1">  1       21 0.43755796E-01 0.42908747E+03</pdfrwt>
<pdfrwt beam="2">  1       21 0.13454037E+00 0.42908747E+03</pdfrwt>
<totfact> 0.17168468E+03</totfact>
</mgrwt>
</event>
<event>
 4    1  0.4857079E-002  0.4290790E+03  0.7818608E-02  0.1034151E+00
         21   -1    0    0  503  502  0.00000000000E+00  0.00000000000E+00  0.12426342649E+04  0.12426342649E+04  0.00000000000E+00 0.  1.
         21   -1    0    0  501  503 -0.00000000000E+00 -0.00000000000E+00 -0.20816315533E+03  0.20816315533E+03  0.00000000000E+00 0. -1.
    9000005    1    1    2  501    0  0.12076858073E+03  0.97589537349E+02  0.12777661860E+03  0.44770038212E+03  0.40000000000E+03 0. -1.
   -9000005    1    1    2    0  502 -0.12076858073E+03 -0.97589537349E+02  0.90669449098E+03  0.10030970381E+04  0.40000000000E+03 0.  1.
<mgrwt>
<rscale>  2 0.42907898E+03</rscale>
<asrwt>0</asrwt>
<pdfrwt beam="1">  1       21 0.19117450E+00 0.42907898E+03</pdfrwt>
<pdfrwt beam="2">  1       21 0.32025102E-01 0.42907898E+03</pdfrwt>
<totfact> 0.12178638E+03</totfact>
</mgrwt>
</event>
<event>
 4    1  0.4857079E-002  0.4418113E+03  0.7818608E-02  0.1030193E+00
         21   -1    0    0  501  502  0.00000000000E+00  0.00000000000E+00  0.26958523140E+03  0.26958523140E+03  0.00000000000E+00 0. -1.
         21   -1    0    0  502  503 -0.00000000000E+00 -0.00000000000E+00 -0.12225122023E+04  0.12225122023E+04  0.00000000000E+00 0. -1.
    9000005    1    1    2  501    0  0.38670653897E+01 -0.18756945513E+03 -0.87205346840E-01  0.44181134243E+03  0.40000000000E+03 0. -1.
   -9000005    1    1    2    0  503 -0.38670653897E+01  0.18756945513E+03 -0.95283976556E+03  0.10502860913E+04  0.40000000000E+03 0. -1.
<mgrwt>
<rscale>  2 0.44181133E+03</rscale>
<asrwt>0</asrwt>
<pdfrwt beam="1">  1       21 0.41474651E-01 0.44181133E+03</pdfrwt>
<pdfrwt beam="2">  1       21 0.18807880E+00 0.44181133E+03</pdfrwt>
<totfact> 0.75130910E+02</totfact>
</mgrwt>
</event>
<event>
 4    1  0.4857079E-002  0.4137623E+03  0.7818608E-02  0.1039116E+00
         21   -1    0    0  501  502  0.00000000000E+00  0.00000000000E+00  0.81975704417E+03  0.81975704417E+03  0.00000000000E+00 0.  1.
         21   -1    0    0  502  503 -0.00000000000E+00 -0.00000000000E+00 -0.31907928413E+03  0.31907928413E+03  0.00000000000E+00 0. -1.
    9000005    1    1    2  501    0 -0.63887708382E+02 -0.84365635230E+02  0.58503252679E+03  0.71656280750E+03  0.40000000000E+03 0.  1.
   -9000005    1    1    2    0  503  0.63887708382E+02  0.84365635230E+02 -0.84354766751E+02  0.42227352079E+03  0.40000000000E+03 0. -1.
<mgrwt>
<rscale>  2 0.41376225E+03</rscale>
<asrwt>0</asrwt>
<pdfrwt beam="1">  1       21 0.12611647E+00 0.41376225E+03</pdfrwt>
<pdfrwt beam="2">  1       21 0.49089121E-01 0.41376225E+03</pdfrwt>
<totfact> 0.16045368E+03</totfact>
</mgrwt>
</event>
<event>
 4    1  0.4857079E-002  0.4045812E+03  0.7818608E-02  0.1042205E+00
         21   -1    0    0  501  502  0.00000000000E+00  0.00000000000E+00  0.48043640399E+03  0.48043640399E+03  0.00000000000E+00 0.  1.
         21   -1    0    0  502  503 -0.00000000000E+00 -0.00000000000E+00 -0.49316977972E+03  0.49316977972E+03  0.00000000000E+00 0.  1.
    9000005    1    1    2  501    0  0.56155723514E+02  0.23075520309E+02  0.26430525789E+03  0.48326309012E+03  0.40000000000E+03 0. -1.
   -9000005    1    1    2    0  503 -0.56155723514E+02 -0.23075520309E+02 -0.27703863362E+03  0.49034309360E+03  0.40000000000E+03 0. -1.
<mgrwt>
<rscale>  2 0.40458120E+03</rscale>
<asrwt>0</asrwt>
<pdfrwt beam="1">  1       21 0.73913293E-01 0.40458120E+03</pdfrwt>
<pdfrwt beam="2">  1       21 0.75872273E-01 0.40458120E+03</pdfrwt>
<totfact> 0.22412054E+03</totfact>
</mgrwt>
</event>
<event>
 4    1  0.4857079E-002  0.4369485E+03  0.7818608E-02  0.1031687E+00
         21   -1    0    0  503  502  0.00000000000E+00  0.00000000000E+00  0.50671106894E+03  0.50671106894E+03  0.00000000000E+00 0.  1.
         21   -1    0    0  501  503 -0.00000000000E+00 -0.00000000000E+00 -0.84944232791E+03  0.84944232791E+03  0.00000000000E+00 0.  1.
    9000005    1    1    2  501    0 -0.17378214813E+03  0.26902402152E+02 -0.67716989835E+03  0.80590510947E+03  0.40000000000E+03 0.  1.
   -9000005    1    1    2    0  502  0.17378214813E+03 -0.26902402152E+02  0.33443863938E+03  0.55024828738E+03  0.40000000000E+03 0.  1.
<mgrwt>
<rscale>  2 0.43694848E+03</rscale>
<asrwt>0</asrwt>
<pdfrwt beam="1">  1       21 0.77955549E-01 0.43694848E+03</pdfrwt>
<pdfrwt beam="2">  1       21 0.13068343E+00 0.43694848E+03</pdfrwt>
<totfact> 0.52311191E+02</totfact>
</mgrwt>
</event>
<event>
 4    1  0.4857079E-002  0.4126991E+03  0.7818608E-02  0.1039469E+00
         21   -1    0    0  501  502  0.00000000000E+00  0.00000000000E+00  0.40379559197E+03  0.40379559197E+03  0.00000000000E+00 0.  1.
         21   -1    0    0  502  503 -0.00000000000E+00 -0.00000000000E+00 -0.86774987327E+03  0.86774987327E+03  0.00000000000E+00 0.  1.
    9000005    1    1    2  501    0  0.52711503221E+02 -0.86844987115E+02  0.22379539842E+03  0.46947303939E+03  0.40000000000E+03 0.  1.
   -9000005    1    1    2    0  503 -0.52711503221E+02  0.86844987115E+02 -0.68774967972E+03  0.80207242585E+03  0.40000000000E+03 0.  1.
<mgrwt>
<rscale>  2 0.41269911E+03</rscale>
<asrwt>0</asrwt>
<pdfrwt beam="1">  1       21 0.62122400E-01 0.41269911E+03</pdfrwt>
<pdfrwt beam="2">  1       21 0.13349998E+00 0.41269911E+03</pdfrwt>
<totfact> 0.83370814E+02</totfact>
</mgrwt>
</event>
<event>
 4    1  0.4857079E-002  0.5098394E+03  0.7818608E-02  0.1011242E+00
         21   -1    0    0  501  502  0.00000000000E+00  0.00000000000E+00  0.12433744870E+04  0.12433744870E+04  0.00000000000E+00 0. -1.
         21   -1    0    0  502  503 -0.00000000000E+00 -0.00000000000E+00 -0.41495478849E+03  0.41495478849E+03  0.00000000000E+00 0.  1.
    9000005    1    1    2  501    0 -0.28951195736E+03  0.12696086582E+03  0.99828152022E+03  0.11209381020E+04  0.40000000000E+03 0. -1.
   -9000005    1    1    2    0  503  0.28951195736E+03 -0.12696086582E+03 -0.16986182169E+03  0.53739117351E+03  0.40000000000E+03 0.  1.
<mgrwt>
<rscale>  2 0.50983942E+03</rscale>
<asrwt>0</asrwt>
<pdfrwt beam="1">  1       21 0.19128838E+00 0.50983942E+03</pdfrwt>
<pdfrwt beam="2">  1       21 0.63839199E-01 0.50983942E+03</pdfrwt>
<totfact> 0.27480382E+02</totfact>
</mgrwt>
</event>
<event>
 4    1  0.4857079E-002  0.4330441E+03  0.7818608E-02  0.1032903E+00
         21   -1    0    0  501  502  0.00000000000E+00  0.00000000000E+00  0.32370304677E+03  0.32370304677E+03  0.00000000000E+00 0. -1.
         21   -1    0    0  502  503 -0.00000000000E+00 -0.00000000000E+00 -0.95858171325E+03  0.95858171325E+03  0.00000000000E+00 0. -1.
    9000005    1    1    2  501    0 -0.16576871150E+03 -0.69198888155E+01  0.85844022418E+02  0.44147066353E+03  0.40000000000E+03 0. -1.
   -9000005    1    1    2    0  503  0.16576871150E+03  0.69198888155E+01 -0.72072268889E+03  0.84081409649E+03  0.40000000000E+03 0. -1.
<mgrwt>
<rscale>  2 0.43304405E+03</rscale>
<asrwt>0</asrwt>
<pdfrwt beam="1">  1       21 0.49800469E-01 0.43304405E+03</pdfrwt>
<pdfrwt beam="2">  1       21 0.14747411E+00 0.43304405E+03</pdfrwt>
<totfact> 0.10226254E+03</totfact>
</mgrwt>
</event>
<event>
 4    1  0.4857079E-002  0.4170880E+03  0.7818608E-02  0.1038018E+00
         21   -1    0    0  501  502  0.00000000000E+00  0.00000000000E+00  0.29646347289E+04  0.29646347289E+04  0.00000000000E+00 0. -1.
         21   -1    0    0  502  503 -0.00000000000E+00 -0.00000000000E+00 -0.72758345266E+02  0.72758345266E+02  0.00000000000E+00 0. -1.
    9000005    1    1    2  501    0 -0.10274695906E+03 -0.58356076538E+02  0.21140018858E+04  0.21547543578E+04  0.40000000000E+03 0.  1.
   -9000005    1    1    2    0  503  0.10274695906E+03  0.58356076538E+02  0.77787449787E+03  0.88263871641E+03  0.40000000000E+03 0.  1.
<mgrwt>
<rscale>  2 0.41708796E+03</rscale>
<asrwt>0</asrwt>
<pdfrwt beam="1">  1       21 0.45609756E+00 0.41708796E+03</pdfrwt>
<pdfrwt beam="2">  1       21 0.11193594E-01 0.41708796E+03</pdfrwt>
<totfact> 0.19530922E+02</totfact>
</mgrwt>
</event>
<event>
 4    1  0.4857079E-002  0.5207492E+03  0.7818608E-02  0.1008501E+00
         21   -1    0    0  503  502  0.00000000000E+00  0.00000000000E+00  0.41759318619E+03  0.41759318619E+03  0.00000000000E+00 0.  1.
         21   -1    0    0  501  503 -0.00000000000E+00 -0.00000000000E+00 -0.65002732969E+03  0.65002732969E+03  0.00000000000E+00 0.  1.
    9000005    1    1    2  501    0  0.12260907506E+03 -0.31007530911E+03 -0.13296822788E+03  0.53745719107E+03  0.40000000000E+03 0.  1.
   -9000005    1    1    2    0  502 -0.12260907506E+03  0.31007530911E+03 -0.99465915615E+02  0.53016332481E+03  0.40000000000E+03 0.  1.
<mgrwt>
<rscale>  2 0.52074916E+03</rscale>
<asrwt>0</asrwt>
<pdfrwt beam="1">  1       21 0.64245106E-01 0.52074916E+03</pdfrwt>
<pdfrwt beam="2">  1       21 0.10000420E+00 0.52074916E+03</pdfrwt>
<totfact> 0.15354346E+03</totfact>
</mgrwt>
</event>
<event>
 4    1  0.4857079E-002  0.6397788E+03  0.7818608E-02  0.9826150E-01
         21   -1    0    0  503  502  0.00000000000E+00  0.00000000000E+00  0.89144091539E+03  0.89144091539E+03  0.00000000000E+00 0. -1.
         21   -1    0    0  501  503 -0.00000000000E+00 -0.00000000000E+00 -0.51070279669E+03  0.51070279669E+03  0.00000000000E+00 0.  1.
    9000005    1    1    2  501    0 -0.13645306400E+03  0.48030973996E+03 -0.32345608610E+02  0.64059591270E+03  0.40000000000E+03 0.  1.
   -9000005    1    1    2    0  502  0.13645306400E+03 -0.48030973996E+03  0.41308372730E+03  0.76154779938E+03  0.40000000000E+03 0. -1.
<mgrwt>
<rscale>  2 0.63977878E+03</rscale>
<asrwt>0</asrwt>
<pdfrwt beam="1">  1       21 0.13714476E+00 0.63977878E+03</pdfrwt>
<pdfrwt beam="2">  1       21 0.78569661E-01 0.63977878E+03</pdfrwt>
<totfact> 0.41863906E+02</totfact>
</mgrwt>
</event>
<event>
 4    1  0.4857079E-002  0.5569555E+03  0.7818608E-02  0.9998967E-01
         21   -1    0    0  503  502  0.00000000000E+00  0.00000000000E+00  0.10135520808E+04  0.10135520808E+04  0.00000000000E+00 0.  1.
         21   -1    0    0  501  503 -0.00000000000E+00 -0.00000000000E+00 -0.49384294467E+03  0.49384294467E+03  0.00000000000E+00 0.  1.
    9000005    1    1    2  501    0  0.38542713309E+03  0.40562935221E+02 -0.20491771807E+03  0.59345656776E+03  0.40000000000E+03 0.  1.
   -9000005    1    1    2    0  502 -0.38542713309E+03 -0.40562935221E+02  0.72462685420E+03  0.91393845770E+03  0.40000000000E+03 0.  1.
<mgrwt>
<rscale>  2 0.55695550E+03</rscale>
<asrwt>0</asrwt>
<pdfrwt beam="1">  1       21 0.15593109E+00 0.55695550E+03</pdfrwt>
<pdfrwt beam="2">  1       21 0.75975838E-01 0.55695550E+03</pdfrwt>
<totfact> 0.32838534E+02</totfact>
</mgrwt>
</event>
<event>
 4    1  0.4857079E-002  0.4410173E+03  0.7818608E-02  0.1030435E+00
         21   -1    0    0  503  502  0.00000000000E+00  0.00000000000E+00  0.30730448198E+03  0.30730448198E+03  0.00000000000E+00 0. -1.
         21   -1    0    0  501  503 -0.00000000000E+00 -0.00000000000E+00 -0.82284803358E+03  0.82284803358E+03  0.00000000000E+00 0. -1.
    9000005    1    1    2  501    0 -0.69909101528E+02  0.17207263289E+03  0.13717382088E+02  0.44123059735E+03  0.40000000000E+03 0. -1.
   -9000005    1    1    2    0  502  0.69909101528E+02 -0.17207263289E+03 -0.52926093369E+03  0.68892191821E+03  0.40000000000E+03 0. -1.
<mgrwt>
<rscale>  2 0.44101732E+03</rscale>
<asrwt>0</asrwt>
<pdfrwt beam="1">  1       21 0.47277612E-01 0.44101732E+03</pdfrwt>
<pdfrwt beam="2">  1       21 0.12659201E+00 0.44101732E+03</pdfrwt>
<totfact> 0.17011497E+03</totfact>
</mgrwt>
</event>
<event>
 4    1  0.4857079E-002  0.4209178E+03  0.7818608E-02  0.1036768E+00
         21   -1    0    0  501  502  0.00000000000E+00  0.00000000000E+00  0.30077385310E+03  0.30077385310E+03  0.00000000000E+00 0.  1.
         21   -1    0    0  502  503 -0.00000000000E+00 -0.00000000000E+00 -0.68017205146E+03  0.68017205146E+03  0.00000000000E+00 0.  1.
    9000005    1    1    2  501    0 -0.39002488698E+02 -0.12510235082E+03 -0.10180332518E+02  0.42104089050E+03  0.40000000000E+03 0.  1.
   -9000005    1    1    2    0  503  0.39002488698E+02  0.12510235082E+03 -0.36921786585E+03  0.55990501406E+03  0.40000000000E+03 0.  1.
<mgrwt>
<rscale>  2 0.42091780E+03</rscale>
<asrwt>0</asrwt>
<pdfrwt beam="1">  1       21 0.46272901E-01 0.42091780E+03</pdfrwt>
<pdfrwt beam="2">  1       21 0.10464185E+00 0.42091780E+03</pdfrwt>
<totfact> 0.28928203E+03</totfact>
</mgrwt>
</event>
<event>
 4    1  0.4857079E-002  0.4167673E+03  0.7818608E-02  0.1038124E+00
         21   -1    0    0  503  502  0.00000000000E+00  0.00000000000E+00  0.37656506089E+03  0.37656506089E+03  0.00000000000E+00 0.  1.
         21   -1    0    0  501  503 -0.00000000000E+00 -0.00000000000E+00 -0.47344123948E+03  0.47344123948E+03  0.00000000000E+00 0.  1.
    9000005    1    1    2  501    0 -0.11696102761E+03 -0.38904869417E+01 -0.11660531122E+03  0.43277224550E+03  0.40000000000E+03 0.  1.
   -9000005    1    1    2    0  502  0.11696102761E+03  0.38904869417E+01  0.19729132636E+02  0.41723405487E+03  0.40000000000E+03 0.  1.
<mgrwt>
<rscale>  2 0.41676734E+03</rscale>
<asrwt>0</asrwt>
<pdfrwt beam="1">  1       21 0.57933087E-01 0.41676734E+03</pdfrwt>
<pdfrwt beam="2">  1       21 0.72837113E-01 0.41676734E+03</pdfrwt>
<totfact> 0.42041377E+03</totfact>
</mgrwt>
</event>
<event>
 4    1  0.4857079E-002  0.4803052E+03  0.7818608E-02  0.1019051E+00
         21   -1    0    0  501  502  0.00000000000E+00  0.00000000000E+00  0.11366747844E+04  0.11366747844E+04  0.00000000000E+00 0.  1.
         21   -1    0    0  502  503 -0.00000000000E+00 -0.00000000000E+00 -0.28908898378E+03  0.28908898378E+03  0.00000000000E+00 0.  1.
    9000005    1    1    2  501    0 -0.26587255771E+03 -0.22137741490E+01  0.81291926430E+03  0.94420911244E+03  0.40000000000E+03 0.  1.
   -9000005    1    1    2    0  503  0.26587255771E+03  0.22137741490E+01  0.34666536341E+02  0.48155465576E+03  0.40000000000E+03 0.  1.
<mgrwt>
<rscale>  2 0.48030523E+03</rscale>
<asrwt>0</asrwt>
<pdfrwt beam="1">  1       21 0.17487304E+00 0.48030523E+03</pdfrwt>
<pdfrwt beam="2">  1       21 0.44475229E-01 0.48030523E+03</pdfrwt>
<totfact> 0.79051762E+02</totfact>
</mgrwt>
</event>
<event>
 4    1  0.4857079E-002  0.4326405E+03  0.7818608E-02  0.1033029E+00
         21   -1    0    0  503  502  0.00000000000E+00  0.00000000000E+00  0.37900055811E+03  0.37900055811E+03  0.00000000000E+00 0. -1.
         21   -1    0    0  501  503 -0.00000000000E+00 -0.00000000000E+00 -0.51026329360E+03  0.51026329360E+03  0.00000000000E+00 0. -1.
    9000005    1    1    2  501    0  0.16351230870E+03 -0.21012310857E+02  0.14059598323E+02  0.43286887692E+03  0.40000000000E+03 0. -1.
   -9000005    1    1    2    0  502 -0.16351230870E+03  0.21012310857E+02 -0.14532233382E+03  0.45639497479E+03  0.40000000000E+03 0. -1.
<mgrwt>
<rscale>  2 0.43264049E+03</rscale>
<asrwt>0</asrwt>
<pdfrwt beam="1">  1       21 0.58307778E-01 0.43264049E+03</pdfrwt>
<pdfrwt beam="2">  1       21 0.78502045E-01 0.43264049E+03</pdfrwt>
<totfact> 0.34743350E+03</totfact>
</mgrwt>
</event>
<event>
 4    1  0.4857079E-002  0.4073711E+03  0.7818608E-02  0.1041257E+00
         21   -1    0    0  501  502  0.00000000000E+00  0.00000000000E+00  0.49309996060E+03  0.49309996060E+03  0.00000000000E+00 0.  1.
         21   -1    0    0  502  503 -0.00000000000E+00 -0.00000000000E+00 -0.74293769548E+03  0.74293769548E+03  0.00000000000E+00 0.  1.
    9000005    1    1    2  501    0  0.76863297386E+02 -0.65736792880E+01  0.33216672335E+03  0.52562906298E+03  0.40000000000E+03 0.  1.
   -9000005    1    1    2    0  503 -0.76863297386E+02  0.65736792880E+01 -0.58200445824E+03  0.71040859310E+03  0.40000000000E+03 0.  1.
<mgrwt>
<rscale>  2 0.40737106E+03</rscale>
<asrwt>0</asrwt>
<pdfrwt beam="1">  1       21 0.75861533E-01 0.40737106E+03</pdfrwt>
<pdfrwt beam="2">  1       21 0.11429811E+00 0.40737106E+03</pdfrwt>
<totfact> 0.79416534E+02</totfact>
</mgrwt>
</event>
<event>
 4    1  0.4857079E-002  0.4095752E+03  0.7818608E-02  0.1040514E+00
         21   -1    0    0  501  502  0.00000000000E+00  0.00000000000E+00  0.69861584765E+03  0.69861584765E+03  0.00000000000E+00 0. -1.
         21   -1    0    0  502  503 -0.00000000000E+00 -0.00000000000E+00 -0.36225824443E+03  0.36225824443E+03  0.00000000000E+00 0. -1.
    9000005    1    1    2  501    0  0.80559593323E+02 -0.35524424096E+02  0.47617832755E+03  0.62809046515E+03  0.40000000000E+03 0. -1.
   -9000005    1    1    2    0  503 -0.80559593323E+02  0.35524424096E+02 -0.13982072434E+03  0.43278362693E+03  0.40000000000E+03 0. -1.
<mgrwt>
<rscale>  2 0.40957519E+03</rscale>
<asrwt>0</asrwt>
<pdfrwt beam="1">  1       21 0.10747936E+00 0.40957519E+03</pdfrwt>
<pdfrwt beam="2">  1       21 0.55732038E-01 0.40957519E+03</pdfrwt>
<totfact> 0.18312719E+03</totfact>
</mgrwt>
</event>
<event>
 4    1  0.4857079E-002  0.4480756E+03  0.7818608E-02  0.1028297E+00
         21   -1    0    0  503  502  0.00000000000E+00  0.00000000000E+00  0.23261627901E+03  0.23261627901E+03  0.00000000000E+00 0.  1.
         21   -1    0    0  501  503 -0.00000000000E+00 -0.00000000000E+00 -0.91544838821E+03  0.91544838821E+03  0.00000000000E+00 0.  1.
    9000005    1    1    2  501    0 -0.20086120008E+03  0.20652833908E+02 -0.47868094716E+03  0.65567309722E+03  0.40000000000E+03 0.  1.
   -9000005    1    1    2    0  502  0.20086120008E+03 -0.20652833908E+02 -0.20415116204E+03  0.49239157000E+03  0.40000000000E+03 0.  1.
<mgrwt>
<rscale>  2 0.44807562E+03</rscale>
<asrwt>0</asrwt>
<pdfrwt beam="1">  1       21 0.35787120E-01 0.44807562E+03</pdfrwt>
<pdfrwt beam="2">  1       21 0.14083821E+00 0.44807562E+03</pdfrwt>
<totfact> 0.22828275E+03</totfact>
</mgrwt>
</event>
<event>
 4    1  0.4857079E-002  0.4250135E+03  0.7818608E-02  0.1035447E+00
         21   -1    0    0  501  502  0.00000000000E+00  0.00000000000E+00  0.17457508637E+03  0.17457508637E+03  0.00000000000E+00 0.  1.
         21   -1    0    0  502  503 -0.00000000000E+00 -0.00000000000E+00 -0.10369453099E+04  0.10369453099E+04  0.00000000000E+00 0.  1.
    9000005    1    1    2  501    0 -0.49394778270E+02 -0.13489483443E+03 -0.40312773938E+03  0.58578872875E+03  0.40000000000E+03 0.  1.
   -9000005    1    1    2    0  503  0.49394778270E+02  0.13489483443E+03 -0.45924248414E+03  0.62573166750E+03  0.40000000000E+03 0.  1.
<mgrwt>
<rscale>  2 0.42501348E+03</rscale>
<asrwt>0</asrwt>
<pdfrwt beam="1">  1       21 0.26857705E-01 0.42501348E+03</pdfrwt>
<pdfrwt beam="2">  1       21 0.15953005E+00 0.42501348E+03</pdfrwt>
<totfact> 0.29104339E+03</totfact>
</mgrwt>
</event>
<event>
 4    1  0.4857079E-002  0.4778423E+03  0.7818608E-02  0.1019730E+00
         21   -1    0    0  503  502  0.00000000000E+00  0.00000000000E+00  0.13339704844E+04  0.13339704844E+04  0.00000000000E+00 0. -1.
         21   -1    0    0  501  503 -0.00000000000E+00 -0.00000000000E+00 -0.18389198299E+03  0.18389198299E+03  0.00000000000E+00 0. -1.
    9000005    1    1    2  501    0  0.15414507810E+03 -0.21112209697E+03  0.37540723081E+03  0.60767082691E+03  0.40000000000E+03 0. -1.
   -9000005    1    1    2    0  502 -0.15414507810E+03  0.21112209697E+03  0.77467127062E+03  0.91019164051E+03  0.40000000000E+03 0. -1.
<mgrwt>
<rscale>  2 0.47784228E+03</rscale>
<asrwt>0</asrwt>
<pdfrwt beam="1">  1       21 0.20522622E+00 0.47784228E+03</pdfrwt>
<pdfrwt beam="2">  1       21 0.28291075E-01 0.47784228E+03</pdfrwt>
<totfact> 0.12273477E+03</totfact>
</mgrwt>
</event>
<event>
 4    1  0.4857079E-002  0.4126105E+03  0.7818608E-02  0.1039499E+00
         21   -1    0    0  501  502  0.00000000000E+00  0.00000000000E+00  0.55582200607E+03  0.55582200607E+03  0.00000000000E+00 0.  1.
         21   -1    0    0  502  503 -0.00000000000E+00 -0.00000000000E+00 -0.55056469224E+03  0.55056469224E+03  0.00000000000E+00 0.  1.
    9000005    1    1    2  501    0 -0.60505655378E+02 -0.81157262490E+02  0.37110063926E+03  0.55494424949E+03  0.40000000000E+03 0.  1.
   -9000005    1    1    2    0  503  0.60505655378E+02  0.81157262490E+02 -0.36584332544E+03  0.55144244881E+03  0.40000000000E+03 0.  1.
<mgrwt>
<rscale>  2 0.41261051E+03</rscale>
<asrwt>0</asrwt>
<pdfrwt beam="1">  1       21 0.85511078E-01 0.41261051E+03</pdfrwt>
<pdfrwt beam="2">  1       21 0.84702260E-01 0.41261051E+03</pdfrwt>
<totfact> 0.12387317E+03</totfact>
</mgrwt>
</event>
<event>
 4    1  0.4857079E-002  0.4926023E+03  0.7818608E-02  0.1015728E+00
         21   -1    0    0  501  502  0.00000000000E+00  0.00000000000E+00  0.10674594484E+04  0.10674594484E+04  0.00000000000E+00 0. -1.
         21   -1    0    0  502  503 -0.00000000000E+00 -0.00000000000E+00 -0.35942550999E+03  0.35942550999E+03  0.00000000000E+00 0. -1.
    9000005    1    1    2  501    0  0.18975998716E+03  0.21598198746E+03  0.78654236206E+03  0.92806570831E+03  0.40000000000E+03 0. -1.
   -9000005    1    1    2    0  503 -0.18975998716E+03 -0.21598198746E+03 -0.78508423671E+02  0.49881925005E+03  0.40000000000E+03 0. -1.
<mgrwt>
<rscale>  2 0.49260235E+03</rscale>
<asrwt>0</asrwt>
<pdfrwt beam="1">  1       21 0.16422453E+00 0.49260235E+03</pdfrwt>
<pdfrwt beam="2">  1       21 0.55296233E-01 0.49260235E+03</pdfrwt>
<totfact> 0.59177701E+02</totfact>
</mgrwt>
</event>
<event>
 4    1  0.4857079E-002  0.5494248E+03  0.7818608E-02  0.1001627E+00
         21   -1    0    0  503  502  0.00000000000E+00  0.00000000000E+00  0.74963361041E+03  0.74963361041E+03  0.00000000000E+00 0. -1.
         21   -1    0    0  501  503 -0.00000000000E+00 -0.00000000000E+00 -0.46247452274E+03  0.46247452274E+03  0.00000000000E+00 0. -1.
    9000005    1    1    2  501    0 -0.27202863318E+03 -0.26051483669E+03 -0.74328609611E+02  0.55442970664E+03  0.40000000000E+03 0. -1.
   -9000005    1    1    2    0  502  0.27202863318E+03  0.26051483669E+03  0.36148769728E+03  0.65767842650E+03  0.40000000000E+03 0. -1.
<mgrwt>
<rscale>  2 0.54942475E+03</rscale>
<asrwt>0</asrwt>
<pdfrwt beam="1">  1       21 0.11532825E+00 0.54942475E+03</pdfrwt>
<pdfrwt beam="2">  1       21 0.71149926E-01 0.54942475E+03</pdfrwt>
<totfact> 0.84867023E+02</totfact>
</mgrwt>
</event>
<event>
 4    1  0.4857079E-002  0.5219785E+03  0.7818608E-02  0.1008196E+00
         21   -1    0    0  501  502  0.00000000000E+00  0.00000000000E+00  0.87378635041E+03  0.87378635041E+03  0.00000000000E+00 0. -1.
         21   -1    0    0  502  503 -0.00000000000E+00 -0.00000000000E+00 -0.98790968106E+03  0.98790968106E+03  0.00000000000E+00 0. -1.
    9000005    1    1    2  501    0 -0.18687781264E+03 -0.27845687421E+03  0.71299597429E+03  0.88364291826E+03  0.40000000000E+03 0. -1.
   -9000005    1    1    2    0  503  0.18687781264E+03  0.27845687421E+03 -0.82711930494E+03  0.97805311321E+03  0.40000000000E+03 0. -1.
<mgrwt>
<rscale>  2 0.52197849E+03</rscale>
<asrwt>0</asrwt>
<pdfrwt beam="1">  1       21 0.13442867E+00 0.52197849E+03</pdfrwt>
<pdfrwt beam="2">  1       21 0.15198610E+00 0.52197849E+03</pdfrwt>
<totfact> 0.88331792E+01</totfact>
</mgrwt>
</event>
<event>
 4    1  0.4857079E-002  0.4447295E+03  0.7818608E-02  0.1029306E+00
         21   -1    0    0  501  502  0.00000000000E+00  0.00000000000E+00  0.24821683909E+04  0.24821683909E+04  0.00000000000E+00 0.  1.
         21   -1    0    0  502  503 -0.00000000000E+00 -0.00000000000E+00 -0.88048272442E+02  0.88048272442E+02  0.00000000000E+00 0.  1.
    9000005    1    1    2  501    0 -0.11491541749E+03  0.15677619741E+03  0.15931951911E+04  0.16541025501E+04  0.40000000000E+03 0.  1.
   -9000005    1    1    2    0  503  0.11491541749E+03 -0.15677619741E+03  0.80092492740E+03  0.91611411329E+03  0.40000000000E+03 0.  1.
<mgrwt>
<rscale>  2 0.44472950E+03</rscale>
<asrwt>0</asrwt>
<pdfrwt beam="1">  1       21 0.38187201E+00 0.44472950E+03</pdfrwt>
<pdfrwt beam="2">  1       21 0.13545890E-01 0.44472950E+03</pdfrwt>
<totfact> 0.41394571E+02</totfact>
</mgrwt>
</event>
<event>
 4    1  0.4857079E-002  0.7611005E+03  0.7818608E-02  0.9618095E-01
         21   -1    0    0  501  502  0.00000000000E+00  0.00000000000E+00  0.24372066042E+04  0.24372066042E+04  0.00000000000E+00 0.  1.
         21   -1    0    0  502  503 -0.00000000000E+00 -0.00000000000E+00 -0.29453905679E+03  0.29453905679E+03  0.00000000000E+00 0. -1.
    9000005    1    1    2  501    0  0.62256609047E+03 -0.17800405767E+03  0.16714573079E+04  0.18365847417E+04  0.40000000000E+03 0.  1.
   -9000005    1    1    2    0  503 -0.62256609047E+03  0.17800405767E+03  0.47121023957E+03  0.89516091929E+03  0.40000000000E+03 0. -1.
<mgrwt>
<rscale>  2 0.76110051E+03</rscale>
<asrwt>0</asrwt>
<pdfrwt beam="1">  1       21 0.37495485E+00 0.76110051E+03</pdfrwt>
<pdfrwt beam="2">  1       21 0.45313703E-01 0.76110051E+03</pdfrwt>
<totfact> 0.36479610E+01</totfact>
</mgrwt>
</event>
<event>
 4    1  0.4857079E-002  0.7184787E+03  0.7818608E-02  0.9686143E-01
         21   -1    0    0  501  502  0.00000000000E+00  0.00000000000E+00  0.69729912971E+03  0.69729912971E+03  0.00000000000E+00 0. -1.
         21   -1    0    0  502  503 -0.00000000000E+00 -0.00000000000E+00 -0.10741296260E+04  0.10741296260E+04  0.00000000000E+00 0. -1.
    9000005    1    1    2  501    0 -0.32456401511E+03  0.50086902785E+03  0.30535715931E+03  0.78067571866E+03  0.40000000000E+03 0. -1.
   -9000005    1    1    2    0  503  0.32456401511E+03 -0.50086902785E+03 -0.68218765562E+03  0.99075303706E+03  0.40000000000E+03 0. -1.
<mgrwt>
<rscale>  2 0.71847866E+03</rscale>
<asrwt>0</asrwt>
<pdfrwt beam="1">  1       21 0.10727679E+00 0.71847866E+03</pdfrwt>
<pdfrwt beam="2">  1       21 0.16525071E+00 0.71847866E+03</pdfrwt>
<totfact> 0.11520207E+02</totfact>
</mgrwt>
</event>
<event>
 4    1  0.4857079E-002  0.4574356E+03  0.7818608E-02  0.1025528E+00
         21   -1    0    0  503  502  0.00000000000E+00  0.00000000000E+00  0.17159987945E+03  0.17159987945E+03  0.00000000000E+00 0. -1.
         21   -1    0    0  501  503 -0.00000000000E+00 -0.00000000000E+00 -0.12223622593E+04  0.12223622593E+04  0.00000000000E+00 0. -1.
    9000005    1    1    2  501    0  0.56262232255E+02 -0.21466700138E+03 -0.49101856534E+03  0.67107867778E+03  0.40000000000E+03 0. -1.
   -9000005    1    1    2    0  502 -0.56262232255E+02  0.21466700138E+03 -0.55974381453E+03  0.72288346098E+03  0.40000000000E+03 0. -1.
<mgrwt>
<rscale>  2 0.45743564E+03</rscale>
<asrwt>0</asrwt>
<pdfrwt beam="1">  1       21 0.26399982E-01 0.45743564E+03</pdfrwt>
<pdfrwt beam="2">  1       21 0.18805573E+00 0.45743564E+03</pdfrwt>
<totfact> 0.18515512E+03</totfact>
</mgrwt>
</event>
<event>
 4    1  0.4857079E-002  0.4531279E+03  0.7818608E-02  0.1026793E+00
         21   -1    0    0  503  502  0.00000000000E+00  0.00000000000E+00  0.14119264370E+04  0.14119264370E+04  0.00000000000E+00 0.  1.
         21   -1    0    0  501  503 -0.00000000000E+00 -0.00000000000E+00 -0.18771357090E+03  0.18771357090E+03  0.00000000000E+00 0. -1.
    9000005    1    1    2  501    0  0.12104215925E+03 -0.17513912639E+03  0.23246619407E+03  0.50927934308E+03  0.40000000000E+03 0. -1.
   -9000005    1    1    2    0  502 -0.12104215925E+03  0.17513912639E+03  0.99174667200E+03  0.10903606648E+04  0.40000000000E+03 0.  1.
<mgrwt>
<rscale>  2 0.45312793E+03</rscale>
<asrwt>0</asrwt>
<pdfrwt beam="1">  1       21 0.21721945E+00 0.45312793E+03</pdfrwt>
<pdfrwt beam="2">  1       21 0.28879012E-01 0.45312793E+03</pdfrwt>
<totfact> 0.99539840E+02</totfact>
</mgrwt>
</event>
<event>
 4    1  0.4857079E-002  0.5643567E+03  0.7818608E-02  0.9982245E-01
         21   -1    0    0  503  502  0.00000000000E+00  0.00000000000E+00  0.13093541738E+04  0.13093541738E+04  0.00000000000E+00 0.  1.
         21   -1    0    0  501  503 -0.00000000000E+00 -0.00000000000E+00 -0.33985220204E+03  0.33985220204E+03  0.00000000000E+00 0.  1.
    9000005    1    1    2  501    0  0.26093258963E+03 -0.30068704156E+03  0.92439050303E+03  0.10830495443E+04  0.40000000000E+03 0.  1.
   -9000005    1    1    2    0  502 -0.26093258963E+03  0.30068704156E+03  0.45111468727E+02  0.56615683155E+03  0.40000000000E+03 0.  1.
<mgrwt>
<rscale>  2 0.56435673E+03</rscale>
<asrwt>0</asrwt>
<pdfrwt beam="1">  1       21 0.20143910E+00 0.56435673E+03</pdfrwt>
<pdfrwt beam="2">  1       21 0.52284955E-01 0.56435673E+03</pdfrwt>
<totfact> 0.35460514E+02</totfact>
</mgrwt>
</event>
<event>
 4    1  0.4857079E-002  0.4717551E+03  0.7818608E-02  0.1021426E+00
         21   -1    0    0  501  502  0.00000000000E+00  0.00000000000E+00  0.34893760988E+03  0.34893760988E+03  0.00000000000E+00 0. -1.
         21   -1    0    0  502  503 -0.00000000000E+00 -0.00000000000E+00 -0.10999676023E+04  0.10999676023E+04  0.00000000000E+00 0. -1.
    9000005    1    1    2  501    0 -0.24738243813E+03 -0.36807732488E+02  0.94075334007E+02  0.48104370730E+03  0.40000000000E+03 0. -1.
   -9000005    1    1    2    0  503  0.24738243813E+03  0.36807732488E+02 -0.84510532643E+03  0.96786150488E+03  0.40000000000E+03 0. -1.
<mgrwt>
<rscale>  2 0.47175511E+03</rscale>
<asrwt>0</asrwt>
<pdfrwt beam="1">  1       21 0.53682710E-01 0.47175511E+03</pdfrwt>
<pdfrwt beam="2">  1       21 0.16922578E+00 0.47175511E+03</pdfrwt>
<totfact> 0.58472417E+02</totfact>
</mgrwt>
</event>
<event>
 4    1  0.4857079E-002  0.4050432E+03  0.7818608E-02  0.1042047E+00
         21   -1    0    0  501  502  0.00000000000E+00  0.00000000000E+00  0.79532380719E+02  0.79532380719E+02  0.00000000000E+00 0. -1.
         21   -1    0    0  502  503 -0.00000000000E+00 -0.00000000000E+00 -0.20664389473E+04  0.20664389473E+04  0.00000000000E+00 0. -1.
    9000005    1    1    2  501    0 -0.51407657843E+02 -0.37646690407E+02 -0.94847523638E+03  0.10313415024E+04  0.40000000000E+03 0. -1.
   -9000005    1    1    2    0  503  0.51407657843E+02  0.37646690407E+02 -0.10384313302E+04  0.11146298256E+04  0.40000000000E+03 0. -1.
<mgrwt>
<rscale>  2 0.40504323E+03</rscale>
<asrwt>0</asrwt>
<pdfrwt beam="1">  1       21 0.12235751E-01 0.40504323E+03</pdfrwt>
<pdfrwt beam="2">  1       21 0.31791367E+00 0.40504323E+03</pdfrwt>
<totfact> 0.12608366E+03</totfact>
</mgrwt>
</event>
<event>
 4    1  0.4857079E-002  0.4516574E+03  0.7818608E-02  0.1027229E+00
         21   -1    0    0  503  502  0.00000000000E+00  0.00000000000E+00  0.60294845599E+03  0.60294845599E+03  0.00000000000E+00 0. -1.
         21   -1    0    0  501  503 -0.00000000000E+00 -0.00000000000E+00 -0.45823628748E+03  0.45823628748E+03  0.00000000000E+00 0. -1.
    9000005    1    1    2  501    0  0.20610153068E+03 -0.38942618711E+02 -0.19906325775E+03  0.49357932401E+03  0.40000000000E+03 0. -1.
   -9000005    1    1    2    0  502 -0.20610153068E+03  0.38942618711E+02  0.34377542626E+03  0.56760541946E+03  0.40000000000E+03 0. -1.
<mgrwt>
<rscale>  2 0.45165736E+03</rscale>
<asrwt>0</asrwt>
<pdfrwt beam="1">  1       21 0.92761302E-01 0.45165736E+03</pdfrwt>
<pdfrwt beam="2">  1       21 0.70497890E-01 0.45165736E+03</pdfrwt>
<totfact> 0.15323141E+03</totfact>
</mgrwt>
</event>
<event>
 4    1  0.4857079E-002  0.4517611E+03  0.7818608E-02  0.1027198E+00
         21   -1    0    0  501  502  0.00000000000E+00  0.00000000000E+00  0.66383617219E+03  0.66383617219E+03  0.00000000000E+00 0.  1.
         21   -1    0    0  502  503 -0.00000000000E+00 -0.00000000000E+00 -0.31373731348E+03  0.31373731348E+03  0.00000000000E+00 0. -1.
    9000005    1    1    2  501    0 -0.20242096314E+03  0.55802191876E+02  0.10578658951E+03  0.46398160896E+03  0.40000000000E+03 0. -1.
   -9000005    1    1    2    0  503  0.20242096314E+03 -0.55802191876E+02  0.24431226920E+03  0.51359187670E+03  0.40000000000E+03 0.  1.
<mgrwt>
<rscale>  2 0.45176114E+03</rscale>
<asrwt>0</asrwt>
<pdfrwt beam="1">  1       21 0.10212864E+00 0.45176114E+03</pdfrwt>
<pdfrwt beam="2">  1       21 0.48267279E-01 0.45176114E+03</pdfrwt>
<totfact> 0.27770393E+03</totfact>
</mgrwt>
</event>
<event>
 4    1  0.4857079E-002  0.4190097E+03  0.7818608E-02  0.1037389E+00
         21   -1    0    0  503  502  0.00000000000E+00  0.00000000000E+00  0.23241745094E+03  0.23241745094E+03  0.00000000000E+00 0.  1.
         21   -1    0    0  501  503 -0.00000000000E+00 -0.00000000000E+00 -0.96442644407E+03  0.96442644407E+03  0.00000000000E+00 0.  1.
    9000005    1    1    2  501    0  0.94869259536E+02 -0.81049050682E+02 -0.87412149327E+02  0.42803038312E+03  0.40000000000E+03 0.  1.
   -9000005    1    1    2    0  502 -0.94869259536E+02  0.81049050682E+02 -0.64459684380E+03  0.76881351189E+03  0.40000000000E+03 0.  1.
<mgrwt>
<rscale>  2 0.41900970E+03</rscale>
<asrwt>0</asrwt>
<pdfrwt beam="1">  1       21 0.35756531E-01 0.41900970E+03</pdfrwt>
<pdfrwt beam="2">  1       21 0.14837330E+00 0.41900970E+03</pdfrwt>
<totfact> 0.20118551E+03</totfact>
</mgrwt>
</event>
<event>
 4    1  0.4857079E-002  0.4433724E+03  0.7818608E-02  0.1029717E+00
         21   -1    0    0  503  502  0.00000000000E+00  0.00000000000E+00  0.68479792989E+03  0.68479792989E+03  0.00000000000E+00 0. -1.
         21   -1    0    0  501  503 -0.00000000000E+00 -0.00000000000E+00 -0.31968128169E+03  0.31968128169E+03  0.00000000000E+00 0. -1.
    9000005    1    1    2  501    0  0.14340157875E+03 -0.12655080701E+03  0.22125624153E+02  0.44392416333E+03  0.40000000000E+03 0. -1.
   -9000005    1    1    2    0  502 -0.14340157875E+03  0.12655080701E+03  0.34299102406E+03  0.56055504825E+03  0.40000000000E+03 0. -1.
<mgrwt>
<rscale>  2 0.44337244E+03</rscale>
<asrwt>0</asrwt>
<pdfrwt beam="1">  1       21 0.10535353E+00 0.44337244E+03</pdfrwt>
<pdfrwt beam="2">  1       21 0.49181736E-01 0.44337244E+03</pdfrwt>
<totfact> 0.24803028E+03</totfact>
</mgrwt>
</event>
<event>
 4    1  0.4857079E-002  0.4205873E+03  0.7818608E-02  0.1036875E+00
         21   -1    0    0  501  502  0.00000000000E+00  0.00000000000E+00  0.55391521657E+03  0.55391521657E+03  0.00000000000E+00 0.  1.
         21   -1    0    0  502  503 -0.00000000000E+00 -0.00000000000E+00 -0.38676045106E+03  0.38676045106E+03  0.00000000000E+00 0.  1.
    9000005    1    1    2  501    0 -0.77449867724E+02  0.10438011895E+03  0.27993486784E+03  0.50522986994E+03  0.40000000000E+03 0.  1.
   -9000005    1    1    2    0  503  0.77449867724E+02 -0.10438011895E+03 -0.11278010233E+03  0.43544579769E+03  0.40000000000E+03 0.  1.
<mgrwt>
<rscale>  2 0.42058732E+03</rscale>
<asrwt>0</asrwt>
<pdfrwt beam="1">  1       21 0.85217725E-01 0.42058732E+03</pdfrwt>
<pdfrwt beam="2">  1       21 0.59501608E-01 0.42058732E+03</pdfrwt>
<totfact> 0.27603972E+03</totfact>
</mgrwt>
</event>
<event>
 4    1  0.4857079E-002  0.4309211E+03  0.7818608E-02  0.1033569E+00
         21   -1    0    0  503  502  0.00000000000E+00  0.00000000000E+00  0.20173848246E+03  0.20173848246E+03  0.00000000000E+00 0. -1.
         21   -1    0    0  501  503 -0.00000000000E+00 -0.00000000000E+00 -0.95202086271E+03  0.95202086271E+03  0.00000000000E+00 0. -1.
    9000005    1    1    2  501    0  0.10986620481E+03  0.11671491215E+03 -0.27011179788E+03  0.50857972534E+03  0.40000000000E+03 0. -1.
   -9000005    1    1    2    0  502 -0.10986620481E+03 -0.11671491215E+03 -0.48017058237E+03  0.64517961984E+03  0.40000000000E+03 0. -1.
<mgrwt>
<rscale>  2 0.43092105E+03</rscale>
<asrwt>0</asrwt>
<pdfrwt beam="1">  1       21 0.31036690E-01 0.43092105E+03</pdfrwt>
<pdfrwt beam="2">  1       21 0.14646475E+00 0.43092105E+03</pdfrwt>
<totfact> 0.27553296E+03</totfact>
</mgrwt>
</event>
<event>
 4    1  0.4857079E-002  0.5190432E+03  0.7818608E-02  0.1008925E+00
         21   -1    0    0  501  502  0.00000000000E+00  0.00000000000E+00  0.94118652890E+03  0.94118652890E+03  0.00000000000E+00 0. -1.
         21   -1    0    0  502  503 -0.00000000000E+00 -0.00000000000E+00 -0.30530755191E+03  0.30530755191E+03  0.00000000000E+00 0. -1.
    9000005    1    1    2  501    0  0.22195419423E+02  0.33002005082E+03  0.47369061392E+03  0.70270098072E+03  0.40000000000E+03 0. -1.
   -9000005    1    1    2    0  503 -0.22195419423E+02 -0.33002005082E+03  0.16218836308E+03  0.54379310009E+03  0.40000000000E+03 0. -1.
<mgrwt>
<rscale>  2 0.51904323E+03</rscale>
<asrwt>0</asrwt>
<pdfrwt beam="1">  1       21 0.14479793E+00 0.51904323E+03</pdfrwt>
<pdfrwt beam="2">  1       21 0.46970393E-01 0.51904323E+03</pdfrwt>
<totfact> 0.11751877E+03</totfact>
</mgrwt>
</event>
<event>
 4    1  0.4857079E-002  0.7213788E+03  0.7818608E-02  0.9681354E-01
         21   -1    0    0  501  502  0.00000000000E+00  0.00000000000E+00  0.14370352795E+04  0.14370352795E+04  0.00000000000E+00 0.  1.
         21   -1    0    0  502  503 -0.00000000000E+00 -0.00000000000E+00 -0.53085862664E+03  0.53085862664E+03  0.00000000000E+00 0.  1.
    9000005    1    1    2  501    0 -0.49155354061E+03 -0.34461944115E+03  0.10078189392E+04  0.12393895500E+04  0.40000000000E+03 0.  1.
   -9000005    1    1    2    0  503  0.49155354061E+03  0.34461944115E+03 -0.10164228634E+03  0.72850435612E+03  0.40000000000E+03 0.  1.
<mgrwt>
<rscale>  2 0.72137885E+03</rscale>
<asrwt>0</asrwt>
<pdfrwt beam="1">  1       21 0.22108235E+00 0.72137885E+03</pdfrwt>
<pdfrwt beam="2">  1       21 0.81670559E-01 0.72137885E+03</pdfrwt>
<totfact> 0.91184892E+01</totfact>
</mgrwt>
</event>
<event>
 4    1  0.4857079E-002  0.4484027E+03  0.7818608E-02  0.1028199E+00
         21   -1    0    0  503  502  0.00000000000E+00  0.00000000000E+00  0.11934272331E+04  0.11934272331E+04  0.00000000000E+00 0. -1.
         21   -1    0    0  501  503 -0.00000000000E+00 -0.00000000000E+00 -0.16962240464E+03  0.16962240464E+03  0.00000000000E+00 0.  1.
    9000005    1    1    2  501    0  0.81519284034E+02  0.18552526354E+03  0.45589788262E+03  0.63945906550E+03  0.40000000000E+03 0.  1.
   -9000005    1    1    2    0  502 -0.81519284034E+02 -0.18552526354E+03  0.56790694581E+03  0.72359057220E+03  0.40000000000E+03 0. -1.
<mgrwt>
<rscale>  2 0.44840274E+03</rscale>
<asrwt>0</asrwt>
<pdfrwt beam="1">  1       21 0.18360418E+00 0.44840274E+03</pdfrwt>
<pdfrwt beam="2">  1       21 0.26095755E-01 0.44840274E+03</pdfrwt>
<totfact> 0.20409637E+03</totfact>
</mgrwt>
</event>
<event>
 4    1  0.4857079E-002  0.4323040E+03  0.7818608E-02  0.1033135E+00
         21   -1    0    0  501  502  0.00000000000E+00  0.00000000000E+00  0.47769273318E+03  0.47769273318E+03  0.00000000000E+00 0. -1.
         21   -1    0    0  502  503 -0.00000000000E+00 -0.00000000000E+00 -0.10337827183E+04  0.10337827183E+04  0.00000000000E+00 0. -1.
    9000005    1    1    2  501    0 -0.10551949214E+03 -0.12550853378E+03  0.31777015362E+03  0.53653017232E+03  0.40000000000E+03 0. -1.
   -9000005    1    1    2    0  503  0.10551949214E+03  0.12550853378E+03 -0.87386013874E+03  0.97494527916E+03  0.40000000000E+03 0. -1.
<mgrwt>
<rscale>  2 0.43230401E+03</rscale>
<asrwt>0</asrwt>
<pdfrwt beam="1">  1       21 0.73491190E-01 0.43230401E+03</pdfrwt>
<pdfrwt beam="2">  1       21 0.15904349E+00 0.43230401E+03</pdfrwt>
<totfact> 0.35433795E+02</totfact>
</mgrwt>
</event>
<event>
 4    1  0.4857079E-002  0.4954653E+03  0.7818608E-02  0.1014969E+00
         21   -1    0    0  503  502  0.00000000000E+00  0.00000000000E+00  0.48523258688E+03  0.48523258688E+03  0.00000000000E+00 0. -1.
         21   -1    0    0  501  503 -0.00000000000E+00 -0.00000000000E+00 -0.68565666276E+03  0.68565666276E+03  0.00000000000E+00 0. -1.
    9000005    1    1    2  501    0 -0.23265032135E+03  0.17708673228E+03 -0.39996138649E+03  0.63675347935E+03  0.40000000000E+03 0. -1.
   -9000005    1    1    2    0  502  0.23265032135E+03 -0.17708673228E+03  0.19953731062E+03  0.53413577029E+03  0.40000000000E+03 0. -1.
<mgrwt>
<rscale>  2 0.49546532E+03</rscale>
<asrwt>0</asrwt>
<pdfrwt beam="1">  1       21 0.74651167E-01 0.49546532E+03</pdfrwt>
<pdfrwt beam="2">  1       21 0.10548564E+00 0.49546532E+03</pdfrwt>
<totfact> 0.96858702E+02</totfact>
</mgrwt>
</event>
<event>
 4    1  0.4857079E-002  0.4384063E+03  0.7818608E-02  0.1031237E+00
         21   -1    0    0  501  502  0.00000000000E+00  0.00000000000E+00  0.48710958634E+03  0.48710958634E+03  0.00000000000E+00 0. -1.
         21   -1    0    0  502  503 -0.00000000000E+00 -0.00000000000E+00 -0.40073390581E+03  0.40073390581E+03  0.00000000000E+00 0. -1.
    9000005    1    1    2  501    0  0.52187196294E+02 -0.17168756839E+03 -0.11856501986E+02  0.43856664401E+03  0.40000000000E+03 0.  1.
   -9000005    1    1    2    0  503 -0.52187196294E+02  0.17168756839E+03  0.98232182524E+02  0.44927684814E+03  0.40000000000E+03 0.  1.
<mgrwt>
<rscale>  2 0.43840635E+03</rscale>
<asrwt>0</asrwt>
<pdfrwt beam="1">  1       21 0.74939936E-01 0.43840635E+03</pdfrwt>
<pdfrwt beam="2">  1       21 0.61651370E-01 0.43840635E+03</pdfrwt>
<totfact> 0.34128076E+03</totfact>
</mgrwt>
</event>
<event>
 4    1  0.4857079E-002  0.4406376E+03  0.7818608E-02  0.1030551E+00
         21   -1    0    0  501  502  0.00000000000E+00  0.00000000000E+00  0.10553966452E+03  0.10553966452E+03  0.00000000000E+00 0.  1.
         21   -1    0    0  502  503 -0.00000000000E+00 -0.00000000000E+00 -0.24395407054E+04  0.24395407054E+04  0.00000000000E+00 0. -1.
    9000005    1    1    2  501    0 -0.16618470860E+03 -0.80895691920E+02 -0.53599243353E+03  0.69386551950E+03  0.40000000000E+03 0.  1.
   -9000005    1    1    2    0  503  0.16618470860E+03  0.80895691920E+02 -0.17980086074E+04  0.18512148504E+04  0.40000000000E+03 0. -1.
<mgrwt>
<rscale>  2 0.44063757E+03</rscale>
<asrwt>0</asrwt>
<pdfrwt beam="1">  1       21 0.16236871E-01 0.44063757E+03</pdfrwt>
<pdfrwt beam="2">  1       21 0.37531395E+00 0.44063757E+03</pdfrwt>
<totfact> 0.32618394E+02</totfact>
</mgrwt>
</event>
<event>
 4    1  0.4857079E-002  0.5101028E+03  0.7818608E-02  0.1011175E+00
         21   -1    0    0  501  502  0.00000000000E+00  0.00000000000E+00  0.78921282276E+03  0.78921282276E+03  0.00000000000E+00 0. -1.
         21   -1    0    0  502  503 -0.00000000000E+00 -0.00000000000E+00 -0.33017098732E+03  0.33017098732E+03  0.00000000000E+00 0.  1.
    9000005    1    1    2  501    0 -0.31197313800E+03 -0.53643698741E+02  0.25061955779E+03  0.56834412815E+03  0.40000000000E+03 0.  1.
   -9000005    1    1    2    0  503  0.31197313800E+03  0.53643698741E+02  0.20842227765E+03  0.55103968194E+03  0.40000000000E+03 0. -1.
<mgrwt>
<rscale>  2 0.51010282E+03</rscale>
<asrwt>0</asrwt>
<pdfrwt beam="1">  1       21 0.12141736E+00 0.51010282E+03</pdfrwt>
<pdfrwt beam="2">  1       21 0.50795537E-01 0.51010282E+03</pdfrwt>
<totfact> 0.15847691E+03</totfact>
</mgrwt>
</event>
<event>
 4    1  0.4857079E-002  0.5341335E+03  0.7818608E-02  0.1005235E+00
         21   -1    0    0  503  502  0.00000000000E+00  0.00000000000E+00  0.19286370679E+03  0.19286370679E+03  0.00000000000E+00 0. -1.
         21   -1    0    0  501  503 -0.00000000000E+00 -0.00000000000E+00 -0.15299857193E+04  0.15299857193E+04  0.00000000000E+00 0.  1.
    9000005    1    1    2  501    0 -0.29788940464E+02  0.35271977039E+03 -0.82538771416E+03  0.98313961170E+03  0.40000000000E+03 0. -1.
   -9000005    1    1    2    0  502  0.29788940464E+02 -0.35271977039E+03 -0.51173429831E+03  0.73970981437E+03  0.40000000000E+03 0.  1.
<mgrwt>
<rscale>  2 0.53413352E+03</rscale>
<asrwt>0</asrwt>
<pdfrwt beam="1">  1       21 0.29671338E-01 0.53413352E+03</pdfrwt>
<pdfrwt beam="2">  1       21 0.23538243E+00 0.53413352E+03</pdfrwt>
<totfact> 0.69772565E+02</totfact>
</mgrwt>
</event>
<event>
 4    1  0.4857079E-002  0.4343428E+03  0.7818608E-02  0.1032497E+00
         21   -1    0    0  503  502  0.00000000000E+00  0.00000000000E+00  0.11371883959E+04  0.11371883959E+04  0.00000000000E+00 0. -1.
         21   -1    0    0  501  503 -0.00000000000E+00 -0.00000000000E+00 -0.16986337500E+03  0.16986337500E+03  0.00000000000E+00 0. -1.
    9000005    1    1    2  501    0  0.67825196774E+02  0.15509170543E+03  0.58355381148E+03  0.72745360354E+03  0.40000000000E+03 0.  1.
   -9000005    1    1    2    0  502 -0.67825196774E+02 -0.15509170543E+03  0.38377120938E+03  0.57959816732E+03  0.40000000000E+03 0.  1.
<mgrwt>
<rscale>  2 0.43434283E+03</rscale>
<asrwt>0</asrwt>
<pdfrwt beam="1">  1       21 0.17495206E+00 0.43434283E+03</pdfrwt>
<pdfrwt beam="2">  1       21 0.26132828E-01 0.43434283E+03</pdfrwt>
<totfact> 0.23566224E+03</totfact>
</mgrwt>
</event>
<event>
 4    1  0.4857079E-002  0.4642618E+03  0.7818608E-02  0.1023552E+00
         21   -1    0    0  503  502  0.00000000000E+00  0.00000000000E+00  0.81493809984E+03  0.81493809984E+03  0.00000000000E+00 0.  1.
         21   -1    0    0  501  503 -0.00000000000E+00 -0.00000000000E+00 -0.97645401587E+03  0.97645401587E+03  0.00000000000E+00 0. -1.
    9000005    1    1    2  501    0  0.13949053765E+03  0.18995099920E+03 -0.84558859917E+03  0.96465489748E+03  0.40000000000E+03 0. -1.
   -9000005    1    1    2    0  502 -0.13949053765E+03 -0.18995099920E+03  0.68407268314E+03  0.82673721823E+03  0.40000000000E+03 0.  1.
<mgrwt>
<rscale>  2 0.46426177E+03</rscale>
<asrwt>0</asrwt>
<pdfrwt beam="1">  1       21 0.12537509E+00 0.46426177E+03</pdfrwt>
<pdfrwt beam="2">  1       21 0.15022370E+00 0.46426177E+03</pdfrwt>
<totfact> 0.11255512E+02</totfact>
</mgrwt>
</event>
<event>
 4    1  0.4857079E-002  0.4210508E+03  0.7818608E-02  0.1036725E+00
         21   -1    0    0  503  502  0.00000000000E+00  0.00000000000E+00  0.18457444799E+03  0.18457444799E+03  0.00000000000E+00 0.  1.
         21   -1    0    0  501  503 -0.00000000000E+00 -0.00000000000E+00 -0.96055913270E+03  0.96055913270E+03  0.00000000000E+00 0.  1.
    9000005    1    1    2  501    0  0.13099082766E+03 -0.11188057589E+02 -0.39248221258E+03  0.57560929176E+03  0.40000000000E+03 0.  1.
   -9000005    1    1    2    0  502 -0.13099082766E+03  0.11188057589E+02 -0.38350247212E+03  0.56952428894E+03  0.40000000000E+03 0.  1.
<mgrwt>
<rscale>  2 0.42105079E+03</rscale>
<asrwt>0</asrwt>
<pdfrwt beam="1">  1       21 0.28396069E-01 0.42105079E+03</pdfrwt>
<pdfrwt beam="2">  1       21 0.14777833E+00 0.42105079E+03</pdfrwt>
<totfact> 0.32208628E+03</totfact>
</mgrwt>
</event>
<event>
 4    1  0.4857079E-002  0.4245556E+03  0.7818608E-02  0.1035594E+00
         21   -1    0    0  503  502  0.00000000000E+00  0.00000000000E+00  0.17056240605E+04  0.17056240605E+04  0.00000000000E+00 0.  1.
         21   -1    0    0  501  503 -0.00000000000E+00 -0.00000000000E+00 -0.27142590340E+03  0.27142590340E+03  0.00000000000E+00 0.  1.
    9000005    1    1    2  501    0  0.72602105812E+01 -0.14210830349E+03 -0.55378013873E+02  0.42815208162E+03  0.40000000000E+03 0.  1.
   -9000005    1    1    2    0  502 -0.72602105812E+01  0.14210830349E+03  0.14895761710E+04  0.15488978823E+04  0.40000000000E+03 0.  1.
<mgrwt>
<rscale>  2 0.42455563E+03</rscale>
<asrwt>0</asrwt>
<pdfrwt beam="1">  1       21 0.26240369E+00 0.42455563E+03</pdfrwt>
<pdfrwt beam="2">  1       21 0.41757832E-01 0.42455563E+03</pdfrwt>
<totfact> 0.25112551E+02</totfact>
</mgrwt>
</event>
<event>
 4    1  0.4857079E-002  0.4385911E+03  0.7818608E-02  0.1031180E+00
         21   -1    0    0  501  502  0.00000000000E+00  0.00000000000E+00  0.20751884389E+04  0.20751884389E+04  0.00000000000E+00 0.  1.
         21   -1    0    0  502  503 -0.00000000000E+00 -0.00000000000E+00 -0.21231071943E+03  0.21231071943E+03  0.00000000000E+00 0.  1.
    9000005    1    1    2  501    0  0.41019948734E+02 -0.17515564359E+03  0.17899321195E+04  0.18428833734E+04  0.40000000000E+03 0.  1.
   -9000005    1    1    2    0  503 -0.41019948734E+02  0.17515564359E+03  0.72945600043E+02  0.44461578497E+03  0.40000000000E+03 0.  1.
<mgrwt>
<rscale>  2 0.43859108E+03</rscale>
<asrwt>0</asrwt>
<pdfrwt beam="1">  1       21 0.31925975E+00 0.43859108E+03</pdfrwt>
<pdfrwt beam="2">  1       21 0.32663189E-01 0.43859108E+03</pdfrwt>
<totfact> 0.18674435E+02</totfact>
</mgrwt>
</event>
<event>
 4    1  0.4857079E-002  0.4920490E+03  0.7818608E-02  0.1015875E+00
         21   -1    0    0  501  502  0.00000000000E+00  0.00000000000E+00  0.17644186620E+03  0.17644186620E+03  0.00000000000E+00 0.  1.
         21   -1    0    0  502  503 -0.00000000000E+00 -0.00000000000E+00 -0.14983983964E+04  0.14983983964E+04  0.00000000000E+00 0. -1.
    9000005    1    1    2  501    0 -0.28273061821E+03 -0.46643120674E+02 -0.90401380554E+03  0.10292488250E+04  0.40000000000E+03 0. -1.
   -9000005    1    1    2    0  503  0.28273061821E+03  0.46643120674E+02 -0.41794272464E+03  0.64559143756E+03  0.40000000000E+03 0.  1.
<mgrwt>
<rscale>  2 0.49204896E+03</rscale>
<asrwt>0</asrwt>
<pdfrwt beam="1">  1       21 0.27144903E-01 0.49204896E+03</pdfrwt>
<pdfrwt beam="2">  1       21 0.23052283E+00 0.49204896E+03</pdfrwt>
<totfact> 0.90906654E+02</totfact>
</mgrwt>
</event>
<event>
 4    1  0.4857079E-002  0.4009435E+03  0.7818608E-02  0.1043453E+00
         21   -1    0    0  503  502  0.00000000000E+00  0.00000000000E+00  0.12789971947E+03  0.12789971947E+03  0.00000000000E+00 0.  1.
         21   -1    0    0  501  503 -0.00000000000E+00 -0.00000000000E+00 -0.13280991959E+04  0.13280991959E+04  0.00000000000E+00 0.  1.
    9000005    1    1    2  501    0 -0.18037294826E+02 -0.20744746238E+02 -0.43152660172E+03  0.58904235543E+03  0.40000000000E+03 0.  1.
   -9000005    1    1    2    0  502  0.18037294826E+02  0.20744746238E+02 -0.76867287476E+03  0.86695655998E+03  0.40000000000E+03 0.  1.
<mgrwt>
<rscale>  2 0.40094350E+03</rscale>
<asrwt>0</asrwt>
<pdfrwt beam="1">  1       21 0.19676880E-01 0.40094350E+03</pdfrwt>
<pdfrwt beam="2">  1       21 0.20432296E+00 0.40094350E+03</pdfrwt>
<totfact> 0.25994798E+03</totfact>
</mgrwt>
</event>
<event>
 4    1  0.4857079E-002  0.5651116E+03  0.7818608E-02  0.9980555E-01
         21   -1    0    0  503  502  0.00000000000E+00  0.00000000000E+00  0.19754880493E+04  0.19754880493E+04  0.00000000000E+00 0.  1.
         21   -1    0    0  501  503 -0.00000000000E+00 -0.00000000000E+00 -0.17919287608E+03  0.17919287608E+03  0.00000000000E+00 0.  1.
    9000005    1    1    2  501    0 -0.25628067956E+03 -0.30605763794E+03  0.56112509318E+03  0.79637455676E+03  0.40000000000E+03 0.  1.
   -9000005    1    1    2    0  502  0.25628067956E+03  0.30605763794E+03  0.12351700801E+04  0.13583063687E+04  0.40000000000E+03 0.  1.
<mgrwt>
<rscale>  2 0.56511155E+03</rscale>
<asrwt>0</asrwt>
<pdfrwt beam="1">  1       21 0.30392122E+00 0.56511155E+03</pdfrwt>
<pdfrwt beam="2">  1       21 0.27568136E-01 0.56511155E+03</pdfrwt>
<totfact> 0.30246376E+02</totfact>
</mgrwt>
</event>
<event>
 4    1  0.4857079E-002  0.4237543E+03  0.7818608E-02  0.1035851E+00
         21   -1    0    0  501  502  0.00000000000E+00  0.00000000000E+00  0.69472214264E+03  0.69472214264E+03  0.00000000000E+00 0.  1.
         21   -1    0    0  502  503 -0.00000000000E+00 -0.00000000000E+00 -0.25858973913E+03  0.25858973913E+03  0.00000000000E+00 0.  1.
    9000005    1    1    2  501    0 -0.13505861212E+03  0.36426244388E+02  0.20798762337E+03  0.47204507355E+03  0.40000000000E+03 0.  1.
   -9000005    1    1    2    0  503  0.13505861212E+03 -0.36426244388E+02  0.22814478014E+03  0.48126680822E+03  0.40000000000E+03 0.  1.
<mgrwt>
<rscale>  2 0.42375429E+03</rscale>
<asrwt>0</asrwt>
<pdfrwt beam="1">  1       21 0.10688033E+00 0.42375429E+03</pdfrwt>
<pdfrwt beam="2">  1       21 0.39783037E-01 0.42375429E+03</pdfrwt>
<totfact> 0.37551393E+03</totfact>
</mgrwt>
</event>
<event>
 4    1  0.4857079E-002  0.4334395E+03  0.7818608E-02  0.1032779E+00
         21   -1    0    0  503  502  0.00000000000E+00  0.00000000000E+00  0.54583497129E+03  0.54583497129E+03  0.00000000000E+00 0. -1.
         21   -1    0    0  501  503 -0.00000000000E+00 -0.00000000000E+00 -0.47242405629E+03  0.47242405629E+03  0.00000000000E+00 0. -1.
    9000005    1    1    2  501    0 -0.68195653395E+02 -0.15237835492E+03 -0.22855191448E+03  0.49000590589E+03  0.40000000000E+03 0. -1.
   -9000005    1    1    2    0  502  0.68195653395E+02  0.15237835492E+03  0.30196282948E+03  0.52825312169E+03  0.40000000000E+03 0. -1.
<mgrwt>
<rscale>  2 0.43343951E+03</rscale>
<asrwt>0</asrwt>
<pdfrwt beam="1">  1       21 0.83974611E-01 0.43343951E+03</pdfrwt>
<pdfrwt beam="2">  1       21 0.72680624E-01 0.43343951E+03</pdfrwt>
<totfact> 0.18214171E+03</totfact>
</mgrwt>
</event>
<event>
 4    1  0.4857079E-002  0.4523610E+03  0.7818608E-02  0.1027020E+00
         21   -1    0    0  501  502  0.00000000000E+00  0.00000000000E+00  0.34980461288E+03  0.34980461288E+03  0.00000000000E+00 0.  1.
         21   -1    0    0  502  503 -0.00000000000E+00 -0.00000000000E+00 -0.82266389097E+03  0.82266389097E+03  0.00000000000E+00 0.  1.
    9000005    1    1    2  501    0 -0.90884045792E+02 -0.19071075793E+03  0.78675251303E+02  0.45915171582E+03  0.40000000000E+03 0.  1.
   -9000005    1    1    2    0  503  0.90884045792E+02  0.19071075793E+03 -0.55153452940E+03  0.71331678803E+03  0.40000000000E+03 0.  1.
<mgrwt>
<rscale>  2 0.45236103E+03</rscale>
<asrwt>0</asrwt>
<pdfrwt beam="1">  1       21 0.53816095E-01 0.45236103E+03</pdfrwt>
<pdfrwt beam="2">  1       21 0.12656367E+00 0.45236103E+03</pdfrwt>
<totfact> 0.12858425E+03</totfact>
</mgrwt>
</event>
<event>
 4    1  0.4857079E-002  0.4919275E+03  0.7818608E-02  0.1015908E+00
         21   -1    0    0  501  502  0.00000000000E+00  0.00000000000E+00  0.22549688952E+03  0.22549688952E+03  0.00000000000E+00 0. -1.
         21   -1    0    0  502  503 -0.00000000000E+00 -0.00000000000E+00 -0.10731889764E+04  0.10731889764E+04  0.00000000000E+00 0. -1.
    9000005    1    1    2  501    0  0.62818835011E+02 -0.27936793688E+03 -0.42008333767E+03  0.64688689952E+03  0.40000000000E+03 0. -1.
   -9000005    1    1    2    0  503 -0.62818835011E+02  0.27936793688E+03 -0.42760874919E+03  0.65179896638E+03  0.40000000000E+03 0. -1.
<mgrwt>
<rscale>  2 0.49192748E+03</rscale>
<asrwt>0</asrwt>
<pdfrwt beam="1">  1       21 0.34691830E-01 0.49192748E+03</pdfrwt>
<pdfrwt beam="2">  1       21 0.16510599E+00 0.49192748E+03</pdfrwt>
<totfact> 0.15462226E+03</totfact>
</mgrwt>
</event>
<event>
 4    1  0.4857079E-002  0.4411406E+03  0.7818608E-02  0.1030397E+00
         21   -1    0    0  503  502  0.00000000000E+00  0.00000000000E+00  0.14204621660E+04  0.14204621660E+04  0.00000000000E+00 0.  1.
         21   -1    0    0  501  503 -0.00000000000E+00 -0.00000000000E+00 -0.29243482696E+03  0.29243482696E+03  0.00000000000E+00 0. -1.
    9000005    1    1    2  501    0  0.13898648254E+02  0.18550436960E+03 -0.60380980919E+02  0.44525375509E+03  0.40000000000E+03 0. -1.
   -9000005    1    1    2    0  502 -0.13898648254E+02 -0.18550436960E+03  0.11884083199E+04  0.12676432378E+04  0.40000000000E+03 0.  1.
<mgrwt>
<rscale>  2 0.44114062E+03</rscale>
<asrwt>0</asrwt>
<pdfrwt beam="1">  1       21 0.21853264E+00 0.44114062E+03</pdfrwt>
<pdfrwt beam="2">  1       21 0.44989974E-01 0.44114062E+03</pdfrwt>
<totfact> 0.39878735E+02</totfact>
</mgrwt>
</event>
<event>
 4    1  0.4857079E-002  0.4485728E+03  0.7818608E-02  0.1028148E+00
         21   -1    0    0  501  502  0.00000000000E+00  0.00000000000E+00  0.22922739921E+03  0.22922739921E+03  0.00000000000E+00 0. -1.
         21   -1    0    0  502  503 -0.00000000000E+00 -0.00000000000E+00 -0.88147179790E+03  0.88147179790E+03  0.00000000000E+00 0.  1.
    9000005    1    1    2  501    0 -0.14000654595E+03  0.14702291086E+03 -0.29031687960E+03  0.53432336633E+03  0.40000000000E+03 0. -1.
   -9000005    1    1    2    0  503  0.14000654595E+03 -0.14702291086E+03 -0.36192751909E+03  0.57637583077E+03  0.40000000000E+03 0.  1.
<mgrwt>
<rscale>  2 0.44857281E+03</rscale>
<asrwt>0</asrwt>
<pdfrwt beam="1">  1       21 0.35265754E-01 0.44857281E+03</pdfrwt>
<pdfrwt beam="2">  1       21 0.13561105E+00 0.44857281E+03</pdfrwt>
<totfact> 0.25990169E+03</totfact>
</mgrwt>
</event>
<event>
 4    1  0.4857079E-002  0.4130265E+03  0.7818608E-02  0.1039360E+00
         21   -1    0    0  501  502  0.00000000000E+00  0.00000000000E+00  0.20171178618E+03  0.20171178618E+03  0.00000000000E+00 0.  1.
         21   -1    0    0  502  503 -0.00000000000E+00 -0.00000000000E+00 -0.86419428478E+03  0.86419428478E+03  0.00000000000E+00 0.  1.
    9000005    1    1    2  501    0  0.71675093225E+02 -0.73848246892E+02 -0.40917296067E+03  0.58138919349E+03  0.40000000000E+03 0. -1.
   -9000005    1    1    2    0  503 -0.71675093225E+02  0.73848246892E+02 -0.25330953792E+03  0.48451687748E+03  0.40000000000E+03 0. -1.
<mgrwt>
<rscale>  2 0.41302649E+03</rscale>
<asrwt>0</asrwt>
<pdfrwt beam="1">  1       21 0.31032583E-01 0.41302649E+03</pdfrwt>
<pdfrwt beam="2">  1       21 0.13295297E+00 0.41302649E+03</pdfrwt>
<totfact> 0.35868156E+03</totfact>
</mgrwt>
</event>
<event>
 4    1  0.4857079E-002  0.4229922E+03  0.7818608E-02  0.1036097E+00
         21   -1    0    0  503  502  0.00000000000E+00  0.00000000000E+00  0.44483431537E+03  0.44483431537E+03  0.00000000000E+00 0.  1.
         21   -1    0    0  501  503 -0.00000000000E+00 -0.00000000000E+00 -0.90461447853E+03  0.90461447853E+03  0.00000000000E+00 0.  1.
    9000005    1    1    2  501    0  0.13312609166E+03 -0.34638397079E+02 -0.73271407238E+03  0.84604508550E+03  0.40000000000E+03 0.  1.
   -9000005    1    1    2    0  502 -0.13312609166E+03  0.34638397079E+02  0.27293390922E+03  0.50340370840E+03  0.40000000000E+03 0.  1.
<mgrwt>
<rscale>  2 0.42299217E+03</rscale>
<asrwt>0</asrwt>
<pdfrwt beam="1">  1       21 0.68436049E-01 0.42299217E+03</pdfrwt>
<pdfrwt beam="2">  1       21 0.13917146E+00 0.42299217E+03</pdfrwt>
<totfact> 0.59998743E+02</totfact>
</mgrwt>
</event>
<event>
 4    1  0.4857079E-002  0.4532272E+03  0.7818608E-02  0.1026764E+00
         21   -1    0    0  501  502  0.00000000000E+00  0.00000000000E+00  0.31449085498E+04  0.31449085498E+04  0.00000000000E+00 0. -1.
         21   -1    0    0  502  503 -0.00000000000E+00 -0.00000000000E+00 -0.65317606457E+02  0.65317606457E+02  0.00000000000E+00 0. -1.
    9000005    1    1    2  501    0  0.12973195260E+03 -0.16906968416E+03  0.15337010404E+04  0.15992666504E+04  0.40000000000E+03 0. -1.
   -9000005    1    1    2    0  503 -0.12973195260E+03  0.16906968416E+03  0.15458899030E+04  0.16109595059E+04  0.40000000000E+03 0. -1.
<mgrwt>
<rscale>  2 0.45322725E+03</rscale>
<asrwt>0</asrwt>
<pdfrwt beam="1">  1       21 0.48383197E+00 0.45322725E+03</pdfrwt>
<pdfrwt beam="2">  1       21 0.10048865E-01 0.45322725E+03</pdfrwt>
<totfact> 0.14877111E+02</totfact>
</mgrwt>
</event>
<event>
 4    1  0.4857079E-002  0.5695844E+03  0.7818608E-02  0.9970599E-01
         21   -1    0    0  503  502  0.00000000000E+00  0.00000000000E+00  0.13097396541E+04  0.13097396541E+04  0.00000000000E+00 0.  1.
         21   -1    0    0  501  503 -0.00000000000E+00 -0.00000000000E+00 -0.45531058899E+03  0.45531058899E+03  0.00000000000E+00 0. -1.
    9000005    1    1    2  501    0 -0.39862487291E+03  0.74327836029E+02 -0.16871489765E+03  0.59404640661E+03  0.40000000000E+03 0.  1.
   -9000005    1    1    2    0  502  0.39862487291E+03 -0.74327836029E+02  0.10231439627E+04  0.11710038365E+04  0.40000000000E+03 0.  1.
<mgrwt>
<rscale>  2 0.56958442E+03</rscale>
<asrwt>0</asrwt>
<pdfrwt beam="1">  1       21 0.20149841E+00 0.56958442E+03</pdfrwt>
<pdfrwt beam="2">  1       21 0.70047784E-01 0.56958442E+03</pdfrwt>
<totfact> 0.18540996E+02</totfact>
</mgrwt>
</event>
<event>
 4    1  0.4857079E-002  0.6059838E+03  0.7818608E-02  0.9893069E-01
         21   -1    0    0  503  502  0.00000000000E+00  0.00000000000E+00  0.81207029762E+03  0.81207029762E+03  0.00000000000E+00 0.  1.
         21   -1    0    0  501  503 -0.00000000000E+00 -0.00000000000E+00 -0.49730336289E+03  0.49730336289E+03  0.00000000000E+00 0.  1.
    9000005    1    1    2  501    0  0.45281493545E+03  0.46636872609E+02 -0.39785330070E+02  0.60728842912E+03  0.40000000000E+03 0.  1.
   -9000005    1    1    2    0  502 -0.45281493545E+03 -0.46636872609E+02  0.35455226480E+03  0.70208523139E+03  0.40000000000E+03 0.  1.
<mgrwt>
<rscale>  2 0.60598380E+03</rscale>
<asrwt>0</asrwt>
<pdfrwt beam="1">  1       21 0.12493389E+00 0.60598380E+03</pdfrwt>
<pdfrwt beam="2">  1       21 0.76508210E-01 0.60598380E+03</pdfrwt>
<totfact> 0.57481047E+02</totfact>
</mgrwt>
</event>
<event>
 4    1  0.4857079E-002  0.4073432E+03  0.7818608E-02  0.1041266E+00
         21   -1    0    0  501  502  0.00000000000E+00  0.00000000000E+00  0.67898882906E+03  0.67898882906E+03  0.00000000000E+00 0.  1.
         21   -1    0    0  502  503 -0.00000000000E+00 -0.00000000000E+00 -0.36856865156E+03  0.36856865156E+03  0.00000000000E+00 0.  1.
    9000005    1    1    2  501    0 -0.76910387022E+02 -0.36480661660E+01  0.45925432104E+03  0.61387543314E+03  0.40000000000E+03 0.  1.
   -9000005    1    1    2    0  503  0.76910387022E+02  0.36480661660E+01 -0.14883414354E+03  0.43368204747E+03  0.40000000000E+03 0.  1.
<mgrwt>
<rscale>  2 0.40734324E+03</rscale>
<asrwt>0</asrwt>
<pdfrwt beam="1">  1       21 0.10445982E+00 0.40734324E+03</pdfrwt>
<pdfrwt beam="2">  1       21 0.56702870E-01 0.40734324E+03</pdfrwt>
<totfact> 0.18940296E+03</totfact>
</mgrwt>
</event>
<event>
 4    1  0.4857079E-002  0.4628271E+03  0.7818608E-02  0.1023964E+00
         21   -1    0    0  503  502  0.00000000000E+00  0.00000000000E+00  0.26183690075E+03  0.26183690075E+03  0.00000000000E+00 0. -1.
         21   -1    0    0  501  503 -0.00000000000E+00 -0.00000000000E+00 -0.11222518468E+04  0.11222518468E+04  0.00000000000E+00 0. -1.
    9000005    1    1    2  501    0 -0.18036280219E+03 -0.14723514242E+03 -0.79048201354E+03  0.91600804653E+03  0.40000000000E+03 0. -1.
   -9000005    1    1    2    0  502  0.18036280219E+03  0.14723514242E+03 -0.69932932462E+02  0.46808070097E+03  0.40000000000E+03 0. -1.
<mgrwt>
<rscale>  2 0.46282710E+03</rscale>
<asrwt>0</asrwt>
<pdfrwt beam="1">  1       21 0.40282601E-01 0.46282710E+03</pdfrwt>
<pdfrwt beam="2">  1       21 0.17265413E+00 0.46282710E+03</pdfrwt>
<totfact> 0.10152097E+03</totfact>
</mgrwt>
</event>
<event>
 4    1  0.4857079E-002  0.4250492E+03  0.7818608E-02  0.1035435E+00
         21   -1    0    0  501  502  0.00000000000E+00  0.00000000000E+00  0.24401009706E+03  0.24401009706E+03  0.00000000000E+00 0. -1.
         21   -1    0    0  502  503 -0.00000000000E+00 -0.00000000000E+00 -0.74572144849E+03  0.74572144849E+03  0.00000000000E+00 0.  1.
    9000005    1    1    2  501    0 -0.32676822858E+02  0.13999672213E+03 -0.29263062896E+03  0.51604219010E+03  0.40000000000E+03 0.  1.
   -9000005    1    1    2    0  503  0.32676822858E+02 -0.13999672213E+03 -0.20908072247E+03  0.47368935545E+03  0.40000000000E+03 0. -1.
<mgrwt>
<rscale>  2 0.42504924E+03</rscale>
<asrwt>0</asrwt>
<pdfrwt beam="1">  1       21 0.37540015E-01 0.42504924E+03</pdfrwt>
<pdfrwt beam="2">  1       21 0.11472638E+00 0.42504924E+03</pdfrwt>
<totfact> 0.35457172E+03</totfact>
</mgrwt>
</event>
<event>
 4    1  0.4857079E-002  0.4563884E+03  0.7818608E-02  0.1025834E+00
         21   -1    0    0  503  502  0.00000000000E+00  0.00000000000E+00  0.14528920144E+04  0.14528920144E+04  0.00000000000E+00 0. -1.
         21   -1    0    0  501  503 -0.00000000000E+00 -0.00000000000E+00 -0.14926771199E+03  0.14926771199E+03  0.00000000000E+00 0. -1.
    9000005    1    1    2  501    0  0.16033437038E+03 -0.15027723707E+03  0.49247853544E+03  0.67143537751E+03  0.40000000000E+03 0. -1.
   -9000005    1    1    2    0  502 -0.16033437038E+03  0.15027723707E+03  0.81114576700E+03  0.93072434889E+03  0.40000000000E+03 0. -1.
<mgrwt>
<rscale>  2 0.45638839E+03</rscale>
<asrwt>0</asrwt>
<pdfrwt beam="1">  1       21 0.22352184E+00 0.45638839E+03</pdfrwt>
<pdfrwt beam="2">  1       21 0.22964264E-01 0.45638839E+03</pdfrwt>
<totfact> 0.14172113E+03</totfact>
</mgrwt>
</event>
<event>
 4    1  0.4857079E-002  0.4697955E+03  0.7818608E-02  0.1021978E+00
         21   -1    0    0  503  502  0.00000000000E+00  0.00000000000E+00  0.95638367447E+03  0.95638367447E+03  0.00000000000E+00 0.  1.
         21   -1    0    0  501  503 -0.00000000000E+00 -0.00000000000E+00 -0.37507325694E+03  0.37507325694E+03  0.00000000000E+00 0.  1.
    9000005    1    1    2  501    0 -0.22725090312E+03  0.95209683206E+02 -0.12227068266E+03  0.48544616239E+03  0.40000000000E+03 0.  1.
   -9000005    1    1    2    0  502  0.22725090312E+03 -0.95209683206E+02  0.70358110019E+03  0.84601076901E+03  0.40000000000E+03 0.  1.
<mgrwt>
<rscale>  2 0.46979555E+03</rscale>
<asrwt>0</asrwt>
<pdfrwt beam="1">  1       21 0.14713595E+00 0.46979555E+03</pdfrwt>
<pdfrwt beam="2">  1       21 0.57703578E-01 0.46979555E+03</pdfrwt>
<totfact> 0.73775768E+02</totfact>
</mgrwt>
</event>
<event>
 4    1  0.4857079E-002  0.5868533E+03  0.7818608E-02  0.9933063E-01
         21   -1    0    0  501  502  0.00000000000E+00  0.00000000000E+00  0.88260703174E+03  0.88260703174E+03  0.00000000000E+00 0. -1.
         21   -1    0    0  502  503 -0.00000000000E+00 -0.00000000000E+00 -0.93287087698E+03  0.93287087698E+03  0.00000000000E+00 0.  1.
    9000005    1    1    2  501    0 -0.37906627183E+03 -0.20175625462E+03  0.66720397225E+03  0.88857074300E+03  0.40000000000E+03 0. -1.
   -9000005    1    1    2    0  503  0.37906627183E+03  0.20175625462E+03 -0.71746781749E+03  0.92690716572E+03  0.40000000000E+03 0.  1.
<mgrwt>
<rscale>  2 0.58685332E+03</rscale>
<asrwt>0</asrwt>
<pdfrwt beam="1">  1       21 0.13578570E+00 0.58685332E+03</pdfrwt>
<pdfrwt beam="2">  1       21 0.14351860E+00 0.58685332E+03</pdfrwt>
<totfact> 0.97665846E+01</totfact>
</mgrwt>
</event>
<event>
 4    1  0.4857079E-002  0.5144143E+03  0.7818608E-02  0.1010084E+00
         21   -1    0    0  501  502  0.00000000000E+00  0.00000000000E+00  0.15937089154E+04  0.15937089154E+04  0.00000000000E+00 0.  1.
         21   -1    0    0  502  503 -0.00000000000E+00 -0.00000000000E+00 -0.16636591949E+03  0.16636591949E+03  0.00000000000E+00 0. -1.
    9000005    1    1    2  501    0 -0.16508036577E+03  0.27815552399E+03  0.67481740179E+03  0.84852846060E+03  0.40000000000E+03 0. -1.
   -9000005    1    1    2    0  503  0.16508036577E+03 -0.27815552399E+03  0.75252559410E+03  0.91154637428E+03  0.40000000000E+03 0. -1.
<mgrwt>
<rscale>  2 0.51441425E+03</rscale>
<asrwt>0</asrwt>
<pdfrwt beam="1">  1       21 0.24518598E+00 0.51441425E+03</pdfrwt>
<pdfrwt beam="2">  1       21 0.25594758E-01 0.51441425E+03</pdfrwt>
<totfact> 0.81792912E+02</totfact>
</mgrwt>
</event>
<event>
 4    1  0.4857079E-002  0.4754143E+03  0.7818608E-02  0.1020403E+00
         21   -1    0    0  503  502  0.00000000000E+00  0.00000000000E+00  0.55178549241E+03  0.55178549241E+03  0.00000000000E+00 0. -1.
         21   -1    0    0  501  503 -0.00000000000E+00 -0.00000000000E+00 -0.15482191292E+04  0.15482191292E+04  0.00000000000E+00 0. -1.
    9000005    1    1    2  501    0  0.18204261034E+03 -0.18132630890E+03 -0.13986691334E+04  0.14772589777E+04  0.40000000000E+03 0. -1.
   -9000005    1    1    2    0  502 -0.18204261034E+03  0.18132630890E+03  0.40223549665E+03  0.62274564394E+03  0.40000000000E+03 0. -1.
<mgrwt>
<rscale>  2 0.47541428E+03</rscale>
<asrwt>0</asrwt>
<pdfrwt beam="1">  1       21 0.84890076E-01 0.47541428E+03</pdfrwt>
<pdfrwt beam="2">  1       21 0.23818756E+00 0.47541428E+03</pdfrwt>
<totfact> 0.72362610E+01</totfact>
</mgrwt>
</event>
<event>
 4    1  0.4857079E-002  0.5466678E+03  0.7818608E-02  0.1002268E+00
         21   -1    0    0  501  502  0.00000000000E+00  0.00000000000E+00  0.35098036337E+03  0.35098036337E+03  0.00000000000E+00 0.  1.
         21   -1    0    0  502  503 -0.00000000000E+00 -0.00000000000E+00 -0.13945903492E+04  0.13945903492E+04  0.00000000000E+00 0.  1.
    9000005    1    1    2  501    0  0.18253727195E+03  0.32484746323E+03  0.22868412188E+02  0.54714595338E+03  0.40000000000E+03 0.  1.
   -9000005    1    1    2    0  503 -0.18253727195E+03 -0.32484746323E+03 -0.10664783980E+04  0.11984247592E+04  0.40000000000E+03 0.  1.
<mgrwt>
<rscale>  2 0.54666784E+03</rscale>
<asrwt>0</asrwt>
<pdfrwt beam="1">  1       21 0.53996979E-01 0.54666784E+03</pdfrwt>
<pdfrwt beam="2">  1       21 0.21455236E+00 0.54666784E+03</pdfrwt>
<totfact> 0.27297146E+02</totfact>
</mgrwt>
</event>
<event>
 4    1  0.4857079E-002  0.4567817E+03  0.7818608E-02  0.1025719E+00
         21   -1    0    0  501  502  0.00000000000E+00  0.00000000000E+00  0.13959232781E+04  0.13959232781E+04  0.00000000000E+00 0.  1.
         21   -1    0    0  502  503 -0.00000000000E+00 -0.00000000000E+00 -0.15013296301E+03  0.15013296301E+03  0.00000000000E+00 0. -1.
    9000005    1    1    2  501    0  0.29272462204E+02 -0.21861529863E+03  0.67424000467E+03  0.81440107425E+03  0.40000000000E+03 0. -1.
   -9000005    1    1    2    0  503 -0.29272462204E+02  0.21861529863E+03  0.57155031038E+03  0.73165516682E+03  0.40000000000E+03 0. -1.
<mgrwt>
<rscale>  2 0.45678170E+03</rscale>
<asrwt>0</asrwt>
<pdfrwt beam="1">  1       21 0.21475742E+00 0.45678170E+03</pdfrwt>
<pdfrwt beam="2">  1       21 0.23097380E-01 0.45678170E+03</pdfrwt>
<totfact> 0.15947661E+03</totfact>
</mgrwt>
</event>
<event>
 4    1  0.4857079E-002  0.4342280E+03  0.7818608E-02  0.1032533E+00
         21   -1    0    0  503  502  0.00000000000E+00  0.00000000000E+00  0.35243513224E+03  0.35243513224E+03  0.00000000000E+00 0. -1.
         21   -1    0    0  501  503 -0.00000000000E+00 -0.00000000000E+00 -0.63841197328E+03  0.63841197328E+03  0.00000000000E+00 0. -1.
    9000005    1    1    2  501    0 -0.16885501988E+03  0.64768415919E+01 -0.34237897012E+03  0.55297136128E+03  0.40000000000E+03 0. -1.
   -9000005    1    1    2    0  502  0.16885501988E+03 -0.64768415919E+01  0.56402129084E+02  0.43787574423E+03  0.40000000000E+03 0. -1.
<mgrwt>
<rscale>  2 0.43422801E+03</rscale>
<asrwt>0</asrwt>
<pdfrwt beam="1">  1       21 0.54220790E-01 0.43422801E+03</pdfrwt>
<pdfrwt beam="2">  1       21 0.98217225E-01 0.43422801E+03</pdfrwt>
<totfact> 0.23979681E+03</totfact>
</mgrwt>
</event>
<event>
 4    1  0.4857079E-002  0.4515144E+03  0.7818608E-02  0.1027271E+00
         21   -1    0    0  503  502  0.00000000000E+00  0.00000000000E+00  0.25682978439E+03  0.25682978439E+03  0.00000000000E+00 0. -1.
         21   -1    0    0  501  503 -0.00000000000E+00 -0.00000000000E+00 -0.15372636970E+04  0.15372636970E+04  0.00000000000E+00 0.  1.
    9000005    1    1    2  501    0 -0.91337987964E+02 -0.18847451488E+03 -0.12640635884E+04  0.13422823944E+04  0.40000000000E+03 0.  1.
   -9000005    1    1    2    0  502  0.91337987964E+02  0.18847451488E+03 -0.16370324208E+02  0.45181108698E+03  0.40000000000E+03 0. -1.
<mgrwt>
<rscale>  2 0.45151442E+03</rscale>
<asrwt>0</asrwt>
<pdfrwt beam="1">  1       21 0.39512274E-01 0.45151442E+03</pdfrwt>
<pdfrwt beam="2">  1       21 0.23650211E+00 0.45151442E+03</pdfrwt>
<totfact> 0.39984824E+02</totfact>
</mgrwt>
</event>
<event>
 4    1  0.4857079E-002  0.4231596E+03  0.7818608E-02  0.1036043E+00
         21   -1    0    0  501  502  0.00000000000E+00  0.00000000000E+00  0.50637526500E+03  0.50637526500E+03  0.00000000000E+00 0.  1.
         21   -1    0    0  502  503 -0.00000000000E+00 -0.00000000000E+00 -0.85249909862E+03  0.85249909862E+03  0.00000000000E+00 0.  1.
    9000005    1    1    2  501    0  0.13223782887E+03  0.39714391292E+02  0.34669502256E+03  0.54704800057E+03  0.40000000000E+03 0.  1.
   -9000005    1    1    2    0  503 -0.13223782887E+03 -0.39714391292E+02 -0.69281885618E+03  0.81182636305E+03  0.40000000000E+03 0.  1.
<mgrwt>
<rscale>  2 0.42315963E+03</rscale>
<asrwt>0</asrwt>
<pdfrwt beam="1">  1       21 0.77903887E-01 0.42315963E+03</pdfrwt>
<pdfrwt beam="2">  1       21 0.13115371E+00 0.42315963E+03</pdfrwt>
<totfact> 0.52245155E+02</totfact>
</mgrwt>
</event>
<event>
 4    1  0.4857079E-002  0.5383394E+03  0.7818608E-02  0.1004230E+00
         21   -1    0    0  501  502  0.00000000000E+00  0.00000000000E+00  0.38232213924E+03  0.38232213924E+03  0.00000000000E+00 0. -1.
         21   -1    0    0  502  503 -0.00000000000E+00 -0.00000000000E+00 -0.75850577664E+03  0.75850577664E+03  0.00000000000E+00 0. -1.
    9000005    1    1    2  501    0 -0.33045749176E+03  0.14355194068E+03 -0.17371426080E+03  0.56567301327E+03  0.40000000000E+03 0. -1.
   -9000005    1    1    2    0  503  0.33045749176E+03 -0.14355194068E+03 -0.20246937661E+03  0.57515490261E+03  0.40000000000E+03 0. -1.
<mgrwt>
<rscale>  2 0.53833940E+03</rscale>
<asrwt>0</asrwt>
<pdfrwt beam="1">  1       21 0.58818791E-01 0.53833940E+03</pdfrwt>
<pdfrwt beam="2">  1       21 0.11669319E+00 0.53833940E+03</pdfrwt>
<totfact> 0.12642933E+03</totfact>
</mgrwt>
</event>
<event>
 4    1  0.4857079E-002  0.4261436E+03  0.7818608E-02  0.1035085E+00
         21   -1    0    0  503  502  0.00000000000E+00  0.00000000000E+00  0.31302630896E+04  0.31302630896E+04  0.00000000000E+00 0.  1.
         21   -1    0    0  501  503 -0.00000000000E+00 -0.00000000000E+00 -0.58021089229E+02  0.58021089229E+02  0.00000000000E+00 0.  1.
    9000005    1    1    2  501    0  0.77264642034E+02  0.12501429684E+03  0.15182305410E+04  0.15769027792E+04  0.40000000000E+03 0. -1.
   -9000005    1    1    2    0  502 -0.77264642034E+02 -0.12501429684E+03  0.15540114594E+04  0.16113813997E+04  0.40000000000E+03 0. -1.
<mgrwt>
<rscale>  2 0.42614364E+03</rscale>
<asrwt>0</asrwt>
<pdfrwt beam="1">  1       21 0.48157881E+00 0.42614364E+03</pdfrwt>
<pdfrwt beam="2">  1       21 0.89263239E-02 0.42614364E+03</pdfrwt>
<totfact> 0.19440351E+02</totfact>
</mgrwt>
</event>
<event>
 4    1  0.4857079E-002  0.4082962E+03  0.7818608E-02  0.1040944E+00
         21   -1    0    0  503  502  0.00000000000E+00  0.00000000000E+00  0.32283780660E+03  0.32283780660E+03  0.00000000000E+00 0.  1.
         21   -1    0    0  501  503 -0.00000000000E+00 -0.00000000000E+00 -0.52027806921E+03  0.52027806921E+03  0.00000000000E+00 0.  1.
    9000005    1    1    2  501    0 -0.30555904297E+02  0.75974336573E+02 -0.13522705965E+03  0.43010710383E+03  0.40000000000E+03 0. -1.
   -9000005    1    1    2    0  502  0.30555904297E+02 -0.75974336573E+02 -0.62213202957E+02  0.41300877197E+03  0.40000000000E+03 0. -1.
<mgrwt>
<rscale>  2 0.40829617E+03</rscale>
<asrwt>0</asrwt>
<pdfrwt beam="1">  1       21 0.49667356E-01 0.40829617E+03</pdfrwt>
<pdfrwt beam="2">  1       21 0.80042778E-01 0.40829617E+03</pdfrwt>
<totfact> 0.47307527E+03</totfact>
</mgrwt>
</event>
<event>
 4    1  0.4857079E-002  0.4757781E+03  0.7818608E-02  0.1020302E+00
         21   -1    0    0  503  502  0.00000000000E+00  0.00000000000E+00  0.42418176289E+03  0.42418176289E+03  0.00000000000E+00 0. -1.
         21   -1    0    0  501  503 -0.00000000000E+00 -0.00000000000E+00 -0.81025165248E+03  0.81025165248E+03  0.00000000000E+00 0. -1.
    9000005    1    1    2  501    0 -0.12795246673E+03  0.22359105301E+03 -0.55365903535E+03  0.73000213709E+03  0.40000000000E+03 0. -1.
   -9000005    1    1    2    0  502  0.12795246673E+03 -0.22359105301E+03  0.16758914576E+03  0.50443127828E+03  0.40000000000E+03 0. -1.
<mgrwt>
<rscale>  2 0.47577809E+03</rscale>
<asrwt>0</asrwt>
<pdfrwt beam="1">  1       21 0.65258732E-01 0.47577809E+03</pdfrwt>
<pdfrwt beam="2">  1       21 0.12465410E+00 0.47577809E+03</pdfrwt>
<totfact> 0.86864337E+02</totfact>
</mgrwt>
</event>
<event>
 4    1  0.4857079E-002  0.4934467E+03  0.7818608E-02  0.1015504E+00
         21   -1    0    0  501  502  0.00000000000E+00  0.00000000000E+00  0.88388826699E+03  0.88388826699E+03  0.00000000000E+00 0. -1.
         21   -1    0    0  502  503 -0.00000000000E+00 -0.00000000000E+00 -0.28084698390E+03  0.28084698390E+03  0.00000000000E+00 0. -1.
    9000005    1    1    2  501    0 -0.28882858740E+03  0.82252663101E+01  0.22098142601E+03  0.54066847378E+03  0.40000000000E+03 0. -1.
   -9000005    1    1    2    0  503  0.28882858740E+03 -0.82252663101E+01  0.38205985708E+03  0.62406677711E+03  0.40000000000E+03 0. -1.
<mgrwt>
<rscale>  2 0.49344666E+03</rscale>
<asrwt>0</asrwt>
<pdfrwt beam="1">  1       21 0.13598281E+00 0.49344666E+03</pdfrwt>
<pdfrwt beam="2">  1       21 0.43207229E-01 0.49344666E+03</pdfrwt>
<totfact> 0.16716509E+03</totfact>
</mgrwt>
</event>
<event>
 4    1  0.4857079E-002  0.5843275E+03  0.7818608E-02  0.9938466E-01
         21   -1    0    0  503  502  0.00000000000E+00  0.00000000000E+00  0.10358553288E+04  0.10358553288E+04  0.00000000000E+00 0. -1.
         21   -1    0    0  501  503 -0.00000000000E+00 -0.00000000000E+00 -0.66906320299E+03  0.66906320299E+03  0.00000000000E+00 0. -1.
    9000005    1    1    2  501    0  0.36985287018E+03 -0.21129949394E+03 -0.42379256461E+03  0.72183014591E+03  0.40000000000E+03 0. -1.
   -9000005    1    1    2    0  502 -0.36985287018E+03  0.21129949394E+03  0.79058469042E+03  0.98308838587E+03  0.40000000000E+03 0. -1.
<mgrwt>
<rscale>  2 0.58432750E+03</rscale>
<asrwt>0</asrwt>
<pdfrwt beam="1">  1       21 0.15936236E+00 0.58432750E+03</pdfrwt>
<pdfrwt beam="2">  1       21 0.10293280E+00 0.58432750E+03</pdfrwt>
<totfact> 0.14855581E+02</totfact>
</mgrwt>
</event>
<event>
 4    1  0.4857079E-002  0.4968019E+03  0.7818608E-02  0.1014617E+00
         21   -1    0    0  503  502  0.00000000000E+00  0.00000000000E+00  0.10917208411E+04  0.10917208411E+04  0.00000000000E+00 0. -1.
         21   -1    0    0  501  503 -0.00000000000E+00 -0.00000000000E+00 -0.76059153764E+03  0.76059153764E+03  0.00000000000E+00 0. -1.
    9000005    1    1    2  501    0 -0.19086082032E+03  0.22446448633E+03 -0.61084075777E+03  0.78736179086E+03  0.40000000000E+03 0. -1.
   -9000005    1    1    2    0  502  0.19086082032E+03 -0.22446448633E+03  0.94197006124E+03  0.10649505879E+04  0.40000000000E+03 0. -1.
<mgrwt>
<rscale>  2 0.49680193E+03</rscale>
<asrwt>0</asrwt>
<pdfrwt beam="1">  1       21 0.16795705E+00 0.49680193E+03</pdfrwt>
<pdfrwt beam="2">  1       21 0.11701408E+00 0.49680193E+03</pdfrwt>
<totfact> 0.96752367E+01</totfact>
</mgrwt>
</event>
<event>
 4    1  0.4857079E-002  0.4753301E+03  0.7818608E-02  0.1020427E+00
         21   -1    0    0  501  502  0.00000000000E+00  0.00000000000E+00  0.38611949116E+03  0.38611949116E+03  0.00000000000E+00 0. -1.
         21   -1    0    0  502  503 -0.00000000000E+00 -0.00000000000E+00 -0.70773033259E+03  0.70773033259E+03  0.00000000000E+00 0. -1.
    9000005    1    1    2  501    0  0.12489593708E+03  0.22436503987E+03  0.66809284879E+02  0.48000223620E+03  0.40000000000E+03 0. -1.
   -9000005    1    1    2    0  503 -0.12489593708E+03 -0.22436503987E+03 -0.38842012631E+03  0.61384758755E+03  0.40000000000E+03 0. -1.
<mgrwt>
<rscale>  2 0.47533006E+03</rscale>
<asrwt>0</asrwt>
<pdfrwt beam="1">  1       21 0.59402999E-01 0.47533006E+03</pdfrwt>
<pdfrwt beam="2">  1       21 0.10888159E+00 0.47533006E+03</pdfrwt>
<totfact> 0.15040860E+03</totfact>
</mgrwt>
</event>
<event>
 4    1  0.4857079E-002  0.4711781E+03  0.7818608E-02  0.1021588E+00
         21   -1    0    0  501  502  0.00000000000E+00  0.00000000000E+00  0.52943389556E+03  0.52943389556E+03  0.00000000000E+00 0.  1.
         21   -1    0    0  502  503 -0.00000000000E+00 -0.00000000000E+00 -0.58785731626E+03  0.58785731626E+03  0.00000000000E+00 0. -1.
    9000005    1    1    2  501    0 -0.12097480956E+03  0.21765552209E+03  0.26989928245E+03  0.54300502162E+03  0.40000000000E+03 0.  1.
   -9000005    1    1    2    0  503  0.12097480956E+03 -0.21765552209E+03 -0.32832270314E+03  0.57428619019E+03  0.40000000000E+03 0. -1.
<mgrwt>
<rscale>  2 0.47117813E+03</rscale>
<asrwt>0</asrwt>
<pdfrwt beam="1">  1       21 0.81451368E-01 0.47117813E+03</pdfrwt>
<pdfrwt beam="2">  1       21 0.90439587E-01 0.47117813E+03</pdfrwt>
<totfact> 0.11608556E+03</totfact>
</mgrwt>
</event>
<event>
 4    1  0.4857079E-002  0.6139774E+03  0.7818608E-02  0.9876824E-01
         21   -1    0    0  501  502  0.00000000000E+00  0.00000000000E+00  0.16140509524E+04  0.16140509524E+04  0.00000000000E+00 0.  1.
         21   -1    0    0  502  503 -0.00000000000E+00 -0.00000000000E+00 -0.82670988069E+03  0.82670988069E+03  0.00000000000E+00 0.  1.
    9000005    1    1    2  501    0  0.42232566356E+03  0.19649258928E+03  0.14273907999E+04  0.15538380866E+04  0.40000000000E+03 0.  1.
   -9000005    1    1    2    0  503 -0.42232566356E+03 -0.19649258928E+03 -0.64004972817E+03  0.88692274651E+03  0.40000000000E+03 0.  1.
<mgrwt>
<rscale>  2 0.61397745E+03</rscale>
<asrwt>0</asrwt>
<pdfrwt beam="1">  1       21 0.24831553E+00 0.61397745E+03</pdfrwt>
<pdfrwt beam="2">  1       21 0.12718614E+00 0.61397745E+03</pdfrwt>
<totfact> 0.21451073E+01</totfact>
</mgrwt>
</event>
<event>
 4    1  0.4857079E-002  0.4746560E+03  0.7818608E-02  0.1020614E+00
         21   -1    0    0  501  502  0.00000000000E+00  0.00000000000E+00  0.11937003816E+03  0.11937003816E+03  0.00000000000E+00 0.  1.
         21   -1    0    0  502  503 -0.00000000000E+00 -0.00000000000E+00 -0.19540713667E+04  0.19540713667E+04  0.00000000000E+00 0.  1.
    9000005    1    1    2  501    0 -0.21553380697E+03 -0.13727172914E+03 -0.11088552858E+04  0.12061751094E+04  0.40000000000E+03 0.  1.
   -9000005    1    1    2    0  503  0.21553380697E+03  0.13727172914E+03 -0.72584604273E+03  0.86726629551E+03  0.40000000000E+03 0.  1.
<mgrwt>
<rscale>  2 0.47465603E+03</rscale>
<asrwt>0</asrwt>
<pdfrwt beam="1">  1       21 0.18364621E-01 0.47465603E+03</pdfrwt>
<pdfrwt beam="2">  1       21 0.30062637E+00 0.47465603E+03</pdfrwt>
<totfact> 0.72548544E+02</totfact>
</mgrwt>
</event>
<event>
 4    1  0.4857079E-002  0.4883383E+03  0.7818608E-02  0.1016868E+00
         21   -1    0    0  501  502  0.00000000000E+00  0.00000000000E+00  0.55464939903E+03  0.55464939903E+03  0.00000000000E+00 0. -1.
         21   -1    0    0  502  503 -0.00000000000E+00 -0.00000000000E+00 -0.55520222583E+03  0.55520222583E+03  0.00000000000E+00 0. -1.
    9000005    1    1    2  501    0 -0.16764349665E+03  0.22443261632E+03 -0.26384472883E+03  0.55505709811E+03  0.40000000000E+03 0. -1.
   -9000005    1    1    2    0  503  0.16764349665E+03 -0.22443261632E+03  0.26329190203E+03  0.55479452675E+03  0.40000000000E+03 0. -1.
<mgrwt>
<rscale>  2 0.48833835E+03</rscale>
<asrwt>0</asrwt>
<pdfrwt beam="1">  1       21 0.85330676E-01 0.48833835E+03</pdfrwt>
<pdfrwt beam="2">  1       21 0.85415727E-01 0.48833835E+03</pdfrwt>
<totfact> 0.11840463E+03</totfact>
</mgrwt>
</event>
<event>
 4    1  0.4857079E-002  0.4340980E+03  0.7818608E-02  0.1032573E+00
         21   -1    0    0  503  502  0.00000000000E+00  0.00000000000E+00  0.28935406487E+03  0.28935406487E+03  0.00000000000E+00 0. -1.
         21   -1    0    0  501  503 -0.00000000000E+00 -0.00000000000E+00 -0.98977890397E+03  0.98977890397E+03  0.00000000000E+00 0. -1.
    9000005    1    1    2  501    0 -0.85292090704E+02 -0.14548666924E+03 -0.72425072522E+03  0.84438156342E+03  0.40000000000E+03 0. -1.
   -9000005    1    1    2    0  502  0.85292090704E+02  0.14548666924E+03  0.23825886117E+02  0.43475140542E+03  0.40000000000E+03 0. -1.
<mgrwt>
<rscale>  2 0.43409804E+03</rscale>
<asrwt>0</asrwt>
<pdfrwt beam="1">  1       21 0.44516009E-01 0.43409804E+03</pdfrwt>
<pdfrwt beam="2">  1       21 0.15227368E+00 0.43409804E+03</pdfrwt>
<totfact> 0.11869995E+03</totfact>
</mgrwt>
</event>
<event>
 4    1  0.4857079E-002  0.5263593E+03  0.7818608E-02  0.1007119E+00
         21   -1    0    0  503  502  0.00000000000E+00  0.00000000000E+00  0.32900444261E+03  0.32900444261E+03  0.00000000000E+00 0. -1.
         21   -1    0    0  501  503 -0.00000000000E+00 -0.00000000000E+00 -0.86628374126E+03  0.86628374126E+03  0.00000000000E+00 0. -1.
    9000005    1    1    2  501    0 -0.24253055341E+03  0.24131517111E+03 -0.36849919250E+03  0.64253072769E+03  0.40000000000E+03 0. -1.
   -9000005    1    1    2    0  502  0.24253055341E+03 -0.24131517111E+03 -0.16878010615E+03  0.55275745619E+03  0.40000000000E+03 0. -1.
<mgrwt>
<rscale>  2 0.52635927E+03</rscale>
<asrwt>0</asrwt>
<pdfrwt beam="1">  1       21 0.50616069E-01 0.52635927E+03</pdfrwt>
<pdfrwt beam="2">  1       21 0.13327442E+00 0.52635927E+03</pdfrwt>
<totfact> 0.12471110E+03</totfact>
</mgrwt>
</event>
<event>
 4    1  0.4857079E-002  0.5068183E+03  0.7818608E-02  0.1012014E+00
         21   -1    0    0  503  502  0.00000000000E+00  0.00000000000E+00  0.20426637155E+04  0.20426637155E+04  0.00000000000E+00 0.  1.
         21   -1    0    0  501  503 -0.00000000000E+00 -0.00000000000E+00 -0.13871153863E+03  0.13871153863E+03  0.00000000000E+00 0. -1.
    9000005    1    1    2  501    0 -0.52078748209E+02  0.30684289068E+03  0.12853825912E+04  0.13816921369E+04  0.40000000000E+03 0.  1.
   -9000005    1    1    2    0  502  0.52078748209E+02 -0.30684289068E+03  0.61856958567E+03  0.79968311717E+03  0.40000000000E+03 0. -1.
<mgrwt>
<rscale>  2 0.50681827E+03</rscale>
<asrwt>0</asrwt>
<pdfrwt beam="1">  1       21 0.31425593E+00 0.50681827E+03</pdfrwt>
<pdfrwt beam="2">  1       21 0.21340238E-01 0.50681827E+03</pdfrwt>
<totfact> 0.44337980E+02</totfact>
</mgrwt>
</event>
<event>
 4    1  0.4857079E-002  0.5274399E+03  0.7818608E-02  0.1006855E+00
         21   -1    0    0  503  502  0.00000000000E+00  0.00000000000E+00  0.28649980691E+03  0.28649980691E+03  0.00000000000E+00 0.  1.
         21   -1    0    0  501  503 -0.00000000000E+00 -0.00000000000E+00 -0.12814079430E+04  0.12814079430E+04  0.00000000000E+00 0. -1.
    9000005    1    1    2  501    0 -0.11789451488E+02 -0.34358961786E+03 -0.88329610828E+03  0.10287880402E+04  0.40000000000E+03 0. -1.
   -9000005    1    1    2    0  502  0.11789451488E+02  0.34358961786E+03 -0.11161202778E+03  0.53911970972E+03  0.40000000000E+03 0.  1.
<mgrwt>
<rscale>  2 0.52743987E+03</rscale>
<asrwt>0</asrwt>
<pdfrwt beam="1">  1       21 0.44076894E-01 0.52743987E+03</pdfrwt>
<pdfrwt beam="2">  1       21 0.19713968E+00 0.52743987E+03</pdfrwt>
<totfact> 0.55291315E+02</totfact>
</mgrwt>
</event>
<event>
 4    1  0.4857079E-002  0.5844038E+03  0.7818608E-02  0.9938302E-01
         21   -1    0    0  503  502  0.00000000000E+00  0.00000000000E+00  0.24995124165E+03  0.24995124165E+03  0.00000000000E+00 0. -1.
         21   -1    0    0  501  503 -0.00000000000E+00 -0.00000000000E+00 -0.30345926104E+04  0.30345926104E+04  0.00000000000E+00 0.  1.
    9000005    1    1    2  501    0  0.44930752829E+02  0.42368499804E+03 -0.26099662670E+04  0.26745937383E+04  0.40000000000E+03 0.  1.
   -9000005    1    1    2    0  502 -0.44930752829E+02 -0.42368499804E+03 -0.17467510178E+03  0.60995011378E+03  0.40000000000E+03 0. -1.
<mgrwt>
<rscale>  2 0.58440376E+03</rscale>
<asrwt>0</asrwt>
<pdfrwt beam="1">  1       21 0.38454039E-01 0.58440376E+03</pdfrwt>
<pdfrwt beam="2">  1       21 0.46686038E+00 0.58440376E+03</pdfrwt>
<totfact> 0.13779395E+01</totfact>
</mgrwt>
</event>
<event>
 4    1  0.4857079E-002  0.4964100E+03  0.7818608E-02  0.1014720E+00
         21   -1    0    0  503  502  0.00000000000E+00  0.00000000000E+00  0.93853789909E+03  0.93853789909E+03  0.00000000000E+00 0. -1.
         21   -1    0    0  501  503 -0.00000000000E+00 -0.00000000000E+00 -0.26664354598E+03  0.26664354598E+03  0.00000000000E+00 0. -1.
    9000005    1    1    2  501    0 -0.16015013511E+03  0.24652548081E+03  0.26137878166E+03  0.56101848986E+03  0.40000000000E+03 0. -1.
   -9000005    1    1    2    0  502  0.16015013511E+03 -0.24652548081E+03  0.41051557145E+03  0.64416295521E+03  0.40000000000E+03 0. -1.
<mgrwt>
<rscale>  2 0.49640999E+03</rscale>
<asrwt>0</asrwt>
<pdfrwt beam="1">  1       21 0.14439044E+00 0.49640999E+03</pdfrwt>
<pdfrwt beam="2">  1       21 0.41022084E-01 0.49640999E+03</pdfrwt>
<totfact> 0.15848999E+03</totfact>
</mgrwt>
</event>
<event>
 4    1  0.4857079E-002  0.6684385E+03  0.7818608E-02  0.9772783E-01
         21   -1    0    0  501  502  0.00000000000E+00  0.00000000000E+00  0.17982644279E+04  0.17982644279E+04  0.00000000000E+00 0. -1.
         21   -1    0    0  502  503 -0.00000000000E+00 -0.00000000000E+00 -0.24897990308E+03  0.24897990308E+03  0.00000000000E+00 0. -1.
    9000005    1    1    2  501    0 -0.21040127916E+02 -0.53513297120E+03  0.72819821496E+03  0.98847489807E+03  0.40000000000E+03 0. -1.
   -9000005    1    1    2    0  503  0.21040127916E+02  0.53513297120E+03  0.82108630988E+03  0.10587694329E+04  0.40000000000E+03 0. -1.
<mgrwt>
<rscale>  2 0.66843847E+03</rscale>
<asrwt>0</asrwt>
<pdfrwt beam="1">  1       21 0.27665606E+00 0.66843847E+03</pdfrwt>
<pdfrwt beam="2">  1       21 0.38304602E-01 0.66843847E+03</pdfrwt>
<totfact> 0.21871116E+02</totfact>
</mgrwt>
</event>
<event>
 4    1  0.4857079E-002  0.6946305E+03  0.7818608E-02  0.9726459E-01
         21   -1    0    0  503  502  0.00000000000E+00  0.00000000000E+00  0.25405341238E+03  0.25405341238E+03  0.00000000000E+00 0.  1.
         21   -1    0    0  501  503 -0.00000000000E+00 -0.00000000000E+00 -0.19017259812E+04  0.19017259812E+04  0.00000000000E+00 0. -1.
    9000005    1    1    2  501    0 -0.56105361406E+03  0.87922167063E+02 -0.86271337930E+03  0.11076036476E+04  0.40000000000E+03 0.  1.
   -9000005    1    1    2    0  502  0.56105361406E+03 -0.87922167063E+02 -0.78495918953E+03  0.10481757460E+04  0.40000000000E+03 0.  1.
<mgrwt>
<rscale>  2 0.69463045E+03</rscale>
<asrwt>0</asrwt>
<pdfrwt beam="1">  1       21 0.39085138E-01 0.69463045E+03</pdfrwt>
<pdfrwt beam="2">  1       21 0.29257324E+00 0.69463045E+03</pdfrwt>
<totfact> 0.16587177E+02</totfact>
</mgrwt>
</event>
<event>
 4    1  0.4857079E-002  0.5269348E+03  0.7818608E-02  0.1006978E+00
         21   -1    0    0  503  502  0.00000000000E+00  0.00000000000E+00  0.94117491729E+03  0.94117491729E+03  0.00000000000E+00 0. -1.
         21   -1    0    0  501  503 -0.00000000000E+00 -0.00000000000E+00 -0.32680951563E+03  0.32680951563E+03  0.00000000000E+00 0.  1.
    9000005    1    1    2  501    0 -0.27178046426E+03  0.20927422675E+03  0.10943312717E+03  0.53817834596E+03  0.40000000000E+03 0.  1.
   -9000005    1    1    2    0  502  0.27178046426E+03 -0.20927422675E+03  0.50493227450E+03  0.72980608696E+03  0.40000000000E+03 0. -1.
<mgrwt>
<rscale>  2 0.52693484E+03</rscale>
<asrwt>0</asrwt>
<pdfrwt beam="1">  1       21 0.14479614E+00 0.52693484E+03</pdfrwt>
<pdfrwt beam="2">  1       21 0.50278388E-01 0.52693484E+03</pdfrwt>
<totfact> 0.10141111E+03</totfact>
</mgrwt>
</event>
<event>
 4    1  0.4857079E-002  0.4316195E+03  0.7818608E-02  0.1033350E+00
         21   -1    0    0  503  502  0.00000000000E+00  0.00000000000E+00  0.28930055035E+04  0.28930055035E+04  0.00000000000E+00 0.  1.
         21   -1    0    0  501  503 -0.00000000000E+00 -0.00000000000E+00 -0.72023807864E+02  0.72023807864E+02  0.00000000000E+00 0.  1.
    9000005    1    1    2  501    0  0.74213625580E+02 -0.14417951402E+03  0.92800309625E+03  0.10234672155E+04  0.40000000000E+03 0.  1.
   -9000005    1    1    2    0  502 -0.74213625580E+02  0.14417951402E+03  0.18929785994E+04  0.19415620959E+04  0.40000000000E+03 0.  1.
<mgrwt>
<rscale>  2 0.43161950E+03</rscale>
<asrwt>0</asrwt>
<pdfrwt beam="1">  1       21 0.44507768E+00 0.43161950E+03</pdfrwt>
<pdfrwt beam="2">  1       21 0.11080588E-01 0.43161950E+03</pdfrwt>
<totfact> 0.23376651E+02</totfact>
</mgrwt>
</event>
<event>
 4    1  0.4857079E-002  0.4311334E+03  0.7818608E-02  0.1033503E+00
         21   -1    0    0  503  502  0.00000000000E+00  0.00000000000E+00  0.38872782787E+03  0.38872782787E+03  0.00000000000E+00 0.  1.
         21   -1    0    0  501  503 -0.00000000000E+00 -0.00000000000E+00 -0.47833367608E+03  0.47833367608E+03  0.00000000000E+00 0.  1.
    9000005    1    1    2  501    0 -0.15751830297E+03  0.32618537977E+02 -0.36658320643E+02  0.43268905378E+03  0.40000000000E+03 0.  1.
   -9000005    1    1    2    0  502  0.15751830297E+03 -0.32618537977E+02 -0.52947527577E+02  0.43437245017E+03  0.40000000000E+03 0.  1.
<mgrwt>
<rscale>  2 0.43113337E+03</rscale>
<asrwt>0</asrwt>
<pdfrwt beam="1">  1       21 0.59804281E-01 0.43113337E+03</pdfrwt>
<pdfrwt beam="2">  1       21 0.73589796E-01 0.43113337E+03</pdfrwt>
<totfact> 0.38123303E+03</totfact>
</mgrwt>
</event>
<event>
 4    1  0.4857079E-002  0.4948771E+03  0.7818608E-02  0.1015125E+00
         21   -1    0    0  501  502  0.00000000000E+00  0.00000000000E+00  0.71907038800E+03  0.71907038800E+03  0.00000000000E+00 0. -1.
         21   -1    0    0  502  503 -0.00000000000E+00 -0.00000000000E+00 -0.82218394341E+03  0.82218394341E+03  0.00000000000E+00 0. -1.
    9000005    1    1    2  501    0 -0.23706691087E+03  0.16941858652E+03  0.53824128349E+03  0.73116828223E+03  0.40000000000E+03 0. -1.
   -9000005    1    1    2    0  503  0.23706691087E+03 -0.16941858652E+03 -0.64135483890E+03  0.81008604917E+03  0.40000000000E+03 0. -1.
<mgrwt>
<rscale>  2 0.49487713E+03</rscale>
<asrwt>0</asrwt>
<pdfrwt beam="1">  1       21 0.11062621E+00 0.49487713E+03</pdfrwt>
<pdfrwt beam="2">  1       21 0.12648984E+00 0.49487713E+03</pdfrwt>
<totfact> 0.23999682E+02</totfact>
</mgrwt>
</event>
<event>
 4    1  0.4857079E-002  0.5541811E+03  0.7818608E-02  0.1000531E+00
         21   -1    0    0  503  502  0.00000000000E+00  0.00000000000E+00  0.12636341832E+04  0.12636341832E+04  0.00000000000E+00 0.  1.
         21   -1    0    0  501  503 -0.00000000000E+00 -0.00000000000E+00 -0.24305860563E+03  0.24305860563E+03  0.00000000000E+00 0. -1.
    9000005    1    1    2  501    0 -0.34889802499E+03  0.15933263148E+03  0.50414162560E+03  0.74918322056E+03  0.40000000000E+03 0. -1.
   -9000005    1    1    2    0  502  0.34889802499E+03 -0.15933263148E+03  0.51643395201E+03  0.75750956831E+03  0.40000000000E+03 0.  1.
<mgrwt>
<rscale>  2 0.55418112E+03</rscale>
<asrwt>0</asrwt>
<pdfrwt beam="1">  1       21 0.19440526E+00 0.55418112E+03</pdfrwt>
<pdfrwt beam="2">  1       21 0.37393632E-01 0.55418112E+03</pdfrwt>
<totfact> 0.80303541E+02</totfact>
</mgrwt>
</event>
<event>
 4    1  0.4857079E-002  0.4416636E+03  0.7818608E-02  0.1030238E+00
         21   -1    0    0  503  502  0.00000000000E+00  0.00000000000E+00  0.12320458623E+04  0.12320458623E+04  0.00000000000E+00 0. -1.
         21   -1    0    0  501  503 -0.00000000000E+00 -0.00000000000E+00 -0.20659100396E+03  0.20659100396E+03  0.00000000000E+00 0. -1.
    9000005    1    1    2  501    0  0.86824636539E+02  0.16591629646E+03  0.16505125183E+03  0.47149618309E+03  0.40000000000E+03 0.  1.
   -9000005    1    1    2    0  502 -0.86824636539E+02 -0.16591629646E+03  0.86040360647E+03  0.96714068313E+03  0.40000000000E+03 0.  1.
<mgrwt>
<rscale>  2 0.44166360E+03</rscale>
<asrwt>0</asrwt>
<pdfrwt beam="1">  1       21 0.18954551E+00 0.44166360E+03</pdfrwt>
<pdfrwt beam="2">  1       21 0.31783232E-01 0.44166360E+03</pdfrwt>
<totfact> 0.12612361E+03</totfact>
</mgrwt>
</event>
<event>
 4    1  0.4857079E-002  0.4562215E+03  0.7818608E-02  0.1025883E+00
         21   -1    0    0  503  502  0.00000000000E+00  0.00000000000E+00  0.12451631680E+03  0.12451631680E+03  0.00000000000E+00 0. -1.
         21   -1    0    0  501  503 -0.00000000000E+00 -0.00000000000E+00 -0.21875922796E+04  0.21875922796E+04  0.00000000000E+00 0.  1.
    9000005    1    1    2  501    0 -0.21543878076E+03  0.41523199809E+02 -0.15930101561E+04  0.16570514179E+04  0.40000000000E+03 0.  1.
   -9000005    1    1    2    0  502  0.21543878076E+03 -0.41523199809E+02 -0.47006580672E+03  0.65505717844E+03  0.40000000000E+03 0. -1.
<mgrwt>
<rscale>  2 0.45622149E+03</rscale>
<asrwt>0</asrwt>
<pdfrwt beam="1">  1       21 0.19156357E-01 0.45622149E+03</pdfrwt>
<pdfrwt beam="2">  1       21 0.33655264E+00 0.45622149E+03</pdfrwt>
<totfact> 0.41037953E+02</totfact>
</mgrwt>
</event>
<event>
 4    1  0.4857079E-002  0.4764086E+03  0.7818608E-02  0.1020127E+00
         21   -1    0    0  503  502  0.00000000000E+00  0.00000000000E+00  0.23599996886E+03  0.23599996886E+03  0.00000000000E+00 0.  1.
         21   -1    0    0  501  503 -0.00000000000E+00 -0.00000000000E+00 -0.96247121961E+03  0.96247121961E+03  0.00000000000E+00 0. -1.
    9000005    1    1    2  501    0  0.25802791819E+03 -0.19666367746E+02 -0.38001068950E+03  0.60940405046E+03  0.40000000000E+03 0. -1.
   -9000005    1    1    2    0  502 -0.25802791819E+03  0.19666367746E+02 -0.34646056125E+03  0.58906713801E+03  0.40000000000E+03 0.  1.
<mgrwt>
<rscale>  2 0.47640862E+03</rscale>
<asrwt>0</asrwt>
<pdfrwt beam="1">  1       21 0.36307687E-01 0.47640862E+03</pdfrwt>
<pdfrwt beam="2">  1       21 0.14807250E+00 0.47640862E+03</pdfrwt>
<totfact> 0.19166628E+03</totfact>
</mgrwt>
</event>
<event>
 4    1  0.4857079E-002  0.5438181E+03  0.7818608E-02  0.1002935E+00
         21   -1    0    0  503  502  0.00000000000E+00  0.00000000000E+00  0.40800697340E+03  0.40800697340E+03  0.00000000000E+00 0.  1.
         21   -1    0    0  501  503 -0.00000000000E+00 -0.00000000000E+00 -0.10181316350E+04  0.10181316350E+04  0.00000000000E+00 0.  1.
    9000005    1    1    2  501    0 -0.65990143239E+02  0.36246846385E+03 -0.68778367000E+03  0.87680354870E+03  0.40000000000E+03 0.  1.
   -9000005    1    1    2    0  502  0.65990143239E+02 -0.36246846385E+03  0.77659008356E+02  0.54933505975E+03  0.40000000000E+03 0.  1.
<mgrwt>
<rscale>  2 0.54381806E+03</rscale>
<asrwt>0</asrwt>
<pdfrwt beam="1">  1       21 0.62770304E-01 0.54381806E+03</pdfrwt>
<pdfrwt beam="2">  1       21 0.15663563E+00 0.54381806E+03</pdfrwt>
<totfact> 0.50152562E+02</totfact>
</mgrwt>
</event>
<event>
 4    1  0.4857079E-002  0.4025046E+03  0.7818608E-02  0.1042916E+00
         21   -1    0    0  501  502  0.00000000000E+00  0.00000000000E+00  0.65992975721E+03  0.65992975721E+03  0.00000000000E+00 0. -1.
         21   -1    0    0  502  503 -0.00000000000E+00 -0.00000000000E+00 -0.24653925155E+03  0.24653925155E+03  0.00000000000E+00 0. -1.
    9000005    1    1    2  501    0  0.39872809091E+02 -0.20496350886E+02  0.23618217465E+03  0.46668186265E+03  0.40000000000E+03 0.  1.
   -9000005    1    1    2    0  503 -0.39872809091E+02  0.20496350886E+02  0.17720833100E+03  0.43978714611E+03  0.40000000000E+03 0.  1.
<mgrwt>
<rscale>  2 0.40250459E+03</rscale>
<asrwt>0</asrwt>
<pdfrwt beam="1">  1       21 0.10152765E+00 0.40250459E+03</pdfrwt>
<pdfrwt beam="2">  1       21 0.37929116E-01 0.40250459E+03</pdfrwt>
<totfact> 0.47339052E+03</totfact>
</mgrwt>
</event>
<event>
 4    1  0.4857079E-002  0.4175002E+03  0.7818608E-02  0.1037883E+00
         21   -1    0    0  501  502  0.00000000000E+00  0.00000000000E+00  0.34269546251E+03  0.34269546251E+03  0.00000000000E+00 0. -1.
         21   -1    0    0  502  503 -0.00000000000E+00 -0.00000000000E+00 -0.58826684138E+03  0.58826684138E+03  0.00000000000E+00 0. -1.
    9000005    1    1    2  501    0 -0.11960859692E+03  0.44257864733E+00  0.48476790162E+02  0.42030514096E+03  0.40000000000E+03 0. -1.
   -9000005    1    1    2    0  503  0.11960859692E+03 -0.44257864733E+00 -0.29404816903E+03  0.51065716292E+03  0.40000000000E+03 0. -1.
<mgrwt>
<rscale>  2 0.41750019E+03</rscale>
<asrwt>0</asrwt>
<pdfrwt beam="1">  1       21 0.52722379E-01 0.41750019E+03</pdfrwt>
<pdfrwt beam="2">  1       21 0.90502590E-01 0.41750019E+03</pdfrwt>
<totfact> 0.31161939E+03</totfact>
</mgrwt>
</event>
<event>
 4    1  0.4857079E-002  0.5135919E+03  0.7818608E-02  0.1010291E+00
         21   -1    0    0  501  502  0.00000000000E+00  0.00000000000E+00  0.16379244400E+03  0.16379244400E+03  0.00000000000E+00 0.  1.
         21   -1    0    0  502  503 -0.00000000000E+00 -0.00000000000E+00 -0.18748319669E+04  0.18748319669E+04  0.00000000000E+00 0. -1.
    9000005    1    1    2  501    0  0.24079005710E+03  0.21400172252E+03 -0.47273312324E+03  0.69803523883E+03  0.40000000000E+03 0.  1.
   -9000005    1    1    2    0  503 -0.24079005710E+03 -0.21400172252E+03 -0.12383063997E+04  0.13405891721E+04  0.40000000000E+03 0. -1.
<mgrwt>
<rscale>  2 0.51359185E+03</rscale>
<asrwt>0</asrwt>
<pdfrwt beam="1">  1       21 0.25198837E-01 0.51359185E+03</pdfrwt>
<pdfrwt beam="2">  1       21 0.28843569E+00 0.51359185E+03</pdfrwt>
<totfact> 0.45898481E+02</totfact>
</mgrwt>
</event>
<event>
 4    1  0.4857079E-002  0.7465630E+03  0.7818608E-02  0.9640758E-01
         21   -1    0    0  503  502  0.00000000000E+00  0.00000000000E+00  0.94104483685E+03  0.94104483685E+03  0.00000000000E+00 0.  1.
         21   -1    0    0  501  503 -0.00000000000E+00 -0.00000000000E+00 -0.63660628357E+03  0.63660628357E+03  0.00000000000E+00 0. -1.
    9000005    1    1    2  501    0 -0.62401827492E+03  0.89204870893E+02 -0.55944877773E+02  0.74865622670E+03  0.40000000000E+03 0. -1.
   -9000005    1    1    2    0  502  0.62401827492E+03 -0.89204870893E+02  0.36038343106E+03  0.82899489372E+03  0.40000000000E+03 0.  1.
<mgrwt>
<rscale>  2 0.74656300E+03</rscale>
<asrwt>0</asrwt>
<pdfrwt beam="1">  1       21 0.14477613E+00 0.74656300E+03</pdfrwt>
<pdfrwt beam="2">  1       21 0.97939428E-01 0.74656300E+03</pdfrwt>
<totfact> 0.20713556E+02</totfact>
</mgrwt>
</event>
<event>
 4    1  0.4857079E-002  0.4662417E+03  0.7818608E-02  0.1022986E+00
         21   -1    0    0  503  502  0.00000000000E+00  0.00000000000E+00  0.23711739588E+03  0.23711739588E+03  0.00000000000E+00 0.  1.
         21   -1    0    0  501  503 -0.00000000000E+00 -0.00000000000E+00 -0.12021775245E+04  0.12021775245E+04  0.00000000000E+00 0.  1.
    9000005    1    1    2  501    0  0.11252039458E+03  0.21147220638E+03 -0.83317753663E+03  0.95475972936E+03  0.40000000000E+03 0. -1.
   -9000005    1    1    2    0  502 -0.11252039458E+03 -0.21147220638E+03 -0.13188259200E+03  0.48453519103E+03  0.40000000000E+03 0. -1.
<mgrwt>
<rscale>  2 0.46624171E+03</rscale>
<asrwt>0</asrwt>
<pdfrwt beam="1">  1       21 0.36479599E-01 0.46624171E+03</pdfrwt>
<pdfrwt beam="2">  1       21 0.18495039E+00 0.46624171E+03</pdfrwt>
<totfact> 0.10162726E+03</totfact>
</mgrwt>
</event>
<event>
 4    1  0.4857079E-002  0.6294679E+03  0.7818608E-02  0.9846088E-01
         21   -1    0    0  501  502  0.00000000000E+00  0.00000000000E+00  0.12713170098E+04  0.12713170098E+04  0.00000000000E+00 0.  1.
         21   -1    0    0  502  503 -0.00000000000E+00 -0.00000000000E+00 -0.41212575593E+03  0.41212575593E+03  0.00000000000E+00 0. -1.
    9000005    1    1    2  501    0 -0.31670095023E+03  0.36868738875E+03  0.84516489942E+03  0.10538185753E+04  0.40000000000E+03 0.  1.
   -9000005    1    1    2    0  503  0.31670095023E+03 -0.36868738875E+03  0.14026354433E+02  0.62962419039E+03  0.40000000000E+03 0. -1.
<mgrwt>
<rscale>  2 0.62946794E+03</rscale>
<asrwt>0</asrwt>
<pdfrwt beam="1">  1       21 0.19558723E+00 0.62946794E+03</pdfrwt>
<pdfrwt beam="2">  1       21 0.63403963E-01 0.62946794E+03</pdfrwt>
<totfact> 0.24848270E+02</totfact>
</mgrwt>
</event>
<event>
 4    1  0.4857079E-002  0.7173083E+03  0.7818608E-02  0.9688082E-01
         21   -1    0    0  503  502  0.00000000000E+00  0.00000000000E+00  0.86585382871E+03  0.86585382871E+03  0.00000000000E+00 0. -1.
         21   -1    0    0  501  503 -0.00000000000E+00 -0.00000000000E+00 -0.67426309603E+03  0.67426309603E+03  0.00000000000E+00 0.  1.
    9000005    1    1    2  501    0 -0.43862928446E+02 -0.59380743688E+03 -0.16948010277E+03  0.73705816176E+03  0.40000000000E+03 0.  1.
   -9000005    1    1    2    0  502  0.43862928446E+02  0.59380743688E+03  0.36107083545E+03  0.80305876298E+03  0.40000000000E+03 0. -1.
<mgrwt>
<rscale>  2 0.71730832E+03</rscale>
<asrwt>0</asrwt>
<pdfrwt beam="1">  1       21 0.13320828E+00 0.71730832E+03</pdfrwt>
<pdfrwt beam="2">  1       21 0.10373278E+00 0.71730832E+03</pdfrwt>
<totfact> 0.22683718E+02</totfact>
</mgrwt>
</event>
<event>
 4    1  0.4857079E-002  0.7927490E+03  0.7818608E-02  0.9570572E-01
         21   -1    0    0  503  502  0.00000000000E+00  0.00000000000E+00  0.53010779490E+03  0.53010779490E+03  0.00000000000E+00 0.  1.
         21   -1    0    0  501  503 -0.00000000000E+00 -0.00000000000E+00 -0.12262242669E+04  0.12262242669E+04  0.00000000000E+00 0.  1.
    9000005    1    1    2  501    0 -0.67905892812E+03  0.85615130791E+02 -0.50806411741E+03  0.94158383901E+03  0.40000000000E+03 0.  1.
   -9000005    1    1    2    0  502  0.67905892812E+03 -0.85615130791E+02 -0.18805235459E+03  0.81474822280E+03  0.40000000000E+03 0.  1.
<mgrwt>
<rscale>  2 0.79274900E+03</rscale>
<asrwt>0</asrwt>
<pdfrwt beam="1">  1       21 0.81555047E-01 0.79274900E+03</pdfrwt>
<pdfrwt beam="2">  1       21 0.18864988E+00 0.79274900E+03</pdfrwt>
<totfact> 0.14800260E+02</totfact>
</mgrwt>
</event>
<event>
 4    1  0.4857079E-002  0.4361713E+03  0.7818608E-02  0.1031928E+00
         21   -1    0    0  501  502  0.00000000000E+00  0.00000000000E+00  0.62869520224E+03  0.62869520224E+03  0.00000000000E+00 0.  1.
         21   -1    0    0  502  503 -0.00000000000E+00 -0.00000000000E+00 -0.31877556424E+03  0.31877556424E+03  0.00000000000E+00 0.  1.
    9000005    1    1    2  501    0  0.14410168290E+03 -0.97365640796E+02  0.26166270364E+03  0.50863811644E+03  0.40000000000E+03 0.  1.
   -9000005    1    1    2    0  503 -0.14410168290E+03  0.97365640796E+02  0.48256934362E+02  0.43883265004E+03  0.40000000000E+03 0.  1.
<mgrwt>
<rscale>  2 0.43617125E+03</rscale>
<asrwt>0</asrwt>
<pdfrwt beam="1">  1       21 0.96722339E-01 0.43617125E+03</pdfrwt>
<pdfrwt beam="2">  1       21 0.49042395E-01 0.43617125E+03</pdfrwt>
<totfact> 0.30808943E+03</totfact>
</mgrwt>
</event>
<event>
 4    1  0.4857079E-002  0.4356482E+03  0.7818608E-02  0.1032090E+00
         21   -1    0    0  503  502  0.00000000000E+00  0.00000000000E+00  0.98856578016E+03  0.98856578016E+03  0.00000000000E+00 0.  1.
         21   -1    0    0  501  503 -0.00000000000E+00 -0.00000000000E+00 -0.22796916689E+03  0.22796916689E+03  0.00000000000E+00 0.  1.
    9000005    1    1    2  501    0  0.55168623452E+02  0.16354123781E+03  0.13863248039E+03  0.45717423166E+03  0.40000000000E+03 0.  1.
   -9000005    1    1    2    0  502 -0.55168623452E+02 -0.16354123781E+03  0.62196413289E+03  0.75936071539E+03  0.40000000000E+03 0.  1.
<mgrwt>
<rscale>  2 0.43564815E+03</rscale>
<asrwt>0</asrwt>
<pdfrwt beam="1">  1       21 0.15208704E+00 0.43564815E+03</pdfrwt>
<pdfrwt beam="2">  1       21 0.35072180E-01 0.43564815E+03</pdfrwt>
<totfact> 0.19429723E+03</totfact>
</mgrwt>
</event>
<event>
 4    1  0.4857079E-002  0.4701363E+03  0.7818608E-02  0.1021882E+00
         21   -1    0    0  501  502  0.00000000000E+00  0.00000000000E+00  0.89763314225E+03  0.89763314225E+03  0.00000000000E+00 0.  1.
         21   -1    0    0  502  503 -0.00000000000E+00 -0.00000000000E+00 -0.32320822515E+03  0.32320822515E+03  0.00000000000E+00 0.  1.
    9000005    1    1    2  501    0  0.23992147893E+03  0.58871505553E+02  0.58510493547E+03  0.75058374332E+03  0.40000000000E+03 0.  1.
   -9000005    1    1    2    0  503 -0.23992147893E+03 -0.58871505553E+02 -0.10680018371E+02  0.47025762409E+03  0.40000000000E+03 0.  1.
<mgrwt>
<rscale>  2 0.47013633E+03</rscale>
<asrwt>0</asrwt>
<pdfrwt beam="1">  1       21 0.13809741E+00 0.47013633E+03</pdfrwt>
<pdfrwt beam="2">  1       21 0.49724343E-01 0.47013633E+03</pdfrwt>
<totfact> 0.12043025E+03</totfact>
</mgrwt>
</event>
<event>
 4    1  0.4857079E-002  0.4098787E+03  0.7818608E-02  0.1040412E+00
         21   -1    0    0  503  502  0.00000000000E+00  0.00000000000E+00  0.18788900092E+03  0.18788900092E+03  0.00000000000E+00 0. -1.
         21   -1    0    0  501  503 -0.00000000000E+00 -0.00000000000E+00 -0.95996781888E+03  0.95996781888E+03  0.00000000000E+00 0. -1.
    9000005    1    1    2  501    0  0.79203584933E+02  0.41561627722E+02 -0.23575715993E+03  0.47284459944E+03  0.40000000000E+03 0. -1.
   -9000005    1    1    2    0  502 -0.79203584933E+02 -0.41561627722E+02 -0.53632165803E+03  0.67501222036E+03  0.40000000000E+03 0. -1.
<mgrwt>
<rscale>  2 0.40987873E+03</rscale>
<asrwt>0</asrwt>
<pdfrwt beam="1">  1       21 0.28905999E-01 0.40987873E+03</pdfrwt>
<pdfrwt beam="2">  1       21 0.14768736E+00 0.40987873E+03</pdfrwt>
<totfact> 0.31288974E+03</totfact>
</mgrwt>
</event>
<event>
 4    1  0.4857079E-002  0.4231733E+03  0.7818608E-02  0.1036038E+00
         21   -1    0    0  503  502  0.00000000000E+00  0.00000000000E+00  0.80077970608E+03  0.80077970608E+03  0.00000000000E+00 0.  1.
         21   -1    0    0  501  503 -0.00000000000E+00 -0.00000000000E+00 -0.60407697838E+03  0.60407697838E+03  0.00000000000E+00 0.  1.
    9000005    1    1    2  501    0 -0.54576055682E+01  0.13800679136E+03 -0.45909730438E+03  0.62437648483E+03  0.40000000000E+03 0.  1.
   -9000005    1    1    2    0  502  0.54576055682E+01 -0.13800679136E+03  0.65580003209E+03  0.78048019962E+03  0.40000000000E+03 0.  1.
<mgrwt>
<rscale>  2 0.42317332E+03</rscale>
<asrwt>0</asrwt>
<pdfrwt beam="1">  1       21 0.12319688E+00 0.42317332E+03</pdfrwt>
<pdfrwt beam="2">  1       21 0.92934920E-01 0.42317332E+03</pdfrwt>
<totfact> 0.40645482E+02</totfact>
</mgrwt>
</event>
