<event>
 4    1  0.4656600E-002  0.4373872E+03  0.7818608E-02  0.1031552E+00
         21   -1    0    0  503  502  0.00000000000E+00  0.00000000000E+00  0.44303440842E+03  0.44303440842E+03  0.00000000000E+00 0.  1.
         21   -1    0    0  501  503 -0.00000000000E+00 -0.00000000000E+00 -0.79775022574E+03  0.79775022574E+03  0.00000000000E+00 0.  1.
    9000007    1    1    2  501    0 -0.93583359430E+02 -0.15016552527E+03 -0.59753937346E+03  0.74051389790E+03  0.40000000000E+03 0.  1.
   -9000007    1    1    2    0  502  0.93583359430E+02  0.15016552527E+03  0.24282355615E+03  0.50027073626E+03  0.40000000000E+03 0.  1.
<mgrwt>
<rscale>  2 0.43738716E+03</rscale>
<asrwt>0</asrwt>
<pdfrwt beam="1">  1       21 0.68159140E-01 0.43738716E+03</pdfrwt>
<pdfrwt beam="2">  1       21 0.12273080E+00 0.43738716E+03</pdfrwt>
<totfact> 0.83374198E+02</totfact>
</mgrwt>
</event>
<event>
 4    1  0.4656600E-002  0.4394381E+03  0.7818608E-02  0.1030919E+00
         21   -1    0    0  503  502  0.00000000000E+00  0.00000000000E+00  0.94943682343E+02  0.94943682343E+02  0.00000000000E+00 0. -1.
         21   -1    0    0  501  503 -0.00000000000E+00 -0.00000000000E+00 -0.24294024093E+04  0.24294024093E+04  0.00000000000E+00 0.  1.
    9000007    1    1    2  501    0  0.78432896576E+01 -0.18178103659E+03 -0.16764948885E+04  0.17331303972E+04  0.40000000000E+03 0.  1.
   -9000007    1    1    2    0  502 -0.78432896576E+01  0.18178103659E+03 -0.65796383849E+03  0.79121569449E+03  0.40000000000E+03 0. -1.
<mgrwt>
<rscale>  2 0.43943812E+03</rscale>
<asrwt>0</asrwt>
<pdfrwt beam="1">  1       21 0.14606721E-01 0.43943812E+03</pdfrwt>
<pdfrwt beam="2">  1       21 0.37375421E+00 0.43943812E+03</pdfrwt>
<totfact> 0.40638707E+02</totfact>
</mgrwt>
</event>
<event>
 4    1  0.4656600E-002  0.4067849E+03  0.7818608E-02  0.1041455E+00
         21   -1    0    0  501  502  0.00000000000E+00  0.00000000000E+00  0.11119157696E+04  0.11119157696E+04  0.00000000000E+00 0.  1.
         21   -1    0    0  502  503 -0.00000000000E+00 -0.00000000000E+00 -0.21334095521E+03  0.21334095521E+03  0.00000000000E+00 0.  1.
    9000007    1    1    2  501    0  0.32698352333E+02 -0.66368653223E+02  0.81369490687E+03  0.90971060335E+03  0.40000000000E+03 0.  1.
   -9000007    1    1    2    0  503 -0.32698352333E+02  0.66368653223E+02  0.84879907533E+02  0.41554612148E+03  0.40000000000E+03 0.  1.
<mgrwt>
<rscale>  2 0.40678493E+03</rscale>
<asrwt>0</asrwt>
<pdfrwt beam="1">  1       21 0.17106396E+00 0.40678493E+03</pdfrwt>
<pdfrwt beam="2">  1       21 0.32821686E-01 0.40678493E+03</pdfrwt>
<totfact> 0.16204636E+03</totfact>
</mgrwt>
</event>
<event>
 4    1  0.4656600E-002  0.4494110E+03  0.7818608E-02  0.1027898E+00
         21   -1    0    0  503  502  0.00000000000E+00  0.00000000000E+00  0.81349142018E+03  0.81349142018E+03  0.00000000000E+00 0. -1.
         21   -1    0    0  501  503 -0.00000000000E+00 -0.00000000000E+00 -0.30948804813E+03  0.30948804813E+03  0.00000000000E+00 0.  1.
    9000007    1    1    2  501    0  0.10279157521E+03 -0.17721222925E+03  0.22900208310E+01  0.44941687365E+03  0.40000000000E+03 0.  1.
   -9000007    1    1    2    0  502 -0.10279157521E+03  0.17721222925E+03  0.50171335122E+03  0.67356259466E+03  0.40000000000E+03 0. -1.
<mgrwt>
<rscale>  2 0.44941104E+03</rscale>
<asrwt>0</asrwt>
<pdfrwt beam="1">  1       21 0.12515253E+00 0.44941104E+03</pdfrwt>
<pdfrwt beam="2">  1       21 0.47613546E-01 0.44941104E+03</pdfrwt>
<totfact> 0.17202614E+03</totfact>
</mgrwt>
</event>
<event>
 4    1  0.4656600E-002  0.4770505E+03  0.7818608E-02  0.1019949E+00
         21   -1    0    0  503  502  0.00000000000E+00  0.00000000000E+00  0.59776600796E+03  0.59776600796E+03  0.00000000000E+00 0. -1.
         21   -1    0    0  501  503 -0.00000000000E+00 -0.00000000000E+00 -0.38078234964E+03  0.38078234964E+03  0.00000000000E+00 0. -1.
    9000007    1    1    2  501    0  0.45871989590E+02  0.25587676565E+03  0.10187844067E+03  0.48780772370E+03  0.40000000000E+03 0. -1.
   -9000007    1    1    2    0  502 -0.45871989590E+02 -0.25587676565E+03  0.11510521765E+03  0.49074063390E+03  0.40000000000E+03 0. -1.
<mgrwt>
<rscale>  2 0.47705048E+03</rscale>
<asrwt>0</asrwt>
<pdfrwt beam="1">  1       21 0.91964001E-01 0.47705048E+03</pdfrwt>
<pdfrwt beam="2">  1       21 0.58581900E-01 0.47705048E+03</pdfrwt>
<totfact> 0.23373335E+03</totfact>
</mgrwt>
</event>
<event>
 4    1  0.4656600E-002  0.5637670E+03  0.7818608E-02  0.9983567E-01
         21   -1    0    0  501  502  0.00000000000E+00  0.00000000000E+00  0.41795807361E+03  0.41795807361E+03  0.00000000000E+00 0.  1.
         21   -1    0    0  502  503 -0.00000000000E+00 -0.00000000000E+00 -0.95531113827E+03  0.95531113827E+03  0.00000000000E+00 0.  1.
    9000007    1    1    2  501    0 -0.83617513155E+02 -0.38838304377E+03  0.41439145835E+02  0.56528796202E+03  0.40000000000E+03 0.  1.
   -9000007    1    1    2    0  503  0.83617513155E+02  0.38838304377E+03 -0.57879221050E+03  0.80798124986E+03  0.40000000000E+03 0.  1.
<mgrwt>
<rscale>  2 0.56376704E+03</rscale>
<asrwt>0</asrwt>
<pdfrwt beam="1">  1       21 0.64301242E-01 0.56376704E+03</pdfrwt>
<pdfrwt beam="2">  1       21 0.14697094E+00 0.56376704E+03</pdfrwt>
<totfact> 0.56204762E+02</totfact>
</mgrwt>
</event>
<event>
 4    1  0.4656600E-002  0.5389847E+03  0.7818608E-02  0.1004076E+00
         21   -1    0    0  503  502  0.00000000000E+00  0.00000000000E+00  0.42376402332E+03  0.42376402332E+03  0.00000000000E+00 0. -1.
         21   -1    0    0  501  503 -0.00000000000E+00 -0.00000000000E+00 -0.69167945291E+03  0.69167945291E+03  0.00000000000E+00 0.  1.
    9000007    1    1    2  501    0  0.12243478736E+03 -0.33987383287E+03 -0.81385738854E+02  0.54509461373E+03  0.40000000000E+03 0. -1.
   -9000007    1    1    2    0  502 -0.12243478736E+03  0.33987383287E+03 -0.18652969073E+03  0.57034886250E+03  0.40000000000E+03 0.  1.
<mgrwt>
<rscale>  2 0.53898469E+03</rscale>
<asrwt>0</asrwt>
<pdfrwt beam="1">  1       21 0.65194465E-01 0.53898469E+03</pdfrwt>
<pdfrwt beam="2">  1       21 0.10641222E+00 0.53898469E+03</pdfrwt>
<totfact> 0.12675737E+03</totfact>
</mgrwt>
</event>
<event>
 4    1  0.4656600E-002  0.4221955E+03  0.7818608E-02  0.1036354E+00
         21   -1    0    0  503  502  0.00000000000E+00  0.00000000000E+00  0.13366005177E+04  0.13366005177E+04  0.00000000000E+00 0.  1.
         21   -1    0    0  501  503 -0.00000000000E+00 -0.00000000000E+00 -0.16697719607E+03  0.16697719607E+03  0.00000000000E+00 0.  1.
    9000007    1    1    2  501    0  0.61691645675E+02  0.12017988171E+03  0.24748710395E+03  0.48938627866E+03  0.40000000000E+03 0.  1.
   -9000007    1    1    2    0  502 -0.61691645675E+02 -0.12017988171E+03  0.92213621763E+03  0.10141914351E+04  0.40000000000E+03 0.  1.
<mgrwt>
<rscale>  2 0.42219553E+03</rscale>
<asrwt>0</asrwt>
<pdfrwt beam="1">  1       21 0.20563084E+00 0.42219553E+03</pdfrwt>
<pdfrwt beam="2">  1       21 0.25688800E-01 0.42219553E+03</pdfrwt>
<totfact> 0.15114665E+03</totfact>
</mgrwt>
</event>
<event>
 4    1  0.4656600E-002  0.6030117E+03  0.7818608E-02  0.9899177E-01
         21   -1    0    0  503  502  0.00000000000E+00  0.00000000000E+00  0.12183319410E+03  0.12183319410E+03  0.00000000000E+00 0.  1.
         21   -1    0    0  501  503 -0.00000000000E+00 -0.00000000000E+00 -0.30415924660E+04  0.30415924660E+04  0.00000000000E+00 0. -1.
    9000007    1    1    2  501    0  0.13039635203E+03 -0.43199522590E+03 -0.16763977365E+04  0.17815533825E+04  0.40000000000E+03 0.  1.
   -9000007    1    1    2    0  502 -0.13039635203E+03  0.43199522590E+03 -0.12433615353E+04  0.13818722775E+04  0.40000000000E+03 0. -1.
<mgrwt>
<rscale>  2 0.60301168E+03</rscale>
<asrwt>0</asrwt>
<pdfrwt beam="1">  1       21 0.18743570E-01 0.60301168E+03</pdfrwt>
<pdfrwt beam="2">  1       21 0.46793725E+00 0.60301168E+03</pdfrwt>
<totfact> 0.55429951E+01</totfact>
</mgrwt>
</event>
<event>
 4    1  0.4656600E-002  0.4718287E+03  0.7818608E-02  0.1021405E+00
         21   -1    0    0  501  502  0.00000000000E+00  0.00000000000E+00  0.26593113379E+03  0.26593113379E+03  0.00000000000E+00 0. -1.
         21   -1    0    0  502  503 -0.00000000000E+00 -0.00000000000E+00 -0.21347032115E+04  0.21347032115E+04  0.00000000000E+00 0. -1.
    9000007    1    1    2  501    0 -0.24913723569E+03  0.23515712781E+02  0.14312200301E+01  0.47183090122E+03  0.40000000000E+03 0. -1.
   -9000007    1    1    2    0  503  0.24913723569E+03 -0.23515712781E+02 -0.18702032978E+04  0.19288034441E+04  0.40000000000E+03 0. -1.
<mgrwt>
<rscale>  2 0.47182873E+03</rscale>
<asrwt>0</asrwt>
<pdfrwt beam="1">  1       21 0.40912480E-01 0.47182873E+03</pdfrwt>
<pdfrwt beam="2">  1       21 0.32841589E+00 0.47182873E+03</pdfrwt>
<totfact> 0.10173682E+02</totfact>
</mgrwt>
</event>
<event>
 4    1  0.4656600E-002  0.4702761E+03  0.7818608E-02  0.1021842E+00
         21   -1    0    0  503  502  0.00000000000E+00  0.00000000000E+00  0.27959517632E+04  0.27959517632E+04  0.00000000000E+00 0.  1.
         21   -1    0    0  501  503 -0.00000000000E+00 -0.00000000000E+00 -0.91128336366E+02  0.91128336366E+02  0.00000000000E+00 0. -1.
    9000007    1    1    2  501    0  0.13119487914E+03 -0.20963671528E+03  0.82795967788E+03  0.95219581857E+03  0.40000000000E+03 0. -1.
   -9000007    1    1    2    0  502 -0.13119487914E+03  0.20963671528E+03  0.18768637489E+04  0.19348842810E+04  0.40000000000E+03 0. -1.
<mgrwt>
<rscale>  2 0.47027614E+03</rscale>
<asrwt>0</asrwt>
<pdfrwt beam="1">  1       21 0.43014636E+00 0.47027614E+03</pdfrwt>
<pdfrwt beam="2">  1       21 0.14019746E-01 0.47027614E+03</pdfrwt>
<totfact> 0.18634937E+02</totfact>
</mgrwt>
</event>
<event>
 4    1  0.4656600E-002  0.4551652E+03  0.7818608E-02  0.1026193E+00
         21   -1    0    0  501  502  0.00000000000E+00  0.00000000000E+00  0.42324717787E+03  0.42324717787E+03  0.00000000000E+00 0.  1.
         21   -1    0    0  502  503 -0.00000000000E+00 -0.00000000000E+00 -0.64746332742E+03  0.64746332742E+03  0.00000000000E+00 0.  1.
    9000007    1    1    2  501    0  0.21716799371E+03  0.36617559232E+01 -0.37654742908E+03  0.59073116753E+03  0.40000000000E+03 0.  1.
   -9000007    1    1    2    0  503 -0.21716799371E+03 -0.36617559232E+01  0.15233127953E+03  0.47997933775E+03  0.40000000000E+03 0.  1.
<mgrwt>
<rscale>  2 0.45516519E+03</rscale>
<asrwt>0</asrwt>
<pdfrwt beam="1">  1       21 0.65114950E-01 0.45516519E+03</pdfrwt>
<pdfrwt beam="2">  1       21 0.99609743E-01 0.45516519E+03</pdfrwt>
<totfact> 0.15404004E+03</totfact>
</mgrwt>
</event>
<event>
 4    1  0.4656600E-002  0.6074540E+03  0.7818608E-02  0.9890061E-01
         21   -1    0    0  501  502  0.00000000000E+00  0.00000000000E+00  0.48694988616E+03  0.48694988616E+03  0.00000000000E+00 0. -1.
         21   -1    0    0  502  503 -0.00000000000E+00 -0.00000000000E+00 -0.80982314968E+03  0.80982314968E+03  0.00000000000E+00 0.  1.
    9000007    1    1    2  501    0 -0.27400388705E+02 -0.45634371116E+03  0.29343427930E+01  0.60746108878E+03  0.40000000000E+03 0. -1.
   -9000007    1    1    2    0  503  0.27400388705E+02  0.45634371116E+03 -0.32580760631E+03  0.68931194705E+03  0.40000000000E+03 0.  1.
<mgrwt>
<rscale>  2 0.60745400E+03</rscale>
<asrwt>0</asrwt>
<pdfrwt beam="1">  1       21 0.74915367E-01 0.60745400E+03</pdfrwt>
<pdfrwt beam="2">  1       21 0.12458818E+00 0.60745400E+03</pdfrwt>
<totfact> 0.60739221E+02</totfact>
</mgrwt>
</event>
<event>
 4    1  0.4656600E-002  0.7496368E+03  0.7818608E-02  0.9635920E-01
         21   -1    0    0  503  502  0.00000000000E+00  0.00000000000E+00  0.16198016741E+04  0.16198016741E+04  0.00000000000E+00 0. -1.
         21   -1    0    0  501  503 -0.00000000000E+00 -0.00000000000E+00 -0.34692848613E+03  0.34692848613E+03  0.00000000000E+00 0.  1.
    9000007    1    1    2  501    0  0.63391609253E+03 -0.10278650964E+02  0.63680666603E+03  0.98360459176E+03  0.40000000000E+03 0. -1.
   -9000007    1    1    2    0  502 -0.63391609253E+03  0.10278650964E+02  0.63606652196E+03  0.98312556848E+03  0.40000000000E+03 0.  1.
<mgrwt>
<rscale>  2 0.74963675E+03</rscale>
<asrwt>0</asrwt>
<pdfrwt beam="1">  1       21 0.24920025E+00 0.74963675E+03</pdfrwt>
<pdfrwt beam="2">  1       21 0.53373614E-01 0.74963675E+03</pdfrwt>
<totfact> 0.15586522E+02</totfact>
</mgrwt>
</event>
<event>
 4    1  0.4656600E-002  0.5171220E+03  0.7818608E-02  0.1009404E+00
         21   -1    0    0  501  502  0.00000000000E+00  0.00000000000E+00  0.10220190222E+04  0.10220190222E+04  0.00000000000E+00 0. -1.
         21   -1    0    0  502  503 -0.00000000000E+00 -0.00000000000E+00 -0.30583129559E+03  0.30583129559E+03  0.00000000000E+00 0. -1.
    9000007    1    1    2  501    0  0.32463762543E+03  0.45006447942E+02  0.61042954968E+03  0.80002462670E+03  0.40000000000E+03 0. -1.
   -9000007    1    1    2    0  503 -0.32463762543E+03 -0.45006447942E+02  0.10575817695E+03  0.52782569111E+03  0.40000000000E+03 0. -1.
<mgrwt>
<rscale>  2 0.51712201E+03</rscale>
<asrwt>0</asrwt>
<pdfrwt beam="1">  1       21 0.15723369E+00 0.51712201E+03</pdfrwt>
<pdfrwt beam="2">  1       21 0.47050969E-01 0.51712201E+03</pdfrwt>
<totfact> 0.93528650E+02</totfact>
</mgrwt>
</event>
<event>
 4    1  0.4656600E-002  0.4127773E+03  0.7818608E-02  0.1039443E+00
         21   -1    0    0  503  502  0.00000000000E+00  0.00000000000E+00  0.24680492176E+03  0.24680492176E+03  0.00000000000E+00 0.  1.
         21   -1    0    0  501  503 -0.00000000000E+00 -0.00000000000E+00 -0.69767721612E+03  0.69767721612E+03  0.00000000000E+00 0.  1.
    9000007    1    1    2  501    0  0.10123544979E+03  0.11681284006E+02 -0.17708459119E+03  0.44915923805E+03  0.40000000000E+03 0.  1.
   -9000007    1    1    2    0  502 -0.10123544979E+03 -0.11681284006E+02 -0.27378770317E+03  0.49532289983E+03  0.40000000000E+03 0.  1.
<mgrwt>
<rscale>  2 0.41277726E+03</rscale>
<asrwt>0</asrwt>
<pdfrwt beam="1">  1       21 0.37969988E-01 0.41277726E+03</pdfrwt>
<pdfrwt beam="2">  1       21 0.10733495E+00 0.41277726E+03</pdfrwt>
<totfact> 0.41052883E+03</totfact>
</mgrwt>
</event>
<event>
 4    1  0.4656600E-002  0.5435161E+03  0.7818608E-02  0.1003006E+00
         21   -1    0    0  503  502  0.00000000000E+00  0.00000000000E+00  0.55686808418E+03  0.55686808418E+03  0.00000000000E+00 0.  1.
         21   -1    0    0  501  503 -0.00000000000E+00 -0.00000000000E+00 -0.83324045623E+03  0.83324045623E+03  0.00000000000E+00 0.  1.
    9000007    1    1    2  501    0 -0.23487031056E+03  0.28327678523E+03 -0.55715336478E+03  0.77835060976E+03  0.40000000000E+03 0.  1.
   -9000007    1    1    2    0  502  0.23487031056E+03 -0.28327678523E+03  0.28078099273E+03  0.61175793065E+03  0.40000000000E+03 0.  1.
<mgrwt>
<rscale>  2 0.54351614E+03</rscale>
<asrwt>0</asrwt>
<pdfrwt beam="1">  1       21 0.85672013E-01 0.54351614E+03</pdfrwt>
<pdfrwt beam="2">  1       21 0.12819084E+00 0.54351614E+03</pdfrwt>
<totfact> 0.42223895E+02</totfact>
</mgrwt>
</event>
<event>
 4    1  0.4656600E-002  0.4471548E+03  0.7818608E-02  0.1028574E+00
         21   -1    0    0  501  502  0.00000000000E+00  0.00000000000E+00  0.68682796270E+03  0.68682796270E+03  0.00000000000E+00 0.  1.
         21   -1    0    0  502  503 -0.00000000000E+00 -0.00000000000E+00 -0.43464420080E+03  0.43464420080E+03  0.00000000000E+00 0.  1.
    9000007    1    1    2  501    0 -0.99055946098E+02  0.17359538214E+03  0.44831622956E+03  0.63319418731E+03  0.40000000000E+03 0.  1.
   -9000007    1    1    2    0  503  0.99055946098E+02 -0.17359538214E+03 -0.19613246766E+03  0.48827797619E+03  0.40000000000E+03 0.  1.
<mgrwt>
<rscale>  2 0.44715482E+03</rscale>
<asrwt>0</asrwt>
<pdfrwt beam="1">  1       21 0.10566584E+00 0.44715482E+03</pdfrwt>
<pdfrwt beam="2">  1       21 0.66868339E-01 0.44715482E+03</pdfrwt>
<totfact> 0.12604263E+03</totfact>
</mgrwt>
</event>
<event>
 4    1  0.4656600E-002  0.5620711E+03  0.7818608E-02  0.9987379E-01
         21   -1    0    0  503  502  0.00000000000E+00  0.00000000000E+00  0.90598263669E+03  0.90598263669E+03  0.00000000000E+00 0.  1.
         21   -1    0    0  501  503 -0.00000000000E+00 -0.00000000000E+00 -0.43382275344E+03  0.43382275344E+03  0.00000000000E+00 0.  1.
    9000007    1    1    2  501    0  0.27865786441E+03  0.27977449817E+03 -0.60646566414E+02  0.56533351328E+03  0.40000000000E+03 0.  1.
   -9000007    1    1    2    0  502 -0.27865786441E+03 -0.27977449817E+03  0.53280644966E+03  0.77447187685E+03  0.40000000000E+03 0.  1.
<mgrwt>
<rscale>  2 0.56207115E+03</rscale>
<asrwt>0</asrwt>
<pdfrwt beam="1">  1       21 0.13938194E+00 0.56207115E+03</pdfrwt>
<pdfrwt beam="2">  1       21 0.66741962E-01 0.56207115E+03</pdfrwt>
<totfact> 0.59701067E+02</totfact>
</mgrwt>
</event>
<event>
 4    1  0.4656600E-002  0.4621410E+03  0.7818608E-02  0.1024162E+00
         21   -1    0    0  501  502  0.00000000000E+00  0.00000000000E+00  0.22638285105E+03  0.22638285105E+03  0.00000000000E+00 0.  1.
         21   -1    0    0  502  503 -0.00000000000E+00 -0.00000000000E+00 -0.10310515669E+04  0.10310515669E+04  0.00000000000E+00 0.  1.
    9000007    1    1    2  501    0 -0.91702097463E+02  0.21252055819E+03 -0.21904224886E+03  0.51142327784E+03  0.40000000000E+03 0.  1.
   -9000007    1    1    2    0  503  0.91702097463E+02 -0.21252055819E+03 -0.58562646698E+03  0.74601114010E+03  0.40000000000E+03 0.  1.
<mgrwt>
<rscale>  2 0.46214096E+03</rscale>
<asrwt>0</asrwt>
<pdfrwt beam="1">  1       21 0.34828131E-01 0.46214096E+03</pdfrwt>
<pdfrwt beam="2">  1       21 0.15862332E+00 0.46214096E+03</pdfrwt>
<totfact> 0.17364294E+03</totfact>
</mgrwt>
</event>
<event>
 4    1  0.4656600E-002  0.4438157E+03  0.7818608E-02  0.1029582E+00
         21   -1    0    0  503  502  0.00000000000E+00  0.00000000000E+00  0.36693313334E+03  0.36693313334E+03  0.00000000000E+00 0. -1.
         21   -1    0    0  501  503 -0.00000000000E+00 -0.00000000000E+00 -0.54569461477E+03  0.54569461477E+03  0.00000000000E+00 0.  1.
    9000007    1    1    2  501    0  0.18433838046E+03 -0.54696863487E+02 -0.31147083241E+02  0.44490732314E+03  0.40000000000E+03 0. -1.
   -9000007    1    1    2    0  502 -0.18433838046E+03  0.54696863487E+02 -0.14761439819E+03  0.46772042497E+03  0.40000000000E+03 0.  1.
<mgrwt>
<rscale>  2 0.44381571E+03</rscale>
<asrwt>0</asrwt>
<pdfrwt beam="1">  1       21 0.56451252E-01 0.44381571E+03</pdfrwt>
<pdfrwt beam="2">  1       21 0.83953017E-01 0.44381571E+03</pdfrwt>
<totfact> 0.31780407E+03</totfact>
</mgrwt>
</event>
<event>
 4    1  0.4656600E-002  0.4048399E+03  0.7818608E-02  0.1042117E+00
         21   -1    0    0  501  502  0.00000000000E+00  0.00000000000E+00  0.43708379660E+03  0.43708379660E+03  0.00000000000E+00 0.  1.
         21   -1    0    0  502  503 -0.00000000000E+00 -0.00000000000E+00 -0.58729585150E+03  0.58729585150E+03  0.00000000000E+00 0.  1.
    9000007    1    1    2  501    0  0.72842253512E+01  0.61986342449E+02  0.23285737360E+03  0.46703096581E+03  0.40000000000E+03 0.  1.
   -9000007    1    1    2    0  503 -0.72842253512E+01 -0.61986342449E+02 -0.38306942851E+03  0.55734868229E+03  0.40000000000E+03 0.  1.
<mgrwt>
<rscale>  2 0.40483993E+03</rscale>
<asrwt>0</asrwt>
<pdfrwt beam="1">  1       21 0.67243661E-01 0.40483993E+03</pdfrwt>
<pdfrwt beam="2">  1       21 0.90353207E-01 0.40483993E+03</pdfrwt>
<totfact> 0.18481130E+03</totfact>
</mgrwt>
</event>
<event>
 4    1  0.4656600E-002  0.4635435E+03  0.7818608E-02  0.1023758E+00
         21   -1    0    0  503  502  0.00000000000E+00  0.00000000000E+00  0.17044916355E+03  0.17044916355E+03  0.00000000000E+00 0. -1.
         21   -1    0    0  501  503 -0.00000000000E+00 -0.00000000000E+00 -0.14392352426E+04  0.14392352426E+04  0.00000000000E+00 0. -1.
    9000007    1    1    2  501    0 -0.19166994167E+03  0.13466709924E+03 -0.91792184730E+03  0.10283253920E+04  0.40000000000E+03 0.  1.
   -9000007    1    1    2    0  502  0.19166994167E+03 -0.13466709924E+03 -0.35086423175E+03  0.58135901410E+03  0.40000000000E+03 0.  1.
<mgrwt>
<rscale>  2 0.46354352E+03</rscale>
<asrwt>0</asrwt>
<pdfrwt beam="1">  1       21 0.26222949E-01 0.46354352E+03</pdfrwt>
<pdfrwt beam="2">  1       21 0.22142080E+00 0.46354352E+03</pdfrwt>
<totfact> 0.11257090E+03</totfact>
</mgrwt>
</event>
<event>
 4    1  0.4656600E-002  0.4793477E+03  0.7818608E-02  0.1019315E+00
         21   -1    0    0  503  502  0.00000000000E+00  0.00000000000E+00  0.12310508813E+04  0.12310508813E+04  0.00000000000E+00 0. -1.
         21   -1    0    0  501  503 -0.00000000000E+00 -0.00000000000E+00 -0.53957793215E+03  0.53957793215E+03  0.00000000000E+00 0.  1.
    9000007    1    1    2  501    0  0.44901804834E+02  0.26030379956E+03 -0.37026540233E+03  0.60569852922E+03  0.40000000000E+03 0.  1.
   -9000007    1    1    2    0  502 -0.44901804834E+02 -0.26030379956E+03  0.10617383515E+04  0.11649302842E+04  0.40000000000E+03 0. -1.
<mgrwt>
<rscale>  2 0.47934772E+03</rscale>
<asrwt>0</asrwt>
<pdfrwt beam="1">  1       21 0.18939244E+00 0.47934772E+03</pdfrwt>
<pdfrwt beam="2">  1       21 0.83011990E-01 0.47934772E+03</pdfrwt>
<totfact> 0.15810588E+02</totfact>
</mgrwt>
</event>
<event>
 4    1  0.4656600E-002  0.4072257E+03  0.7818608E-02  0.1041306E+00
         21   -1    0    0  501  502  0.00000000000E+00  0.00000000000E+00  0.52715676838E+03  0.52715676838E+03  0.00000000000E+00 0.  1.
         21   -1    0    0  502  503 -0.00000000000E+00 -0.00000000000E+00 -0.69765495827E+03  0.69765495827E+03  0.00000000000E+00 0.  1.
    9000007    1    1    2  501    0  0.73977440465E+02  0.18975827576E+02  0.36854739147E+03  0.54923576312E+03  0.40000000000E+03 0.  1.
   -9000007    1    1    2    0  503 -0.73977440465E+02 -0.18975827576E+02 -0.53904558135E+03  0.67557596353E+03  0.40000000000E+03 0.  1.
<mgrwt>
<rscale>  2 0.40722567E+03</rscale>
<asrwt>0</asrwt>
<pdfrwt beam="1">  1       21 0.81101041E-01 0.40722567E+03</pdfrwt>
<pdfrwt beam="2">  1       21 0.10733153E+00 0.40722567E+03</pdfrwt>
<totfact> 0.79619976E+02</totfact>
</mgrwt>
</event>
<event>
 4    1  0.4656600E-002  0.6824259E+03  0.7818608E-02  0.9747767E-01
         21   -1    0    0  503  502  0.00000000000E+00  0.00000000000E+00  0.65578087063E+03  0.65578087063E+03  0.00000000000E+00 0.  1.
         21   -1    0    0  501  503 -0.00000000000E+00 -0.00000000000E+00 -0.80882280823E+03  0.80882280823E+03  0.00000000000E+00 0. -1.
    9000007    1    1    2  501    0  0.11185561799E+03 -0.54147344148E+03 -0.33229366485E+03  0.75902848880E+03  0.40000000000E+03 0.  1.
   -9000007    1    1    2    0  502 -0.11185561799E+03  0.54147344148E+03  0.17925172726E+03  0.70557519006E+03  0.40000000000E+03 0. -1.
<mgrwt>
<rscale>  2 0.68242594E+03</rscale>
<asrwt>0</asrwt>
<pdfrwt beam="1">  1       21 0.10088936E+00 0.68242594E+03</pdfrwt>
<pdfrwt beam="2">  1       21 0.12443428E+00 0.68242594E+03</pdfrwt>
<totfact> 0.29368308E+02</totfact>
</mgrwt>
</event>
<event>
 4    1  0.4656600E-002  0.4485455E+03  0.7818608E-02  0.1028157E+00
         21   -1    0    0  503  502  0.00000000000E+00  0.00000000000E+00  0.14671808805E+04  0.14671808805E+04  0.00000000000E+00 0. -1.
         21   -1    0    0  501  503 -0.00000000000E+00 -0.00000000000E+00 -0.32387142928E+03  0.32387142928E+03  0.00000000000E+00 0.  1.
    9000007    1    1    2  501    0 -0.11879965759E+03  0.16455919998E+03 -0.10835233850E+03  0.46144698309E+03  0.40000000000E+03 0.  1.
   -9000007    1    1    2    0  502  0.11879965759E+03 -0.16455919998E+03  0.12516617898E+04  0.13296053267E+04  0.40000000000E+03 0. -1.
<mgrwt>
<rscale>  2 0.44854553E+03</rscale>
<asrwt>0</asrwt>
<pdfrwt beam="1">  1       21 0.22572013E+00 0.44854553E+03</pdfrwt>
<pdfrwt beam="2">  1       21 0.49826375E-01 0.44854553E+03</pdfrwt>
<totfact> 0.28821440E+02</totfact>
</mgrwt>
</event>
<event>
 4    1  0.4656600E-002  0.4704184E+03  0.7818608E-02  0.1021802E+00
         21   -1    0    0  503  502  0.00000000000E+00  0.00000000000E+00  0.49499373075E+03  0.49499373075E+03  0.00000000000E+00 0. -1.
         21   -1    0    0  501  503 -0.00000000000E+00 -0.00000000000E+00 -0.56493510881E+03  0.56493510881E+03  0.00000000000E+00 0. -1.
    9000007    1    1    2  501    0  0.90588319273E+02  0.23040674345E+03 -0.27704710346E+03  0.54593828273E+03  0.40000000000E+03 0. -1.
   -9000007    1    1    2    0  502 -0.90588319273E+02 -0.23040674345E+03  0.20710572539E+03  0.51399055683E+03  0.40000000000E+03 0. -1.
<mgrwt>
<rscale>  2 0.47041844E+03</rscale>
<asrwt>0</asrwt>
<pdfrwt beam="1">  1       21 0.76152882E-01 0.47041844E+03</pdfrwt>
<pdfrwt beam="2">  1       21 0.86913093E-01 0.47041844E+03</pdfrwt>
<totfact> 0.14896394E+03</totfact>
</mgrwt>
</event>
<event>
 4    1  0.4656600E-002  0.4243597E+03  0.7818608E-02  0.1035657E+00
         21   -1    0    0  503  502  0.00000000000E+00  0.00000000000E+00  0.27399248976E+03  0.27399248976E+03  0.00000000000E+00 0.  1.
         21   -1    0    0  501  503 -0.00000000000E+00 -0.00000000000E+00 -0.14613960106E+04  0.14613960106E+04  0.00000000000E+00 0. -1.
    9000007    1    1    2  501    0  0.12341332161E+03  0.69644186733E+02  0.49949485279E+02  0.42728926008E+03  0.40000000000E+03 0.  1.
   -9000007    1    1    2    0  502 -0.12341332161E+03 -0.69644186733E+02 -0.12373530061E+04  0.13080992403E+04  0.40000000000E+03 0. -1.
<mgrwt>
<rscale>  2 0.42435971E+03</rscale>
<asrwt>0</asrwt>
<pdfrwt beam="1">  1       21 0.42152690E-01 0.42435971E+03</pdfrwt>
<pdfrwt beam="2">  1       21 0.22483016E+00 0.42435971E+03</pdfrwt>
<totfact> 0.42025088E+02</totfact>
</mgrwt>
</event>
<event>
 4    1  0.4656600E-002  0.5742584E+03  0.7818608E-02  0.9960299E-01
         21   -1    0    0  501  502  0.00000000000E+00  0.00000000000E+00  0.67787688631E+03  0.67787688631E+03  0.00000000000E+00 0. -1.
         21   -1    0    0  502  503 -0.00000000000E+00 -0.00000000000E+00 -0.50334603076E+03  0.50334603076E+03  0.00000000000E+00 0. -1.
    9000007    1    1    2  501    0 -0.28847081986E+03  0.29420626559E+03  0.19538151393E+03  0.60658608343E+03  0.40000000000E+03 0. -1.
   -9000007    1    1    2    0  503  0.28847081986E+03 -0.29420626559E+03 -0.20850658377E+02  0.57463683364E+03  0.40000000000E+03 0. -1.
<mgrwt>
<rscale>  2 0.57425843E+03</rscale>
<asrwt>0</asrwt>
<pdfrwt beam="1">  1       21 0.10428875E+00 0.57425843E+03</pdfrwt>
<pdfrwt beam="2">  1       21 0.77437851E-01 0.57425843E+03</pdfrwt>
<totfact> 0.89126535E+02</totfact>
</mgrwt>
</event>
<event>
 4    1  0.4656600E-002  0.4056159E+03  0.7818608E-02  0.1041852E+00
         21   -1    0    0  501  502  0.00000000000E+00  0.00000000000E+00  0.12556246355E+04  0.12556246355E+04  0.00000000000E+00 0. -1.
         21   -1    0    0  502  503 -0.00000000000E+00 -0.00000000000E+00 -0.14184617571E+03  0.14184617571E+03  0.00000000000E+00 0. -1.
    9000007    1    1    2  501    0  0.39572137062E+02 -0.54390066891E+02  0.74983932618E+03  0.85251583474E+03  0.40000000000E+03 0. -1.
   -9000007    1    1    2    0  503 -0.39572137062E+02  0.54390066891E+02  0.36393913361E+03  0.54495497647E+03  0.40000000000E+03 0. -1.
<mgrwt>
<rscale>  2 0.40561587E+03</rscale>
<asrwt>0</asrwt>
<pdfrwt beam="1">  1       21 0.19317301E+00 0.40561587E+03</pdfrwt>
<pdfrwt beam="2">  1       21 0.21822489E-01 0.40561587E+03</pdfrwt>
<totfact> 0.25267427E+03</totfact>
</mgrwt>
</event>
<event>
 4    1  0.4656600E-002  0.4120526E+03  0.7818608E-02  0.1039684E+00
         21   -1    0    0  503  502  0.00000000000E+00  0.00000000000E+00  0.35608861147E+03  0.35608861147E+03  0.00000000000E+00 0.  1.
         21   -1    0    0  501  503 -0.00000000000E+00 -0.00000000000E+00 -0.91291600540E+03  0.91291600540E+03  0.00000000000E+00 0.  1.
    9000007    1    1    2  501    0 -0.80741660831E+02  0.57167513613E+02 -0.71695732913E+03  0.82693116533E+03  0.40000000000E+03 0.  1.
   -9000007    1    1    2    0  502  0.80741660831E+02 -0.57167513613E+02  0.16012993520E+03  0.44207345154E+03  0.40000000000E+03 0.  1.
<mgrwt>
<rscale>  2 0.41205259E+03</rscale>
<asrwt>0</asrwt>
<pdfrwt beam="1">  1       21 0.54782863E-01 0.41205259E+03</pdfrwt>
<pdfrwt beam="2">  1       21 0.14044862E+00 0.41205259E+03</pdfrwt>
<totfact> 0.95950409E+02</totfact>
</mgrwt>
</event>
<event>
 4    1  0.4656600E-002  0.4361780E+03  0.7818608E-02  0.1031926E+00
         21   -1    0    0  503  502  0.00000000000E+00  0.00000000000E+00  0.21437444165E+03  0.21437444165E+03  0.00000000000E+00 0. -1.
         21   -1    0    0  501  503 -0.00000000000E+00 -0.00000000000E+00 -0.10731423590E+04  0.10731423590E+04  0.00000000000E+00 0. -1.
    9000007    1    1    2  501    0  0.53295705117E+02  0.16556207552E+03 -0.69715645858E+03  0.82236145384E+03  0.40000000000E+03 0. -1.
   -9000007    1    1    2    0  502 -0.53295705117E+02 -0.16556207552E+03 -0.16161145875E+03  0.46515534678E+03  0.40000000000E+03 0. -1.
<mgrwt>
<rscale>  2 0.43617798E+03</rscale>
<asrwt>0</asrwt>
<pdfrwt beam="1">  1       21 0.32980683E-01 0.43617798E+03</pdfrwt>
<pdfrwt beam="2">  1       21 0.16509882E+00 0.43617798E+03</pdfrwt>
<totfact> 0.17513979E+03</totfact>
</mgrwt>
</event>
<event>
 4    1  0.4656600E-002  0.4322932E+03  0.7818608E-02  0.1033138E+00
         21   -1    0    0  503  502  0.00000000000E+00  0.00000000000E+00  0.77204606047E+03  0.77204606047E+03  0.00000000000E+00 0. -1.
         21   -1    0    0  501  503 -0.00000000000E+00 -0.00000000000E+00 -0.27304045904E+03  0.27304045904E+03  0.00000000000E+00 0. -1.
    9000007    1    1    2  501    0 -0.32305925754E+02 -0.16072880086E+03  0.73471689935E+02  0.43849231406E+03  0.40000000000E+03 0. -1.
   -9000007    1    1    2    0  502  0.32305925754E+02  0.16072880086E+03  0.42553391149E+03  0.60659420546E+03  0.40000000000E+03 0. -1.
<mgrwt>
<rscale>  2 0.43229321E+03</rscale>
<asrwt>0</asrwt>
<pdfrwt beam="1">  1       21 0.11877632E+00 0.43229321E+03</pdfrwt>
<pdfrwt beam="2">  1       21 0.42006225E-01 0.43229321E+03</pdfrwt>
<totfact> 0.25725794E+03</totfact>
</mgrwt>
</event>
<event>
 4    1  0.4656600E-002  0.4601280E+03  0.7818608E-02  0.1024744E+00
         21   -1    0    0  503  502  0.00000000000E+00  0.00000000000E+00  0.40951038259E+03  0.40951038259E+03  0.00000000000E+00 0.  1.
         21   -1    0    0  501  503 -0.00000000000E+00 -0.00000000000E+00 -0.57926305955E+03  0.57926305955E+03  0.00000000000E+00 0.  1.
    9000007    1    1    2  501    0  0.20834958441E+03 -0.91149367986E+02 -0.24695899261E+03  0.52221307973E+03  0.40000000000E+03 0.  1.
   -9000007    1    1    2    0  502 -0.20834958441E+03  0.91149367986E+02  0.77206315643E+02  0.46656036242E+03  0.40000000000E+03 0.  1.
<mgrwt>
<rscale>  2 0.46012798E+03</rscale>
<asrwt>0</asrwt>
<pdfrwt beam="1">  1       21 0.63001597E-01 0.46012798E+03</pdfrwt>
<pdfrwt beam="2">  1       21 0.89117394E-01 0.46012798E+03</pdfrwt>
<totfact> 0.21592855E+03</totfact>
</mgrwt>
</event>
<event>
 4    1  0.4656600E-002  0.5057950E+03  0.7818608E-02  0.1012277E+00
         21   -1    0    0  503  502  0.00000000000E+00  0.00000000000E+00  0.55750831275E+03  0.55750831275E+03  0.00000000000E+00 0.  1.
         21   -1    0    0  501  503 -0.00000000000E+00 -0.00000000000E+00 -0.52119157307E+03  0.52119157307E+03  0.00000000000E+00 0. -1.
    9000007    1    1    2  501    0 -0.23998894157E+03  0.19553489484E+03  0.20465091406E+03  0.54562861344E+03  0.40000000000E+03 0.  1.
   -9000007    1    1    2    0  502  0.23998894157E+03 -0.19553489484E+03 -0.16833417439E+03  0.53307127238E+03  0.40000000000E+03 0. -1.
<mgrwt>
<rscale>  2 0.50579501E+03</rscale>
<asrwt>0</asrwt>
<pdfrwt beam="1">  1       21 0.85770510E-01 0.50579501E+03</pdfrwt>
<pdfrwt beam="2">  1       21 0.80183319E-01 0.50579501E+03</pdfrwt>
<totfact> 0.13472451E+03</totfact>
</mgrwt>
</event>
<event>
 4    1  0.4656600E-002  0.4541482E+03  0.7818608E-02  0.1026492E+00
         21   -1    0    0  501  502  0.00000000000E+00  0.00000000000E+00  0.40682470597E+03  0.40682470597E+03  0.00000000000E+00 0. -1.
         21   -1    0    0  502  503 -0.00000000000E+00 -0.00000000000E+00 -0.53163521866E+03  0.53163521866E+03  0.00000000000E+00 0. -1.
    9000007    1    1    2  501    0 -0.12179038812E+03  0.17725039656E+03 -0.16346154257E+03  0.48266994688E+03  0.40000000000E+03 0.  1.
   -9000007    1    1    2    0  503  0.12179038812E+03 -0.17725039656E+03  0.38651029878E+02  0.45578997776E+03  0.40000000000E+03 0.  1.
<mgrwt>
<rscale>  2 0.45414822E+03</rscale>
<asrwt>0</asrwt>
<pdfrwt beam="1">  1       21 0.62588416E-01 0.45414822E+03</pdfrwt>
<pdfrwt beam="2">  1       21 0.81790034E-01 0.45414822E+03</pdfrwt>
<totfact> 0.26845134E+03</totfact>
</mgrwt>
</event>
<event>
 4    1  0.4656600E-002  0.4000951E+03  0.7818608E-02  0.1043747E+00
         21   -1    0    0  501  502  0.00000000000E+00  0.00000000000E+00  0.30723672558E+03  0.30723672558E+03  0.00000000000E+00 0.  1.
         21   -1    0    0  502  503 -0.00000000000E+00 -0.00000000000E+00 -0.58318004773E+03  0.58318004773E+03  0.00000000000E+00 0.  1.
    9000007    1    1    2  501    0  0.55596601781E+01 -0.67201975517E+01  0.73807752593E+01  0.40016315013E+03  0.40000000000E+03 0.  1.
   -9000007    1    1    2    0  503 -0.55596601781E+01  0.67201975517E+01 -0.28332409741E+03  0.49025362319E+03  0.40000000000E+03 0.  1.
<mgrwt>
<rscale>  2 0.40009508E+03</rscale>
<asrwt>0</asrwt>
<pdfrwt beam="1">  1       21 0.47267189E-01 0.40009508E+03</pdfrwt>
<pdfrwt beam="2">  1       21 0.89720006E-01 0.40009508E+03</pdfrwt>
<totfact> 0.40376659E+03</totfact>
</mgrwt>
</event>
<event>
 4    1  0.4656600E-002  0.4890984E+03  0.7818608E-02  0.1016664E+00
         21   -1    0    0  501  502  0.00000000000E+00  0.00000000000E+00  0.11671073571E+03  0.11671073571E+03  0.00000000000E+00 0.  1.
         21   -1    0    0  502  503 -0.00000000000E+00 -0.00000000000E+00 -0.22321322082E+04  0.22321322082E+04  0.00000000000E+00 0. -1.
    9000007    1    1    2  501    0 -0.11760711377E+03  0.25570645640E+03 -0.72192408717E+03  0.87200436506E+03  0.40000000000E+03 0. -1.
   -9000007    1    1    2    0  503  0.11760711377E+03 -0.25570645640E+03 -0.13934973853E+04  0.14768385788E+04  0.40000000000E+03 0. -1.
<mgrwt>
<rscale>  2 0.48909838E+03</rscale>
<asrwt>0</asrwt>
<pdfrwt beam="1">  1       21 0.17955499E-01 0.48909838E+03</pdfrwt>
<pdfrwt beam="2">  1       21 0.34340494E+00 0.48909838E+03</pdfrwt>
<totfact> 0.41318398E+02</totfact>
</mgrwt>
</event>
<event>
 4    1  0.4656600E-002  0.4169093E+03  0.7818608E-02  0.1038077E+00
         21   -1    0    0  503  502  0.00000000000E+00  0.00000000000E+00  0.63304108075E+03  0.63304108075E+03  0.00000000000E+00 0. -1.
         21   -1    0    0  501  503 -0.00000000000E+00 -0.00000000000E+00 -0.28266874415E+03  0.28266874415E+03  0.00000000000E+00 0. -1.
    9000007    1    1    2  501    0  0.10737975799E+03  0.47780367330E+02  0.25269086948E+03  0.48751005266E+03  0.40000000000E+03 0. -1.
   -9000007    1    1    2    0  502 -0.10737975799E+03 -0.47780367330E+02  0.97681467129E+02  0.42819977224E+03  0.40000000000E+03 0. -1.
<mgrwt>
<rscale>  2 0.41690931E+03</rscale>
<asrwt>0</asrwt>
<pdfrwt beam="1">  1       21 0.97390935E-01 0.41690931E+03</pdfrwt>
<pdfrwt beam="2">  1       21 0.43487499E-01 0.41690931E+03</pdfrwt>
<totfact> 0.39283367E+03</totfact>
</mgrwt>
</event>
<event>
 4    1  0.4656600E-002  0.4000868E+03  0.7818608E-02  0.1043750E+00
         21   -1    0    0  503  502  0.00000000000E+00  0.00000000000E+00  0.56636433141E+03  0.56636433141E+03  0.00000000000E+00 0. -1.
         21   -1    0    0  501  503 -0.00000000000E+00 -0.00000000000E+00 -0.60724121183E+03  0.60724121183E+03  0.00000000000E+00 0. -1.
    9000007    1    1    2  501    0 -0.83288218964E+01 -0.28256879406E+00 -0.44947645837E+03  0.60174623867E+03  0.40000000000E+03 0. -1.
   -9000007    1    1    2    0  502  0.83288218964E+01  0.28256879406E+00  0.40859957796E+03  0.57185930457E+03  0.40000000000E+03 0. -1.
<mgrwt>
<rscale>  2 0.40008680E+03</rscale>
<asrwt>0</asrwt>
<pdfrwt beam="1">  1       21 0.87132975E-01 0.40008680E+03</pdfrwt>
<pdfrwt beam="2">  1       21 0.93421724E-01 0.40008680E+03</pdfrwt>
<totfact> 0.94642776E+02</totfact>
</mgrwt>
</event>
<event>
 4    1  0.4656600E-002  0.5997260E+03  0.7818608E-02  0.9905975E-01
         21   -1    0    0  501  502  0.00000000000E+00  0.00000000000E+00  0.74806527031E+03  0.74806527031E+03  0.00000000000E+00 0.  1.
         21   -1    0    0  502  503 -0.00000000000E+00 -0.00000000000E+00 -0.54617982234E+03  0.54617982234E+03  0.00000000000E+00 0.  1.
    9000007    1    1    2  501    0  0.42152738665E+03  0.14827640001E+03 -0.12294699483E+03  0.61219865406E+03  0.40000000000E+03 0.  1.
   -9000007    1    1    2    0  503 -0.42152738665E+03 -0.14827640001E+03  0.32483244280E+03  0.68204643859E+03  0.40000000000E+03 0.  1.
<mgrwt>
<rscale>  2 0.59972596E+03</rscale>
<asrwt>0</asrwt>
<pdfrwt beam="1">  1       21 0.11508696E+00 0.59972596E+03</pdfrwt>
<pdfrwt beam="2">  1       21 0.84027665E-01 0.59972596E+03</pdfrwt>
<totfact> 0.57137501E+02</totfact>
</mgrwt>
</event>
<event>
 4    1  0.4656600E-002  0.5364003E+03  0.7818608E-02  0.1004692E+00
         21   -1    0    0  503  502  0.00000000000E+00  0.00000000000E+00  0.21836985160E+03  0.21836985160E+03  0.00000000000E+00 0. -1.
         21   -1    0    0  501  503 -0.00000000000E+00 -0.00000000000E+00 -0.16441714108E+04  0.16441714108E+04  0.00000000000E+00 0. -1.
    9000007    1    1    2  501    0 -0.25222925051E+03  0.25319095299E+03 -0.11279388926E+04  0.12489881501E+04  0.40000000000E+03 0. -1.
   -9000007    1    1    2    0  502  0.25222925051E+03 -0.25319095299E+03 -0.29786266652E+03  0.61355311229E+03  0.40000000000E+03 0. -1.
<mgrwt>
<rscale>  2 0.53640027E+03</rscale>
<asrwt>0</asrwt>
<pdfrwt beam="1">  1       21 0.33595363E-01 0.53640027E+03</pdfrwt>
<pdfrwt beam="2">  1       21 0.25294944E+00 0.53640027E+03</pdfrwt>
<totfact> 0.42229689E+02</totfact>
</mgrwt>
</event>
<event>
 4    1  0.4656600E-002  0.5587944E+03  0.7818608E-02  0.9994786E-01
         21   -1    0    0  501  502  0.00000000000E+00  0.00000000000E+00  0.14839228727E+04  0.14839228727E+04  0.00000000000E+00 0.  1.
         21   -1    0    0  502  503 -0.00000000000E+00 -0.00000000000E+00 -0.25454867364E+03  0.25454867364E+03  0.00000000000E+00 0.  1.
    9000007    1    1    2  501    0  0.35674647061E+03 -0.15806058706E+03  0.97659567316E+03  0.11251623449E+04  0.40000000000E+03 0.  1.
   -9000007    1    1    2    0  503 -0.35674647061E+03  0.15806058706E+03  0.25277852594E+03  0.61330920151E+03  0.40000000000E+03 0.  1.
<mgrwt>
<rscale>  2 0.55879441E+03</rscale>
<asrwt>0</asrwt>
<pdfrwt beam="1">  1       21 0.22829582E+00 0.55879441E+03</pdfrwt>
<pdfrwt beam="2">  1       21 0.39161335E-01 0.55879441E+03</pdfrwt>
<totfact> 0.43650355E+02</totfact>
</mgrwt>
</event>
<event>
 4    1  0.4656600E-002  0.8436249E+03  0.7818608E-02  0.9498933E-01
         21   -1    0    0  501  502  0.00000000000E+00  0.00000000000E+00  0.47251449473E+03  0.47251449473E+03  0.00000000000E+00 0.  1.
         21   -1    0    0  502  503 -0.00000000000E+00 -0.00000000000E+00 -0.15266637148E+04  0.15266637148E+04  0.00000000000E+00 0. -1.
    9000007    1    1    2  501    0 -0.58471860981E+03  0.45804716218E+03 -0.41135596202E+03  0.93857167170E+03  0.40000000000E+03 0.  1.
   -9000007    1    1    2    0  503  0.58471860981E+03 -0.45804716218E+03 -0.64279325802E+03  0.10606065378E+04  0.40000000000E+03 0. -1.
<mgrwt>
<rscale>  2 0.84362495E+03</rscale>
<asrwt>0</asrwt>
<pdfrwt beam="1">  1       21 0.72694538E-01 0.84362495E+03</pdfrwt>
<pdfrwt beam="2">  1       21 0.23487134E+00 0.84362495E+03</pdfrwt>
<totfact> 0.93570694E+01</totfact>
</mgrwt>
</event>
<event>
 4    1  0.4656600E-002  0.7379363E+03  0.7818608E-02  0.9654469E-01
         21   -1    0    0  501  502  0.00000000000E+00  0.00000000000E+00  0.16494429382E+04  0.16494429382E+04  0.00000000000E+00 0.  1.
         21   -1    0    0  502  503 -0.00000000000E+00 -0.00000000000E+00 -0.72053583435E+03  0.72053583435E+03  0.00000000000E+00 0. -1.
    9000007    1    1    2  501    0  0.50039537029E+03 -0.36627108345E+03  0.13366981004E+04  0.15268634008E+04  0.40000000000E+03 0.  1.
   -9000007    1    1    2    0  503 -0.50039537029E+03  0.36627108345E+03 -0.40779099655E+03  0.84311537173E+03  0.40000000000E+03 0. -1.
<mgrwt>
<rscale>  2 0.73793633E+03</rscale>
<asrwt>0</asrwt>
<pdfrwt beam="1">  1       21 0.25376045E+00 0.73793633E+03</pdfrwt>
<pdfrwt beam="2">  1       21 0.11085167E+00 0.73793633E+03</pdfrwt>
<totfact> 0.26706486E+01</totfact>
</mgrwt>
</event>
<event>
 4    1  0.4656600E-002  0.4130882E+03  0.7818608E-02  0.1039340E+00
         21   -1    0    0  503  502  0.00000000000E+00  0.00000000000E+00  0.85522234573E+03  0.85522234573E+03  0.00000000000E+00 0.  1.
         21   -1    0    0  501  503 -0.00000000000E+00 -0.00000000000E+00 -0.22177357370E+03  0.22177357370E+03  0.00000000000E+00 0.  1.
    9000007    1    1    2  501    0 -0.10152325822E+03 -0.18299889033E+02  0.48726936698E+03  0.63880614735E+03  0.40000000000E+03 0.  1.
   -9000007    1    1    2    0  502  0.10152325822E+03  0.18299889033E+02  0.14617940506E+03  0.43818977209E+03  0.40000000000E+03 0.  1.
<mgrwt>
<rscale>  2 0.41308820E+03</rscale>
<asrwt>0</asrwt>
<pdfrwt beam="1">  1       21 0.13157267E+00 0.41308820E+03</pdfrwt>
<pdfrwt beam="2">  1       21 0.34119012E-01 0.41308820E+03</pdfrwt>
<totfact> 0.30480236E+03</totfact>
</mgrwt>
</event>
<event>
 4    1  0.4656600E-002  0.4196123E+03  0.7818608E-02  0.1037193E+00
         21   -1    0    0  503  502  0.00000000000E+00  0.00000000000E+00  0.17056398318E+03  0.17056398318E+03  0.00000000000E+00 0.  1.
         21   -1    0    0  501  503 -0.00000000000E+00 -0.00000000000E+00 -0.15818433076E+04  0.15818433076E+04  0.00000000000E+00 0.  1.
    9000007    1    1    2  501    0 -0.87148906362E+02  0.92084655915E+02 -0.18919803823E+03  0.46029383377E+03  0.40000000000E+03 0.  1.
   -9000007    1    1    2    0  502  0.87148906362E+02 -0.92084655915E+02 -0.12220812861E+04  0.12921134570E+04  0.40000000000E+03 0.  1.
<mgrwt>
<rscale>  2 0.41961234E+03</rscale>
<asrwt>0</asrwt>
<pdfrwt beam="1">  1       21 0.26240614E-01 0.41961234E+03</pdfrwt>
<pdfrwt beam="2">  1       21 0.24336050E+00 0.41961234E+03</pdfrwt>
<totfact> 0.83706070E+02</totfact>
</mgrwt>
</event>
<event>
 4    1  0.4656600E-002  0.4152393E+03  0.7818608E-02  0.1038627E+00
         21   -1    0    0  501  502  0.00000000000E+00  0.00000000000E+00  0.37288982872E+03  0.37288982872E+03  0.00000000000E+00 0. -1.
         21   -1    0    0  502  503 -0.00000000000E+00 -0.00000000000E+00 -0.61754079627E+03  0.61754079627E+03  0.00000000000E+00 0. -1.
    9000007    1    1    2  501    0  0.10843845431E+03  0.25782924199E+02  0.12588864329E+03  0.43390276337E+03  0.40000000000E+03 0. -1.
   -9000007    1    1    2    0  503 -0.10843845431E+03 -0.25782924199E+02 -0.37053961084E+03  0.55652786162E+03  0.40000000000E+03 0. -1.
<mgrwt>
<rscale>  2 0.41523928E+03</rscale>
<asrwt>0</asrwt>
<pdfrwt beam="1">  1       21 0.57367666E-01 0.41523928E+03</pdfrwt>
<pdfrwt beam="2">  1       21 0.95006276E-01 0.41523928E+03</pdfrwt>
<totfact> 0.23162797E+03</totfact>
</mgrwt>
</event>
<event>
 4    1  0.4656600E-002  0.4549516E+03  0.7818608E-02  0.1026256E+00
         21   -1    0    0  501  502  0.00000000000E+00  0.00000000000E+00  0.97645061398E+03  0.97645061398E+03  0.00000000000E+00 0.  1.
         21   -1    0    0  502  503 -0.00000000000E+00 -0.00000000000E+00 -0.31436257587E+03  0.31436257587E+03  0.00000000000E+00 0.  1.
    9000007    1    1    2  501    0  0.40230746022E+02  0.21298454255E+03 -0.37293847047E+02  0.45647755621E+03  0.40000000000E+03 0.  1.
   -9000007    1    1    2    0  503 -0.40230746022E+02 -0.21298454255E+03  0.69938188515E+03  0.83433563365E+03  0.40000000000E+03 0.  1.
<mgrwt>
<rscale>  2 0.45495157E+03</rscale>
<asrwt>0</asrwt>
<pdfrwt beam="1">  1       21 0.15022317E+00 0.45495157E+03</pdfrwt>
<pdfrwt beam="2">  1       21 0.48363474E-01 0.45495157E+03</pdfrwt>
<totfact> 0.10252782E+03</totfact>
</mgrwt>
</event>
<event>
 4    1  0.4656600E-002  0.4662389E+03  0.7818608E-02  0.1022987E+00
         21   -1    0    0  501  502  0.00000000000E+00  0.00000000000E+00  0.31137190441E+03  0.31137190441E+03  0.00000000000E+00 0.  1.
         21   -1    0    0  502  503 -0.00000000000E+00 -0.00000000000E+00 -0.14108026087E+04  0.14108026087E+04  0.00000000000E+00 0.  1.
    9000007    1    1    2  501    0  0.93501352796E+02 -0.22053623199E+03  0.62294506232E+02  0.47038211924E+03  0.40000000000E+03 0.  1.
   -9000007    1    1    2    0  503 -0.93501352796E+02  0.22053623199E+03 -0.11617252105E+04  0.12517923938E+04  0.40000000000E+03 0.  1.
<mgrwt>
<rscale>  2 0.46623892E+03</rscale>
<asrwt>0</asrwt>
<pdfrwt beam="1">  1       21 0.47903370E-01 0.46623892E+03</pdfrwt>
<pdfrwt beam="2">  1       21 0.21704655E+00 0.46623892E+03</pdfrwt>
<totfact> 0.35263074E+02</totfact>
</mgrwt>
</event>
<event>
 4    1  0.4656600E-002  0.4519491E+03  0.7818608E-02  0.1027142E+00
         21   -1    0    0  501  502  0.00000000000E+00  0.00000000000E+00  0.13449895692E+03  0.13449895692E+03  0.00000000000E+00 0. -1.
         21   -1    0    0  502  503 -0.00000000000E+00 -0.00000000000E+00 -0.15219441652E+04  0.15219441652E+04  0.00000000000E+00 0.  1.
    9000007    1    1    2  501    0 -0.15412035926E+03  0.14319535495E+03 -0.73220424601E+03  0.86045398058E+03  0.40000000000E+03 0. -1.
   -9000007    1    1    2    0  503  0.15412035926E+03 -0.14319535495E+03 -0.65524096223E+03  0.79598914151E+03  0.40000000000E+03 0.  1.
<mgrwt>
<rscale>  2 0.45194911E+03</rscale>
<asrwt>0</asrwt>
<pdfrwt beam="1">  1       21 0.20692147E-01 0.45194911E+03</pdfrwt>
<pdfrwt beam="2">  1       21 0.23414526E+00 0.45194911E+03</pdfrwt>
<totfact> 0.14865770E+03</totfact>
</mgrwt>
</event>
<event>
 4    1  0.4656600E-002  0.4058509E+03  0.7818608E-02  0.1041772E+00
         21   -1    0    0  501  502  0.00000000000E+00  0.00000000000E+00  0.97601865231E+03  0.97601865231E+03  0.00000000000E+00 0.  1.
         21   -1    0    0  502  503 -0.00000000000E+00 -0.00000000000E+00 -0.41742532490E+03  0.41742532490E+03  0.00000000000E+00 0.  1.
    9000007    1    1    2  501    0  0.56681529136E+02  0.38757269469E+02  0.81704110902E+03  0.91228893203E+03  0.40000000000E+03 0.  1.
   -9000007    1    1    2    0  503 -0.56681529136E+02 -0.38757269469E+02 -0.25844778161E+03  0.48115504518E+03  0.40000000000E+03 0.  1.
<mgrwt>
<rscale>  2 0.40585086E+03</rscale>
<asrwt>0</asrwt>
<pdfrwt beam="1">  1       21 0.15015671E+00 0.40585086E+03</pdfrwt>
<pdfrwt beam="2">  1       21 0.64219281E-01 0.40585086E+03</pdfrwt>
<totfact> 0.56870877E+02</totfact>
</mgrwt>
</event>
<event>
 4    1  0.4656600E-002  0.4603500E+03  0.7818608E-02  0.1024680E+00
         21   -1    0    0  503  502  0.00000000000E+00  0.00000000000E+00  0.84610041862E+03  0.84610041862E+03  0.00000000000E+00 0. -1.
         21   -1    0    0  501  503 -0.00000000000E+00 -0.00000000000E+00 -0.37503827405E+03  0.37503827405E+03  0.00000000000E+00 0. -1.
    9000007    1    1    2  501    0 -0.18094962806E+03 -0.13848947680E+03 -0.11635518211E+03  0.47482694899E+03  0.40000000000E+03 0. -1.
   -9000007    1    1    2    0  502  0.18094962806E+03  0.13848947680E+03  0.58741732667E+03  0.74631174368E+03  0.40000000000E+03 0. -1.
<mgrwt>
<rscale>  2 0.46034998E+03</rscale>
<asrwt>0</asrwt>
<pdfrwt beam="1">  1       21 0.13016930E+00 0.46034998E+03</pdfrwt>
<pdfrwt beam="2">  1       21 0.57698196E-01 0.46034998E+03</pdfrwt>
<totfact> 0.10250166E+03</totfact>
</mgrwt>
</event>
<event>
 4    1  0.4656600E-002  0.4065184E+03  0.7818608E-02  0.1041546E+00
         21   -1    0    0  501  502  0.00000000000E+00  0.00000000000E+00  0.26661801573E+04  0.26661801573E+04  0.00000000000E+00 0. -1.
         21   -1    0    0  502  503 -0.00000000000E+00 -0.00000000000E+00 -0.99354384893E+02  0.99354384893E+02  0.00000000000E+00 0. -1.
    9000007    1    1    2  501    0  0.70681308326E+02 -0.16165897729E+02  0.21314729435E+04  0.21698926454E+04  0.40000000000E+03 0. -1.
   -9000007    1    1    2    0  503 -0.70681308326E+02  0.16165897729E+02  0.43535282888E+03  0.59564189679E+03  0.40000000000E+03 0. -1.
<mgrwt>
<rscale>  2 0.40651837E+03</rscale>
<asrwt>0</asrwt>
<pdfrwt beam="1">  1       21 0.41018151E+00 0.40651837E+03</pdfrwt>
<pdfrwt beam="2">  1       21 0.15285292E-01 0.40651837E+03</pdfrwt>
<totfact> 0.22429162E+02</totfact>
</mgrwt>
</event>
<event>
 4    1  0.4656600E-002  0.4264535E+03  0.7818608E-02  0.1034986E+00
         21   -1    0    0  501  502  0.00000000000E+00  0.00000000000E+00  0.25241085291E+03  0.25241085291E+03  0.00000000000E+00 0. -1.
         21   -1    0    0  502  503 -0.00000000000E+00 -0.00000000000E+00 -0.11571910148E+04  0.11571910148E+04  0.00000000000E+00 0. -1.
    9000007    1    1    2  501    0  0.14317035394E+03 -0.36943180538E+02 -0.19427833075E+02  0.42689575956E+03  0.40000000000E+03 0. -1.
   -9000007    1    1    2    0  503 -0.14317035394E+03  0.36943180538E+02 -0.88535232879E+03  0.98270610812E+03  0.40000000000E+03 0. -1.
<mgrwt>
<rscale>  2 0.42645345E+03</rscale>
<asrwt>0</asrwt>
<pdfrwt beam="1">  1       21 0.38832439E-01 0.42645345E+03</pdfrwt>
<pdfrwt beam="2">  1       21 0.17802939E+00 0.42645345E+03</pdfrwt>
<totfact> 0.10183882E+03</totfact>
</mgrwt>
</event>
<event>
 4    1  0.4656600E-002  0.5158559E+03  0.7818608E-02  0.1009721E+00
         21   -1    0    0  501  502  0.00000000000E+00  0.00000000000E+00  0.15487441267E+04  0.15487441267E+04  0.00000000000E+00 0. -1.
         21   -1    0    0  502  503 -0.00000000000E+00 -0.00000000000E+00 -0.17745280449E+03  0.17745280449E+03  0.00000000000E+00 0.  1.
    9000007    1    1    2  501    0 -0.15604620790E+03  0.28593162009E+03  0.83940061159E+03  0.98524144102E+03  0.40000000000E+03 0. -1.
   -9000007    1    1    2    0  503  0.15604620790E+03 -0.28593162009E+03  0.53189071059E+03  0.74095549015E+03  0.40000000000E+03 0.  1.
<mgrwt>
<rscale>  2 0.51585590E+03</rscale>
<asrwt>0</asrwt>
<pdfrwt beam="1">  1       21 0.23826832E+00 0.51585590E+03</pdfrwt>
<pdfrwt beam="2">  1       21 0.27300432E-01 0.51585590E+03</pdfrwt>
<totfact> 0.79535598E+02</totfact>
</mgrwt>
</event>
<event>
 4    1  0.4656600E-002  0.8168777E+03  0.7818608E-02  0.9535904E-01
         21   -1    0    0  503  502  0.00000000000E+00  0.00000000000E+00  0.42707656112E+03  0.42707656112E+03  0.00000000000E+00 0.  1.
         21   -1    0    0  501  503 -0.00000000000E+00 -0.00000000000E+00 -0.29273871682E+04  0.29273871682E+04  0.00000000000E+00 0. -1.
    9000007    1    1    2  501    0 -0.63646172397E+03  0.31969622764E+03 -0.23954258033E+04  0.25308800808E+04  0.40000000000E+03 0. -1.
   -9000007    1    1    2    0  502  0.63646172397E+03 -0.31969622764E+03 -0.10488480372E+03  0.82358364851E+03  0.40000000000E+03 0.  1.
<mgrwt>
<rscale>  2 0.81687772E+03</rscale>
<asrwt>0</asrwt>
<pdfrwt beam="1">  1       21 0.65704086E-01 0.81687772E+03</pdfrwt>
<pdfrwt beam="2">  1       21 0.45036726E+00 0.81687772E+03</pdfrwt>
<totfact> 0.50298142E+00</totfact>
</mgrwt>
</event>
<event>
 4    1  0.4656600E-002  0.5141869E+03  0.7818608E-02  0.1010141E+00
         21   -1    0    0  501  502  0.00000000000E+00  0.00000000000E+00  0.33599057405E+03  0.33599057405E+03  0.00000000000E+00 0.  1.
         21   -1    0    0  502  503 -0.00000000000E+00 -0.00000000000E+00 -0.79737653323E+03  0.79737653323E+03  0.00000000000E+00 0.  1.
    9000007    1    1    2  501    0  0.19854496334E+03 -0.25488842692E+03 -0.29567429490E+03  0.59313700045E+03  0.40000000000E+03 0.  1.
   -9000007    1    1    2    0  503 -0.19854496334E+03  0.25488842692E+03 -0.16571166428E+03  0.54023010683E+03  0.40000000000E+03 0.  1.
<mgrwt>
<rscale>  2 0.51418694E+03</rscale>
<asrwt>0</asrwt>
<pdfrwt beam="1">  1       21 0.51690858E-01 0.51418694E+03</pdfrwt>
<pdfrwt beam="2">  1       21 0.12267331E+00 0.51418694E+03</pdfrwt>
<totfact> 0.14846955E+03</totfact>
</mgrwt>
</event>
<event>
 4    1  0.4656600E-002  0.4122777E+03  0.7818608E-02  0.1039609E+00
         21   -1    0    0  501  502  0.00000000000E+00  0.00000000000E+00  0.34853729132E+03  0.34853729132E+03  0.00000000000E+00 0.  1.
         21   -1    0    0  502  503 -0.00000000000E+00 -0.00000000000E+00 -0.49693734929E+03  0.49693734929E+03  0.00000000000E+00 0.  1.
    9000007    1    1    2  501    0 -0.67953998738E+02 -0.73178808972E+02 -0.13191427228E+03  0.43286748464E+03  0.40000000000E+03 0. -1.
   -9000007    1    1    2    0  503  0.67953998738E+02  0.73178808972E+02 -0.16485785682E+02  0.41260715597E+03  0.40000000000E+03 0. -1.
<mgrwt>
<rscale>  2 0.41227768E+03</rscale>
<asrwt>0</asrwt>
<pdfrwt beam="1">  1       21 0.53621122E-01 0.41227768E+03</pdfrwt>
<pdfrwt beam="2">  1       21 0.76451899E-01 0.41227768E+03</pdfrwt>
<totfact> 0.44574205E+03</totfact>
</mgrwt>
</event>
<event>
 4    1  0.4656600E-002  0.4576030E+03  0.7818608E-02  0.1025479E+00
         21   -1    0    0  501  502  0.00000000000E+00  0.00000000000E+00  0.17583769035E+04  0.17583769035E+04  0.00000000000E+00 0.  1.
         21   -1    0    0  502  503 -0.00000000000E+00 -0.00000000000E+00 -0.12352399305E+03  0.12352399305E+03  0.00000000000E+00 0. -1.
    9000007    1    1    2  501    0  0.81224881134E+02  0.20688881848E+03  0.63909916343E+03  0.78603320872E+03  0.40000000000E+03 0. -1.
   -9000007    1    1    2    0  503 -0.81224881134E+02 -0.20688881848E+03  0.99575374703E+03  0.10958676878E+04  0.40000000000E+03 0. -1.
<mgrwt>
<rscale>  2 0.45760296E+03</rscale>
<asrwt>0</asrwt>
<pdfrwt beam="1">  1       21 0.27051950E+00 0.45760296E+03</pdfrwt>
<pdfrwt beam="2">  1       21 0.19003693E-01 0.45760296E+03</pdfrwt>
<totfact> 0.10423149E+03</totfact>
</mgrwt>
</event>
<event>
 4    1  0.4656600E-002  0.4537770E+03  0.7818608E-02  0.1026602E+00
         21   -1    0    0  503  502  0.00000000000E+00  0.00000000000E+00  0.24550468381E+03  0.24550468381E+03  0.00000000000E+00 0. -1.
         21   -1    0    0  501  503 -0.00000000000E+00 -0.00000000000E+00 -0.11460056003E+04  0.11460056003E+04  0.00000000000E+00 0.  1.
    9000007    1    1    2  501    0  0.20868496287E+03 -0.48622521698E+02 -0.81051623245E+03  0.92889726365E+03  0.40000000000E+03 0.  1.
   -9000007    1    1    2    0  502 -0.20868496287E+03  0.48622521698E+02 -0.89984684051E+02  0.46261302047E+03  0.40000000000E+03 0. -1.
<mgrwt>
<rscale>  2 0.45377700E+03</rscale>
<asrwt>0</asrwt>
<pdfrwt beam="1">  1       21 0.37769952E-01 0.45377700E+03</pdfrwt>
<pdfrwt beam="2">  1       21 0.17630855E+00 0.45377700E+03</pdfrwt>
<totfact> 0.10950860E+03</totfact>
</mgrwt>
</event>
<event>
 4    1  0.4656600E-002  0.4428427E+03  0.7818608E-02  0.1029878E+00
         21   -1    0    0  501  502  0.00000000000E+00  0.00000000000E+00  0.48969826852E+03  0.48969826852E+03  0.00000000000E+00 0. -1.
         21   -1    0    0  502  503 -0.00000000000E+00 -0.00000000000E+00 -0.53621655053E+03  0.53621655053E+03  0.00000000000E+00 0.  1.
    9000007    1    1    2  501    0 -0.10222554641E+03 -0.16018602734E+03  0.23483317717E+03  0.50125467259E+03  0.40000000000E+03 0. -1.
   -9000007    1    1    2    0  503  0.10222554641E+03  0.16018602734E+03 -0.28135145919E+03  0.52466014646E+03  0.40000000000E+03 0.  1.
<mgrwt>
<rscale>  2 0.44284266E+03</rscale>
<asrwt>0</asrwt>
<pdfrwt beam="1">  1       21 0.75338195E-01 0.44284266E+03</pdfrwt>
<pdfrwt beam="2">  1       21 0.82494854E-01 0.44284266E+03</pdfrwt>
<totfact> 0.17431005E+03</totfact>
</mgrwt>
</event>
<event>
 4    1  0.4656600E-002  0.4796260E+03  0.7818608E-02  0.1019238E+00
         21   -1    0    0  503  502  0.00000000000E+00  0.00000000000E+00  0.18975461461E+03  0.18975461461E+03  0.00000000000E+00 0. -1.
         21   -1    0    0  501  503 -0.00000000000E+00 -0.00000000000E+00 -0.13398474344E+04  0.13398474344E+04  0.00000000000E+00 0. -1.
    9000007    1    1    2  501    0 -0.25645995611E+03 -0.65340383383E+02 -0.81100874955E+03  0.94221879976E+03  0.40000000000E+03 0. -1.
   -9000007    1    1    2    0  502  0.25645995611E+03  0.65340383383E+02 -0.33908407022E+03  0.58738324922E+03  0.40000000000E+03 0. -1.
<mgrwt>
<rscale>  2 0.47962597E+03</rscale>
<asrwt>0</asrwt>
<pdfrwt beam="1">  1       21 0.29193018E-01 0.47962597E+03</pdfrwt>
<pdfrwt beam="2">  1       21 0.20613037E+00 0.47962597E+03</pdfrwt>
<totfact> 0.11368059E+03</totfact>
</mgrwt>
</event>
<event>
 4    1  0.4656600E-002  0.4724870E+03  0.7818608E-02  0.1021221E+00
         21   -1    0    0  501  502  0.00000000000E+00  0.00000000000E+00  0.43050573246E+03  0.43050573246E+03  0.00000000000E+00 0. -1.
         21   -1    0    0  502  503 -0.00000000000E+00 -0.00000000000E+00 -0.51858384463E+03  0.51858384463E+03  0.00000000000E+00 0.  1.
    9000007    1    1    2  501    0  0.20614575203E+03 -0.14404119776E+03 -0.40963079798E+02  0.47425932952E+03  0.40000000000E+03 0. -1.
   -9000007    1    1    2    0  503 -0.20614575203E+03  0.14404119776E+03 -0.47115032376E+02  0.47483024757E+03  0.40000000000E+03 0. -1.
<mgrwt>
<rscale>  2 0.47248697E+03</rscale>
<asrwt>0</asrwt>
<pdfrwt beam="1">  1       21 0.66231651E-01 0.47248697E+03</pdfrwt>
<pdfrwt beam="2">  1       21 0.79782130E-01 0.47248697E+03</pdfrwt>
<totfact> 0.24918162E+03</totfact>
</mgrwt>
</event>
<event>
 4    1  0.4656600E-002  0.5079825E+03  0.7818608E-02  0.1011716E+00
         21   -1    0    0  503  502  0.00000000000E+00  0.00000000000E+00  0.49485138118E+03  0.49485138118E+03  0.00000000000E+00 0.  1.
         21   -1    0    0  501  503 -0.00000000000E+00 -0.00000000000E+00 -0.76603535871E+03  0.76603535871E+03  0.00000000000E+00 0.  1.
    9000007    1    1    2  501    0  0.28820050995E+03 -0.12242005655E+03 -0.49181848869E+03  0.70705843464E+03  0.40000000000E+03 0.  1.
   -9000007    1    1    2    0  502 -0.28820050995E+03  0.12242005655E+03  0.22063451116E+03  0.55382830525E+03  0.40000000000E+03 0.  1.
<mgrwt>
<rscale>  2 0.50798248E+03</rscale>
<asrwt>0</asrwt>
<pdfrwt beam="1">  1       21 0.76130982E-01 0.50798248E+03</pdfrwt>
<pdfrwt beam="2">  1       21 0.11785159E+00 0.50798248E+03</pdfrwt>
<totfact> 0.69900574E+02</totfact>
</mgrwt>
</event>
<event>
 4    1  0.4656600E-002  0.6146810E+03  0.7818608E-02  0.9875407E-01
         21   -1    0    0  503  502  0.00000000000E+00  0.00000000000E+00  0.63111400879E+03  0.63111400879E+03  0.00000000000E+00 0.  1.
         21   -1    0    0  501  503 -0.00000000000E+00 -0.00000000000E+00 -0.60494517922E+03  0.60494517922E+03  0.00000000000E+00 0.  1.
    9000007    1    1    2  501    0  0.46419164535E+03 -0.48567821063E+02 -0.49831676496E+02  0.61669758621E+03  0.40000000000E+03 0.  1.
   -9000007    1    1    2    0  502 -0.46419164535E+03  0.48567821063E+02  0.76000506071E+02  0.61936160180E+03  0.40000000000E+03 0.  1.
<mgrwt>
<rscale>  2 0.61468099E+03</rscale>
<asrwt>0</asrwt>
<pdfrwt beam="1">  1       21 0.97094463E-01 0.61468099E+03</pdfrwt>
<pdfrwt beam="2">  1       21 0.93068489E-01 0.61468099E+03</pdfrwt>
<totfact> 0.68003457E+02</totfact>
</mgrwt>
</event>
<event>
 4    1  0.4656600E-002  0.4274622E+03  0.7818608E-02  0.1034665E+00
         21   -1    0    0  503  502  0.00000000000E+00  0.00000000000E+00  0.11188661714E+04  0.11188661714E+04  0.00000000000E+00 0.  1.
         21   -1    0    0  501  503 -0.00000000000E+00 -0.00000000000E+00 -0.16360003992E+03  0.16360003992E+03  0.00000000000E+00 0.  1.
    9000007    1    1    2  501    0  0.48381745537E+02  0.14276962869E+03  0.50455217542E+03  0.66128424894E+03  0.40000000000E+03 0.  1.
   -9000007    1    1    2    0  502 -0.48381745537E+02 -0.14276962869E+03  0.45071395603E+03  0.62118196234E+03  0.40000000000E+03 0.  1.
<mgrwt>
<rscale>  2 0.42746223E+03</rscale>
<asrwt>0</asrwt>
<pdfrwt beam="1">  1       21 0.17213325E+00 0.42746223E+03</pdfrwt>
<pdfrwt beam="2">  1       21 0.25169238E-01 0.42746223E+03</pdfrwt>
<totfact> 0.26642847E+03</totfact>
</mgrwt>
</event>
<event>
 4    1  0.4656600E-002  0.4791620E+03  0.7818608E-02  0.1019366E+00
         21   -1    0    0  503  502  0.00000000000E+00  0.00000000000E+00  0.24883594108E+03  0.24883594108E+03  0.00000000000E+00 0. -1.
         21   -1    0    0  501  503 -0.00000000000E+00 -0.00000000000E+00 -0.11180826159E+04  0.11180826159E+04  0.00000000000E+00 0. -1.
    9000007    1    1    2  501    0 -0.11330012361E+03  0.23824215378E+03 -0.72034262743E+03  0.86515301696E+03  0.40000000000E+03 0. -1.
   -9000007    1    1    2    0  502  0.11330012361E+03 -0.23824215378E+03 -0.14890404742E+03  0.50176554005E+03  0.40000000000E+03 0. -1.
<mgrwt>
<rscale>  2 0.47916202E+03</rscale>
<asrwt>0</asrwt>
<pdfrwt beam="1">  1       21 0.38282453E-01 0.47916202E+03</pdfrwt>
<pdfrwt beam="2">  1       21 0.17201271E+00 0.47916202E+03</pdfrwt>
<totfact> 0.11315914E+03</totfact>
</mgrwt>
</event>
<event>
 4    1  0.4656600E-002  0.4581247E+03  0.7818608E-02  0.1025327E+00
         21   -1    0    0  503  502  0.00000000000E+00  0.00000000000E+00  0.19961314218E+04  0.19961314218E+04  0.00000000000E+00 0. -1.
         21   -1    0    0  501  503 -0.00000000000E+00 -0.00000000000E+00 -0.10991145223E+03  0.10991145223E+03  0.00000000000E+00 0. -1.
    9000007    1    1    2  501    0 -0.22283259021E+03 -0.14962146245E+02  0.72376502602E+03  0.85657109569E+03  0.40000000000E+03 0. -1.
   -9000007    1    1    2    0  502  0.22283259021E+03  0.14962146245E+02  0.11624549436E+04  0.12494717784E+04  0.40000000000E+03 0. -1.
<mgrwt>
<rscale>  2 0.45812469E+03</rscale>
<asrwt>0</asrwt>
<pdfrwt beam="1">  1       21 0.30709711E+00 0.45812469E+03</pdfrwt>
<pdfrwt beam="2">  1       21 0.16909456E-01 0.45812469E+03</pdfrwt>
<totfact> 0.78157904E+02</totfact>
</mgrwt>
</event>
<event>
 4    1  0.4656600E-002  0.4368514E+03  0.7818608E-02  0.1031717E+00
         21   -1    0    0  501  502  0.00000000000E+00  0.00000000000E+00  0.66615007393E+03  0.66615007393E+03  0.00000000000E+00 0. -1.
         21   -1    0    0  502  503 -0.00000000000E+00 -0.00000000000E+00 -0.62205149980E+03  0.62205149980E+03  0.00000000000E+00 0. -1.
    9000007    1    1    2  501    0 -0.11948254108E+03  0.12869767058E+03  0.49512724416E+03  0.66029550653E+03  0.40000000000E+03 0. -1.
   -9000007    1    1    2    0  503  0.11948254108E+03 -0.12869767058E+03 -0.45102867003E+03  0.62790606720E+03  0.40000000000E+03 0. -1.
<mgrwt>
<rscale>  2 0.43685143E+03</rscale>
<asrwt>0</asrwt>
<pdfrwt beam="1">  1       21 0.10248463E+00 0.43685143E+03</pdfrwt>
<pdfrwt beam="2">  1       21 0.95700231E-01 0.43685143E+03</pdfrwt>
<totfact> 0.59583534E+02</totfact>
</mgrwt>
</event>
<event>
 4    1  0.4656600E-002  0.4439059E+03  0.7818608E-02  0.1029555E+00
         21   -1    0    0  501  502  0.00000000000E+00  0.00000000000E+00  0.49237774962E+03  0.49237774962E+03  0.00000000000E+00 0.  1.
         21   -1    0    0  502  503 -0.00000000000E+00 -0.00000000000E+00 -0.47586040951E+03  0.47586040951E+03  0.00000000000E+00 0.  1.
    9000007    1    1    2  501    0  0.64499357868E+02  0.18136227864E+03  0.20129099364E+03  0.48741205094E+03  0.40000000000E+03 0.  1.
   -9000007    1    1    2    0  503 -0.64499357868E+02 -0.18136227864E+03 -0.18477365354E+03  0.48082610819E+03  0.40000000000E+03 0.  1.
<mgrwt>
<rscale>  2 0.44390589E+03</rscale>
<asrwt>0</asrwt>
<pdfrwt beam="1">  1       21 0.75750422E-01 0.44390589E+03</pdfrwt>
<pdfrwt beam="2">  1       21 0.73209294E-01 0.44390589E+03</pdfrwt>
<totfact> 0.22637351E+03</totfact>
</mgrwt>
</event>
<event>
 4    1  0.4656600E-002  0.4726823E+03  0.7818608E-02  0.1021166E+00
         21   -1    0    0  501  502  0.00000000000E+00  0.00000000000E+00  0.54341715044E+03  0.54341715044E+03  0.00000000000E+00 0. -1.
         21   -1    0    0  502  503 -0.00000000000E+00 -0.00000000000E+00 -0.43562759384E+03  0.43562759384E+03  0.00000000000E+00 0. -1.
    9000007    1    1    2  501    0  0.21218572737E+03 -0.13566781792E+03 -0.62131702862E+02  0.47674824406E+03  0.40000000000E+03 0. -1.
   -9000007    1    1    2    0  503 -0.21218572737E+03  0.13566781792E+03  0.16992125945E+03  0.50229650022E+03  0.40000000000E+03 0. -1.
<mgrwt>
<rscale>  2 0.47268228E+03</rscale>
<asrwt>0</asrwt>
<pdfrwt beam="1">  1       21 0.83602638E-01 0.47268228E+03</pdfrwt>
<pdfrwt beam="2">  1       21 0.67019630E-01 0.47268228E+03</pdfrwt>
<totfact> 0.21768243E+03</totfact>
</mgrwt>
</event>
<event>
 4    1  0.4656600E-002  0.4288581E+03  0.7818608E-02  0.1034221E+00
         21   -1    0    0  501  502  0.00000000000E+00  0.00000000000E+00  0.52455834328E+03  0.52455834328E+03  0.00000000000E+00 0.  1.
         21   -1    0    0  502  503 -0.00000000000E+00 -0.00000000000E+00 -0.39094199536E+03  0.39094199536E+03  0.00000000000E+00 0. -1.
    9000007    1    1    2  501    0 -0.12755456148E+03 -0.87458919653E+02  0.21382190892E+03  0.47920667516E+03  0.40000000000E+03 0.  1.
   -9000007    1    1    2    0  503  0.12755456148E+03  0.87458919653E+02 -0.80205560998E+02  0.43629366348E+03  0.40000000000E+03 0. -1.
<mgrwt>
<rscale>  2 0.42885805E+03</rscale>
<asrwt>0</asrwt>
<pdfrwt beam="1">  1       21 0.80701284E-01 0.42885805E+03</pdfrwt>
<pdfrwt beam="2">  1       21 0.60144922E-01 0.42885805E+03</pdfrwt>
<totfact> 0.30505015E+03</totfact>
</mgrwt>
</event>
<event>
 4    1  0.4656600E-002  0.4387854E+03  0.7818608E-02  0.1031120E+00
         21   -1    0    0  503  502  0.00000000000E+00  0.00000000000E+00  0.14092490274E+04  0.14092490274E+04  0.00000000000E+00 0. -1.
         21   -1    0    0  501  503 -0.00000000000E+00 -0.00000000000E+00 -0.14754569354E+03  0.14754569354E+03  0.00000000000E+00 0. -1.
    9000007    1    1    2  501    0 -0.11651339459E+02  0.17999132913E+03  0.41904088478E+03  0.60673544102E+03  0.40000000000E+03 0. -1.
   -9000007    1    1    2    0  502  0.11651339459E+02 -0.17999132913E+03  0.84266244910E+03  0.95005927994E+03  0.40000000000E+03 0. -1.
<mgrwt>
<rscale>  2 0.43878541E+03</rscale>
<asrwt>0</asrwt>
<pdfrwt beam="1">  1       21 0.21680753E+00 0.43878541E+03</pdfrwt>
<pdfrwt beam="2">  1       21 0.22699338E-01 0.43878541E+03</pdfrwt>
<totfact> 0.16127432E+03</totfact>
</mgrwt>
</event>
<event>
 4    1  0.4656600E-002  0.4297571E+03  0.7818608E-02  0.1033937E+00
         21   -1    0    0  501  502  0.00000000000E+00  0.00000000000E+00  0.63732415613E+03  0.63732415613E+03  0.00000000000E+00 0.  1.
         21   -1    0    0  502  503 -0.00000000000E+00 -0.00000000000E+00 -0.42896178039E+03  0.42896178039E+03  0.00000000000E+00 0.  1.
    9000007    1    1    2  501    0 -0.15615787540E+03  0.17488516825E+02  0.40785519468E+03  0.59248374670E+03  0.40000000000E+03 0.  1.
   -9000007    1    1    2    0  503  0.15615787540E+03 -0.17488516825E+02 -0.19949281894E+03  0.47380218982E+03  0.40000000000E+03 0.  1.
<mgrwt>
<rscale>  2 0.42975706E+03</rscale>
<asrwt>0</asrwt>
<pdfrwt beam="1">  1       21 0.98049870E-01 0.42975706E+03</pdfrwt>
<pdfrwt beam="2">  1       21 0.65994120E-01 0.42975706E+03</pdfrwt>
<totfact> 0.15690011E+03</totfact>
</mgrwt>
</event>
<event>
 4    1  0.4656600E-002  0.4672397E+03  0.7818608E-02  0.1022702E+00
         21   -1    0    0  503  502  0.00000000000E+00  0.00000000000E+00  0.40340210446E+03  0.40340210446E+03  0.00000000000E+00 0. -1.
         21   -1    0    0  501  503 -0.00000000000E+00 -0.00000000000E+00 -0.55634221208E+03  0.55634221208E+03  0.00000000000E+00 0. -1.
    9000007    1    1    2  501    0 -0.22325800423E+03 -0.92025963196E+02 -0.15569176661E+03  0.49249653861E+03  0.40000000000E+03 0. -1.
   -9000007    1    1    2    0  502  0.22325800423E+03  0.92025963196E+02  0.27516589939E+01  0.46724777793E+03  0.40000000000E+03 0. -1.
<mgrwt>
<rscale>  2 0.46723968E+03</rscale>
<asrwt>0</asrwt>
<pdfrwt beam="1">  1       21 0.62061862E-01 0.46723968E+03</pdfrwt>
<pdfrwt beam="2">  1       21 0.85591109E-01 0.46723968E+03</pdfrwt>
<totfact> 0.24485804E+03</totfact>
</mgrwt>
</event>
<event>
 4    1  0.4656600E-002  0.4895381E+03  0.7818608E-02  0.1016546E+00
         21   -1    0    0  503  502  0.00000000000E+00  0.00000000000E+00  0.15098857484E+03  0.15098857484E+03  0.00000000000E+00 0. -1.
         21   -1    0    0  501  503 -0.00000000000E+00 -0.00000000000E+00 -0.16314972575E+04  0.16314972575E+04  0.00000000000E+00 0.  1.
    9000007    1    1    2  501    0 -0.27546109073E+03  0.61389680366E+02 -0.88712735240E+03  0.10132336575E+04  0.40000000000E+03 0. -1.
   -9000007    1    1    2    0  502  0.27546109073E+03 -0.61389680366E+02 -0.59338133028E+03  0.76925217483E+03  0.40000000000E+03 0. -1.
<mgrwt>
<rscale>  2 0.48953805E+03</rscale>
<asrwt>0</asrwt>
<pdfrwt beam="1">  1       21 0.23229011E-01 0.48953805E+03</pdfrwt>
<pdfrwt beam="2">  1       21 0.25099959E+00 0.48953805E+03</pdfrwt>
<totfact> 0.91929731E+02</totfact>
</mgrwt>
</event>
<event>
 4    1  0.4656600E-002  0.4918774E+03  0.7818608E-02  0.1015921E+00
         21   -1    0    0  503  502  0.00000000000E+00  0.00000000000E+00  0.95107186799E+03  0.95107186799E+03  0.00000000000E+00 0. -1.
         21   -1    0    0  501  503 -0.00000000000E+00 -0.00000000000E+00 -0.27141869429E+03  0.27141869429E+03  0.00000000000E+00 0.  1.
    9000007    1    1    2  501    0 -0.28623722876E+03 -0.34067174297E+01  0.18672353647E+03  0.52612644481E+03  0.40000000000E+03 0.  1.
   -9000007    1    1    2    0  502  0.28623722876E+03  0.34067174297E+01  0.49292963722E+03  0.69636411747E+03  0.40000000000E+03 0. -1.
<mgrwt>
<rscale>  2 0.49187738E+03</rscale>
<asrwt>0</asrwt>
<pdfrwt beam="1">  1       21 0.14631875E+00 0.49187738E+03</pdfrwt>
<pdfrwt beam="2">  1       21 0.41756723E-01 0.49187738E+03</pdfrwt>
<totfact> 0.14763255E+03</totfact>
</mgrwt>
</event>
<event>
 4    1  0.4656600E-002  0.4597981E+03  0.7818608E-02  0.1024840E+00
         21   -1    0    0  503  502  0.00000000000E+00  0.00000000000E+00  0.99555614326E+03  0.99555614326E+03  0.00000000000E+00 0. -1.
         21   -1    0    0  501  503 -0.00000000000E+00 -0.00000000000E+00 -0.35451905291E+03  0.35451905291E+03  0.00000000000E+00 0.  1.
    9000007    1    1    2  501    0 -0.49851392451E+02 -0.22119924916E+03 -0.10694447821E+03  0.47207138293E+03  0.40000000000E+03 0.  1.
   -9000007    1    1    2    0  502  0.49851392451E+02  0.22119924916E+03  0.74798156856E+03  0.87800381324E+03  0.40000000000E+03 0. -1.
<mgrwt>
<rscale>  2 0.45979807E+03</rscale>
<asrwt>0</asrwt>
<pdfrwt beam="1">  1       21 0.15316248E+00 0.45979807E+03</pdfrwt>
<pdfrwt beam="2">  1       21 0.54541393E-01 0.45979807E+03</pdfrwt>
<totfact> 0.75065617E+02</totfact>
</mgrwt>
</event>
<event>
 4    1  0.4656600E-002  0.4514083E+03  0.7818608E-02  0.1027303E+00
         21   -1    0    0  503  502  0.00000000000E+00  0.00000000000E+00  0.38430935445E+03  0.38430935445E+03  0.00000000000E+00 0. -1.
         21   -1    0    0  501  503 -0.00000000000E+00 -0.00000000000E+00 -0.63214929885E+03  0.63214929885E+03  0.00000000000E+00 0. -1.
    9000007    1    1    2  501    0  0.11550316155E+03 -0.17443749258E+03 -0.32799710663E+03  0.55798881808E+03  0.40000000000E+03 0. -1.
   -9000007    1    1    2    0  502 -0.11550316155E+03  0.17443749258E+03  0.80157162229E+02  0.45846983521E+03  0.40000000000E+03 0. -1.
<mgrwt>
<rscale>  2 0.45140826E+03</rscale>
<asrwt>0</asrwt>
<pdfrwt beam="1">  1       21 0.59124517E-01 0.45140826E+03</pdfrwt>
<pdfrwt beam="2">  1       21 0.97253737E-01 0.45140826E+03</pdfrwt>
<totfact> 0.20220478E+03</totfact>
</mgrwt>
</event>
<event>
 4    1  0.4656600E-002  0.5232972E+03  0.7818608E-02  0.1007871E+00
         21   -1    0    0  501  502  0.00000000000E+00  0.00000000000E+00  0.47304249553E+03  0.47304249553E+03  0.00000000000E+00 0. -1.
         21   -1    0    0  502  503 -0.00000000000E+00 -0.00000000000E+00 -0.57917172271E+03  0.57917172271E+03  0.00000000000E+00 0.  1.
    9000007    1    1    2  501    0  0.22098525410E+03 -0.25496179837E+03 -0.64649136125E+02  0.52727555600E+03  0.40000000000E+03 0. -1.
   -9000007    1    1    2    0  503 -0.22098525410E+03  0.25496179837E+03 -0.41480091052E+02  0.52493866224E+03  0.40000000000E+03 0. -1.
<mgrwt>
<rscale>  2 0.52329724E+03</rscale>
<asrwt>0</asrwt>
<pdfrwt beam="1">  1       21 0.72775769E-01 0.52329724E+03</pdfrwt>
<pdfrwt beam="2">  1       21 0.89103342E-01 0.52329724E+03</pdfrwt>
<totfact> 0.15292172E+03</totfact>
</mgrwt>
</event>
<event>
 4    1  0.4656600E-002  0.5439400E+03  0.7818608E-02  0.1002906E+00
         21   -1    0    0  503  502  0.00000000000E+00  0.00000000000E+00  0.20809229803E+03  0.20809229803E+03  0.00000000000E+00 0. -1.
         21   -1    0    0  501  503 -0.00000000000E+00 -0.00000000000E+00 -0.18410068100E+04  0.18410068100E+04  0.00000000000E+00 0. -1.
    9000007    1    1    2  501    0 -0.28241496490E+03 -0.23688076133E+03 -0.13053423483E+04  0.14141390857E+04  0.40000000000E+03 0. -1.
   -9000007    1    1    2    0  502  0.28241496490E+03  0.23688076133E+03 -0.32757216362E+03  0.63496002226E+03  0.40000000000E+03 0. -1.
<mgrwt>
<rscale>  2 0.54393999E+03</rscale>
<asrwt>0</asrwt>
<pdfrwt beam="1">  1       21 0.32014200E-01 0.54393999E+03</pdfrwt>
<pdfrwt beam="2">  1       21 0.28323181E+00 0.54393999E+03</pdfrwt>
<totfact> 0.30280338E+02</totfact>
</mgrwt>
</event>
<event>
 4    1  0.4656600E-002  0.4728161E+03  0.7818608E-02  0.1021128E+00
         21   -1    0    0  503  502  0.00000000000E+00  0.00000000000E+00  0.18391795082E+03  0.18391795082E+03  0.00000000000E+00 0. -1.
         21   -1    0    0  501  503 -0.00000000000E+00 -0.00000000000E+00 -0.13306719298E+04  0.13306719298E+04  0.00000000000E+00 0. -1.
    9000007    1    1    2  501    0 -0.12723827215E+03  0.21763618450E+03 -0.79615585816E+03  0.92596935002E+03  0.40000000000E+03 0. -1.
   -9000007    1    1    2    0  502  0.12723827215E+03 -0.21763618450E+03 -0.35059812082E+03  0.58862053058E+03  0.40000000000E+03 0. -1.
<mgrwt>
<rscale>  2 0.47281612E+03</rscale>
<asrwt>0</asrwt>
<pdfrwt beam="1">  1       21 0.28295070E-01 0.47281612E+03</pdfrwt>
<pdfrwt beam="2">  1       21 0.20471876E+00 0.47281612E+03</pdfrwt>
<totfact> 0.12391989E+03</totfact>
</mgrwt>
</event>
<event>
 4    1  0.4656600E-002  0.4537343E+03  0.7818608E-02  0.1026614E+00
         21   -1    0    0  501  502  0.00000000000E+00  0.00000000000E+00  0.26132787947E+03  0.26132787947E+03  0.00000000000E+00 0. -1.
         21   -1    0    0  502  503 -0.00000000000E+00 -0.00000000000E+00 -0.10046886394E+04  0.10046886394E+04  0.00000000000E+00 0.  1.
    9000007    1    1    2  501    0  0.16030006955E+03 -0.14205186624E+03 -0.77570785675E+02  0.46031735986E+03  0.40000000000E+03 0. -1.
   -9000007    1    1    2    0  503 -0.16030006955E+03  0.14205186624E+03 -0.66578997429E+03  0.80569915903E+03  0.40000000000E+03 0.  1.
<mgrwt>
<rscale>  2 0.45373433E+03</rscale>
<asrwt>0</asrwt>
<pdfrwt beam="1">  1       21 0.40204290E-01 0.45373433E+03</pdfrwt>
<pdfrwt beam="2">  1       21 0.15456748E+00 0.45373433E+03</pdfrwt>
<totfact> 0.13961942E+03</totfact>
</mgrwt>
</event>
<event>
 4    1  0.4656600E-002  0.4668563E+03  0.7818608E-02  0.1022811E+00
         21   -1    0    0  503  502  0.00000000000E+00  0.00000000000E+00  0.11057363878E+04  0.11057363878E+04  0.00000000000E+00 0. -1.
         21   -1    0    0  501  503 -0.00000000000E+00 -0.00000000000E+00 -0.31903008044E+03  0.31903008044E+03  0.00000000000E+00 0. -1.
    9000007    1    1    2  501    0  0.98332021684E+02  0.21973983431E+03 -0.47029829659E+02  0.46921912381E+03  0.40000000000E+03 0. -1.
   -9000007    1    1    2    0  502 -0.98332021684E+02 -0.21973983431E+03  0.83373613697E+03  0.95554734438E+03  0.40000000000E+03 0. -1.
<mgrwt>
<rscale>  2 0.46685627E+03</rscale>
<asrwt>0</asrwt>
<pdfrwt beam="1">  1       21 0.17011329E+00 0.46685627E+03</pdfrwt>
<pdfrwt beam="2">  1       21 0.49081551E-01 0.46685627E+03</pdfrwt>
<totfact> 0.69922555E+02</totfact>
</mgrwt>
</event>
<event>
 4    1  0.4656600E-002  0.4433780E+03  0.7818608E-02  0.1029715E+00
         21   -1    0    0  501  502  0.00000000000E+00  0.00000000000E+00  0.33697139426E+03  0.33697139426E+03  0.00000000000E+00 0.  1.
         21   -1    0    0  502  503 -0.00000000000E+00 -0.00000000000E+00 -0.79148769543E+03  0.79148769543E+03  0.00000000000E+00 0.  1.
    9000007    1    1    2  501    0  0.18521289566E+03 -0.47751948520E+02  0.62057925416E+02  0.44769995690E+03  0.40000000000E+03 0.  1.
   -9000007    1    1    2    0  503 -0.18521289566E+03  0.47751948520E+02 -0.51657422658E+03  0.68075913278E+03  0.40000000000E+03 0.  1.
<mgrwt>
<rscale>  2 0.44337802E+03</rscale>
<asrwt>0</asrwt>
<pdfrwt beam="1">  1       21 0.51841753E-01 0.44337802E+03</pdfrwt>
<pdfrwt beam="2">  1       21 0.12176734E+00 0.44337802E+03</pdfrwt>
<totfact> 0.15440315E+03</totfact>
</mgrwt>
</event>
<event>
 4    1  0.4656600E-002  0.5788133E+03  0.7818608E-02  0.9950363E-01
         21   -1    0    0  501  502  0.00000000000E+00  0.00000000000E+00  0.64744748907E+03  0.64744748907E+03  0.00000000000E+00 0. -1.
         21   -1    0    0  502  503 -0.00000000000E+00 -0.00000000000E+00 -0.64268569062E+03  0.64268569062E+03  0.00000000000E+00 0.  1.
    9000007    1    1    2  501    0 -0.17537718753E+03 -0.37982587344E+03  0.28712901456E+03  0.64611757679E+03  0.40000000000E+03 0. -1.
   -9000007    1    1    2    0  503  0.17537718753E+03  0.37982587344E+03 -0.28236721611E+03  0.64401560290E+03  0.40000000000E+03 0.  1.
<mgrwt>
<rscale>  2 0.57881331E+03</rscale>
<asrwt>0</asrwt>
<pdfrwt beam="1">  1       21 0.99607306E-01 0.57881331E+03</pdfrwt>
<pdfrwt beam="2">  1       21 0.98874722E-01 0.57881331E+03</pdfrwt>
<totfact> 0.55842605E+02</totfact>
</mgrwt>
</event>
<event>
 4    1  0.4656600E-002  0.4226121E+03  0.7818608E-02  0.1036220E+00
         21   -1    0    0  503  502  0.00000000000E+00  0.00000000000E+00  0.20562016857E+03  0.20562016857E+03  0.00000000000E+00 0. -1.
         21   -1    0    0  501  503 -0.00000000000E+00 -0.00000000000E+00 -0.13299544708E+04  0.13299544708E+04  0.00000000000E+00 0. -1.
    9000007    1    1    2  501    0  0.10210918816E+03  0.90413918067E+02 -0.10143785996E+04  0.10988925818E+04  0.40000000000E+03 0. -1.
   -9000007    1    1    2    0  502 -0.10210918816E+03 -0.90413918067E+02 -0.10995570260E+03  0.43668205759E+03  0.40000000000E+03 0. -1.
<mgrwt>
<rscale>  2 0.42261207E+03</rscale>
<asrwt>0</asrwt>
<pdfrwt beam="1">  1       21 0.31633872E-01 0.42261207E+03</pdfrwt>
<pdfrwt beam="2">  1       21 0.20460838E+00 0.42261207E+03</pdfrwt>
<totfact> 0.10178638E+03</totfact>
</mgrwt>
</event>
<event>
 4    1  0.4656600E-002  0.4001599E+03  0.7818608E-02  0.1043724E+00
         21   -1    0    0  501  502  0.00000000000E+00  0.00000000000E+00  0.11014116211E+04  0.11014116211E+04  0.00000000000E+00 0. -1.
         21   -1    0    0  502  503 -0.00000000000E+00 -0.00000000000E+00 -0.22216744762E+03  0.22216744762E+03  0.00000000000E+00 0. -1.
    9000007    1    1    2  501    0  0.10119331828E+02 -0.50509828473E+01  0.82867865470E+03  0.92023704884E+03  0.40000000000E+03 0. -1.
   -9000007    1    1    2    0  503 -0.10119331828E+02  0.50509828473E+01  0.50565518769E+02  0.40334201987E+03  0.40000000000E+03 0. -1.
<mgrwt>
<rscale>  2 0.40015986E+03</rscale>
<asrwt>0</asrwt>
<pdfrwt beam="1">  1       21 0.16944794E+00 0.40015986E+03</pdfrwt>
<pdfrwt beam="2">  1       21 0.34179608E-01 0.40015986E+03</pdfrwt>
<totfact> 0.15394069E+03</totfact>
</mgrwt>
</event>
<event>
 4    1  0.4656600E-002  0.4320758E+03  0.7818608E-02  0.1033206E+00
         21   -1    0    0  503  502  0.00000000000E+00  0.00000000000E+00  0.67357279304E+03  0.67357279304E+03  0.00000000000E+00 0.  1.
         21   -1    0    0  501  503 -0.00000000000E+00 -0.00000000000E+00 -0.41259562166E+03  0.41259562166E+03  0.00000000000E+00 0.  1.
    9000007    1    1    2  501    0  0.14394542436E+03 -0.77260848406E+02 -0.18065893702E+03  0.46832379335E+03  0.40000000000E+03 0.  1.
   -9000007    1    1    2    0  502 -0.14394542436E+03  0.77260848406E+02  0.44163610840E+03  0.61784462135E+03  0.40000000000E+03 0.  1.
<mgrwt>
<rscale>  2 0.43207583E+03</rscale>
<asrwt>0</asrwt>
<pdfrwt beam="1">  1       21 0.10362658E+00 0.43207583E+03</pdfrwt>
<pdfrwt beam="2">  1       21 0.63476250E-01 0.43207583E+03</pdfrwt>
<totfact> 0.14935501E+03</totfact>
</mgrwt>
</event>
<event>
 4    1  0.4656600E-002  0.4258420E+03  0.7818608E-02  0.1035182E+00
         21   -1    0    0  501  502  0.00000000000E+00  0.00000000000E+00  0.60279072245E+03  0.60279072245E+03  0.00000000000E+00 0. -1.
         21   -1    0    0  502  503 -0.00000000000E+00 -0.00000000000E+00 -0.38698948684E+03  0.38698948684E+03  0.00000000000E+00 0. -1.
    9000007    1    1    2  501    0 -0.13354497328E+03  0.59220934698E+02  0.34140479698E+03  0.54580089263E+03  0.40000000000E+03 0. -1.
   -9000007    1    1    2    0  503  0.13354497328E+03 -0.59220934698E+02 -0.12560356136E+03  0.44397931666E+03  0.40000000000E+03 0. -1.
<mgrwt>
<rscale>  2 0.42584196E+03</rscale>
<asrwt>0</asrwt>
<pdfrwt beam="1">  1       21 0.92737034E-01 0.42584196E+03</pdfrwt>
<pdfrwt beam="2">  1       21 0.59536844E-01 0.42584196E+03</pdfrwt>
<totfact> 0.22537645E+03</totfact>
</mgrwt>
</event>
<event>
 4    1  0.4656600E-002  0.4149095E+03  0.7818608E-02  0.1038736E+00
         21   -1    0    0  503  502  0.00000000000E+00  0.00000000000E+00  0.18682962127E+04  0.18682962127E+04  0.00000000000E+00 0.  1.
         21   -1    0    0  501  503 -0.00000000000E+00 -0.00000000000E+00 -0.10125096179E+03  0.10125096179E+03  0.00000000000E+00 0.  1.
    9000007    1    1    2  501    0  0.46848702531E+02 -0.99775351819E+02  0.58816122079E+03  0.71978020492E+03  0.40000000000E+03 0.  1.
   -9000007    1    1    2    0  502 -0.46848702531E+02  0.99775351819E+02  0.11788840301E+04  0.12497669696E+04  0.40000000000E+03 0.  1.
<mgrwt>
<rscale>  2 0.41490953E+03</rscale>
<asrwt>0</asrwt>
<pdfrwt beam="1">  1       21 0.28743016E+00 0.41490953E+03</pdfrwt>
<pdfrwt beam="2">  1       21 0.15577072E-01 0.41490953E+03</pdfrwt>
<totfact> 0.12244274E+03</totfact>
</mgrwt>
</event>
<event>
 4    1  0.4656600E-002  0.4762199E+03  0.7818608E-02  0.1020179E+00
         21   -1    0    0  503  502  0.00000000000E+00  0.00000000000E+00  0.20398058984E+03  0.20398058984E+03  0.00000000000E+00 0. -1.
         21   -1    0    0  501  503 -0.00000000000E+00 -0.00000000000E+00 -0.16929145797E+04  0.16929145797E+04  0.00000000000E+00 0. -1.
    9000007    1    1    2  501    0 -0.11662936961E+03 -0.23061438319E+03 -0.13001499739E+04  0.13846210161E+04  0.40000000000E+03 0. -1.
   -9000007    1    1    2    0  502  0.11662936961E+03  0.23061438319E+03 -0.18878401594E+03  0.51227415342E+03  0.40000000000E+03 0. -1.
<mgrwt>
<rscale>  2 0.47621991E+03</rscale>
<asrwt>0</asrwt>
<pdfrwt beam="1">  1       21 0.31381628E-01 0.47621991E+03</pdfrwt>
<pdfrwt beam="2">  1       21 0.26044840E+00 0.47621991E+03</pdfrwt>
<totfact> 0.44823455E+02</totfact>
</mgrwt>
</event>
<event>
 4    1  0.4656600E-002  0.4517350E+03  0.7818608E-02  0.1027206E+00
         21   -1    0    0  501  502  0.00000000000E+00  0.00000000000E+00  0.83696048343E+02  0.83696048343E+02  0.00000000000E+00 0.  1.
         21   -1    0    0  502  503 -0.00000000000E+00 -0.00000000000E+00 -0.35460000102E+04  0.35460000102E+04  0.00000000000E+00 0.  1.
    9000007    1    1    2  501    0 -0.19381466895E+03 -0.80624794130E+02 -0.71675224953E+03  0.84722976254E+03  0.40000000000E+03 0.  1.
   -9000007    1    1    2    0  503  0.19381466895E+03  0.80624794130E+02 -0.27455517123E+04  0.27824662960E+04  0.40000000000E+03 0.  1.
<mgrwt>
<rscale>  2 0.45173497E+03</rscale>
<asrwt>0</asrwt>
<pdfrwt beam="1">  1       21 0.12876318E-01 0.45173497E+03</pdfrwt>
<pdfrwt beam="2">  1       21 0.54553833E+00 0.45173497E+03</pdfrwt>
<totfact> 0.33929114E+01</totfact>
</mgrwt>
</event>
<event>
 4    1  0.4656600E-002  0.5241184E+03  0.7818608E-02  0.1007669E+00
         21   -1    0    0  501  502  0.00000000000E+00  0.00000000000E+00  0.18312196282E+03  0.18312196282E+03  0.00000000000E+00 0. -1.
         21   -1    0    0  502  503 -0.00000000000E+00 -0.00000000000E+00 -0.16751911117E+04  0.16751911117E+04  0.00000000000E+00 0. -1.
    9000007    1    1    2  501    0  0.32831217867E+03  0.83133815472E+02 -0.44563696851E+03  0.68796251762E+03  0.40000000000E+03 0. -1.
   -9000007    1    1    2    0  503 -0.32831217867E+03 -0.83133815472E+02 -0.10464321803E+04  0.11703505569E+04  0.40000000000E+03 0. -1.
<mgrwt>
<rscale>  2 0.52411842E+03</rscale>
<asrwt>0</asrwt>
<pdfrwt beam="1">  1       21 0.28172610E-01 0.52411842E+03</pdfrwt>
<pdfrwt beam="2">  1       21 0.25772170E+00 0.52411842E+03</pdfrwt>
<totfact> 0.56425053E+02</totfact>
</mgrwt>
</event>
<event>
 4    1  0.4656600E-002  0.4129955E+03  0.7818608E-02  0.1039370E+00
         21   -1    0    0  501  502  0.00000000000E+00  0.00000000000E+00  0.42445614152E+03  0.42445614152E+03  0.00000000000E+00 0.  1.
         21   -1    0    0  502  503 -0.00000000000E+00 -0.00000000000E+00 -0.40849255508E+03  0.40849255508E+03  0.00000000000E+00 0.  1.
    9000007    1    1    2  501    0 -0.10276637852E+03 -0.20932708470E+01 -0.45149179752E+02  0.41545608525E+03  0.40000000000E+03 0. -1.
   -9000007    1    1    2    0  503  0.10276637852E+03  0.20932708470E+01  0.61112766191E+02  0.41749261135E+03  0.40000000000E+03 0. -1.
<mgrwt>
<rscale>  2 0.41299553E+03</rscale>
<asrwt>0</asrwt>
<pdfrwt beam="1">  1       21 0.65300944E-01 0.41299553E+03</pdfrwt>
<pdfrwt beam="2">  1       21 0.62845009E-01 0.41299553E+03</pdfrwt>
<totfact> 0.44998802E+03</totfact>
</mgrwt>
</event>
<event>
 4    1  0.4656600E-002  0.5314482E+03  0.7818608E-02  0.1005882E+00
         21   -1    0    0  501  502  0.00000000000E+00  0.00000000000E+00  0.27907124598E+03  0.27907124598E+03  0.00000000000E+00 0. -1.
         21   -1    0    0  502  503 -0.00000000000E+00 -0.00000000000E+00 -0.13631018730E+04  0.13631018730E+04  0.00000000000E+00 0.  1.
    9000007    1    1    2  501    0  0.14192118705E+03 -0.31983682151E+03 -0.12533457412E+03  0.54602744546E+03  0.40000000000E+03 0. -1.
   -9000007    1    1    2    0  503 -0.14192118705E+03  0.31983682151E+03 -0.95869605289E+03  0.10961456735E+04  0.40000000000E+03 0.  1.
<mgrwt>
<rscale>  2 0.53144822E+03</rscale>
<asrwt>0</asrwt>
<pdfrwt beam="1">  1       21 0.42934037E-01 0.53144822E+03</pdfrwt>
<pdfrwt beam="2">  1       21 0.20970798E+00 0.53144822E+03</pdfrwt>
<totfact> 0.48095913E+02</totfact>
</mgrwt>
</event>
<event>
 4    1  0.4656600E-002  0.6345311E+03  0.7818608E-02  0.9836246E-01
         21   -1    0    0  503  502  0.00000000000E+00  0.00000000000E+00  0.50523427767E+03  0.50523427767E+03  0.00000000000E+00 0.  1.
         21   -1    0    0  501  503 -0.00000000000E+00 -0.00000000000E+00 -0.86224847505E+03  0.86224847505E+03  0.00000000000E+00 0.  1.
    9000007    1    1    2  501    0 -0.85779822292E+02  0.48504802658E+03  0.97004335630E+01  0.63460528237E+03  0.40000000000E+03 0.  1.
   -9000007    1    1    2    0  502  0.85779822292E+02 -0.48504802658E+03 -0.36671463094E+03  0.73287747035E+03  0.40000000000E+03 0.  1.
<mgrwt>
<rscale>  2 0.63453114E+03</rscale>
<asrwt>0</asrwt>
<pdfrwt beam="1">  1       21 0.77728352E-01 0.63453114E+03</pdfrwt>
<pdfrwt beam="2">  1       21 0.13265361E+00 0.63453114E+03</pdfrwt>
<totfact> 0.46953533E+02</totfact>
</mgrwt>
</event>
<event>
 4    1  0.4656600E-002  0.4873999E+03  0.7818608E-02  0.1017121E+00
         21   -1    0    0  501  502  0.00000000000E+00  0.00000000000E+00  0.10455126244E+04  0.10455126244E+04  0.00000000000E+00 0.  1.
         21   -1    0    0  502  503 -0.00000000000E+00 -0.00000000000E+00 -0.27155733702E+03  0.27155733702E+03  0.00000000000E+00 0.  1.
    9000007    1    1    2  501    0  0.20355190764E+03  0.19006646289E+03  0.65307815669E+03  0.81490472950E+03  0.40000000000E+03 0.  1.
   -9000007    1    1    2    0  503 -0.20355190764E+03 -0.19006646289E+03  0.12087713069E+03  0.50216523192E+03  0.40000000000E+03 0.  1.
<mgrwt>
<rscale>  2 0.48739988E+03</rscale>
<asrwt>0</asrwt>
<pdfrwt beam="1">  1       21 0.16084809E+00 0.48739988E+03</pdfrwt>
<pdfrwt beam="2">  1       21 0.41778052E-01 0.48739988E+03</pdfrwt>
<totfact> 0.11388920E+03</totfact>
</mgrwt>
</event>
<event>
 4    1  0.4656600E-002  0.4435471E+03  0.7818608E-02  0.1029664E+00
         21   -1    0    0  503  502  0.00000000000E+00  0.00000000000E+00  0.23815783668E+03  0.23815783668E+03  0.00000000000E+00 0.  1.
         21   -1    0    0  501  503 -0.00000000000E+00 -0.00000000000E+00 -0.14150485086E+04  0.14150485086E+04  0.00000000000E+00 0. -1.
    9000007    1    1    2  501    0 -0.15806510447E+03 -0.10839507614E+03 -0.11217343489E+04  0.12062429354E+04  0.40000000000E+03 0. -1.
   -9000007    1    1    2    0  502  0.15806510447E+03  0.10839507614E+03 -0.55156323039E+02  0.44696340986E+03  0.40000000000E+03 0.  1.
<mgrwt>
<rscale>  2 0.44354714E+03</rscale>
<asrwt>0</asrwt>
<pdfrwt beam="1">  1       21 0.36639667E-01 0.44354714E+03</pdfrwt>
<pdfrwt beam="2">  1       21 0.21769977E+00 0.44354714E+03</pdfrwt>
<totfact> 0.61598409E+02</totfact>
</mgrwt>
</event>
<event>
 4    1  0.4656600E-002  0.5283896E+03  0.7818608E-02  0.1006623E+00
         21   -1    0    0  501  502  0.00000000000E+00  0.00000000000E+00  0.63101280136E+03  0.63101280136E+03  0.00000000000E+00 0. -1.
         21   -1    0    0  502  503 -0.00000000000E+00 -0.00000000000E+00 -0.70393040297E+03  0.70393040297E+03  0.00000000000E+00 0. -1.
    9000007    1    1    2  501    0 -0.14150832949E+03 -0.31491423937E+03  0.37034244824E+03  0.64525120259E+03  0.40000000000E+03 0. -1.
   -9000007    1    1    2    0  503  0.14150832949E+03  0.31491423937E+03 -0.44326004985E+03  0.68969200174E+03  0.40000000000E+03 0. -1.
<mgrwt>
<rscale>  2 0.52838962E+03</rscale>
<asrwt>0</asrwt>
<pdfrwt beam="1">  1       21 0.97078892E-01 0.52838962E+03</pdfrwt>
<pdfrwt beam="2">  1       21 0.10829699E+00 0.52838962E+03</pdfrwt>
<totfact> 0.48361049E+02</totfact>
</mgrwt>
</event>
<event>
 4    1  0.4656600E-002  0.4354280E+03  0.7818608E-02  0.1032159E+00
         21   -1    0    0  503  502  0.00000000000E+00  0.00000000000E+00  0.89396926690E+03  0.89396926690E+03  0.00000000000E+00 0. -1.
         21   -1    0    0  501  503 -0.00000000000E+00 -0.00000000000E+00 -0.29570957045E+03  0.29570957045E+03  0.00000000000E+00 0.  1.
    9000007    1    1    2  501    0  0.17203905540E+03  0.36077648745E+00 -0.17195303501E+02  0.43576742100E+03  0.40000000000E+03 0.  1.
   -9000007    1    1    2    0  502 -0.17203905540E+03 -0.36077648745E+00  0.61545499995E+03  0.75391141636E+03  0.40000000000E+03 0. -1.
<mgrwt>
<rscale>  2 0.43542803E+03</rscale>
<asrwt>0</asrwt>
<pdfrwt beam="1">  1       21 0.13753373E+00 0.43542803E+03</pdfrwt>
<pdfrwt beam="2">  1       21 0.45493780E-01 0.43542803E+03</pdfrwt>
<totfact> 0.14898589E+03</totfact>
</mgrwt>
</event>
<event>
 4    1  0.4656600E-002  0.4376401E+03  0.7818608E-02  0.1031473E+00
         21   -1    0    0  503  502  0.00000000000E+00  0.00000000000E+00  0.36348608801E+03  0.36348608801E+03  0.00000000000E+00 0.  1.
         21   -1    0    0  501  503 -0.00000000000E+00 -0.00000000000E+00 -0.73942661564E+03  0.73942661564E+03  0.00000000000E+00 0.  1.
    9000007    1    1    2  501    0  0.48303233918E+02  0.17086730333E+03 -0.48359973589E+03  0.65222507028E+03  0.40000000000E+03 0.  1.
   -9000007    1    1    2    0  502 -0.48303233918E+02 -0.17086730333E+03  0.10765920825E+03  0.45068763337E+03  0.40000000000E+03 0.  1.
<mgrwt>
<rscale>  2 0.43764008E+03</rscale>
<asrwt>0</asrwt>
<pdfrwt beam="1">  1       21 0.55920937E-01 0.43764008E+03</pdfrwt>
<pdfrwt beam="2">  1       21 0.11375794E+00 0.43764008E+03</pdfrwt>
<totfact> 0.15610770E+03</totfact>
</mgrwt>
</event>
<event>
 4    1  0.4656600E-002  0.4133292E+03  0.7818608E-02  0.1039260E+00
         21   -1    0    0  503  502  0.00000000000E+00  0.00000000000E+00  0.11168123833E+04  0.11168123833E+04  0.00000000000E+00 0.  1.
         21   -1    0    0  501  503 -0.00000000000E+00 -0.00000000000E+00 -0.17254768533E+03  0.17254768533E+03  0.00000000000E+00 0.  1.
    9000007    1    1    2  501    0  0.21359028211E+02  0.10190584727E+03  0.25498812621E+03  0.48565415092E+03  0.40000000000E+03 0. -1.
   -9000007    1    1    2    0  502 -0.21359028211E+02 -0.10190584727E+03  0.68927657180E+03  0.80370591775E+03  0.40000000000E+03 0. -1.
<mgrwt>
<rscale>  2 0.41332918E+03</rscale>
<asrwt>0</asrwt>
<pdfrwt beam="1">  1       21 0.17181728E+00 0.41332918E+03</pdfrwt>
<pdfrwt beam="2">  1       21 0.26545799E-01 0.41332918E+03</pdfrwt>
<totfact> 0.24286202E+03</totfact>
</mgrwt>
</event>
<event>
 4    1  0.4656600E-002  0.5496480E+03  0.7818608E-02  0.1001575E+00
         21   -1    0    0  501  502  0.00000000000E+00  0.00000000000E+00  0.16866415056E+04  0.16866415056E+04  0.00000000000E+00 0.  1.
         21   -1    0    0  502  503 -0.00000000000E+00 -0.00000000000E+00 -0.18485311211E+03  0.18485311211E+03  0.00000000000E+00 0. -1.
    9000007    1    1    2  501    0 -0.32654439234E+03  0.18836572396E+03  0.91567368430E+03  0.10679752723E+04  0.40000000000E+03 0.  1.
   -9000007    1    1    2    0  503  0.32654439234E+03 -0.18836572396E+03  0.58611470922E+03  0.80351934544E+03  0.40000000000E+03 0. -1.
<mgrwt>
<rscale>  2 0.54964797E+03</rscale>
<asrwt>0</asrwt>
<pdfrwt beam="1">  1       21 0.25948330E+00 0.54964797E+03</pdfrwt>
<pdfrwt beam="2">  1       21 0.28438941E-01 0.54964797E+03</pdfrwt>
<totfact> 0.53420528E+02</totfact>
</mgrwt>
</event>
<event>
 4    1  0.4656600E-002  0.4824485E+03  0.7818608E-02  0.1018464E+00
         21   -1    0    0  501  502  0.00000000000E+00  0.00000000000E+00  0.25165843428E+03  0.25165843428E+03  0.00000000000E+00 0. -1.
         21   -1    0    0  502  503 -0.00000000000E+00 -0.00000000000E+00 -0.95380419281E+03  0.95380419281E+03  0.00000000000E+00 0.  1.
    9000007    1    1    2  501    0 -0.11321507159E+03 -0.24482429290E+03 -0.24613236569E+03  0.54160661764E+03  0.40000000000E+03 0. -1.
   -9000007    1    1    2    0  503  0.11321507159E+03  0.24482429290E+03 -0.45601339285E+03  0.66385600945E+03  0.40000000000E+03 0.  1.
<mgrwt>
<rscale>  2 0.48244853E+03</rscale>
<asrwt>0</asrwt>
<pdfrwt beam="1">  1       21 0.38716683E-01 0.48244853E+03</pdfrwt>
<pdfrwt beam="2">  1       21 0.14673911E+00 0.48244853E+03</pdfrwt>
<totfact> 0.17185433E+03</totfact>
</mgrwt>
</event>
<event>
 4    1  0.4656600E-002  0.5156033E+03  0.7818608E-02  0.1009785E+00
         21   -1    0    0  503  502  0.00000000000E+00  0.00000000000E+00  0.25351693844E+03  0.25351693844E+03  0.00000000000E+00 0. -1.
         21   -1    0    0  501  503 -0.00000000000E+00 -0.00000000000E+00 -0.11871630735E+04  0.11871630735E+04  0.00000000000E+00 0.  1.
    9000007    1    1    2  501    0 -0.32059726646E+03  0.55354431469E+02 -0.71288891009E+03  0.87980527304E+03  0.40000000000E+03 0.  1.
   -9000007    1    1    2    0  502  0.32059726646E+03 -0.55354431469E+02 -0.22075722496E+03  0.56087473888E+03  0.40000000000E+03 0.  1.
<mgrwt>
<rscale>  2 0.51560326E+03</rscale>
<asrwt>0</asrwt>
<pdfrwt beam="1">  1       21 0.39002607E-01 0.51560326E+03</pdfrwt>
<pdfrwt beam="2">  1       21 0.18264047E+00 0.51560326E+03</pdfrwt>
<totfact> 0.90136513E+02</totfact>
</mgrwt>
</event>
<event>
 4    1  0.4656600E-002  0.8941690E+03  0.7818608E-02  0.9432900E-01
         21   -1    0    0  501  502  0.00000000000E+00  0.00000000000E+00  0.34220155765E+03  0.34220155765E+03  0.00000000000E+00 0. -1.
         21   -1    0    0  502  503 -0.00000000000E+00 -0.00000000000E+00 -0.23598136033E+04  0.23598136033E+04  0.00000000000E+00 0.  1.
    9000007    1    1    2  501    0 -0.77932598446E+03  0.17941353252E+03 -0.87438986935E+03  0.12506381768E+04  0.40000000000E+03 0. -1.
   -9000007    1    1    2    0  503  0.77932598446E+03 -0.17941353252E+03 -0.11432221763E+04  0.14513769842E+04  0.40000000000E+03 0. -1.
<mgrwt>
<rscale>  2 0.89416900E+03</rscale>
<asrwt>0</asrwt>
<pdfrwt beam="1">  1       21 0.52646393E-01 0.89416900E+03</pdfrwt>
<pdfrwt beam="2">  1       21 0.36304825E+00 0.89416900E+03</pdfrwt>
<totfact> 0.29946462E+01</totfact>
</mgrwt>
</event>
<event>
 4    1  0.4656600E-002  0.4850492E+03  0.7818608E-02  0.1017757E+00
         21   -1    0    0  501  502  0.00000000000E+00  0.00000000000E+00  0.44040215349E+03  0.44040215349E+03  0.00000000000E+00 0. -1.
         21   -1    0    0  502  503 -0.00000000000E+00 -0.00000000000E+00 -0.81316895736E+03  0.81316895736E+03  0.00000000000E+00 0.  1.
    9000007    1    1    2  501    0  0.25834156799E+03  0.92370811290E+02 -0.55348732121E+03  0.73594901133E+03  0.40000000000E+03 0.  1.
   -9000007    1    1    2    0  503 -0.25834156799E+03 -0.92370811290E+02  0.18072051735E+03  0.51762209953E+03  0.40000000000E+03 0. -1.
<mgrwt>
<rscale>  2 0.48504921E+03</rscale>
<asrwt>0</asrwt>
<pdfrwt beam="1">  1       21 0.67754177E-01 0.48504921E+03</pdfrwt>
<pdfrwt beam="2">  1       21 0.12510292E+00 0.48504921E+03</pdfrwt>
<totfact> 0.78845501E+02</totfact>
</mgrwt>
</event>
<event>
 4    1  0.4656600E-002  0.4211567E+03  0.7818608E-02  0.1036690E+00
         21   -1    0    0  503  502  0.00000000000E+00  0.00000000000E+00  0.11543116755E+03  0.11543116755E+03  0.00000000000E+00 0.  1.
         21   -1    0    0  501  503 -0.00000000000E+00 -0.00000000000E+00 -0.15375857143E+04  0.15375857143E+04  0.00000000000E+00 0. -1.
    9000007    1    1    2  501    0 -0.32863335208E+02  0.12764402051E+03 -0.69028540370E+03  0.80862038890E+03  0.40000000000E+03 0. -1.
   -9000007    1    1    2    0  502  0.32863335208E+02 -0.12764402051E+03 -0.73186914300E+03  0.84439649291E+03  0.40000000000E+03 0. -1.
<mgrwt>
<rscale>  2 0.42115673E+03</rscale>
<asrwt>0</asrwt>
<pdfrwt beam="1">  1       21 0.17758643E-01 0.42115673E+03</pdfrwt>
<pdfrwt beam="2">  1       21 0.23655163E+00 0.42115673E+03</pdfrwt>
<totfact> 0.19467119E+03</totfact>
</mgrwt>
</event>
<event>
 4    1  0.4656600E-002  0.4621960E+03  0.7818608E-02  0.1024146E+00
         21   -1    0    0  503  502  0.00000000000E+00  0.00000000000E+00  0.40903087537E+03  0.40903087537E+03  0.00000000000E+00 0. -1.
         21   -1    0    0  501  503 -0.00000000000E+00 -0.00000000000E+00 -0.13331255613E+04  0.13331255613E+04  0.00000000000E+00 0.  1.
    9000007    1    1    2  501    0  0.22676559189E+03 -0.46930748912E+02 -0.11413964372E+04  0.12314263907E+04  0.40000000000E+03 0.  1.
   -9000007    1    1    2    0  502 -0.22676559189E+03  0.46930748912E+02  0.21730175119E+03  0.51073004604E+03  0.40000000000E+03 0. -1.
<mgrwt>
<rscale>  2 0.46219599E+03</rscale>
<asrwt>0</asrwt>
<pdfrwt beam="1">  1       21 0.62927828E-01 0.46219599E+03</pdfrwt>
<pdfrwt beam="2">  1       21 0.20509624E+00 0.46219599E+03</pdfrwt>
<totfact> 0.23444298E+02</totfact>
</mgrwt>
</event>
<event>
 4    1  0.4656600E-002  0.4302117E+03  0.7818608E-02  0.1033793E+00
         21   -1    0    0  501  502  0.00000000000E+00  0.00000000000E+00  0.10350475761E+04  0.10350475761E+04  0.00000000000E+00 0.  1.
         21   -1    0    0  502  503 -0.00000000000E+00 -0.00000000000E+00 -0.19510832718E+03  0.19510832718E+03  0.00000000000E+00 0.  1.
    9000007    1    1    2  501    0 -0.15215621960E+03 -0.43938535936E+02  0.59771411350E+03  0.73644027020E+03  0.40000000000E+03 0.  1.
   -9000007    1    1    2    0  503  0.15215621960E+03  0.43938535936E+02  0.24222513539E+03  0.49371563305E+03  0.40000000000E+03 0.  1.
<mgrwt>
<rscale>  2 0.43021170E+03</rscale>
<asrwt>0</asrwt>
<pdfrwt beam="1">  1       21 0.15923809E+00 0.43021170E+03</pdfrwt>
<pdfrwt beam="2">  1       21 0.30016666E-01 0.43021170E+03</pdfrwt>
<totfact> 0.23442160E+03</totfact>
</mgrwt>
</event>
<event>
 4    1  0.4656600E-002  0.5674376E+03  0.7818608E-02  0.9975365E-01
         21   -1    0    0  503  502  0.00000000000E+00  0.00000000000E+00  0.58322412491E+03  0.58322412491E+03  0.00000000000E+00 0.  1.
         21   -1    0    0  501  503 -0.00000000000E+00 -0.00000000000E+00 -0.57392633391E+03  0.57392633391E+03  0.00000000000E+00 0. -1.
    9000007    1    1    2  501    0 -0.12227775545E+03  0.38344958124E+03 -0.10823633716E+03  0.57766818808E+03  0.40000000000E+03 0. -1.
   -9000007    1    1    2    0  502  0.12227775545E+03 -0.38344958124E+03  0.11753412816E+03  0.57948227075E+03  0.40000000000E+03 0. -1.
<mgrwt>
<rscale>  2 0.56743760E+03</rscale>
<asrwt>0</asrwt>
<pdfrwt beam="1">  1       21 0.89726788E-01 0.56743760E+03</pdfrwt>
<pdfrwt beam="2">  1       21 0.88296360E-01 0.56743760E+03</pdfrwt>
<totfact> 0.94625634E+02</totfact>
</mgrwt>
</event>
<event>
 4    1  0.4656600E-002  0.4340960E+03  0.7818608E-02  0.1032574E+00
         21   -1    0    0  501  502  0.00000000000E+00  0.00000000000E+00  0.62927470380E+03  0.62927470380E+03  0.00000000000E+00 0.  1.
         21   -1    0    0  502  503 -0.00000000000E+00 -0.00000000000E+00 -0.49430999869E+03  0.49430999869E+03  0.00000000000E+00 0. -1.
    9000007    1    1    2  501    0  0.70273610286E+02 -0.15330035358E+03  0.42020393783E+03  0.60416117723E+03  0.40000000000E+03 0.  1.
   -9000007    1    1    2    0  503 -0.70273610286E+02  0.15330035358E+03 -0.28523923272E+03  0.51942352526E+03  0.40000000000E+03 0. -1.
<mgrwt>
<rscale>  2 0.43409605E+03</rscale>
<asrwt>0</asrwt>
<pdfrwt beam="1">  1       21 0.96811493E-01 0.43409605E+03</pdfrwt>
<pdfrwt beam="2">  1       21 0.76047692E-01 0.43409605E+03</pdfrwt>
<totfact> 0.11729327E+03</totfact>
</mgrwt>
</event>
<event>
 4    1  0.4656600E-002  0.4048141E+03  0.7818608E-02  0.1042125E+00
         21   -1    0    0  501  502  0.00000000000E+00  0.00000000000E+00  0.57725160665E+03  0.57725160665E+03  0.00000000000E+00 0. -1.
         21   -1    0    0  502  503 -0.00000000000E+00 -0.00000000000E+00 -0.32425581868E+03  0.32425581868E+03  0.00000000000E+00 0. -1.
    9000007    1    1    2  501    0  0.54051368903E+02  0.30868718004E+02  0.28554162939E+03  0.49538717217E+03  0.40000000000E+03 0. -1.
   -9000007    1    1    2    0  503 -0.54051368903E+02 -0.30868718004E+02 -0.32545841426E+02  0.40612025316E+03  0.40000000000E+03 0. -1.
<mgrwt>
<rscale>  2 0.40481407E+03</rscale>
<asrwt>0</asrwt>
<pdfrwt beam="1">  1       21 0.88807939E-01 0.40481407E+03</pdfrwt>
<pdfrwt beam="2">  1       21 0.49885511E-01 0.40481407E+03</pdfrwt>
<totfact> 0.36839896E+03</totfact>
</mgrwt>
</event>
<event>
 4    1  0.4656600E-002  0.4893145E+03  0.7818608E-02  0.1016606E+00
         21   -1    0    0  503  502  0.00000000000E+00  0.00000000000E+00  0.23643177375E+03  0.23643177375E+03  0.00000000000E+00 0. -1.
         21   -1    0    0  501  503 -0.00000000000E+00 -0.00000000000E+00 -0.10173842968E+04  0.10173842968E+04  0.00000000000E+00 0.  1.
    9000007    1    1    2  501    0  0.28000600938E+03  0.32021148648E+02 -0.34782757535E+03  0.60034385265E+03  0.40000000000E+03 0.  1.
   -9000007    1    1    2    0  502 -0.28000600938E+03 -0.32021148648E+02 -0.43312494773E+03  0.65347221792E+03  0.40000000000E+03 0.  1.
<mgrwt>
<rscale>  2 0.48931454E+03</rscale>
<asrwt>0</asrwt>
<pdfrwt beam="1">  1       21 0.36374119E-01 0.48931454E+03</pdfrwt>
<pdfrwt beam="2">  1       21 0.15652066E+00 0.48931454E+03</pdfrwt>
<totfact> 0.16325607E+03</totfact>
</mgrwt>
</event>
<event>
 4    1  0.4656600E-002  0.4175369E+03  0.7818608E-02  0.1037871E+00
         21   -1    0    0  501  502  0.00000000000E+00  0.00000000000E+00  0.18650933812E+03  0.18650933812E+03  0.00000000000E+00 0.  1.
         21   -1    0    0  502  503 -0.00000000000E+00 -0.00000000000E+00 -0.12929921258E+04  0.12929921258E+04  0.00000000000E+00 0.  1.
    9000007    1    1    2  501    0 -0.31124733226E+02  0.11562158310E+03 -0.16385216958E+03  0.44853609997E+03  0.40000000000E+03 0.  1.
   -9000007    1    1    2    0  503  0.31124733226E+02 -0.11562158310E+03 -0.94263061810E+03  0.10309653640E+04  0.40000000000E+03 0.  1.
<mgrwt>
<rscale>  2 0.41753694E+03</rscale>
<asrwt>0</asrwt>
<pdfrwt beam="1">  1       21 0.28693745E-01 0.41753694E+03</pdfrwt>
<pdfrwt beam="2">  1       21 0.19892186E+00 0.41753694E+03</pdfrwt>
<totfact> 0.13505449E+03</totfact>
</mgrwt>
</event>
<event>
 4    1  0.4656600E-002  0.4014810E+03  0.7818608E-02  0.1043268E+00
         21   -1    0    0  503  502  0.00000000000E+00  0.00000000000E+00  0.32146011720E+04  0.32146011720E+04  0.00000000000E+00 0.  1.
         21   -1    0    0  501  503 -0.00000000000E+00 -0.00000000000E+00 -0.57725528919E+02  0.57725528919E+02  0.00000000000E+00 0.  1.
    9000007    1    1    2  501    0  0.33791193218E+02  0.67206108120E+01  0.98541131784E+03  0.10640594329E+04  0.40000000000E+03 0.  1.
   -9000007    1    1    2    0  502 -0.33791193218E+02 -0.67206108120E+01  0.21714643253E+04  0.22082672681E+04  0.40000000000E+03 0.  1.
<mgrwt>
<rscale>  2 0.40148102E+03</rscale>
<asrwt>0</asrwt>
<pdfrwt beam="1">  1       21 0.49455389E+00 0.40148102E+03</pdfrwt>
<pdfrwt beam="2">  1       21 0.88808531E-02 0.40148102E+03</pdfrwt>
<totfact> 0.16192350E+02</totfact>
</mgrwt>
</event>
<event>
 4    1  0.4656600E-002  0.4533147E+03  0.7818608E-02  0.1026738E+00
         21   -1    0    0  501  502  0.00000000000E+00  0.00000000000E+00  0.10609191613E+04  0.10609191613E+04  0.00000000000E+00 0.  1.
         21   -1    0    0  502  503 -0.00000000000E+00 -0.00000000000E+00 -0.23430648978E+03  0.23430648978E+03  0.00000000000E+00 0.  1.
    9000007    1    1    2  501    0  0.21290005882E+03 -0.12954067196E+02  0.14368749767E+03  0.47554215364E+03  0.40000000000E+03 0.  1.
   -9000007    1    1    2    0  503 -0.21290005882E+03  0.12954067196E+02  0.68292517383E+03  0.81968349743E+03  0.40000000000E+03 0.  1.
<mgrwt>
<rscale>  2 0.45331473E+03</rscale>
<asrwt>0</asrwt>
<pdfrwt beam="1">  1       21 0.16321833E+00 0.45331473E+03</pdfrwt>
<pdfrwt beam="2">  1       21 0.36047153E-01 0.45331473E+03</pdfrwt>
<totfact> 0.15006249E+03</totfact>
</mgrwt>
</event>
<event>
 4    1  0.4656600E-002  0.4199885E+03  0.7818608E-02  0.1037070E+00
         21   -1    0    0  503  502  0.00000000000E+00  0.00000000000E+00  0.86562900390E+03  0.86562900390E+03  0.00000000000E+00 0.  1.
         21   -1    0    0  501  503 -0.00000000000E+00 -0.00000000000E+00 -0.30998791545E+03  0.30998791545E+03  0.00000000000E+00 0.  1.
    9000007    1    1    2  501    0 -0.10948916385E+03  0.66350972424E+02 -0.66259689251E+02  0.42518310757E+03  0.40000000000E+03 0.  1.
   -9000007    1    1    2    0  502  0.10948916385E+03 -0.66350972424E+02  0.62190077770E+03  0.75043381177E+03  0.40000000000E+03 0.  1.
<mgrwt>
<rscale>  2 0.41998849E+03</rscale>
<asrwt>0</asrwt>
<pdfrwt beam="1">  1       21 0.13317369E+00 0.41998849E+03</pdfrwt>
<pdfrwt beam="2">  1       21 0.47690449E-01 0.41998849E+03</pdfrwt>
<totfact> 0.14775881E+03</totfact>
</mgrwt>
</event>
<event>
 4    1  0.4656600E-002  0.4121817E+03  0.7818608E-02  0.1039641E+00
         21   -1    0    0  501  502  0.00000000000E+00  0.00000000000E+00  0.16617816758E+04  0.16617816758E+04  0.00000000000E+00 0.  1.
         21   -1    0    0  502  503 -0.00000000000E+00 -0.00000000000E+00 -0.14080072025E+03  0.14080072025E+03  0.00000000000E+00 0.  1.
    9000007    1    1    2  501    0 -0.72366704102E+02  0.68240617000E+02  0.12321823872E+04  0.12992948691E+04  0.40000000000E+03 0.  1.
   -9000007    1    1    2    0  503  0.72366704102E+02 -0.68240617000E+02  0.28879856839E+03  0.50328752694E+03  0.40000000000E+03 0.  1.
<mgrwt>
<rscale>  2 0.41218166E+03</rscale>
<asrwt>0</asrwt>
<pdfrwt beam="1">  1       21 0.25565870E+00 0.41218166E+03</pdfrwt>
<pdfrwt beam="2">  1       21 0.21661651E-01 0.41218166E+03</pdfrwt>
<totfact> 0.10237416E+03</totfact>
</mgrwt>
</event>
<event>
 4    1  0.4656600E-002  0.4170632E+03  0.7818608E-02  0.1038026E+00
         21   -1    0    0  501  502  0.00000000000E+00  0.00000000000E+00  0.57807900867E+03  0.57807900867E+03  0.00000000000E+00 0. -1.
         21   -1    0    0  502  503 -0.00000000000E+00 -0.00000000000E+00 -0.48975945738E+03  0.48975945738E+03  0.00000000000E+00 0. -1.
    9000007    1    1    2  501    0 -0.11664269118E+03 -0.18334881936E+02  0.37571667551E+03  0.56134187939E+03  0.40000000000E+03 0. -1.
   -9000007    1    1    2    0  503  0.11664269118E+03  0.18334881936E+02 -0.28739712421E+03  0.50649658667E+03  0.40000000000E+03 0. -1.
<mgrwt>
<rscale>  2 0.41706317E+03</rscale>
<asrwt>0</asrwt>
<pdfrwt beam="1">  1       21 0.88935232E-01 0.41706317E+03</pdfrwt>
<pdfrwt beam="2">  1       21 0.75347609E-01 0.41706317E+03</pdfrwt>
<totfact> 0.14766968E+03</totfact>
</mgrwt>
</event>
<event>
 4    1  0.4656600E-002  0.4652671E+03  0.7818608E-02  0.1023265E+00
         21   -1    0    0  501  502  0.00000000000E+00  0.00000000000E+00  0.70730274589E+03  0.70730274589E+03  0.00000000000E+00 0. -1.
         21   -1    0    0  502  503 -0.00000000000E+00 -0.00000000000E+00 -0.48716540748E+03  0.48716540748E+03  0.00000000000E+00 0. -1.
    9000007    1    1    2  501    0 -0.20393484088E+03  0.12200008311E+03 -0.25407958779E+03  0.53012251087E+03  0.40000000000E+03 0. -1.
   -9000007    1    1    2    0  503  0.20393484088E+03 -0.12200008311E+03  0.47421692620E+03  0.66434564249E+03  0.40000000000E+03 0. -1.
<mgrwt>
<rscale>  2 0.46526706E+03</rscale>
<asrwt>0</asrwt>
<pdfrwt beam="1">  1       21 0.10881581E+00 0.46526706E+03</pdfrwt>
<pdfrwt beam="2">  1       21 0.74948525E-01 0.46526706E+03</pdfrwt>
<totfact> 0.89939694E+02</totfact>
</mgrwt>
</event>
<event>
 4    1  0.4656600E-002  0.4872720E+03  0.7818608E-02  0.1017156E+00
         21   -1    0    0  503  502  0.00000000000E+00  0.00000000000E+00  0.57133731866E+03  0.57133731866E+03  0.00000000000E+00 0. -1.
         21   -1    0    0  501  503 -0.00000000000E+00 -0.00000000000E+00 -0.41597828909E+03  0.41597828909E+03  0.00000000000E+00 0.  1.
    9000007    1    1    2  501    0 -0.14887734282E+03  0.23509470631E+03  0.62324578422E+02  0.49124162814E+03  0.40000000000E+03 0. -1.
   -9000007    1    1    2    0  502  0.14887734282E+03 -0.23509470631E+03  0.93034451143E+02  0.49607397961E+03  0.40000000000E+03 0. -1.
<mgrwt>
<rscale>  2 0.48727198E+03</rscale>
<asrwt>0</asrwt>
<pdfrwt beam="1">  1       21 0.87898049E-01 0.48727198E+03</pdfrwt>
<pdfrwt beam="2">  1       21 0.63996660E-01 0.48727198E+03</pdfrwt>
<totfact> 0.21339636E+03</totfact>
</mgrwt>
</event>
<event>
 4    1  0.4656600E-002  0.4516675E+03  0.7818608E-02  0.1027226E+00
         21   -1    0    0  501  502  0.00000000000E+00  0.00000000000E+00  0.44648858870E+03  0.44648858870E+03  0.00000000000E+00 0. -1.
         21   -1    0    0  502  503 -0.00000000000E+00 -0.00000000000E+00 -0.60752850151E+03  0.60752850151E+03  0.00000000000E+00 0. -1.
    9000007    1    1    2  501    0  0.16035572486E+03 -0.13523886181E+03  0.18188898721E+03  0.48691591873E+03  0.40000000000E+03 0. -1.
   -9000007    1    1    2    0  503 -0.16035572486E+03  0.13523886181E+03 -0.34292890002E+03  0.56710117149E+03  0.40000000000E+03 0. -1.
<mgrwt>
<rscale>  2 0.45166748E+03</rscale>
<asrwt>0</asrwt>
<pdfrwt beam="1">  1       21 0.68690552E-01 0.45166748E+03</pdfrwt>
<pdfrwt beam="2">  1       21 0.93465923E-01 0.45166748E+03</pdfrwt>
<totfact> 0.15954307E+03</totfact>
</mgrwt>
</event>
<event>
 4    1  0.4656600E-002  0.4449620E+03  0.7818608E-02  0.1029235E+00
         21   -1    0    0  503  502  0.00000000000E+00  0.00000000000E+00  0.11760110133E+03  0.11760110133E+03  0.00000000000E+00 0. -1.
         21   -1    0    0  501  503 -0.00000000000E+00 -0.00000000000E+00 -0.18268347802E+04  0.18268347802E+04  0.00000000000E+00 0. -1.
    9000007    1    1    2  501    0  0.18050906067E+03  0.73536495218E+02 -0.58236864201E+03  0.73290133873E+03  0.40000000000E+03 0. -1.
   -9000007    1    1    2    0  502 -0.18050906067E+03 -0.73536495218E+02 -0.11268650369E+04  0.12115345428E+04  0.40000000000E+03 0. -1.
<mgrwt>
<rscale>  2 0.44496195E+03</rscale>
<asrwt>0</asrwt>
<pdfrwt beam="1">  1       21 0.18092478E-01 0.44496195E+03</pdfrwt>
<pdfrwt beam="2">  1       21 0.28105150E+00 0.44496195E+03</pdfrwt>
<totfact> 0.99441172E+02</totfact>
</mgrwt>
</event>
<event>
 4    1  0.4656600E-002  0.4363627E+03  0.7818608E-02  0.1031869E+00
         21   -1    0    0  503  502  0.00000000000E+00  0.00000000000E+00  0.48841806169E+03  0.48841806169E+03  0.00000000000E+00 0. -1.
         21   -1    0    0  501  503 -0.00000000000E+00 -0.00000000000E+00 -0.43251336176E+03  0.43251336176E+03  0.00000000000E+00 0. -1.
    9000007    1    1    2  501    0 -0.82108491732E+02  0.15385255621E+03  0.17256212078E+03  0.46924417843E+03  0.40000000000E+03 0. -1.
   -9000007    1    1    2    0  502  0.82108491732E+02 -0.15385255621E+03 -0.11665742086E+03  0.45168724501E+03  0.40000000000E+03 0. -1.
<mgrwt>
<rscale>  2 0.43636271E+03</rscale>
<asrwt>0</asrwt>
<pdfrwt beam="1">  1       21 0.75141240E-01 0.43636271E+03</pdfrwt>
<pdfrwt beam="2">  1       21 0.66540518E-01 0.43636271E+03</pdfrwt>
<totfact> 0.28665456E+03</totfact>
</mgrwt>
</event>
<event>
 4    1  0.4656600E-002  0.7577366E+03  0.7818608E-02  0.9623290E-01
         21   -1    0    0  501  502  0.00000000000E+00  0.00000000000E+00  0.38858533557E+03  0.38858533557E+03  0.00000000000E+00 0. -1.
         21   -1    0    0  502  503 -0.00000000000E+00 -0.00000000000E+00 -0.14809161735E+04  0.14809161735E+04  0.00000000000E+00 0.  1.
    9000007    1    1    2  501    0 -0.40518838598E+03 -0.49998719880E+03 -0.59055059080E+03  0.96068456186E+03  0.40000000000E+03 0. -1.
   -9000007    1    1    2    0  503  0.40518838598E+03  0.49998719880E+03 -0.50178024710E+03  0.90881694718E+03  0.40000000000E+03 0.  1.
<mgrwt>
<rscale>  2 0.75773665E+03</rscale>
<asrwt>0</asrwt>
<pdfrwt beam="1">  1       21 0.59782359E-01 0.75773665E+03</pdfrwt>
<pdfrwt beam="2">  1       21 0.22783326E+00 0.75773665E+03</pdfrwt>
<totfact> 0.16581010E+02</totfact>
</mgrwt>
</event>
<event>
 4    1  0.4656600E-002  0.4186797E+03  0.7818608E-02  0.1037497E+00
         21   -1    0    0  501  502  0.00000000000E+00  0.00000000000E+00  0.20335336836E+03  0.20335336836E+03  0.00000000000E+00 0.  1.
         21   -1    0    0  502  503 -0.00000000000E+00 -0.00000000000E+00 -0.17130542386E+04  0.17130542386E+04  0.00000000000E+00 0.  1.
    9000007    1    1    2  501    0  0.58925110373E+02 -0.10872231919E+03 -0.79470260051E+02  0.42615517544E+03  0.40000000000E+03 0.  1.
   -9000007    1    1    2    0  503 -0.58925110373E+02  0.10872231919E+03 -0.14302306102E+04  0.14902524315E+04  0.40000000000E+03 0.  1.
<mgrwt>
<rscale>  2 0.41867972E+03</rscale>
<asrwt>0</asrwt>
<pdfrwt beam="1">  1       21 0.31285134E-01 0.41867972E+03</pdfrwt>
<pdfrwt beam="2">  1       21 0.26354681E+00 0.41867972E+03</pdfrwt>
<totfact> 0.44570889E+02</totfact>
</mgrwt>
</event>
<event>
 4    1  0.4656600E-002  0.5669466E+03  0.7818608E-02  0.9976458E-01
         21   -1    0    0  501  502  0.00000000000E+00  0.00000000000E+00  0.14726158198E+04  0.14726158198E+04  0.00000000000E+00 0. -1.
         21   -1    0    0  502  503 -0.00000000000E+00 -0.00000000000E+00 -0.25478045799E+03  0.25478045799E+03  0.00000000000E+00 0.  1.
    9000007    1    1    2  501    0  0.39828483411E+03  0.52892397066E+02  0.28196469611E+03  0.63319231250E+03  0.40000000000E+03 0.  1.
   -9000007    1    1    2    0  503 -0.39828483411E+03 -0.52892397066E+02  0.93587066569E+03  0.10942039653E+04  0.40000000000E+03 0. -1.
<mgrwt>
<rscale>  2 0.56694657E+03</rscale>
<asrwt>0</asrwt>
<pdfrwt beam="1">  1       21 0.22655628E+00 0.56694657E+03</pdfrwt>
<pdfrwt beam="2">  1       21 0.39196994E-01 0.56694657E+03</pdfrwt>
<totfact> 0.44546405E+02</totfact>
</mgrwt>
</event>
<event>
 4    1  0.4656600E-002  0.4363590E+03  0.7818608E-02  0.1031870E+00
         21   -1    0    0  501  502  0.00000000000E+00  0.00000000000E+00  0.79242889228E+03  0.79242889228E+03  0.00000000000E+00 0.  1.
         21   -1    0    0  502  503 -0.00000000000E+00 -0.00000000000E+00 -0.24252882749E+03  0.24252882749E+03  0.00000000000E+00 0.  1.
    9000007    1    1    2  501    0 -0.83575213395E+02  0.15305011486E+03  0.32471910468E+03  0.54392246773E+03  0.40000000000E+03 0.  1.
   -9000007    1    1    2    0  503  0.83575213395E+02 -0.15305011486E+03  0.22518096012E+03  0.49103525205E+03  0.40000000000E+03 0.  1.
<mgrwt>
<rscale>  2 0.43635897E+03</rscale>
<asrwt>0</asrwt>
<pdfrwt beam="1">  1       21 0.12191214E+00 0.43635897E+03</pdfrwt>
<pdfrwt beam="2">  1       21 0.37312128E-01 0.43635897E+03</pdfrwt>
<totfact> 0.30666832E+03</totfact>
</mgrwt>
</event>
<event>
 4    1  0.4656600E-002  0.4231765E+03  0.7818608E-02  0.1036037E+00
         21   -1    0    0  503  502  0.00000000000E+00  0.00000000000E+00  0.18080277846E+03  0.18080277846E+03  0.00000000000E+00 0.  1.
         21   -1    0    0  501  503 -0.00000000000E+00 -0.00000000000E+00 -0.11052808752E+04  0.11052808752E+04  0.00000000000E+00 0.  1.
    9000007    1    1    2  501    0  0.94159919297E+02  0.10105554343E+03 -0.66949604832E+03  0.79202479252E+03  0.40000000000E+03 0.  1.
   -9000007    1    1    2    0  502 -0.94159919297E+02 -0.10105554343E+03 -0.25498204844E+03  0.49405886115E+03  0.40000000000E+03 0.  1.
<mgrwt>
<rscale>  2 0.42317646E+03</rscale>
<asrwt>0</asrwt>
<pdfrwt beam="1">  1       21 0.27815813E-01 0.42317646E+03</pdfrwt>
<pdfrwt beam="2">  1       21 0.17004321E+00 0.42317646E+03</pdfrwt>
<totfact> 0.22727414E+03</totfact>
</mgrwt>
</event>
<event>
 4    1  0.4656600E-002  0.7090183E+03  0.7818608E-02  0.9701933E-01
         21   -1    0    0  503  502  0.00000000000E+00  0.00000000000E+00  0.80711758959E+03  0.80711758959E+03  0.00000000000E+00 0.  1.
         21   -1    0    0  501  503 -0.00000000000E+00 -0.00000000000E+00 -0.62870604729E+03  0.62870604729E+03  0.00000000000E+00 0.  1.
    9000007    1    1    2  501    0  0.16026351120E+03 -0.56304754794E+03  0.15853826406E+03  0.72652688555E+03  0.40000000000E+03 0.  1.
   -9000007    1    1    2    0  502 -0.16026351120E+03  0.56304754794E+03  0.19873278242E+02  0.70929675133E+03  0.40000000000E+03 0.  1.
<mgrwt>
<rscale>  2 0.70901829E+03</rscale>
<asrwt>0</asrwt>
<pdfrwt beam="1">  1       21 0.12417194E+00 0.70901829E+03</pdfrwt>
<pdfrwt beam="2">  1       21 0.96724007E-01 0.70901829E+03</pdfrwt>
<totfact> 0.32478950E+02</totfact>
</mgrwt>
</event>
<event>
 4    1  0.4656600E-002  0.4095491E+03  0.7818608E-02  0.1040522E+00
         21   -1    0    0  501  502  0.00000000000E+00  0.00000000000E+00  0.11227605877E+04  0.11227605877E+04  0.00000000000E+00 0.  1.
         21   -1    0    0  502  503 -0.00000000000E+00 -0.00000000000E+00 -0.15298945854E+03  0.15298945854E+03  0.00000000000E+00 0.  1.
    9000007    1    1    2  501    0  0.80350845641E+02  0.35696527669E+02  0.58271144560E+03  0.71223811280E+03  0.40000000000E+03 0. -1.
   -9000007    1    1    2    0  503 -0.80350845641E+02 -0.35696527669E+02  0.38705968353E+03  0.56351193341E+03  0.40000000000E+03 0. -1.
<mgrwt>
<rscale>  2 0.40954914E+03</rscale>
<asrwt>0</asrwt>
<pdfrwt beam="1">  1       21 0.17273239E+00 0.40954914E+03</pdfrwt>
<pdfrwt beam="2">  1       21 0.23536840E-01 0.40954914E+03</pdfrwt>
<totfact> 0.30266521E+03</totfact>
</mgrwt>
</event>
<event>
 4    1  0.4656600E-002  0.5609147E+03  0.7818608E-02  0.9989987E-01
         21   -1    0    0  501  502  0.00000000000E+00  0.00000000000E+00  0.55179174631E+03  0.55179174631E+03  0.00000000000E+00 0.  1.
         21   -1    0    0  502  503 -0.00000000000E+00 -0.00000000000E+00 -0.15168396153E+04  0.15168396153E+04  0.00000000000E+00 0. -1.
    9000007    1    1    2  501    0  0.25042852185E+03  0.30316810184E+03  0.33458176296E+03  0.65312349417E+03  0.40000000000E+03 0.  1.
   -9000007    1    1    2    0  503 -0.25042852185E+03 -0.30316810184E+03 -0.12996296319E+04  0.14155078674E+04  0.40000000000E+03 0. -1.
<mgrwt>
<rscale>  2 0.56091474E+03</rscale>
<asrwt>0</asrwt>
<pdfrwt beam="1">  1       21 0.84891040E-01 0.56091474E+03</pdfrwt>
<pdfrwt beam="2">  1       21 0.23335994E+00 0.56091474E+03</pdfrwt>
<totfact> 0.74182088E+01</totfact>
</mgrwt>
</event>
<event>
 4    1  0.4656600E-002  0.4656502E+03  0.7818608E-02  0.1023155E+00
         21   -1    0    0  501  502  0.00000000000E+00  0.00000000000E+00  0.56017659906E+03  0.56017659906E+03  0.00000000000E+00 0.  1.
         21   -1    0    0  502  503 -0.00000000000E+00 -0.00000000000E+00 -0.62968320350E+03  0.62968320350E+03  0.00000000000E+00 0.  1.
    9000007    1    1    2  501    0  0.38382013597E+02  0.23528058496E+03  0.33452844533E+03  0.57335801500E+03  0.40000000000E+03 0.  1.
   -9000007    1    1    2    0  503 -0.38382013597E+02 -0.23528058496E+03 -0.40403504977E+03  0.61650178757E+03  0.40000000000E+03 0.  1.
<mgrwt>
<rscale>  2 0.46565023E+03</rscale>
<asrwt>0</asrwt>
<pdfrwt beam="1">  1       21 0.86181015E-01 0.46565023E+03</pdfrwt>
<pdfrwt beam="2">  1       21 0.96874339E-01 0.46565023E+03</pdfrwt>
<totfact> 0.86517931E+02</totfact>
</mgrwt>
</event>
<event>
 4    1  0.4656600E-002  0.4212252E+03  0.7818608E-02  0.1036668E+00
         21   -1    0    0  503  502  0.00000000000E+00  0.00000000000E+00  0.39859896108E+03  0.39859896108E+03  0.00000000000E+00 0.  1.
         21   -1    0    0  501  503 -0.00000000000E+00 -0.00000000000E+00 -0.56132293420E+03  0.56132293420E+03  0.00000000000E+00 0.  1.
    9000007    1    1    2  501    0  0.67219325805E+02  0.11363190379E+03 -0.29972477068E+03  0.51697735490E+03  0.40000000000E+03 0.  1.
   -9000007    1    1    2    0  502 -0.67219325805E+02 -0.11363190379E+03  0.13700079757E+03  0.44294454038E+03  0.40000000000E+03 0.  1.
<mgrwt>
<rscale>  2 0.42122517E+03</rscale>
<asrwt>0</asrwt>
<pdfrwt beam="1">  1       21 0.61322917E-01 0.42122517E+03</pdfrwt>
<pdfrwt beam="2">  1       21 0.86357374E-01 0.42122517E+03</pdfrwt>
<totfact> 0.25042114E+03</totfact>
</mgrwt>
</event>
<event>
 4    1  0.4656600E-002  0.5151672E+03  0.7818608E-02  0.1009894E+00
         21   -1    0    0  501  502  0.00000000000E+00  0.00000000000E+00  0.83406310017E+03  0.83406310017E+03  0.00000000000E+00 0. -1.
         21   -1    0    0  502  503 -0.00000000000E+00 -0.00000000000E+00 -0.34627181161E+03  0.34627181161E+03  0.00000000000E+00 0.  1.
    9000007    1    1    2  501    0  0.32404824676E+03  0.19747095113E+02  0.41193745182E+03  0.65961327929E+03  0.40000000000E+03 0. -1.
   -9000007    1    1    2    0  503 -0.32404824676E+03 -0.19747095113E+02  0.75853836735E+02  0.52072163249E+03  0.40000000000E+03 0.  1.
<mgrwt>
<rscale>  2 0.51516717E+03</rscale>
<asrwt>0</asrwt>
<pdfrwt beam="1">  1       21 0.12831740E+00 0.51516717E+03</pdfrwt>
<pdfrwt beam="2">  1       21 0.53272587E-01 0.51516717E+03</pdfrwt>
<totfact> 0.12384322E+03</totfact>
</mgrwt>
</event>
<event>
 4    1  0.4656600E-002  0.4558163E+03  0.7818608E-02  0.1026002E+00
         21   -1    0    0  501  502  0.00000000000E+00  0.00000000000E+00  0.11402578607E+04  0.11402578607E+04  0.00000000000E+00 0.  1.
         21   -1    0    0  502  503 -0.00000000000E+00 -0.00000000000E+00 -0.33590128491E+03  0.33590128491E+03  0.00000000000E+00 0.  1.
    9000007    1    1    2  501    0  0.21771500890E+03 -0.19201726525E+02  0.90142971407E+03  0.10101208150E+04  0.40000000000E+03 0.  1.
   -9000007    1    1    2    0  503 -0.21771500890E+03  0.19201726525E+02 -0.97073138328E+02  0.46603833060E+03  0.40000000000E+03 0.  1.
<mgrwt>
<rscale>  2 0.45581634E+03</rscale>
<asrwt>0</asrwt>
<pdfrwt beam="1">  1       21 0.17542428E+00 0.45581634E+03</pdfrwt>
<pdfrwt beam="2">  1       21 0.51677121E-01 0.45581634E+03</pdfrwt>
<totfact> 0.57647582E+02</totfact>
</mgrwt>
</event>
<event>
 4    1  0.4656600E-002  0.4134779E+03  0.7818608E-02  0.1039210E+00
         21   -1    0    0  501  502  0.00000000000E+00  0.00000000000E+00  0.48016170168E+03  0.48016170168E+03  0.00000000000E+00 0.  1.
         21   -1    0    0  502  503 -0.00000000000E+00 -0.00000000000E+00 -0.44084524837E+03  0.44084524837E+03  0.00000000000E+00 0.  1.
    9000007    1    1    2  501    0  0.26627679105E+02 -0.10126652204E+03  0.22161710916E+03  0.46912480733E+03  0.40000000000E+03 0.  1.
   -9000007    1    1    2    0  503 -0.26627679105E+02  0.10126652204E+03 -0.18230065586E+03  0.45188214272E+03  0.40000000000E+03 0.  1.
<mgrwt>
<rscale>  2 0.41347786E+03</rscale>
<asrwt>0</asrwt>
<pdfrwt beam="1">  1       21 0.73871031E-01 0.41347786E+03</pdfrwt>
<pdfrwt beam="2">  1       21 0.67822346E-01 0.41347786E+03</pdfrwt>
<totfact> 0.28803322E+03</totfact>
</mgrwt>
</event>
<event>
 4    1  0.4656600E-002  0.4538975E+03  0.7818608E-02  0.1026566E+00
         21   -1    0    0  501  502  0.00000000000E+00  0.00000000000E+00  0.16192377660E+04  0.16192377660E+04  0.00000000000E+00 0.  1.
         21   -1    0    0  502  503 -0.00000000000E+00 -0.00000000000E+00 -0.20425445430E+03  0.20425445430E+03  0.00000000000E+00 0.  1.
    9000007    1    1    2  501    0 -0.38041637656E+02 -0.21112976240E+03  0.12673649059E+04  0.13461934287E+04  0.40000000000E+03 0.  1.
   -9000007    1    1    2    0  503  0.38041637656E+02  0.21112976240E+03  0.14761840585E+03  0.47729879165E+03  0.40000000000E+03 0.  1.
<mgrwt>
<rscale>  2 0.45389750E+03</rscale>
<asrwt>0</asrwt>
<pdfrwt beam="1">  1       21 0.24911349E+00 0.45389750E+03</pdfrwt>
<pdfrwt beam="2">  1       21 0.31423763E-01 0.45389750E+03</pdfrwt>
<totfact> 0.53068037E+02</totfact>
</mgrwt>
</event>
<event>
 4    1  0.4656600E-002  0.4546894E+03  0.7818608E-02  0.1026333E+00
         21   -1    0    0  501  502  0.00000000000E+00  0.00000000000E+00  0.62212916075E+03  0.62212916075E+03  0.00000000000E+00 0. -1.
         21   -1    0    0  502  503 -0.00000000000E+00 -0.00000000000E+00 -0.56964301701E+03  0.56964301701E+03  0.00000000000E+00 0. -1.
    9000007    1    1    2  501    0 -0.19496579755E+03  0.93438665490E+02  0.41086758514E+03  0.61282511285E+03  0.40000000000E+03 0. -1.
   -9000007    1    1    2    0  503  0.19496579755E+03 -0.93438665490E+02 -0.35838144140E+03  0.57894706491E+03  0.40000000000E+03 0. -1.
<mgrwt>
<rscale>  2 0.45468940E+03</rscale>
<asrwt>0</asrwt>
<pdfrwt beam="1">  1       21 0.95712179E-01 0.45468940E+03</pdfrwt>
<pdfrwt beam="2">  1       21 0.87637387E-01 0.45468940E+03</pdfrwt>
<totfact> 0.86012091E+02</totfact>
</mgrwt>
</event>
<event>
 4    1  0.4656600E-002  0.4947924E+03  0.7818608E-02  0.1015147E+00
         21   -1    0    0  501  502  0.00000000000E+00  0.00000000000E+00  0.49232470362E+03  0.49232470362E+03  0.00000000000E+00 0. -1.
         21   -1    0    0  502  503 -0.00000000000E+00 -0.00000000000E+00 -0.63756528548E+03  0.63756528548E+03  0.00000000000E+00 0. -1.
    9000007    1    1    2  501    0  0.10968145801E+03 -0.26979528826E+03  0.19238927731E+03  0.53087960389E+03  0.40000000000E+03 0.  1.
   -9000007    1    1    2    0  503 -0.10968145801E+03  0.26979528826E+03 -0.33762985917E+03  0.59901038522E+03  0.40000000000E+03 0.  1.
<mgrwt>
<rscale>  2 0.49479240E+03</rscale>
<asrwt>0</asrwt>
<pdfrwt beam="1">  1       21 0.75742262E-01 0.49479240E+03</pdfrwt>
<pdfrwt beam="2">  1       21 0.98086967E-01 0.49479240E+03</pdfrwt>
<totfact> 0.11198526E+03</totfact>
</mgrwt>
</event>
<event>
 4    1  0.4656600E-002  0.7058236E+03  0.7818608E-02  0.9707325E-01
         21   -1    0    0  503  502  0.00000000000E+00  0.00000000000E+00  0.14933920124E+04  0.14933920124E+04  0.00000000000E+00 0. -1.
         21   -1    0    0  501  503 -0.00000000000E+00 -0.00000000000E+00 -0.95154406078E+03  0.95154406078E+03  0.00000000000E+00 0.  1.
    9000007    1    1    2  501    0  0.58138342548E+03 -0.13428603663E+02 -0.71421988833E+03  0.10041399622E+04  0.40000000000E+03 0.  1.
   -9000007    1    1    2    0  502 -0.58138342548E+03  0.13428603663E+02  0.12560678399E+04  0.14407961109E+04  0.40000000000E+03 0. -1.
<mgrwt>
<rscale>  2 0.70582364E+03</rscale>
<asrwt>0</asrwt>
<pdfrwt beam="1">  1       21 0.22975262E+00 0.70582364E+03</pdfrwt>
<pdfrwt beam="2">  1       21 0.14639139E+00 0.70582364E+03</pdfrwt>
<totfact> 0.18526667E+01</totfact>
</mgrwt>
</event>
<event>
 4    1  0.4656600E-002  0.5083369E+03  0.7818608E-02  0.1011625E+00
         21   -1    0    0  501  502  0.00000000000E+00  0.00000000000E+00  0.74110251785E+03  0.74110251785E+03  0.00000000000E+00 0.  1.
         21   -1    0    0  502  503 -0.00000000000E+00 -0.00000000000E+00 -0.49815661560E+03  0.49815661560E+03  0.00000000000E+00 0.  1.
    9000007    1    1    2  501    0 -0.23496381779E+03 -0.20784238706E+03  0.46089348156E+03  0.68616998978E+03  0.40000000000E+03 0.  1.
   -9000007    1    1    2    0  503  0.23496381779E+03  0.20784238706E+03 -0.21794757931E+03  0.55308914368E+03  0.40000000000E+03 0.  1.
<mgrwt>
<rscale>  2 0.50833695E+03</rscale>
<asrwt>0</asrwt>
<pdfrwt beam="1">  1       21 0.11401577E+00 0.50833695E+03</pdfrwt>
<pdfrwt beam="2">  1       21 0.76639479E-01 0.50833695E+03</pdfrwt>
<totfact> 0.74800041E+02</totfact>
</mgrwt>
</event>
<event>
 4    1  0.4656600E-002  0.4005160E+03  0.7818608E-02  0.1043601E+00
         21   -1    0    0  503  502  0.00000000000E+00  0.00000000000E+00  0.11113732726E+04  0.11113732726E+04  0.00000000000E+00 0. -1.
         21   -1    0    0  501  503 -0.00000000000E+00 -0.00000000000E+00 -0.15660196893E+03  0.15660196893E+03  0.00000000000E+00 0. -1.
    9000007    1    1    2  501    0 -0.23002552862E+01  0.20193367275E+02  0.29996548572E+03  0.50039220206E+03  0.40000000000E+03 0. -1.
   -9000007    1    1    2    0  502  0.23002552862E+01 -0.20193367275E+02  0.65480581796E+03  0.76758303947E+03  0.40000000000E+03 0. -1.
<mgrwt>
<rscale>  2 0.40051600E+03</rscale>
<asrwt>0</asrwt>
<pdfrwt beam="1">  1       21 0.17098050E+00 0.40051600E+03</pdfrwt>
<pdfrwt beam="2">  1       21 0.24092611E-01 0.40051600E+03</pdfrwt>
<totfact> 0.29903835E+03</totfact>
</mgrwt>
</event>
<event>
 4    1  0.4656600E-002  0.4496992E+03  0.7818608E-02  0.1027812E+00
         21   -1    0    0  503  502  0.00000000000E+00  0.00000000000E+00  0.82481377483E+03  0.82481377483E+03  0.00000000000E+00 0.  1.
         21   -1    0    0  501  503 -0.00000000000E+00 -0.00000000000E+00 -0.36629853107E+03  0.36629853107E+03  0.00000000000E+00 0.  1.
    9000007    1    1    2  501    0 -0.20464393695E+03 -0.18714411626E+02 -0.11320020916E+03  0.46372799946E+03  0.40000000000E+03 0.  1.
   -9000007    1    1    2    0  502  0.20464393695E+03  0.18714411626E+02  0.57171545292E+03  0.72738430643E+03  0.40000000000E+03 0.  1.
<mgrwt>
<rscale>  2 0.44969920E+03</rscale>
<asrwt>0</asrwt>
<pdfrwt beam="1">  1       21 0.12689443E+00 0.44969920E+03</pdfrwt>
<pdfrwt beam="2">  1       21 0.56353621E-01 0.44969920E+03</pdfrwt>
<totfact> 0.11575261E+03</totfact>
</mgrwt>
</event>
<event>
 4    1  0.4656600E-002  0.4862491E+03  0.7818608E-02  0.1017432E+00
         21   -1    0    0  503  502  0.00000000000E+00  0.00000000000E+00  0.69085362072E+03  0.69085362072E+03  0.00000000000E+00 0.  1.
         21   -1    0    0  501  503 -0.00000000000E+00 -0.00000000000E+00 -0.97045040656E+03  0.97045040656E+03  0.00000000000E+00 0. -1.
    9000007    1    1    2  501    0  0.26942793431E+03  0.62022335957E+02 -0.80811890811E+03  0.94313008200E+03  0.40000000000E+03 0. -1.
   -9000007    1    1    2    0  502 -0.26942793431E+03 -0.62022335957E+02  0.52852212227E+03  0.71817394527E+03  0.40000000000E+03 0.  1.
<mgrwt>
<rscale>  2 0.48624909E+03</rscale>
<asrwt>0</asrwt>
<pdfrwt beam="1">  1       21 0.10628517E+00 0.48624909E+03</pdfrwt>
<pdfrwt beam="2">  1       21 0.14930006E+00 0.48624909E+03</pdfrwt>
<totfact> 0.17153192E+02</totfact>
</mgrwt>
</event>
<event>
 4    1  0.4656600E-002  0.4159785E+03  0.7818608E-02  0.1038383E+00
         21   -1    0    0  501  502  0.00000000000E+00  0.00000000000E+00  0.37739018311E+03  0.37739018311E+03  0.00000000000E+00 0.  1.
         21   -1    0    0  502  503 -0.00000000000E+00 -0.00000000000E+00 -0.53416990548E+03  0.53416990548E+03  0.00000000000E+00 0.  1.
    9000007    1    1    2  501    0 -0.47732122569E+02  0.10372905027E+03  0.93140760491E+02  0.42627839807E+03  0.40000000000E+03 0.  1.
   -9000007    1    1    2    0  503  0.47732122569E+02 -0.10372905027E+03 -0.24992048287E+03  0.48528169052E+03  0.40000000000E+03 0.  1.
<mgrwt>
<rscale>  2 0.41597845E+03</rscale>
<asrwt>0</asrwt>
<pdfrwt beam="1">  1       21 0.58060029E-01 0.41597845E+03</pdfrwt>
<pdfrwt beam="2">  1       21 0.82179985E-01 0.41597845E+03</pdfrwt>
<totfact> 0.31743844E+03</totfact>
</mgrwt>
</event>
<event>
 4    1  0.4656600E-002  0.6461780E+03  0.7818608E-02  0.9813977E-01
         21   -1    0    0  501  502  0.00000000000E+00  0.00000000000E+00  0.14774911980E+04  0.14774911980E+04  0.00000000000E+00 0.  1.
         21   -1    0    0  502  503 -0.00000000000E+00 -0.00000000000E+00 -0.35216176100E+03  0.35216176100E+03  0.00000000000E+00 0. -1.
    9000007    1    1    2  501    0 -0.47967485555E+03 -0.16570467484E+03  0.96923734497E+03  0.11648892811E+04  0.40000000000E+03 0. -1.
   -9000007    1    1    2    0  503  0.47967485555E+03  0.16570467484E+03  0.15609209204E+03  0.66476367794E+03  0.40000000000E+03 0. -1.
<mgrwt>
<rscale>  2 0.64617800E+03</rscale>
<asrwt>0</asrwt>
<pdfrwt beam="1">  1       21 0.22730634E+00 0.64617800E+03</pdfrwt>
<pdfrwt beam="2">  1       21 0.54178733E-01 0.64617800E+03</pdfrwt>
<totfact> 0.21543973E+02</totfact>
</mgrwt>
</event>
<event>
 4    1  0.4656600E-002  0.4873488E+03  0.7818608E-02  0.1017135E+00
         21   -1    0    0  501  502  0.00000000000E+00  0.00000000000E+00  0.78592389121E+03  0.78592389121E+03  0.00000000000E+00 0.  1.
         21   -1    0    0  502  503 -0.00000000000E+00 -0.00000000000E+00 -0.35799287592E+03  0.35799287592E+03  0.00000000000E+00 0.  1.
    9000007    1    1    2  501    0 -0.22922425599E+03 -0.15800357088E+03  0.43975477803E+03  0.65642452174E+03  0.40000000000E+03 0.  1.
   -9000007    1    1    2    0  503  0.22922425599E+03  0.15800357088E+03 -0.11823762735E+02  0.48749224539E+03  0.40000000000E+03 0.  1.
<mgrwt>
<rscale>  2 0.48734884E+03</rscale>
<asrwt>0</asrwt>
<pdfrwt beam="1">  1       21 0.12091137E+00 0.48734884E+03</pdfrwt>
<pdfrwt beam="2">  1       21 0.55075827E-01 0.48734884E+03</pdfrwt>
<totfact> 0.13569573E+03</totfact>
</mgrwt>
</event>
<event>
 4    1  0.4656600E-002  0.4096031E+03  0.7818608E-02  0.1040504E+00
         21   -1    0    0  503  502  0.00000000000E+00  0.00000000000E+00  0.32683490295E+03  0.32683490295E+03  0.00000000000E+00 0.  1.
         21   -1    0    0  501  503 -0.00000000000E+00 -0.00000000000E+00 -0.52650522885E+03  0.52650522885E+03  0.00000000000E+00 0.  1.
    9000007    1    1    2  501    0  0.13067892061E+02 -0.87200631219E+02 -0.16732551845E+03  0.44246191815E+03  0.40000000000E+03 0.  1.
   -9000007    1    1    2    0  502 -0.13067892061E+02  0.87200631219E+02 -0.32344807447E+02  0.41087821366E+03  0.40000000000E+03 0.  1.
<mgrwt>
<rscale>  2 0.40960312E+03</rscale>
<asrwt>0</asrwt>
<pdfrwt beam="1">  1       21 0.50282293E-01 0.40960312E+03</pdfrwt>
<pdfrwt beam="2">  1       21 0.81000804E-01 0.40960312E+03</pdfrwt>
<totfact> 0.44817733E+03</totfact>
</mgrwt>
</event>
<event>
 4    1  0.4656600E-002  0.4544978E+03  0.7818608E-02  0.1026389E+00
         21   -1    0    0  503  502  0.00000000000E+00  0.00000000000E+00  0.11001146433E+04  0.11001146433E+04  0.00000000000E+00 0.  1.
         21   -1    0    0  501  503 -0.00000000000E+00 -0.00000000000E+00 -0.42396008332E+03  0.42396008332E+03  0.00000000000E+00 0.  1.
    9000007    1    1    2  501    0  0.21465176274E+03  0.22201013658E+02 -0.23070339220E+03  0.50969826312E+03  0.40000000000E+03 0.  1.
   -9000007    1    1    2    0  502 -0.21465176274E+03 -0.22201013658E+02  0.90685795218E+03  0.10143764635E+04  0.40000000000E+03 0.  1.
<mgrwt>
<rscale>  2 0.45449782E+03</rscale>
<asrwt>0</asrwt>
<pdfrwt beam="1">  1       21 0.16924841E+00 0.45449782E+03</pdfrwt>
<pdfrwt beam="2">  1       21 0.65224629E-01 0.45449782E+03</pdfrwt>
<totfact> 0.38478672E+02</totfact>
</mgrwt>
</event>
<event>
 4    1  0.4656600E-002  0.4311368E+03  0.7818608E-02  0.1033501E+00
         21   -1    0    0  501  502  0.00000000000E+00  0.00000000000E+00  0.10952171241E+04  0.10952171241E+04  0.00000000000E+00 0. -1.
         21   -1    0    0  502  503 -0.00000000000E+00 -0.00000000000E+00 -0.22547082356E+03  0.22547082356E+03  0.00000000000E+00 0. -1.
    9000007    1    1    2  501    0 -0.15844852590E+03  0.27803388429E+02  0.76323694226E+03  0.87658975228E+03  0.40000000000E+03 0. -1.
   -9000007    1    1    2    0  503  0.15844852590E+03 -0.27803388429E+02  0.10650935832E+03  0.44409819542E+03  0.40000000000E+03 0. -1.
<mgrwt>
<rscale>  2 0.43113683E+03</rscale>
<asrwt>0</asrwt>
<pdfrwt beam="1">  1       21 0.16849494E+00 0.43113683E+03</pdfrwt>
<pdfrwt beam="2">  1       21 0.34687820E-01 0.43113683E+03</pdfrwt>
<totfact> 0.14970083E+03</totfact>
</mgrwt>
</event>
<event>
 4    1  0.4656600E-002  0.4944055E+03  0.7818608E-02  0.1015250E+00
         21   -1    0    0  501  502  0.00000000000E+00  0.00000000000E+00  0.14982505164E+04  0.14982505164E+04  0.00000000000E+00 0. -1.
         21   -1    0    0  502  503 -0.00000000000E+00 -0.00000000000E+00 -0.18234335701E+03  0.18234335701E+03  0.00000000000E+00 0. -1.
    9000007    1    1    2  501    0  0.27142131736E+03  0.10376547183E+03  0.38531697030E+03  0.62682212171E+03  0.40000000000E+03 0. -1.
   -9000007    1    1    2    0  503 -0.27142131736E+03 -0.10376547183E+03  0.93059018912E+03  0.10537717517E+04  0.40000000000E+03 0. -1.
<mgrwt>
<rscale>  2 0.49440551E+03</rscale>
<asrwt>0</asrwt>
<pdfrwt beam="1">  1       21 0.23050007E+00 0.49440551E+03</pdfrwt>
<pdfrwt beam="2">  1       21 0.28052825E-01 0.49440551E+03</pdfrwt>
<totfact> 0.85134031E+02</totfact>
</mgrwt>
</event>
<event>
 4    1  0.4656600E-002  0.4197276E+03  0.7818608E-02  0.1037155E+00
         21   -1    0    0  501  502  0.00000000000E+00  0.00000000000E+00  0.53753495621E+03  0.53753495621E+03  0.00000000000E+00 0.  1.
         21   -1    0    0  502  503 -0.00000000000E+00 -0.00000000000E+00 -0.32810883750E+03  0.32810883750E+03  0.00000000000E+00 0.  1.
    9000007    1    1    2  501    0 -0.78741900901E+02  0.99854914566E+02  0.11923994563E+03  0.43633640182E+03  0.40000000000E+03 0.  1.
   -9000007    1    1    2    0  503  0.78741900901E+02 -0.99854914566E+02  0.90186173082E+02  0.42930739190E+03  0.40000000000E+03 0.  1.
<mgrwt>
<rscale>  2 0.41972764E+03</rscale>
<asrwt>0</asrwt>
<pdfrwt beam="1">  1       21 0.82697686E-01 0.41972764E+03</pdfrwt>
<pdfrwt beam="2">  1       21 0.50478283E-01 0.41972764E+03</pdfrwt>
<totfact> 0.42209077E+03</totfact>
</mgrwt>
</event>
<event>
 4    1  0.4656600E-002  0.4123537E+03  0.7818608E-02  0.1039584E+00
         21   -1    0    0  503  502  0.00000000000E+00  0.00000000000E+00  0.98239045646E+03  0.98239045646E+03  0.00000000000E+00 0.  1.
         21   -1    0    0  501  503 -0.00000000000E+00 -0.00000000000E+00 -0.19276818688E+03  0.19276818688E+03  0.00000000000E+00 0. -1.
    9000007    1    1    2  501    0 -0.78623967804E+02 -0.62079493070E+02  0.20704687501E+03  0.46141521456E+03  0.40000000000E+03 0. -1.
   -9000007    1    1    2    0  502  0.78623967804E+02  0.62079493070E+02  0.58257539457E+03  0.71374342878E+03  0.40000000000E+03 0.  1.
<mgrwt>
<rscale>  2 0.41235372E+03</rscale>
<asrwt>0</asrwt>
<pdfrwt beam="1">  1       21 0.15113699E+00 0.41235372E+03</pdfrwt>
<pdfrwt beam="2">  1       21 0.29656645E-01 0.41235372E+03</pdfrwt>
<totfact> 0.27913885E+03</totfact>
</mgrwt>
</event>
<event>
 4    1  0.4656600E-002  0.4225464E+03  0.7818608E-02  0.1036241E+00
         21   -1    0    0  501  502  0.00000000000E+00  0.00000000000E+00  0.26501679118E+03  0.26501679118E+03  0.00000000000E+00 0. -1.
         21   -1    0    0  502  503 -0.00000000000E+00 -0.00000000000E+00 -0.86877310644E+03  0.86877310644E+03  0.00000000000E+00 0. -1.
    9000007    1    1    2  501    0  0.13434680279E+03 -0.22280908965E+02 -0.33261709127E+02  0.42385356389E+03  0.40000000000E+03 0. -1.
   -9000007    1    1    2    0  503 -0.13434680279E+03  0.22280908965E+02 -0.57049460613E+03  0.70993633373E+03  0.40000000000E+03 0. -1.
<mgrwt>
<rscale>  2 0.42254645E+03</rscale>
<asrwt>0</asrwt>
<pdfrwt beam="1">  1       21 0.40771815E-01 0.42254645E+03</pdfrwt>
<pdfrwt beam="2">  1       21 0.13365740E+00 0.42254645E+03</pdfrwt>
<totfact> 0.20275899E+03</totfact>
</mgrwt>
</event>
<event>
 4    1  0.4656600E-002  0.4022545E+03  0.7818608E-02  0.1043002E+00
         21   -1    0    0  501  502  0.00000000000E+00  0.00000000000E+00  0.38592281058E+03  0.38592281058E+03  0.00000000000E+00 0. -1.
         21   -1    0    0  502  503 -0.00000000000E+00 -0.00000000000E+00 -0.10441475145E+04  0.10441475145E+04  0.00000000000E+00 0.  1.
    9000007    1    1    2  501    0  0.24940435281E+02  0.34447622974E+02  0.22403570418E+03  0.46043529490E+03  0.40000000000E+03 0. -1.
   -9000007    1    1    2    0  503 -0.24940435281E+02 -0.34447622974E+02 -0.88226040806E+03  0.96963503014E+03  0.40000000000E+03 0.  1.
<mgrwt>
<rscale>  2 0.40225448E+03</rscale>
<asrwt>0</asrwt>
<pdfrwt beam="1">  1       21 0.59372742E-01 0.40225448E+03</pdfrwt>
<pdfrwt beam="2">  1       21 0.16063807E+00 0.40225448E+03</pdfrwt>
<totfact> 0.56265057E+02</totfact>
</mgrwt>
</event>
<event>
 4    1  0.4656600E-002  0.5069799E+03  0.7818608E-02  0.1011973E+00
         21   -1    0    0  503  502  0.00000000000E+00  0.00000000000E+00  0.11500418373E+04  0.11500418373E+04  0.00000000000E+00 0.  1.
         21   -1    0    0  501  503 -0.00000000000E+00 -0.00000000000E+00 -0.30601386908E+03  0.30601386908E+03  0.00000000000E+00 0. -1.
    9000007    1    1    2  501    0  0.19478529014E+03 -0.24307880969E+03  0.43959811379E+02  0.50888218871E+03  0.40000000000E+03 0. -1.
   -9000007    1    1    2    0  502 -0.19478529014E+03  0.24307880969E+03  0.80006815688E+03  0.94717351770E+03  0.40000000000E+03 0.  1.
<mgrwt>
<rscale>  2 0.50697990E+03</rscale>
<asrwt>0</asrwt>
<pdfrwt beam="1">  1       21 0.17692951E+00 0.50697990E+03</pdfrwt>
<pdfrwt beam="2">  1       21 0.47079057E-01 0.50697990E+03</pdfrwt>
<totfact> 0.67043699E+02</totfact>
</mgrwt>
</event>
<event>
 4    1  0.4656600E-002  0.4895619E+03  0.7818608E-02  0.1016540E+00
         21   -1    0    0  501  502  0.00000000000E+00  0.00000000000E+00  0.47235802217E+03  0.47235802217E+03  0.00000000000E+00 0.  1.
         21   -1    0    0  502  503 -0.00000000000E+00 -0.00000000000E+00 -0.54700839703E+03  0.54700839703E+03  0.00000000000E+00 0. -1.
    9000007    1    1    2  501    0 -0.11214826019E+03 -0.25902444309E+03  0.99838246351E+02  0.49963843909E+03  0.40000000000E+03 0. -1.
   -9000007    1    1    2    0  503  0.11214826019E+03  0.25902444309E+03 -0.17448862121E+03  0.51972798011E+03  0.40000000000E+03 0. -1.
<mgrwt>
<rscale>  2 0.48956194E+03</rscale>
<asrwt>0</asrwt>
<pdfrwt beam="1">  1       21 0.72670465E-01 0.48956194E+03</pdfrwt>
<pdfrwt beam="2">  1       21 0.84155138E-01 0.48956194E+03</pdfrwt>
<totfact> 0.17754006E+03</totfact>
</mgrwt>
</event>
<event>
 4    1  0.4656600E-002  0.4195198E+03  0.7818608E-02  0.1037223E+00
         21   -1    0    0  501  502  0.00000000000E+00  0.00000000000E+00  0.10059945083E+04  0.10059945083E+04  0.00000000000E+00 0. -1.
         21   -1    0    0  502  503 -0.00000000000E+00 -0.00000000000E+00 -0.25795608896E+03  0.25795608896E+03  0.00000000000E+00 0. -1.
    9000007    1    1    2  501    0 -0.45601515606E+02 -0.11797178908E+03  0.73251752834E+03  0.84414380918E+03  0.40000000000E+03 0. -1.
   -9000007    1    1    2    0  503  0.45601515606E+02  0.11797178908E+03  0.15520890971E+02  0.41980678806E+03  0.40000000000E+03 0. -1.
<mgrwt>
<rscale>  2 0.41951977E+03</rscale>
<asrwt>0</asrwt>
<pdfrwt beam="1">  1       21 0.15476838E+00 0.41951977E+03</pdfrwt>
<pdfrwt beam="2">  1       21 0.39685553E-01 0.41951977E+03</pdfrwt>
<totfact> 0.14499648E+03</totfact>
</mgrwt>
</event>
<event>
 4    1  0.4656600E-002  0.4198247E+03  0.7818608E-02  0.1037123E+00
         21   -1    0    0  501  502  0.00000000000E+00  0.00000000000E+00  0.26296326484E+03  0.26296326484E+03  0.00000000000E+00 0. -1.
         21   -1    0    0  502  503 -0.00000000000E+00 -0.00000000000E+00 -0.73901357672E+03  0.73901357672E+03  0.00000000000E+00 0. -1.
    9000007    1    1    2  501    0  0.11648135894E+03  0.51815461068E+02 -0.85211824064E+02  0.42838511172E+03  0.40000000000E+03 0. -1.
   -9000007    1    1    2    0  503 -0.11648135894E+03 -0.51815461068E+02 -0.39083848782E+03  0.57359172984E+03  0.40000000000E+03 0. -1.
<mgrwt>
<rscale>  2 0.41982466E+03</rscale>
<asrwt>0</asrwt>
<pdfrwt beam="1">  1       21 0.40455887E-01 0.41982466E+03</pdfrwt>
<pdfrwt beam="2">  1       21 0.11369440E+00 0.41982466E+03</pdfrwt>
<totfact> 0.31171765E+03</totfact>
</mgrwt>
</event>
<event>
 4    1  0.4656600E-002  0.4154917E+03  0.7818608E-02  0.1038544E+00
         21   -1    0    0  503  502  0.00000000000E+00  0.00000000000E+00  0.50931103069E+03  0.50931103069E+03  0.00000000000E+00 0. -1.
         21   -1    0    0  501  503 -0.00000000000E+00 -0.00000000000E+00 -0.35146051943E+03  0.35146051943E+03  0.00000000000E+00 0. -1.
    9000007    1    1    2  501    0  0.85365328430E+02 -0.73117029905E+02 -0.22599089619E+01  0.41549782978E+03  0.40000000000E+03 0. -1.
   -9000007    1    1    2    0  502 -0.85365328430E+02  0.73117029905E+02  0.16011042023E+03  0.44527372034E+03  0.40000000000E+03 0. -1.
<mgrwt>
<rscale>  2 0.41549168E+03</rscale>
<asrwt>0</asrwt>
<pdfrwt beam="1">  1       21 0.78355543E-01 0.41549168E+03</pdfrwt>
<pdfrwt beam="2">  1       21 0.54070849E-01 0.41549168E+03</pdfrwt>
<totfact> 0.41335143E+03</totfact>
</mgrwt>
</event>
<event>
 4    1  0.4656600E-002  0.4064203E+03  0.7818608E-02  0.1041579E+00
         21   -1    0    0  503  502  0.00000000000E+00  0.00000000000E+00  0.89722914295E+03  0.89722914295E+03  0.00000000000E+00 0.  1.
         21   -1    0    0  501  503 -0.00000000000E+00 -0.00000000000E+00 -0.46309897716E+03  0.46309897716E+03  0.00000000000E+00 0.  1.
    9000007    1    1    2  501    0  0.70651810919E+02  0.13630761899E+02 -0.31086956406E+03  0.51168091807E+03  0.40000000000E+03 0.  1.
   -9000007    1    1    2    0  502 -0.70651810919E+02 -0.13630761899E+02  0.74499972985E+03  0.84864720205E+03  0.40000000000E+03 0.  1.
<mgrwt>
<rscale>  2 0.40642032E+03</rscale>
<asrwt>0</asrwt>
<pdfrwt beam="1">  1       21 0.13803525E+00 0.40642032E+03</pdfrwt>
<pdfrwt beam="2">  1       21 0.71245996E-01 0.40642032E+03</pdfrwt>
<totfact> 0.56471979E+02</totfact>
</mgrwt>
</event>
<event>
 4    1  0.4656600E-002  0.4400332E+03  0.7818608E-02  0.1030737E+00
         21   -1    0    0  501  502  0.00000000000E+00  0.00000000000E+00  0.63095471148E+03  0.63095471148E+03  0.00000000000E+00 0. -1.
         21   -1    0    0  502  503 -0.00000000000E+00 -0.00000000000E+00 -0.41201680524E+03  0.41201680524E+03  0.00000000000E+00 0. -1.
    9000007    1    1    2  501    0  0.16313577195E+03  0.83761412554E+02  0.37289350257E+03  0.57678316426E+03  0.40000000000E+03 0. -1.
   -9000007    1    1    2    0  503 -0.16313577195E+03 -0.83761412554E+02 -0.15395559632E+03  0.46618835245E+03  0.40000000000E+03 0. -1.
<mgrwt>
<rscale>  2 0.44003324E+03</rscale>
<asrwt>0</asrwt>
<pdfrwt beam="1">  1       21 0.97069956E-01 0.44003324E+03</pdfrwt>
<pdfrwt beam="2">  1       21 0.63387201E-01 0.44003324E+03</pdfrwt>
<totfact> 0.17505881E+03</totfact>
</mgrwt>
</event>
<event>
 4    1  0.4656600E-002  0.4350635E+03  0.7818608E-02  0.1032272E+00
         21   -1    0    0  501  502  0.00000000000E+00  0.00000000000E+00  0.42885054669E+03  0.42885054669E+03  0.00000000000E+00 0. -1.
         21   -1    0    0  502  503 -0.00000000000E+00 -0.00000000000E+00 -0.46178171916E+03  0.46178171916E+03  0.00000000000E+00 0. -1.
    9000007    1    1    2  501    0 -0.16216444303E+03  0.54616600536E+02  0.77166934723E+02  0.44185406579E+03  0.40000000000E+03 0. -1.
   -9000007    1    1    2    0  503  0.16216444303E+03 -0.54616600536E+02 -0.11009810720E+03  0.44877820006E+03  0.40000000000E+03 0. -1.
<mgrwt>
<rscale>  2 0.43506354E+03</rscale>
<asrwt>0</asrwt>
<pdfrwt beam="1">  1       21 0.65977008E-01 0.43506354E+03</pdfrwt>
<pdfrwt beam="2">  1       21 0.71043341E-01 0.43506354E+03</pdfrwt>
<totfact> 0.33192196E+03</totfact>
</mgrwt>
</event>
<event>
 4    1  0.4656600E-002  0.5302277E+03  0.7818608E-02  0.1006177E+00
         21   -1    0    0  503  502  0.00000000000E+00  0.00000000000E+00  0.67577391652E+03  0.67577391652E+03  0.00000000000E+00 0. -1.
         21   -1    0    0  501  503 -0.00000000000E+00 -0.00000000000E+00 -0.54440318657E+03  0.54440318657E+03  0.00000000000E+00 0. -1.
    9000007    1    1    2  501    0  0.34493177352E+03 -0.46513703638E+02 -0.23057368993E+03  0.57819173247E+03  0.40000000000E+03 0.  1.
   -9000007    1    1    2    0  502 -0.34493177352E+03  0.46513703638E+02  0.36194441987E+03  0.64198537062E+03  0.40000000000E+03 0.  1.
<mgrwt>
<rscale>  2 0.53022774E+03</rscale>
<asrwt>0</asrwt>
<pdfrwt beam="1">  1       21 0.10396522E+00 0.53022774E+03</pdfrwt>
<pdfrwt beam="2">  1       21 0.83754336E-01 0.53022774E+03</pdfrwt>
<totfact> 0.75976903E+02</totfact>
</mgrwt>
</event>
<event>
 4    1  0.4656600E-002  0.4045434E+03  0.7818608E-02  0.1042218E+00
         21   -1    0    0  501  502  0.00000000000E+00  0.00000000000E+00  0.51973527761E+03  0.51973527761E+03  0.00000000000E+00 0.  1.
         21   -1    0    0  502  503 -0.00000000000E+00 -0.00000000000E+00 -0.45591936247E+03  0.45591936247E+03  0.00000000000E+00 0.  1.
    9000007    1    1    2  501    0  0.58267609239E+02  0.16132418906E+02  0.30323241034E+03  0.50557419229E+03  0.40000000000E+03 0. -1.
   -9000007    1    1    2    0  503 -0.58267609239E+02 -0.16132418906E+02 -0.23941649520E+03  0.47008044780E+03  0.40000000000E+03 0. -1.
<mgrwt>
<rscale>  2 0.40454341E+03</rscale>
<asrwt>0</asrwt>
<pdfrwt beam="1">  1       21 0.79959274E-01 0.40454341E+03</pdfrwt>
<pdfrwt beam="2">  1       21 0.70141440E-01 0.40454341E+03</pdfrwt>
<totfact> 0.22367994E+03</totfact>
</mgrwt>
</event>
<event>
 4    1  0.4656600E-002  0.4182386E+03  0.7818608E-02  0.1037641E+00
         21   -1    0    0  503  502  0.00000000000E+00  0.00000000000E+00  0.80753583901E+03  0.80753583901E+03  0.00000000000E+00 0. -1.
         21   -1    0    0  501  503 -0.00000000000E+00 -0.00000000000E+00 -0.32968890606E+03  0.32968890606E+03  0.00000000000E+00 0. -1.
    9000007    1    1    2  501    0  0.25108177619E+02  0.11955389097E+03 -0.94078878360E+02  0.42868915170E+03  0.40000000000E+03 0. -1.
   -9000007    1    1    2    0  502 -0.25108177619E+02 -0.11955389097E+03  0.57192581131E+03  0.70853559337E+03  0.40000000000E+03 0. -1.
<mgrwt>
<rscale>  2 0.41823863E+03</rscale>
<asrwt>0</asrwt>
<pdfrwt beam="1">  1       21 0.12423628E+00 0.41823863E+03</pdfrwt>
<pdfrwt beam="2">  1       21 0.50721370E-01 0.41823863E+03</pdfrwt>
<totfact> 0.15527604E+03</totfact>
</mgrwt>
</event>
<event>
 4    1  0.4656600E-002  0.4465903E+03  0.7818608E-02  0.1028744E+00
         21   -1    0    0  503  502  0.00000000000E+00  0.00000000000E+00  0.13416059619E+03  0.13416059619E+03  0.00000000000E+00 0.  1.
         21   -1    0    0  501  503 -0.00000000000E+00 -0.00000000000E+00 -0.18342761769E+04  0.18342761769E+04  0.00000000000E+00 0.  1.
    9000007    1    1    2  501    0  0.74268294347E+02  0.18419316962E+03 -0.12785546965E+04  0.13543061010E+04  0.40000000000E+03 0.  1.
   -9000007    1    1    2    0  502 -0.74268294347E+02 -0.18419316962E+03 -0.42156088418E+03  0.61413067205E+03  0.40000000000E+03 0.  1.
<mgrwt>
<rscale>  2 0.44659031E+03</rscale>
<asrwt>0</asrwt>
<pdfrwt beam="1">  1       21 0.20640091E-01 0.44659031E+03</pdfrwt>
<pdfrwt beam="2">  1       21 0.28219634E+00 0.44659031E+03</pdfrwt>
<totfact> 0.76168426E+02</totfact>
</mgrwt>
</event>
<event>
 4    1  0.4656600E-002  0.7513322E+03  0.7818608E-02  0.9633263E-01
         21   -1    0    0  503  502  0.00000000000E+00  0.00000000000E+00  0.65804073439E+03  0.65804073439E+03  0.00000000000E+00 0. -1.
         21   -1    0    0  501  503 -0.00000000000E+00 -0.00000000000E+00 -0.86993253523E+03  0.86993253523E+03  0.00000000000E+00 0.  1.
    9000007    1    1    2  501    0  0.44032100461E+03 -0.45893077669E+03 -0.19598423366E+03  0.77647270701E+03  0.40000000000E+03 0.  1.
   -9000007    1    1    2    0  502 -0.44032100461E+03  0.45893077669E+03 -0.15907567186E+02  0.75150056260E+03  0.40000000000E+03 0. -1.
<mgrwt>
<rscale>  2 0.75133218E+03</rscale>
<asrwt>0</asrwt>
<pdfrwt beam="1">  1       21 0.10123704E+00 0.75133218E+03</pdfrwt>
<pdfrwt beam="2">  1       21 0.13383577E+00 0.75133218E+03</pdfrwt>
<totfact> 0.23565769E+02</totfact>
</mgrwt>
</event>
<event>
 4    1  0.4656600E-002  0.4274173E+03  0.7818608E-02  0.1034679E+00
         21   -1    0    0  503  502  0.00000000000E+00  0.00000000000E+00  0.45782470148E+03  0.45782470148E+03  0.00000000000E+00 0.  1.
         21   -1    0    0  501  503 -0.00000000000E+00 -0.00000000000E+00 -0.59101045633E+03  0.59101045633E+03  0.00000000000E+00 0.  1.
    9000007    1    1    2  501    0 -0.77422429453E+02  0.12919474052E+03 -0.36548113497E+03  0.56237173967E+03  0.40000000000E+03 0.  1.
   -9000007    1    1    2    0  502  0.77422429453E+02 -0.12919474052E+03  0.23229538012E+03  0.48646341814E+03  0.40000000000E+03 0.  1.
<mgrwt>
<rscale>  2 0.42741726E+03</rscale>
<asrwt>0</asrwt>
<pdfrwt beam="1">  1       21 0.70434570E-01 0.42741726E+03</pdfrwt>
<pdfrwt beam="2">  1       21 0.90924686E-01 0.42741726E+03</pdfrwt>
<totfact> 0.16257578E+03</totfact>
</mgrwt>
</event>
<event>
 4    1  0.4656600E-002  0.4495380E+03  0.7818608E-02  0.1027860E+00
         21   -1    0    0  503  502  0.00000000000E+00  0.00000000000E+00  0.21917815141E+03  0.21917815141E+03  0.00000000000E+00 0.  1.
         21   -1    0    0  501  503 -0.00000000000E+00 -0.00000000000E+00 -0.11107303737E+04  0.11107303737E+04  0.00000000000E+00 0. -1.
    9000007    1    1    2  501    0  0.16154556421E+03  0.12644148524E+03 -0.71986851253E+03  0.84870200532E+03  0.40000000000E+03 0. -1.
   -9000007    1    1    2    0  502 -0.16154556421E+03 -0.12644148524E+03 -0.17168370978E+03  0.48120651981E+03  0.40000000000E+03 0.  1.
<mgrwt>
<rscale>  2 0.44953801E+03</rscale>
<asrwt>0</asrwt>
<pdfrwt beam="1">  1       21 0.33719715E-01 0.44953801E+03</pdfrwt>
<pdfrwt beam="2">  1       21 0.17088160E+00 0.44953801E+03</pdfrwt>
<totfact> 0.15108686E+03</totfact>
</mgrwt>
</event>
<event>
 4    1  0.4656600E-002  0.4729796E+03  0.7818608E-02  0.1021083E+00
         21   -1    0    0  503  502  0.00000000000E+00  0.00000000000E+00  0.38078049445E+03  0.38078049445E+03  0.00000000000E+00 0.  1.
         21   -1    0    0  501  503 -0.00000000000E+00 -0.00000000000E+00 -0.60793707841E+03  0.60793707841E+03  0.00000000000E+00 0. -1.
    9000007    1    1    2  501    0  0.24513194701E+03 -0.60166541582E+02 -0.20421214265E+03  0.51518179644E+03  0.40000000000E+03 0.  1.
   -9000007    1    1    2    0  502 -0.24513194701E+03  0.60166541582E+02 -0.22944441310E+02  0.47353577643E+03  0.40000000000E+03 0. -1.
<mgrwt>
<rscale>  2 0.47297958E+03</rscale>
<asrwt>0</asrwt>
<pdfrwt beam="1">  1       21 0.58581615E-01 0.47297958E+03</pdfrwt>
<pdfrwt beam="2">  1       21 0.93528781E-01 0.47297958E+03</pdfrwt>
<totfact> 0.22482923E+03</totfact>
</mgrwt>
</event>
<event>
 4    1  0.4656600E-002  0.4107667E+03  0.7818608E-02  0.1040114E+00
         21   -1    0    0  503  502  0.00000000000E+00  0.00000000000E+00  0.39233503250E+03  0.39233503250E+03  0.00000000000E+00 0. -1.
         21   -1    0    0  501  503 -0.00000000000E+00 -0.00000000000E+00 -0.58082798801E+03  0.58082798801E+03  0.00000000000E+00 0. -1.
    9000007    1    1    2  501    0 -0.79021163875E+02  0.49849295383E+02 -0.34214856915E+03  0.53459792364E+03  0.40000000000E+03 0. -1.
   -9000007    1    1    2    0  502  0.79021163875E+02 -0.49849295383E+02  0.15365561364E+03  0.43856509687E+03  0.40000000000E+03 0. -1.
<mgrwt>
<rscale>  2 0.41076672E+03</rscale>
<asrwt>0</asrwt>
<pdfrwt beam="1">  1       21 0.60359236E-01 0.41076672E+03</pdfrwt>
<pdfrwt beam="2">  1       21 0.89358152E-01 0.41076672E+03</pdfrwt>
<totfact> 0.24024739E+03</totfact>
</mgrwt>
</event>
<event>
 4    1  0.4656600E-002  0.4115496E+03  0.7818608E-02  0.1039852E+00
         21   -1    0    0  503  502  0.00000000000E+00  0.00000000000E+00  0.30465848838E+03  0.30465848838E+03  0.00000000000E+00 0.  1.
         21   -1    0    0  501  503 -0.00000000000E+00 -0.00000000000E+00 -0.11323234374E+04  0.11323234374E+04  0.00000000000E+00 0.  1.
    9000007    1    1    2  501    0 -0.96002970644E+02  0.12508866010E+02 -0.92644630752E+03  0.10137434601E+04  0.40000000000E+03 0.  1.
   -9000007    1    1    2    0  502  0.96002970644E+02 -0.12508866010E+02  0.98781358475E+02  0.42323846574E+03  0.40000000000E+03 0.  1.
<mgrwt>
<rscale>  2 0.41154956E+03</rscale>
<asrwt>0</asrwt>
<pdfrwt beam="1">  1       21 0.46870537E-01 0.41154956E+03</pdfrwt>
<pdfrwt beam="2">  1       21 0.17420360E+00 0.41154956E+03</pdfrwt>
<totfact> 0.73902633E+02</totfact>
</mgrwt>
</event>
<event>
 4    1  0.4656600E-002  0.4488440E+03  0.7818608E-02  0.1028067E+00
         21   -1    0    0  503  502  0.00000000000E+00  0.00000000000E+00  0.53431368206E+03  0.53431368206E+03  0.00000000000E+00 0.  1.
         21   -1    0    0  501  503 -0.00000000000E+00 -0.00000000000E+00 -0.38681585719E+03  0.38681585719E+03  0.00000000000E+00 0.  1.
    9000007    1    1    2  501    0 -0.18613915899E+03  0.82541835882E+02  0.55443147220E+00  0.44884434783E+03  0.40000000000E+03 0.  1.
   -9000007    1    1    2    0  502  0.18613915899E+03 -0.82541835882E+02  0.14694339340E+03  0.47228519143E+03  0.40000000000E+03 0.  1.
<mgrwt>
<rscale>  2 0.44884401E+03</rscale>
<asrwt>0</asrwt>
<pdfrwt beam="1">  1       21 0.82202105E-01 0.44884401E+03</pdfrwt>
<pdfrwt beam="2">  1       21 0.59510132E-01 0.44884401E+03</pdfrwt>
<totfact> 0.29700912E+03</totfact>
</mgrwt>
</event>
<event>
 4    1  0.4656600E-002  0.4181776E+03  0.7818608E-02  0.1037661E+00
         21   -1    0    0  503  502  0.00000000000E+00  0.00000000000E+00  0.22905855487E+03  0.22905855487E+03  0.00000000000E+00 0.  1.
         21   -1    0    0  501  503 -0.00000000000E+00 -0.00000000000E+00 -0.15411695608E+04  0.15411695608E+04  0.00000000000E+00 0. -1.
    9000007    1    1    2  501    0  0.18092277365E+02 -0.12060329301E+03 -0.12848204234E+04  0.13511609842E+04  0.40000000000E+03 0. -1.
   -9000007    1    1    2    0  502 -0.18092277365E+02  0.12060329301E+03 -0.27290582510E+02  0.41906713147E+03  0.40000000000E+03 0.  1.
<mgrwt>
<rscale>  2 0.41817758E+03</rscale>
<asrwt>0</asrwt>
<pdfrwt beam="1">  1       21 0.35239777E-01 0.41817758E+03</pdfrwt>
<pdfrwt beam="2">  1       21 0.23710301E+00 0.41817758E+03</pdfrwt>
<totfact> 0.50968906E+02</totfact>
</mgrwt>
</event>
<event>
 4    1  0.4656600E-002  0.8866824E+03  0.7818608E-02  0.9442384E-01
         21   -1    0    0  503  502  0.00000000000E+00  0.00000000000E+00  0.14815754031E+04  0.14815754031E+04  0.00000000000E+00 0. -1.
         21   -1    0    0  501  503 -0.00000000000E+00 -0.00000000000E+00 -0.60749721281E+03  0.60749721281E+03  0.00000000000E+00 0. -1.
    9000007    1    1    2  501    0 -0.45467244966E+03  0.64767169415E+03  0.65545934331E+02  0.88910175424E+03  0.40000000000E+03 0. -1.
   -9000007    1    1    2    0  502  0.45467244966E+03 -0.64767169415E+03  0.80853225591E+03  0.11999708616E+04  0.40000000000E+03 0. -1.
<mgrwt>
<rscale>  2 0.88668239E+03</rscale>
<asrwt>0</asrwt>
<pdfrwt beam="1">  1       21 0.22793468E+00 0.88668239E+03</pdfrwt>
<pdfrwt beam="2">  1       21 0.93461110E-01 0.88668239E+03</pdfrwt>
<totfact> 0.56584242E+01</totfact>
</mgrwt>
</event>
<event>
 4    1  0.4656600E-002  0.4379895E+03  0.7818608E-02  0.1031365E+00
         21   -1    0    0  503  502  0.00000000000E+00  0.00000000000E+00  0.29545199072E+03  0.29545199072E+03  0.00000000000E+00 0. -1.
         21   -1    0    0  501  503 -0.00000000000E+00 -0.00000000000E+00 -0.73964079766E+03  0.73964079766E+03  0.00000000000E+00 0. -1.
    9000007    1    1    2  501    0  0.77377414014E+02 -0.16077181849E+03 -0.40297758708E+03  0.59516869668E+03  0.40000000000E+03 0. -1.
   -9000007    1    1    2    0  502 -0.77377414014E+02  0.16077181849E+03 -0.41211219861E+02  0.43992409170E+03  0.40000000000E+03 0. -1.
<mgrwt>
<rscale>  2 0.43798955E+03</rscale>
<asrwt>0</asrwt>
<pdfrwt beam="1">  1       21 0.45454153E-01 0.43798955E+03</pdfrwt>
<pdfrwt beam="2">  1       21 0.11379089E+00 0.43798955E+03</pdfrwt>
<totfact> 0.24247307E+03</totfact>
</mgrwt>
</event>
<event>
 4    1  0.4656600E-002  0.4504370E+03  0.7818608E-02  0.1027592E+00
         21   -1    0    0  501  502  0.00000000000E+00  0.00000000000E+00  0.15504197065E+04  0.15504197065E+04  0.00000000000E+00 0.  1.
         21   -1    0    0  502  503 -0.00000000000E+00 -0.00000000000E+00 -0.17073580273E+03  0.17073580273E+03  0.00000000000E+00 0.  1.
    9000007    1    1    2  501    0 -0.20689931584E+03 -0.92823347346E+01  0.11057171155E+04  0.11939446503E+04  0.40000000000E+03 0.  1.
   -9000007    1    1    2    0  503  0.20689931584E+03  0.92823347346E+01  0.27396678829E+03  0.52721085888E+03  0.40000000000E+03 0.  1.
<mgrwt>
<rscale>  2 0.45043700E+03</rscale>
<asrwt>0</asrwt>
<pdfrwt beam="1">  1       21 0.23852610E+00 0.45043700E+03</pdfrwt>
<pdfrwt beam="2">  1       21 0.26267048E-01 0.45043700E+03</pdfrwt>
<totfact> 0.88097279E+02</totfact>
</mgrwt>
</event>
<event>
 4    1  0.4656600E-002  0.6770407E+03  0.7818608E-02  0.9757322E-01
         21   -1    0    0  501  502  0.00000000000E+00  0.00000000000E+00  0.34700320726E+03  0.34700320726E+03  0.00000000000E+00 0. -1.
         21   -1    0    0  502  503 -0.00000000000E+00 -0.00000000000E+00 -0.22046629255E+04  0.22046629255E+04  0.00000000000E+00 0. -1.
    9000007    1    1    2  501    0  0.44009329110E+02 -0.54446970212E+03 -0.12109069368E+03  0.68778414759E+03  0.40000000000E+03 0. -1.
   -9000007    1    1    2    0  503 -0.44009329110E+02  0.54446970212E+03 -0.17365690245E+04  0.18638819851E+04  0.40000000000E+03 0. -1.
<mgrwt>
<rscale>  2 0.67704068E+03</rscale>
<asrwt>0</asrwt>
<pdfrwt beam="1">  1       21 0.53385111E-01 0.67704068E+03</pdfrwt>
<pdfrwt beam="2">  1       21 0.33917890E+00 0.67704068E+03</pdfrwt>
<totfact> 0.44638627E+01</totfact>
</mgrwt>
</event>
<event>
 4    1  0.4656600E-002  0.4169303E+03  0.7818608E-02  0.1038070E+00
         21   -1    0    0  503  502  0.00000000000E+00  0.00000000000E+00  0.29742820299E+03  0.29742820299E+03  0.00000000000E+00 0.  1.
         21   -1    0    0  501  503 -0.00000000000E+00 -0.00000000000E+00 -0.58566408603E+03  0.58566408603E+03  0.00000000000E+00 0.  1.
    9000007    1    1    2  501    0  0.53613523531E+02 -0.10467295986E+03 -0.12398431996E+03  0.43497465447E+03  0.40000000000E+03 0.  1.
   -9000007    1    1    2    0  502 -0.53613523531E+02  0.10467295986E+03 -0.16425156308E+03  0.44811763456E+03  0.40000000000E+03 0.  1.
<mgrwt>
<rscale>  2 0.41693026E+03</rscale>
<asrwt>0</asrwt>
<pdfrwt beam="1">  1       21 0.45758185E-01 0.41693026E+03</pdfrwt>
<pdfrwt beam="2">  1       21 0.90102167E-01 0.41693026E+03</pdfrwt>
<totfact> 0.42520829E+03</totfact>
</mgrwt>
</event>
<event>
 4    1  0.4656600E-002  0.6281384E+03  0.7818608E-02  0.9848688E-01
         21   -1    0    0  503  502  0.00000000000E+00  0.00000000000E+00  0.34984015541E+03  0.34984015541E+03  0.00000000000E+00 0.  1.
         21   -1    0    0  501  503 -0.00000000000E+00 -0.00000000000E+00 -0.13102768464E+04  0.13102768464E+04  0.00000000000E+00 0.  1.
    9000007    1    1    2  501    0  0.25933789438E+01 -0.48430478505E+03 -0.17047397744E+03  0.65086037475E+03  0.40000000000E+03 0.  1.
   -9000007    1    1    2    0  502 -0.25933789438E+01  0.48430478505E+03 -0.78996271351E+03  0.10092566270E+04  0.40000000000E+03 0.  1.
<mgrwt>
<rscale>  2 0.62813840E+03</rscale>
<asrwt>0</asrwt>
<pdfrwt beam="1">  1       21 0.53821564E-01 0.62813840E+03</pdfrwt>
<pdfrwt beam="2">  1       21 0.20158105E+00 0.62813840E+03</pdfrwt>
<totfact> 0.32449172E+02</totfact>
</mgrwt>
</event>
<event>
 4    1  0.4656600E-002  0.4158650E+03  0.7818608E-02  0.1038421E+00
         21   -1    0    0  501  502  0.00000000000E+00  0.00000000000E+00  0.10663653431E+04  0.10663653431E+04  0.00000000000E+00 0.  1.
         21   -1    0    0  502  503 -0.00000000000E+00 -0.00000000000E+00 -0.17780006433E+03  0.17780006433E+03  0.00000000000E+00 0.  1.
    9000007    1    1    2  501    0 -0.78370960530E+02 -0.82472271026E+02  0.62866373341E+03  0.75376506462E+03  0.40000000000E+03 0.  1.
   -9000007    1    1    2    0  503  0.78370960530E+02  0.82472271026E+02  0.25990154537E+03  0.49040034281E+03  0.40000000000E+03 0.  1.
<mgrwt>
<rscale>  2 0.41586498E+03</rscale>
<asrwt>0</asrwt>
<pdfrwt beam="1">  1       21 0.16405620E+00 0.41586498E+03</pdfrwt>
<pdfrwt beam="2">  1       21 0.27353857E-01 0.41586498E+03</pdfrwt>
<totfact> 0.26067936E+03</totfact>
</mgrwt>
</event>
<event>
 4    1  0.4656600E-002  0.4275682E+03  0.7818608E-02  0.1034631E+00
         21   -1    0    0  503  502  0.00000000000E+00  0.00000000000E+00  0.74417046511E+03  0.74417046511E+03  0.00000000000E+00 0. -1.
         21   -1    0    0  501  503 -0.00000000000E+00 -0.00000000000E+00 -0.28843283842E+03  0.28843283842E+03  0.00000000000E+00 0. -1.
    9000007    1    1    2  501    0  0.14299169940E+03 -0.48661062286E+02  0.42668613720E+03  0.60404932312E+03  0.40000000000E+03 0. -1.
   -9000007    1    1    2    0  502 -0.14299169940E+03  0.48661062286E+02  0.29051489488E+02  0.42855398040E+03  0.40000000000E+03 0. -1.
<mgrwt>
<rscale>  2 0.42756815E+03</rscale>
<asrwt>0</asrwt>
<pdfrwt beam="1">  1       21 0.11448776E+00 0.42756815E+03</pdfrwt>
<pdfrwt beam="2">  1       21 0.44374283E-01 0.42756815E+03</pdfrwt>
<totfact> 0.25213990E+03</totfact>
</mgrwt>
</event>
<event>
 4    1  0.4656600E-002  0.5355518E+03  0.7818608E-02  0.1004895E+00
         21   -1    0    0  503  502  0.00000000000E+00  0.00000000000E+00  0.14944270841E+04  0.14944270841E+04  0.00000000000E+00 0. -1.
         21   -1    0    0  501  503 -0.00000000000E+00 -0.00000000000E+00 -0.26830812018E+03  0.26830812018E+03  0.00000000000E+00 0. -1.
    9000007    1    1    2  501    0  0.35995532210E+02  0.35428809558E+03  0.14279408000E+03  0.55426156487E+03  0.40000000000E+03 0. -1.
   -9000007    1    1    2    0  502 -0.35995532210E+02 -0.35428809558E+03  0.10833248839E+04  0.12084736394E+04  0.40000000000E+03 0. -1.
<mgrwt>
<rscale>  2 0.53555180E+03</rscale>
<asrwt>0</asrwt>
<pdfrwt beam="1">  1       21 0.22991185E+00 0.53555180E+03</pdfrwt>
<pdfrwt beam="2">  1       21 0.41278173E-01 0.53555180E+03</pdfrwt>
<totfact> 0.38604280E+02</totfact>
</mgrwt>
</event>
<event>
 4    1  0.4656600E-002  0.4226393E+03  0.7818608E-02  0.1036211E+00
         21   -1    0    0  501  502  0.00000000000E+00  0.00000000000E+00  0.48864275311E+03  0.48864275311E+03  0.00000000000E+00 0.  1.
         21   -1    0    0  502  503 -0.00000000000E+00 -0.00000000000E+00 -0.48011598712E+03  0.48011598712E+03  0.00000000000E+00 0.  1.
    9000007    1    1    2  501    0  0.12983922067E+03  0.42021325926E+02 -0.23234921163E+03  0.48229676673E+03  0.40000000000E+03 0.  1.
   -9000007    1    1    2    0  503 -0.12983922067E+03 -0.42021325926E+02  0.24087597763E+03  0.48646197349E+03  0.40000000000E+03 0.  1.
<mgrwt>
<rscale>  2 0.42263934E+03</rscale>
<asrwt>0</asrwt>
<pdfrwt beam="1">  1       21 0.75175809E-01 0.42263934E+03</pdfrwt>
<pdfrwt beam="2">  1       21 0.73863997E-01 0.42263934E+03</pdfrwt>
<totfact> 0.22757088E+03</totfact>
</mgrwt>
</event>
<event>
 4    1  0.4656600E-002  0.4995343E+03  0.7818608E-02  0.1013901E+00
         21   -1    0    0  503  502  0.00000000000E+00  0.00000000000E+00  0.40230760219E+03  0.40230760219E+03  0.00000000000E+00 0. -1.
         21   -1    0    0  501  503 -0.00000000000E+00 -0.00000000000E+00 -0.13114364233E+04  0.13114364233E+04  0.00000000000E+00 0. -1.
    9000007    1    1    2  501    0  0.27815489791E+03 -0.11029227266E+03 -0.10766317568E+04  0.11868742445E+04  0.40000000000E+03 0. -1.
   -9000007    1    1    2    0  502 -0.27815489791E+03  0.11029227266E+03  0.16750293565E+03  0.52686978096E+03  0.40000000000E+03 0. -1.
<mgrwt>
<rscale>  2 0.49953432E+03</rscale>
<asrwt>0</asrwt>
<pdfrwt beam="1">  1       21 0.61893476E-01 0.49953432E+03</pdfrwt>
<pdfrwt beam="2">  1       21 0.20175945E+00 0.49953432E+03</pdfrwt>
<totfact> 0.25119006E+02</totfact>
</mgrwt>
</event>
<event>
 4    1  0.4656600E-002  0.4231511E+03  0.7818608E-02  0.1036046E+00
         21   -1    0    0  501  502  0.00000000000E+00  0.00000000000E+00  0.67615938103E+03  0.67615938103E+03  0.00000000000E+00 0.  1.
         21   -1    0    0  502  503 -0.00000000000E+00 -0.00000000000E+00 -0.34169319592E+03  0.34169319592E+03  0.00000000000E+00 0. -1.
    9000007    1    1    2  501    0  0.13800520009E+03 -0.33742568340E+01  0.40863442968E+03  0.58825072714E+03  0.40000000000E+03 0.  1.
   -9000007    1    1    2    0  503 -0.13800520009E+03  0.33742568340E+01 -0.74168244575E+02  0.42960184981E+03  0.40000000000E+03 0. -1.
<mgrwt>
<rscale>  2 0.42315106E+03</rscale>
<asrwt>0</asrwt>
<pdfrwt beam="1">  1       21 0.10402452E+00 0.42315106E+03</pdfrwt>
<pdfrwt beam="2">  1       21 0.52568184E-01 0.42315106E+03</pdfrwt>
<totfact> 0.22377165E+03</totfact>
</mgrwt>
</event>
<event>
 4    1  0.4656600E-002  0.5414514E+03  0.7818608E-02  0.1003492E+00
         21   -1    0    0  501  502  0.00000000000E+00  0.00000000000E+00  0.24960042197E+03  0.24960042197E+03  0.00000000000E+00 0. -1.
         21   -1    0    0  502  503 -0.00000000000E+00 -0.00000000000E+00 -0.13659028018E+04  0.13659028018E+04  0.00000000000E+00 0. -1.
    9000007    1    1    2  501    0  0.22341680685E+03  0.28853871843E+03 -0.25582303611E+03  0.59884479410E+03  0.40000000000E+03 0. -1.
   -9000007    1    1    2    0  503 -0.22341680685E+03 -0.28853871843E+03 -0.86047934369E+03  0.10166584296E+04  0.40000000000E+03 0. -1.
<mgrwt>
<rscale>  2 0.54145144E+03</rscale>
<asrwt>0</asrwt>
<pdfrwt beam="1">  1       21 0.38400064E-01 0.54145144E+03</pdfrwt>
<pdfrwt beam="2">  1       21 0.21013890E+00 0.54145144E+03</pdfrwt>
<totfact> 0.59972910E+02</totfact>
</mgrwt>
</event>
<event>
 4    1  0.4656600E-002  0.7088976E+03  0.7818608E-02  0.9702136E-01
         21   -1    0    0  501  502  0.00000000000E+00  0.00000000000E+00  0.89755977692E+03  0.89755977692E+03  0.00000000000E+00 0. -1.
         21   -1    0    0  502  503 -0.00000000000E+00 -0.00000000000E+00 -0.60057830727E+03  0.60057830727E+03  0.00000000000E+00 0. -1.
    9000007    1    1    2  501    0 -0.28494089882E+03 -0.51121859783E+03 -0.46478340577E+02  0.71041959906E+03  0.40000000000E+03 0. -1.
   -9000007    1    1    2    0  503  0.28494089882E+03  0.51121859783E+03  0.34345981023E+03  0.78771848513E+03  0.40000000000E+03 0. -1.
<mgrwt>
<rscale>  2 0.70889757E+03</rscale>
<asrwt>0</asrwt>
<pdfrwt beam="1">  1       21 0.13808612E+00 0.70889757E+03</pdfrwt>
<pdfrwt beam="2">  1       21 0.92396662E-01 0.70889757E+03</pdfrwt>
<totfact> 0.27424903E+02</totfact>
</mgrwt>
</event>
<event>
 4    1  0.4656600E-002  0.4027992E+03  0.7818608E-02  0.1042815E+00
         21   -1    0    0  503  502  0.00000000000E+00  0.00000000000E+00  0.83785370954E+03  0.83785370954E+03  0.00000000000E+00 0. -1.
         21   -1    0    0  501  503 -0.00000000000E+00 -0.00000000000E+00 -0.19619656488E+03  0.19619656488E+03  0.00000000000E+00 0. -1.
    9000007    1    1    2  501    0  0.21333576297E+02 -0.42333016148E+02  0.37977604849E+03  0.55360369646E+03  0.40000000000E+03 0. -1.
   -9000007    1    1    2    0  502 -0.21333576297E+02  0.42333016148E+02  0.26188109617E+03  0.48044657795E+03  0.40000000000E+03 0. -1.
<mgrwt>
<rscale>  2 0.40279921E+03</rscale>
<asrwt>0</asrwt>
<pdfrwt beam="1">  1       21 0.12890057E+00 0.40279921E+03</pdfrwt>
<pdfrwt beam="2">  1       21 0.30184087E-01 0.40279921E+03</pdfrwt>
<totfact> 0.41232073E+03</totfact>
</mgrwt>
</event>
<event>
 4    1  0.4656600E-002  0.6098111E+03  0.7818608E-02  0.9885258E-01
         21   -1    0    0  503  502  0.00000000000E+00  0.00000000000E+00  0.18465526475E+04  0.18465526475E+04  0.00000000000E+00 0.  1.
         21   -1    0    0  501  503 -0.00000000000E+00 -0.00000000000E+00 -0.81482781534E+03  0.81482781534E+03  0.00000000000E+00 0. -1.
    9000007    1    1    2  501    0 -0.44638793579E+03 -0.11228269492E+03 -0.63873553798E+03  0.88309267933E+03  0.40000000000E+03 0. -1.
   -9000007    1    1    2    0  502  0.44638793579E+03  0.11228269492E+03  0.16704603702E+04  0.17782877835E+04  0.40000000000E+03 0.  1.
<mgrwt>
<rscale>  2 0.60981111E+03</rscale>
<asrwt>0</asrwt>
<pdfrwt beam="1">  1       21 0.28408502E+00 0.60981111E+03</pdfrwt>
<pdfrwt beam="2">  1       21 0.12535813E+00 0.60981111E+03</pdfrwt>
<totfact> 0.13441648E+01</totfact>
</mgrwt>
</event>
<event>
 4    1  0.4656600E-002  0.4648498E+03  0.7818608E-02  0.1023384E+00
         21   -1    0    0  503  502  0.00000000000E+00  0.00000000000E+00  0.34504200570E+03  0.34504200570E+03  0.00000000000E+00 0. -1.
         21   -1    0    0  501  503 -0.00000000000E+00 -0.00000000000E+00 -0.68242603592E+03  0.68242603592E+03  0.00000000000E+00 0. -1.
    9000007    1    1    2  501    0  0.22980076541E+03 -0.57244785932E+02 -0.31607749289E+03  0.56213017960E+03  0.40000000000E+03 0. -1.
   -9000007    1    1    2    0  502 -0.22980076541E+03  0.57244785932E+02 -0.21306537324E+02  0.46533786202E+03  0.40000000000E+03 0. -1.
<mgrwt>
<rscale>  2 0.46484982E+03</rscale>
<asrwt>0</asrwt>
<pdfrwt beam="1">  1       21 0.53083386E-01 0.46484982E+03</pdfrwt>
<pdfrwt beam="2">  1       21 0.10498862E+00 0.46484982E+03</pdfrwt>
<totfact> 0.21086004E+03</totfact>
</mgrwt>
</event>
<event>
 4    1  0.4656600E-002  0.4696965E+03  0.7818608E-02  0.1022006E+00
         21   -1    0    0  501  502  0.00000000000E+00  0.00000000000E+00  0.55652149202E+03  0.55652149202E+03  0.00000000000E+00 0.  1.
         21   -1    0    0  502  503 -0.00000000000E+00 -0.00000000000E+00 -0.70752927053E+03  0.70752927053E+03  0.00000000000E+00 0.  1.
    9000007    1    1    2  501    0  0.19891450545E+03  0.14507869064E+03  0.34359894667E+03  0.58195793929E+03  0.40000000000E+03 0.  1.
   -9000007    1    1    2    0  503 -0.19891450545E+03 -0.14507869064E+03 -0.49460672517E+03  0.68209282326E+03  0.40000000000E+03 0.  1.
<mgrwt>
<rscale>  2 0.46969651E+03</rscale>
<asrwt>0</asrwt>
<pdfrwt beam="1">  1       21 0.85618692E-01 0.46969651E+03</pdfrwt>
<pdfrwt beam="2">  1       21 0.10885066E+00 0.46969651E+03</pdfrwt>
<totfact> 0.65929505E+02</totfact>
</mgrwt>
</event>
<event>
 4    1  0.4656600E-002  0.6070774E+03  0.7818608E-02  0.9890830E-01
         21   -1    0    0  503  502  0.00000000000E+00  0.00000000000E+00  0.18135600585E+04  0.18135600585E+04  0.00000000000E+00 0. -1.
         21   -1    0    0  501  503 -0.00000000000E+00 -0.00000000000E+00 -0.22546993686E+03  0.22546993686E+03  0.00000000000E+00 0.  1.
    9000007    1    1    2  501    0 -0.80830185179E+02  0.44945464796E+03  0.47374252949E+03  0.77004868915E+03  0.40000000000E+03 0.  1.
   -9000007    1    1    2    0  502  0.80830185179E+02 -0.44945464796E+03  0.11143475922E+04  0.12689813062E+04  0.40000000000E+03 0. -1.
<mgrwt>
<rscale>  2 0.60707742E+03</rscale>
<asrwt>0</asrwt>
<pdfrwt beam="1">  1       21 0.27900923E+00 0.60707742E+03</pdfrwt>
<pdfrwt beam="2">  1       21 0.34687684E-01 0.60707742E+03</pdfrwt>
<totfact> 0.26559895E+02</totfact>
</mgrwt>
</event>
<event>
 4    1  0.4656600E-002  0.4320844E+03  0.7818608E-02  0.1033204E+00
         21   -1    0    0  503  502  0.00000000000E+00  0.00000000000E+00  0.17362912864E+04  0.17362912864E+04  0.00000000000E+00 0.  1.
         21   -1    0    0  501  503 -0.00000000000E+00 -0.00000000000E+00 -0.11181985747E+03  0.11181985747E+03  0.00000000000E+00 0. -1.
    9000007    1    1    2  501    0  0.16001463242E+03 -0.33048687452E+02  0.63116443245E+03  0.76489570473E+03  0.40000000000E+03 0.  1.
   -9000007    1    1    2    0  502 -0.16001463242E+03  0.33048687452E+02  0.99330699652E+03  0.10832154392E+04  0.40000000000E+03 0. -1.
<mgrwt>
<rscale>  2 0.43208436E+03</rscale>
<asrwt>0</asrwt>
<pdfrwt beam="1">  1       21 0.26712172E+00 0.43208436E+03</pdfrwt>
<pdfrwt beam="2">  1       21 0.17203056E-01 0.43208436E+03</pdfrwt>
<totfact> 0.13356840E+03</totfact>
</mgrwt>
</event>
<event>
 4    1  0.4656600E-002  0.5414660E+03  0.7818608E-02  0.1003489E+00
         21   -1    0    0  503  502  0.00000000000E+00  0.00000000000E+00  0.78053177792E+03  0.78053177792E+03  0.00000000000E+00 0.  1.
         21   -1    0    0  501  503 -0.00000000000E+00 -0.00000000000E+00 -0.40322570403E+03  0.40322570403E+03  0.00000000000E+00 0.  1.
    9000007    1    1    2  501    0  0.36378674163E+03  0.29062770369E+02  0.33793851325E+02  0.54251955024E+03  0.40000000000E+03 0.  1.
   -9000007    1    1    2    0  502 -0.36378674163E+03 -0.29062770369E+02  0.34351222257E+03  0.64123793171E+03  0.40000000000E+03 0.  1.
<mgrwt>
<rscale>  2 0.54146601E+03</rscale>
<asrwt>0</asrwt>
<pdfrwt beam="1">  1       21 0.12008181E+00 0.54146601E+03</pdfrwt>
<pdfrwt beam="2">  1       21 0.62034724E-01 0.54146601E+03</pdfrwt>
<totfact> 0.10444089E+03</totfact>
</mgrwt>
</event>
<event>
 4    1  0.4656600E-002  0.4141231E+03  0.7818608E-02  0.1038996E+00
         21   -1    0    0  503  502  0.00000000000E+00  0.00000000000E+00  0.48195057952E+03  0.48195057952E+03  0.00000000000E+00 0.  1.
         21   -1    0    0  501  503 -0.00000000000E+00 -0.00000000000E+00 -0.40873086897E+03  0.40873086897E+03  0.00000000000E+00 0.  1.
    9000007    1    1    2  501    0 -0.63599860778E+01 -0.10703965094E+03 -0.12358869190E+03  0.43217137927E+03  0.40000000000E+03 0.  1.
   -9000007    1    1    2    0  502  0.63599860778E+01  0.10703965094E+03  0.19680840245E+03  0.45851006921E+03  0.40000000000E+03 0.  1.
<mgrwt>
<rscale>  2 0.41412309E+03</rscale>
<asrwt>0</asrwt>
<pdfrwt beam="1">  1       21 0.74146243E-01 0.41412309E+03</pdfrwt>
<pdfrwt beam="2">  1       21 0.62881672E-01 0.41412309E+03</pdfrwt>
<totfact> 0.33774481E+03</totfact>
</mgrwt>
</event>
<event>
 4    1  0.4656600E-002  0.4368358E+03  0.7818608E-02  0.1031722E+00
         21   -1    0    0  501  502  0.00000000000E+00  0.00000000000E+00  0.26087682558E+03  0.26087682558E+03  0.00000000000E+00 0. -1.
         21   -1    0    0  502  503 -0.00000000000E+00 -0.00000000000E+00 -0.77661777423E+03  0.77661777423E+03  0.00000000000E+00 0.  1.
    9000007    1    1    2  501    0 -0.17196988336E+03  0.35382125720E+02 -0.13280594703E+03  0.45657743612E+03  0.40000000000E+03 0.  1.
   -9000007    1    1    2    0  503  0.17196988336E+03 -0.35382125720E+02 -0.38293500162E+03  0.58091716369E+03  0.40000000000E+03 0.  1.
<mgrwt>
<rscale>  2 0.43683582E+03</rscale>
<asrwt>0</asrwt>
<pdfrwt beam="1">  1       21 0.40134896E-01 0.43683582E+03</pdfrwt>
<pdfrwt beam="2">  1       21 0.11947966E+00 0.43683582E+03</pdfrwt>
<totfact> 0.27797445E+03</totfact>
</mgrwt>
</event>
<event>
 4    1  0.4656600E-002  0.4783832E+03  0.7818608E-02  0.1019580E+00
         21   -1    0    0  501  502  0.00000000000E+00  0.00000000000E+00  0.64399448558E+03  0.64399448558E+03  0.00000000000E+00 0. -1.
         21   -1    0    0  502  503 -0.00000000000E+00 -0.00000000000E+00 -0.65042524333E+03  0.65042524333E+03  0.00000000000E+00 0. -1.
    9000007    1    1    2  501    0  0.17061990285E+03  0.19934730434E+03  0.43270257338E+03  0.64504419694E+03  0.40000000000E+03 0. -1.
   -9000007    1    1    2    0  503 -0.17061990285E+03 -0.19934730434E+03 -0.43913333114E+03  0.64937553196E+03  0.40000000000E+03 0. -1.
<mgrwt>
<rscale>  2 0.47838321E+03</rscale>
<asrwt>0</asrwt>
<pdfrwt beam="1">  1       21 0.99076075E-01 0.47838321E+03</pdfrwt>
<pdfrwt beam="2">  1       21 0.10006542E+00 0.47838321E+03</pdfrwt>
<totfact> 0.57055651E+02</totfact>
</mgrwt>
</event>
<event>
 4    1  0.4656600E-002  0.4661894E+03  0.7818608E-02  0.1023001E+00
         21   -1    0    0  503  502  0.00000000000E+00  0.00000000000E+00  0.20484068962E+03  0.20484068962E+03  0.00000000000E+00 0.  1.
         21   -1    0    0  501  503 -0.00000000000E+00 -0.00000000000E+00 -0.10674170516E+04  0.10674170516E+04  0.00000000000E+00 0.  1.
    9000007    1    1    2  501    0 -0.23776497737E+03  0.28291525002E+02 -0.48067407633E+03  0.66961194919E+03  0.40000000000E+03 0.  1.
   -9000007    1    1    2    0  502  0.23776497737E+03 -0.28291525002E+02 -0.38190228562E+03  0.60264579200E+03  0.40000000000E+03 0.  1.
<mgrwt>
<rscale>  2 0.46618944E+03</rscale>
<asrwt>0</asrwt>
<pdfrwt beam="1">  1       21 0.31513952E-01 0.46618944E+03</pdfrwt>
<pdfrwt beam="2">  1       21 0.16421801E+00 0.46618944E+03</pdfrwt>
<totfact> 0.19239644E+03</totfact>
</mgrwt>
</event>
<event>
 4    1  0.4656600E-002  0.4146752E+03  0.7818608E-02  0.1038813E+00
         21   -1    0    0  501  502  0.00000000000E+00  0.00000000000E+00  0.16467151919E+04  0.16467151919E+04  0.00000000000E+00 0.  1.
         21   -1    0    0  502  503 -0.00000000000E+00 -0.00000000000E+00 -0.11481213497E+03  0.11481213497E+03  0.00000000000E+00 0.  1.
    9000007    1    1    2  501    0  0.97357742406E+02  0.49769462249E+02  0.50101141851E+03  0.65035987796E+03  0.40000000000E+03 0.  1.
   -9000007    1    1    2    0  503 -0.97357742406E+02 -0.49769462249E+02  0.10308916385E+04  0.11111674490E+04  0.40000000000E+03 0.  1.
<mgrwt>
<rscale>  2 0.41467521E+03</rscale>
<asrwt>0</asrwt>
<pdfrwt beam="1">  1       21 0.25334078E+00 0.41467521E+03</pdfrwt>
<pdfrwt beam="2">  1       21 0.17663407E-01 0.41467521E+03</pdfrwt>
<totfact> 0.15551376E+03</totfact>
</mgrwt>
</event>
<event>
 4    1  0.4656600E-002  0.4205836E+03  0.7818608E-02  0.1036877E+00
         21   -1    0    0  503  502  0.00000000000E+00  0.00000000000E+00  0.55055158952E+03  0.55055158952E+03  0.00000000000E+00 0. -1.
         21   -1    0    0  501  503 -0.00000000000E+00 -0.00000000000E+00 -0.45498031506E+03  0.45498031506E+03  0.00000000000E+00 0. -1.
    9000007    1    1    2  501    0 -0.12668960852E+03 -0.28987589151E+02 -0.22474056718E+03  0.47686356515E+03  0.40000000000E+03 0. -1.
   -9000007    1    1    2    0  502  0.12668960852E+03  0.28987589151E+02  0.32031184163E+03  0.52866833943E+03  0.40000000000E+03 0. -1.
<mgrwt>
<rscale>  2 0.42058357E+03</rscale>
<asrwt>0</asrwt>
<pdfrwt beam="1">  1       21 0.84700245E-01 0.42058357E+03</pdfrwt>
<pdfrwt beam="2">  1       21 0.69996971E-01 0.42058357E+03</pdfrwt>
<totfact> 0.19533836E+03</totfact>
</mgrwt>
</event>
<event>
 4    1  0.4656600E-002  0.4719965E+03  0.7818608E-02  0.1021358E+00
         21   -1    0    0  501  502  0.00000000000E+00  0.00000000000E+00  0.77617395586E+03  0.77617395586E+03  0.00000000000E+00 0.  1.
         21   -1    0    0  502  503 -0.00000000000E+00 -0.00000000000E+00 -0.40354408615E+03  0.40354408615E+03  0.00000000000E+00 0.  1.
    9000007    1    1    2  501    0 -0.78672593420E+02  0.23788927874E+03  0.50327373396E+03  0.68997473663E+03  0.40000000000E+03 0.  1.
   -9000007    1    1    2    0  503  0.78672593420E+02 -0.23788927874E+03 -0.13064386425E+03  0.48974330537E+03  0.40000000000E+03 0.  1.
<mgrwt>
<rscale>  2 0.47199649E+03</rscale>
<asrwt>0</asrwt>
<pdfrwt beam="1">  1       21 0.11941138E+00 0.47199649E+03</pdfrwt>
<pdfrwt beam="2">  1       21 0.62083706E-01 0.47199649E+03</pdfrwt>
<totfact> 0.10847116E+03</totfact>
</mgrwt>
</event>
<event>
 4    1  0.4656600E-002  0.5495328E+03  0.7818608E-02  0.1001602E+00
         21   -1    0    0  503  502  0.00000000000E+00  0.00000000000E+00  0.59104242827E+03  0.59104242827E+03  0.00000000000E+00 0.  1.
         21   -1    0    0  501  503 -0.00000000000E+00 -0.00000000000E+00 -0.73586822148E+03  0.73586822148E+03  0.00000000000E+00 0. -1.
    9000007    1    1    2  501    0  0.20520149455E+03 -0.31603587375E+03 -0.43921776454E+03  0.70349027822E+03  0.40000000000E+03 0. -1.
   -9000007    1    1    2    0  502 -0.20520149455E+03  0.31603587375E+03  0.29439197133E+03  0.62342037154E+03  0.40000000000E+03 0.  1.
<mgrwt>
<rscale>  2 0.54953283E+03</rscale>
<asrwt>0</asrwt>
<pdfrwt beam="1">  1       21 0.90929605E-01 0.54953283E+03</pdfrwt>
<pdfrwt beam="2">  1       21 0.11321050E+00 0.54953283E+03</pdfrwt>
<totfact> 0.50261858E+02</totfact>
</mgrwt>
</event>
<event>
 4    1  0.4656600E-002  0.5289616E+03  0.7818608E-02  0.1006484E+00
         21   -1    0    0  501  502  0.00000000000E+00  0.00000000000E+00  0.30015287152E+03  0.30015287152E+03  0.00000000000E+00 0. -1.
         21   -1    0    0  502  503 -0.00000000000E+00 -0.00000000000E+00 -0.93279695664E+03  0.93279695664E+03  0.00000000000E+00 0. -1.
    9000007    1    1    2  501    0 -0.23959776101E+03 -0.24978656955E+03 -0.30063609464E+03  0.60842623120E+03  0.40000000000E+03 0. -1.
   -9000007    1    1    2    0  503  0.23959776101E+03  0.24978656955E+03 -0.33200799048E+03  0.62452359695E+03  0.40000000000E+03 0. -1.
<mgrwt>
<rscale>  2 0.52896164E+03</rscale>
<asrwt>0</asrwt>
<pdfrwt beam="1">  1       21 0.46177365E-01 0.52896164E+03</pdfrwt>
<pdfrwt beam="2">  1       21 0.14350722E+00 0.52896164E+03</pdfrwt>
<totfact> 0.12436592E+03</totfact>
</mgrwt>
</event>
<event>
 4    1  0.4656600E-002  0.4155849E+03  0.7818608E-02  0.1038513E+00
         21   -1    0    0  503  502  0.00000000000E+00  0.00000000000E+00  0.45492111621E+03  0.45492111621E+03  0.00000000000E+00 0.  1.
         21   -1    0    0  501  503 -0.00000000000E+00 -0.00000000000E+00 -0.50351786551E+03  0.50351786551E+03  0.00000000000E+00 0.  1.
    9000007    1    1    2  501    0 -0.78317251319E+02 -0.81099988778E+02 -0.26198588670E+03  0.49127121314E+03  0.40000000000E+03 0.  1.
   -9000007    1    1    2    0  502  0.78317251319E+02  0.81099988778E+02  0.21338913740E+03  0.46716776858E+03  0.40000000000E+03 0.  1.
<mgrwt>
<rscale>  2 0.41558489E+03</rscale>
<asrwt>0</asrwt>
<pdfrwt beam="1">  1       21 0.69987864E-01 0.41558489E+03</pdfrwt>
<pdfrwt beam="2">  1       21 0.77464287E-01 0.41558489E+03</pdfrwt>
<totfact> 0.24068666E+03</totfact>
</mgrwt>
</event>
<event>
 4    1  0.4656600E-002  0.5610435E+03  0.7818608E-02  0.9989696E-01
         21   -1    0    0  503  502  0.00000000000E+00  0.00000000000E+00  0.24731519098E+03  0.24731519098E+03  0.00000000000E+00 0. -1.
         21   -1    0    0  501  503 -0.00000000000E+00 -0.00000000000E+00 -0.12727520558E+04  0.12727520558E+04  0.00000000000E+00 0.  1.
    9000007    1    1    2  501    0 -0.34988709039E+03  0.17985792352E+03 -0.51131774951E+03  0.75908872317E+03  0.40000000000E+03 0.  1.
   -9000007    1    1    2    0  502  0.34988709039E+03 -0.17985792352E+03 -0.51411911534E+03  0.76097852364E+03  0.40000000000E+03 0.  1.
<mgrwt>
<rscale>  2 0.56104354E+03</rscale>
<asrwt>0</asrwt>
<pdfrwt beam="1">  1       21 0.38048491E-01 0.56104354E+03</pdfrwt>
<pdfrwt beam="2">  1       21 0.19580801E+00 0.56104354E+03</pdfrwt>
<totfact> 0.75612330E+02</totfact>
</mgrwt>
</event>
<event>
 4    1  0.4656600E-002  0.4410000E+03  0.7818608E-02  0.1030440E+00
         21   -1    0    0  501  502  0.00000000000E+00  0.00000000000E+00  0.54669787669E+03  0.54669787669E+03  0.00000000000E+00 0. -1.
         21   -1    0    0  502  503 -0.00000000000E+00 -0.00000000000E+00 -0.65323795952E+03  0.65323795952E+03  0.00000000000E+00 0. -1.
    9000007    1    1    2  501    0  0.16230441704E+03 -0.90212214487E+02  0.35161907199E+03  0.56401856284E+03  0.40000000000E+03 0. -1.
   -9000007    1    1    2    0  503 -0.16230441704E+03  0.90212214487E+02 -0.45815915482E+03  0.63591727338E+03  0.40000000000E+03 0. -1.
<mgrwt>
<rscale>  2 0.44099996E+03</rscale>
<asrwt>0</asrwt>
<pdfrwt beam="1">  1       21 0.84107365E-01 0.44099996E+03</pdfrwt>
<pdfrwt beam="2">  1       21 0.10049815E+00 0.44099996E+03</pdfrwt>
<totfact> 0.84676206E+02</totfact>
</mgrwt>
</event>
<event>
 4    1  0.4656600E-002  0.4151807E+03  0.7818608E-02  0.1038646E+00
         21   -1    0    0  501  502  0.00000000000E+00  0.00000000000E+00  0.64426015308E+03  0.64426015308E+03  0.00000000000E+00 0. -1.
         21   -1    0    0  502  503 -0.00000000000E+00 -0.00000000000E+00 -0.11359458239E+04  0.11359458239E+04  0.00000000000E+00 0. -1.
    9000007    1    1    2  501    0 -0.10828750228E+03 -0.25472371676E+02  0.53240704485E+03  0.67515352793E+03  0.40000000000E+03 0. -1.
   -9000007    1    1    2    0  503  0.10828750228E+03  0.25472371676E+02 -0.10240927157E+04  0.11050524491E+04  0.40000000000E+03 0. -1.
<mgrwt>
<rscale>  2 0.41518071E+03</rscale>
<asrwt>0</asrwt>
<pdfrwt beam="1">  1       21 0.99116947E-01 0.41518071E+03</pdfrwt>
<pdfrwt beam="2">  1       21 0.17476090E+00 0.41518071E+03</pdfrwt>
<totfact> 0.13614991E+02</totfact>
</mgrwt>
</event>
<event>
 4    1  0.4656600E-002  0.6013117E+03  0.7818608E-02  0.9902688E-01
         21   -1    0    0  501  502  0.00000000000E+00  0.00000000000E+00  0.22656718082E+04  0.22656718082E+04  0.00000000000E+00 0. -1.
         21   -1    0    0  502  503 -0.00000000000E+00 -0.00000000000E+00 -0.23363102482E+03  0.23363102482E+03  0.00000000000E+00 0.  1.
    9000007    1    1    2  501    0  0.10076495723E+03  0.43751826414E+03  0.17195192657E+04  0.18216262826E+04  0.40000000000E+03 0. -1.
   -9000007    1    1    2    0  503 -0.10076495723E+03 -0.43751826414E+03  0.31252151763E+03  0.67767655046E+03  0.40000000000E+03 0.  1.
<mgrwt>
<rscale>  2 0.60131174E+03</rscale>
<asrwt>0</asrwt>
<pdfrwt beam="1">  1       21 0.34856488E+00 0.60131174E+03</pdfrwt>
<pdfrwt beam="2">  1       21 0.35943236E-01 0.60131174E+03</pdfrwt>
<totfact> 0.92923643E+01</totfact>
</mgrwt>
</event>
<event>
 4    1  0.4656600E-002  0.4021127E+03  0.7818608E-02  0.1043051E+00
         21   -1    0    0  501  502  0.00000000000E+00  0.00000000000E+00  0.10203071288E+03  0.10203071288E+03  0.00000000000E+00 0. -1.
         21   -1    0    0  502  503 -0.00000000000E+00 -0.00000000000E+00 -0.18870207646E+04  0.18870207646E+04  0.00000000000E+00 0. -1.
    9000007    1    1    2  501    0 -0.14687375521E+02 -0.38456607061E+02 -0.49446530824E+03  0.63733081730E+03  0.40000000000E+03 0. -1.
   -9000007    1    1    2    0  503  0.14687375521E+02  0.38456607061E+02 -0.12905247435E+04  0.13517206602E+04  0.40000000000E+03 0. -1.
<mgrwt>
<rscale>  2 0.40211271E+03</rscale>
<asrwt>0</asrwt>
<pdfrwt beam="1">  1       21 0.15697033E-01 0.40211271E+03</pdfrwt>
<pdfrwt beam="2">  1       21 0.29031089E+00 0.40211271E+03</pdfrwt>
<totfact> 0.11687681E+03</totfact>
</mgrwt>
</event>
<event>
 4    1  0.4656600E-002  0.4056933E+03  0.7818608E-02  0.1041826E+00
         21   -1    0    0  501  502  0.00000000000E+00  0.00000000000E+00  0.38779345951E+03  0.38779345951E+03  0.00000000000E+00 0. -1.
         21   -1    0    0  502  503 -0.00000000000E+00 -0.00000000000E+00 -0.43422851822E+03  0.43422851822E+03  0.00000000000E+00 0. -1.
    9000007    1    1    2  501    0  0.36404815347E+02 -0.57111324972E+02  0.38557405222E+02  0.40752139517E+03  0.40000000000E+03 0. -1.
   -9000007    1    1    2    0  503 -0.36404815347E+02  0.57111324972E+02 -0.84992463938E+02  0.41450058256E+03  0.40000000000E+03 0. -1.
<mgrwt>
<rscale>  2 0.40569325E+03</rscale>
<asrwt>0</asrwt>
<pdfrwt beam="1">  1       21 0.59660532E-01 0.40569325E+03</pdfrwt>
<pdfrwt beam="2">  1       21 0.66804387E-01 0.40569325E+03</pdfrwt>
<totfact> 0.48078222E+03</totfact>
</mgrwt>
</event>
<event>
 4    1  0.4656600E-002  0.4508604E+03  0.7818608E-02  0.1027466E+00
         21   -1    0    0  501  502  0.00000000000E+00  0.00000000000E+00  0.87176745286E+03  0.87176745286E+03  0.00000000000E+00 0. -1.
         21   -1    0    0  502  503 -0.00000000000E+00 -0.00000000000E+00 -0.28938432199E+03  0.28938432199E+03  0.00000000000E+00 0.  1.
    9000007    1    1    2  501    0  0.20779004195E+03  0.99176617868E+01  0.54706348660E+03  0.70891009298E+03  0.40000000000E+03 0. -1.
   -9000007    1    1    2    0  503 -0.20779004195E+03 -0.99176617868E+01  0.35319644270E+02  0.45224168187E+03  0.40000000000E+03 0.  1.
<mgrwt>
<rscale>  2 0.45086036E+03</rscale>
<asrwt>0</asrwt>
<pdfrwt beam="1">  1       21 0.13411807E+00 0.45086036E+03</pdfrwt>
<pdfrwt beam="2">  1       21 0.44520665E-01 0.45086036E+03</pdfrwt>
<totfact> 0.16548069E+03</totfact>
</mgrwt>
</event>
<event>
 4    1  0.4656600E-002  0.5665525E+03  0.7818608E-02  0.9977337E-01
         21   -1    0    0  501  502  0.00000000000E+00  0.00000000000E+00  0.71501140149E+03  0.71501140149E+03  0.00000000000E+00 0. -1.
         21   -1    0    0  502  503 -0.00000000000E+00 -0.00000000000E+00 -0.47343891178E+03  0.47343891178E+03  0.00000000000E+00 0.  1.
    9000007    1    1    2  501    0 -0.24128377541E+03  0.32056803750E+03 -0.14447293429E+02  0.56673666833E+03  0.40000000000E+03 0.  1.
   -9000007    1    1    2    0  503  0.24128377541E+03 -0.32056803750E+03  0.25601978313E+03  0.62171364494E+03  0.40000000000E+03 0. -1.
<mgrwt>
<rscale>  2 0.56655249E+03</rscale>
<asrwt>0</asrwt>
<pdfrwt beam="1">  1       21 0.11000175E+00 0.56655249E+03</pdfrwt>
<pdfrwt beam="2">  1       21 0.72836755E-01 0.56655249E+03</pdfrwt>
<totfact> 0.90066649E+02</totfact>
</mgrwt>
</event>
<event>
 4    1  0.4656600E-002  0.4137639E+03  0.7818608E-02  0.1039115E+00
         21   -1    0    0  503  502  0.00000000000E+00  0.00000000000E+00  0.74287194889E+03  0.74287194889E+03  0.00000000000E+00 0. -1.
         21   -1    0    0  501  503 -0.00000000000E+00 -0.00000000000E+00 -0.24807646730E+03  0.24807646730E+03  0.00000000000E+00 0. -1.
    9000007    1    1    2  501    0  0.10449600030E+03 -0.16767021739E+02  0.11535447598E+03  0.42954301557E+03  0.40000000000E+03 0.  1.
   -9000007    1    1    2    0  502 -0.10449600030E+03  0.16767021739E+02  0.37944100561E+03  0.56140540061E+03  0.40000000000E+03 0.  1.
<mgrwt>
<rscale>  2 0.41376388E+03</rscale>
<asrwt>0</asrwt>
<pdfrwt beam="1">  1       21 0.11428799E+00 0.41376388E+03</pdfrwt>
<pdfrwt beam="2">  1       21 0.38165611E-01 0.41376388E+03</pdfrwt>
<totfact> 0.34758356E+03</totfact>
</mgrwt>
</event>
<event>
 4    1  0.4656600E-002  0.4027828E+03  0.7818608E-02  0.1042820E+00
         21   -1    0    0  503  502  0.00000000000E+00  0.00000000000E+00  0.30224479516E+03  0.30224479516E+03  0.00000000000E+00 0. -1.
         21   -1    0    0  501  503 -0.00000000000E+00 -0.00000000000E+00 -0.72313791154E+03  0.72313791154E+03  0.00000000000E+00 0. -1.
    9000007    1    1    2  501    0  0.21832988305E+02 -0.41920202968E+02 -0.47072520300E+03  0.61952901428E+03  0.40000000000E+03 0. -1.
   -9000007    1    1    2    0  502 -0.21832988305E+02  0.41920202968E+02  0.49832086614E+02  0.40585369242E+03  0.40000000000E+03 0. -1.
<mgrwt>
<rscale>  2 0.40278280E+03</rscale>
<asrwt>0</asrwt>
<pdfrwt beam="1">  1       21 0.46499200E-01 0.40278280E+03</pdfrwt>
<pdfrwt beam="2">  1       21 0.11125199E+00 0.40278280E+03</pdfrwt>
<totfact> 0.24797323E+03</totfact>
</mgrwt>
</event>
<event>
 4    1  0.4656600E-002  0.4405199E+03  0.7818608E-02  0.1030587E+00
         21   -1    0    0  503  502  0.00000000000E+00  0.00000000000E+00  0.60466722133E+03  0.60466722133E+03  0.00000000000E+00 0.  1.
         21   -1    0    0  501  503 -0.00000000000E+00 -0.00000000000E+00 -0.32112662356E+03  0.32112662356E+03  0.00000000000E+00 0.  1.
    9000007    1    1    2  501    0 -0.17524059748E+03 -0.57866170108E+02  0.15313213195E+03  0.46637668304E+03  0.40000000000E+03 0.  1.
   -9000007    1    1    2    0  502  0.17524059748E+03  0.57866170108E+02  0.13040846581E+03  0.45941716185E+03  0.40000000000E+03 0.  1.
<mgrwt>
<rscale>  2 0.44051988E+03</rscale>
<asrwt>0</asrwt>
<pdfrwt beam="1">  1       21 0.93025726E-01 0.44051988E+03</pdfrwt>
<pdfrwt beam="2">  1       21 0.49404096E-01 0.44051988E+03</pdfrwt>
<totfact> 0.33246554E+03</totfact>
</mgrwt>
</event>
<event>
 4    1  0.4656600E-002  0.5230827E+03  0.7818608E-02  0.1007924E+00
         21   -1    0    0  501  502  0.00000000000E+00  0.00000000000E+00  0.14913533613E+04  0.14913533613E+04  0.00000000000E+00 0. -1.
         21   -1    0    0  502  503 -0.00000000000E+00 -0.00000000000E+00 -0.29094438415E+03  0.29094438415E+03  0.00000000000E+00 0. -1.
    9000007    1    1    2  501    0 -0.79194279309E+02  0.32763365815E+03  0.11418334667E+04  0.12559455456E+04  0.40000000000E+03 0. -1.
   -9000007    1    1    2    0  503  0.79194279309E+02 -0.32763365815E+03  0.58575510406E+02  0.52635219981E+03  0.40000000000E+03 0. -1.
<mgrwt>
<rscale>  2 0.52308274E+03</rscale>
<asrwt>0</asrwt>
<pdfrwt beam="1">  1       21 0.22943897E+00 0.52308274E+03</pdfrwt>
<pdfrwt beam="2">  1       21 0.44760675E-01 0.52308274E+03</pdfrwt>
<totfact> 0.33002982E+02</totfact>
</mgrwt>
</event>
<event>
 4    1  0.4656600E-002  0.4089859E+03  0.7818608E-02  0.1040712E+00
         21   -1    0    0  501  502  0.00000000000E+00  0.00000000000E+00  0.86259468659E+03  0.86259468659E+03  0.00000000000E+00 0. -1.
         21   -1    0    0  502  503 -0.00000000000E+00 -0.00000000000E+00 -0.40256994326E+03  0.40256994326E+03  0.00000000000E+00 0. -1.
    9000007    1    1    2  501    0 -0.44064375266E+02  0.72992004988E+02  0.68543160892E+03  0.79817666746E+03  0.40000000000E+03 0. -1.
   -9000007    1    1    2    0  503  0.44064375266E+02 -0.72992004988E+02 -0.22540686560E+03  0.46698796239E+03  0.40000000000E+03 0. -1.
<mgrwt>
<rscale>  2 0.40898594E+03</rscale>
<asrwt>0</asrwt>
<pdfrwt beam="1">  1       21 0.13270687E+00 0.40898594E+03</pdfrwt>
<pdfrwt beam="2">  1       21 0.61933838E-01 0.40898594E+03</pdfrwt>
<totfact> 0.85390312E+02</totfact>
</mgrwt>
</event>
<event>
 4    1  0.4656600E-002  0.5745064E+03  0.7818608E-02  0.9959756E-01
         21   -1    0    0  503  502  0.00000000000E+00  0.00000000000E+00  0.47770587870E+03  0.47770587870E+03  0.00000000000E+00 0. -1.
         21   -1    0    0  501  503 -0.00000000000E+00 -0.00000000000E+00 -0.81337745653E+03  0.81337745653E+03  0.00000000000E+00 0.  1.
    9000007    1    1    2  501    0 -0.31392615362E+03  0.26740983329E+03  0.82640567157E+02  0.58041977241E+03  0.40000000000E+03 0. -1.
   -9000007    1    1    2    0  502  0.31392615362E+03 -0.26740983329E+03 -0.41831214498E+03  0.71066356281E+03  0.40000000000E+03 0. -1.
<mgrwt>
<rscale>  2 0.57450644E+03</rscale>
<asrwt>0</asrwt>
<pdfrwt beam="1">  1       21 0.73493213E-01 0.57450644E+03</pdfrwt>
<pdfrwt beam="2">  1       21 0.12513499E+00 0.57450644E+03</pdfrwt>
<totfact> 0.63436268E+02</totfact>
</mgrwt>
</event>
<event>
 4    1  0.4656600E-002  0.4167537E+03  0.7818608E-02  0.1038128E+00
         21   -1    0    0  501  502  0.00000000000E+00  0.00000000000E+00  0.10139783035E+04  0.10139783035E+04  0.00000000000E+00 0.  1.
         21   -1    0    0  502  503 -0.00000000000E+00 -0.00000000000E+00 -0.43178005124E+03  0.43178005124E+03  0.00000000000E+00 0.  1.
    9000007    1    1    2  501    0 -0.77227071930E+01  0.11672193618E+03  0.85257431324E+03  0.94898188085E+03  0.40000000000E+03 0.  1.
   -9000007    1    1    2    0  503  0.77227071930E+01 -0.11672193618E+03 -0.27037606102E+03  0.49677647385E+03  0.40000000000E+03 0.  1.
<mgrwt>
<rscale>  2 0.41675370E+03</rscale>
<asrwt>0</asrwt>
<pdfrwt beam="1">  1       21 0.15599666E+00 0.41675370E+03</pdfrwt>
<pdfrwt beam="2">  1       21 0.66427701E-01 0.41675370E+03</pdfrwt>
<totfact> 0.47285151E+02</totfact>
</mgrwt>
</event>
<event>
 4    1  0.4656600E-002  0.4667567E+03  0.7818608E-02  0.1022840E+00
         21   -1    0    0  503  502  0.00000000000E+00  0.00000000000E+00  0.20649701962E+04  0.20649701962E+04  0.00000000000E+00 0.  1.
         21   -1    0    0  501  503 -0.00000000000E+00 -0.00000000000E+00 -0.12375556332E+04  0.12375556332E+04  0.00000000000E+00 0.  1.
    9000007    1    1    2  501    0  0.18728325591E+02  0.23981461456E+03 -0.11656015182E+04  0.12555830115E+04  0.40000000000E+03 0.  1.
   -9000007    1    1    2    0  502 -0.18728325591E+02 -0.23981461456E+03  0.19930160812E+04  0.20469428179E+04  0.40000000000E+03 0.  1.
<mgrwt>
<rscale>  2 0.46675668E+03</rscale>
<asrwt>0</asrwt>
<pdfrwt beam="1">  1       21 0.31768772E+00 0.46675668E+03</pdfrwt>
<pdfrwt beam="2">  1       21 0.19039317E+00 0.46675668E+03</pdfrwt>
<totfact> 0.29015546E+00</totfact>
</mgrwt>
</event>
<event>
 4    1  0.4656600E-002  0.5645530E+03  0.7818608E-02  0.9981805E-01
         21   -1    0    0  503  502  0.00000000000E+00  0.00000000000E+00  0.40895277342E+03  0.40895277342E+03  0.00000000000E+00 0. -1.
         21   -1    0    0  501  503 -0.00000000000E+00 -0.00000000000E+00 -0.80185659826E+03  0.80185659826E+03  0.00000000000E+00 0.  1.
    9000007    1    1    2  501    0  0.36258705728E+03  0.16507805852E+03 -0.29786322181E+03  0.63831233610E+03  0.40000000000E+03 0. -1.
   -9000007    1    1    2    0  502 -0.36258705728E+03 -0.16507805852E+03 -0.95040603031E+02  0.57249703557E+03  0.40000000000E+03 0. -1.
<mgrwt>
<rscale>  2 0.56455304E+03</rscale>
<asrwt>0</asrwt>
<pdfrwt beam="1">  1       21 0.62915811E-01 0.56455304E+03</pdfrwt>
<pdfrwt beam="2">  1       21 0.12336255E+00 0.56455304E+03</pdfrwt>
<totfact> 0.93718589E+02</totfact>
</mgrwt>
</event>
<event>
 4    1  0.4656600E-002  0.4937851E+03  0.7818608E-02  0.1015414E+00
         21   -1    0    0  503  502  0.00000000000E+00  0.00000000000E+00  0.66105574822E+03  0.66105574822E+03  0.00000000000E+00 0. -1.
         21   -1    0    0  501  503 -0.00000000000E+00 -0.00000000000E+00 -0.36978951454E+03  0.36978951454E+03  0.00000000000E+00 0. -1.
    9000007    1    1    2  501    0  0.16469292002E+03 -0.23811746831E+03  0.11951288855E+03  0.50804233795E+03  0.40000000000E+03 0. -1.
   -9000007    1    1    2    0  502 -0.16469292002E+03  0.23811746831E+03  0.17175334513E+03  0.52280292480E+03  0.40000000000E+03 0. -1.
<mgrwt>
<rscale>  2 0.49378506E+03</rscale>
<asrwt>0</asrwt>
<pdfrwt beam="1">  1       21 0.10170088E+00 0.49378506E+03</pdfrwt>
<pdfrwt beam="2">  1       21 0.56890695E-01 0.49378506E+03</pdfrwt>
<totfact> 0.19428984E+03</totfact>
</mgrwt>
</event>
<event>
 4    1  0.4656600E-002  0.4384749E+03  0.7818608E-02  0.1031216E+00
         21   -1    0    0  501  502  0.00000000000E+00  0.00000000000E+00  0.20894283264E+03  0.20894283264E+03  0.00000000000E+00 0. -1.
         21   -1    0    0  502  503 -0.00000000000E+00 -0.00000000000E+00 -0.93567352118E+03  0.93567352118E+03  0.00000000000E+00 0. -1.
    9000007    1    1    2  501    0  0.70252211590E+02  0.16530244573E+03 -0.28966647490E+03  0.52551587843E+03  0.40000000000E+03 0.  1.
   -9000007    1    1    2    0  503 -0.70252211590E+02 -0.16530244573E+03 -0.43706421364E+03  0.61910047540E+03  0.40000000000E+03 0.  1.
<mgrwt>
<rscale>  2 0.43847494E+03</rscale>
<asrwt>0</asrwt>
<pdfrwt beam="1">  1       21 0.32145051E-01 0.43847494E+03</pdfrwt>
<pdfrwt beam="2">  1       21 0.14394977E+00 0.43847494E+03</pdfrwt>
<totfact> 0.26832378E+03</totfact>
</mgrwt>
</event>
<event>
 4    1  0.4656600E-002  0.4812717E+03  0.7818608E-02  0.1018786E+00
         21   -1    0    0  503  502  0.00000000000E+00  0.00000000000E+00  0.13915292504E+04  0.13915292504E+04  0.00000000000E+00 0. -1.
         21   -1    0    0  501  503 -0.00000000000E+00 -0.00000000000E+00 -0.18331044772E+03  0.18331044772E+03  0.00000000000E+00 0. -1.
    9000007    1    1    2  501    0  0.13353687015E+03  0.23192739809E+03  0.84290447598E+03  0.97062370118E+03  0.40000000000E+03 0. -1.
   -9000007    1    1    2    0  502 -0.13353687015E+03 -0.23192739809E+03  0.36531432671E+03  0.60421599696E+03  0.40000000000E+03 0. -1.
<mgrwt>
<rscale>  2 0.48127166E+03</rscale>
<asrwt>0</asrwt>
<pdfrwt beam="1">  1       21 0.21408142E+00 0.48127166E+03</pdfrwt>
<pdfrwt beam="2">  1       21 0.28201608E-01 0.48127166E+03</pdfrwt>
<totfact> 0.10791941E+03</totfact>
</mgrwt>
</event>
<event>
 4    1  0.4656600E-002  0.6801610E+03  0.7818608E-02  0.9751774E-01
         21   -1    0    0  503  502  0.00000000000E+00  0.00000000000E+00  0.14458951500E+04  0.14458951500E+04  0.00000000000E+00 0. -1.
         21   -1    0    0  501  503 -0.00000000000E+00 -0.00000000000E+00 -0.35273105928E+03  0.35273105928E+03  0.00000000000E+00 0. -1.
    9000007    1    1    2  501    0 -0.40857924574E+03 -0.36835038671E+03  0.27243831237E+03  0.73269478058E+03  0.40000000000E+03 0. -1.
   -9000007    1    1    2    0  502  0.40857924574E+03  0.36835038671E+03  0.82072577834E+03  0.10659314287E+04  0.40000000000E+03 0. -1.
<mgrwt>
<rscale>  2 0.68016102E+03</rscale>
<asrwt>0</asrwt>
<pdfrwt beam="1">  1       21 0.22244540E+00 0.68016102E+03</pdfrwt>
<pdfrwt beam="2">  1       21 0.54266318E-01 0.68016102E+03</pdfrwt>
<totfact> 0.22794693E+02</totfact>
</mgrwt>
</event>
<event>
 4    1  0.4656600E-002  0.5065721E+03  0.7818608E-02  0.1012078E+00
         21   -1    0    0  503  502  0.00000000000E+00  0.00000000000E+00  0.77448112192E+03  0.77448112192E+03  0.00000000000E+00 0. -1.
         21   -1    0    0  501  503 -0.00000000000E+00 -0.00000000000E+00 -0.33281094487E+03  0.33281094487E+03  0.00000000000E+00 0. -1.
    9000007    1    1    2  501    0  0.11659528012E+03 -0.28813331747E+03  0.25766329486E+03  0.56833585273E+03  0.40000000000E+03 0. -1.
   -9000007    1    1    2    0  502 -0.11659528012E+03  0.28813331747E+03  0.18400688220E+03  0.53895621406E+03  0.40000000000E+03 0. -1.
<mgrwt>
<rscale>  2 0.50657208E+03</rscale>
<asrwt>0</asrwt>
<pdfrwt beam="1">  1       21 0.11915094E+00 0.50657208E+03</pdfrwt>
<pdfrwt beam="2">  1       21 0.51201684E-01 0.50657208E+03</pdfrwt>
<totfact> 0.16369057E+03</totfact>
</mgrwt>
</event>
<event>
 4    1  0.4656600E-002  0.5857013E+03  0.7818608E-02  0.9935523E-01
         21   -1    0    0  503  502  0.00000000000E+00  0.00000000000E+00  0.68764887576E+03  0.68764887576E+03  0.00000000000E+00 0.  1.
         21   -1    0    0  501  503 -0.00000000000E+00 -0.00000000000E+00 -0.51349339769E+03  0.51349339769E+03  0.00000000000E+00 0.  1.
    9000007    1    1    2  501    0 -0.16153892048E+03  0.39617072361E+03 -0.14278358165E+02  0.58587535926E+03  0.40000000000E+03 0.  1.
   -9000007    1    1    2    0  502  0.16153892048E+03 -0.39617072361E+03  0.18843383623E+03  0.61526691420E+03  0.40000000000E+03 0.  1.
<mgrwt>
<rscale>  2 0.58570134E+03</rscale>
<asrwt>0</asrwt>
<pdfrwt beam="1">  1       21 0.10579213E+00 0.58570134E+03</pdfrwt>
<pdfrwt beam="2">  1       21 0.78998984E-01 0.58570134E+03</pdfrwt>
<totfact> 0.81835391E+02</totfact>
</mgrwt>
</event>
<event>
 4    1  0.4656600E-002  0.4299124E+03  0.7818608E-02  0.1033888E+00
         21   -1    0    0  503  502  0.00000000000E+00  0.00000000000E+00  0.18830303473E+03  0.18830303473E+03  0.00000000000E+00 0. -1.
         21   -1    0    0  501  503 -0.00000000000E+00 -0.00000000000E+00 -0.11153464491E+04  0.11153464491E+04  0.00000000000E+00 0. -1.
    9000007    1    1    2  501    0 -0.11416779694E+03 -0.10858337917E+03 -0.68930120517E+03  0.81237970651E+03  0.40000000000E+03 0.  1.
   -9000007    1    1    2    0  502  0.11416779694E+03  0.10858337917E+03 -0.23774220921E+03  0.49126977734E+03  0.40000000000E+03 0.  1.
<mgrwt>
<rscale>  2 0.42991236E+03</rscale>
<asrwt>0</asrwt>
<pdfrwt beam="1">  1       21 0.28969698E-01 0.42991236E+03</pdfrwt>
<pdfrwt beam="2">  1       21 0.17159176E+00 0.42991236E+03</pdfrwt>
<totfact> 0.20383868E+03</totfact>
</mgrwt>
</event>
<event>
 4    1  0.4656600E-002  0.4493963E+03  0.7818608E-02  0.1027902E+00
         21   -1    0    0  501  502  0.00000000000E+00  0.00000000000E+00  0.54419060161E+03  0.54419060161E+03  0.00000000000E+00 0. -1.
         21   -1    0    0  502  503 -0.00000000000E+00 -0.00000000000E+00 -0.65375385563E+03  0.65375385563E+03  0.00000000000E+00 0. -1.
    9000007    1    1    2  501    0  0.33644744412E+02 -0.20205206455E+03  0.33905481283E+03  0.56295219310E+03  0.40000000000E+03 0. -1.
   -9000007    1    1    2    0  503 -0.33644744412E+02  0.20205206455E+03 -0.44861806684E+03  0.63499226414E+03  0.40000000000E+03 0. -1.
<mgrwt>
<rscale>  2 0.44939627E+03</rscale>
<asrwt>0</asrwt>
<pdfrwt beam="1">  1       21 0.83721631E-01 0.44939627E+03</pdfrwt>
<pdfrwt beam="2">  1       21 0.10057752E+00 0.44939627E+03</pdfrwt>
<totfact> 0.85119244E+02</totfact>
</mgrwt>
</event>
<event>
 4    1  0.4656600E-002  0.4624703E+03  0.7818608E-02  0.1024067E+00
         21   -1    0    0  501  502  0.00000000000E+00  0.00000000000E+00  0.40649209818E+03  0.40649209818E+03  0.00000000000E+00 0.  1.
         21   -1    0    0  502  503 -0.00000000000E+00 -0.00000000000E+00 -0.74556632165E+03  0.74556632165E+03  0.00000000000E+00 0.  1.
    9000007    1    1    2  501    0  0.23185063181E+03 -0.11136473162E+02  0.14294756358E+03  0.48405861467E+03  0.40000000000E+03 0.  1.
   -9000007    1    1    2    0  503 -0.23185063181E+03  0.11136473162E+02 -0.48202178705E+03  0.66799980516E+03  0.40000000000E+03 0.  1.
<mgrwt>
<rscale>  2 0.46247025E+03</rscale>
<asrwt>0</asrwt>
<pdfrwt beam="1">  1       21 0.62537247E-01 0.46247025E+03</pdfrwt>
<pdfrwt beam="2">  1       21 0.11470251E+00 0.46247025E+03</pdfrwt>
<totfact> 0.11856636E+03</totfact>
</mgrwt>
</event>
<event>
 4    1  0.4656600E-002  0.4154945E+03  0.7818608E-02  0.1038543E+00
         21   -1    0    0  501  502  0.00000000000E+00  0.00000000000E+00  0.19523012121E+04  0.19523012121E+04  0.00000000000E+00 0.  1.
         21   -1    0    0  502  503 -0.00000000000E+00 -0.00000000000E+00 -0.94907698383E+02  0.94907698383E+02  0.00000000000E+00 0.  1.
    9000007    1    1    2  501    0  0.50981424932E+02  0.10018285291E+03  0.11961819363E+04  0.12662886458E+04  0.40000000000E+03 0.  1.
   -9000007    1    1    2    0  503 -0.50981424932E+02 -0.10018285291E+03  0.66121157737E+03  0.78092026466E+03  0.40000000000E+03 0.  1.
<mgrwt>
<rscale>  2 0.41549454E+03</rscale>
<asrwt>0</asrwt>
<pdfrwt beam="1">  1       21 0.30035400E+00 0.41549454E+03</pdfrwt>
<pdfrwt beam="2">  1       21 0.14601186E-01 0.41549454E+03</pdfrwt>
<totfact> 0.11545746E+03</totfact>
</mgrwt>
</event>
<event>
 4    1  0.4656600E-002  0.4814974E+03  0.7818608E-02  0.1018724E+00
         21   -1    0    0  501  502  0.00000000000E+00  0.00000000000E+00  0.38757524125E+03  0.38757524125E+03  0.00000000000E+00 0. -1.
         21   -1    0    0  502  503 -0.00000000000E+00 -0.00000000000E+00 -0.14433672404E+04  0.14433672404E+04  0.00000000000E+00 0. -1.
    9000007    1    1    2  501    0 -0.22896161596E+03 -0.13934240621E+03  0.17264372866E+03  0.51151303483E+03  0.40000000000E+03 0. -1.
   -9000007    1    1    2    0  503  0.22896161596E+03  0.13934240621E+03 -0.12284357278E+04  0.13194294468E+04  0.40000000000E+03 0. -1.
<mgrwt>
<rscale>  2 0.48149738E+03</rscale>
<asrwt>0</asrwt>
<pdfrwt beam="1">  1       21 0.59626961E-01 0.48149738E+03</pdfrwt>
<pdfrwt beam="2">  1       21 0.22205650E+00 0.48149738E+03</pdfrwt>
<totfact> 0.20283269E+02</totfact>
</mgrwt>
</event>
<event>
 4    1  0.4656600E-002  0.4041190E+03  0.7818608E-02  0.1042363E+00
         21   -1    0    0  503  502  0.00000000000E+00  0.00000000000E+00  0.49842663755E+03  0.49842663755E+03  0.00000000000E+00 0. -1.
         21   -1    0    0  501  503 -0.00000000000E+00 -0.00000000000E+00 -0.39236292542E+03  0.39236292542E+03  0.00000000000E+00 0. -1.
    9000007    1    1    2  501    0  0.12698245616E+02  0.56133403335E+02 -0.12784307100E+03  0.42385853208E+03  0.40000000000E+03 0. -1.
   -9000007    1    1    2    0  502 -0.12698245616E+02 -0.56133403335E+02  0.23390678313E+03  0.46693103089E+03  0.40000000000E+03 0. -1.
<mgrwt>
<rscale>  2 0.40411905E+03</rscale>
<asrwt>0</asrwt>
<pdfrwt beam="1">  1       21 0.76681021E-01 0.40411905E+03</pdfrwt>
<pdfrwt beam="2">  1       21 0.60363527E-01 0.40411905E+03</pdfrwt>
<totfact> 0.34355582E+03</totfact>
</mgrwt>
</event>
<event>
 4    1  0.4656600E-002  0.4824935E+03  0.7818608E-02  0.1018452E+00
         21   -1    0    0  503  502  0.00000000000E+00  0.00000000000E+00  0.30861719049E+03  0.30861719049E+03  0.00000000000E+00 0. -1.
         21   -1    0    0  501  503 -0.00000000000E+00 -0.00000000000E+00 -0.76233935005E+03  0.76233935005E+03  0.00000000000E+00 0.  1.
    9000007    1    1    2  501    0  0.80665265924E+02  0.25747445657E+03 -0.28173906686E+03  0.55872791474E+03  0.40000000000E+03 0. -1.
   -9000007    1    1    2    0  502 -0.80665265924E+02 -0.25747445657E+03 -0.17198309270E+03  0.51222862580E+03  0.40000000000E+03 0. -1.
<mgrwt>
<rscale>  2 0.48249350E+03</rscale>
<asrwt>0</asrwt>
<pdfrwt beam="1">  1       21 0.47479568E-01 0.48249350E+03</pdfrwt>
<pdfrwt beam="2">  1       21 0.11728298E+00 0.48249350E+03</pdfrwt>
<totfact> 0.20173363E+03</totfact>
</mgrwt>
</event>
<event>
 4    1  0.4656600E-002  0.4371562E+03  0.7818608E-02  0.1031623E+00
         21   -1    0    0  503  502  0.00000000000E+00  0.00000000000E+00  0.13769204827E+03  0.13769204827E+03  0.00000000000E+00 0. -1.
         21   -1    0    0  501  503 -0.00000000000E+00 -0.00000000000E+00 -0.14652610747E+04  0.14652610747E+04  0.00000000000E+00 0. -1.
    9000007    1    1    2  501    0 -0.17484501033E+03 -0.23125792169E+02 -0.84792011415E+03  0.95397803952E+03  0.40000000000E+03 0. -1.
   -9000007    1    1    2    0  502  0.17484501033E+03  0.23125792169E+02 -0.47964891229E+03  0.64897508347E+03  0.40000000000E+03 0. -1.
<mgrwt>
<rscale>  2 0.43715624E+03</rscale>
<asrwt>0</asrwt>
<pdfrwt beam="1">  1       21 0.21183391E-01 0.43715624E+03</pdfrwt>
<pdfrwt beam="2">  1       21 0.22542479E+00 0.43715624E+03</pdfrwt>
<totfact> 0.16239635E+03</totfact>
</mgrwt>
</event>
<event>
 4    1  0.4656600E-002  0.4152394E+03  0.7818608E-02  0.1038627E+00
         21   -1    0    0  501  502  0.00000000000E+00  0.00000000000E+00  0.22032020448E+03  0.22032020448E+03  0.00000000000E+00 0. -1.
         21   -1    0    0  502  503 -0.00000000000E+00 -0.00000000000E+00 -0.15569023976E+04  0.15569023976E+04  0.00000000000E+00 0. -1.
    9000007    1    1    2  501    0 -0.63330395075E+02 -0.91722514582E+02 -0.41626794965E+02  0.41732067847E+03  0.40000000000E+03 0. -1.
   -9000007    1    1    2    0  503  0.63330395075E+02  0.91722514582E+02 -0.12949553981E+04  0.13599019236E+04  0.40000000000E+03 0. -1.
<mgrwt>
<rscale>  2 0.41523940E+03</rscale>
<asrwt>0</asrwt>
<pdfrwt beam="1">  1       21 0.33895416E-01 0.41523940E+03</pdfrwt>
<pdfrwt beam="2">  1       21 0.23952344E+00 0.41523940E+03</pdfrwt>
<totfact> 0.53343887E+02</totfact>
</mgrwt>
</event>
<event>
 4    1  0.4656600E-002  0.4314885E+03  0.7818608E-02  0.1033391E+00
         21   -1    0    0  503  502  0.00000000000E+00  0.00000000000E+00  0.92036427955E+03  0.92036427955E+03  0.00000000000E+00 0. -1.
         21   -1    0    0  501  503 -0.00000000000E+00 -0.00000000000E+00 -0.25851356155E+03  0.25851356155E+03  0.00000000000E+00 0. -1.
    9000007    1    1    2  501    0  0.15315746602E+03 -0.52202800936E+02  0.56041936661E+02  0.43511267562E+03  0.40000000000E+03 0. -1.
   -9000007    1    1    2    0  502 -0.15315746602E+03  0.52202800936E+02  0.60580878134E+03  0.74376516547E+03  0.40000000000E+03 0. -1.
<mgrwt>
<rscale>  2 0.43148852E+03</rscale>
<asrwt>0</asrwt>
<pdfrwt beam="1">  1       21 0.14159450E+00 0.43148852E+03</pdfrwt>
<pdfrwt beam="2">  1       21 0.39771318E-01 0.43148852E+03</pdfrwt>
<totfact> 0.18261113E+03</totfact>
</mgrwt>
</event>
<event>
 4    1  0.4656600E-002  0.4006104E+03  0.7818608E-02  0.1043569E+00
         21   -1    0    0  501  502  0.00000000000E+00  0.00000000000E+00  0.43563282173E+03  0.43563282173E+03  0.00000000000E+00 0. -1.
         21   -1    0    0  502  503 -0.00000000000E+00 -0.00000000000E+00 -0.42924102924E+03  0.42924102924E+03  0.00000000000E+00 0. -1.
    9000007    1    1    2  501    0 -0.21160050359E+02  0.63985191969E+01  0.16599712355E+03  0.43364009709E+03  0.40000000000E+03 0. -1.
   -9000007    1    1    2    0  503  0.21160050359E+02 -0.63985191969E+01 -0.15960533106E+03  0.43123375387E+03  0.40000000000E+03 0. -1.
<mgrwt>
<rscale>  2 0.40061040E+03</rscale>
<asrwt>0</asrwt>
<pdfrwt beam="1">  1       21 0.67020435E-01 0.40061040E+03</pdfrwt>
<pdfrwt beam="2">  1       21 0.66037081E-01 0.40061040E+03</pdfrwt>
<totfact> 0.38238137E+03</totfact>
</mgrwt>
</event>
<event>
 4    1  0.4656600E-002  0.4048349E+03  0.7818608E-02  0.1042118E+00
         21   -1    0    0  503  502  0.00000000000E+00  0.00000000000E+00  0.10398491150E+04  0.10398491150E+04  0.00000000000E+00 0. -1.
         21   -1    0    0  501  503 -0.00000000000E+00 -0.00000000000E+00 -0.17543137118E+03  0.17543137118E+03  0.00000000000E+00 0. -1.
    9000007    1    1    2  501    0  0.40646685782E+02  0.47319371056E+02  0.23854181184E+03  0.46988665861E+03  0.40000000000E+03 0. -1.
   -9000007    1    1    2    0  502 -0.40646685782E+02 -0.47319371056E+02  0.62587593200E+03  0.74539382758E+03  0.40000000000E+03 0. -1.
<mgrwt>
<rscale>  2 0.40483487E+03</rscale>
<asrwt>0</asrwt>
<pdfrwt beam="1">  1       21 0.15997678E+00 0.40483487E+03</pdfrwt>
<pdfrwt beam="2">  1       21 0.26989442E-01 0.40483487E+03</pdfrwt>
<totfact> 0.28845696E+03</totfact>
</mgrwt>
</event>
<event>
 4    1  0.4656600E-002  0.5211905E+03  0.7818608E-02  0.1008391E+00
         21   -1    0    0  503  502  0.00000000000E+00  0.00000000000E+00  0.61411441425E+03  0.61411441425E+03  0.00000000000E+00 0. -1.
         21   -1    0    0  501  503 -0.00000000000E+00 -0.00000000000E+00 -0.45149480223E+03  0.45149480223E+03  0.00000000000E+00 0.  1.
    9000007    1    1    2  501    0  0.21304512602E+03 -0.25739330678E+03  0.53876925517E+01  0.52121834900E+03  0.40000000000E+03 0.  1.
   -9000007    1    1    2    0  502 -0.21304512602E+03  0.25739330678E+03  0.15723191946E+03  0.54439086748E+03  0.40000000000E+03 0.  1.
<mgrwt>
<rscale>  2 0.52119050E+03</rscale>
<asrwt>0</asrwt>
<pdfrwt beam="1">  1       21 0.94479141E-01 0.52119050E+03</pdfrwt>
<pdfrwt beam="2">  1       21 0.69460739E-01 0.52119050E+03</pdfrwt>
<totfact> 0.14788109E+03</totfact>
</mgrwt>
</event>
<event>
 4    1  0.4656600E-002  0.5862865E+03  0.7818608E-02  0.9934273E-01
         21   -1    0    0  503  502  0.00000000000E+00  0.00000000000E+00  0.15711822806E+04  0.15711822806E+04  0.00000000000E+00 0. -1.
         21   -1    0    0  501  503 -0.00000000000E+00 -0.00000000000E+00 -0.37703777127E+03  0.37703777127E+03  0.00000000000E+00 0.  1.
    9000007    1    1    2  501    0 -0.23362369229E+03 -0.35937700391E+03 -0.34042103211E+02  0.58727397808E+03  0.40000000000E+03 0.  1.
   -9000007    1    1    2    0  502  0.23362369229E+03  0.35937700391E+03  0.12281866125E+04  0.13609460737E+04  0.40000000000E+03 0. -1.
<mgrwt>
<rscale>  2 0.58628650E+03</rscale>
<asrwt>0</asrwt>
<pdfrwt beam="1">  1       21 0.24172035E+00 0.58628650E+03</pdfrwt>
<pdfrwt beam="2">  1       21 0.58005812E-01 0.58628650E+03</pdfrwt>
<totfact> 0.15403191E+02</totfact>
</mgrwt>
</event>
<event>
 4    1  0.4656600E-002  0.4143969E+03  0.7818608E-02  0.1038905E+00
         21   -1    0    0  501  502  0.00000000000E+00  0.00000000000E+00  0.32891817408E+03  0.32891817408E+03  0.00000000000E+00 0. -1.
         21   -1    0    0  502  503 -0.00000000000E+00 -0.00000000000E+00 -0.56361153763E+03  0.56361153763E+03  0.00000000000E+00 0. -1.
    9000007    1    1    2  501    0 -0.86367093991E+02 -0.65310952875E+02  0.37803174201E+01  0.41441414827E+03  0.40000000000E+03 0. -1.
   -9000007    1    1    2    0  503  0.86367093991E+02  0.65310952875E+02 -0.23847368097E+03  0.47811556344E+03  0.40000000000E+03 0. -1.
<mgrwt>
<rscale>  2 0.41439691E+03</rscale>
<asrwt>0</asrwt>
<pdfrwt beam="1">  1       21 0.50602797E-01 0.41439691E+03</pdfrwt>
<pdfrwt beam="2">  1       21 0.86709466E-01 0.41439691E+03</pdfrwt>
<totfact> 0.37667435E+03</totfact>
</mgrwt>
</event>
<event>
 4    1  0.4656600E-002  0.4115891E+03  0.7818608E-02  0.1039839E+00
         21   -1    0    0  503  502  0.00000000000E+00  0.00000000000E+00  0.11584263427E+04  0.11584263427E+04  0.00000000000E+00 0.  1.
         21   -1    0    0  501  503 -0.00000000000E+00 -0.00000000000E+00 -0.15366253205E+03  0.15366253205E+03  0.00000000000E+00 0.  1.
    9000007    1    1    2  501    0 -0.70755168869E+02 -0.66327287013E+02  0.35817282461E+03  0.54561284370E+03  0.40000000000E+03 0. -1.
   -9000007    1    1    2    0  502  0.70755168869E+02  0.66327287013E+02  0.64659098600E+03  0.76647603100E+03  0.40000000000E+03 0. -1.
<mgrwt>
<rscale>  2 0.41158912E+03</rscale>
<asrwt>0</asrwt>
<pdfrwt beam="1">  1       21 0.17821943E+00 0.41158912E+03</pdfrwt>
<pdfrwt beam="2">  1       21 0.23640390E-01 0.41158912E+03</pdfrwt>
<totfact> 0.27401562E+03</totfact>
</mgrwt>
</event>
<event>
 4    1  0.4656600E-002  0.4026042E+03  0.7818608E-02  0.1042882E+00
         21   -1    0    0  501  502  0.00000000000E+00  0.00000000000E+00  0.51063889982E+03  0.51063889982E+03  0.00000000000E+00 0.  1.
         21   -1    0    0  502  503 -0.00000000000E+00 -0.00000000000E+00 -0.32362021293E+03  0.32362021293E+03  0.00000000000E+00 0.  1.
    9000007    1    1    2  501    0 -0.40833023961E+02 -0.20562155209E+02  0.15121801585E+03  0.43006630465E+03  0.40000000000E+03 0. -1.
   -9000007    1    1    2    0  503  0.40833023961E+02  0.20562155209E+02  0.35800671036E+02  0.40419280810E+03  0.40000000000E+03 0. -1.
<mgrwt>
<rscale>  2 0.40260420E+03</rscale>
<asrwt>0</asrwt>
<pdfrwt beam="1">  1       21 0.78559830E-01 0.40260420E+03</pdfrwt>
<pdfrwt beam="2">  1       21 0.49787725E-01 0.40260420E+03</pdfrwt>
<totfact> 0.49238861E+03</totfact>
</mgrwt>
</event>
<event>
 4    1  0.4656600E-002  0.4953929E+03  0.7818608E-02  0.1014988E+00
         21   -1    0    0  501  502  0.00000000000E+00  0.00000000000E+00  0.14770123399E+04  0.14770123399E+04  0.00000000000E+00 0.  1.
         21   -1    0    0  502  503 -0.00000000000E+00 -0.00000000000E+00 -0.18257200504E+03  0.18257200504E+03  0.00000000000E+00 0.  1.
    9000007    1    1    2  501    0  0.19555673941E+03 -0.21719046850E+03  0.89604222958E+03  0.10238680653E+04  0.40000000000E+03 0.  1.
   -9000007    1    1    2    0  503 -0.19555673941E+03  0.21719046850E+03  0.39839810529E+03  0.63571627967E+03  0.40000000000E+03 0.  1.
<mgrwt>
<rscale>  2 0.49539291E+03</rscale>
<asrwt>0</asrwt>
<pdfrwt beam="1">  1       21 0.22723266E+00 0.49539291E+03</pdfrwt>
<pdfrwt beam="2">  1       21 0.28088002E-01 0.49539291E+03</pdfrwt>
<totfact> 0.89028363E+02</totfact>
</mgrwt>
</event>
<event>
 4    1  0.4656600E-002  0.4136396E+03  0.7818608E-02  0.1039157E+00
         21   -1    0    0  501  502  0.00000000000E+00  0.00000000000E+00  0.18129633271E+03  0.18129633271E+03  0.00000000000E+00 0. -1.
         21   -1    0    0  502  503 -0.00000000000E+00 -0.00000000000E+00 -0.14634656261E+04  0.14634656261E+04  0.00000000000E+00 0. -1.
    9000007    1    1    2  501    0  0.10500266220E+03  0.84933794811E+01 -0.15100537415E+03  0.44034114001E+03  0.40000000000E+03 0. -1.
   -9000007    1    1    2    0  503 -0.10500266220E+03 -0.84933794811E+01 -0.11311639193E+04  0.12044208188E+04  0.40000000000E+03 0. -1.
<mgrwt>
<rscale>  2 0.41363957E+03</rscale>
<asrwt>0</asrwt>
<pdfrwt beam="1">  1       21 0.27891743E-01 0.41363957E+03</pdfrwt>
<pdfrwt beam="2">  1       21 0.22514856E+00 0.41363957E+03</pdfrwt>
<totfact> 0.96767936E+02</totfact>
</mgrwt>
</event>
<event>
 4    1  0.4656600E-002  0.5665794E+03  0.7818608E-02  0.9977277E-01
         21   -1    0    0  501  502  0.00000000000E+00  0.00000000000E+00  0.17305908338E+04  0.17305908338E+04  0.00000000000E+00 0. -1.
         21   -1    0    0  502  503 -0.00000000000E+00 -0.00000000000E+00 -0.33900113145E+03  0.33900113145E+03  0.00000000000E+00 0.  1.
    9000007    1    1    2  501    0  0.40116010084E+03 -0.91013212678E+01  0.13921327565E+04  0.15030122662E+04  0.40000000000E+03 0. -1.
   -9000007    1    1    2    0  503 -0.40116010084E+03  0.91013212678E+01 -0.54305409834E+00  0.56657969912E+03  0.40000000000E+03 0.  1.
<mgrwt>
<rscale>  2 0.56657944E+03</rscale>
<asrwt>0</asrwt>
<pdfrwt beam="1">  1       21 0.26624474E+00 0.56657944E+03</pdfrwt>
<pdfrwt beam="2">  1       21 0.52154021E-01 0.56657944E+03</pdfrwt>
<totfact> 0.13801188E+02</totfact>
</mgrwt>
</event>
<event>
 4    1  0.4656600E-002  0.4612589E+03  0.7818608E-02  0.1024417E+00
         21   -1    0    0  503  502  0.00000000000E+00  0.00000000000E+00  0.23978612991E+03  0.23978612991E+03  0.00000000000E+00 0. -1.
         21   -1    0    0  501  503 -0.00000000000E+00 -0.00000000000E+00 -0.12592742720E+04  0.12592742720E+04  0.00000000000E+00 0. -1.
    9000007    1    1    2  501    0 -0.22687518680E+03 -0.35880663597E+02 -0.91711629420E+03  0.10265778439E+04  0.40000000000E+03 0. -1.
   -9000007    1    1    2    0  502  0.22687518680E+03  0.35880663597E+02 -0.10237184787E+03  0.47248255803E+03  0.40000000000E+03 0. -1.
<mgrwt>
<rscale>  2 0.46125890E+03</rscale>
<asrwt>0</asrwt>
<pdfrwt beam="1">  1       21 0.36890174E-01 0.46125890E+03</pdfrwt>
<pdfrwt beam="2">  1       21 0.19373450E+00 0.46125890E+03</pdfrwt>
<totfact> 0.86655497E+02</totfact>
</mgrwt>
</event>
<event>
 4    1  0.4656600E-002  0.4204022E+03  0.7818608E-02  0.1036935E+00
         21   -1    0    0  501  502  0.00000000000E+00  0.00000000000E+00  0.11539857849E+04  0.11539857849E+04  0.00000000000E+00 0.  1.
         21   -1    0    0  502  503 -0.00000000000E+00 -0.00000000000E+00 -0.18955800767E+03  0.18955800767E+03  0.00000000000E+00 0.  1.
    9000007    1    1    2  501    0 -0.90577802078E+02  0.92377692912E+02  0.77660392056E+03  0.88309208230E+03  0.40000000000E+03 0.  1.
   -9000007    1    1    2    0  503  0.90577802078E+02 -0.92377692912E+02  0.18782385669E+03  0.46045171030E+03  0.40000000000E+03 0.  1.
<mgrwt>
<rscale>  2 0.42040216E+03</rscale>
<asrwt>0</asrwt>
<pdfrwt beam="1">  1       21 0.17753627E+00 0.42040216E+03</pdfrwt>
<pdfrwt beam="2">  1       21 0.29162771E-01 0.42040216E+03</pdfrwt>
<totfact> 0.18315720E+03</totfact>
</mgrwt>
</event>
<event>
 4    1  0.4656600E-002  0.4413249E+03  0.7818608E-02  0.1030341E+00
         21   -1    0    0  501  502  0.00000000000E+00  0.00000000000E+00  0.15449478833E+03  0.15449478833E+03  0.00000000000E+00 0.  1.
         21   -1    0    0  502  503 -0.00000000000E+00 -0.00000000000E+00 -0.13214425347E+04  0.13214425347E+04  0.00000000000E+00 0. -1.
    9000007    1    1    2  501    0  0.17920008044E+03  0.51526749669E+02 -0.42522137635E+03  0.61284654985E+03  0.40000000000E+03 0.  1.
   -9000007    1    1    2    0  503 -0.17920008044E+03 -0.51526749669E+02 -0.74172637006E+03  0.86309077321E+03  0.40000000000E+03 0. -1.
<mgrwt>
<rscale>  2 0.44132491E+03</rscale>
<asrwt>0</asrwt>
<pdfrwt beam="1">  1       21 0.23768429E-01 0.44132491E+03</pdfrwt>
<pdfrwt beam="2">  1       21 0.20329885E+00 0.44132491E+03</pdfrwt>
<totfact> 0.18050548E+03</totfact>
</mgrwt>
</event>
<event>
 4    1  0.4656600E-002  0.4569272E+03  0.7818608E-02  0.1025676E+00
         21   -1    0    0  501  502  0.00000000000E+00  0.00000000000E+00  0.21830967307E+03  0.21830967307E+03  0.00000000000E+00 0.  1.
         21   -1    0    0  502  503 -0.00000000000E+00 -0.00000000000E+00 -0.14373367613E+04  0.14373367613E+04  0.00000000000E+00 0. -1.
    9000007    1    1    2  501    0 -0.90390582695E+01  0.22068244583E+03 -0.13064007047E+03  0.47523601977E+03  0.40000000000E+03 0.  1.
   -9000007    1    1    2    0  503  0.90390582695E+01 -0.22068244583E+03 -0.10883870177E+04  0.11804104146E+04  0.40000000000E+03 0. -1.
<mgrwt>
<rscale>  2 0.45692718E+03</rscale>
<asrwt>0</asrwt>
<pdfrwt beam="1">  1       21 0.33586103E-01 0.45692718E+03</pdfrwt>
<pdfrwt beam="2">  1       21 0.22112874E+00 0.45692718E+03</pdfrwt>
<totfact> 0.69382741E+02</totfact>
</mgrwt>
</event>
<event>
 4    1  0.4656600E-002  0.4040559E+03  0.7818608E-02  0.1042384E+00
         21   -1    0    0  501  502  0.00000000000E+00  0.00000000000E+00  0.53433217815E+03  0.53433217815E+03  0.00000000000E+00 0. -1.
         21   -1    0    0  502  503 -0.00000000000E+00 -0.00000000000E+00 -0.48680056038E+03  0.48680056038E+03  0.00000000000E+00 0. -1.
    9000007    1    1    2  501    0  0.13836164735E+01  0.57090121963E+02  0.33531406071E+03  0.52506829625E+03  0.40000000000E+03 0. -1.
   -9000007    1    1    2    0  503 -0.13836164735E+01 -0.57090121963E+02 -0.28778244294E+03  0.49606444227E+03  0.40000000000E+03 0. -1.
<mgrwt>
<rscale>  2 0.40405593E+03</rscale>
<asrwt>0</asrwt>
<pdfrwt beam="1">  1       21 0.82204950E-01 0.40405593E+03</pdfrwt>
<pdfrwt beam="2">  1       21 0.74892394E-01 0.40405593E+03</pdfrwt>
<totfact> 0.18095651E+03</totfact>
</mgrwt>
</event>
<event>
 4    1  0.4656600E-002  0.4178351E+03  0.7818608E-02  0.1037773E+00
         21   -1    0    0  503  502  0.00000000000E+00  0.00000000000E+00  0.18600694473E+03  0.18600694473E+03  0.00000000000E+00 0.  1.
         21   -1    0    0  501  503 -0.00000000000E+00 -0.00000000000E+00 -0.11064216341E+04  0.11064216341E+04  0.00000000000E+00 0.  1.
    9000007    1    1    2  501    0  0.61687070492E+02 -0.10383088254E+03 -0.71188230108E+03  0.82544688347E+03  0.40000000000E+03 0.  1.
   -9000007    1    1    2    0  502 -0.61687070492E+02  0.10383088254E+03 -0.20853238828E+03  0.46698169535E+03  0.40000000000E+03 0.  1.
<mgrwt>
<rscale>  2 0.41783507E+03</rscale>
<asrwt>0</asrwt>
<pdfrwt beam="1">  1       21 0.28616453E-01 0.41783507E+03</pdfrwt>
<pdfrwt beam="2">  1       21 0.17021871E+00 0.41783507E+03</pdfrwt>
<totfact> 0.21477766E+03</totfact>
</mgrwt>
</event>
<event>
 4    1  0.4656600E-002  0.4722718E+03  0.7818608E-02  0.1021281E+00
         21   -1    0    0  503  502  0.00000000000E+00  0.00000000000E+00  0.34045635455E+03  0.34045635455E+03  0.00000000000E+00 0.  1.
         21   -1    0    0  501  503 -0.00000000000E+00 -0.00000000000E+00 -0.74558990329E+03  0.74558990329E+03  0.00000000000E+00 0.  1.
    9000007    1    1    2  501    0  0.18345061259E+03 -0.17142497657E+03 -0.39172017674E+03  0.61358401765E+03  0.40000000000E+03 0.  1.
   -9000007    1    1    2    0  502 -0.18345061259E+03  0.17142497657E+03 -0.13413372000E+02  0.47246224019E+03  0.40000000000E+03 0.  1.
<mgrwt>
<rscale>  2 0.47227180E+03</rscale>
<asrwt>0</asrwt>
<pdfrwt beam="1">  1       21 0.52377901E-01 0.47227180E+03</pdfrwt>
<pdfrwt beam="2">  1       21 0.11470614E+00 0.47227180E+03</pdfrwt>
<totfact> 0.17370538E+03</totfact>
</mgrwt>
</event>
<event>
 4    1  0.4656600E-002  0.4343329E+03  0.7818608E-02  0.1032500E+00
         21   -1    0    0  501  502  0.00000000000E+00  0.00000000000E+00  0.19412862060E+04  0.19412862060E+04  0.00000000000E+00 0.  1.
         21   -1    0    0  502  503 -0.00000000000E+00 -0.00000000000E+00 -0.13006406267E+03  0.13006406267E+03  0.00000000000E+00 0.  1.
    9000007    1    1    2  501    0 -0.36891425975E+00  0.16924807247E+03  0.14264083888E+04  0.14910687234E+04  0.40000000000E+03 0.  1.
   -9000007    1    1    2    0  503  0.36891425975E+00 -0.16924807247E+03  0.38481375448E+03  0.58028154526E+03  0.40000000000E+03 0.  1.
<mgrwt>
<rscale>  2 0.43433287E+03</rscale>
<asrwt>0</asrwt>
<pdfrwt beam="1">  1       21 0.29865940E+00 0.43433287E+03</pdfrwt>
<pdfrwt beam="2">  1       21 0.20009857E-01 0.43433287E+03</pdfrwt>
<totfact> 0.64782203E+02</totfact>
</mgrwt>
</event>
<event>
 4    1  0.4656600E-002  0.4374652E+03  0.7818608E-02  0.1031527E+00
         21   -1    0    0  503  502  0.00000000000E+00  0.00000000000E+00  0.56130219020E+03  0.56130219020E+03  0.00000000000E+00 0.  1.
         21   -1    0    0  501  503 -0.00000000000E+00 -0.00000000000E+00 -0.34272401402E+03  0.34272401402E+03  0.00000000000E+00 0.  1.
    9000007    1    1    2  501    0 -0.16509035076E+03  0.64194677030E+02  0.76765296698E+02  0.44414940195E+03  0.40000000000E+03 0.  1.
   -9000007    1    1    2    0  502  0.16509035076E+03 -0.64194677030E+02  0.14181287948E+03  0.45987680227E+03  0.40000000000E+03 0.  1.
<mgrwt>
<rscale>  2 0.43746518E+03</rscale>
<asrwt>0</asrwt>
<pdfrwt beam="1">  1       21 0.86354183E-01 0.43746518E+03</pdfrwt>
<pdfrwt beam="2">  1       21 0.52726771E-01 0.43746518E+03</pdfrwt>
<totfact> 0.34543756E+03</totfact>
</mgrwt>
</event>
<event>
 4    1  0.4656600E-002  0.4473469E+03  0.7818608E-02  0.1028516E+00
         21   -1    0    0  501  502  0.00000000000E+00  0.00000000000E+00  0.29595542607E+03  0.29595542607E+03  0.00000000000E+00 0.  1.
         21   -1    0    0  502  503 -0.00000000000E+00 -0.00000000000E+00 -0.78868270046E+03  0.78868270046E+03  0.00000000000E+00 0.  1.
    9000007    1    1    2  501    0  0.10116631532E+03  0.17287180964E+03 -0.41538037425E+02  0.44927129274E+03  0.40000000000E+03 0.  1.
   -9000007    1    1    2    0  503 -0.10116631532E+03 -0.17287180964E+03 -0.45118923697E+03  0.63536683379E+03  0.40000000000E+03 0.  1.
<mgrwt>
<rscale>  2 0.44734694E+03</rscale>
<asrwt>0</asrwt>
<pdfrwt beam="1">  1       21 0.45531605E-01 0.44734694E+03</pdfrwt>
<pdfrwt beam="2">  1       21 0.12133580E+00 0.44734694E+03</pdfrwt>
<totfact> 0.20478201E+03</totfact>
</mgrwt>
</event>
<event>
 4    1  0.4656600E-002  0.4222112E+03  0.7818608E-02  0.1036349E+00
         21   -1    0    0  503  502  0.00000000000E+00  0.00000000000E+00  0.43093013168E+03  0.43093013168E+03  0.00000000000E+00 0. -1.
         21   -1    0    0  501  503 -0.00000000000E+00 -0.00000000000E+00 -0.52915329008E+03  0.52915329008E+03  0.00000000000E+00 0.  1.
    9000007    1    1    2  501    0 -0.12935101901E+03  0.39123419021E+02 -0.27337071948E+03  0.50298496827E+03  0.40000000000E+03 0.  1.
   -9000007    1    1    2    0  502  0.12935101901E+03 -0.39123419021E+02  0.17514756108E+03  0.45709845350E+03  0.40000000000E+03 0. -1.
<mgrwt>
<rscale>  2 0.42221124E+03</rscale>
<asrwt>0</asrwt>
<pdfrwt beam="1">  1       21 0.66296944E-01 0.42221124E+03</pdfrwt>
<pdfrwt beam="2">  1       21 0.81408198E-01 0.42221124E+03</pdfrwt>
<totfact> 0.24171389E+03</totfact>
</mgrwt>
</event>
<event>
 4    1  0.4656600E-002  0.5485649E+03  0.7818608E-02  0.1001827E+00
         21   -1    0    0  503  502  0.00000000000E+00  0.00000000000E+00  0.82417756046E+03  0.82417756046E+03  0.00000000000E+00 0.  1.
         21   -1    0    0  501  503 -0.00000000000E+00 -0.00000000000E+00 -0.57305241835E+03  0.57305241835E+03  0.00000000000E+00 0.  1.
    9000007    1    1    2  501    0 -0.24402286667E+03  0.28526533241E+03 -0.29526301134E+03  0.62297970690E+03  0.40000000000E+03 0.  1.
   -9000007    1    1    2    0  502  0.24402286667E+03 -0.28526533241E+03  0.54638815345E+03  0.77425027192E+03  0.40000000000E+03 0.  1.
<mgrwt>
<rscale>  2 0.54856492E+03</rscale>
<asrwt>0</asrwt>
<pdfrwt beam="1">  1       21 0.12679655E+00 0.54856492E+03</pdfrwt>
<pdfrwt beam="2">  1       21 0.88161910E-01 0.54856492E+03</pdfrwt>
<totfact> 0.40521052E+02</totfact>
</mgrwt>
</event>
<event>
 4    1  0.4656600E-002  0.4603162E+03  0.7818608E-02  0.1024690E+00
         21   -1    0    0  501  502  0.00000000000E+00  0.00000000000E+00  0.18808476461E+03  0.18808476461E+03  0.00000000000E+00 0.  1.
         21   -1    0    0  502  503 -0.00000000000E+00 -0.00000000000E+00 -0.17498987537E+04  0.17498987537E+04  0.00000000000E+00 0.  1.
    9000007    1    1    2  501    0 -0.17890605163E+03 -0.14100925351E+03 -0.20258249732E+03  0.50292211435E+03  0.40000000000E+03 0.  1.
   -9000007    1    1    2    0  503  0.17890605163E+03  0.14100925351E+03 -0.13592314918E+04  0.14350614039E+04  0.40000000000E+03 0.  1.
<mgrwt>
<rscale>  2 0.46031618E+03</rscale>
<asrwt>0</asrwt>
<pdfrwt beam="1">  1       21 0.28936118E-01 0.46031618E+03</pdfrwt>
<pdfrwt beam="2">  1       21 0.26921519E+00 0.46031618E+03</pdfrwt>
<totfact> 0.46983088E+02</totfact>
</mgrwt>
</event>
<event>
 4    1  0.4656600E-002  0.5175194E+03  0.7818608E-02  0.1009305E+00
         21   -1    0    0  501  502  0.00000000000E+00  0.00000000000E+00  0.50697458555E+03  0.50697458555E+03  0.00000000000E+00 0.  1.
         21   -1    0    0  502  503 -0.00000000000E+00 -0.00000000000E+00 -0.55390371279E+03  0.55390371279E+03  0.00000000000E+00 0.  1.
    9000007    1    1    2  501    0  0.29227731963E+03  0.14966729452E+03  0.90615414062E+02  0.52539269493E+03  0.40000000000E+03 0.  1.
   -9000007    1    1    2    0  503 -0.29227731963E+03 -0.14966729452E+03 -0.13754454130E+03  0.53548560341E+03  0.40000000000E+03 0.  1.
<mgrwt>
<rscale>  2 0.51751940E+03</rscale>
<asrwt>0</asrwt>
<pdfrwt beam="1">  1       21 0.77996090E-01 0.51751940E+03</pdfrwt>
<pdfrwt beam="2">  1       21 0.85215956E-01 0.51751940E+03</pdfrwt>
<totfact> 0.14524738E+03</totfact>
</mgrwt>
</event>
<event>
 4    1  0.4656600E-002  0.5437765E+03  0.7818608E-02  0.1002945E+00
         21   -1    0    0  503  502  0.00000000000E+00  0.00000000000E+00  0.22613685257E+03  0.22613685257E+03  0.00000000000E+00 0. -1.
         21   -1    0    0  501  503 -0.00000000000E+00 -0.00000000000E+00 -0.14786140384E+04  0.14786140384E+04  0.00000000000E+00 0.  1.
    9000007    1    1    2  501    0 -0.36824639706E+03 -0.93507352030E+01 -0.33634394870E+03  0.63939041049E+03  0.40000000000E+03 0. -1.
   -9000007    1    1    2    0  502  0.36824639706E+03  0.93507352030E+01 -0.91613323714E+03  0.10653604805E+04  0.40000000000E+03 0.  1.
<mgrwt>
<rscale>  2 0.54377647E+03</rscale>
<asrwt>0</asrwt>
<pdfrwt beam="1">  1       21 0.34790285E-01 0.54377647E+03</pdfrwt>
<pdfrwt beam="2">  1       21 0.22747909E+00 0.54377647E+03</pdfrwt>
<totfact> 0.56628067E+02</totfact>
</mgrwt>
</event>
<event>
 4    1  0.4656600E-002  0.4558443E+03  0.7818608E-02  0.1025993E+00
         21   -1    0    0  501  502  0.00000000000E+00  0.00000000000E+00  0.94080525162E+03  0.94080525162E+03  0.00000000000E+00 0.  1.
         21   -1    0    0  502  503 -0.00000000000E+00 -0.00000000000E+00 -0.25080884488E+03  0.25080884488E+03  0.00000000000E+00 0.  1.
    9000007    1    1    2  501    0 -0.22681599367E+02 -0.21743865767E+03  0.55085457186E+03  0.71500684202E+03  0.40000000000E+03 0.  1.
   -9000007    1    1    2    0  503  0.22681599367E+02  0.21743865767E+03  0.13914183488E+03  0.47660725447E+03  0.40000000000E+03 0.  1.
<mgrwt>
<rscale>  2 0.45584430E+03</rscale>
<asrwt>0</asrwt>
<pdfrwt beam="1">  1       21 0.14473927E+00 0.45584430E+03</pdfrwt>
<pdfrwt beam="2">  1       21 0.38585977E-01 0.45584430E+03</pdfrwt>
<totfact> 0.18142434E+03</totfact>
</mgrwt>
</event>
<event>
 4    1  0.4656600E-002  0.5136786E+03  0.7818608E-02  0.1010269E+00
         21   -1    0    0  501  502  0.00000000000E+00  0.00000000000E+00  0.59346166194E+03  0.59346166194E+03  0.00000000000E+00 0. -1.
         21   -1    0    0  502  503 -0.00000000000E+00 -0.00000000000E+00 -0.93298501587E+03  0.93298501587E+03  0.00000000000E+00 0. -1.
    9000007    1    1    2  501    0  0.22088937748E+02  0.32152410872E+03 -0.72194847510E+03  0.88604473609E+03  0.40000000000E+03 0. -1.
   -9000007    1    1    2    0  503 -0.22088937748E+02 -0.32152410872E+03  0.38242512116E+03  0.64040194172E+03  0.40000000000E+03 0. -1.
<mgrwt>
<rscale>  2 0.51367857E+03</rscale>
<asrwt>0</asrwt>
<pdfrwt beam="1">  1       21 0.91301795E-01 0.51367857E+03</pdfrwt>
<pdfrwt beam="2">  1       21 0.14353616E+00 0.51367857E+03</pdfrwt>
<totfact> 0.27255480E+02</totfact>
</mgrwt>
</event>
<event>
 4    1  0.4656600E-002  0.4350072E+03  0.7818608E-02  0.1032290E+00
         21   -1    0    0  501  502  0.00000000000E+00  0.00000000000E+00  0.20029202203E+03  0.20029202203E+03  0.00000000000E+00 0.  1.
         21   -1    0    0  502  503 -0.00000000000E+00 -0.00000000000E+00 -0.11144301308E+04  0.11144301308E+04  0.00000000000E+00 0.  1.
    9000007    1    1    2  501    0 -0.18780189333E+02 -0.16993691637E+03 -0.20058593507E+03  0.47902606234E+03  0.40000000000E+03 0.  1.
   -9000007    1    1    2    0  503  0.18780189333E+02  0.16993691637E+03 -0.71355217365E+03  0.83569609044E+03  0.40000000000E+03 0.  1.
<mgrwt>
<rscale>  2 0.43500719E+03</rscale>
<asrwt>0</asrwt>
<pdfrwt beam="1">  1       21 0.30814158E-01 0.43500719E+03</pdfrwt>
<pdfrwt beam="2">  1       21 0.17145079E+00 0.43500719E+03</pdfrwt>
<totfact> 0.18037178E+03</totfact>
</mgrwt>
</event>
<event>
 4    1  0.4656600E-002  0.4638718E+03  0.7818608E-02  0.1023664E+00
         21   -1    0    0  501  502  0.00000000000E+00  0.00000000000E+00  0.10318393849E+04  0.10318393849E+04  0.00000000000E+00 0.  1.
         21   -1    0    0  502  503 -0.00000000000E+00 -0.00000000000E+00 -0.20916910940E+03  0.20916910940E+03  0.00000000000E+00 0.  1.
    9000007    1    1    2  501    0 -0.22272157555E+03  0.74646879297E+02  0.44543635571E+03  0.64311010239E+03  0.40000000000E+03 0.  1.
   -9000007    1    1    2    0  503  0.22272157555E+03 -0.74646879297E+02  0.37723391977E+03  0.59789839190E+03  0.40000000000E+03 0.  1.
<mgrwt>
<rscale>  2 0.46387181E+03</rscale>
<asrwt>0</asrwt>
<pdfrwt beam="1">  1       21 0.15874452E+00 0.46387181E+03</pdfrwt>
<pdfrwt beam="2">  1       21 0.32179864E-01 0.46387181E+03</pdfrwt>
<totfact> 0.20305431E+03</totfact>
</mgrwt>
</event>
<event>
 4    1  0.4656600E-002  0.5795032E+03  0.7818608E-02  0.9948867E-01
         21   -1    0    0  503  502  0.00000000000E+00  0.00000000000E+00  0.57046804561E+03  0.57046804561E+03  0.00000000000E+00 0.  1.
         21   -1    0    0  501  503 -0.00000000000E+00 -0.00000000000E+00 -0.88760664615E+03  0.88760664615E+03  0.00000000000E+00 0. -1.
    9000007    1    1    2  501    0  0.73764596836E+02 -0.41277443572E+03 -0.58164762131E+03  0.82105901487E+03  0.40000000000E+03 0. -1.
   -9000007    1    1    2    0  502 -0.73764596836E+02  0.41277443572E+03  0.26450902077E+03  0.63701567689E+03  0.40000000000E+03 0.  1.
<mgrwt>
<rscale>  2 0.57950319E+03</rscale>
<asrwt>0</asrwt>
<pdfrwt beam="1">  1       21 0.87764315E-01 0.57950319E+03</pdfrwt>
<pdfrwt beam="2">  1       21 0.13655487E+00 0.57950319E+03</pdfrwt>
<totfact> 0.33340551E+02</totfact>
</mgrwt>
</event>
<event>
 4    1  0.4656600E-002  0.4087378E+03  0.7818608E-02  0.1040795E+00
         21   -1    0    0  503  502  0.00000000000E+00  0.00000000000E+00  0.10820861749E+03  0.10820861749E+03  0.00000000000E+00 0. -1.
         21   -1    0    0  501  503 -0.00000000000E+00 -0.00000000000E+00 -0.19168022075E+04  0.19168022075E+04  0.00000000000E+00 0. -1.
    9000007    1    1    2  501    0 -0.72712291688E+01  0.83748098625E+02 -0.13508654723E+04  0.14113483408E+04  0.40000000000E+03 0. -1.
   -9000007    1    1    2    0  502  0.72712291688E+01 -0.83748098625E+02 -0.45772811779E+03  0.61366248428E+03  0.40000000000E+03 0. -1.
<mgrwt>
<rscale>  2 0.40873783E+03</rscale>
<asrwt>0</asrwt>
<pdfrwt beam="1">  1       21 0.16647480E-01 0.40873783E+03</pdfrwt>
<pdfrwt beam="2">  1       21 0.29489264E+00 0.40873783E+03</pdfrwt>
<totfact> 0.97948148E+02</totfact>
</mgrwt>
</event>
<event>
 4    1  0.4656600E-002  0.5742580E+03  0.7818608E-02  0.9960300E-01
         21   -1    0    0  501  502  0.00000000000E+00  0.00000000000E+00  0.31572537725E+03  0.31572537725E+03  0.00000000000E+00 0.  1.
         21   -1    0    0  502  503 -0.00000000000E+00 -0.00000000000E+00 -0.12445145234E+04  0.12445145234E+04  0.00000000000E+00 0.  1.
    9000007    1    1    2  501    0 -0.41187101387E+03 -0.11599768130E+02 -0.15164117734E+03  0.59394219698E+03  0.40000000000E+03 0.  1.
   -9000007    1    1    2    0  503  0.41187101387E+03  0.11599768130E+02 -0.77714796876E+03  0.96629770363E+03  0.40000000000E+03 0.  1.
<mgrwt>
<rscale>  2 0.57425803E+03</rscale>
<asrwt>0</asrwt>
<pdfrwt beam="1">  1       21 0.48573135E-01 0.57425803E+03</pdfrwt>
<pdfrwt beam="2">  1       21 0.19146377E+00 0.57425803E+03</pdfrwt>
<totfact> 0.48343192E+02</totfact>
</mgrwt>
</event>
<event>
 4    1  0.4656600E-002  0.4320769E+03  0.7818608E-02  0.1033206E+00
         21   -1    0    0  501  502  0.00000000000E+00  0.00000000000E+00  0.34560265848E+03  0.34560265848E+03  0.00000000000E+00 0.  1.
         21   -1    0    0  502  503 -0.00000000000E+00 -0.00000000000E+00 -0.10522292869E+04  0.10522292869E+04  0.00000000000E+00 0.  1.
    9000007    1    1    2  501    0  0.13112358372E+03  0.97452713041E+02  0.13424014582E+03  0.45244982290E+03  0.40000000000E+03 0.  1.
   -9000007    1    1    2    0  503 -0.13112358372E+03 -0.97452713041E+02 -0.84086677428E+03  0.94538212252E+03  0.40000000000E+03 0.  1.
<mgrwt>
<rscale>  2 0.43207687E+03</rscale>
<asrwt>0</asrwt>
<pdfrwt beam="1">  1       21 0.53169640E-01 0.43207687E+03</pdfrwt>
<pdfrwt beam="2">  1       21 0.16188143E+00 0.43207687E+03</pdfrwt>
<totfact> 0.68889743E+02</totfact>
</mgrwt>
</event>
<event>
 4    1  0.4656600E-002  0.4096136E+03  0.7818608E-02  0.1040501E+00
         21   -1    0    0  503  502  0.00000000000E+00  0.00000000000E+00  0.38380456897E+03  0.38380456897E+03  0.00000000000E+00 0.  1.
         21   -1    0    0  501  503 -0.00000000000E+00 -0.00000000000E+00 -0.44764045024E+03  0.44764045024E+03  0.00000000000E+00 0.  1.
    9000007    1    1    2  501    0  0.88151109809E+02 -0.35627819425E+01 -0.95533931930E+02  0.42060675663E+03  0.40000000000E+03 0.  1.
   -9000007    1    1    2    0  502 -0.88151109809E+02  0.35627819425E+01  0.31698050658E+02  0.41083826257E+03  0.40000000000E+03 0.  1.
<mgrwt>
<rscale>  2 0.40961361E+03</rscale>
<asrwt>0</asrwt>
<pdfrwt beam="1">  1       21 0.59046857E-01 0.40961361E+03</pdfrwt>
<pdfrwt beam="2">  1       21 0.68867761E-01 0.40961361E+03</pdfrwt>
<totfact> 0.45877914E+03</totfact>
</mgrwt>
</event>
<event>
 4    1  0.4656600E-002  0.4796776E+03  0.7818608E-02  0.1019224E+00
         21   -1    0    0  503  502  0.00000000000E+00  0.00000000000E+00  0.15547685258E+04  0.15547685258E+04  0.00000000000E+00 0.  1.
         21   -1    0    0  501  503 -0.00000000000E+00 -0.00000000000E+00 -0.15685453578E+03  0.15685453578E+03  0.00000000000E+00 0.  1.
    9000007    1    1    2  501    0 -0.26347768866E+03  0.25886999359E+02  0.49551025400E+03  0.68965284091E+03  0.40000000000E+03 0.  1.
   -9000007    1    1    2    0  502  0.26347768866E+03 -0.25886999359E+02  0.90240373598E+03  0.10219702206E+04  0.40000000000E+03 0.  1.
<mgrwt>
<rscale>  2 0.47967763E+03</rscale>
<asrwt>0</asrwt>
<pdfrwt beam="1">  1       21 0.23919515E+00 0.47967763E+03</pdfrwt>
<pdfrwt beam="2">  1       21 0.24131468E-01 0.47967763E+03</pdfrwt>
<totfact> 0.10150443E+03</totfact>
</mgrwt>
</event>
<event>
 4    1  0.4656600E-002  0.4206178E+03  0.7818608E-02  0.1036865E+00
         21   -1    0    0  503  502  0.00000000000E+00  0.00000000000E+00  0.64437415272E+03  0.64437415272E+03  0.00000000000E+00 0. -1.
         21   -1    0    0  501  503 -0.00000000000E+00 -0.00000000000E+00 -0.36319703475E+03  0.36319703475E+03  0.00000000000E+00 0. -1.
    9000007    1    1    2  501    0 -0.33949355037E+02  0.12556595704E+03 -0.10828697401E+03  0.43433332478E+03  0.40000000000E+03 0. -1.
   -9000007    1    1    2    0  502  0.33949355037E+02 -0.12556595704E+03  0.38946409198E+03  0.57323786268E+03  0.40000000000E+03 0. -1.
<mgrwt>
<rscale>  2 0.42061784E+03</rscale>
<asrwt>0</asrwt>
<pdfrwt beam="1">  1       21 0.99134485E-01 0.42061784E+03</pdfrwt>
<pdfrwt beam="2">  1       21 0.55876467E-01 0.42061784E+03</pdfrwt>
<totfact> 0.22091449E+03</totfact>
</mgrwt>
</event>
<event>
 4    1  0.4656600E-002  0.4370493E+03  0.7818608E-02  0.1031656E+00
         21   -1    0    0  503  502  0.00000000000E+00  0.00000000000E+00  0.17046797375E+04  0.17046797375E+04  0.00000000000E+00 0. -1.
         21   -1    0    0  501  503 -0.00000000000E+00 -0.00000000000E+00 -0.22756854192E+03  0.22756854192E+03  0.00000000000E+00 0. -1.
    9000007    1    1    2  501    0  0.17518815481E+03 -0.17921037978E+02  0.50220832632E+02  0.43992520412E+03  0.40000000000E+03 0. -1.
   -9000007    1    1    2    0  502 -0.17518815481E+03  0.17921037978E+02  0.14268903629E+04  0.14923230753E+04  0.40000000000E+03 0. -1.
<mgrwt>
<rscale>  2 0.43704926E+03</rscale>
<asrwt>0</asrwt>
<pdfrwt beam="1">  1       21 0.26225841E+00 0.43704926E+03</pdfrwt>
<pdfrwt beam="2">  1       21 0.35010546E-01 0.43704926E+03</pdfrwt>
<totfact> 0.35822919E+02</totfact>
</mgrwt>
</event>
<event>
 4    1  0.4656600E-002  0.4249057E+03  0.7818608E-02  0.1035481E+00
         21   -1    0    0  503  502  0.00000000000E+00  0.00000000000E+00  0.15015800490E+03  0.15015800490E+03  0.00000000000E+00 0.  1.
         21   -1    0    0  501  503 -0.00000000000E+00 -0.00000000000E+00 -0.15606473474E+04  0.15606473474E+04  0.00000000000E+00 0. -1.
    9000007    1    1    2  501    0 -0.13341724811E+03 -0.52390044640E+02 -0.11150997473E+04  0.11933114955E+04  0.40000000000E+03 0. -1.
   -9000007    1    1    2    0  502  0.13341724811E+03  0.52390044640E+02 -0.29538959523E+03  0.51749385681E+03  0.40000000000E+03 0.  1.
<mgrwt>
<rscale>  2 0.42490573E+03</rscale>
<asrwt>0</asrwt>
<pdfrwt beam="1">  1       21 0.23101233E-01 0.42490573E+03</pdfrwt>
<pdfrwt beam="2">  1       21 0.24009958E+00 0.42490573E+03</pdfrwt>
<totfact> 0.11196160E+03</totfact>
</mgrwt>
</event>
<event>
 4    1  0.4656600E-002  0.5271543E+03  0.7818608E-02  0.1006925E+00
         21   -1    0    0  503  502  0.00000000000E+00  0.00000000000E+00  0.25901761053E+03  0.25901761053E+03  0.00000000000E+00 0.  1.
         21   -1    0    0  501  503 -0.00000000000E+00 -0.00000000000E+00 -0.12393105191E+04  0.12393105191E+04  0.00000000000E+00 0. -1.
    9000007    1    1    2  501    0  0.17551076262E+03 -0.29510609403E+03 -0.76469513949E+03  0.92878969143E+03  0.40000000000E+03 0. -1.
   -9000007    1    1    2    0  502 -0.17551076262E+03  0.29510609403E+03 -0.21559776904E+03  0.56953843816E+03  0.40000000000E+03 0.  1.
<mgrwt>
<rscale>  2 0.52715428E+03</rscale>
<asrwt>0</asrwt>
<pdfrwt beam="1">  1       21 0.39848863E-01 0.52715428E+03</pdfrwt>
<pdfrwt beam="2">  1       21 0.19066316E+00 0.52715428E+03</pdfrwt>
<totfact> 0.75512213E+02</totfact>
</mgrwt>
</event>
<event>
 4    1  0.4656600E-002  0.4584236E+03  0.7818608E-02  0.1025239E+00
         21   -1    0    0  501  502  0.00000000000E+00  0.00000000000E+00  0.36739217300E+03  0.36739217300E+03  0.00000000000E+00 0.  1.
         21   -1    0    0  502  503 -0.00000000000E+00 -0.00000000000E+00 -0.65886906814E+03  0.65886906814E+03  0.00000000000E+00 0.  1.
    9000007    1    1    2  501    0 -0.15133443427E+03  0.16507596149E+03  0.40570915485E+02  0.46021536615E+03  0.40000000000E+03 0.  1.
   -9000007    1    1    2    0  503  0.15133443427E+03 -0.16507596149E+03 -0.33204781062E+03  0.56604587499E+03  0.40000000000E+03 0.  1.
<mgrwt>
<rscale>  2 0.45842359E+03</rscale>
<asrwt>0</asrwt>
<pdfrwt beam="1">  1       21 0.56521873E-01 0.45842359E+03</pdfrwt>
<pdfrwt beam="2">  1       21 0.10136447E+00 0.45842359E+03</pdfrwt>
<totfact> 0.20120052E+03</totfact>
</mgrwt>
</event>
<event>
 4    1  0.4656600E-002  0.4279520E+03  0.7818608E-02  0.1034509E+00
         21   -1    0    0  503  502  0.00000000000E+00  0.00000000000E+00  0.20180500556E+04  0.20180500556E+04  0.00000000000E+00 0.  1.
         21   -1    0    0  501  503 -0.00000000000E+00 -0.00000000000E+00 -0.31823066920E+03  0.31823066920E+03  0.00000000000E+00 0.  1.
    9000007    1    1    2  501    0  0.62728529573E+02  0.13859313732E+03 -0.13771957743E+03  0.44956602201E+03  0.40000000000E+03 0.  1.
   -9000007    1    1    2    0  502 -0.62728529573E+02 -0.13859313732E+03  0.18375389638E+04  0.18867147028E+04  0.40000000000E+03 0.  1.
<mgrwt>
<rscale>  2 0.42795201E+03</rscale>
<asrwt>0</asrwt>
<pdfrwt beam="1">  1       21 0.31046923E+00 0.42795201E+03</pdfrwt>
<pdfrwt beam="2">  1       21 0.48958566E-01 0.42795201E+03</pdfrwt>
<totfact> 0.92299321E+01</totfact>
</mgrwt>
</event>
<event>
 4    1  0.4656600E-002  0.4542096E+03  0.7818608E-02  0.1026474E+00
         21   -1    0    0  501  502  0.00000000000E+00  0.00000000000E+00  0.50087122604E+03  0.50087122604E+03  0.00000000000E+00 0. -1.
         21   -1    0    0  502  503 -0.00000000000E+00 -0.00000000000E+00 -0.41773688581E+03  0.41773688581E+03  0.00000000000E+00 0. -1.
    9000007    1    1    2  501    0 -0.20800286923E+03 -0.55146614593E+02 -0.12748633856E+02  0.45438845757E+03  0.40000000000E+03 0. -1.
   -9000007    1    1    2    0  503  0.20800286923E+03  0.55146614593E+02  0.95882974083E+02  0.46421965429E+03  0.40000000000E+03 0. -1.
<mgrwt>
<rscale>  2 0.45420958E+03</rscale>
<asrwt>0</asrwt>
<pdfrwt beam="1">  1       21 0.77057112E-01 0.45420958E+03</pdfrwt>
<pdfrwt beam="2">  1       21 0.64267213E-01 0.45420958E+03</pdfrwt>
<totfact> 0.29049736E+03</totfact>
</mgrwt>
</event>
<event>
 4    1  0.4656600E-002  0.4756825E+03  0.7818608E-02  0.1020329E+00
         21   -1    0    0  503  502  0.00000000000E+00  0.00000000000E+00  0.56645375810E+03  0.56645375810E+03  0.00000000000E+00 0. -1.
         21   -1    0    0  501  503 -0.00000000000E+00 -0.00000000000E+00 -0.71178090297E+03  0.71178090297E+03  0.00000000000E+00 0.  1.
    9000007    1    1    2  501    0 -0.16241476774E+01  0.25743200529E+03 -0.49602383660E+03  0.68725069784E+03  0.40000000000E+03 0.  1.
   -9000007    1    1    2    0  502  0.16241476774E+01 -0.25743200529E+03  0.35069669173E+03  0.59098396323E+03  0.40000000000E+03 0. -1.
<mgrwt>
<rscale>  2 0.47568254E+03</rscale>
<asrwt>0</asrwt>
<pdfrwt beam="1">  1       21 0.87146733E-01 0.47568254E+03</pdfrwt>
<pdfrwt beam="2">  1       21 0.10950475E+00 0.47568254E+03</pdfrwt>
<totfact> 0.62154507E+02</totfact>
</mgrwt>
</event>
<event>
 4    1  0.4656600E-002  0.5918994E+03  0.7818608E-02  0.9922356E-01
         21   -1    0    0  503  502  0.00000000000E+00  0.00000000000E+00  0.10837492099E+04  0.10837492099E+04  0.00000000000E+00 0. -1.
         21   -1    0    0  501  503 -0.00000000000E+00 -0.00000000000E+00 -0.45810439776E+03  0.45810439776E+03  0.00000000000E+00 0. -1.
    9000007    1    1    2  501    0 -0.25733654612E+03 -0.35231062417E+03 -0.10542126947E+03  0.60121420303E+03  0.40000000000E+03 0. -1.
   -9000007    1    1    2    0  502  0.25733654612E+03  0.35231062417E+03  0.73106608159E+03  0.94063940462E+03  0.40000000000E+03 0. -1.
<mgrwt>
<rscale>  2 0.59189938E+03</rscale>
<asrwt>0</asrwt>
<pdfrwt beam="1">  1       21 0.16673065E+00 0.59189938E+03</pdfrwt>
<pdfrwt beam="2">  1       21 0.70477600E-01 0.59189938E+03</pdfrwt>
<totfact> 0.31852739E+02</totfact>
</mgrwt>
</event>
<event>
 4    1  0.4656600E-002  0.4449469E+03  0.7818608E-02  0.1029240E+00
         21   -1    0    0  503  502  0.00000000000E+00  0.00000000000E+00  0.70492967134E+03  0.70492967134E+03  0.00000000000E+00 0. -1.
         21   -1    0    0  501  503 -0.00000000000E+00 -0.00000000000E+00 -0.32017789625E+03  0.32017789625E+03  0.00000000000E+00 0. -1.
    9000007    1    1    2  501    0  0.14565076661E+03  0.12947443785E+03  0.12733996457E+02  0.44512911670E+03  0.40000000000E+03 0. -1.
   -9000007    1    1    2    0  502 -0.14565076661E+03 -0.12947443785E+03  0.37201777864E+03  0.57997845089E+03  0.40000000000E+03 0. -1.
<mgrwt>
<rscale>  2 0.44494694E+03</rscale>
<asrwt>0</asrwt>
<pdfrwt beam="1">  1       21 0.10845072E+00 0.44494694E+03</pdfrwt>
<pdfrwt beam="2">  1       21 0.49258138E-01 0.44494694E+03</pdfrwt>
<totfact> 0.23001670E+03</totfact>
</mgrwt>
</event>
<event>
 4    1  0.4656600E-002  0.4909391E+03  0.7818608E-02  0.1016171E+00
         21   -1    0    0  503  502  0.00000000000E+00  0.00000000000E+00  0.54396573638E+03  0.54396573638E+03  0.00000000000E+00 0.  1.
         21   -1    0    0  501  503 -0.00000000000E+00 -0.00000000000E+00 -0.10595492410E+04  0.10595492410E+04  0.00000000000E+00 0.  1.
    9000007    1    1    2  501    0 -0.24015766526E+03  0.15279244124E+03 -0.86934964951E+03  0.99839373364E+03  0.40000000000E+03 0.  1.
   -9000007    1    1    2    0  502  0.24015766526E+03 -0.15279244124E+03  0.35376614492E+03  0.60512124370E+03  0.40000000000E+03 0.  1.
<mgrwt>
<rscale>  2 0.49093914E+03</rscale>
<asrwt>0</asrwt>
<pdfrwt beam="1">  1       21 0.83687037E-01 0.49093914E+03</pdfrwt>
<pdfrwt beam="2">  1       21 0.16300757E+00 0.49093914E+03</pdfrwt>
<totfact> 0.23834817E+02</totfact>
</mgrwt>
</event>
<event>
 4    1  0.4656600E-002  0.5843307E+03  0.7818608E-02  0.9938459E-01
         21   -1    0    0  501  502  0.00000000000E+00  0.00000000000E+00  0.40010954736E+03  0.40010954736E+03  0.00000000000E+00 0.  1.
         21   -1    0    0  502  503 -0.00000000000E+00 -0.00000000000E+00 -0.11012677872E+04  0.11012677872E+04  0.00000000000E+00 0. -1.
    9000007    1    1    2  501    0  0.10149846525E+03  0.41369116547E+03  0.55831330979E+01  0.58435733093E+03  0.40000000000E+03 0. -1.
   -9000007    1    1    2    0  503 -0.10149846525E+03 -0.41369116547E+03 -0.70674137295E+03  0.91702000364E+03  0.40000000000E+03 0. -1.
<mgrwt>
<rscale>  2 0.58433066E+03</rscale>
<asrwt>0</asrwt>
<pdfrwt beam="1">  1       21 0.61555315E-01 0.58433066E+03</pdfrwt>
<pdfrwt beam="2">  1       21 0.16942581E+00 0.58433066E+03</pdfrwt>
<totfact> 0.41321261E+02</totfact>
</mgrwt>
</event>
<event>
 4    1  0.4656600E-002  0.5173878E+03  0.7818608E-02  0.1009338E+00
         21   -1    0    0  501  502  0.00000000000E+00  0.00000000000E+00  0.32843517741E+03  0.32843517741E+03  0.00000000000E+00 0.  1.
         21   -1    0    0  502  503 -0.00000000000E+00 -0.00000000000E+00 -0.17185178806E+04  0.17185178806E+04  0.00000000000E+00 0. -1.
    9000007    1    1    2  501    0  0.31377426169E+03 -0.96103538008E+02  0.47050883971E+02  0.51952282240E+03  0.40000000000E+03 0.  1.
   -9000007    1    1    2    0  503 -0.31377426169E+03  0.96103538008E+02 -0.14371335872E+04  0.15274302356E+04  0.40000000000E+03 0. -1.
<mgrwt>
<rscale>  2 0.51738784E+03</rscale>
<asrwt>0</asrwt>
<pdfrwt beam="1">  1       21 0.50528490E-01 0.51738784E+03</pdfrwt>
<pdfrwt beam="2">  1       21 0.26438736E+00 0.51738784E+03</pdfrwt>
<totfact> 0.15531052E+02</totfact>
</mgrwt>
</event>
<event>
 4    1  0.4656600E-002  0.4540757E+03  0.7818608E-02  0.1026514E+00
         21   -1    0    0  501  502  0.00000000000E+00  0.00000000000E+00  0.10631506477E+04  0.10631506477E+04  0.00000000000E+00 0.  1.
         21   -1    0    0  502  503 -0.00000000000E+00 -0.00000000000E+00 -0.20011338747E+03  0.20011338747E+03  0.00000000000E+00 0. -1.
    9000007    1    1    2  501    0  0.15787687927E+03  0.14580688268E+03  0.32055606129E+03  0.55582456268E+03  0.40000000000E+03 0. -1.
   -9000007    1    1    2    0  503 -0.15787687927E+03 -0.14580688268E+03  0.54248119897E+03  0.70743947252E+03  0.40000000000E+03 0.  1.
<mgrwt>
<rscale>  2 0.45407572E+03</rscale>
<asrwt>0</asrwt>
<pdfrwt beam="1">  1       21 0.16356164E+00 0.45407572E+03</pdfrwt>
<pdfrwt beam="2">  1       21 0.30786676E-01 0.45407572E+03</pdfrwt>
<totfact> 0.20484234E+03</totfact>
</mgrwt>
</event>
<event>
 4    1  0.4656600E-002  0.4527409E+03  0.7818608E-02  0.1026908E+00
         21   -1    0    0  501  502  0.00000000000E+00  0.00000000000E+00  0.14538839784E+04  0.14538839784E+04  0.00000000000E+00 0. -1.
         21   -1    0    0  502  503 -0.00000000000E+00 -0.00000000000E+00 -0.14733963483E+03  0.14733963483E+03  0.00000000000E+00 0. -1.
    9000007    1    1    2  501    0 -0.20606811727E+03 -0.50102686914E+02  0.81955307843E+03  0.93629140579E+03  0.40000000000E+03 0. -1.
   -9000007    1    1    2    0  503  0.20606811727E+03  0.50102686914E+02  0.48699126517E+03  0.66493220748E+03  0.40000000000E+03 0. -1.
<mgrwt>
<rscale>  2 0.45274093E+03</rscale>
<asrwt>0</asrwt>
<pdfrwt beam="1">  1       21 0.22367445E+00 0.45274093E+03</pdfrwt>
<pdfrwt beam="2">  1       21 0.22667637E-01 0.45274093E+03</pdfrwt>
<totfact> 0.14523642E+03</totfact>
</mgrwt>
</event>
<event>
 4    1  0.4656600E-002  0.4663929E+03  0.7818608E-02  0.1022943E+00
         21   -1    0    0  503  502  0.00000000000E+00  0.00000000000E+00  0.85897544596E+03  0.85897544596E+03  0.00000000000E+00 0. -1.
         21   -1    0    0  501  503 -0.00000000000E+00 -0.00000000000E+00 -0.28204508889E+03  0.28204508889E+03  0.00000000000E+00 0. -1.
    9000007    1    1    2  501    0  0.91842403362E+02 -0.22155648633E+03  0.10612620491E+03  0.47831482839E+03  0.40000000000E+03 0. -1.
   -9000007    1    1    2    0  502 -0.91842403362E+02  0.22155648633E+03  0.47080415215E+03  0.66270570646E+03  0.40000000000E+03 0. -1.
<mgrwt>
<rscale>  2 0.46639286E+03</rscale>
<asrwt>0</asrwt>
<pdfrwt beam="1">  1       21 0.13215007E+00 0.46639286E+03</pdfrwt>
<pdfrwt beam="2">  1       21 0.43391552E-01 0.46639286E+03</pdfrwt>
<totfact> 0.18037832E+03</totfact>
</mgrwt>
</event>
<event>
 4    1  0.4656600E-002  0.4728168E+03  0.7818608E-02  0.1021128E+00
         21   -1    0    0  503  502  0.00000000000E+00  0.00000000000E+00  0.15373972488E+03  0.15373972488E+03  0.00000000000E+00 0.  1.
         21   -1    0    0  501  503 -0.00000000000E+00 -0.00000000000E+00 -0.14919411982E+04  0.14919411982E+04  0.00000000000E+00 0. -1.
    9000007    1    1    2  501    0 -0.25057602409E+03  0.27700927400E+02 -0.53808619284E+03  0.71630470901E+03  0.40000000000E+03 0.  1.
   -9000007    1    1    2    0  502  0.25057602409E+03 -0.27700927400E+02 -0.80011528045E+03  0.92937621405E+03  0.40000000000E+03 0. -1.
<mgrwt>
<rscale>  2 0.47281676E+03</rscale>
<asrwt>0</asrwt>
<pdfrwt beam="1">  1       21 0.23652266E-01 0.47281676E+03</pdfrwt>
<pdfrwt beam="2">  1       21 0.22952941E+00 0.47281676E+03</pdfrwt>
<totfact> 0.12172321E+03</totfact>
</mgrwt>
</event>
<event>
 4    1  0.4656600E-002  0.4049032E+03  0.7818608E-02  0.1042095E+00
         21   -1    0    0  503  502  0.00000000000E+00  0.00000000000E+00  0.11044577041E+03  0.11044577041E+03  0.00000000000E+00 0. -1.
         21   -1    0    0  501  503 -0.00000000000E+00 -0.00000000000E+00 -0.15690827163E+04  0.15690827163E+04  0.00000000000E+00 0. -1.
    9000007    1    1    2  501    0  0.10767957649E+02 -0.61892056893E+02 -0.53423900779E+03  0.67034162414E+03  0.40000000000E+03 0. -1.
   -9000007    1    1    2    0  502 -0.10767957649E+02  0.61892056893E+02 -0.92439793814E+03  0.10091868626E+04  0.40000000000E+03 0. -1.
<mgrwt>
<rscale>  2 0.40490317E+03</rscale>
<asrwt>0</asrwt>
<pdfrwt beam="1">  1       21 0.16991658E-01 0.40490317E+03</pdfrwt>
<pdfrwt beam="2">  1       21 0.24139733E+00 0.40490317E+03</pdfrwt>
<totfact> 0.19896345E+03</totfact>
</mgrwt>
</event>
<event>
 4    1  0.4656600E-002  0.4227067E+03  0.7818608E-02  0.1036189E+00
         21   -1    0    0  503  502  0.00000000000E+00  0.00000000000E+00  0.19628645463E+03  0.19628645463E+03  0.00000000000E+00 0.  1.
         21   -1    0    0  501  503 -0.00000000000E+00 -0.00000000000E+00 -0.12459675857E+04  0.12459675857E+04  0.00000000000E+00 0.  1.
    9000007    1    1    2  501    0  0.92017388200E+01  0.13636829388E+03 -0.15055040876E+03  0.44871640170E+03  0.40000000000E+03 0. -1.
   -9000007    1    1    2    0  502 -0.92017388200E+01 -0.13636829388E+03 -0.89913072235E+03  0.99353763867E+03  0.40000000000E+03 0. -1.
<mgrwt>
<rscale>  2 0.42270673E+03</rscale>
<asrwt>0</asrwt>
<pdfrwt beam="1">  1       21 0.30197916E-01 0.42270673E+03</pdfrwt>
<pdfrwt beam="2">  1       21 0.19168732E+00 0.42270673E+03</pdfrwt>
<totfact> 0.13622216E+03</totfact>
</mgrwt>
</event>
<event>
 4    1  0.4656600E-002  0.5254517E+03  0.7818608E-02  0.1007341E+00
         21   -1    0    0  501  502  0.00000000000E+00  0.00000000000E+00  0.34157428462E+03  0.34157428462E+03  0.00000000000E+00 0.  1.
         21   -1    0    0  502  503 -0.00000000000E+00 -0.00000000000E+00 -0.82277169214E+03  0.82277169214E+03  0.00000000000E+00 0. -1.
    9000007    1    1    2  501    0 -0.32397330105E+03  0.10554993848E+03 -0.16342799293E+03  0.55028010883E+03  0.40000000000E+03 0. -1.
   -9000007    1    1    2    0  503  0.32397330105E+03 -0.10554993848E+03 -0.31776941459E+03  0.61406586793E+03  0.40000000000E+03 0. -1.
<mgrwt>
<rscale>  2 0.52545170E+03</rscale>
<asrwt>0</asrwt>
<pdfrwt beam="1">  1       21 0.52549891E-01 0.52545170E+03</pdfrwt>
<pdfrwt beam="2">  1       21 0.12658026E+00 0.52545170E+03</pdfrwt>
<totfact> 0.13165943E+03</totfact>
</mgrwt>
</event>
<event>
 4    1  0.4656600E-002  0.4051318E+03  0.7818608E-02  0.1042017E+00
         21   -1    0    0  503  502  0.00000000000E+00  0.00000000000E+00  0.25231623242E+03  0.25231623242E+03  0.00000000000E+00 0. -1.
         21   -1    0    0  501  503 -0.00000000000E+00 -0.00000000000E+00 -0.66332863714E+03  0.66332863714E+03  0.00000000000E+00 0. -1.
    9000007    1    1    2  501    0 -0.64216169391E+02  0.28384117193E+01 -0.14183857330E+03  0.42924346689E+03  0.40000000000E+03 0.  1.
   -9000007    1    1    2    0  502  0.64216169391E+02 -0.28384117193E+01 -0.26917383143E+03  0.48640140267E+03  0.40000000000E+03 0.  1.
<mgrwt>
<rscale>  2 0.40513180E+03</rscale>
<asrwt>0</asrwt>
<pdfrwt beam="1">  1       21 0.38817882E-01 0.40513180E+03</pdfrwt>
<pdfrwt beam="2">  1       21 0.10205056E+00 0.40513180E+03</pdfrwt>
<totfact> 0.44544259E+03</totfact>
</mgrwt>
</event>
<event>
 4    1  0.4656600E-002  0.5054022E+03  0.7818608E-02  0.1012378E+00
         21   -1    0    0  503  502  0.00000000000E+00  0.00000000000E+00  0.19942915597E+03  0.19942915597E+03  0.00000000000E+00 0.  1.
         21   -1    0    0  501  503 -0.00000000000E+00 -0.00000000000E+00 -0.12876075384E+04  0.12876075384E+04  0.00000000000E+00 0. -1.
    9000007    1    1    2  501    0  0.25607334526E+03 -0.17279428563E+03 -0.59810054737E+03  0.78304258381E+03  0.40000000000E+03 0. -1.
   -9000007    1    1    2    0  502 -0.25607334526E+03  0.17279428563E+03 -0.49007783507E+03  0.70399411057E+03  0.40000000000E+03 0.  1.
<mgrwt>
<rscale>  2 0.50540224E+03</rscale>
<asrwt>0</asrwt>
<pdfrwt beam="1">  1       21 0.30681408E-01 0.50540224E+03</pdfrwt>
<pdfrwt beam="2">  1       21 0.19809347E+00 0.50540224E+03</pdfrwt>
<totfact> 0.11524263E+03</totfact>
</mgrwt>
</event>
<event>
 4    1  0.4656600E-002  0.4558169E+03  0.7818608E-02  0.1026001E+00
         21   -1    0    0  503  502  0.00000000000E+00  0.00000000000E+00  0.13330549547E+04  0.13330549547E+04  0.00000000000E+00 0. -1.
         21   -1    0    0  501  503 -0.00000000000E+00 -0.00000000000E+00 -0.43827572039E+03  0.43827572039E+03  0.00000000000E+00 0. -1.
    9000007    1    1    2  501    0  0.10251044176E+03 -0.19303018522E+03 -0.26356339077E+03  0.52653081964E+03  0.40000000000E+03 0. -1.
   -9000007    1    1    2    0  502 -0.10251044176E+03  0.19303018522E+03  0.11583426250E+04  0.12447998554E+04  0.40000000000E+03 0. -1.
<mgrwt>
<rscale>  2 0.45581690E+03</rscale>
<asrwt>0</asrwt>
<pdfrwt beam="1">  1       21 0.20508538E+00 0.45581690E+03</pdfrwt>
<pdfrwt beam="2">  1       21 0.67427034E-01 0.45581690E+03</pdfrwt>
<totfact> 0.20177477E+02</totfact>
</mgrwt>
</event>
<event>
 4    1  0.4656600E-002  0.4079218E+03  0.7818608E-02  0.1041071E+00
         21   -1    0    0  503  502  0.00000000000E+00  0.00000000000E+00  0.17449784293E+04  0.17449784293E+04  0.00000000000E+00 0.  1.
         21   -1    0    0  501  503 -0.00000000000E+00 -0.00000000000E+00 -0.10420526266E+03  0.10420526266E+03  0.00000000000E+00 0.  1.
    9000007    1    1    2  501    0  0.92996544486E+01  0.79459079957E+02  0.10897716139E+04  0.11636160876E+04  0.40000000000E+03 0.  1.
   -9000007    1    1    2    0  502 -0.92996544486E+01 -0.79459079957E+02  0.55100155272E+03  0.68556760430E+03  0.40000000000E+03 0.  1.
<mgrwt>
<rscale>  2 0.40792184E+03</rscale>
<asrwt>0</asrwt>
<pdfrwt beam="1">  1       21 0.26845820E+00 0.40792184E+03</pdfrwt>
<pdfrwt beam="2">  1       21 0.16031580E-01 0.40792184E+03</pdfrwt>
<totfact> 0.15149083E+03</totfact>
</mgrwt>
</event>
<event>
 4    1  0.4656600E-002  0.5702425E+03  0.7818608E-02  0.9969142E-01
         21   -1    0    0  501  502  0.00000000000E+00  0.00000000000E+00  0.19135050464E+03  0.19135050464E+03  0.00000000000E+00 0.  1.
         21   -1    0    0  502  503 -0.00000000000E+00 -0.00000000000E+00 -0.26463503788E+04  0.26463503788E+04  0.00000000000E+00 0. -1.
    9000007    1    1    2  501    0 -0.36044450234E+03 -0.18776650856E+03 -0.37874559905E+03  0.68456170635E+03  0.40000000000E+03 0.  1.
   -9000007    1    1    2    0  503  0.36044450234E+03  0.18776650856E+03 -0.20762542751E+04  0.21531391770E+04  0.40000000000E+03 0. -1.
<mgrwt>
<rscale>  2 0.57024249E+03</rscale>
<asrwt>0</asrwt>
<pdfrwt beam="1">  1       21 0.29438539E-01 0.57024249E+03</pdfrwt>
<pdfrwt beam="2">  1       21 0.40713083E+00 0.57024249E+03</pdfrwt>
<totfact> 0.60085354E+01</totfact>
</mgrwt>
</event>
<event>
 4    1  0.4656600E-002  0.4027873E+03  0.7818608E-02  0.1042819E+00
         21   -1    0    0  501  502  0.00000000000E+00  0.00000000000E+00  0.91284012817E+03  0.91284012817E+03  0.00000000000E+00 0. -1.
         21   -1    0    0  502  503 -0.00000000000E+00 -0.00000000000E+00 -0.23147826811E+03  0.23147826811E+03  0.00000000000E+00 0. -1.
    9000007    1    1    2  501    0 -0.47270529611E+02 -0.17561722618E+01  0.61638971146E+03  0.73632456397E+03  0.40000000000E+03 0. -1.
   -9000007    1    1    2    0  503  0.47270529611E+02  0.17561722618E+01  0.64972148602E+02  0.40799383231E+03  0.40000000000E+03 0. -1.
<mgrwt>
<rscale>  2 0.40278727E+03</rscale>
<asrwt>0</asrwt>
<pdfrwt beam="1">  1       21 0.14043694E+00 0.40278727E+03</pdfrwt>
<pdfrwt beam="2">  1       21 0.35612042E-01 0.40278727E+03</pdfrwt>
<totfact> 0.23664754E+03</totfact>
</mgrwt>
</event>
<event>
 4    1  0.4656600E-002  0.5925905E+03  0.7818608E-02  0.9920899E-01
         21   -1    0    0  503  502  0.00000000000E+00  0.00000000000E+00  0.89406158569E+03  0.89406158569E+03  0.00000000000E+00 0.  1.
         21   -1    0    0  501  503 -0.00000000000E+00 -0.00000000000E+00 -0.49873268576E+03  0.49873268576E+03  0.00000000000E+00 0. -1.
    9000007    1    1    2  501    0  0.36072034090E+03  0.24707158091E+03  0.51865537261E+03  0.78750677836E+03  0.40000000000E+03 0.  1.
   -9000007    1    1    2    0  502 -0.36072034090E+03 -0.24707158091E+03 -0.12332647268E+03  0.60528749309E+03  0.40000000000E+03 0. -1.
<mgrwt>
<rscale>  2 0.59259053E+03</rscale>
<asrwt>0</asrwt>
<pdfrwt beam="1">  1       21 0.13754794E+00 0.59259053E+03</pdfrwt>
<pdfrwt beam="2">  1       21 0.76728106E-01 0.59259053E+03</pdfrwt>
<totfact> 0.44563326E+02</totfact>
</mgrwt>
</event>
<event>
 4    1  0.4656600E-002  0.4182986E+03  0.7818608E-02  0.1037621E+00
         21   -1    0    0  503  502  0.00000000000E+00  0.00000000000E+00  0.26771194883E+03  0.26771194883E+03  0.00000000000E+00 0.  1.
         21   -1    0    0  501  503 -0.00000000000E+00 -0.00000000000E+00 -0.15056944421E+04  0.15056944421E+04  0.00000000000E+00 0.  1.
    9000007    1    1    2  501    0 -0.44769685829E+02 -0.11388310725E+03 -0.12860382268E+04  0.13523564647E+04  0.40000000000E+03 0.  1.
   -9000007    1    1    2    0  502  0.44769685829E+02  0.11388310725E+03  0.48055733465E+02  0.42104992626E+03  0.40000000000E+03 0.  1.
<mgrwt>
<rscale>  2 0.41829856E+03</rscale>
<asrwt>0</asrwt>
<pdfrwt beam="1">  1       21 0.41186454E-01 0.41829856E+03</pdfrwt>
<pdfrwt beam="2">  1       21 0.23164530E+00 0.41829856E+03</pdfrwt>
<totfact> 0.40081274E+02</totfact>
</mgrwt>
</event>
<event>
 4    1  0.4656600E-002  0.4318777E+03  0.7818608E-02  0.1033268E+00
         21   -1    0    0  503  502  0.00000000000E+00  0.00000000000E+00  0.12580133644E+04  0.12580133644E+04  0.00000000000E+00 0. -1.
         21   -1    0    0  501  503 -0.00000000000E+00 -0.00000000000E+00 -0.32459069520E+03  0.32459069520E+03  0.00000000000E+00 0. -1.
    9000007    1    1    2  501    0 -0.12135838040E+03 -0.10858388694E+03 -0.11650954265E+03  0.44731732643E+03  0.40000000000E+03 0. -1.
   -9000007    1    1    2    0  502  0.12135838040E+03  0.10858388694E+03  0.10499322118E+04  0.11352867331E+04  0.40000000000E+03 0. -1.
<mgrwt>
<rscale>  2 0.43187766E+03</rscale>
<asrwt>0</asrwt>
<pdfrwt beam="1">  1       21 0.19354051E+00 0.43187766E+03</pdfrwt>
<pdfrwt beam="2">  1       21 0.49937031E-01 0.43187766E+03</pdfrwt>
<totfact> 0.46945887E+02</totfact>
</mgrwt>
</event>
<event>
 4    1  0.4656600E-002  0.4216357E+03  0.7818608E-02  0.1036535E+00
         21   -1    0    0  503  502  0.00000000000E+00  0.00000000000E+00  0.59307178224E+03  0.59307178224E+03  0.00000000000E+00 0. -1.
         21   -1    0    0  501  503 -0.00000000000E+00 -0.00000000000E+00 -0.31414651164E+03  0.31414651164E+03  0.00000000000E+00 0.  1.
    9000007    1    1    2  501    0 -0.10872007873E+03 -0.77179001807E+02  0.42376288637E+02  0.42375984198E+03  0.40000000000E+03 0.  1.
   -9000007    1    1    2    0  502  0.10872007873E+03  0.77179001807E+02  0.23654898196E+03  0.48345845189E+03  0.40000000000E+03 0. -1.
<mgrwt>
<rscale>  2 0.42163569E+03</rscale>
<asrwt>0</asrwt>
<pdfrwt beam="1">  1       21 0.91241812E-01 0.42163569E+03</pdfrwt>
<pdfrwt beam="2">  1       21 0.48330233E-01 0.42163569E+03</pdfrwt>
<totfact> 0.36722829E+03</totfact>
</mgrwt>
</event>
<event>
 4    1  0.4656600E-002  0.5478835E+03  0.7818608E-02  0.1001985E+00
         21   -1    0    0  503  502  0.00000000000E+00  0.00000000000E+00  0.52914162993E+03  0.52914162993E+03  0.00000000000E+00 0.  1.
         21   -1    0    0  501  503 -0.00000000000E+00 -0.00000000000E+00 -0.57235734630E+03  0.57235734630E+03  0.00000000000E+00 0.  1.
    9000007    1    1    2  501    0  0.69422568120E+02  0.36790879964E+03  0.30217382491E+02  0.54871619989E+03  0.40000000000E+03 0.  1.
   -9000007    1    1    2    0  502 -0.69422568120E+02 -0.36790879964E+03 -0.73433098857E+02  0.55278277635E+03  0.40000000000E+03 0.  1.
<mgrwt>
<rscale>  2 0.54788354E+03</rscale>
<asrwt>0</asrwt>
<pdfrwt beam="1">  1       21 0.81406405E-01 0.54788354E+03</pdfrwt>
<pdfrwt beam="2">  1       21 0.88054976E-01 0.54788354E+03</pdfrwt>
<totfact> 0.12053505E+03</totfact>
</mgrwt>
</event>
<event>
 4    1  0.4656600E-002  0.7163812E+03  0.7818608E-02  0.9689621E-01
         21   -1    0    0  501  502  0.00000000000E+00  0.00000000000E+00  0.12153883057E+04  0.12153883057E+04  0.00000000000E+00 0.  1.
         21   -1    0    0  502  503 -0.00000000000E+00 -0.00000000000E+00 -0.17160918862E+04  0.17160918862E+04  0.00000000000E+00 0. -1.
    9000007    1    1    2  501    0  0.48409959374E+03 -0.34474575053E+03  0.10223501429E+04  0.12483596693E+04  0.40000000000E+03 0.  1.
   -9000007    1    1    2    0  503 -0.48409959374E+03  0.34474575053E+03 -0.15230537234E+04  0.16831205226E+04  0.40000000000E+03 0. -1.
<mgrwt>
<rscale>  2 0.71638122E+03</rscale>
<asrwt>0</asrwt>
<pdfrwt beam="1">  1       21 0.18698282E+00 0.71638122E+03</pdfrwt>
<pdfrwt beam="2">  1       21 0.26401414E+00 0.71638122E+03</pdfrwt>
<totfact> 0.55593227E+00</totfact>
</mgrwt>
</event>
<event>
 4    1  0.4656600E-002  0.4191418E+03  0.7818608E-02  0.1037346E+00
         21   -1    0    0  501  502  0.00000000000E+00  0.00000000000E+00  0.24676752535E+03  0.24676752535E+03  0.00000000000E+00 0. -1.
         21   -1    0    0  502  503 -0.00000000000E+00 -0.00000000000E+00 -0.87402687029E+03  0.87402687029E+03  0.00000000000E+00 0. -1.
    9000007    1    1    2  501    0 -0.18799885107E+02 -0.12379998992E+03 -0.72290341864E+02  0.42533018552E+03  0.40000000000E+03 0. -1.
   -9000007    1    1    2    0  503  0.18799885107E+02  0.12379998992E+03 -0.55496900308E+03  0.69546421013E+03  0.40000000000E+03 0. -1.
<mgrwt>
<rscale>  2 0.41914183E+03</rscale>
<asrwt>0</asrwt>
<pdfrwt beam="1">  1       21 0.37964235E-01 0.41914183E+03</pdfrwt>
<pdfrwt beam="2">  1       21 0.13446567E+00 0.41914183E+03</pdfrwt>
<totfact> 0.23139242E+03</totfact>
</mgrwt>
</event>
<event>
 4    1  0.4656600E-002  0.4228221E+03  0.7818608E-02  0.1036152E+00
         21   -1    0    0  503  502  0.00000000000E+00  0.00000000000E+00  0.10627059161E+04  0.10627059161E+04  0.00000000000E+00 0.  1.
         21   -1    0    0  501  503 -0.00000000000E+00 -0.00000000000E+00 -0.26853476037E+03  0.26853476037E+03  0.00000000000E+00 0.  1.
    9000007    1    1    2  501    0  0.83597993113E+02  0.10858121413E+03 -0.97211651890E+01  0.42293380755E+03  0.40000000000E+03 0.  1.
   -9000007    1    1    2    0  502 -0.83597993113E+02 -0.10858121413E+03  0.80389232091E+03  0.90830686892E+03  0.40000000000E+03 0.  1.
<mgrwt>
<rscale>  2 0.42282207E+03</rscale>
<asrwt>0</asrwt>
<pdfrwt beam="1">  1       21 0.16349322E+00 0.42282207E+03</pdfrwt>
<pdfrwt beam="2">  1       21 0.41313041E-01 0.42282207E+03</pdfrwt>
<totfact> 0.11446200E+03</totfact>
</mgrwt>
</event>
<event>
 4    1  0.4656600E-002  0.4316121E+03  0.7818608E-02  0.1033352E+00
         21   -1    0    0  501  502  0.00000000000E+00  0.00000000000E+00  0.60978935302E+03  0.60978935302E+03  0.00000000000E+00 0.  1.
         21   -1    0    0  502  503 -0.00000000000E+00 -0.00000000000E+00 -0.15061876126E+04  0.15061876126E+04  0.00000000000E+00 0.  1.
    9000007    1    1    2  501    0  0.10788704805E+03 -0.12103466404E+03  0.49642036981E+03  0.65781622707E+03  0.40000000000E+03 0.  1.
   -9000007    1    1    2    0  503 -0.10788704805E+03  0.12103466404E+03 -0.13928186294E+04  0.14581607385E+04  0.40000000000E+03 0.  1.
<mgrwt>
<rscale>  2 0.43161210E+03</rscale>
<asrwt>0</asrwt>
<pdfrwt beam="1">  1       21 0.93813748E-01 0.43161210E+03</pdfrwt>
<pdfrwt beam="2">  1       21 0.23172117E+00 0.43161210E+03</pdfrwt>
<totfact> 0.64415498E+01</totfact>
</mgrwt>
</event>
<event>
 4    1  0.4656600E-002  0.4544585E+03  0.7818608E-02  0.1026401E+00
         21   -1    0    0  503  502  0.00000000000E+00  0.00000000000E+00  0.67740665721E+03  0.67740665721E+03  0.00000000000E+00 0.  1.
         21   -1    0    0  501  503 -0.00000000000E+00 -0.00000000000E+00 -0.32286365239E+03  0.32286365239E+03  0.00000000000E+00 0.  1.
    9000007    1    1    2  501    0  0.20355098545E+03  0.71410778318E+02  0.29528505070E+03  0.54196472589E+03  0.40000000000E+03 0.  1.
   -9000007    1    1    2    0  502 -0.20355098545E+03 -0.71410778318E+02  0.59257954109E+02  0.45830558371E+03  0.40000000000E+03 0.  1.
<mgrwt>
<rscale>  2 0.45445847E+03</rscale>
<asrwt>0</asrwt>
<pdfrwt beam="1">  1       21 0.10421641E+00 0.45445847E+03</pdfrwt>
<pdfrwt beam="2">  1       21 0.49671331E-01 0.45445847E+03</pdfrwt>
<totfact> 0.24841914E+03</totfact>
</mgrwt>
</event>
<event>
 4    1  0.4656600E-002  0.4080944E+03  0.7818608E-02  0.1041012E+00
         21   -1    0    0  503  502  0.00000000000E+00  0.00000000000E+00  0.53634689560E+03  0.53634689560E+03  0.00000000000E+00 0. -1.
         21   -1    0    0  501  503 -0.00000000000E+00 -0.00000000000E+00 -0.38537168326E+03  0.38537168326E+03  0.00000000000E+00 0. -1.
    9000007    1    1    2  501    0 -0.32375049239E+01 -0.80812075034E+02 -0.12763499469E+03  0.42758831226E+03  0.40000000000E+03 0.  1.
   -9000007    1    1    2    0  502  0.32375049239E+01  0.80812075034E+02  0.27861020703E+03  0.49413026660E+03  0.40000000000E+03 0.  1.
<mgrwt>
<rscale>  2 0.40809444E+03</rscale>
<asrwt>0</asrwt>
<pdfrwt beam="1">  1       21 0.82514907E-01 0.40809444E+03</pdfrwt>
<pdfrwt beam="2">  1       21 0.59287952E-01 0.40809444E+03</pdfrwt>
<totfact> 0.30135235E+03</totfact>
</mgrwt>
</event>
<event>
 4    1  0.4656600E-002  0.4042772E+03  0.7818608E-02  0.1042309E+00
         21   -1    0    0  501  502  0.00000000000E+00  0.00000000000E+00  0.96643071521E+03  0.96643071521E+03  0.00000000000E+00 0. -1.
         21   -1    0    0  502  503 -0.00000000000E+00 -0.00000000000E+00 -0.39172831971E+03  0.39172831971E+03  0.00000000000E+00 0. -1.
    9000007    1    1    2  501    0 -0.55224199921E+02 -0.19758099088E+02  0.79927053517E+03  0.89569720505E+03  0.40000000000E+03 0. -1.
   -9000007    1    1    2    0  503  0.55224199921E+02  0.19758099088E+02 -0.22456813966E+03  0.46246182987E+03  0.40000000000E+03 0. -1.
<mgrwt>
<rscale>  2 0.40427725E+03</rscale>
<asrwt>0</asrwt>
<pdfrwt beam="1">  1       21 0.14868165E+00 0.40427725E+03</pdfrwt>
<pdfrwt beam="2">  1       21 0.60265895E-01 0.40427725E+03</pdfrwt>
<totfact> 0.67226386E+02</totfact>
</mgrwt>
</event>
<event>
 4    1  0.4656600E-002  0.5298399E+03  0.7818608E-02  0.1006271E+00
         21   -1    0    0  501  502  0.00000000000E+00  0.00000000000E+00  0.26277721168E+03  0.26277721168E+03  0.00000000000E+00 0. -1.
         21   -1    0    0  502  503 -0.00000000000E+00 -0.00000000000E+00 -0.10696738863E+04  0.10696738863E+04  0.00000000000E+00 0.  1.
    9000007    1    1    2  501    0 -0.64953659902E+02 -0.34133750318E+03 -0.37975018325E+03  0.65187458202E+03  0.40000000000E+03 0.  1.
   -9000007    1    1    2    0  503  0.64953659902E+02  0.34133750318E+03 -0.42714649141E+03  0.68057651600E+03  0.40000000000E+03 0. -1.
<mgrwt>
<rscale>  2 0.52983985E+03</rscale>
<asrwt>0</asrwt>
<pdfrwt beam="1">  1       21 0.40427263E-01 0.52983985E+03</pdfrwt>
<pdfrwt beam="2">  1       21 0.16456521E+00 0.52983985E+03</pdfrwt>
<totfact> 0.11252591E+03</totfact>
</mgrwt>
</event>
<event>
 4    1  0.4656600E-002  0.4410110E+03  0.7818608E-02  0.1030437E+00
         21   -1    0    0  503  502  0.00000000000E+00  0.00000000000E+00  0.31929752970E+03  0.31929752970E+03  0.00000000000E+00 0. -1.
         21   -1    0    0  501  503 -0.00000000000E+00 -0.00000000000E+00 -0.91417220185E+03  0.91417220185E+03  0.00000000000E+00 0.  1.
    9000007    1    1    2  501    0 -0.59242530675E+02 -0.17601439891E+03 -0.65370060959E+03  0.78855261907E+03  0.40000000000E+03 0.  1.
   -9000007    1    1    2    0  502  0.59242530675E+02  0.17601439891E+03  0.58825937436E+02  0.44491711248E+03  0.40000000000E+03 0. -1.
<mgrwt>
<rscale>  2 0.44101105E+03</rscale>
<asrwt>0</asrwt>
<pdfrwt beam="1">  1       21 0.49122697E-01 0.44101105E+03</pdfrwt>
<pdfrwt beam="2">  1       21 0.14064188E+00 0.44101105E+03</pdfrwt>
<totfact> 0.11914622E+03</totfact>
</mgrwt>
</event>
<event>
 4    1  0.4656600E-002  0.4347213E+03  0.7818608E-02  0.1032379E+00
         21   -1    0    0  501  502  0.00000000000E+00  0.00000000000E+00  0.43396660093E+03  0.43396660093E+03  0.00000000000E+00 0. -1.
         21   -1    0    0  502  503 -0.00000000000E+00 -0.00000000000E+00 -0.43549705658E+03  0.43549705658E+03  0.00000000000E+00 0. -1.
    9000007    1    1    2  501    0  0.16177661449E+03  0.53018495113E+02  0.21577097066E+01  0.43472668371E+03  0.40000000000E+03 0.  1.
   -9000007    1    1    2    0  503 -0.16177661449E+03 -0.53018495113E+02 -0.36881653534E+01  0.43473697379E+03  0.40000000000E+03 0.  1.
<mgrwt>
<rscale>  2 0.43472133E+03</rscale>
<asrwt>0</asrwt>
<pdfrwt beam="1">  1       21 0.66764092E-01 0.43472133E+03</pdfrwt>
<pdfrwt beam="2">  1       21 0.66999547E-01 0.43472133E+03</pdfrwt>
<totfact> 0.36874861E+03</totfact>
</mgrwt>
</event>
<event>
 4    1  0.4656600E-002  0.5493533E+03  0.7818608E-02  0.1001644E+00
         21   -1    0    0  503  502  0.00000000000E+00  0.00000000000E+00  0.36247146083E+03  0.36247146083E+03  0.00000000000E+00 0. -1.
         21   -1    0    0  501  503 -0.00000000000E+00 -0.00000000000E+00 -0.14403971724E+04  0.14403971724E+04  0.00000000000E+00 0. -1.
    9000007    1    1    2  501    0 -0.33815595907E+03 -0.16564898507E+03 -0.11245303045E+04  0.12515420267E+04  0.40000000000E+03 0. -1.
   -9000007    1    1    2    0  502  0.33815595907E+03  0.16564898507E+03  0.46604592979E+02  0.55132660647E+03  0.40000000000E+03 0. -1.
<mgrwt>
<rscale>  2 0.54935329E+03</rscale>
<asrwt>0</asrwt>
<pdfrwt beam="1">  1       21 0.55764840E-01 0.54935329E+03</pdfrwt>
<pdfrwt beam="2">  1       21 0.22159956E+00 0.54935329E+03</pdfrwt>
<totfact> 0.22890950E+02</totfact>
</mgrwt>
</event>
<event>
 4    1  0.4656600E-002  0.5963367E+03  0.7818608E-02  0.9913036E-01
         21   -1    0    0  503  502  0.00000000000E+00  0.00000000000E+00  0.38086043183E+03  0.38086043183E+03  0.00000000000E+00 0. -1.
         21   -1    0    0  501  503 -0.00000000000E+00 -0.00000000000E+00 -0.10007790341E+04  0.10007790341E+04  0.00000000000E+00 0.  1.
    9000007    1    1    2  501    0  0.12105922754E+03  0.42539640646E+03 -0.13113745744E+03  0.61058535189E+03  0.40000000000E+03 0. -1.
   -9000007    1    1    2    0  502 -0.12105922754E+03 -0.42539640646E+03 -0.48878114479E+03  0.77105411399E+03  0.40000000000E+03 0.  1.
<mgrwt>
<rscale>  2 0.59633668E+03</rscale>
<asrwt>0</asrwt>
<pdfrwt beam="1">  1       21 0.58593913E-01 0.59633668E+03</pdfrwt>
<pdfrwt beam="2">  1       21 0.15396600E+00 0.59633668E+03</pdfrwt>
<totfact> 0.60090780E+02</totfact>
</mgrwt>
</event>
<event>
 4    1  0.4656600E-002  0.5644623E+03  0.7818608E-02  0.9982008E-01
         21   -1    0    0  501  502  0.00000000000E+00  0.00000000000E+00  0.13705023156E+04  0.13705023156E+04  0.00000000000E+00 0. -1.
         21   -1    0    0  502  503 -0.00000000000E+00 -0.00000000000E+00 -0.39303809989E+03  0.39303809989E+03  0.00000000000E+00 0. -1.
    9000007    1    1    2  501    0 -0.12914493064E+02 -0.39805893398E+03  0.10523060810E+04  0.11941380939E+04  0.40000000000E+03 0. -1.
   -9000007    1    1    2    0  503  0.12914493064E+02  0.39805893398E+03 -0.74841865333E+02  0.56940232161E+03  0.40000000000E+03 0. -1.
<mgrwt>
<rscale>  2 0.56446231E+03</rscale>
<asrwt>0</asrwt>
<pdfrwt beam="1">  1       21 0.21084651E+00 0.56446231E+03</pdfrwt>
<pdfrwt beam="2">  1       21 0.60467401E-01 0.56446231E+03</pdfrwt>
<totfact> 0.22375721E+02</totfact>
</mgrwt>
</event>
<event>
 4    1  0.4656600E-002  0.4103835E+03  0.7818608E-02  0.1040242E+00
         21   -1    0    0  501  502  0.00000000000E+00  0.00000000000E+00  0.20453586838E+03  0.20453586838E+03  0.00000000000E+00 0.  1.
         21   -1    0    0  502  503 -0.00000000000E+00 -0.00000000000E+00 -0.14583787671E+04  0.14583787671E+04  0.00000000000E+00 0.  1.
    9000007    1    1    2  501    0  0.89942425041E+02 -0.18026169911E+02 -0.78284799871E+02  0.41778354744E+03  0.40000000000E+03 0.  1.
   -9000007    1    1    2    0  503 -0.89942425041E+02  0.18026169911E+02 -0.11755580988E+04  0.12451310880E+04  0.40000000000E+03 0.  1.
<mgrwt>
<rscale>  2 0.41038346E+03</rscale>
<asrwt>0</asrwt>
<pdfrwt beam="1">  1       21 0.31467057E-01 0.41038346E+03</pdfrwt>
<pdfrwt beam="2">  1       21 0.22436596E+00 0.41038346E+03</pdfrwt>
<totfact> 0.77210065E+02</totfact>
</mgrwt>
</event>
<event>
 4    1  0.4656600E-002  0.7031724E+03  0.7818608E-02  0.9711822E-01
         21   -1    0    0  503  502  0.00000000000E+00  0.00000000000E+00  0.16320319621E+04  0.16320319621E+04  0.00000000000E+00 0. -1.
         21   -1    0    0  501  503 -0.00000000000E+00 -0.00000000000E+00 -0.37287352939E+03  0.37287352939E+03  0.00000000000E+00 0. -1.
    9000007    1    1    2  501    0  0.48332565515E+03  0.31756526388E+03  0.19552613421E+03  0.72985057027E+03  0.40000000000E+03 0. -1.
   -9000007    1    1    2    0  502 -0.48332565515E+03 -0.31756526388E+03  0.10636322985E+04  0.12750549213E+04  0.40000000000E+03 0. -1.
<mgrwt>
<rscale>  2 0.70317237E+03</rscale>
<asrwt>0</asrwt>
<pdfrwt beam="1">  1       21 0.25108184E+00 0.70317237E+03</pdfrwt>
<pdfrwt beam="2">  1       21 0.57365160E-01 0.70317237E+03</pdfrwt>
<totfact> 0.13168287E+02</totfact>
</mgrwt>
</event>
<event>
 4    1  0.4656600E-002  0.4348569E+03  0.7818608E-02  0.1032337E+00
         21   -1    0    0  501  502  0.00000000000E+00  0.00000000000E+00  0.69828526355E+03  0.69828526355E+03  0.00000000000E+00 0. -1.
         21   -1    0    0  502  503 -0.00000000000E+00 -0.00000000000E+00 -0.49628876595E+03  0.49628876595E+03  0.00000000000E+00 0.  1.
    9000007    1    1    2  501    0  0.22026457076E+02  0.16916067711E+03  0.50359625225E+03  0.66536432484E+03  0.40000000000E+03 0. -1.
   -9000007    1    1    2    0  503 -0.22026457076E+02 -0.16916067711E+03 -0.30159975465E+03  0.52920970465E+03  0.40000000000E+03 0.  1.
<mgrwt>
<rscale>  2 0.43485687E+03</rscale>
<asrwt>0</asrwt>
<pdfrwt beam="1">  1       21 0.10742850E+00 0.43485687E+03</pdfrwt>
<pdfrwt beam="2">  1       21 0.76352118E-01 0.43485687E+03</pdfrwt>
<totfact> 0.90131951E+02</totfact>
</mgrwt>
</event>
<event>
 4    1  0.4656600E-002  0.5072255E+03  0.7818608E-02  0.1011910E+00
         21   -1    0    0  501  502  0.00000000000E+00  0.00000000000E+00  0.63127292668E+03  0.63127292668E+03  0.00000000000E+00 0.  1.
         21   -1    0    0  502  503 -0.00000000000E+00 -0.00000000000E+00 -0.50484532307E+03  0.50484532307E+03  0.00000000000E+00 0. -1.
    9000007    1    1    2  501    0  0.20420683394E+03  0.23574836409E+03  0.31258811910E+03  0.59580957898E+03  0.40000000000E+03 0.  1.
   -9000007    1    1    2    0  503 -0.20420683394E+03 -0.23574836409E+03 -0.18616051549E+03  0.54030867078E+03  0.40000000000E+03 0. -1.
<mgrwt>
<rscale>  2 0.50722551E+03</rscale>
<asrwt>0</asrwt>
<pdfrwt beam="1">  1       21 0.97118912E-01 0.50722551E+03</pdfrwt>
<pdfrwt beam="2">  1       21 0.77668511E-01 0.50722551E+03</pdfrwt>
<totfact> 0.10779345E+03</totfact>
</mgrwt>
</event>
<event>
 4    1  0.4656600E-002  0.4876129E+03  0.7818608E-02  0.1017064E+00
         21   -1    0    0  501  502  0.00000000000E+00  0.00000000000E+00  0.52482119383E+03  0.52482119383E+03  0.00000000000E+00 0. -1.
         21   -1    0    0  502  503 -0.00000000000E+00 -0.00000000000E+00 -0.60288626746E+03  0.60288626746E+03  0.00000000000E+00 0. -1.
    9000007    1    1    2  501    0  0.27090905897E+03 -0.66141040351E+02  0.24207207256E+03  0.54439438256E+03  0.40000000000E+03 0. -1.
   -9000007    1    1    2    0  503 -0.27090905897E+03  0.66141040351E+02 -0.32013714619E+03  0.58331307874E+03  0.40000000000E+03 0. -1.
<mgrwt>
<rscale>  2 0.48761292E+03</rscale>
<asrwt>0</asrwt>
<pdfrwt beam="1">  1       21 0.80741723E-01 0.48761292E+03</pdfrwt>
<pdfrwt beam="2">  1       21 0.92751733E-01 0.48761292E+03</pdfrwt>
<totfact> 0.11085543E+03</totfact>
</mgrwt>
</event>
<event>
 4    1  0.4656600E-002  0.4118986E+03  0.7818608E-02  0.1039736E+00
         21   -1    0    0  501  502  0.00000000000E+00  0.00000000000E+00  0.25798085746E+03  0.25798085746E+03  0.00000000000E+00 0.  1.
         21   -1    0    0  502  503 -0.00000000000E+00 -0.00000000000E+00 -0.15150440271E+04  0.15150440271E+04  0.00000000000E+00 0.  1.
    9000007    1    1    2  501    0 -0.35657089795E+02 -0.91591502018E+02  0.38372077853E+02  0.41368206107E+03  0.40000000000E+03 0.  1.
   -9000007    1    1    2    0  503  0.35657089795E+02  0.91591502018E+02 -0.12954352475E+04  0.13593428235E+04  0.40000000000E+03 0.  1.
<mgrwt>
<rscale>  2 0.41189857E+03</rscale>
<asrwt>0</asrwt>
<pdfrwt beam="1">  1       21 0.39689363E-01 0.41189857E+03</pdfrwt>
<pdfrwt beam="2">  1       21 0.23308370E+00 0.41189857E+03</pdfrwt>
<totfact> 0.42525102E+02</totfact>
</mgrwt>
</event>
<event>
 4    1  0.4656600E-002  0.4027963E+03  0.7818608E-02  0.1042816E+00
         21   -1    0    0  501  502  0.00000000000E+00  0.00000000000E+00  0.20047487296E+03  0.20047487296E+03  0.00000000000E+00 0.  1.
         21   -1    0    0  502  503 -0.00000000000E+00 -0.00000000000E+00 -0.85567910590E+03  0.85567910590E+03  0.00000000000E+00 0.  1.
    9000007    1    1    2  501    0  0.18835545842E+02 -0.43475017941E+02 -0.20466292640E+03  0.45180943816E+03  0.40000000000E+03 0. -1.
   -9000007    1    1    2    0  503 -0.18835545842E+02  0.43475017941E+02 -0.45054130654E+03  0.60434454070E+03  0.40000000000E+03 0. -1.
<mgrwt>
<rscale>  2 0.40279629E+03</rscale>
<asrwt>0</asrwt>
<pdfrwt beam="1">  1       21 0.30842288E-01 0.40279629E+03</pdfrwt>
<pdfrwt beam="2">  1       21 0.13164294E+00 0.40279629E+03</pdfrwt>
<totfact> 0.37409100E+03</totfact>
</mgrwt>
</event>
<event>
 4    1  0.4656600E-002  0.4045929E+03  0.7818608E-02  0.1042201E+00
         21   -1    0    0  501  502  0.00000000000E+00  0.00000000000E+00  0.98849711222E+03  0.98849711222E+03  0.00000000000E+00 0. -1.
         21   -1    0    0  502  503 -0.00000000000E+00 -0.00000000000E+00 -0.23260561500E+03  0.23260561500E+03  0.00000000000E+00 0.  1.
    9000007    1    1    2  501    0 -0.55951298138E+02 -0.23766910731E+02  0.70563843589E+03  0.81340089502E+03  0.40000000000E+03 0. -1.
   -9000007    1    1    2    0  503  0.55951298138E+02  0.23766910731E+02  0.50253061324E+02  0.40770183220E+03  0.40000000000E+03 0.  1.
<mgrwt>
<rscale>  2 0.40459290E+03</rscale>
<asrwt>0</asrwt>
<pdfrwt beam="1">  1       21 0.15207648E+00 0.40459290E+03</pdfrwt>
<pdfrwt beam="2">  1       21 0.35785480E-01 0.40459290E+03</pdfrwt>
<totfact> 0.18907115E+03</totfact>
</mgrwt>
</event>
<event>
 4    1  0.4656600E-002  0.4098891E+03  0.7818608E-02  0.1040408E+00
         21   -1    0    0  503  502  0.00000000000E+00  0.00000000000E+00  0.10424264243E+04  0.10424264243E+04  0.00000000000E+00 0. -1.
         21   -1    0    0  501  503 -0.00000000000E+00 -0.00000000000E+00 -0.78814708048E+03  0.78814708048E+03  0.00000000000E+00 0. -1.
    9000007    1    1    2  501    0 -0.83953212677E+02  0.30999104289E+02 -0.68921516142E+03  0.80188940953E+03  0.40000000000E+03 0. -1.
   -9000007    1    1    2    0  502  0.83953212677E+02 -0.30999104289E+02  0.94349450525E+03  0.10286840953E+04  0.40000000000E+03 0. -1.
<mgrwt>
<rscale>  2 0.40988911E+03</rscale>
<asrwt>0</asrwt>
<pdfrwt beam="1">  1       21 0.16037330E+00 0.40988911E+03</pdfrwt>
<pdfrwt beam="2">  1       21 0.12125340E+00 0.40988911E+03</pdfrwt>
<totfact> 0.10566560E+02</totfact>
</mgrwt>
</event>
<event>
 4    1  0.4656600E-002  0.4061099E+03  0.7818608E-02  0.1041684E+00
         21   -1    0    0  503  502  0.00000000000E+00  0.00000000000E+00  0.39269013685E+03  0.39269013685E+03  0.00000000000E+00 0. -1.
         21   -1    0    0  501  503 -0.00000000000E+00 -0.00000000000E+00 -0.47127925970E+03  0.47127925970E+03  0.00000000000E+00 0. -1.
    9000007    1    1    2  501    0  0.15044524648E+02 -0.68548607482E+02 -0.18180601178E+03  0.44494794665E+03  0.40000000000E+03 0. -1.
   -9000007    1    1    2    0  502 -0.15044524648E+02  0.68548607482E+02  0.10321688894E+03  0.41902144990E+03  0.40000000000E+03 0. -1.
<mgrwt>
<rscale>  2 0.40610990E+03</rscale>
<asrwt>0</asrwt>
<pdfrwt beam="1">  1       21 0.60413867E-01 0.40610990E+03</pdfrwt>
<pdfrwt beam="2">  1       21 0.72504501E-01 0.40610990E+03</pdfrwt>
<totfact> 0.38918433E+03</totfact>
</mgrwt>
</event>
<event>
 4    1  0.4656600E-002  0.4960037E+03  0.7818608E-02  0.1014827E+00
         21   -1    0    0  501  502  0.00000000000E+00  0.00000000000E+00  0.75110388646E+03  0.75110388646E+03  0.00000000000E+00 0. -1.
         21   -1    0    0  502  503 -0.00000000000E+00 -0.00000000000E+00 -0.33477419310E+03  0.33477419310E+03  0.00000000000E+00 0.  1.
    9000007    1    1    2  501    0 -0.12626268905E+03  0.26472142884E+03  0.12837551481E+03  0.51234751325E+03  0.40000000000E+03 0.  1.
   -9000007    1    1    2    0  503  0.12626268905E+03 -0.26472142884E+03  0.28795417856E+03  0.57353056630E+03  0.40000000000E+03 0. -1.
<mgrwt>
<rscale>  2 0.49600373E+03</rscale>
<asrwt>0</asrwt>
<pdfrwt beam="1">  1       21 0.11555444E+00 0.49600373E+03</pdfrwt>
<pdfrwt beam="2">  1       21 0.51503722E-01 0.49600373E+03</pdfrwt>
<totfact> 0.17527557E+03</totfact>
</mgrwt>
</event>
<event>
 4    1  0.4656600E-002  0.4137977E+03  0.7818608E-02  0.1039104E+00
         21   -1    0    0  501  502  0.00000000000E+00  0.00000000000E+00  0.72756330681E+02  0.72756330681E+02  0.00000000000E+00 0.  1.
         21   -1    0    0  502  503 -0.00000000000E+00 -0.00000000000E+00 -0.23822257406E+04  0.23822257406E+04  0.00000000000E+00 0.  1.
    9000007    1    1    2  501    0 -0.19998051795E+02 -0.10406055492E+03 -0.10198302929E+04  0.11005827309E+04  0.40000000000E+03 0. -1.
   -9000007    1    1    2    0  503  0.19998051795E+02  0.10406055492E+03 -0.12896391170E+04  0.13543993404E+04  0.40000000000E+03 0. -1.
<mgrwt>
<rscale>  2 0.41379768E+03</rscale>
<asrwt>0</asrwt>
<pdfrwt beam="1">  1       21 0.11193283E-01 0.41379768E+03</pdfrwt>
<pdfrwt beam="2">  1       21 0.36649622E+00 0.41379768E+03</pdfrwt>
<totfact> 0.74596624E+02</totfact>
</mgrwt>
</event>
<event>
 4    1  0.4656600E-002  0.6275811E+03  0.7818608E-02  0.9849780E-01
         21   -1    0    0  501  502  0.00000000000E+00  0.00000000000E+00  0.20494438439E+04  0.20494438439E+04  0.00000000000E+00 0.  1.
         21   -1    0    0  502  503 -0.00000000000E+00 -0.00000000000E+00 -0.24368816010E+03  0.24368816010E+03  0.00000000000E+00 0.  1.
    9000007    1    1    2  501    0 -0.38791269782E+03 -0.28875905605E+03  0.14300205753E+04  0.15616711880E+04  0.40000000000E+03 0.  1.
   -9000007    1    1    2    0  503  0.38791269782E+03  0.28875905605E+03  0.37573510844E+03  0.73146081597E+03  0.40000000000E+03 0.  1.
<mgrwt>
<rscale>  2 0.62758111E+03</rscale>
<asrwt>0</asrwt>
<pdfrwt beam="1">  1       21 0.31529904E+00 0.62758111E+03</pdfrwt>
<pdfrwt beam="2">  1       21 0.37490488E-01 0.62758111E+03</pdfrwt>
<totfact> 0.13489767E+02</totfact>
</mgrwt>
</event>
<event>
 4    1  0.4656600E-002  0.5164798E+03  0.7818608E-02  0.1009565E+00
         21   -1    0    0  501  502  0.00000000000E+00  0.00000000000E+00  0.87940044373E+03  0.87940044373E+03  0.00000000000E+00 0.  1.
         21   -1    0    0  502  503 -0.00000000000E+00 -0.00000000000E+00 -0.10643811594E+04  0.10643811594E+04  0.00000000000E+00 0. -1.
    9000007    1    1    2  501    0 -0.20192191959E+03  0.25686362230E+03  0.72932619647E+03  0.89368231656E+03  0.40000000000E+03 0.  1.
   -9000007    1    1    2    0  503  0.20192191959E+03 -0.25686362230E+03 -0.91430691211E+03  0.10500992865E+04  0.40000000000E+03 0. -1.
<mgrwt>
<rscale>  2 0.51647980E+03</rscale>
<asrwt>0</asrwt>
<pdfrwt beam="1">  1       21 0.13529238E+00 0.51647980E+03</pdfrwt>
<pdfrwt beam="2">  1       21 0.16375095E+00 0.51647980E+03</pdfrwt>
<totfact> 0.70767527E+01</totfact>
</mgrwt>
</event>
<event>
 4    1  0.4656600E-002  0.4848034E+03  0.7818608E-02  0.1017823E+00
         21   -1    0    0  503  502  0.00000000000E+00  0.00000000000E+00  0.18322751633E+04  0.18322751633E+04  0.00000000000E+00 0. -1.
         21   -1    0    0  501  503 -0.00000000000E+00 -0.00000000000E+00 -0.14496960688E+03  0.14496960688E+03  0.00000000000E+00 0. -1.
    9000007    1    1    2  501    0  0.21137281031E+03  0.17422948879E+03  0.11791470786E+04  0.12749204731E+04  0.40000000000E+03 0. -1.
   -9000007    1    1    2    0  502 -0.21137281031E+03 -0.17422948879E+03  0.50815847780E+03  0.70232429707E+03  0.40000000000E+03 0. -1.
<mgrwt>
<rscale>  2 0.48480344E+03</rscale>
<asrwt>0</asrwt>
<pdfrwt beam="1">  1       21 0.28188847E+00 0.48480344E+03</pdfrwt>
<pdfrwt beam="2">  1       21 0.22303018E-01 0.48480344E+03</pdfrwt>
<totfact> 0.64621261E+02</totfact>
</mgrwt>
</event>
<event>
 4    1  0.4656600E-002  0.6106816E+03  0.7818608E-02  0.9883490E-01
         21   -1    0    0  501  502  0.00000000000E+00  0.00000000000E+00  0.65692628593E+03  0.65692628593E+03  0.00000000000E+00 0. -1.
         21   -1    0    0  502  503 -0.00000000000E+00 -0.00000000000E+00 -0.89017345552E+03  0.89017345552E+03  0.00000000000E+00 0. -1.
    9000007    1    1    2  501    0 -0.47357543594E+02 -0.45900902133E+03  0.34896587891E+03  0.70335567336E+03  0.40000000000E+03 0. -1.
   -9000007    1    1    2    0  503  0.47357543594E+02  0.45900902133E+03 -0.58221304850E+03  0.84374406809E+03  0.40000000000E+03 0. -1.
<mgrwt>
<rscale>  2 0.61068160E+03</rscale>
<asrwt>0</asrwt>
<pdfrwt beam="1">  1       21 0.10106558E+00 0.61068160E+03</pdfrwt>
<pdfrwt beam="2">  1       21 0.13694976E+00 0.61068160E+03</pdfrwt>
<totfact> 0.23281593E+02</totfact>
</mgrwt>
</event>
<event>
 4    1  0.4656600E-002  0.4420721E+03  0.7818608E-02  0.1030113E+00
         21   -1    0    0  501  502  0.00000000000E+00  0.00000000000E+00  0.30393704956E+03  0.30393704956E+03  0.00000000000E+00 0. -1.
         21   -1    0    0  502  503 -0.00000000000E+00 -0.00000000000E+00 -0.65700356869E+03  0.65700356869E+03  0.00000000000E+00 0. -1.
    9000007    1    1    2  501    0 -0.28185648778E+02 -0.18610029566E+03 -0.24671019740E+03  0.50625455291E+03  0.40000000000E+03 0. -1.
   -9000007    1    1    2    0  503  0.28185648778E+02  0.18610029566E+03 -0.10635632173E+03  0.45468606534E+03  0.40000000000E+03 0. -1.
<mgrwt>
<rscale>  2 0.44207211E+03</rscale>
<asrwt>0</asrwt>
<pdfrwt beam="1">  1       21 0.46759547E-01 0.44207211E+03</pdfrwt>
<pdfrwt beam="2">  1       21 0.10107747E+00 0.44207211E+03</pdfrwt>
<totfact> 0.30562152E+03</totfact>
</mgrwt>
</event>
<event>
 4    1  0.4656600E-002  0.4126499E+03  0.7818608E-02  0.1039485E+00
         21   -1    0    0  503  502  0.00000000000E+00  0.00000000000E+00  0.84460249595E+03  0.84460249595E+03  0.00000000000E+00 0.  1.
         21   -1    0    0  501  503 -0.00000000000E+00 -0.00000000000E+00 -0.20487979023E+03  0.20487979023E+03  0.00000000000E+00 0.  1.
    9000007    1    1    2  501    0  0.10116300413E+03 -0.67833720354E+01  0.25356611002E+03  0.48433019696E+03  0.40000000000E+03 0.  1.
   -9000007    1    1    2    0  502 -0.10116300413E+03  0.67833720354E+01  0.38615659570E+03  0.56515208921E+03  0.40000000000E+03 0.  1.
<mgrwt>
<rscale>  2 0.41264993E+03</rscale>
<asrwt>0</asrwt>
<pdfrwt beam="1">  1       21 0.12993884E+00 0.41264993E+03</pdfrwt>
<pdfrwt beam="2">  1       21 0.31519968E-01 0.41264993E+03</pdfrwt>
<totfact> 0.36907921E+03</totfact>
</mgrwt>
</event>
<event>
 4    1  0.4656600E-002  0.4563179E+03  0.7818608E-02  0.1025855E+00
         21   -1    0    0  501  502  0.00000000000E+00  0.00000000000E+00  0.14033181919E+03  0.14033181919E+03  0.00000000000E+00 0.  1.
         21   -1    0    0  502  503 -0.00000000000E+00 -0.00000000000E+00 -0.26125364187E+04  0.26125364187E+04  0.00000000000E+00 0.  1.
    9000007    1    1    2  501    0 -0.21755164469E+03  0.29955067982E+02 -0.33137388377E+03  0.56394563129E+03  0.40000000000E+03 0.  1.
   -9000007    1    1    2    0  503  0.21755164469E+03 -0.29955067982E+02 -0.21408307157E+04  0.21889226065E+04  0.40000000000E+03 0.  1.
<mgrwt>
<rscale>  2 0.45631790E+03</rscale>
<asrwt>0</asrwt>
<pdfrwt beam="1">  1       21 0.21589510E-01 0.45631790E+03</pdfrwt>
<pdfrwt beam="2">  1       21 0.40192870E+00 0.45631790E+03</pdfrwt>
<totfact> 0.12765093E+02</totfact>
</mgrwt>
</event>
<event>
 4    1  0.4656600E-002  0.4078063E+03  0.7818608E-02  0.1041110E+00
         21   -1    0    0  501  502  0.00000000000E+00  0.00000000000E+00  0.29916329384E+03  0.29916329384E+03  0.00000000000E+00 0.  1.
         21   -1    0    0  502  503 -0.00000000000E+00 -0.00000000000E+00 -0.55611530899E+03  0.55611530899E+03  0.00000000000E+00 0.  1.
    9000007    1    1    2  501    0  0.79407689697E+02  0.65139277229E+00 -0.13681630358E+03  0.43014498302E+03  0.40000000000E+03 0.  1.
   -9000007    1    1    2    0  503 -0.79407689697E+02 -0.65139277229E+00 -0.12013571157E+03  0.42513361981E+03  0.40000000000E+03 0.  1.
<mgrwt>
<rscale>  2 0.40780633E+03</rscale>
<asrwt>0</asrwt>
<pdfrwt beam="1">  1       21 0.46025123E-01 0.40780633E+03</pdfrwt>
<pdfrwt beam="2">  1       21 0.85556201E-01 0.40780633E+03</pdfrwt>
<totfact> 0.47600573E+03</totfact>
</mgrwt>
</event>
<event>
 4    1  0.4656600E-002  0.4551873E+03  0.7818608E-02  0.1026186E+00
         21   -1    0    0  503  502  0.00000000000E+00  0.00000000000E+00  0.13582517175E+04  0.13582517175E+04  0.00000000000E+00 0.  1.
         21   -1    0    0  501  503 -0.00000000000E+00 -0.00000000000E+00 -0.24308148235E+03  0.24308148235E+03  0.00000000000E+00 0.  1.
    9000007    1    1    2  501    0  0.19246016209E+03 -0.10076982643E+03  0.68948644439E+02  0.46037961236E+03  0.40000000000E+03 0.  1.
   -9000007    1    1    2    0  502 -0.19246016209E+03  0.10076982643E+03  0.10462215907E+04  0.11409535875E+04  0.40000000000E+03 0.  1.
<mgrwt>
<rscale>  2 0.45518729E+03</rscale>
<asrwt>0</asrwt>
<pdfrwt beam="1">  1       21 0.20896180E+00 0.45518729E+03</pdfrwt>
<pdfrwt beam="2">  1       21 0.37397152E-01 0.45518729E+03</pdfrwt>
<totfact> 0.66925654E+02</totfact>
</mgrwt>
</event>
<event>
 4    1  0.4656600E-002  0.5719393E+03  0.7818608E-02  0.9965396E-01
         21   -1    0    0  501  502  0.00000000000E+00  0.00000000000E+00  0.10420044409E+04  0.10420044409E+04  0.00000000000E+00 0.  1.
         21   -1    0    0  502  503 -0.00000000000E+00 -0.00000000000E+00 -0.56957249738E+03  0.56957249738E+03  0.00000000000E+00 0. -1.
    9000007    1    1    2  501    0  0.38195537469E+03  0.14568686806E+03  0.77605540285E+03  0.96404178336E+03  0.40000000000E+03 0.  1.
   -9000007    1    1    2    0  503 -0.38195537469E+03 -0.14568686806E+03 -0.30362345933E+03  0.64753515491E+03  0.40000000000E+03 0. -1.
<mgrwt>
<rscale>  2 0.57193931E+03</rscale>
<asrwt>0</asrwt>
<pdfrwt beam="1">  1       21 0.16030838E+00 0.57193931E+03</pdfrwt>
<pdfrwt beam="2">  1       21 0.87626538E-01 0.57193931E+03</pdfrwt>
<totfact> 0.21659952E+02</totfact>
</mgrwt>
</event>
<event>
 4    1  0.4656600E-002  0.4081932E+03  0.7818608E-02  0.1040979E+00
         21   -1    0    0  501  502  0.00000000000E+00  0.00000000000E+00  0.74618549810E+03  0.74618549810E+03  0.00000000000E+00 0. -1.
         21   -1    0    0  502  503 -0.00000000000E+00 -0.00000000000E+00 -0.29960942356E+03  0.29960942356E+03  0.00000000000E+00 0.  1.
    9000007    1    1    2  501    0 -0.50771195634E+02 -0.63592432634E+02  0.48718454497E+03  0.63558673102E+03  0.40000000000E+03 0. -1.
   -9000007    1    1    2    0  503  0.50771195634E+02  0.63592432634E+02 -0.40608470424E+02  0.41020819064E+03  0.40000000000E+03 0.  1.
<mgrwt>
<rscale>  2 0.40819323E+03</rscale>
<asrwt>0</asrwt>
<pdfrwt beam="1">  1       21 0.11479777E+00 0.40819323E+03</pdfrwt>
<pdfrwt beam="2">  1       21 0.46093758E-01 0.40819323E+03</pdfrwt>
<totfact> 0.23308923E+03</totfact>
</mgrwt>
</event>
<event>
 4    1  0.4656600E-002  0.5230790E+03  0.7818608E-02  0.1007925E+00
         21   -1    0    0  503  502  0.00000000000E+00  0.00000000000E+00  0.17373229117E+03  0.17373229117E+03  0.00000000000E+00 0.  1.
         21   -1    0    0  501  503 -0.00000000000E+00 -0.00000000000E+00 -0.17656729924E+04  0.17656729924E+04  0.00000000000E+00 0. -1.
    9000007    1    1    2  501    0 -0.32330901083E+03  0.95304183417E+02 -0.47722942066E+03  0.70806745710E+03  0.40000000000E+03 0.  1.
   -9000007    1    1    2    0  502  0.32330901083E+03 -0.95304183417E+02 -0.11147112806E+04  0.12313378265E+04  0.40000000000E+03 0. -1.
<mgrwt>
<rscale>  2 0.52307897E+03</rscale>
<asrwt>0</asrwt>
<pdfrwt beam="1">  1       21 0.26728044E-01 0.52307897E+03</pdfrwt>
<pdfrwt beam="2">  1       21 0.27164200E+00 0.52307897E+03</pdfrwt>
<totfact> 0.51481732E+02</totfact>
</mgrwt>
</event>
<event>
 4    1  0.4656600E-002  0.4814854E+03  0.7818608E-02  0.1018728E+00
         21   -1    0    0  503  502  0.00000000000E+00  0.00000000000E+00  0.16347201601E+04  0.16347201601E+04  0.00000000000E+00 0. -1.
         21   -1    0    0  501  503 -0.00000000000E+00 -0.00000000000E+00 -0.15446976797E+03  0.15446976797E+03  0.00000000000E+00 0. -1.
    9000007    1    1    2  501    0 -0.55901216405E+02 -0.26211297239E+03  0.48407302059E+03  0.68275533360E+03  0.40000000000E+03 0. -1.
   -9000007    1    1    2    0  502  0.55901216405E+02  0.26211297239E+03  0.99617737153E+03  0.11064345945E+04  0.40000000000E+03 0. -1.
<mgrwt>
<rscale>  2 0.48148536E+03</rscale>
<asrwt>0</asrwt>
<pdfrwt beam="1">  1       21 0.25149540E+00 0.48148536E+03</pdfrwt>
<pdfrwt beam="2">  1       21 0.23764581E-01 0.48148536E+03</pdfrwt>
<totfact> 0.87676768E+02</totfact>
</mgrwt>
</event>
<event>
 4    1  0.4656600E-002  0.4342613E+03  0.7818608E-02  0.1032522E+00
         21   -1    0    0  501  502  0.00000000000E+00  0.00000000000E+00  0.49123137512E+03  0.49123137512E+03  0.00000000000E+00 0. -1.
         21   -1    0    0  502  503 -0.00000000000E+00 -0.00000000000E+00 -0.63755747866E+03  0.63755747866E+03  0.00000000000E+00 0. -1.
    9000007    1    1    2  501    0 -0.43525626486E+02  0.16336574743E+03  0.28283564568E+03  0.51824593588E+03  0.40000000000E+03 0. -1.
   -9000007    1    1    2    0  503  0.43525626486E+02 -0.16336574743E+03 -0.42916174922E+03  0.61054291789E+03  0.40000000000E+03 0. -1.
<mgrwt>
<rscale>  2 0.43426127E+03</rscale>
<asrwt>0</asrwt>
<pdfrwt beam="1">  1       21 0.75574058E-01 0.43426127E+03</pdfrwt>
<pdfrwt beam="2">  1       21 0.98085766E-01 0.43426127E+03</pdfrwt>
<totfact> 0.11528214E+03</totfact>
</mgrwt>
</event>
<event>
 4    1  0.4656600E-002  0.4713712E+03  0.7818608E-02  0.1021534E+00
         21   -1    0    0  503  502  0.00000000000E+00  0.00000000000E+00  0.55001386353E+03  0.55001386353E+03  0.00000000000E+00 0.  1.
         21   -1    0    0  501  503 -0.00000000000E+00 -0.00000000000E+00 -0.46536706788E+03  0.46536706788E+03  0.00000000000E+00 0.  1.
    9000007    1    1    2  501    0 -0.11722110888E+02 -0.24910512558E+03 -0.14207801928E+03  0.49231792069E+03  0.40000000000E+03 0. -1.
   -9000007    1    1    2    0  502  0.11722110888E+02  0.24910512558E+03  0.22672481492E+03  0.52306301071E+03  0.40000000000E+03 0. -1.
<mgrwt>
<rscale>  2 0.47137116E+03</rscale>
<asrwt>0</asrwt>
<pdfrwt beam="1">  1       21 0.84617518E-01 0.47137116E+03</pdfrwt>
<pdfrwt beam="2">  1       21 0.71594933E-01 0.47137116E+03</pdfrwt>
<totfact> 0.18249129E+03</totfact>
</mgrwt>
</event>
<event>
 4    1  0.4656600E-002  0.4351096E+03  0.7818608E-02  0.1032258E+00
         21   -1    0    0  501  502  0.00000000000E+00  0.00000000000E+00  0.31250140503E+03  0.31250140503E+03  0.00000000000E+00 0.  1.
         21   -1    0    0  502  503 -0.00000000000E+00 -0.00000000000E+00 -0.12653510322E+04  0.12653510322E+04  0.00000000000E+00 0.  1.
    9000007    1    1    2  501    0 -0.56535455361E+02 -0.16162960642E+03  0.93145921077E+02  0.44496803256E+03  0.40000000000E+03 0.  1.
   -9000007    1    1    2    0  503  0.56535455361E+02  0.16162960642E+03 -0.10459955483E+04  0.11328844047E+04  0.40000000000E+03 0.  1.
<mgrwt>
<rscale>  2 0.43510963E+03</rscale>
<asrwt>0</asrwt>
<pdfrwt beam="1">  1       21 0.48077138E-01 0.43510963E+03</pdfrwt>
<pdfrwt beam="2">  1       21 0.19466939E+00 0.43510963E+03</pdfrwt>
<totfact> 0.49909152E+02</totfact>
</mgrwt>
</event>
<event>
 4    1  0.4656600E-002  0.4423087E+03  0.7818608E-02  0.1030041E+00
         21   -1    0    0  501  502  0.00000000000E+00  0.00000000000E+00  0.26439363316E+03  0.26439363316E+03  0.00000000000E+00 0. -1.
         21   -1    0    0  502  503 -0.00000000000E+00 -0.00000000000E+00 -0.17626633577E+04  0.17626633577E+04  0.00000000000E+00 0. -1.
    9000007    1    1    2  501    0 -0.15868972156E+03 -0.10224755668E+03  0.22886122422E+02  0.44290040096E+03  0.40000000000E+03 0. -1.
   -9000007    1    1    2    0  503  0.15868972156E+03  0.10224755668E+03 -0.15211558470E+04  0.15841565899E+04  0.40000000000E+03 0. -1.
<mgrwt>
<rscale>  2 0.44230871E+03</rscale>
<asrwt>0</asrwt>
<pdfrwt beam="1">  1       21 0.40675943E-01 0.44230871E+03</pdfrwt>
<pdfrwt beam="2">  1       21 0.27117898E+00 0.44230871E+03</pdfrwt>
<totfact> 0.23213282E+02</totfact>
</mgrwt>
</event>
<event>
 4    1  0.4656600E-002  0.6709620E+03  0.7818608E-02  0.9768222E-01
         21   -1    0    0  501  502  0.00000000000E+00  0.00000000000E+00  0.21425557523E+04  0.21425557523E+04  0.00000000000E+00 0. -1.
         21   -1    0    0  502  503 -0.00000000000E+00 -0.00000000000E+00 -0.34997469487E+03  0.34997469487E+03  0.00000000000E+00 0.  1.
    9000007    1    1    2  501    0  0.25496403367E+03 -0.47453487420E+03  0.16841222082E+04  0.18128589624E+04  0.40000000000E+03 0. -1.
   -9000007    1    1    2    0  503 -0.25496403367E+03  0.47453487420E+03  0.10845884925E+03  0.67967148482E+03  0.40000000000E+03 0.  1.
<mgrwt>
<rscale>  2 0.67096200E+03</rscale>
<asrwt>0</asrwt>
<pdfrwt beam="1">  1       21 0.32962395E+00 0.67096200E+03</pdfrwt>
<pdfrwt beam="2">  1       21 0.53842262E-01 0.67096200E+03</pdfrwt>
<totfact> 0.50335228E+01</totfact>
</mgrwt>
</event>
<event>
 4    1  0.4656600E-002  0.6285993E+03  0.7818608E-02  0.9847786E-01
         21   -1    0    0  501  502  0.00000000000E+00  0.00000000000E+00  0.14789913497E+04  0.14789913497E+04  0.00000000000E+00 0.  1.
         21   -1    0    0  502  503 -0.00000000000E+00 -0.00000000000E+00 -0.28177122778E+03  0.28177122778E+03  0.00000000000E+00 0.  1.
    9000007    1    1    2  501    0  0.42555917904E+03  0.23245733758E+03  0.79904265520E+03  0.10166642482E+04  0.40000000000E+03 0.  1.
   -9000007    1    1    2    0  503 -0.42555917904E+03 -0.23245733758E+03  0.39817746669E+03  0.74409832929E+03  0.40000000000E+03 0.  1.
<mgrwt>
<rscale>  2 0.62859926E+03</rscale>
<asrwt>0</asrwt>
<pdfrwt beam="1">  1       21 0.22753713E+00 0.62859926E+03</pdfrwt>
<pdfrwt beam="2">  1       21 0.43349420E-01 0.62859926E+03</pdfrwt>
<totfact> 0.34774474E+02</totfact>
</mgrwt>
</event>
<event>
 4    1  0.4656600E-002  0.5213819E+03  0.7818608E-02  0.1008344E+00
         21   -1    0    0  503  502  0.00000000000E+00  0.00000000000E+00  0.23004671277E+04  0.23004671277E+04  0.00000000000E+00 0.  1.
         21   -1    0    0  501  503 -0.00000000000E+00 -0.00000000000E+00 -0.12387583416E+03  0.12387583416E+03  0.00000000000E+00 0.  1.
    9000007    1    1    2  501    0 -0.23879133643E+03 -0.23413193049E+03  0.13485202646E+04  0.14458028798E+04  0.40000000000E+03 0.  1.
   -9000007    1    1    2    0  502  0.23879133643E+03  0.23413193049E+03  0.82807102901E+03  0.97854008212E+03  0.40000000000E+03 0.  1.
<mgrwt>
<rscale>  2 0.52138188E+03</rscale>
<asrwt>0</asrwt>
<pdfrwt beam="1">  1       21 0.35391799E+00 0.52138188E+03</pdfrwt>
<pdfrwt beam="2">  1       21 0.19057822E-01 0.52138188E+03</pdfrwt>
<totfact> 0.31251829E+02</totfact>
</mgrwt>
</event>
<event>
 4    1  0.4656600E-002  0.4430773E+03  0.7818608E-02  0.1029807E+00
         21   -1    0    0  501  502  0.00000000000E+00  0.00000000000E+00  0.19350103709E+04  0.19350103709E+04  0.00000000000E+00 0. -1.
         21   -1    0    0  502  503 -0.00000000000E+00 -0.00000000000E+00 -0.16158056190E+03  0.16158056190E+03  0.00000000000E+00 0. -1.
    9000007    1    1    2  501    0  0.97903101092E+02  0.16350064447E+03  0.15261800188E+04  0.15891956857E+04  0.40000000000E+03 0. -1.
   -9000007    1    1    2    0  503 -0.97903101092E+02 -0.16350064447E+03  0.24724979021E+03  0.50739524703E+03  0.40000000000E+03 0. -1.
<mgrwt>
<rscale>  2 0.44307728E+03</rscale>
<asrwt>0</asrwt>
<pdfrwt beam="1">  1       21 0.29769389E+00 0.44307728E+03</pdfrwt>
<pdfrwt beam="2">  1       21 0.24858549E-01 0.44307728E+03</pdfrwt>
<totfact> 0.43039988E+02</totfact>
</mgrwt>
</event>
<event>
 4    1  0.4656600E-002  0.4214936E+03  0.7818608E-02  0.1036581E+00
         21   -1    0    0  501  502  0.00000000000E+00  0.00000000000E+00  0.10661512126E+03  0.10661512126E+03  0.00000000000E+00 0.  1.
         21   -1    0    0  502  503 -0.00000000000E+00 -0.00000000000E+00 -0.21751718013E+04  0.21751718013E+04  0.00000000000E+00 0.  1.
    9000007    1    1    2  501    0  0.95479943884E+02 -0.92414373103E+02 -0.48247255008E+03  0.64065325850E+03  0.40000000000E+03 0. -1.
   -9000007    1    1    2    0  503 -0.95479943884E+02  0.92414373103E+02 -0.15860841299E+04  0.16411336640E+04  0.40000000000E+03 0. -1.
<mgrwt>
<rscale>  2 0.42149358E+03</rscale>
<asrwt>0</asrwt>
<pdfrwt beam="1">  1       21 0.16402328E-01 0.42149358E+03</pdfrwt>
<pdfrwt beam="2">  1       21 0.33464179E+00 0.42149358E+03</pdfrwt>
<totfact> 0.57643754E+02</totfact>
</mgrwt>
</event>
<event>
 4    1  0.4656600E-002  0.4877711E+03  0.7818608E-02  0.1017021E+00
         21   -1    0    0  501  502  0.00000000000E+00  0.00000000000E+00  0.91187136556E+03  0.91187136556E+03  0.00000000000E+00 0.  1.
         21   -1    0    0  502  503 -0.00000000000E+00 -0.00000000000E+00 -0.27421449332E+03  0.27421449332E+03  0.00000000000E+00 0.  1.
    9000007    1    1    2  501    0 -0.17704106134E+03  0.21581735473E+03  0.44943437997E+03  0.66325856942E+03  0.40000000000E+03 0.  1.
   -9000007    1    1    2    0  503  0.17704106134E+03 -0.21581735473E+03  0.18822249227E+03  0.52282728946E+03  0.40000000000E+03 0.  1.
<mgrwt>
<rscale>  2 0.48777112E+03</rscale>
<asrwt>0</asrwt>
<pdfrwt beam="1">  1       21 0.14028790E+00 0.48777112E+03</pdfrwt>
<pdfrwt beam="2">  1       21 0.42186846E-01 0.48777112E+03</pdfrwt>
<totfact> 0.16207835E+03</totfact>
</mgrwt>
</event>
<event>
 4    1  0.4656600E-002  0.4666808E+03  0.7818608E-02  0.1022861E+00
         21   -1    0    0  501  502  0.00000000000E+00  0.00000000000E+00  0.99382893892E+03  0.99382893892E+03  0.00000000000E+00 0.  1.
         21   -1    0    0  502  503 -0.00000000000E+00 -0.00000000000E+00 -0.22657922864E+03  0.22657922864E+03  0.00000000000E+00 0. -1.
    9000007    1    1    2  501    0  0.19016517996E+03 -0.14706505239E+03  0.49416842679E+03  0.67970093375E+03  0.40000000000E+03 0.  1.
   -9000007    1    1    2    0  503 -0.19016517996E+03  0.14706505239E+03  0.27308128348E+03  0.54070723381E+03  0.40000000000E+03 0. -1.
<mgrwt>
<rscale>  2 0.46668075E+03</rscale>
<asrwt>0</asrwt>
<pdfrwt beam="1">  1       21 0.15289676E+00 0.46668075E+03</pdfrwt>
<pdfrwt beam="2">  1       21 0.34858343E-01 0.46668075E+03</pdfrwt>
<totfact> 0.19150227E+03</totfact>
</mgrwt>
</event>
<event>
 4    1  0.4656600E-002  0.4369576E+03  0.7818608E-02  0.1031684E+00
         21   -1    0    0  501  502  0.00000000000E+00  0.00000000000E+00  0.49602805149E+03  0.49602805149E+03  0.00000000000E+00 0.  1.
         21   -1    0    0  502  503 -0.00000000000E+00 -0.00000000000E+00 -0.10391726154E+04  0.10391726154E+04  0.00000000000E+00 0. -1.
    9000007    1    1    2  501    0 -0.14880125429E+03  0.93755879800E+02  0.33749246887E+03  0.55211696661E+03  0.40000000000E+03 0.  1.
   -9000007    1    1    2    0  503  0.14880125429E+03 -0.93755879800E+02 -0.88063703279E+03  0.98308370030E+03  0.40000000000E+03 0. -1.
<mgrwt>
<rscale>  2 0.43695764E+03</rscale>
<asrwt>0</asrwt>
<pdfrwt beam="1">  1       21 0.76312009E-01 0.43695764E+03</pdfrwt>
<pdfrwt beam="2">  1       21 0.15987271E+00 0.43695764E+03</pdfrwt>
<totfact> 0.31977575E+02</totfact>
</mgrwt>
</event>
<event>
 4    1  0.4656600E-002  0.4492198E+03  0.7818608E-02  0.1027955E+00
         21   -1    0    0  501  502  0.00000000000E+00  0.00000000000E+00  0.10996658908E+04  0.10996658908E+04  0.00000000000E+00 0.  1.
         21   -1    0    0  502  503 -0.00000000000E+00 -0.00000000000E+00 -0.32363236101E+03  0.32363236101E+03  0.00000000000E+00 0.  1.
    9000007    1    1    2  501    0 -0.20283400381E+03  0.25627406010E+02  0.85628585498E+03  0.96696631921E+03  0.40000000000E+03 0.  1.
   -9000007    1    1    2    0  503  0.20283400381E+03 -0.25627406010E+02 -0.80252325171E+02  0.45633193263E+03  0.40000000000E+03 0.  1.
<mgrwt>
<rscale>  2 0.44921976E+03</rscale>
<asrwt>0</asrwt>
<pdfrwt beam="1">  1       21 0.16917937E+00 0.44921976E+03</pdfrwt>
<pdfrwt beam="2">  1       21 0.49789595E-01 0.44921976E+03</pdfrwt>
<totfact> 0.69447728E+02</totfact>
</mgrwt>
</event>
<event>
 4    1  0.4656600E-002  0.4379160E+03  0.7818608E-02  0.1031388E+00
         21   -1    0    0  503  502  0.00000000000E+00  0.00000000000E+00  0.64817570541E+03  0.64817570541E+03  0.00000000000E+00 0.  1.
         21   -1    0    0  501  503 -0.00000000000E+00 -0.00000000000E+00 -0.36397473855E+03  0.36397473855E+03  0.00000000000E+00 0. -1.
    9000007    1    1    2  501    0  0.95604234468E+02  0.15043360012E+03 -0.76823946843E+02  0.44460359479E+03  0.40000000000E+03 0. -1.
   -9000007    1    1    2    0  502 -0.95604234468E+02 -0.15043360012E+03  0.36102491370E+03  0.56754684917E+03  0.40000000000E+03 0.  1.
<mgrwt>
<rscale>  2 0.43791602E+03</rscale>
<asrwt>0</asrwt>
<pdfrwt beam="1">  1       21 0.99719339E-01 0.43791602E+03</pdfrwt>
<pdfrwt beam="2">  1       21 0.55996114E-01 0.43791602E+03</pdfrwt>
<totfact> 0.21532967E+03</totfact>
</mgrwt>
</event>
<event>
 4    1  0.4656600E-002  0.5457292E+03  0.7818608E-02  0.1002487E+00
         21   -1    0    0  501  502  0.00000000000E+00  0.00000000000E+00  0.94261266521E+03  0.94261266521E+03  0.00000000000E+00 0.  1.
         21   -1    0    0  502  503 -0.00000000000E+00 -0.00000000000E+00 -0.35701025018E+03  0.35701025018E+03  0.00000000000E+00 0.  1.
    9000007    1    1    2  501    0  0.25185493732E+03  0.27274434009E+03  0.51316847416E+03  0.74910764739E+03  0.40000000000E+03 0.  1.
   -9000007    1    1    2    0  503 -0.25185493732E+03 -0.27274434009E+03  0.72433940871E+02  0.55051526800E+03  0.40000000000E+03 0.  1.
<mgrwt>
<rscale>  2 0.54572922E+03</rscale>
<asrwt>0</asrwt>
<pdfrwt beam="1">  1       21 0.14501733E+00 0.54572922E+03</pdfrwt>
<pdfrwt beam="2">  1       21 0.54924654E-01 0.54572922E+03</pdfrwt>
<totfact> 0.82946924E+02</totfact>
</mgrwt>
</event>
<event>
 4    1  0.4656600E-002  0.5148519E+03  0.7818608E-02  0.1009973E+00
         21   -1    0    0  501  502  0.00000000000E+00  0.00000000000E+00  0.92186047861E+03  0.92186047861E+03  0.00000000000E+00 0. -1.
         21   -1    0    0  502  503 -0.00000000000E+00 -0.00000000000E+00 -0.29704880586E+03  0.29704880586E+03  0.00000000000E+00 0.  1.
    9000007    1    1    2  501    0  0.29630169551E+03  0.13144485000E+03  0.42144276143E+03  0.66534686030E+03  0.40000000000E+03 0. -1.
   -9000007    1    1    2    0  503 -0.29630169551E+03 -0.13144485000E+03  0.20336891132E+03  0.55356242416E+03  0.40000000000E+03 0.  1.
<mgrwt>
<rscale>  2 0.51485187E+03</rscale>
<asrwt>0</asrwt>
<pdfrwt beam="1">  1       21 0.14182469E+00 0.51485187E+03</pdfrwt>
<pdfrwt beam="2">  1       21 0.45699817E-01 0.51485187E+03</pdfrwt>
<totfact> 0.13186743E+03</totfact>
</mgrwt>
</event>
<event>
 4    1  0.4656600E-002  0.4147925E+03  0.7818608E-02  0.1038775E+00
         21   -1    0    0  501  502  0.00000000000E+00  0.00000000000E+00  0.55341686098E+03  0.55341686098E+03  0.00000000000E+00 0.  1.
         21   -1    0    0  502  503 -0.00000000000E+00 -0.00000000000E+00 -0.32137385727E+03  0.32137385727E+03  0.00000000000E+00 0. -1.
    9000007    1    1    2  501    0  0.14386230693E+02 -0.10883851030E+03  0.37027997643E+02  0.41644190179E+03  0.40000000000E+03 0. -1.
   -9000007    1    1    2    0  503 -0.14386230693E+02  0.10883851030E+03  0.19501500607E+03  0.45834881646E+03  0.40000000000E+03 0.  1.
<mgrwt>
<rscale>  2 0.41479246E+03</rscale>
<asrwt>0</asrwt>
<pdfrwt beam="1">  1       21 0.85141055E-01 0.41479246E+03</pdfrwt>
<pdfrwt beam="2">  1       21 0.49442132E-01 0.41479246E+03</pdfrwt>
<totfact> 0.41291116E+03</totfact>
</mgrwt>
</event>
<event>
 4    1  0.4656600E-002  0.4191221E+03  0.7818608E-02  0.1037352E+00
         21   -1    0    0  503  502  0.00000000000E+00  0.00000000000E+00  0.26922076927E+03  0.26922076927E+03  0.00000000000E+00 0. -1.
         21   -1    0    0  501  503 -0.00000000000E+00 -0.00000000000E+00 -0.11766697473E+04  0.11766697473E+04  0.00000000000E+00 0. -1.
    9000007    1    1    2  501    0 -0.23344285729E+02  0.12295665609E+03 -0.93624869785E+03  0.10257801515E+04  0.40000000000E+03 0. -1.
   -9000007    1    1    2    0  502  0.23344285729E+02 -0.12295665609E+03  0.28799719859E+02  0.42011036504E+03  0.40000000000E+03 0. -1.
<mgrwt>
<rscale>  2 0.41912205E+03</rscale>
<asrwt>0</asrwt>
<pdfrwt beam="1">  1       21 0.41418579E-01 0.41912205E+03</pdfrwt>
<pdfrwt beam="2">  1       21 0.18102612E+00 0.41912205E+03</pdfrwt>
<totfact> 0.85246771E+02</totfact>
</mgrwt>
</event>
<event>
 4    1  0.4656600E-002  0.5671229E+03  0.7818608E-02  0.9976066E-01
         21   -1    0    0  501  502  0.00000000000E+00  0.00000000000E+00  0.32889605189E+03  0.32889605189E+03  0.00000000000E+00 0.  1.
         21   -1    0    0  502  503 -0.00000000000E+00 -0.00000000000E+00 -0.10921535388E+04  0.10921535388E+04  0.00000000000E+00 0.  1.
    9000007    1    1    2  501    0 -0.37335093700E+03  0.14912211647E+03 -0.15181968556E+03  0.58709244988E+03  0.40000000000E+03 0.  1.
   -9000007    1    1    2    0  503  0.37335093700E+03 -0.14912211647E+03 -0.61143780135E+03  0.83395714081E+03  0.40000000000E+03 0.  1.
<mgrwt>
<rscale>  2 0.56712285E+03</rscale>
<asrwt>0</asrwt>
<pdfrwt beam="1">  1       21 0.50599393E-01 0.56712285E+03</pdfrwt>
<pdfrwt beam="2">  1       21 0.16802362E+00 0.56712285E+03</pdfrwt>
<totfact> 0.65239190E+02</totfact>
</mgrwt>
</event>
<event>
 4    1  0.4656600E-002  0.4239907E+03  0.7818608E-02  0.1035775E+00
         21   -1    0    0  503  502  0.00000000000E+00  0.00000000000E+00  0.85676046027E+02  0.85676046027E+02  0.00000000000E+00 0. -1.
         21   -1    0    0  501  503 -0.00000000000E+00 -0.00000000000E+00 -0.21164276776E+04  0.21164276776E+04  0.00000000000E+00 0. -1.
    9000007    1    1    2  501    0  0.12202793312E+03  0.69837703229E+02 -0.91328089748E+03  0.10069012459E+04  0.40000000000E+03 0. -1.
   -9000007    1    1    2    0  502 -0.12202793312E+03 -0.69837703229E+02 -0.11174707341E+04  0.11952024777E+04  0.40000000000E+03 0. -1.
<mgrwt>
<rscale>  2 0.42399071E+03</rscale>
<asrwt>0</asrwt>
<pdfrwt beam="1">  1       21 0.13180929E-01 0.42399071E+03</pdfrwt>
<pdfrwt beam="2">  1       21 0.32560428E+00 0.42399071E+03</pdfrwt>
<totfact> 0.97816494E+02</totfact>
</mgrwt>
</event>
<event>
 4    1  0.4656600E-002  0.4190477E+03  0.7818608E-02  0.1037377E+00
         21   -1    0    0  501  502  0.00000000000E+00  0.00000000000E+00  0.50601515377E+03  0.50601515377E+03  0.00000000000E+00 0. -1.
         21   -1    0    0  502  503 -0.00000000000E+00 -0.00000000000E+00 -0.46707885682E+03  0.46707885682E+03  0.00000000000E+00 0. -1.
    9000007    1    1    2  501    0 -0.12069442203E+03 -0.32153541712E+02  0.26613675443E+03  0.49641692740E+03  0.40000000000E+03 0. -1.
   -9000007    1    1    2    0  503  0.12069442203E+03  0.32153541712E+02 -0.22720045749E+03  0.47667708319E+03  0.40000000000E+03 0. -1.
<mgrwt>
<rscale>  2 0.41904772E+03</rscale>
<asrwt>0</asrwt>
<pdfrwt beam="1">  1       21 0.77848485E-01 0.41904772E+03</pdfrwt>
<pdfrwt beam="2">  1       21 0.71858285E-01 0.41904772E+03</pdfrwt>
<totfact> 0.22393555E+03</totfact>
</mgrwt>
</event>
<event>
 4    1  0.4656600E-002  0.4726732E+03  0.7818608E-02  0.1021168E+00
         21   -1    0    0  501  502  0.00000000000E+00  0.00000000000E+00  0.10433679429E+04  0.10433679429E+04  0.00000000000E+00 0.  1.
         21   -1    0    0  502  503 -0.00000000000E+00 -0.00000000000E+00 -0.37979379128E+03  0.37979379128E+03  0.00000000000E+00 0.  1.
    9000007    1    1    2  501    0 -0.16556177685E+03  0.18976103177E+03  0.80174571824E+03  0.93070733738E+03  0.40000000000E+03 0.  1.
   -9000007    1    1    2    0  503  0.16556177685E+03 -0.18976103177E+03 -0.13817156659E+03  0.49245439682E+03  0.40000000000E+03 0.  1.
<mgrwt>
<rscale>  2 0.47267320E+03</rscale>
<asrwt>0</asrwt>
<pdfrwt beam="1">  1       21 0.16051814E+00 0.47267320E+03</pdfrwt>
<pdfrwt beam="2">  1       21 0.58429815E-01 0.47267320E+03</pdfrwt>
<totfact> 0.56455244E+02</totfact>
</mgrwt>
</event>
<event>
 4    1  0.4656600E-002  0.4455854E+03  0.7818608E-02  0.1029047E+00
         21   -1    0    0  503  502  0.00000000000E+00  0.00000000000E+00  0.32681391798E+03  0.32681391798E+03  0.00000000000E+00 0.  1.
         21   -1    0    0  501  503 -0.00000000000E+00 -0.00000000000E+00 -0.64040416522E+03  0.64040416522E+03  0.00000000000E+00 0.  1.
    9000007    1    1    2  501    0  0.15066362689E+03 -0.12588420574E+03 -0.26638066744E+03  0.51913873069E+03  0.40000000000E+03 0.  1.
   -9000007    1    1    2    0  502 -0.15066362689E+03  0.12588420574E+03 -0.47209579798E+02  0.44807935251E+03  0.40000000000E+03 0.  1.
<mgrwt>
<rscale>  2 0.44558541E+03</rscale>
<asrwt>0</asrwt>
<pdfrwt beam="1">  1       21 0.50279065E-01 0.44558541E+03</pdfrwt>
<pdfrwt beam="2">  1       21 0.98523716E-01 0.44558541E+03</pdfrwt>
<totfact> 0.27854271E+03</totfact>
</mgrwt>
</event>
<event>
 4    1  0.4656600E-002  0.4236126E+03  0.7818608E-02  0.1035897E+00
         21   -1    0    0  503  502  0.00000000000E+00  0.00000000000E+00  0.34765812772E+03  0.34765812772E+03  0.00000000000E+00 0.  1.
         21   -1    0    0  501  503 -0.00000000000E+00 -0.00000000000E+00 -0.71234532888E+03  0.71234532888E+03  0.00000000000E+00 0. -1.
    9000007    1    1    2  501    0  0.91975010436E+02 -0.10482460580E+03 -0.46048398132E+03  0.62569409265E+03  0.40000000000E+03 0. -1.
   -9000007    1    1    2    0  502 -0.91975010436E+02  0.10482460580E+03  0.95796780163E+02  0.43430936395E+03  0.40000000000E+03 0.  1.
<mgrwt>
<rscale>  2 0.42361256E+03</rscale>
<asrwt>0</asrwt>
<pdfrwt beam="1">  1       21 0.53485867E-01 0.42361256E+03</pdfrwt>
<pdfrwt beam="2">  1       21 0.10959159E+00 0.42361256E+03</pdfrwt>
<totfact> 0.18959029E+03</totfact>
</mgrwt>
</event>
<event>
 4    1  0.4656600E-002  0.4787371E+03  0.7818608E-02  0.1019483E+00
         21   -1    0    0  503  502  0.00000000000E+00  0.00000000000E+00  0.47020384089E+03  0.47020384089E+03  0.00000000000E+00 0. -1.
         21   -1    0    0  501  503 -0.00000000000E+00 -0.00000000000E+00 -0.61976722492E+03  0.61976722492E+03  0.00000000000E+00 0. -1.
    9000007    1    1    2  501    0  0.44666962627E+02 -0.25921820776E+03 -0.32661867283E+03  0.57954203836E+03  0.40000000000E+03 0. -1.
   -9000007    1    1    2    0  502 -0.44666962627E+02  0.25921820776E+03  0.17705528880E+03  0.51042902746E+03  0.40000000000E+03 0. -1.
<mgrwt>
<rscale>  2 0.47873711E+03</rscale>
<asrwt>0</asrwt>
<pdfrwt beam="1">  1       21 0.72339052E-01 0.47873711E+03</pdfrwt>
<pdfrwt beam="2">  1       21 0.95348804E-01 0.47873711E+03</pdfrwt>
<totfact> 0.13394702E+03</totfact>
</mgrwt>
</event>
<event>
 4    1  0.4656600E-002  0.4026081E+03  0.7818608E-02  0.1042880E+00
         21   -1    0    0  503  502  0.00000000000E+00  0.00000000000E+00  0.70372382665E+03  0.70372382665E+03  0.00000000000E+00 0.  1.
         21   -1    0    0  501  503 -0.00000000000E+00 -0.00000000000E+00 -0.29867904881E+03  0.29867904881E+03  0.00000000000E+00 0.  1.
    9000007    1    1    2  501    0 -0.44763633852E+02 -0.94593405446E+01 -0.37225951551E+02  0.40432540547E+03  0.40000000000E+03 0.  1.
   -9000007    1    1    2    0  502  0.44763633852E+02  0.94593405446E+01  0.44227072939E+03  0.59807746999E+03  0.40000000000E+03 0.  1.
<mgrwt>
<rscale>  2 0.40260807E+03</rscale>
<asrwt>0</asrwt>
<pdfrwt beam="1">  1       21 0.10826520E+00 0.40260807E+03</pdfrwt>
<pdfrwt beam="2">  1       21 0.45950623E-01 0.40260807E+03</pdfrwt>
<totfact> 0.27194159E+03</totfact>
</mgrwt>
</event>
<event>
 4    1  0.4656600E-002  0.4129448E+03  0.7818608E-02  0.1039387E+00
         21   -1    0    0  501  502  0.00000000000E+00  0.00000000000E+00  0.36339897254E+03  0.36339897254E+03  0.00000000000E+00 0.  1.
         21   -1    0    0  502  503 -0.00000000000E+00 -0.00000000000E+00 -0.91738254720E+03  0.91738254720E+03  0.00000000000E+00 0.  1.
    9000007    1    1    2  501    0 -0.82570594598E+01 -0.10225069836E+03  0.17059285368E+03  0.44679447856E+03  0.40000000000E+03 0.  1.
   -9000007    1    1    2    0  503  0.82570594598E+01  0.10225069836E+03 -0.72457642834E+03  0.83398704117E+03  0.40000000000E+03 0.  1.
<mgrwt>
<rscale>  2 0.41294477E+03</rscale>
<asrwt>0</asrwt>
<pdfrwt beam="1">  1       21 0.55907534E-01 0.41294477E+03</pdfrwt>
<pdfrwt beam="2">  1       21 0.14113578E+00 0.41294477E+03</pdfrwt>
<totfact> 0.90614257E+02</totfact>
</mgrwt>
</event>
<event>
 4    1  0.4656600E-002  0.4691050E+03  0.7818608E-02  0.1022173E+00
         21   -1    0    0  503  502  0.00000000000E+00  0.00000000000E+00  0.10047587180E+04  0.10047587180E+04  0.00000000000E+00 0. -1.
         21   -1    0    0  501  503 -0.00000000000E+00 -0.00000000000E+00 -0.44746543746E+03  0.44746543746E+03  0.00000000000E+00 0. -1.
    9000007    1    1    2  501    0 -0.20235637490E+03 -0.13824390473E+03 -0.24017464128E+03  0.52701360321E+03  0.40000000000E+03 0. -1.
   -9000007    1    1    2    0  502  0.20235637490E+03  0.13824390473E+03  0.79746792187E+03  0.92521055229E+03  0.40000000000E+03 0. -1.
<mgrwt>
<rscale>  2 0.46910498E+03</rscale>
<asrwt>0</asrwt>
<pdfrwt beam="1">  1       21 0.15457826E+00 0.46910498E+03</pdfrwt>
<pdfrwt beam="2">  1       21 0.68840837E-01 0.46910498E+03</pdfrwt>
<totfact> 0.43660256E+02</totfact>
</mgrwt>
</event>
<event>
 4    1  0.4656600E-002  0.4249976E+03  0.7818608E-02  0.1035452E+00
         21   -1    0    0  503  502  0.00000000000E+00  0.00000000000E+00  0.69938249158E+03  0.69938249158E+03  0.00000000000E+00 0.  1.
         21   -1    0    0  501  503 -0.00000000000E+00 -0.00000000000E+00 -0.37919075899E+03  0.37919075899E+03  0.00000000000E+00 0.  1.
    9000007    1    1    2  501    0 -0.13275296885E+03  0.54768627266E+02 -0.14445375227E+03  0.44887619654E+03  0.40000000000E+03 0.  1.
   -9000007    1    1    2    0  502  0.13275296885E+03 -0.54768627266E+02  0.46464548485E+03  0.62969705404E+03  0.40000000000E+03 0.  1.
<mgrwt>
<rscale>  2 0.42499759E+03</rscale>
<asrwt>0</asrwt>
<pdfrwt beam="1">  1       21 0.10759731E+00 0.42499759E+03</pdfrwt>
<pdfrwt beam="2">  1       21 0.58337040E-01 0.42499759E+03</pdfrwt>
<totfact> 0.16435238E+03</totfact>
</mgrwt>
</event>
<event>
 4    1  0.4656600E-002  0.4124213E+03  0.7818608E-02  0.1039562E+00
         21   -1    0    0  503  502  0.00000000000E+00  0.00000000000E+00  0.57011048786E+03  0.57011048786E+03  0.00000000000E+00 0. -1.
         21   -1    0    0  501  503 -0.00000000000E+00 -0.00000000000E+00 -0.38935362484E+03  0.38935362484E+03  0.00000000000E+00 0. -1.
    9000007    1    1    2  501    0  0.99317385387E+02  0.15078479400E+02 -0.14155365293E+03  0.43603754453E+03  0.40000000000E+03 0. -1.
   -9000007    1    1    2    0  502 -0.99317385387E+02 -0.15078479400E+02  0.32231051594E+03  0.52342656817E+03  0.40000000000E+03 0. -1.
<mgrwt>
<rscale>  2 0.41242127E+03</rscale>
<asrwt>0</asrwt>
<pdfrwt beam="1">  1       21 0.87709306E-01 0.41242127E+03</pdfrwt>
<pdfrwt beam="2">  1       21 0.59900558E-01 0.41242127E+03</pdfrwt>
<totfact> 0.25507636E+03</totfact>
</mgrwt>
</event>
<event>
 4    1  0.4656600E-002  0.4325267E+03  0.7818608E-02  0.1033065E+00
         21   -1    0    0  501  502  0.00000000000E+00  0.00000000000E+00  0.84202084241E+03  0.84202084241E+03  0.00000000000E+00 0.  1.
         21   -1    0    0  502  503 -0.00000000000E+00 -0.00000000000E+00 -0.65147166811E+03  0.65147166811E+03  0.00000000000E+00 0.  1.
    9000007    1    1    2  501    0  0.16477922371E+02 -0.16373104257E+03  0.70145514887E+03  0.82408658653E+03  0.40000000000E+03 0.  1.
   -9000007    1    1    2    0  503 -0.16477922371E+02  0.16373104257E+03 -0.51090597457E+03  0.66940592400E+03  0.40000000000E+03 0.  1.
<mgrwt>
<rscale>  2 0.43252673E+03</rscale>
<asrwt>0</asrwt>
<pdfrwt beam="1">  1       21 0.12954167E+00 0.43252673E+03</pdfrwt>
<pdfrwt beam="2">  1       21 0.10022641E+00 0.43252673E+03</pdfrwt>
<totfact> 0.29650301E+02</totfact>
</mgrwt>
</event>
<event>
 4    1  0.4656600E-002  0.4293544E+03  0.7818608E-02  0.1034064E+00
         21   -1    0    0  501  502  0.00000000000E+00  0.00000000000E+00  0.23455350089E+03  0.23455350089E+03  0.00000000000E+00 0.  1.
         21   -1    0    0  502  503 -0.00000000000E+00 -0.00000000000E+00 -0.13035032108E+04  0.13035032108E+04  0.00000000000E+00 0.  1.
    9000007    1    1    2  501    0 -0.15480255048E+03 -0.19527748443E+02 -0.49892416730E+02  0.43224346825E+03  0.40000000000E+03 0.  1.
   -9000007    1    1    2    0  503  0.15480255048E+03  0.19527748443E+02 -0.10190572931E+04  0.11058132434E+04  0.40000000000E+03 0.  1.
<mgrwt>
<rscale>  2 0.42935436E+03</rscale>
<asrwt>0</asrwt>
<pdfrwt beam="1">  1       21 0.36085154E-01 0.42935436E+03</pdfrwt>
<pdfrwt beam="2">  1       21 0.20053896E+00 0.42935436E+03</pdfrwt>
<totfact> 0.82810125E+02</totfact>
</mgrwt>
</event>
<event>
 4    1  0.4656600E-002  0.5894670E+03  0.7818608E-02  0.9927503E-01
         21   -1    0    0  501  502  0.00000000000E+00  0.00000000000E+00  0.12262577937E+04  0.12262577937E+04  0.00000000000E+00 0. -1.
         21   -1    0    0  502  503 -0.00000000000E+00 -0.00000000000E+00 -0.35465880831E+03  0.35465880831E+03  0.00000000000E+00 0. -1.
    9000007    1    1    2  501    0  0.32188691431E+03 -0.28958622895E+03  0.79021874488E+03  0.98585852654E+03  0.40000000000E+03 0. -1.
   -9000007    1    1    2    0  503 -0.32188691431E+03  0.28958622895E+03  0.81380240492E+02  0.59505807544E+03  0.40000000000E+03 0. -1.
<mgrwt>
<rscale>  2 0.58946702E+03</rscale>
<asrwt>0</asrwt>
<pdfrwt beam="1">  1       21 0.18865504E+00 0.58946702E+03</pdfrwt>
<pdfrwt beam="2">  1       21 0.54562894E-01 0.58946702E+03</pdfrwt>
<totfact> 0.39149633E+02</totfact>
</mgrwt>
</event>
<event>
 4    1  0.4656600E-002  0.5061163E+03  0.7818608E-02  0.1012195E+00
         21   -1    0    0  503  502  0.00000000000E+00  0.00000000000E+00  0.60263675502E+03  0.60263675502E+03  0.00000000000E+00 0. -1.
         21   -1    0    0  501  503 -0.00000000000E+00 -0.00000000000E+00 -0.73559013289E+03  0.73559013289E+03  0.00000000000E+00 0. -1.
    9000007    1    1    2  501    0  0.39429140790E+02 -0.30756966802E+03 -0.50122428444E+03  0.71230579188E+03  0.40000000000E+03 0. -1.
   -9000007    1    1    2    0  502 -0.39429140790E+02  0.30756966802E+03  0.36827090658E+03  0.62592109604E+03  0.40000000000E+03 0. -1.
<mgrwt>
<rscale>  2 0.50611635E+03</rscale>
<asrwt>0</asrwt>
<pdfrwt beam="1">  1       21 0.92713347E-01 0.50611635E+03</pdfrwt>
<pdfrwt beam="2">  1       21 0.11316771E+00 0.50611635E+03</pdfrwt>
<totfact> 0.48825437E+02</totfact>
</mgrwt>
</event>
<event>
 4    1  0.4656600E-002  0.4783855E+03  0.7818608E-02  0.1019580E+00
         21   -1    0    0  503  502  0.00000000000E+00  0.00000000000E+00  0.52368402400E+03  0.52368402400E+03  0.00000000000E+00 0.  1.
         21   -1    0    0  501  503 -0.00000000000E+00 -0.00000000000E+00 -0.70133058250E+03  0.70133058250E+03  0.00000000000E+00 0. -1.
    9000007    1    1    2  501    0  0.17359766513E+03  0.19676523232E+03  0.28720388231E+03  0.55797739740E+03  0.40000000000E+03 0.  1.
   -9000007    1    1    2    0  502 -0.17359766513E+03 -0.19676523232E+03 -0.46485044082E+03  0.66703720910E+03  0.40000000000E+03 0. -1.
<mgrwt>
<rscale>  2 0.47838552E+03</rscale>
<asrwt>0</asrwt>
<pdfrwt beam="1">  1       21 0.80566774E-01 0.47838552E+03</pdfrwt>
<pdfrwt beam="2">  1       21 0.10789701E+00 0.47838552E+03</pdfrwt>
<totfact> 0.77370097E+02</totfact>
</mgrwt>
</event>
<event>
 4    1  0.4656600E-002  0.4779591E+03  0.7818608E-02  0.1019698E+00
         21   -1    0    0  503  502  0.00000000000E+00  0.00000000000E+00  0.35298065662E+03  0.35298065662E+03  0.00000000000E+00 0.  1.
         21   -1    0    0  501  503 -0.00000000000E+00 -0.00000000000E+00 -0.88605682768E+03  0.88605682768E+03  0.00000000000E+00 0.  1.
    9000007    1    1    2  501    0  0.45970148552E+02 -0.25754931246E+03 -0.58820267322E+03  0.75790981501E+03  0.40000000000E+03 0.  1.
   -9000007    1    1    2    0  502 -0.45970148552E+02  0.25754931246E+03  0.55126502172E+02  0.48112766928E+03  0.40000000000E+03 0.  1.
<mgrwt>
<rscale>  2 0.47795910E+03</rscale>
<asrwt>0</asrwt>
<pdfrwt beam="1">  1       21 0.54304717E-01 0.47795910E+03</pdfrwt>
<pdfrwt beam="2">  1       21 0.13631643E+00 0.47795910E+03</pdfrwt>
<totfact> 0.10287797E+03</totfact>
</mgrwt>
</event>
<event>
 4    1  0.4656600E-002  0.4357592E+03  0.7818608E-02  0.1032056E+00
         21   -1    0    0  501  502  0.00000000000E+00  0.00000000000E+00  0.15289361310E+04  0.15289361310E+04  0.00000000000E+00 0.  1.
         21   -1    0    0  502  503 -0.00000000000E+00 -0.00000000000E+00 -0.13374083253E+03  0.13374083253E+03  0.00000000000E+00 0. -1.
    9000007    1    1    2  501    0  0.17152481164E+03 -0.21570980651E+02  0.91970098342E+03  0.10177111413E+04  0.40000000000E+03 0.  1.
   -9000007    1    1    2    0  503 -0.17152481164E+03  0.21570980651E+02  0.47549431506E+03  0.64496582225E+03  0.40000000000E+03 0.  1.
<mgrwt>
<rscale>  2 0.43575919E+03</rscale>
<asrwt>0</asrwt>
<pdfrwt beam="1">  1       21 0.23522093E+00 0.43575919E+03</pdfrwt>
<pdfrwt beam="2">  1       21 0.20575514E-01 0.43575919E+03</pdfrwt>
<totfact> 0.14909999E+03</totfact>
</mgrwt>
</event>
<event>
 4    1  0.4656600E-002  0.5133178E+03  0.7818608E-02  0.1010360E+00
         21   -1    0    0  501  502  0.00000000000E+00  0.00000000000E+00  0.30767637523E+03  0.30767637523E+03  0.00000000000E+00 0. -1.
         21   -1    0    0  502  503 -0.00000000000E+00 -0.00000000000E+00 -0.12648268383E+04  0.12648268383E+04  0.00000000000E+00 0. -1.
    9000007    1    1    2  501    0 -0.26616745850E+03  0.18069333976E+03 -0.31787584913E+02  0.51430112731E+03  0.40000000000E+03 0. -1.
   -9000007    1    1    2    0  503  0.26616745850E+03 -0.18069333976E+03 -0.92536287812E+03  0.10582020862E+04  0.40000000000E+03 0. -1.
<mgrwt>
<rscale>  2 0.51331783E+03</rscale>
<asrwt>0</asrwt>
<pdfrwt beam="1">  1       21 0.47334826E-01 0.51331783E+03</pdfrwt>
<pdfrwt beam="2">  1       21 0.19458875E+00 0.51331783E+03</pdfrwt>
<totfact> 0.49804635E+02</totfact>
</mgrwt>
</event>
<event>
 4    1  0.4656600E-002  0.4721921E+03  0.7818608E-02  0.1021303E+00
         21   -1    0    0  501  502  0.00000000000E+00  0.00000000000E+00  0.55120444677E+03  0.55120444677E+03  0.00000000000E+00 0.  1.
         21   -1    0    0  502  503 -0.00000000000E+00 -0.00000000000E+00 -0.17198313067E+04  0.17198313067E+04  0.00000000000E+00 0. -1.
    9000007    1    1    2  501    0 -0.15620061334E+02  0.25044245091E+03  0.40872868680E+03  0.62451945281E+03  0.40000000000E+03 0.  1.
   -9000007    1    1    2    0  503  0.15620061334E+02 -0.25044245091E+03 -0.15773555467E+04  0.16465163006E+04  0.40000000000E+03 0. -1.
<mgrwt>
<rscale>  2 0.47219213E+03</rscale>
<asrwt>0</asrwt>
<pdfrwt beam="1">  1       21 0.84800684E-01 0.47219213E+03</pdfrwt>
<pdfrwt beam="2">  1       21 0.26458943E+00 0.47219213E+03</pdfrwt>
<totfact> 0.50004245E+01</totfact>
</mgrwt>
</event>
<event>
 4    1  0.4656600E-002  0.4998006E+03  0.7818608E-02  0.1013831E+00
         21   -1    0    0  501  502  0.00000000000E+00  0.00000000000E+00  0.73340141753E+03  0.73340141753E+03  0.00000000000E+00 0.  1.
         21   -1    0    0  502  503 -0.00000000000E+00 -0.00000000000E+00 -0.42052468699E+03  0.42052468699E+03  0.00000000000E+00 0. -1.
    9000007    1    1    2  501    0 -0.22296338073E+03  0.20021990991E+03  0.40796114274E+03  0.64516120114E+03  0.40000000000E+03 0.  1.
   -9000007    1    1    2    0  503  0.22296338073E+03 -0.20021990991E+03 -0.95084412202E+02  0.50876490338E+03  0.40000000000E+03 0. -1.
<mgrwt>
<rscale>  2 0.49980064E+03</rscale>
<asrwt>0</asrwt>
<pdfrwt beam="1">  1       21 0.11283099E+00 0.49980064E+03</pdfrwt>
<pdfrwt beam="2">  1       21 0.64696106E-01 0.49980064E+03</pdfrwt>
<totfact> 0.11296524E+03</totfact>
</mgrwt>
</event>
<event>
 4    1  0.4656600E-002  0.4834775E+03  0.7818608E-02  0.1018184E+00
         21   -1    0    0  501  502  0.00000000000E+00  0.00000000000E+00  0.30720985842E+04  0.30720985842E+04  0.00000000000E+00 0. -1.
         21   -1    0    0  502  503 -0.00000000000E+00 -0.00000000000E+00 -0.13697048489E+03  0.13697048489E+03  0.00000000000E+00 0. -1.
    9000007    1    1    2  501    0 -0.24204269006E+03  0.12314968540E+03  0.25373108033E+04  0.25829627604E+04  0.40000000000E+03 0. -1.
   -9000007    1    1    2    0  503  0.24204269006E+03 -0.12314968540E+03  0.39781729601E+03  0.62610630873E+03  0.40000000000E+03 0. -1.
<mgrwt>
<rscale>  2 0.48347752E+03</rscale>
<asrwt>0</asrwt>
<pdfrwt beam="1">  1       21 0.47263050E+00 0.48347752E+03</pdfrwt>
<pdfrwt beam="2">  1       21 0.21072385E-01 0.48347752E+03</pdfrwt>
<totfact> 0.44192750E+01</totfact>
</mgrwt>
</event>
<event>
 4    1  0.4656600E-002  0.5128095E+03  0.7818608E-02  0.1010489E+00
         21   -1    0    0  501  502  0.00000000000E+00  0.00000000000E+00  0.31918947330E+03  0.31918947330E+03  0.00000000000E+00 0. -1.
         21   -1    0    0  502  503 -0.00000000000E+00 -0.00000000000E+00 -0.91333909101E+03  0.91333909101E+03  0.00000000000E+00 0. -1.
    9000007    1    1    2  501    0  0.27476554858E+03  0.16576316816E+03 -0.48994513286E+03  0.70923886513E+03  0.40000000000E+03 0. -1.
   -9000007    1    1    2    0  503 -0.27476554858E+03 -0.16576316816E+03 -0.10420448485E+03  0.52328969918E+03  0.40000000000E+03 0. -1.
<mgrwt>
<rscale>  2 0.51280945E+03</rscale>
<asrwt>0</asrwt>
<pdfrwt beam="1">  1       21 0.49106073E-01 0.51280945E+03</pdfrwt>
<pdfrwt beam="2">  1       21 0.14051371E+00 0.51280945E+03</pdfrwt>
<totfact> 0.11619455E+03</totfact>
</mgrwt>
</event>
<event>
 4    1  0.4656600E-002  0.4303296E+03  0.7818608E-02  0.1033756E+00
         21   -1    0    0  501  502  0.00000000000E+00  0.00000000000E+00  0.22551086955E+03  0.22551086955E+03  0.00000000000E+00 0. -1.
         21   -1    0    0  502  503 -0.00000000000E+00 -0.00000000000E+00 -0.93627070351E+03  0.93627070351E+03  0.00000000000E+00 0.  1.
    9000007    1    1    2  501    0 -0.36352386710E+02 -0.15447352190E+03 -0.15171040070E+03  0.45628895524E+03  0.40000000000E+03 0. -1.
   -9000007    1    1    2    0  503  0.36352386710E+02  0.15447352190E+03 -0.55904943325E+03  0.70549261782E+03  0.40000000000E+03 0.  1.
<mgrwt>
<rscale>  2 0.43032960E+03</rscale>
<asrwt>0</asrwt>
<pdfrwt beam="1">  1       21 0.34693980E-01 0.43032960E+03</pdfrwt>
<pdfrwt beam="2">  1       21 0.14404165E+00 0.43032960E+03</pdfrwt>
<totfact> 0.23050585E+03</totfact>
</mgrwt>
</event>
<event>
 4    1  0.4656600E-002  0.4029484E+03  0.7818608E-02  0.1042764E+00
         21   -1    0    0  501  502  0.00000000000E+00  0.00000000000E+00  0.31827640345E+03  0.31827640345E+03  0.00000000000E+00 0. -1.
         21   -1    0    0  502  503 -0.00000000000E+00 -0.00000000000E+00 -0.52999592367E+03  0.52999592367E+03  0.00000000000E+00 0. -1.
    9000007    1    1    2  501    0  0.35800200167E+02  0.32950736152E+02 -0.18794204713E+03  0.44462300708E+03  0.40000000000E+03 0. -1.
   -9000007    1    1    2    0  503 -0.35800200167E+02 -0.32950736152E+02 -0.23777473089E+02  0.40364932004E+03  0.40000000000E+03 0. -1.
<mgrwt>
<rscale>  2 0.40294839E+03</rscale>
<asrwt>0</asrwt>
<pdfrwt beam="1">  1       21 0.48965600E-01 0.40294839E+03</pdfrwt>
<pdfrwt beam="2">  1       21 0.81537835E-01 0.40294839E+03</pdfrwt>
<totfact> 0.46809599E+03</totfact>
</mgrwt>
</event>
<event>
 4    1  0.4656600E-002  0.4732528E+03  0.7818608E-02  0.1021006E+00
         21   -1    0    0  503  502  0.00000000000E+00  0.00000000000E+00  0.64236182904E+03  0.64236182904E+03  0.00000000000E+00 0.  1.
         21   -1    0    0  501  503 -0.00000000000E+00 -0.00000000000E+00 -0.35131056464E+03  0.35131056464E+03  0.00000000000E+00 0. -1.
    9000007    1    1    2  501    0  0.15525462100E+03  0.19966024428E+03  0.18865159434E+03  0.50946799167E+03  0.40000000000E+03 0.  1.
   -9000007    1    1    2    0  502 -0.15525462100E+03 -0.19966024428E+03  0.10239967007E+03  0.48420440200E+03  0.40000000000E+03 0. -1.
<mgrwt>
<rscale>  2 0.47325280E+03</rscale>
<asrwt>0</asrwt>
<pdfrwt beam="1">  1       21 0.98824897E-01 0.47325280E+03</pdfrwt>
<pdfrwt beam="2">  1       21 0.54047779E-01 0.47325280E+03</pdfrwt>
<totfact> 0.23450202E+03</totfact>
</mgrwt>
</event>
<event>
 4    1  0.4656600E-002  0.4568381E+03  0.7818608E-02  0.1025702E+00
         21   -1    0    0  501  502  0.00000000000E+00  0.00000000000E+00  0.65269799799E+03  0.65269799799E+03  0.00000000000E+00 0.  1.
         21   -1    0    0  502  503 -0.00000000000E+00 -0.00000000000E+00 -0.40962098078E+03  0.40962098078E+03  0.00000000000E+00 0.  1.
    9000007    1    1    2  501    0  0.21802691039E+03  0.34136766392E+02 -0.12725576317E+03  0.47423104257E+03  0.40000000000E+03 0.  1.
   -9000007    1    1    2    0  503 -0.21802691039E+03 -0.34136766392E+02  0.37033278038E+03  0.58808793620E+03  0.40000000000E+03 0.  1.
<mgrwt>
<rscale>  2 0.45683810E+03</rscale>
<asrwt>0</asrwt>
<pdfrwt beam="1">  1       21 0.10041508E+00 0.45683810E+03</pdfrwt>
<pdfrwt beam="2">  1       21 0.63018613E-01 0.45683810E+03</pdfrwt>
<totfact> 0.16231556E+03</totfact>
</mgrwt>
</event>
<event>
 4    1  0.4656600E-002  0.4392342E+03  0.7818608E-02  0.1030982E+00
         21   -1    0    0  501  502  0.00000000000E+00  0.00000000000E+00  0.19450284665E+04  0.19450284665E+04  0.00000000000E+00 0.  1.
         21   -1    0    0  502  503 -0.00000000000E+00 -0.00000000000E+00 -0.10264043614E+03  0.10264043614E+03  0.00000000000E+00 0.  1.
    9000007    1    1    2  501    0  0.87704465098E+02 -0.15885400332E+03  0.11089225692E+04  0.11927430285E+04  0.40000000000E+03 0.  1.
   -9000007    1    1    2    0  503 -0.87704465098E+02  0.15885400332E+03  0.73346546120E+03  0.85492587418E+03  0.40000000000E+03 0.  1.
<mgrwt>
<rscale>  2 0.43923418E+03</rscale>
<asrwt>0</asrwt>
<pdfrwt beam="1">  1       21 0.29923512E+00 0.43923418E+03</pdfrwt>
<pdfrwt beam="2">  1       21 0.15790838E-01 0.43923418E+03</pdfrwt>
<totfact> 0.10006343E+03</totfact>
</mgrwt>
</event>
<event>
 4    1  0.4656600E-002  0.4763492E+03  0.7818608E-02  0.1020143E+00
         21   -1    0    0  503  502  0.00000000000E+00  0.00000000000E+00  0.40065979249E+03  0.40065979249E+03  0.00000000000E+00 0. -1.
         21   -1    0    0  501  503 -0.00000000000E+00 -0.00000000000E+00 -0.87283555274E+03  0.87283555274E+03  0.00000000000E+00 0. -1.
    9000007    1    1    2  501    0 -0.13182746180E+03 -0.22255364514E+03 -0.61341247923E+03  0.77664887454E+03  0.40000000000E+03 0. -1.
   -9000007    1    1    2    0  502  0.13182746180E+03  0.22255364514E+03  0.14123671898E+03  0.49684647069E+03  0.40000000000E+03 0. -1.
<mgrwt>
<rscale>  2 0.47634925E+03</rscale>
<asrwt>0</asrwt>
<pdfrwt beam="1">  1       21 0.61639968E-01 0.47634925E+03</pdfrwt>
<pdfrwt beam="2">  1       21 0.13428239E+00 0.47634925E+03</pdfrwt>
<totfact> 0.81234767E+02</totfact>
</mgrwt>
</event>
<event>
 4    1  0.4656600E-002  0.4474942E+03  0.7818608E-02  0.1028472E+00
         21   -1    0    0  503  502  0.00000000000E+00  0.00000000000E+00  0.74799487520E+03  0.74799487520E+03  0.00000000000E+00 0. -1.
         21   -1    0    0  501  503 -0.00000000000E+00 -0.00000000000E+00 -0.35374167526E+03  0.35374167526E+03  0.00000000000E+00 0.  1.
    9000007    1    1    2  501    0 -0.10600770763E+03  0.17033329430E+03  0.46878038439E+03  0.64807878689E+03  0.40000000000E+03 0. -1.
   -9000007    1    1    2    0  502  0.10600770763E+03 -0.17033329430E+03 -0.74527184457E+02  0.45365776357E+03  0.40000000000E+03 0.  1.
<mgrwt>
<rscale>  2 0.44749421E+03</rscale>
<asrwt>0</asrwt>
<pdfrwt beam="1">  1       21 0.11507613E+00 0.44749421E+03</pdfrwt>
<pdfrwt beam="2">  1       21 0.54421796E-01 0.44749421E+03</pdfrwt>
<totfact> 0.16021317E+03</totfact>
</mgrwt>
</event>
<event>
 4    1  0.4656600E-002  0.4946514E+03  0.7818608E-02  0.1015184E+00
         21   -1    0    0  503  502  0.00000000000E+00  0.00000000000E+00  0.25819560941E+03  0.25819560941E+03  0.00000000000E+00 0. -1.
         21   -1    0    0  501  503 -0.00000000000E+00 -0.00000000000E+00 -0.96238307166E+03  0.96238307166E+03  0.00000000000E+00 0.  1.
    9000007    1    1    2  501    0  0.19608539120E+02  0.29033685582E+03 -0.42759533672E+03  0.65384842023E+03  0.40000000000E+03 0.  1.
   -9000007    1    1    2    0  502 -0.19608539120E+02 -0.29033685582E+03 -0.27659212553E+03  0.56673026084E+03  0.40000000000E+03 0. -1.
<mgrwt>
<rscale>  2 0.49465138E+03</rscale>
<asrwt>0</asrwt>
<pdfrwt beam="1">  1       21 0.39722401E-01 0.49465138E+03</pdfrwt>
<pdfrwt beam="2">  1       21 0.14805893E+00 0.49465138E+03</pdfrwt>
<totfact> 0.15838927E+03</totfact>
</mgrwt>
</event>
<event>
 4    1  0.4656600E-002  0.4996878E+03  0.7818608E-02  0.1013860E+00
         21   -1    0    0  501  502  0.00000000000E+00  0.00000000000E+00  0.66523888813E+03  0.66523888813E+03  0.00000000000E+00 0. -1.
         21   -1    0    0  502  503 -0.00000000000E+00 -0.00000000000E+00 -0.78112698278E+03  0.78112698278E+03  0.00000000000E+00 0. -1.
    9000007    1    1    2  501    0 -0.18143080659E+03  0.23826625792E+03  0.46329707520E+03  0.68141920074E+03  0.40000000000E+03 0. -1.
   -9000007    1    1    2    0  503  0.18143080659E+03 -0.23826625792E+03 -0.57918516985E+03  0.76494667018E+03  0.40000000000E+03 0. -1.
<mgrwt>
<rscale>  2 0.49968785E+03</rscale>
<asrwt>0</asrwt>
<pdfrwt beam="1">  1       21 0.10234445E+00 0.49968785E+03</pdfrwt>
<pdfrwt beam="2">  1       21 0.12017338E+00 0.49968785E+03</pdfrwt>
<totfact> 0.33121226E+02</totfact>
</mgrwt>
</event>
<event>
 4    1  0.4656600E-002  0.4718781E+03  0.7818608E-02  0.1021391E+00
         21   -1    0    0  501  502  0.00000000000E+00  0.00000000000E+00  0.80700163957E+03  0.80700163957E+03  0.00000000000E+00 0.  1.
         21   -1    0    0  502  503 -0.00000000000E+00 -0.00000000000E+00 -0.33758539335E+03  0.33758539335E+03  0.00000000000E+00 0. -1.
    9000007    1    1    2  501    0 -0.17189512854E+03 -0.18199166249E+03  0.47930074731E+03  0.67260546147E+03  0.40000000000E+03 0. -1.
   -9000007    1    1    2    0  503  0.17189512854E+03  0.18199166249E+03 -0.98845010906E+01  0.47198157145E+03  0.40000000000E+03 0. -1.
<mgrwt>
<rscale>  2 0.47187806E+03</rscale>
<asrwt>0</asrwt>
<pdfrwt beam="1">  1       21 0.12415410E+00 0.47187806E+03</pdfrwt>
<pdfrwt beam="2">  1       21 0.51936215E-01 0.47187806E+03</pdfrwt>
<totfact> 0.14470824E+03</totfact>
</mgrwt>
</event>
<event>
 4    1  0.4656600E-002  0.4330279E+03  0.7818608E-02  0.1032908E+00
         21   -1    0    0  501  502  0.00000000000E+00  0.00000000000E+00  0.16656992908E+04  0.16656992908E+04  0.00000000000E+00 0. -1.
         21   -1    0    0  502  503 -0.00000000000E+00 -0.00000000000E+00 -0.13974552985E+03  0.13974552985E+03  0.00000000000E+00 0. -1.
    9000007    1    1    2  501    0  0.28201692857E+02  0.16345593002E+03  0.36491707116E+03  0.56628406773E+03  0.40000000000E+03 0. -1.
   -9000007    1    1    2    0  503 -0.28201692857E+02 -0.16345593002E+03  0.11610366898E+04  0.12391607529E+04  0.40000000000E+03 0. -1.
<mgrwt>
<rscale>  2 0.43302792E+03</rscale>
<asrwt>0</asrwt>
<pdfrwt beam="1">  1       21 0.25626142E+00 0.43302792E+03</pdfrwt>
<pdfrwt beam="2">  1       21 0.21499313E-01 0.43302792E+03</pdfrwt>
<totfact> 0.10185465E+03</totfact>
</mgrwt>
</event>
<event>
 4    1  0.4656600E-002  0.4751119E+03  0.7818608E-02  0.1020487E+00
         21   -1    0    0  501  502  0.00000000000E+00  0.00000000000E+00  0.15917590268E+04  0.15917590268E+04  0.00000000000E+00 0.  1.
         21   -1    0    0  502  503 -0.00000000000E+00 -0.00000000000E+00 -0.14700458906E+03  0.14700458906E+03  0.00000000000E+00 0.  1.
    9000007    1    1    2  501    0  0.18659791741E+03 -0.17581953297E+03  0.88576407470E+03  0.10051414264E+04  0.40000000000E+03 0.  1.
   -9000007    1    1    2    0  503 -0.18659791741E+03  0.17581953297E+03  0.55899036309E+03  0.73362218954E+03  0.40000000000E+03 0.  1.
<mgrwt>
<rscale>  2 0.47511187E+03</rscale>
<asrwt>0</asrwt>
<pdfrwt beam="1">  1       21 0.24488599E+00 0.47511187E+03</pdfrwt>
<pdfrwt beam="2">  1       21 0.22616092E-01 0.47511187E+03</pdfrwt>
<totfact> 0.10631062E+03</totfact>
</mgrwt>
</event>
<event>
 4    1  0.4656600E-002  0.4211912E+03  0.7818608E-02  0.1036679E+00
         21   -1    0    0  503  502  0.00000000000E+00  0.00000000000E+00  0.24970001898E+03  0.24970001898E+03  0.00000000000E+00 0.  1.
         21   -1    0    0  501  503 -0.00000000000E+00 -0.00000000000E+00 -0.71981068936E+03  0.71981068936E+03  0.00000000000E+00 0.  1.
    9000007    1    1    2  501    0  0.12126379265E+03 -0.51933639353E+02 -0.29030412185E+03  0.51154520178E+03  0.40000000000E+03 0.  1.
   -9000007    1    1    2    0  502 -0.12126379265E+03  0.51933639353E+02 -0.17980654852E+03  0.45796550656E+03  0.40000000000E+03 0.  1.
<mgrwt>
<rscale>  2 0.42119118E+03</rscale>
<asrwt>0</asrwt>
<pdfrwt beam="1">  1       21 0.38415387E-01 0.42119118E+03</pdfrwt>
<pdfrwt beam="2">  1       21 0.11074011E+00 0.42119118E+03</pdfrwt>
<totfact> 0.36990867E+03</totfact>
</mgrwt>
</event>
<event>
 4    1  0.4656600E-002  0.4075856E+03  0.7818608E-02  0.1041184E+00
         21   -1    0    0  503  502  0.00000000000E+00  0.00000000000E+00  0.71247146760E+03  0.71247146760E+03  0.00000000000E+00 0.  1.
         21   -1    0    0  501  503 -0.00000000000E+00 -0.00000000000E+00 -0.62790726443E+03  0.62790726443E+03  0.00000000000E+00 0.  1.
    9000007    1    1    2  501    0  0.22053388005E+02 -0.75097955457E+02 -0.48909709830E+03  0.63666476768E+03  0.40000000000E+03 0.  1.
   -9000007    1    1    2    0  502 -0.22053388005E+02  0.75097955457E+02  0.57366130146E+03  0.70371396436E+03  0.40000000000E+03 0.  1.
<mgrwt>
<rscale>  2 0.40758564E+03</rscale>
<asrwt>0</asrwt>
<pdfrwt beam="1">  1       21 0.10961100E+00 0.40758564E+03</pdfrwt>
<pdfrwt beam="2">  1       21 0.96601117E-01 0.40758564E+03</pdfrwt>
<totfact> 0.50069011E+02</totfact>
</mgrwt>
</event>
<event>
 4    1  0.4656600E-002  0.4348137E+03  0.7818608E-02  0.1032350E+00
         21   -1    0    0  501  502  0.00000000000E+00  0.00000000000E+00  0.95962865651E+02  0.95962865651E+02  0.00000000000E+00 0.  1.
         21   -1    0    0  502  503 -0.00000000000E+00 -0.00000000000E+00 -0.19927966440E+04  0.19927966440E+04  0.00000000000E+00 0. -1.
    9000007    1    1    2  501    0  0.15698371400E+03  0.66475801330E+02 -0.10597081507E+04  0.11454450153E+04  0.40000000000E+03 0. -1.
   -9000007    1    1    2    0  503 -0.15698371400E+03 -0.66475801330E+02 -0.83712562771E+03  0.94331449432E+03  0.40000000000E+03 0.  1.
<mgrwt>
<rscale>  2 0.43481366E+03</rscale>
<asrwt>0</asrwt>
<pdfrwt beam="1">  1       21 0.14763518E-01 0.43481366E+03</pdfrwt>
<pdfrwt beam="2">  1       21 0.30658409E+00 0.43481366E+03</pdfrwt>
<totfact> 0.10266983E+03</totfact>
</mgrwt>
</event>
<event>
 4    1  0.4656600E-002  0.5222555E+03  0.7818608E-02  0.1008128E+00
         21   -1    0    0  501  502  0.00000000000E+00  0.00000000000E+00  0.46728561684E+03  0.46728561684E+03  0.00000000000E+00 0.  1.
         21   -1    0    0  502  503 -0.00000000000E+00 -0.00000000000E+00 -0.11219383719E+04  0.11219383719E+04  0.00000000000E+00 0.  1.
    9000007    1    1    2  501    0 -0.27736913409E+03  0.18925413120E+03  0.22305188005E+03  0.56789339133E+03  0.40000000000E+03 0.  1.
   -9000007    1    1    2    0  503  0.27736913409E+03 -0.18925413120E+03 -0.87770463510E+03  0.10213305974E+04  0.40000000000E+03 0.  1.
<mgrwt>
<rscale>  2 0.52225546E+03</rscale>
<asrwt>0</asrwt>
<pdfrwt beam="1">  1       21 0.71890096E-01 0.52225546E+03</pdfrwt>
<pdfrwt beam="2">  1       21 0.17260590E+00 0.52225546E+03</pdfrwt>
<totfact> 0.28346015E+02</totfact>
</mgrwt>
</event>
<event>
 4    1  0.4656600E-002  0.5245558E+03  0.7818608E-02  0.1007561E+00
         21   -1    0    0  501  502  0.00000000000E+00  0.00000000000E+00  0.32032621464E+03  0.32032621464E+03  0.00000000000E+00 0. -1.
         21   -1    0    0  502  503 -0.00000000000E+00 -0.00000000000E+00 -0.88035356619E+03  0.88035356619E+03  0.00000000000E+00 0. -1.
    9000007    1    1    2  501    0  0.33696289785E+03 -0.40184149855E+02 -0.18650538372E+03  0.55672526311E+03  0.40000000000E+03 0. -1.
   -9000007    1    1    2    0  503 -0.33696289785E+03  0.40184149855E+02 -0.37352196783E+03  0.64395451771E+03  0.40000000000E+03 0. -1.
<mgrwt>
<rscale>  2 0.52455577E+03</rscale>
<asrwt>0</asrwt>
<pdfrwt beam="1">  1       21 0.49280956E-01 0.52455577E+03</pdfrwt>
<pdfrwt beam="2">  1       21 0.13543901E+00 0.52455577E+03</pdfrwt>
<totfact> 0.12663936E+03</totfact>
</mgrwt>
</event>
<event>
 4    1  0.4656600E-002  0.8357484E+03  0.7818608E-02  0.9509667E-01
         21   -1    0    0  501  502  0.00000000000E+00  0.00000000000E+00  0.18921941492E+04  0.18921941492E+04  0.00000000000E+00 0. -1.
         21   -1    0    0  502  503 -0.00000000000E+00 -0.00000000000E+00 -0.74292896232E+03  0.74292896232E+03  0.00000000000E+00 0. -1.
    9000007    1    1    2  501    0  0.71691827598E+03  0.15653609676E+03  0.15092057998E+04  0.17251601404E+04  0.40000000000E+03 0. -1.
   -9000007    1    1    2    0  503 -0.71691827598E+03 -0.15653609676E+03 -0.35994061287E+03  0.90996297112E+03  0.40000000000E+03 0. -1.
<mgrwt>
<rscale>  2 0.83574839E+03</rscale>
<asrwt>0</asrwt>
<pdfrwt beam="1">  1       21 0.29110679E+00 0.83574839E+03</pdfrwt>
<pdfrwt beam="2">  1       21 0.11429676E+00 0.83574839E+03</pdfrwt>
<totfact> 0.13969202E+01</totfact>
</mgrwt>
</event>
<event>
 4    1  0.4656600E-002  0.4438872E+03  0.7818608E-02  0.1029561E+00
         21   -1    0    0  501  502  0.00000000000E+00  0.00000000000E+00  0.13511733676E+04  0.13511733676E+04  0.00000000000E+00 0.  1.
         21   -1    0    0  502  503 -0.00000000000E+00 -0.00000000000E+00 -0.15204695282E+03  0.15204695282E+03  0.00000000000E+00 0.  1.
    9000007    1    1    2  501    0 -0.12974518421E+03 -0.14213377986E+03  0.44752871190E+03  0.63033147801E+03  0.40000000000E+03 0.  1.
   -9000007    1    1    2    0  503  0.12974518421E+03  0.14213377986E+03  0.75159770287E+03  0.87288884238E+03  0.40000000000E+03 0.  1.
<mgrwt>
<rscale>  2 0.44388718E+03</rscale>
<asrwt>0</asrwt>
<pdfrwt beam="1">  1       21 0.20787282E+00 0.44388718E+03</pdfrwt>
<pdfrwt beam="2">  1       21 0.23391840E-01 0.44388718E+03</pdfrwt>
<totfact> 0.17351520E+03</totfact>
</mgrwt>
</event>
<event>
 4    1  0.4656600E-002  0.4488785E+03  0.7818608E-02  0.1028057E+00
         21   -1    0    0  501  502  0.00000000000E+00  0.00000000000E+00  0.83557650160E+03  0.83557650160E+03  0.00000000000E+00 0. -1.
         21   -1    0    0  502  503 -0.00000000000E+00 -0.00000000000E+00 -0.25645913321E+03  0.25645913321E+03  0.00000000000E+00 0.  1.
    9000007    1    1    2  501    0  0.96917568041E+02  0.17916153551E+03  0.42300256235E+03  0.61678443443E+03  0.40000000000E+03 0. -1.
   -9000007    1    1    2    0  503 -0.96917568041E+02 -0.17916153551E+03  0.15611480604E+03  0.47525120038E+03  0.40000000000E+03 0. -1.
<mgrwt>
<rscale>  2 0.44887846E+03</rscale>
<asrwt>0</asrwt>
<pdfrwt beam="1">  1       21 0.12855023E+00 0.44887846E+03</pdfrwt>
<pdfrwt beam="2">  1       21 0.39455252E-01 0.44887846E+03</pdfrwt>
<totfact> 0.23755725E+03</totfact>
</mgrwt>
</event>
<event>
 4    1  0.4656600E-002  0.4498089E+03  0.7818608E-02  0.1027779E+00
         21   -1    0    0  501  502  0.00000000000E+00  0.00000000000E+00  0.42157933090E+03  0.42157933090E+03  0.00000000000E+00 0. -1.
         21   -1    0    0  502  503 -0.00000000000E+00 -0.00000000000E+00 -0.57843661778E+03  0.57843661778E+03  0.00000000000E+00 0.  1.
    9000007    1    1    2  501    0 -0.20570858677E+03 -0.34676759841E+01  0.12791185199E+03  0.46764248024E+03  0.40000000000E+03 0. -1.
   -9000007    1    1    2    0  503  0.20570858677E+03  0.34676759841E+01 -0.28476913887E+03  0.53237346844E+03  0.40000000000E+03 0.  1.
<mgrwt>
<rscale>  2 0.44980890E+03</rscale>
<asrwt>0</asrwt>
<pdfrwt beam="1">  1       21 0.64858359E-01 0.44980890E+03</pdfrwt>
<pdfrwt beam="2">  1       21 0.88990249E-01 0.44980890E+03</pdfrwt>
<totfact> 0.20392688E+03</totfact>
</mgrwt>
</event>
<event>
 4    1  0.4656600E-002  0.5583958E+03  0.7818608E-02  0.9995691E-01
         21   -1    0    0  503  502  0.00000000000E+00  0.00000000000E+00  0.27804229654E+03  0.27804229654E+03  0.00000000000E+00 0.  1.
         21   -1    0    0  501  503 -0.00000000000E+00 -0.00000000000E+00 -0.13014994657E+04  0.13014994657E+04  0.00000000000E+00 0.  1.
    9000007    1    1    2  501    0 -0.38690463720E+03  0.45942482860E+02 -0.80549023025E+03  0.98011245327E+03  0.40000000000E+03 0.  1.
   -9000007    1    1    2    0  502  0.38690463720E+03 -0.45942482860E+02 -0.21796693895E+03  0.59942930900E+03  0.40000000000E+03 0.  1.
<mgrwt>
<rscale>  2 0.55839584E+03</rscale>
<asrwt>0</asrwt>
<pdfrwt beam="1">  1       21 0.42775738E-01 0.55839584E+03</pdfrwt>
<pdfrwt beam="2">  1       21 0.20023069E+00 0.55839584E+03</pdfrwt>
<totfact> 0.55426185E+02</totfact>
</mgrwt>
</event>
<event>
 4    1  0.4656600E-002  0.5205444E+03  0.7818608E-02  0.1008551E+00
         21   -1    0    0  501  502  0.00000000000E+00  0.00000000000E+00  0.42065034861E+03  0.42065034861E+03  0.00000000000E+00 0. -1.
         21   -1    0    0  502  503 -0.00000000000E+00 -0.00000000000E+00 -0.18122364623E+04  0.18122364623E+04  0.00000000000E+00 0. -1.
    9000007    1    1    2  501    0  0.28313417051E+03  0.17550349449E+03  0.20053044016E+03  0.55783410842E+03  0.40000000000E+03 0. -1.
   -9000007    1    1    2    0  503 -0.28313417051E+03 -0.17550349449E+03 -0.15921165539E+04  0.16750527025E+04  0.40000000000E+03 0. -1.
<mgrwt>
<rscale>  2 0.52054436E+03</rscale>
<asrwt>0</asrwt>
<pdfrwt beam="1">  1       21 0.64715439E-01 0.52054436E+03</pdfrwt>
<pdfrwt beam="2">  1       21 0.27880561E+00 0.52054436E+03</pdfrwt>
<totfact> 0.73839069E+01</totfact>
</mgrwt>
</event>
<event>
 4    1  0.4656600E-002  0.4407396E+03  0.7818608E-02  0.1030520E+00
         21   -1    0    0  503  502  0.00000000000E+00  0.00000000000E+00  0.46777110835E+03  0.46777110835E+03  0.00000000000E+00 0. -1.
         21   -1    0    0  501  503 -0.00000000000E+00 -0.00000000000E+00 -0.71953115137E+03  0.71953115137E+03  0.00000000000E+00 0.  1.
    9000007    1    1    2  501    0 -0.12101833220E+03 -0.14002120681E+03 -0.51191765826E+03  0.67550800434E+03  0.40000000000E+03 0.  1.
   -9000007    1    1    2    0  502  0.12101833220E+03  0.14002120681E+03  0.26015761524E+03  0.51179425539E+03  0.40000000000E+03 0. -1.
<mgrwt>
<rscale>  2 0.44073958E+03</rscale>
<asrwt>0</asrwt>
<pdfrwt beam="1">  1       21 0.71964786E-01 0.44073958E+03</pdfrwt>
<pdfrwt beam="2">  1       21 0.11069710E+00 0.44073958E+03</pdfrwt>
<totfact> 0.95502351E+02</totfact>
</mgrwt>
</event>
<event>
 4    1  0.4656600E-002  0.4697006E+03  0.7818608E-02  0.1022005E+00
         21   -1    0    0  501  502  0.00000000000E+00  0.00000000000E+00  0.88673032615E+03  0.88673032615E+03  0.00000000000E+00 0.  1.
         21   -1    0    0  502  503 -0.00000000000E+00 -0.00000000000E+00 -0.24905487962E+03  0.24905487962E+03  0.00000000000E+00 0.  1.
    9000007    1    1    2  501    0 -0.23539116738E+03 -0.72178105804E+02  0.30067765126E+03  0.55769680886E+03  0.40000000000E+03 0.  1.
   -9000007    1    1    2    0  503  0.23539116738E+03  0.72178105804E+02  0.33699779526E+03  0.57808839692E+03  0.40000000000E+03 0.  1.
<mgrwt>
<rscale>  2 0.46970063E+03</rscale>
<asrwt>0</asrwt>
<pdfrwt beam="1">  1       21 0.13642005E+00 0.46970063E+03</pdfrwt>
<pdfrwt beam="2">  1       21 0.38316136E-01 0.46970063E+03</pdfrwt>
<totfact> 0.21438509E+03</totfact>
</mgrwt>
</event>
<event>
 4    1  0.4656600E-002  0.4838263E+03  0.7818608E-02  0.1018089E+00
         21   -1    0    0  503  502  0.00000000000E+00  0.00000000000E+00  0.15539221399E+04  0.15539221399E+04  0.00000000000E+00 0.  1.
         21   -1    0    0  501  503 -0.00000000000E+00 -0.00000000000E+00 -0.17754705953E+03  0.17754705953E+03  0.00000000000E+00 0. -1.
    9000007    1    1    2  501    0 -0.26663835030E+03 -0.54698441340E+02  0.35118383666E+03  0.59784447515E+03  0.40000000000E+03 0. -1.
   -9000007    1    1    2    0  502  0.26663835030E+03  0.54698441340E+02  0.10251912437E+04  0.11336247243E+04  0.40000000000E+03 0.  1.
<mgrwt>
<rscale>  2 0.48382634E+03</rscale>
<asrwt>0</asrwt>
<pdfrwt beam="1">  1       21 0.23906494E+00 0.48382634E+03</pdfrwt>
<pdfrwt beam="2">  1       21 0.27314933E-01 0.48382634E+03</pdfrwt>
<totfact> 0.79669353E+02</totfact>
</mgrwt>
</event>
<event>
 4    1  0.4656600E-002  0.4113304E+03  0.7818608E-02  0.1039925E+00
         21   -1    0    0  501  502  0.00000000000E+00  0.00000000000E+00  0.12482836071E+03  0.12482836071E+03  0.00000000000E+00 0. -1.
         21   -1    0    0  502  503 -0.00000000000E+00 -0.00000000000E+00 -0.13662341651E+04  0.13662341651E+04  0.00000000000E+00 0. -1.
    9000007    1    1    2  501    0 -0.83460477520E+02  0.47191298459E+02 -0.55432076101E+03  0.69026384524E+03  0.40000000000E+03 0. -1.
   -9000007    1    1    2    0  503  0.83460477520E+02 -0.47191298459E+02 -0.68708504340E+03  0.80079868059E+03  0.40000000000E+03 0. -1.
<mgrwt>
<rscale>  2 0.41133037E+03</rscale>
<asrwt>0</asrwt>
<pdfrwt beam="1">  1       21 0.19204363E-01 0.41133037E+03</pdfrwt>
<pdfrwt beam="2">  1       21 0.21018987E+00 0.41133037E+03</pdfrwt>
<totfact> 0.24800000E+03</totfact>
</mgrwt>
</event>
<event>
 4    1  0.4656600E-002  0.4268527E+03  0.7818608E-02  0.1034859E+00
         21   -1    0    0  503  502  0.00000000000E+00  0.00000000000E+00  0.17151524681E+03  0.17151524681E+03  0.00000000000E+00 0. -1.
         21   -1    0    0  501  503 -0.00000000000E+00 -0.00000000000E+00 -0.14163904600E+04  0.14163904600E+04  0.00000000000E+00 0. -1.
    9000007    1    1    2  501    0  0.53405330207E+01  0.14891176446E+03 -0.10194015636E+04  0.11051618808E+04  0.40000000000E+03 0. -1.
   -9000007    1    1    2    0  502 -0.53405330207E+01 -0.14891176446E+03 -0.22547364956E+03  0.48274382599E+03  0.40000000000E+03 0. -1.
<mgrwt>
<rscale>  2 0.42685271E+03</rscale>
<asrwt>0</asrwt>
<pdfrwt beam="1">  1       21 0.26386962E-01 0.42685271E+03</pdfrwt>
<pdfrwt beam="2">  1       21 0.21790622E+00 0.42685271E+03</pdfrwt>
<totfact> 0.11915993E+03</totfact>
</mgrwt>
</event>
<event>
 4    1  0.4656600E-002  0.5389254E+03  0.7818608E-02  0.1004090E+00
         21   -1    0    0  503  502  0.00000000000E+00  0.00000000000E+00  0.30793620128E+03  0.30793620128E+03  0.00000000000E+00 0.  1.
         21   -1    0    0  501  503 -0.00000000000E+00 -0.00000000000E+00 -0.10123553118E+04  0.10123553118E+04  0.00000000000E+00 0. -1.
    9000007    1    1    2  501    0  0.97699312301E+02 -0.34770014443E+03 -0.52476786159E+03  0.75221130982E+03  0.40000000000E+03 0.  1.
   -9000007    1    1    2    0  502 -0.97699312301E+02  0.34770014443E+03 -0.17965124889E+03  0.56808020322E+03  0.40000000000E+03 0.  1.
<mgrwt>
<rscale>  2 0.53892536E+03</rscale>
<asrwt>0</asrwt>
<pdfrwt beam="1">  1       21 0.47374801E-01 0.53892536E+03</pdfrwt>
<pdfrwt beam="2">  1       21 0.15574697E+00 0.53892536E+03</pdfrwt>
<totfact> 0.93899462E+02</totfact>
</mgrwt>
</event>
<event>
 4    1  0.4656600E-002  0.4248885E+03  0.7818608E-02  0.1035487E+00
         21   -1    0    0  501  502  0.00000000000E+00  0.00000000000E+00  0.88367363358E+03  0.88367363358E+03  0.00000000000E+00 0.  1.
         21   -1    0    0  502  503 -0.00000000000E+00 -0.00000000000E+00 -0.26813457822E+03  0.26813457822E+03  0.00000000000E+00 0.  1.
    9000007    1    1    2  501    0  0.98749101292E+02 -0.10382122646E+03  0.58877726522E+03  0.72607775073E+03  0.40000000000E+03 0.  1.
   -9000007    1    1    2    0  503 -0.98749101292E+02  0.10382122646E+03  0.26761790138E+02  0.42573046107E+03  0.40000000000E+03 0.  1.
<mgrwt>
<rscale>  2 0.42488849E+03</rscale>
<asrwt>0</asrwt>
<pdfrwt beam="1">  1       21 0.13594979E+00 0.42488849E+03</pdfrwt>
<pdfrwt beam="2">  1       21 0.41251474E-01 0.42488849E+03</pdfrwt>
<totfact> 0.18913882E+03</totfact>
</mgrwt>
</event>
<event>
 4    1  0.4656600E-002  0.4984006E+03  0.7818608E-02  0.1014197E+00
         21   -1    0    0  503  502  0.00000000000E+00  0.00000000000E+00  0.67318851188E+03  0.67318851188E+03  0.00000000000E+00 0.  1.
         21   -1    0    0  501  503 -0.00000000000E+00 -0.00000000000E+00 -0.36900956161E+03  0.36900956161E+03  0.00000000000E+00 0. -1.
    9000007    1    1    2  501    0 -0.52718177827E+02 -0.29261575014E+03  0.15536483742E+03  0.52205499347E+03  0.40000000000E+03 0. -1.
   -9000007    1    1    2    0  502  0.52718177827E+02  0.29261575014E+03  0.14881411285E+03  0.52014308001E+03  0.40000000000E+03 0.  1.
<mgrwt>
<rscale>  2 0.49840063E+03</rscale>
<asrwt>0</asrwt>
<pdfrwt beam="1">  1       21 0.10356746E+00 0.49840063E+03</pdfrwt>
<pdfrwt beam="2">  1       21 0.56770702E-01 0.49840063E+03</pdfrwt>
<totfact> 0.18636353E+03</totfact>
</mgrwt>
</event>
<event>
 4    1  0.4656600E-002  0.5085884E+03  0.7818608E-02  0.1011561E+00
         21   -1    0    0  501  502  0.00000000000E+00  0.00000000000E+00  0.18330417988E+04  0.18330417988E+04  0.00000000000E+00 0.  1.
         21   -1    0    0  502  503 -0.00000000000E+00 -0.00000000000E+00 -0.32639124660E+03  0.32639124660E+03  0.00000000000E+00 0.  1.
    9000007    1    1    2  501    0  0.22776744067E+03  0.21629652408E+03  0.15668207917E+04  0.16472976618E+04  0.40000000000E+03 0.  1.
   -9000007    1    1    2    0  503 -0.22776744067E+03 -0.21629652408E+03 -0.60170239525E+02  0.51213538355E+03  0.40000000000E+03 0.  1.
<mgrwt>
<rscale>  2 0.50858843E+03</rscale>
<asrwt>0</asrwt>
<pdfrwt beam="1">  1       21 0.28200642E+00 0.50858843E+03</pdfrwt>
<pdfrwt beam="2">  1       21 0.50214039E-01 0.50858843E+03</pdfrwt>
<totfact> 0.12354060E+02</totfact>
</mgrwt>
</event>
<event>
 4    1  0.4656600E-002  0.4413396E+03  0.7818608E-02  0.1030337E+00
         21   -1    0    0  503  502  0.00000000000E+00  0.00000000000E+00  0.38079680518E+03  0.38079680518E+03  0.00000000000E+00 0. -1.
         21   -1    0    0  501  503 -0.00000000000E+00 -0.00000000000E+00 -0.54251164173E+03  0.54251164173E+03  0.00000000000E+00 0. -1.
    9000007    1    1    2  501    0 -0.14550966819E+03 -0.11665150670E+03  0.29504228170E+02  0.44232469638E+03  0.40000000000E+03 0. -1.
   -9000007    1    1    2    0  502  0.14550966819E+03  0.11665150670E+03 -0.19121906473E+03  0.48098375052E+03  0.40000000000E+03 0. -1.
<mgrwt>
<rscale>  2 0.44133959E+03</rscale>
<asrwt>0</asrwt>
<pdfrwt beam="1">  1       21 0.58584124E-01 0.44133959E+03</pdfrwt>
<pdfrwt beam="2">  1       21 0.83463329E-01 0.44133959E+03</pdfrwt>
<totfact> 0.29746828E+03</totfact>
</mgrwt>
</event>
<event>
 4    1  0.4656600E-002  0.4791452E+03  0.7818608E-02  0.1019370E+00
         21   -1    0    0  503  502  0.00000000000E+00  0.00000000000E+00  0.58337243162E+03  0.58337243162E+03  0.00000000000E+00 0. -1.
         21   -1    0    0  501  503 -0.00000000000E+00 -0.00000000000E+00 -0.59283469803E+03  0.59283469803E+03  0.00000000000E+00 0. -1.
    9000007    1    1    2  501    0  0.20996769735E+03 -0.15966729224E+03 -0.34571627361E+03  0.59084669753E+03  0.40000000000E+03 0. -1.
   -9000007    1    1    2    0  502 -0.20996769735E+03  0.15966729224E+03  0.33625400720E+03  0.58536043213E+03  0.40000000000E+03 0. -1.
<mgrwt>
<rscale>  2 0.47914515E+03</rscale>
<asrwt>0</asrwt>
<pdfrwt beam="1">  1       21 0.89749605E-01 0.47914515E+03</pdfrwt>
<pdfrwt beam="2">  1       21 0.91205338E-01 0.47914515E+03</pdfrwt>
<totfact> 0.90339438E+02</totfact>
</mgrwt>
</event>
<event>
 4    1  0.4656600E-002  0.4612818E+03  0.7818608E-02  0.1024410E+00
         21   -1    0    0  501  502  0.00000000000E+00  0.00000000000E+00  0.22170451422E+04  0.22170451422E+04  0.00000000000E+00 0.  1.
         21   -1    0    0  502  503 -0.00000000000E+00 -0.00000000000E+00 -0.96102217695E+02  0.96102217695E+02  0.00000000000E+00 0.  1.
    9000007    1    1    2  501    0  0.22973954618E+03  0.82607186934E+00  0.11025493782E+04  0.11951552505E+04  0.40000000000E+03 0.  1.
   -9000007    1    1    2    0  503 -0.22973954618E+03 -0.82607186934E+00  0.10183935463E+04  0.11179921094E+04  0.40000000000E+03 0.  1.
<mgrwt>
<rscale>  2 0.46128185E+03</rscale>
<asrwt>0</asrwt>
<pdfrwt beam="1">  1       21 0.34108383E+00 0.46128185E+03</pdfrwt>
<pdfrwt beam="2">  1       21 0.14784958E-01 0.46128185E+03</pdfrwt>
<totfact> 0.62385225E+02</totfact>
</mgrwt>
</event>
<event>
 4    1  0.4656600E-002  0.6983643E+03  0.7818608E-02  0.9720034E-01
         21   -1    0    0  501  502  0.00000000000E+00  0.00000000000E+00  0.67970556959E+03  0.67970556959E+03  0.00000000000E+00 0.  1.
         21   -1    0    0  502  503 -0.00000000000E+00 -0.00000000000E+00 -0.86795491347E+03  0.86795491347E+03  0.00000000000E+00 0. -1.
    9000007    1    1    2  501    0  0.55824915158E+03 -0.12676990104E+03  0.22801883692E+03  0.73464638639E+03  0.40000000000E+03 0.  1.
   -9000007    1    1    2    0  503 -0.55824915158E+03  0.12676990104E+03 -0.41626818080E+03  0.81301409667E+03  0.40000000000E+03 0. -1.
<mgrwt>
<rscale>  2 0.69836432E+03</rscale>
<asrwt>0</asrwt>
<pdfrwt beam="1">  1       21 0.10457009E+00 0.69836432E+03</pdfrwt>
<pdfrwt beam="2">  1       21 0.13353152E+00 0.69836432E+03</pdfrwt>
<totfact> 0.22222525E+02</totfact>
</mgrwt>
</event>
<event>
 4    1  0.4656600E-002  0.4306103E+03  0.7818608E-02  0.1033667E+00
         21   -1    0    0  501  502  0.00000000000E+00  0.00000000000E+00  0.60036693651E+03  0.60036693651E+03  0.00000000000E+00 0.  1.
         21   -1    0    0  502  503 -0.00000000000E+00 -0.00000000000E+00 -0.46175517071E+03  0.46175517071E+03  0.00000000000E+00 0.  1.
    9000007    1    1    2  501    0 -0.15811474589E+03  0.20613848106E+02  0.37490016160E+03  0.57094249690E+03  0.40000000000E+03 0.  1.
   -9000007    1    1    2    0  503  0.15811474589E+03 -0.20613848106E+02 -0.23628839580E+03  0.49117961032E+03  0.40000000000E+03 0.  1.
<mgrwt>
<rscale>  2 0.43061027E+03</rscale>
<asrwt>0</asrwt>
<pdfrwt beam="1">  1       21 0.92364144E-01 0.43061027E+03</pdfrwt>
<pdfrwt beam="2">  1       21 0.71039257E-01 0.43061027E+03</pdfrwt>
<totfact> 0.15343512E+03</totfact>
</mgrwt>
</event>
<event>
 4    1  0.4656600E-002  0.4077947E+03  0.7818608E-02  0.1041114E+00
         21   -1    0    0  503  502  0.00000000000E+00  0.00000000000E+00  0.25804606799E+03  0.25804606799E+03  0.00000000000E+00 0. -1.
         21   -1    0    0  501  503 -0.00000000000E+00 -0.00000000000E+00 -0.18601042803E+04  0.18601042803E+04  0.00000000000E+00 0. -1.
    9000007    1    1    2  501    0 -0.27903623056E+02  0.74282427092E+02 -0.16572071405E+04  0.17066434887E+04  0.40000000000E+03 0. -1.
   -9000007    1    1    2    0  502  0.27903623056E+02 -0.74282427092E+02  0.55148928206E+02  0.41150685953E+03  0.40000000000E+03 0. -1.
<mgrwt>
<rscale>  2 0.40779467E+03</rscale>
<asrwt>0</asrwt>
<pdfrwt beam="1">  1       21 0.39699394E-01 0.40779467E+03</pdfrwt>
<pdfrwt beam="2">  1       21 0.28616990E+00 0.40779467E+03</pdfrwt>
<totfact> 0.20260360E+02</totfact>
</mgrwt>
</event>
<event>
 4    1  0.4656600E-002  0.4382305E+03  0.7818608E-02  0.1031291E+00
         21   -1    0    0  501  502  0.00000000000E+00  0.00000000000E+00  0.60294984588E+03  0.60294984588E+03  0.00000000000E+00 0.  1.
         21   -1    0    0  502  503 -0.00000000000E+00 -0.00000000000E+00 -0.37484904816E+03  0.37484904816E+03  0.00000000000E+00 0.  1.
    9000007    1    1    2  501    0  0.41471535117E+01 -0.17896596055E+03  0.30358703193E+03  0.53311452791E+03  0.40000000000E+03 0.  1.
   -9000007    1    1    2    0  503 -0.41471535117E+01  0.17896596055E+03 -0.75486234210E+02  0.44468436612E+03  0.40000000000E+03 0.  1.
<mgrwt>
<rscale>  2 0.43823055E+03</rscale>
<asrwt>0</asrwt>
<pdfrwt beam="1">  1       21 0.92761514E-01 0.43823055E+03</pdfrwt>
<pdfrwt beam="2">  1       21 0.57669085E-01 0.43823055E+03</pdfrwt>
<totfact> 0.24030762E+03</totfact>
</mgrwt>
</event>
<event>
 4    1  0.4656600E-002  0.5540915E+03  0.7818608E-02  0.1000551E+00
         21   -1    0    0  503  502  0.00000000000E+00  0.00000000000E+00  0.76494081450E+03  0.76494081450E+03  0.00000000000E+00 0. -1.
         21   -1    0    0  501  503 -0.00000000000E+00 -0.00000000000E+00 -0.40235645458E+03  0.40235645458E+03  0.00000000000E+00 0. -1.
    9000007    1    1    2  501    0  0.30245004426E+03 -0.23567212568E+03  0.15226095833E+03  0.57463099423E+03  0.40000000000E+03 0. -1.
   -9000007    1    1    2    0  502 -0.30245004426E+03  0.23567212568E+03  0.21032340159E+03  0.59266627486E+03  0.40000000000E+03 0. -1.
<mgrwt>
<rscale>  2 0.55409149E+03</rscale>
<asrwt>0</asrwt>
<pdfrwt beam="1">  1       21 0.11768320E+00 0.55409149E+03</pdfrwt>
<pdfrwt beam="2">  1       21 0.61900993E-01 0.55409149E+03</pdfrwt>
<totfact> 0.11001422E+03</totfact>
</mgrwt>
</event>
<event>
 4    1  0.4656600E-002  0.4170160E+03  0.7818608E-02  0.1038042E+00
         21   -1    0    0  503  502  0.00000000000E+00  0.00000000000E+00  0.20265663787E+04  0.20265663787E+04  0.00000000000E+00 0. -1.
         21   -1    0    0  501  503 -0.00000000000E+00 -0.00000000000E+00 -0.13541296983E+03  0.13541296983E+03  0.00000000000E+00 0. -1.
    9000007    1    1    2  501    0 -0.55287999283E+02 -0.10414200194E+03  0.29133306228E+03  0.50870155554E+03  0.40000000000E+03 0. -1.
   -9000007    1    1    2    0  502  0.55287999283E+02  0.10414200194E+03  0.15998203466E+04  0.16532777930E+04  0.40000000000E+03 0. -1.
<mgrwt>
<rscale>  2 0.41701597E+03</rscale>
<asrwt>0</asrwt>
<pdfrwt beam="1">  1       21 0.31177942E+00 0.41701597E+03</pdfrwt>
<pdfrwt beam="2">  1       21 0.20832766E-01 0.41701597E+03</pdfrwt>
<totfact> 0.50564411E+02</totfact>
</mgrwt>
</event>
<event>
 4    1  0.4656600E-002  0.4324168E+03  0.7818608E-02  0.1033099E+00
         21   -1    0    0  503  502  0.00000000000E+00  0.00000000000E+00  0.37755203592E+03  0.37755203592E+03  0.00000000000E+00 0.  1.
         21   -1    0    0  501  503 -0.00000000000E+00 -0.00000000000E+00 -0.81585920026E+03  0.81585920026E+03  0.00000000000E+00 0.  1.
    9000007    1    1    2  501    0 -0.10313029289E+02 -0.16394478675E+03 -0.59321044633E+03  0.73408642905E+03  0.40000000000E+03 0.  1.
   -9000007    1    1    2    0  502  0.10313029289E+02  0.16394478675E+03  0.15490328199E+03  0.45932480713E+03  0.40000000000E+03 0.  1.
<mgrwt>
<rscale>  2 0.43241676E+03</rscale>
<asrwt>0</asrwt>
<pdfrwt beam="1">  1       21 0.58084929E-01 0.43241676E+03</pdfrwt>
<pdfrwt beam="2">  1       21 0.12551680E+00 0.43241676E+03</pdfrwt>
<totfact> 0.11229262E+03</totfact>
</mgrwt>
</event>
<event>
 4    1  0.4656600E-002  0.4824730E+03  0.7818608E-02  0.1018458E+00
         21   -1    0    0  503  502  0.00000000000E+00  0.00000000000E+00  0.14993898928E+03  0.14993898928E+03  0.00000000000E+00 0.  1.
         21   -1    0    0  501  503 -0.00000000000E+00 -0.00000000000E+00 -0.16542354566E+04  0.16542354566E+04  0.00000000000E+00 0. -1.
    9000007    1    1    2  501    0 -0.23902526189E+03 -0.12508850356E+03 -0.97585908639E+03  0.10886143330E+04  0.40000000000E+03 0. -1.
   -9000007    1    1    2    0  502  0.23902526189E+03  0.12508850356E+03 -0.52843738089E+03  0.71556011282E+03  0.40000000000E+03 0.  1.
<mgrwt>
<rscale>  2 0.48247301E+03</rscale>
<asrwt>0</asrwt>
<pdfrwt beam="1">  1       21 0.23067536E-01 0.48247301E+03</pdfrwt>
<pdfrwt beam="2">  1       21 0.25449777E+00 0.48247301E+03</pdfrwt>
<totfact> 0.88971233E+02</totfact>
</mgrwt>
</event>
<event>
 4    1  0.4656600E-002  0.5274500E+03  0.7818608E-02  0.1006852E+00
         21   -1    0    0  503  502  0.00000000000E+00  0.00000000000E+00  0.12422016223E+04  0.12422016223E+04  0.00000000000E+00 0. -1.
         21   -1    0    0  501  503 -0.00000000000E+00 -0.00000000000E+00 -0.32923763882E+03  0.32923763882E+03  0.00000000000E+00 0. -1.
    9000007    1    1    2  501    0 -0.31401228780E+03  0.13999922465E+03  0.12177307538E+02  0.52759054826E+03  0.40000000000E+03 0. -1.
   -9000007    1    1    2    0  502  0.31401228780E+03 -0.13999922465E+03  0.90078667597E+03  0.10438487129E+04  0.40000000000E+03 0. -1.
<mgrwt>
<rscale>  2 0.52745000E+03</rscale>
<asrwt>0</asrwt>
<pdfrwt beam="1">  1       21 0.19110794E+00 0.52745000E+03</pdfrwt>
<pdfrwt beam="2">  1       21 0.50651945E-01 0.52745000E+03</pdfrwt>
<totfact> 0.45283769E+02</totfact>
</mgrwt>
</event>
<event>
 4    1  0.4656600E-002  0.6551155E+03  0.7818608E-02  0.9797227E-01
         21   -1    0    0  503  502  0.00000000000E+00  0.00000000000E+00  0.10050020654E+04  0.10050020654E+04  0.00000000000E+00 0.  1.
         21   -1    0    0  501  503 -0.00000000000E+00 -0.00000000000E+00 -0.10258784829E+04  0.10258784829E+04  0.00000000000E+00 0. -1.
    9000007    1    1    2  501    0 -0.51880043846E+03  0.47297980126E+01 -0.78625863219E+03  0.10234153129E+04  0.40000000000E+03 0. -1.
   -9000007    1    1    2    0  502  0.51880043846E+03 -0.47297980126E+01  0.76538221476E+03  0.10074652354E+04  0.40000000000E+03 0.  1.
<mgrwt>
<rscale>  2 0.65511546E+03</rscale>
<asrwt>0</asrwt>
<pdfrwt beam="1">  1       21 0.15461570E+00 0.65511546E+03</pdfrwt>
<pdfrwt beam="2">  1       21 0.15782746E+00 0.65511546E+03</pdfrwt>
<totfact> 0.51411781E+01</totfact>
</mgrwt>
</event>
<event>
 4    1  0.4656600E-002  0.4413595E+03  0.7818608E-02  0.1030331E+00
         21   -1    0    0  503  502  0.00000000000E+00  0.00000000000E+00  0.14000624300E+04  0.14000624300E+04  0.00000000000E+00 0. -1.
         21   -1    0    0  501  503 -0.00000000000E+00 -0.00000000000E+00 -0.18650710851E+03  0.18650710851E+03  0.00000000000E+00 0. -1.
    9000007    1    1    2  501    0 -0.18009708535E+03  0.48613118973E+02  0.20697920546E+03  0.48748188375E+03  0.40000000000E+03 0. -1.
   -9000007    1    1    2    0  502  0.18009708535E+03 -0.48613118973E+02  0.10065761160E+04  0.10990876548E+04  0.40000000000E+03 0. -1.
<mgrwt>
<rscale>  2 0.44135949E+03</rscale>
<asrwt>0</asrwt>
<pdfrwt beam="1">  1       21 0.21539421E+00 0.44135949E+03</pdfrwt>
<pdfrwt beam="2">  1       21 0.28693402E-01 0.44135949E+03</pdfrwt>
<totfact> 0.10416169E+03</totfact>
</mgrwt>
</event>
<event>
 4    1  0.4656600E-002  0.4461934E+03  0.7818608E-02  0.1028863E+00
         21   -1    0    0  503  502  0.00000000000E+00  0.00000000000E+00  0.62451630263E+03  0.62451630263E+03  0.00000000000E+00 0. -1.
         21   -1    0    0  501  503 -0.00000000000E+00 -0.00000000000E+00 -0.32431989170E+03  0.32431989170E+03  0.00000000000E+00 0. -1.
    9000007    1    1    2  501    0 -0.89350779982E+02  0.17636598179E+03  0.21205623037E+03  0.49402061319E+03  0.40000000000E+03 0. -1.
   -9000007    1    1    2    0  502  0.89350779982E+02 -0.17636598179E+03  0.88140180567E+02  0.45481558114E+03  0.40000000000E+03 0. -1.
<mgrwt>
<rscale>  2 0.44619337E+03</rscale>
<asrwt>0</asrwt>
<pdfrwt beam="1">  1       21 0.96079431E-01 0.44619337E+03</pdfrwt>
<pdfrwt beam="2">  1       21 0.49895368E-01 0.44619337E+03</pdfrwt>
<totfact> 0.30071866E+03</totfact>
</mgrwt>
</event>
<event>
 4    1  0.4656600E-002  0.4929596E+03  0.7818608E-02  0.1015633E+00
         21   -1    0    0  503  502  0.00000000000E+00  0.00000000000E+00  0.42186294470E+03  0.42186294470E+03  0.00000000000E+00 0. -1.
         21   -1    0    0  501  503 -0.00000000000E+00 -0.00000000000E+00 -0.58198147135E+03  0.58198147135E+03  0.00000000000E+00 0. -1.
    9000007    1    1    2  501    0 -0.17252653796E+03  0.23074604641E+03 -0.13078133200E+03  0.51001264792E+03  0.40000000000E+03 0. -1.
   -9000007    1    1    2    0  502  0.17252653796E+03 -0.23074604641E+03 -0.29337194649E+02  0.49383176814E+03  0.40000000000E+03 0. -1.
<mgrwt>
<rscale>  2 0.49295958E+03</rscale>
<asrwt>0</asrwt>
<pdfrwt beam="1">  1       21 0.64901992E-01 0.49295958E+03</pdfrwt>
<pdfrwt beam="2">  1       21 0.89535610E-01 0.49295958E+03</pdfrwt>
<totfact> 0.19760598E+03</totfact>
</mgrwt>
</event>
<event>
 4    1  0.4656600E-002  0.4282848E+03  0.7818608E-02  0.1034403E+00
         21   -1    0    0  503  502  0.00000000000E+00  0.00000000000E+00  0.11964563945E+04  0.11964563945E+04  0.00000000000E+00 0.  1.
         21   -1    0    0  501  503 -0.00000000000E+00 -0.00000000000E+00 -0.25565519967E+03  0.25565519967E+03  0.00000000000E+00 0.  1.
    9000007    1    1    2  501    0  0.12973541239E+03  0.81219191469E+02  0.11014329307E+02  0.42842636443E+03  0.40000000000E+03 0.  1.
   -9000007    1    1    2    0  502 -0.12973541239E+03 -0.81219191469E+02  0.92978686547E+03  0.10236852297E+04  0.40000000000E+03 0.  1.
<mgrwt>
<rscale>  2 0.42828476E+03</rscale>
<asrwt>0</asrwt>
<pdfrwt beam="1">  1       21 0.18407021E+00 0.42828476E+03</pdfrwt>
<pdfrwt beam="2">  1       21 0.39331570E-01 0.42828476E+03</pdfrwt>
<totfact> 0.89908162E+02</totfact>
</mgrwt>
</event>
<event>
 4    1  0.4656600E-002  0.4229489E+03  0.7818608E-02  0.1036111E+00
         21   -1    0    0  501  502  0.00000000000E+00  0.00000000000E+00  0.26370924609E+03  0.26370924609E+03  0.00000000000E+00 0.  1.
         21   -1    0    0  502  503 -0.00000000000E+00 -0.00000000000E+00 -0.79752775996E+03  0.79752775996E+03  0.00000000000E+00 0.  1.
    9000007    1    1    2  501    0  0.56587086692E+02 -0.12523437335E+03 -0.61785052903E+02  0.42743787784E+03  0.40000000000E+03 0.  1.
   -9000007    1    1    2    0  503 -0.56587086692E+02  0.12523437335E+03 -0.47203346097E+03  0.63379912821E+03  0.40000000000E+03 0.  1.
<mgrwt>
<rscale>  2 0.42294887E+03</rscale>
<asrwt>0</asrwt>
<pdfrwt beam="1">  1       21 0.40570653E-01 0.42294887E+03</pdfrwt>
<pdfrwt beam="2">  1       21 0.12269658E+00 0.42294887E+03</pdfrwt>
<totfact> 0.25541712E+03</totfact>
</mgrwt>
</event>
<event>
 4    1  0.4656600E-002  0.4122233E+03  0.7818608E-02  0.1039627E+00
         21   -1    0    0  503  502  0.00000000000E+00  0.00000000000E+00  0.27975989760E+03  0.27975989760E+03  0.00000000000E+00 0. -1.
         21   -1    0    0  501  503 -0.00000000000E+00 -0.00000000000E+00 -0.10521316318E+04  0.10521316318E+04  0.00000000000E+00 0.  1.
    9000007    1    1    2  501    0 -0.63981695707E+02 -0.76383339744E+02 -0.81914758541E+03  0.91702281251E+03  0.40000000000E+03 0.  1.
   -9000007    1    1    2    0  502  0.63981695707E+02  0.76383339744E+02  0.46775851232E+02  0.41486871687E+03  0.40000000000E+03 0. -1.
<mgrwt>
<rscale>  2 0.41222333E+03</rscale>
<asrwt>0</asrwt>
<pdfrwt beam="1">  1       21 0.43039984E-01 0.41222333E+03</pdfrwt>
<pdfrwt beam="2">  1       21 0.16186641E+00 0.41222333E+03</pdfrwt>
<totfact> 0.10865922E+03</totfact>
</mgrwt>
</event>
<event>
 4    1  0.4656600E-002  0.4040551E+03  0.7818608E-02  0.1042385E+00
         21   -1    0    0  501  502  0.00000000000E+00  0.00000000000E+00  0.10637211003E+03  0.10637211003E+03  0.00000000000E+00 0.  1.
         21   -1    0    0  502  503 -0.00000000000E+00 -0.00000000000E+00 -0.25922261737E+04  0.25922261737E+04  0.00000000000E+00 0.  1.
    9000007    1    1    2  501    0  0.56111677079E+02  0.10583168867E+02 -0.21047055224E+04  0.21431392535E+04  0.40000000000E+03 0.  1.
   -9000007    1    1    2    0  503 -0.56111677079E+02 -0.10583168867E+02 -0.38114854125E+03  0.55545903023E+03  0.40000000000E+03 0.  1.
<mgrwt>
<rscale>  2 0.40405510E+03</rscale>
<asrwt>0</asrwt>
<pdfrwt beam="1">  1       21 0.16364941E-01 0.40405510E+03</pdfrwt>
<pdfrwt beam="2">  1       21 0.39880401E+00 0.40405510E+03</pdfrwt>
<totfact> 0.23422243E+02</totfact>
</mgrwt>
</event>
<event>
 4    1  0.4656600E-002  0.4769169E+03  0.7818608E-02  0.1019986E+00
         21   -1    0    0  501  502  0.00000000000E+00  0.00000000000E+00  0.11557341484E+04  0.11557341484E+04  0.00000000000E+00 0.  1.
         21   -1    0    0  502  503 -0.00000000000E+00 -0.00000000000E+00 -0.21921764386E+03  0.21921764386E+03  0.00000000000E+00 0.  1.
    9000007    1    1    2  501    0 -0.21773991045E+03 -0.14155942788E+03  0.68809695202E+03  0.83721392464E+03  0.40000000000E+03 0.  1.
   -9000007    1    1    2    0  503  0.21773991045E+03  0.14155942788E+03  0.24841955255E+03  0.53773786766E+03  0.40000000000E+03 0.  1.
<mgrwt>
<rscale>  2 0.47691691E+03</rscale>
<asrwt>0</asrwt>
<pdfrwt beam="1">  1       21 0.17780525E+00 0.47691691E+03</pdfrwt>
<pdfrwt beam="2">  1       21 0.33725792E-01 0.47691691E+03</pdfrwt>
<totfact> 0.13316167E+03</totfact>
</mgrwt>
</event>
<event>
 4    1  0.4656600E-002  0.5189369E+03  0.7818608E-02  0.1008951E+00
         21   -1    0    0  501  502  0.00000000000E+00  0.00000000000E+00  0.92697084409E+03  0.92697084409E+03  0.00000000000E+00 0.  1.
         21   -1    0    0  502  503 -0.00000000000E+00 -0.00000000000E+00 -0.33935408149E+03  0.33935408149E+03  0.00000000000E+00 0. -1.
    9000007    1    1    2  501    0 -0.28519306303E+03  0.16721365088E+03  0.53401717128E+03  0.74462730776E+03  0.40000000000E+03 0.  1.
   -9000007    1    1    2    0  503  0.28519306303E+03 -0.16721365088E+03  0.53599591317E+02  0.52169761781E+03  0.40000000000E+03 0.  1.
<mgrwt>
<rscale>  2 0.51893688E+03</rscale>
<asrwt>0</asrwt>
<pdfrwt beam="1">  1       21 0.14261090E+00 0.51893688E+03</pdfrwt>
<pdfrwt beam="2">  1       21 0.52208320E-01 0.51893688E+03</pdfrwt>
<totfact> 0.97745177E+02</totfact>
</mgrwt>
</event>
<event>
 4    1  0.4656600E-002  0.5778275E+03  0.7818608E-02  0.9952506E-01
         21   -1    0    0  501  502  0.00000000000E+00  0.00000000000E+00  0.93827612561E+03  0.93827612561E+03  0.00000000000E+00 0. -1.
         21   -1    0    0  502  503 -0.00000000000E+00 -0.00000000000E+00 -0.64320091807E+03  0.64320091807E+03  0.00000000000E+00 0. -1.
    9000007    1    1    2  501    0 -0.30756827604E+02 -0.41585884674E+03  0.67606398000E+03  0.88935204948E+03  0.40000000000E+03 0. -1.
   -9000007    1    1    2    0  503  0.30756827604E+02  0.41585884674E+03 -0.38098877246E+03  0.69212499420E+03  0.40000000000E+03 0. -1.
<mgrwt>
<rscale>  2 0.57782745E+03</rscale>
<asrwt>0</asrwt>
<pdfrwt beam="1">  1       21 0.14435017E+00 0.57782745E+03</pdfrwt>
<pdfrwt beam="2">  1       21 0.98953987E-01 0.57782745E+03</pdfrwt>
<totfact> 0.21543266E+02</totfact>
</mgrwt>
</event>
<event>
 4    1  0.4656600E-002  0.4276559E+03  0.7818608E-02  0.1034603E+00
         21   -1    0    0  503  502  0.00000000000E+00  0.00000000000E+00  0.13605225987E+03  0.13605225987E+03  0.00000000000E+00 0. -1.
         21   -1    0    0  501  503 -0.00000000000E+00 -0.00000000000E+00 -0.17414493788E+04  0.17414493788E+04  0.00000000000E+00 0. -1.
    9000007    1    1    2  501    0 -0.13616701922E+03  0.65940209031E+02 -0.12510245184E+04  0.13221013251E+04  0.40000000000E+03 0. -1.
   -9000007    1    1    2    0  502  0.13616701922E+03 -0.65940209031E+02 -0.35437260059E+03  0.55540031359E+03  0.40000000000E+03 0. -1.
<mgrwt>
<rscale>  2 0.42765590E+03</rscale>
<asrwt>0</asrwt>
<pdfrwt beam="1">  1       21 0.20931118E-01 0.42765590E+03</pdfrwt>
<pdfrwt beam="2">  1       21 0.26791528E+00 0.42765590E+03</pdfrwt>
<totfact> 0.91356238E+02</totfact>
</mgrwt>
</event>
<event>
 4    1  0.4656600E-002  0.4162878E+03  0.7818608E-02  0.1038281E+00
         21   -1    0    0  503  502  0.00000000000E+00  0.00000000000E+00  0.11528856699E+04  0.11528856699E+04  0.00000000000E+00 0. -1.
         21   -1    0    0  501  503 -0.00000000000E+00 -0.00000000000E+00 -0.17715952821E+03  0.17715952821E+03  0.00000000000E+00 0. -1.
    9000007    1    1    2  501    0  0.57697365674E+02 -0.99832570234E+02  0.22899087249E+03  0.47511298421E+03  0.40000000000E+03 0. -1.
   -9000007    1    1    2    0  502 -0.57697365674E+02  0.99832570234E+02  0.74673526924E+03  0.85493221393E+03  0.40000000000E+03 0. -1.
<mgrwt>
<rscale>  2 0.41628779E+03</rscale>
<asrwt>0</asrwt>
<pdfrwt beam="1">  1       21 0.17736702E+00 0.41628779E+03</pdfrwt>
<pdfrwt beam="2">  1       21 0.27255313E-01 0.41628779E+03</pdfrwt>
<totfact> 0.21022594E+03</totfact>
</mgrwt>
</event>
<event>
 4    1  0.4656600E-002  0.7628056E+03  0.7818608E-02  0.9615472E-01
         21   -1    0    0  501  502  0.00000000000E+00  0.00000000000E+00  0.10719604282E+04  0.10719604282E+04  0.00000000000E+00 0.  1.
         21   -1    0    0  502  503 -0.00000000000E+00 -0.00000000000E+00 -0.61017820499E+03  0.61017820499E+03  0.00000000000E+00 0. -1.
    9000007    1    1    2  501    0 -0.59947530110E+03 -0.25000350684E+03  0.51035536915E+03  0.91778809803E+03  0.40000000000E+03 0.  1.
   -9000007    1    1    2    0  503  0.59947530110E+03  0.25000350684E+03 -0.48573145971E+02  0.76435053514E+03  0.40000000000E+03 0. -1.
<mgrwt>
<rscale>  2 0.76280560E+03</rscale>
<asrwt>0</asrwt>
<pdfrwt beam="1">  1       21 0.16491699E+00 0.76280560E+03</pdfrwt>
<pdfrwt beam="2">  1       21 0.93873570E-01 0.76280560E+03</pdfrwt>
<totfact> 0.15879385E+02</totfact>
</mgrwt>
</event>
<event>
 4    1  0.4656600E-002  0.4758955E+03  0.7818608E-02  0.1020269E+00
         21   -1    0    0  501  502  0.00000000000E+00  0.00000000000E+00  0.72145224669E+03  0.72145224669E+03  0.00000000000E+00 0.  1.
         21   -1    0    0  502  503 -0.00000000000E+00 -0.00000000000E+00 -0.32748993263E+03  0.32748993263E+03  0.00000000000E+00 0.  1.
    9000007    1    1    2  501    0 -0.19609675086E+03 -0.16739939207E+03  0.30375165778E+03  0.56457201646E+03  0.40000000000E+03 0.  1.
   -9000007    1    1    2    0  503  0.19609675086E+03  0.16739939207E+03  0.90210656290E+02  0.48437016286E+03  0.40000000000E+03 0.  1.
<mgrwt>
<rscale>  2 0.47589546E+03</rscale>
<asrwt>0</asrwt>
<pdfrwt beam="1">  1       21 0.11099265E+00 0.47589546E+03</pdfrwt>
<pdfrwt beam="2">  1       21 0.50383067E-01 0.47589546E+03</pdfrwt>
<totfact> 0.20463143E+03</totfact>
</mgrwt>
</event>
<event>
 4    1  0.4656600E-002  0.6327273E+03  0.7818608E-02  0.9839741E-01
         21   -1    0    0  503  502  0.00000000000E+00  0.00000000000E+00  0.45487522687E+03  0.45487522687E+03  0.00000000000E+00 0.  1.
         21   -1    0    0  501  503 -0.00000000000E+00 -0.00000000000E+00 -0.10381420149E+04  0.10381420149E+04  0.00000000000E+00 0. -1.
    9000007    1    1    2  501    0 -0.44298806153E+03  0.21001285579E+03 -0.58288487904E+03  0.86028983748E+03  0.40000000000E+03 0.  1.
   -9000007    1    1    2    0  502  0.44298806153E+03 -0.21001285579E+03 -0.38190895815E+00  0.63272740427E+03  0.40000000000E+03 0. -1.
<mgrwt>
<rscale>  2 0.63272729E+03</rscale>
<asrwt>0</asrwt>
<pdfrwt beam="1">  1       21 0.69980804E-01 0.63272729E+03</pdfrwt>
<pdfrwt beam="2">  1       21 0.15971416E+00 0.63272729E+03</pdfrwt>
<totfact> 0.36052749E+02</totfact>
</mgrwt>
</event>
<event>
 4    1  0.4656600E-002  0.4582526E+03  0.7818608E-02  0.1025289E+00
         21   -1    0    0  503  502  0.00000000000E+00  0.00000000000E+00  0.13830073250E+03  0.13830073250E+03  0.00000000000E+00 0.  1.
         21   -1    0    0  501  503 -0.00000000000E+00 -0.00000000000E+00 -0.15588668716E+04  0.15588668716E+04  0.00000000000E+00 0.  1.
    9000007    1    1    2  501    0  0.11978084669E+03  0.18880672190E+03 -0.84701050441E+03  0.96302763410E+03  0.40000000000E+03 0.  1.
   -9000007    1    1    2    0  502 -0.11978084669E+03 -0.18880672190E+03 -0.57355563471E+03  0.73413997001E+03  0.40000000000E+03 0.  1.
<mgrwt>
<rscale>  2 0.45825258E+03</rscale>
<asrwt>0</asrwt>
<pdfrwt beam="1">  1       21 0.21277036E-01 0.45825258E+03</pdfrwt>
<pdfrwt beam="2">  1       21 0.23982567E+00 0.45825258E+03</pdfrwt>
<totfact> 0.12951745E+03</totfact>
</mgrwt>
</event>
<event>
 4    1  0.4656600E-002  0.4246682E+03  0.7818608E-02  0.1035558E+00
         21   -1    0    0  501  502  0.00000000000E+00  0.00000000000E+00  0.35541560189E+03  0.35541560189E+03  0.00000000000E+00 0. -1.
         21   -1    0    0  502  503 -0.00000000000E+00 -0.00000000000E+00 -0.85347270711E+03  0.85347270711E+03  0.00000000000E+00 0.  1.
    9000007    1    1    2  501    0 -0.13937769175E+03 -0.30280759296E+02  0.13586078245E+03  0.44587130155E+03  0.40000000000E+03 0. -1.
   -9000007    1    1    2    0  503  0.13937769175E+03  0.30280759296E+02 -0.63391788768E+03  0.76301700745E+03  0.40000000000E+03 0.  1.
<mgrwt>
<rscale>  2 0.42466818E+03</rscale>
<asrwt>0</asrwt>
<pdfrwt beam="1">  1       21 0.54679324E-01 0.42466818E+03</pdfrwt>
<pdfrwt beam="2">  1       21 0.13130349E+00 0.42466818E+03</pdfrwt>
<totfact> 0.11430401E+03</totfact>
</mgrwt>
</event>
<event>
 4    1  0.4656600E-002  0.4938928E+03  0.7818608E-02  0.1015385E+00
         21   -1    0    0  503  502  0.00000000000E+00  0.00000000000E+00  0.49181680263E+03  0.49181680263E+03  0.00000000000E+00 0.  1.
         21   -1    0    0  501  503 -0.00000000000E+00 -0.00000000000E+00 -0.14836734057E+04  0.14836734057E+04  0.00000000000E+00 0.  1.
    9000007    1    1    2  501    0 -0.28781101559E+03  0.33089242950E+02 -0.13018397992E+04  0.13923781603E+04  0.40000000000E+03 0.  1.
   -9000007    1    1    2    0  502  0.28781101559E+03 -0.33089242950E+02  0.30998319607E+03  0.58311204801E+03  0.40000000000E+03 0.  1.
<mgrwt>
<rscale>  2 0.49389278E+03</rscale>
<asrwt>0</asrwt>
<pdfrwt beam="1">  1       21 0.75664125E-01 0.49389278E+03</pdfrwt>
<pdfrwt beam="2">  1       21 0.22825744E+00 0.49389278E+03</pdfrwt>
<totfact> 0.10792445E+02</totfact>
</mgrwt>
</event>
<event>
 4    1  0.4656600E-002  0.4777302E+03  0.7818608E-02  0.1019761E+00
         21   -1    0    0  503  502  0.00000000000E+00  0.00000000000E+00  0.98446183590E+03  0.98446183590E+03  0.00000000000E+00 0.  1.
         21   -1    0    0  501  503 -0.00000000000E+00 -0.00000000000E+00 -0.23210072479E+03  0.23210072479E+03  0.00000000000E+00 0.  1.
    9000007    1    1    2  501    0  0.18431732791E+03 -0.18507632998E+03  0.35534139422E+03  0.59539367794E+03  0.40000000000E+03 0.  1.
   -9000007    1    1    2    0  502 -0.18431732791E+03  0.18507632998E+03  0.39701971690E+03  0.62116888275E+03  0.40000000000E+03 0.  1.
<mgrwt>
<rscale>  2 0.47773018E+03</rscale>
<asrwt>0</asrwt>
<pdfrwt beam="1">  1       21 0.15145567E+00 0.47773018E+03</pdfrwt>
<pdfrwt beam="2">  1       21 0.35707804E-01 0.47773018E+03</pdfrwt>
<totfact> 0.18636480E+03</totfact>
</mgrwt>
</event>
<event>
 4    1  0.4656600E-002  0.4000666E+03  0.7818608E-02  0.1043757E+00
         21   -1    0    0  503  502  0.00000000000E+00  0.00000000000E+00  0.72247133491E+03  0.72247133491E+03  0.00000000000E+00 0.  1.
         21   -1    0    0  501  503 -0.00000000000E+00 -0.00000000000E+00 -0.24439684156E+03  0.24439684156E+03  0.00000000000E+00 0.  1.
    9000007    1    1    2  501    0  0.47766034012E+01  0.55172709589E+01  0.91181707267E+02  0.41032591919E+03  0.40000000000E+03 0. -1.
   -9000007    1    1    2    0  502 -0.47766034012E+01 -0.55172709589E+01  0.38689278608E+03  0.55654225728E+03  0.40000000000E+03 0. -1.
<mgrwt>
<rscale>  2 0.40006656E+03</rscale>
<asrwt>0</asrwt>
<pdfrwt beam="1">  1       21 0.11114944E+00 0.40006656E+03</pdfrwt>
<pdfrwt beam="2">  1       21 0.37599514E-01 0.40006656E+03</pdfrwt>
<totfact> 0.38609450E+03</totfact>
</mgrwt>
</event>
<event>
 4    1  0.4656600E-002  0.6091937E+03  0.7818608E-02  0.9886514E-01
         21   -1    0    0  503  502  0.00000000000E+00  0.00000000000E+00  0.14147588411E+04  0.14147588411E+04  0.00000000000E+00 0. -1.
         21   -1    0    0  501  503 -0.00000000000E+00 -0.00000000000E+00 -0.27305006354E+03  0.27305006354E+03  0.00000000000E+00 0. -1.
    9000007    1    1    2  501    0 -0.44031138816E+03  0.13131203537E+03  0.40354895604E+03  0.73073163959E+03  0.40000000000E+03 0. -1.
   -9000007    1    1    2    0  502  0.44031138816E+03 -0.13131203537E+03  0.73815982151E+03  0.95707726505E+03  0.40000000000E+03 0. -1.
<mgrwt>
<rscale>  2 0.60919370E+03</rscale>
<asrwt>0</asrwt>
<pdfrwt beam="1">  1       21 0.21765520E+00 0.60919370E+03</pdfrwt>
<pdfrwt beam="2">  1       21 0.42007703E-01 0.60919370E+03</pdfrwt>
<totfact> 0.43316969E+02</totfact>
</mgrwt>
</event>
<event>
 4    1  0.4656600E-002  0.4609809E+03  0.7818608E-02  0.1024497E+00
         21   -1    0    0  501  502  0.00000000000E+00  0.00000000000E+00  0.45286515229E+03  0.45286515229E+03  0.00000000000E+00 0.  1.
         21   -1    0    0  502  503 -0.00000000000E+00 -0.00000000000E+00 -0.61487402901E+03  0.61487402901E+03  0.00000000000E+00 0. -1.
    9000007    1    1    2  501    0  0.13481663608E+03  0.18527779056E+03  0.17881428427E+03  0.49444709858E+03  0.40000000000E+03 0.  1.
   -9000007    1    1    2    0  503 -0.13481663608E+03 -0.18527779056E+03 -0.34082316100E+03  0.57329208272E+03  0.40000000000E+03 0. -1.
<mgrwt>
<rscale>  2 0.46098089E+03</rscale>
<asrwt>0</asrwt>
<pdfrwt beam="1">  1       21 0.69671562E-01 0.46098089E+03</pdfrwt>
<pdfrwt beam="2">  1       21 0.94596004E-01 0.46098089E+03</pdfrwt>
<totfact> 0.14962093E+03</totfact>
</mgrwt>
</event>
<event>
 4    1  0.4656600E-002  0.4394787E+03  0.7818608E-02  0.1030907E+00
         21   -1    0    0  503  502  0.00000000000E+00  0.00000000000E+00  0.20242238209E+03  0.20242238209E+03  0.00000000000E+00 0.  1.
         21   -1    0    0  501  503 -0.00000000000E+00 -0.00000000000E+00 -0.98677712409E+03  0.98677712409E+03  0.00000000000E+00 0.  1.
    9000007    1    1    2  501    0 -0.29134306815E+02 -0.17970164071E+03 -0.50029560475E+03  0.66591078955E+03  0.40000000000E+03 0.  1.
   -9000007    1    1    2    0  502  0.29134306815E+02  0.17970164071E+03 -0.28405913725E+03  0.52328871664E+03  0.40000000000E+03 0.  1.
<mgrwt>
<rscale>  2 0.43947865E+03</rscale>
<asrwt>0</asrwt>
<pdfrwt beam="1">  1       21 0.31141905E-01 0.43947865E+03</pdfrwt>
<pdfrwt beam="2">  1       21 0.15181187E+00 0.43947865E+03</pdfrwt>
<totfact> 0.24752187E+03</totfact>
</mgrwt>
</event>
<event>
 4    1  0.4656600E-002  0.6345001E+03  0.7818608E-02  0.9836306E-01
         21   -1    0    0  503  502  0.00000000000E+00  0.00000000000E+00  0.32190211650E+03  0.32190211650E+03  0.00000000000E+00 0. -1.
         21   -1    0    0  501  503 -0.00000000000E+00 -0.00000000000E+00 -0.12550098758E+04  0.12550098758E+04  0.00000000000E+00 0. -1.
    9000007    1    1    2  501    0  0.60659156860E+02  0.48878506467E+03 -0.51296800537E+03  0.81592067463E+03  0.40000000000E+03 0. -1.
   -9000007    1    1    2    0  502 -0.60659156860E+02 -0.48878506467E+03 -0.42013975394E+03  0.76099131769E+03  0.40000000000E+03 0. -1.
<mgrwt>
<rscale>  2 0.63450010E+03</rscale>
<asrwt>0</asrwt>
<pdfrwt beam="1">  1       21 0.49523402E-01 0.63450010E+03</pdfrwt>
<pdfrwt beam="2">  1       21 0.19307844E+00 0.63450010E+03</pdfrwt>
<totfact> 0.44256728E+02</totfact>
</mgrwt>
</event>
<event>
 4    1  0.4656600E-002  0.6079656E+03  0.7818608E-02  0.9889016E-01
         21   -1    0    0  503  502  0.00000000000E+00  0.00000000000E+00  0.54034617742E+03  0.54034617742E+03  0.00000000000E+00 0. -1.
         21   -1    0    0  501  503 -0.00000000000E+00 -0.00000000000E+00 -0.69333264391E+03  0.69333264391E+03  0.00000000000E+00 0.  1.
    9000007    1    1    2  501    0 -0.82993449760E+02  0.45026025708E+03 -0.51083923912E+01  0.60798709483E+03  0.40000000000E+03 0. -1.
   -9000007    1    1    2    0  502  0.82993449760E+02 -0.45026025708E+03 -0.14787807409E+03  0.62569172650E+03  0.40000000000E+03 0. -1.
<mgrwt>
<rscale>  2 0.60796563E+03</rscale>
<asrwt>0</asrwt>
<pdfrwt beam="1">  1       21 0.83130181E-01 0.60796563E+03</pdfrwt>
<pdfrwt beam="2">  1       21 0.10666656E+00 0.60796563E+03</pdfrwt>
<totfact> 0.70695838E+02</totfact>
</mgrwt>
</event>
<event>
 4    1  0.4656600E-002  0.5635149E+03  0.7818608E-02  0.9984133E-01
         21   -1    0    0  501  502  0.00000000000E+00  0.00000000000E+00  0.58961881230E+03  0.58961881230E+03  0.00000000000E+00 0. -1.
         21   -1    0    0  502  503 -0.00000000000E+00 -0.00000000000E+00 -0.13461230386E+04  0.13461230386E+04  0.00000000000E+00 0. -1.
    9000007    1    1    2  501    0  0.34387370752E+03  0.19824200047E+03  0.37140298535E+03  0.67489939621E+03  0.40000000000E+03 0. -1.
   -9000007    1    1    2    0  503 -0.34387370752E+03 -0.19824200047E+03 -0.11279072116E+04  0.12608424547E+04  0.40000000000E+03 0. -1.
<mgrwt>
<rscale>  2 0.56351488E+03</rscale>
<asrwt>0</asrwt>
<pdfrwt beam="1">  1       21 0.90710587E-01 0.56351488E+03</pdfrwt>
<pdfrwt beam="2">  1       21 0.20709585E+00 0.56351488E+03</pdfrwt>
<totfact> 0.93593765E+01</totfact>
</mgrwt>
</event>
<event>
 4    1  0.4656600E-002  0.4364806E+03  0.7818608E-02  0.1031832E+00
         21   -1    0    0  501  502  0.00000000000E+00  0.00000000000E+00  0.15516448335E+03  0.15516448335E+03  0.00000000000E+00 0. -1.
         21   -1    0    0  502  503 -0.00000000000E+00 -0.00000000000E+00 -0.13042812791E+04  0.13042812791E+04  0.00000000000E+00 0.  1.
    9000007    1    1    2  501    0  0.12592467447E+03 -0.12107160387E+03 -0.75123103880E+03  0.86882876941E+03  0.40000000000E+03 0. -1.
   -9000007    1    1    2    0  503 -0.12592467447E+03  0.12107160387E+03 -0.39788575699E+03  0.59061699309E+03  0.40000000000E+03 0. -1.
<mgrwt>
<rscale>  2 0.43648065E+03</rscale>
<asrwt>0</asrwt>
<pdfrwt beam="1">  1       21 0.23871460E-01 0.43648065E+03</pdfrwt>
<pdfrwt beam="2">  1       21 0.20065865E+00 0.43648065E+03</pdfrwt>
<totfact> 0.18676342E+03</totfact>
</mgrwt>
</event>
<event>
 4    1  0.4656600E-002  0.5283873E+03  0.7818608E-02  0.1006624E+00
         21   -1    0    0  501  502  0.00000000000E+00  0.00000000000E+00  0.56651672380E+03  0.56651672380E+03  0.00000000000E+00 0.  1.
         21   -1    0    0  502  503 -0.00000000000E+00 -0.00000000000E+00 -0.73166814220E+03  0.73166814220E+03  0.00000000000E+00 0. -1.
    9000007    1    1    2  501    0  0.14237661048E+03  0.31451879354E+03  0.28828135624E+03  0.60191304277E+03  0.40000000000E+03 0.  1.
   -9000007    1    1    2    0  503 -0.14237661048E+03 -0.31451879354E+03 -0.45343277464E+03  0.69627182323E+03  0.40000000000E+03 0. -1.
<mgrwt>
<rscale>  2 0.52838733E+03</rscale>
<asrwt>0</asrwt>
<pdfrwt beam="1">  1       21 0.87156420E-01 0.52838733E+03</pdfrwt>
<pdfrwt beam="2">  1       21 0.11256433E+00 0.52838733E+03</pdfrwt>
<totfact> 0.56824480E+02</totfact>
</mgrwt>
</event>
<event>
 4    1  0.4656600E-002  0.4229428E+03  0.7818608E-02  0.1036113E+00
         21   -1    0    0  503  502  0.00000000000E+00  0.00000000000E+00  0.67306753854E+03  0.67306753854E+03  0.00000000000E+00 0.  1.
         21   -1    0    0  501  503 -0.00000000000E+00 -0.00000000000E+00 -0.39667910807E+03  0.39667910807E+03  0.00000000000E+00 0.  1.
    9000007    1    1    2  501    0  0.39028321597E+02  0.13174742793E+03 -0.16907397224E+03  0.45548501923E+03  0.40000000000E+03 0.  1.
   -9000007    1    1    2    0  502 -0.39028321597E+02 -0.13174742793E+03  0.44546240271E+03  0.61426162739E+03  0.40000000000E+03 0.  1.
<mgrwt>
<rscale>  2 0.42294278E+03</rscale>
<asrwt>0</asrwt>
<pdfrwt beam="1">  1       21 0.10354885E+00 0.42294278E+03</pdfrwt>
<pdfrwt beam="2">  1       21 0.61027555E-01 0.42294278E+03</pdfrwt>
<totfact> 0.16378896E+03</totfact>
</mgrwt>
</event>
<event>
 4    1  0.4656600E-002  0.4093443E+03  0.7818608E-02  0.1040591E+00
         21   -1    0    0  501  502  0.00000000000E+00  0.00000000000E+00  0.68265528174E+03  0.68265528174E+03  0.00000000000E+00 0. -1.
         21   -1    0    0  502  503 -0.00000000000E+00 -0.00000000000E+00 -0.28953173943E+03  0.28953173943E+03  0.00000000000E+00 0. -1.
    9000007    1    1    2  501    0 -0.34724895612E+02 -0.79730203105E+02  0.38621713162E+03  0.56278450265E+03  0.40000000000E+03 0. -1.
   -9000007    1    1    2    0  503  0.34724895612E+02  0.79730203105E+02  0.69064106871E+01  0.40940251852E+03  0.40000000000E+03 0. -1.
<mgrwt>
<rscale>  2 0.40934426E+03</rscale>
<asrwt>0</asrwt>
<pdfrwt beam="1">  1       21 0.10502389E+00 0.40934426E+03</pdfrwt>
<pdfrwt beam="2">  1       21 0.44543345E-01 0.40934426E+03</pdfrwt>
<totfact> 0.31190587E+03</totfact>
</mgrwt>
</event>
<event>
 4    1  0.4656600E-002  0.6080166E+03  0.7818608E-02  0.9888912E-01
         21   -1    0    0  501  502  0.00000000000E+00  0.00000000000E+00  0.53390352151E+03  0.53390352151E+03  0.00000000000E+00 0.  1.
         21   -1    0    0  502  503 -0.00000000000E+00 -0.00000000000E+00 -0.95241578692E+03  0.95241578692E+03  0.00000000000E+00 0. -1.
    9000007    1    1    2  501    0  0.44783405073E+03  0.95544873760E+02  0.17903193608E+03  0.63382694328E+03  0.40000000000E+03 0.  1.
   -9000007    1    1    2    0  503 -0.44783405073E+03 -0.95544873760E+02 -0.59754420149E+03  0.85249236514E+03  0.40000000000E+03 0.  1.
<mgrwt>
<rscale>  2 0.60801658E+03</rscale>
<asrwt>0</asrwt>
<pdfrwt beam="1">  1       21 0.82139003E-01 0.60801658E+03</pdfrwt>
<pdfrwt beam="2">  1       21 0.14652551E+00 0.60801658E+03</pdfrwt>
<totfact> 0.31905554E+02</totfact>
</mgrwt>
</event>
<event>
 4    1  0.4656600E-002  0.4459586E+03  0.7818608E-02  0.1028934E+00
         21   -1    0    0  503  502  0.00000000000E+00  0.00000000000E+00  0.11542206993E+03  0.11542206993E+03  0.00000000000E+00 0.  1.
         21   -1    0    0  501  503 -0.00000000000E+00 -0.00000000000E+00 -0.17443579827E+04  0.17443579827E+04  0.00000000000E+00 0. -1.
    9000007    1    1    2  501    0  0.17954495019E+03 -0.81502875561E+02 -0.91721915517E+03  0.10198872911E+04  0.40000000000E+03 0.  1.
   -9000007    1    1    2    0  502 -0.17954495019E+03  0.81502875561E+02 -0.71171675757E+03  0.83989276153E+03  0.40000000000E+03 0.  1.
<mgrwt>
<rscale>  2 0.44595864E+03</rscale>
<asrwt>0</asrwt>
<pdfrwt beam="1">  1       21 0.17757241E-01 0.44595864E+03</pdfrwt>
<pdfrwt beam="2">  1       21 0.26836277E+00 0.44595864E+03</pdfrwt>
<totfact> 0.12281288E+03</totfact>
</mgrwt>
</event>
<event>
 4    1  0.4656600E-002  0.4512765E+03  0.7818608E-02  0.1027342E+00
         21   -1    0    0  503  502  0.00000000000E+00  0.00000000000E+00  0.51392845774E+03  0.51392845774E+03  0.00000000000E+00 0.  1.
         21   -1    0    0  501  503 -0.00000000000E+00 -0.00000000000E+00 -0.43692464862E+03  0.43692464862E+03  0.00000000000E+00 0.  1.
    9000007    1    1    2  501    0 -0.15830181271E+03  0.13634874418E+03 -0.10653438798E+03  0.46368094609E+03  0.40000000000E+03 0. -1.
   -9000007    1    1    2    0  502  0.15830181271E+03 -0.13634874418E+03  0.18353819711E+03  0.48717216027E+03  0.40000000000E+03 0. -1.
<mgrwt>
<rscale>  2 0.45127646E+03</rscale>
<asrwt>0</asrwt>
<pdfrwt beam="1">  1       21 0.79065917E-01 0.45127646E+03</pdfrwt>
<pdfrwt beam="2">  1       21 0.67219177E-01 0.45127646E+03</pdfrwt>
<totfact> 0.24800870E+03</totfact>
</mgrwt>
</event>
<event>
 4    1  0.4656600E-002  0.4602443E+03  0.7818608E-02  0.1024710E+00
         21   -1    0    0  501  502  0.00000000000E+00  0.00000000000E+00  0.21294482657E+04  0.21294482657E+04  0.00000000000E+00 0.  1.
         21   -1    0    0  502  503 -0.00000000000E+00 -0.00000000000E+00 -0.11315785917E+03  0.11315785917E+03  0.00000000000E+00 0.  1.
    9000007    1    1    2  501    0 -0.22003784687E+03  0.58379513060E+02  0.61821730134E+03  0.77072527744E+03  0.40000000000E+03 0.  1.
   -9000007    1    1    2    0  503  0.22003784687E+03 -0.58379513060E+02  0.13980731052E+04  0.14718808475E+04  0.40000000000E+03 0.  1.
<mgrwt>
<rscale>  2 0.46024431E+03</rscale>
<asrwt>0</asrwt>
<pdfrwt beam="1">  1       21 0.32760740E+00 0.46024431E+03</pdfrwt>
<pdfrwt beam="2">  1       21 0.17408903E-01 0.46024431E+03</pdfrwt>
<totfact> 0.55575478E+02</totfact>
</mgrwt>
</event>
<event>
 4    1  0.4656600E-002  0.4839042E+03  0.7818608E-02  0.1018068E+00
         21   -1    0    0  501  502  0.00000000000E+00  0.00000000000E+00  0.52138217483E+03  0.52138217483E+03  0.00000000000E+00 0. -1.
         21   -1    0    0  502  503 -0.00000000000E+00 -0.00000000000E+00 -0.51078502561E+03  0.51078502561E+03  0.00000000000E+00 0. -1.
    9000007    1    1    2  501    0  0.81049087414E+02  0.25998906614E+03  0.18461485327E+03  0.51792462109E+03  0.40000000000E+03 0. -1.
   -9000007    1    1    2    0  503 -0.81049087414E+02 -0.25998906614E+03 -0.17401770405E+03  0.51424257934E+03  0.40000000000E+03 0. -1.
<mgrwt>
<rscale>  2 0.48390419E+03</rscale>
<asrwt>0</asrwt>
<pdfrwt beam="1">  1       21 0.80212642E-01 0.48390419E+03</pdfrwt>
<pdfrwt beam="2">  1       21 0.78582312E-01 0.48390419E+03</pdfrwt>
<totfact> 0.16631243E+03</totfact>
</mgrwt>
</event>
<event>
 4    1  0.4656600E-002  0.6201432E+03  0.7818608E-02  0.9864475E-01
         21   -1    0    0  503  502  0.00000000000E+00  0.00000000000E+00  0.15442457826E+04  0.15442457826E+04  0.00000000000E+00 0.  1.
         21   -1    0    0  501  503 -0.00000000000E+00 -0.00000000000E+00 -0.50745722261E+03  0.50745722261E+03  0.00000000000E+00 0.  1.
    9000007    1    1    2  501    0  0.27403935309E+03 -0.38662651722E+03 -0.21366497513E+03  0.65591947101E+03  0.40000000000E+03 0. -1.
   -9000007    1    1    2    0  502 -0.27403935309E+03  0.38662651722E+03  0.12504535351E+04  0.13957835342E+04  0.40000000000E+03 0. -1.
<mgrwt>
<rscale>  2 0.62014323E+03</rscale>
<asrwt>0</asrwt>
<pdfrwt beam="1">  1       21 0.23757627E+00 0.62014323E+03</pdfrwt>
<pdfrwt beam="2">  1       21 0.78070343E-01 0.62014323E+03</pdfrwt>
<totfact> 0.82582359E+01</totfact>
</mgrwt>
</event>
<event>
 4    1  0.4656600E-002  0.4186207E+03  0.7818608E-02  0.1037516E+00
         21   -1    0    0  501  502  0.00000000000E+00  0.00000000000E+00  0.92607686693E+03  0.92607686693E+03  0.00000000000E+00 0.  1.
         21   -1    0    0  502  503 -0.00000000000E+00 -0.00000000000E+00 -0.11403115843E+04  0.11403115843E+04  0.00000000000E+00 0.  1.
    9000007    1    1    2  501    0 -0.10592845528E+03  0.63422534483E+02  0.83646249976E+03  0.93536771861E+03  0.40000000000E+03 0.  1.
   -9000007    1    1    2    0  503  0.10592845528E+03 -0.63422534483E+02 -0.10506972171E+04  0.11310207326E+04  0.40000000000E+03 0.  1.
<mgrwt>
<rscale>  2 0.41862066E+03</rscale>
<asrwt>0</asrwt>
<pdfrwt beam="1">  1       21 0.14247336E+00 0.41862066E+03</pdfrwt>
<pdfrwt beam="2">  1       21 0.17543255E+00 0.41862066E+03</pdfrwt>
<totfact> 0.53609866E+01</totfact>
</mgrwt>
</event>
<event>
 4    1  0.4656600E-002  0.4279051E+03  0.7818608E-02  0.1034524E+00
         21   -1    0    0  501  502  0.00000000000E+00  0.00000000000E+00  0.60289329111E+03  0.60289329111E+03  0.00000000000E+00 0. -1.
         21   -1    0    0  502  503 -0.00000000000E+00 -0.00000000000E+00 -0.60222881945E+03  0.60222881945E+03  0.00000000000E+00 0. -1.
    9000007    1    1    2  501    0 -0.13730164030E+03  0.65200217008E+02  0.42456915189E+03  0.60279496802E+03  0.40000000000E+03 0. -1.
   -9000007    1    1    2    0  503  0.13730164030E+03 -0.65200217008E+02 -0.42390468023E+03  0.60232714255E+03  0.40000000000E+03 0. -1.
<mgrwt>
<rscale>  2 0.42790514E+03</rscale>
<asrwt>0</asrwt>
<pdfrwt beam="1">  1       21 0.92752814E-01 0.42790514E+03</pdfrwt>
<pdfrwt beam="2">  1       21 0.92650588E-01 0.42790514E+03</pdfrwt>
<totfact> 0.82219372E+02</totfact>
</mgrwt>
</event>
<event>
 4    1  0.4656600E-002  0.6408755E+03  0.7818608E-02  0.9824053E-01
         21   -1    0    0  503  502  0.00000000000E+00  0.00000000000E+00  0.41551083400E+03  0.41551083400E+03  0.00000000000E+00 0.  1.
         21   -1    0    0  501  503 -0.00000000000E+00 -0.00000000000E+00 -0.13207435791E+04  0.13207435791E+04  0.00000000000E+00 0. -1.
    9000007    1    1    2  501    0 -0.23490540823E+03 -0.44220000866E+03 -0.88804783768E+03  0.10951485563E+04  0.40000000000E+03 0. -1.
   -9000007    1    1    2    0  502  0.23490540823E+03  0.44220000866E+03 -0.17184907393E+02  0.64110585672E+03  0.40000000000E+03 0.  1.
<mgrwt>
<rscale>  2 0.64087549E+03</rscale>
<asrwt>0</asrwt>
<pdfrwt beam="1">  1       21 0.63924744E-01 0.64087549E+03</pdfrwt>
<pdfrwt beam="2">  1       21 0.20319132E+00 0.64087549E+03</pdfrwt>
<totfact> 0.21580819E+02</totfact>
</mgrwt>
</event>
<event>
 4    1  0.4656600E-002  0.5604135E+03  0.7818608E-02  0.9991119E-01
         21   -1    0    0  503  502  0.00000000000E+00  0.00000000000E+00  0.33386951247E+03  0.33386951247E+03  0.00000000000E+00 0.  1.
         21   -1    0    0  501  503 -0.00000000000E+00 -0.00000000000E+00 -0.98845040023E+03  0.98845040023E+03  0.00000000000E+00 0. -1.
    9000007    1    1    2  501    0 -0.39236329371E+03 -0.10692792791E+02 -0.47264320465E+03  0.73311314882E+03  0.40000000000E+03 0. -1.
   -9000007    1    1    2    0  502  0.39236329371E+03  0.10692792791E+02 -0.18193768311E+03  0.58920676388E+03  0.40000000000E+03 0.  1.
<mgrwt>
<rscale>  2 0.56041350E+03</rscale>
<asrwt>0</asrwt>
<pdfrwt beam="1">  1       21 0.51364541E-01 0.56041350E+03</pdfrwt>
<pdfrwt beam="2">  1       21 0.15206929E+00 0.56041350E+03</pdfrwt>
<totfact> 0.83775855E+02</totfact>
</mgrwt>
</event>
<event>
 4    1  0.4656600E-002  0.4363817E+03  0.7818608E-02  0.1031863E+00
         21   -1    0    0  503  502  0.00000000000E+00  0.00000000000E+00  0.16861727735E+03  0.16861727735E+03  0.00000000000E+00 0. -1.
         21   -1    0    0  501  503 -0.00000000000E+00 -0.00000000000E+00 -0.11490728531E+04  0.11490728531E+04  0.00000000000E+00 0. -1.
    9000007    1    1    2  501    0 -0.72583134536E+02 -0.15862117159E+03 -0.57653057345E+03  0.72306050204E+03  0.40000000000E+03 0. -1.
   -9000007    1    1    2    0  502  0.72583134536E+02  0.15862117159E+03 -0.40392500230E+03  0.59462962841E+03  0.40000000000E+03 0. -1.
<mgrwt>
<rscale>  2 0.43638170E+03</rscale>
<asrwt>0</asrwt>
<pdfrwt beam="1">  1       21 0.25941121E-01 0.43638170E+03</pdfrwt>
<pdfrwt beam="2">  1       21 0.17678043E+00 0.43638170E+03</pdfrwt>
<totfact> 0.23179845E+03</totfact>
</mgrwt>
</event>
<event>
 4    1  0.4656600E-002  0.4263396E+03  0.7818608E-02  0.1035023E+00
         21   -1    0    0  503  502  0.00000000000E+00  0.00000000000E+00  0.18682441059E+03  0.18682441059E+03  0.00000000000E+00 0. -1.
         21   -1    0    0  501  503 -0.00000000000E+00 -0.00000000000E+00 -0.99726763402E+03  0.99726763402E+03  0.00000000000E+00 0. -1.
    9000007    1    1    2  501    0 -0.39953099725E+02  0.14201842120E+03 -0.49772652151E+03  0.65536033779E+03  0.40000000000E+03 0. -1.
   -9000007    1    1    2    0  502  0.39953099725E+02 -0.14201842120E+03 -0.31271670191E+03  0.52873170682E+03  0.40000000000E+03 0. -1.
<mgrwt>
<rscale>  2 0.42633963E+03</rscale>
<asrwt>0</asrwt>
<pdfrwt beam="1">  1       21 0.28742217E-01 0.42633963E+03</pdfrwt>
<pdfrwt beam="2">  1       21 0.15342579E+00 0.42633963E+03</pdfrwt>
<totfact> 0.28345868E+03</totfact>
</mgrwt>
</event>
<event>
 4    1  0.4656600E-002  0.5479969E+03  0.7818608E-02  0.1001959E+00
         21   -1    0    0  503  502  0.00000000000E+00  0.00000000000E+00  0.33520861432E+03  0.33520861432E+03  0.00000000000E+00 0.  1.
         21   -1    0    0  501  503 -0.00000000000E+00 -0.00000000000E+00 -0.10092668266E+04  0.10092668266E+04  0.00000000000E+00 0. -1.
    9000007    1    1    2  501    0 -0.17603723303E+03  0.33062292783E+03 -0.56236782965E+03  0.78521220294E+03  0.40000000000E+03 0. -1.
   -9000007    1    1    2    0  502  0.17603723303E+03 -0.33062292783E+03 -0.11169038267E+03  0.55926323802E+03  0.40000000000E+03 0.  1.
<mgrwt>
<rscale>  2 0.54799692E+03</rscale>
<asrwt>0</asrwt>
<pdfrwt beam="1">  1       21 0.51570557E-01 0.54799692E+03</pdfrwt>
<pdfrwt beam="2">  1       21 0.15527182E+00 0.54799692E+03</pdfrwt>
<totfact> 0.78768899E+02</totfact>
</mgrwt>
</event>
<event>
 4    1  0.4656600E-002  0.4238758E+03  0.7818608E-02  0.1035812E+00
         21   -1    0    0  503  502  0.00000000000E+00  0.00000000000E+00  0.14140217046E+04  0.14140217046E+04  0.00000000000E+00 0. -1.
         21   -1    0    0  501  503 -0.00000000000E+00 -0.00000000000E+00 -0.13265718002E+03  0.13265718002E+03  0.00000000000E+00 0. -1.
    9000007    1    1    2  501    0  0.10341619892E+02 -0.13987031907E+03  0.79948230474E+03  0.90489922690E+03  0.40000000000E+03 0. -1.
   -9000007    1    1    2    0  502 -0.10341619892E+02  0.13987031907E+03  0.48188221980E+03  0.64177965768E+03  0.40000000000E+03 0. -1.
<mgrwt>
<rscale>  2 0.42387575E+03</rscale>
<asrwt>0</asrwt>
<pdfrwt beam="1">  1       21 0.21754179E+00 0.42387575E+03</pdfrwt>
<pdfrwt beam="2">  1       21 0.20408798E-01 0.42387575E+03</pdfrwt>
<totfact> 0.19693551E+03</totfact>
</mgrwt>
</event>
<event>
 4    1  0.4656600E-002  0.6267618E+03  0.7818608E-02  0.9851388E-01
         21   -1    0    0  503  502  0.00000000000E+00  0.00000000000E+00  0.74863400606E+03  0.74863400606E+03  0.00000000000E+00 0. -1.
         21   -1    0    0  501  503 -0.00000000000E+00 -0.00000000000E+00 -0.56445899106E+03  0.56445899106E+03  0.00000000000E+00 0. -1.
    9000007    1    1    2  501    0 -0.48087027147E+03  0.39926552420E+02  0.26627051846E+03  0.68097748610E+03  0.40000000000E+03 0. -1.
   -9000007    1    1    2    0  502  0.48087027147E+03 -0.39926552420E+02 -0.82095503464E+02  0.63211551101E+03  0.40000000000E+03 0. -1.
<mgrwt>
<rscale>  2 0.62676179E+03</rscale>
<asrwt>0</asrwt>
<pdfrwt beam="1">  1       21 0.11517446E+00 0.62676179E+03</pdfrwt>
<pdfrwt beam="2">  1       21 0.86839845E-01 0.62676179E+03</pdfrwt>
<totfact> 0.52316706E+02</totfact>
</mgrwt>
</event>
<event>
 4    1  0.4656600E-002  0.5991212E+03  0.7818608E-02  0.9907231E-01
         21   -1    0    0  501  502  0.00000000000E+00  0.00000000000E+00  0.10256278498E+04  0.10256278498E+04  0.00000000000E+00 0.  1.
         21   -1    0    0  502  503 -0.00000000000E+00 -0.00000000000E+00 -0.41336934546E+03  0.41336934546E+03  0.00000000000E+00 0.  1.
    9000007    1    1    2  501    0 -0.42691295220E+02  0.44398604292E+03  0.24369312806E+02  0.59961655782E+03  0.40000000000E+03 0.  1.
   -9000007    1    1    2    0  503  0.42691295220E+02 -0.44398604292E+03  0.58788919157E+03  0.83938063747E+03  0.40000000000E+03 0.  1.
<mgrwt>
<rscale>  2 0.59912115E+03</rscale>
<asrwt>0</asrwt>
<pdfrwt beam="1">  1       21 0.15778890E+00 0.59912115E+03</pdfrwt>
<pdfrwt beam="2">  1       21 0.63595284E-01 0.59912115E+03</pdfrwt>
<totfact> 0.46778852E+02</totfact>
</mgrwt>
</event>
<event>
 4    1  0.4656600E-002  0.5576529E+03  0.7818608E-02  0.9997380E-01
         21   -1    0    0  503  502  0.00000000000E+00  0.00000000000E+00  0.10280780807E+04  0.10280780807E+04  0.00000000000E+00 0. -1.
         21   -1    0    0  501  503 -0.00000000000E+00 -0.00000000000E+00 -0.52977300564E+03  0.52977300564E+03  0.00000000000E+00 0. -1.
    9000007    1    1    2  501    0  0.36806973998E+03  0.12450458406E+03  0.75935278075E+03  0.94212173872E+03  0.40000000000E+03 0. -1.
   -9000007    1    1    2    0  502 -0.36806973998E+03 -0.12450458406E+03 -0.26104770565E+03  0.61572934766E+03  0.40000000000E+03 0. -1.
<mgrwt>
<rscale>  2 0.55765287E+03</rscale>
<asrwt>0</asrwt>
<pdfrwt beam="1">  1       21 0.15816586E+00 0.55765287E+03</pdfrwt>
<pdfrwt beam="2">  1       21 0.81503540E-01 0.55765287E+03</pdfrwt>
<totfact> 0.26818699E+02</totfact>
</mgrwt>
</event>
<event>
 4    1  0.4656600E-002  0.4177471E+03  0.7818608E-02  0.1037802E+00
         21   -1    0    0  501  502  0.00000000000E+00  0.00000000000E+00  0.44224411924E+03  0.44224411924E+03  0.00000000000E+00 0. -1.
         21   -1    0    0  502  503 -0.00000000000E+00 -0.00000000000E+00 -0.40734370431E+03  0.40734370431E+03  0.00000000000E+00 0. -1.
    9000007    1    1    2  501    0 -0.11770415869E+03  0.25658712683E+02 -0.57664641488E+02  0.42170825151E+03  0.40000000000E+03 0. -1.
   -9000007    1    1    2    0  503  0.11770415869E+03 -0.25658712683E+02  0.92565056414E+02  0.42787957205E+03  0.40000000000E+03 0. -1.
<mgrwt>
<rscale>  2 0.41774710E+03</rscale>
<asrwt>0</asrwt>
<pdfrwt beam="1">  1       21 0.68037557E-01 0.41774710E+03</pdfrwt>
<pdfrwt beam="2">  1       21 0.62668262E-01 0.41774710E+03</pdfrwt>
<totfact> 0.41250253E+03</totfact>
</mgrwt>
</event>
<event>
 4    1  0.4656600E-002  0.4687178E+03  0.7818608E-02  0.1022283E+00
         21   -1    0    0  501  502  0.00000000000E+00  0.00000000000E+00  0.21102989161E+04  0.21102989161E+04  0.00000000000E+00 0.  1.
         21   -1    0    0  502  503 -0.00000000000E+00 -0.00000000000E+00 -0.10412029557E+03  0.10412029557E+03  0.00000000000E+00 0.  1.
    9000007    1    1    2  501    0  0.55077232952E+02  0.23803963998E+03  0.99046277739E+03  0.10957704528E+04  0.40000000000E+03 0.  1.
   -9000007    1    1    2    0  503 -0.55077232952E+02 -0.23803963998E+03  0.10157158432E+04  0.11186487589E+04  0.40000000000E+03 0.  1.
<mgrwt>
<rscale>  2 0.46871780E+03</rscale>
<asrwt>0</asrwt>
<pdfrwt beam="1">  1       21 0.32466134E+00 0.46871780E+03</pdfrwt>
<pdfrwt beam="2">  1       21 0.16018509E-01 0.46871780E+03</pdfrwt>
<totfact> 0.67353211E+02</totfact>
</mgrwt>
</event>
<event>
 4    1  0.4656600E-002  0.4140654E+03  0.7818608E-02  0.1039015E+00
         21   -1    0    0  503  502  0.00000000000E+00  0.00000000000E+00  0.39705631392E+03  0.39705631392E+03  0.00000000000E+00 0. -1.
         21   -1    0    0  501  503 -0.00000000000E+00 -0.00000000000E+00 -0.12104852513E+04  0.12104852513E+04  0.00000000000E+00 0.  1.
    9000007    1    1    2  501    0  0.74138075648E+02 -0.77159973573E+02 -0.10513772482E+04  0.11299753244E+04  0.40000000000E+03 0.  1.
   -9000007    1    1    2    0  502 -0.74138075648E+02  0.77159973573E+02  0.23794831077E+03  0.47756624083E+03  0.40000000000E+03 0. -1.
<mgrwt>
<rscale>  2 0.41406535E+03</rscale>
<asrwt>0</asrwt>
<pdfrwt beam="1">  1       21 0.61085587E-01 0.41406535E+03</pdfrwt>
<pdfrwt beam="2">  1       21 0.18622850E+00 0.41406535E+03</pdfrwt>
<totfact> 0.34409454E+02</totfact>
</mgrwt>
</event>
<event>
 4    1  0.4656600E-002  0.7110265E+03  0.7818608E-02  0.9698559E-01
         21   -1    0    0  503  502  0.00000000000E+00  0.00000000000E+00  0.92744787638E+03  0.92744787638E+03  0.00000000000E+00 0.  1.
         21   -1    0    0  501  503 -0.00000000000E+00 -0.00000000000E+00 -0.57310432600E+03  0.57310432600E+03  0.00000000000E+00 0. -1.
    9000007    1    1    2  501    0 -0.52342467645E+03  0.26755425500E+03  0.34300047239E+03  0.78943523822E+03  0.40000000000E+03 0.  1.
   -9000007    1    1    2    0  502  0.52342467645E+03 -0.26755425500E+03  0.11343077990E+02  0.71111696415E+03  0.40000000000E+03 0. -1.
<mgrwt>
<rscale>  2 0.71102649E+03</rscale>
<asrwt>0</asrwt>
<pdfrwt beam="1">  1       21 0.14268429E+00 0.71102649E+03</pdfrwt>
<pdfrwt beam="2">  1       21 0.88169896E-01 0.71102649E+03</pdfrwt>
<totfact> 0.28064506E+02</totfact>
</mgrwt>
</event>
<event>
 4    1  0.4656600E-002  0.5108622E+03  0.7818608E-02  0.1010982E+00
         21   -1    0    0  503  502  0.00000000000E+00  0.00000000000E+00  0.96965507475E+02  0.96965507475E+02  0.00000000000E+00 0. -1.
         21   -1    0    0  501  503 -0.00000000000E+00 -0.00000000000E+00 -0.29067354719E+04  0.29067354719E+04  0.00000000000E+00 0. -1.
    9000007    1    1    2  501    0  0.31328846216E+03 -0.53202288556E+02 -0.99618268415E+03  0.11195356556E+04  0.40000000000E+03 0. -1.
   -9000007    1    1    2    0  502 -0.31328846216E+03  0.53202288556E+02 -0.18135872803E+04  0.18841653238E+04  0.40000000000E+03 0. -1.
<mgrwt>
<rscale>  2 0.51086216E+03</rscale>
<asrwt>0</asrwt>
<pdfrwt beam="1">  1       21 0.14917775E-01 0.51086216E+03</pdfrwt>
<pdfrwt beam="2">  1       21 0.44718993E+00 0.51086216E+03</pdfrwt>
<totfact> 0.12446359E+02</totfact>
</mgrwt>
</event>
<event>
 4    1  0.4656600E-002  0.4006262E+03  0.7818608E-02  0.1043563E+00
         21   -1    0    0  503  502  0.00000000000E+00  0.00000000000E+00  0.68785889487E+02  0.68785889487E+02  0.00000000000E+00 0.  1.
         21   -1    0    0  501  503 -0.00000000000E+00 -0.00000000000E+00 -0.28157134340E+04  0.28157134340E+04  0.00000000000E+00 0.  1.
    9000007    1    1    2  501    0  0.21737832501E+00 -0.22389979639E+02 -0.19704092911E+04  0.20107247780E+04  0.40000000000E+03 0.  1.
   -9000007    1    1    2    0  502 -0.21737832501E+00  0.22389979639E+02 -0.77651825340E+03  0.87377454546E+03  0.40000000000E+03 0.  1.
<mgrwt>
<rscale>  2 0.40062621E+03</rscale>
<asrwt>0</asrwt>
<pdfrwt beam="1">  1       21 0.10582443E-01 0.40062621E+03</pdfrwt>
<pdfrwt beam="2">  1       21 0.43318675E+00 0.40062621E+03</pdfrwt>
<totfact> 0.31190657E+02</totfact>
</mgrwt>
</event>
<event>
 4    1  0.4656600E-002  0.4021118E+03  0.7818608E-02  0.1043051E+00
         21   -1    0    0  503  502  0.00000000000E+00  0.00000000000E+00  0.39605584220E+03  0.39605584220E+03  0.00000000000E+00 0.  1.
         21   -1    0    0  501  503 -0.00000000000E+00 -0.00000000000E+00 -0.15135875189E+04  0.15135875189E+04  0.00000000000E+00 0.  1.
    9000007    1    1    2  501    0  0.40592075903E+02 -0.67938164943E+01 -0.13747165722E+04  0.14323196313E+04  0.40000000000E+03 0.  1.
   -9000007    1    1    2    0  502 -0.40592075903E+02  0.67938164943E+01  0.25718489544E+03  0.47732372978E+03  0.40000000000E+03 0.  1.
<mgrwt>
<rscale>  2 0.40211177E+03</rscale>
<asrwt>0</asrwt>
<pdfrwt beam="1">  1       21 0.60931669E-01 0.40211177E+03</pdfrwt>
<pdfrwt beam="2">  1       21 0.23285962E+00 0.40211177E+03</pdfrwt>
<totfact> 0.17303085E+02</totfact>
</mgrwt>
</event>
<event>
 4    1  0.4656600E-002  0.4223416E+03  0.7818608E-02  0.1036307E+00
         21   -1    0    0  501  502  0.00000000000E+00  0.00000000000E+00  0.62503559907E+03  0.62503559907E+03  0.00000000000E+00 0. -1.
         21   -1    0    0  502  503 -0.00000000000E+00 -0.00000000000E+00 -0.38947196700E+03  0.38947196700E+03  0.00000000000E+00 0. -1.
    9000007    1    1    2  501    0  0.38976707066E+02 -0.12981990210E+03  0.38002046378E+03  0.56814429819E+03  0.40000000000E+03 0. -1.
   -9000007    1    1    2    0  503 -0.38976707066E+02  0.12981990210E+03 -0.14445683171E+03  0.44636326787E+03  0.40000000000E+03 0. -1.
<mgrwt>
<rscale>  2 0.42234156E+03</rscale>
<asrwt>0</asrwt>
<pdfrwt beam="1">  1       21 0.96159323E-01 0.42234156E+03</pdfrwt>
<pdfrwt beam="2">  1       21 0.59918764E-01 0.42234156E+03</pdfrwt>
<totfact> 0.20408889E+03</totfact>
</mgrwt>
</event>
<event>
 4    1  0.4656600E-002  0.5197962E+03  0.7818608E-02  0.1008737E+00
         21   -1    0    0  501  502  0.00000000000E+00  0.00000000000E+00  0.39378052648E+03  0.39378052648E+03  0.00000000000E+00 0.  1.
         21   -1    0    0  502  503 -0.00000000000E+00 -0.00000000000E+00 -0.89880399038E+03  0.89880399038E+03  0.00000000000E+00 0. -1.
    9000007    1    1    2  501    0 -0.18654575978E+03  0.27457017036E+03  0.61860848421E+02  0.52346429057E+03  0.40000000000E+03 0.  1.
   -9000007    1    1    2    0  503  0.18654575978E+03 -0.27457017036E+03 -0.56688431231E+03  0.76912022629E+03  0.40000000000E+03 0. -1.
<mgrwt>
<rscale>  2 0.51979621E+03</rscale>
<asrwt>0</asrwt>
<pdfrwt beam="1">  1       21 0.60581620E-01 0.51979621E+03</pdfrwt>
<pdfrwt beam="2">  1       21 0.13827754E+00 0.51979621E+03</pdfrwt>
<totfact> 0.76800913E+02</totfact>
</mgrwt>
</event>
<event>
 4    1  0.4656600E-002  0.4584172E+03  0.7818608E-02  0.1025241E+00
         21   -1    0    0  503  502  0.00000000000E+00  0.00000000000E+00  0.10144855821E+04  0.10144855821E+04  0.00000000000E+00 0. -1.
         21   -1    0    0  501  503 -0.00000000000E+00 -0.00000000000E+00 -0.20714583683E+03  0.20714583683E+03  0.00000000000E+00 0.  1.
    9000007    1    1    2  501    0 -0.20363032892E+03  0.93172042937E+02  0.40413985604E+03  0.61112630747E+03  0.40000000000E+03 0. -1.
   -9000007    1    1    2    0  502  0.20363032892E+03 -0.93172042937E+02  0.40319988922E+03  0.61050511145E+03  0.40000000000E+03 0.  1.
<mgrwt>
<rscale>  2 0.45841721E+03</rscale>
<asrwt>0</asrwt>
<pdfrwt beam="1">  1       21 0.15607470E+00 0.45841721E+03</pdfrwt>
<pdfrwt beam="2">  1       21 0.31868591E-01 0.45841721E+03</pdfrwt>
<totfact> 0.21748067E+03</totfact>
</mgrwt>
</event>
<event>
 4    1  0.4656600E-002  0.4186126E+03  0.7818608E-02  0.1037519E+00
         21   -1    0    0  501  502  0.00000000000E+00  0.00000000000E+00  0.32957409597E+03  0.32957409597E+03  0.00000000000E+00 0. -1.
         21   -1    0    0  502  503 -0.00000000000E+00 -0.00000000000E+00 -0.53578337061E+03  0.53578337061E+03  0.00000000000E+00 0. -1.
    9000007    1    1    2  501    0  0.11642055741E+03  0.41021314609E+02 -0.65359079405E+02  0.42368420280E+03  0.40000000000E+03 0. -1.
   -9000007    1    1    2    0  503 -0.11642055741E+03 -0.41021314609E+02 -0.14085019523E+03  0.44167326378E+03  0.40000000000E+03 0. -1.
<mgrwt>
<rscale>  2 0.41861258E+03</rscale>
<asrwt>0</asrwt>
<pdfrwt beam="1">  1       21 0.50703708E-01 0.41861258E+03</pdfrwt>
<pdfrwt beam="2">  1       21 0.82428210E-01 0.41861258E+03</pdfrwt>
<totfact> 0.42145704E+03</totfact>
</mgrwt>
</event>
<event>
 4    1  0.4656600E-002  0.5480115E+03  0.7818608E-02  0.1001955E+00
         21   -1    0    0  501  502  0.00000000000E+00  0.00000000000E+00  0.82806883371E+03  0.82806883371E+03  0.00000000000E+00 0.  1.
         21   -1    0    0  502  503 -0.00000000000E+00 -0.00000000000E+00 -0.86442808125E+03  0.86442808125E+03  0.00000000000E+00 0. -1.
    9000007    1    1    2  501    0 -0.25287716829E+03  0.27635078482E+03  0.62655378814E+03  0.83239790241E+03  0.40000000000E+03 0.  1.
   -9000007    1    1    2    0  503  0.25287716829E+03 -0.27635078482E+03 -0.66291303567E+03  0.86009901254E+03  0.40000000000E+03 0. -1.
<mgrwt>
<rscale>  2 0.54801151E+03</rscale>
<asrwt>0</asrwt>
<pdfrwt beam="1">  1       21 0.12739521E+00 0.54801151E+03</pdfrwt>
<pdfrwt beam="2">  1       21 0.13298893E+00 0.54801151E+03</pdfrwt>
<totfact> 0.14377900E+02</totfact>
</mgrwt>
</event>
<event>
 4    1  0.4656600E-002  0.4032047E+03  0.7818608E-02  0.1042676E+00
         21   -1    0    0  503  502  0.00000000000E+00  0.00000000000E+00  0.13261473807E+03  0.13261473807E+03  0.00000000000E+00 0.  1.
         21   -1    0    0  501  503 -0.00000000000E+00 -0.00000000000E+00 -0.12260535763E+04  0.12260535763E+04  0.00000000000E+00 0.  1.
    9000007    1    1    2  501    0 -0.21000879792E+02  0.46184475745E+02 -0.53942795248E+03  0.67346607834E+03  0.40000000000E+03 0. -1.
   -9000007    1    1    2    0  502  0.21000879792E+02 -0.46184475745E+02 -0.55401088578E+03  0.68520223607E+03  0.40000000000E+03 0. -1.
<mgrwt>
<rscale>  2 0.40320472E+03</rscale>
<asrwt>0</asrwt>
<pdfrwt beam="1">  1       21 0.20402267E-01 0.40320472E+03</pdfrwt>
<pdfrwt beam="2">  1       21 0.18862363E+00 0.40320472E+03</pdfrwt>
<totfact> 0.30885025E+03</totfact>
</mgrwt>
</event>
<event>
 4    1  0.4656600E-002  0.7057210E+03  0.7818608E-02  0.9707498E-01
         21   -1    0    0  503  502  0.00000000000E+00  0.00000000000E+00  0.13514905360E+04  0.13514905360E+04  0.00000000000E+00 0. -1.
         21   -1    0    0  501  503 -0.00000000000E+00 -0.00000000000E+00 -0.42682908568E+03  0.42682908568E+03  0.00000000000E+00 0.  1.
    9000007    1    1    2  501    0  0.42018280801E+03 -0.40185628373E+03  0.13367109488E+03  0.71826877040E+03  0.40000000000E+03 0.  1.
   -9000007    1    1    2    0  502 -0.42018280801E+03  0.40185628373E+03  0.79099035548E+03  0.10600508513E+04  0.40000000000E+03 0.  1.
<mgrwt>
<rscale>  2 0.70572095E+03</rscale>
<asrwt>0</asrwt>
<pdfrwt beam="1">  1       21 0.20792162E+00 0.70572095E+03</pdfrwt>
<pdfrwt beam="2">  1       21 0.65666014E-01 0.70572095E+03</pdfrwt>
<totfact> 0.18469257E+02</totfact>
</mgrwt>
</event>
<event>
 4    1  0.4656600E-002  0.4847741E+03  0.7818608E-02  0.1017831E+00
         21   -1    0    0  503  502  0.00000000000E+00  0.00000000000E+00  0.13302689412E+04  0.13302689412E+04  0.00000000000E+00 0.  1.
         21   -1    0    0  501  503 -0.00000000000E+00 -0.00000000000E+00 -0.26168309252E+03  0.26168309252E+03  0.00000000000E+00 0.  1.
    9000007    1    1    2  501    0 -0.71171536002E+02  0.26446266539E+03  0.80581734792E+02  0.49142578779E+03  0.40000000000E+03 0.  1.
   -9000007    1    1    2    0  502  0.71171536002E+02 -0.26446266539E+03  0.98800411387E+03  0.11005262459E+04  0.40000000000E+03 0.  1.
<mgrwt>
<rscale>  2 0.48477406E+03</rscale>
<asrwt>0</asrwt>
<pdfrwt beam="1">  1       21 0.20465676E+00 0.48477406E+03</pdfrwt>
<pdfrwt beam="2">  1       21 0.40258938E-01 0.48477406E+03</pdfrwt>
<totfact> 0.60552353E+02</totfact>
</mgrwt>
</event>
<event>
 4    1  0.4656600E-002  0.4435876E+03  0.7818608E-02  0.1029652E+00
         21   -1    0    0  501  502  0.00000000000E+00  0.00000000000E+00  0.35478016343E+03  0.35478016343E+03  0.00000000000E+00 0. -1.
         21   -1    0    0  502  503 -0.00000000000E+00 -0.00000000000E+00 -0.71287645129E+03  0.71287645129E+03  0.00000000000E+00 0. -1.
    9000007    1    1    2  501    0 -0.14409601939E+03 -0.12651587615E+03  0.72469459992E+02  0.44946829961E+03  0.40000000000E+03 0. -1.
   -9000007    1    1    2    0  503  0.14409601939E+03  0.12651587615E+03 -0.43056574785E+03  0.61818831511E+03  0.40000000000E+03 0. -1.
<mgrwt>
<rscale>  2 0.44358757E+03</rscale>
<asrwt>0</asrwt>
<pdfrwt beam="1">  1       21 0.54581564E-01 0.44358757E+03</pdfrwt>
<pdfrwt beam="2">  1       21 0.10967330E+00 0.44358757E+03</pdfrwt>
<totfact> 0.17972966E+03</totfact>
</mgrwt>
</event>
<event>
 4    1  0.4656600E-002  0.9604514E+03  0.7818608E-02  0.9353017E-01
         21   -1    0    0  503  502  0.00000000000E+00  0.00000000000E+00  0.13501949744E+04  0.13501949744E+04  0.00000000000E+00 0.  1.
         21   -1    0    0  501  503 -0.00000000000E+00 -0.00000000000E+00 -0.70665238186E+03  0.70665238186E+03  0.00000000000E+00 0. -1.
    9000007    1    1    2  501    0 -0.84933977507E+03 -0.20270402011E+03  0.50908441934E+03  0.10870298613E+04  0.40000000000E+03 0.  1.
   -9000007    1    1    2    0  502  0.84933977507E+03  0.20270402011E+03  0.13445817324E+03  0.96981749502E+03  0.40000000000E+03 0. -1.
<mgrwt>
<rscale>  2 0.96045144E+03</rscale>
<asrwt>0</asrwt>
<pdfrwt beam="1">  1       21 0.20772230E+00 0.96045144E+03</pdfrwt>
<pdfrwt beam="2">  1       21 0.10871575E+00 0.96045144E+03</pdfrwt>
<totfact> 0.51849559E+01</totfact>
</mgrwt>
</event>
<event>
 4    1  0.4656600E-002  0.4120342E+03  0.7818608E-02  0.1039691E+00
         21   -1    0    0  501  502  0.00000000000E+00  0.00000000000E+00  0.19111222248E+03  0.19111222248E+03  0.00000000000E+00 0. -1.
         21   -1    0    0  502  503 -0.00000000000E+00 -0.00000000000E+00 -0.16899891354E+04  0.16899891354E+04  0.00000000000E+00 0. -1.
    9000007    1    1    2  501    0 -0.13313461333E+01  0.98845451304E+02 -0.10165026475E+03  0.42438776143E+03  0.40000000000E+03 0. -1.
   -9000007    1    1    2    0  503  0.13313461333E+01 -0.98845451304E+02 -0.13972266482E+04  0.14567135965E+04  0.40000000000E+03 0. -1.
<mgrwt>
<rscale>  2 0.41203422E+03</rscale>
<asrwt>0</asrwt>
<pdfrwt beam="1">  1       21 0.29401880E-01 0.41203422E+03</pdfrwt>
<pdfrwt beam="2">  1       21 0.25999833E+00 0.41203422E+03</pdfrwt>
<totfact> 0.53182629E+02</totfact>
</mgrwt>
</event>
<event>
 4    1  0.4656600E-002  0.4504607E+03  0.7818608E-02  0.1027585E+00
         21   -1    0    0  501  502  0.00000000000E+00  0.00000000000E+00  0.54601657279E+03  0.54601657279E+03  0.00000000000E+00 0. -1.
         21   -1    0    0  502  503 -0.00000000000E+00 -0.00000000000E+00 -0.40621804860E+03  0.40621804860E+03  0.00000000000E+00 0. -1.
    9000007    1    1    2  501    0  0.20098356691E+03  0.50203638829E+02  0.20883462330E+03  0.49651455106E+03  0.40000000000E+03 0. -1.
   -9000007    1    1    2    0  503 -0.20098356691E+03 -0.50203638829E+02 -0.69036099112E+02  0.45572007033E+03  0.40000000000E+03 0. -1.
<mgrwt>
<rscale>  2 0.45046065E+03</rscale>
<asrwt>0</asrwt>
<pdfrwt beam="1">  1       21 0.84002549E-01 0.45046065E+03</pdfrwt>
<pdfrwt beam="2">  1       21 0.62495085E-01 0.45046065E+03</pdfrwt>
<totfact> 0.25344921E+03</totfact>
</mgrwt>
</event>
<event>
 4    1  0.4656600E-002  0.6498146E+03  0.7818608E-02  0.9807127E-01
         21   -1    0    0  501  502  0.00000000000E+00  0.00000000000E+00  0.25828601124E+03  0.25828601124E+03  0.00000000000E+00 0.  1.
         21   -1    0    0  502  503 -0.00000000000E+00 -0.00000000000E+00 -0.20202370524E+04  0.20202370524E+04  0.00000000000E+00 0. -1.
    9000007    1    1    2  501    0 -0.48603444188E+03 -0.16133682160E+03 -0.38338686420E+03  0.75448295961E+03  0.40000000000E+03 0.  1.
   -9000007    1    1    2    0  503  0.48603444188E+03  0.16133682160E+03 -0.13785641770E+04  0.15240401040E+04  0.40000000000E+03 0. -1.
<mgrwt>
<rscale>  2 0.64981463E+03</rscale>
<asrwt>0</asrwt>
<pdfrwt beam="1">  1       21 0.39736309E-01 0.64981463E+03</pdfrwt>
<pdfrwt beam="2">  1       21 0.31080570E+00 0.64981463E+03</pdfrwt>
<totfact> 0.12623334E+02</totfact>
</mgrwt>
</event>
<event>
 4    1  0.4656600E-002  0.4220270E+03  0.7818608E-02  0.1036409E+00
         21   -1    0    0  503  502  0.00000000000E+00  0.00000000000E+00  0.50464499335E+03  0.50464499335E+03  0.00000000000E+00 0. -1.
         21   -1    0    0  501  503 -0.00000000000E+00 -0.00000000000E+00 -0.43023690982E+03  0.43023690982E+03  0.00000000000E+00 0. -1.
    9000007    1    1    2  501    0  0.86083753916E+02 -0.10342348227E+03 -0.16093420799E+03  0.45167095177E+03  0.40000000000E+03 0. -1.
   -9000007    1    1    2    0  502 -0.86083753916E+02  0.10342348227E+03  0.23534229152E+03  0.48321095140E+03  0.40000000000E+03 0. -1.
<mgrwt>
<rscale>  2 0.42202705E+03</rscale>
<asrwt>0</asrwt>
<pdfrwt beam="1">  1       21 0.77637691E-01 0.42202705E+03</pdfrwt>
<pdfrwt beam="2">  1       21 0.66190294E-01 0.42202705E+03</pdfrwt>
<totfact> 0.27060559E+03</totfact>
</mgrwt>
</event>
<event>
 4    1  0.4656600E-002  0.5148804E+03  0.7818608E-02  0.1009966E+00
         21   -1    0    0  501  502  0.00000000000E+00  0.00000000000E+00  0.50536461848E+03  0.50536461848E+03  0.00000000000E+00 0. -1.
         21   -1    0    0  502  503 -0.00000000000E+00 -0.00000000000E+00 -0.61021741852E+03  0.61021741852E+03  0.00000000000E+00 0. -1.
    9000007    1    1    2  501    0  0.25916768439E+03 -0.19476624860E+03  0.15653833408E+03  0.53815056468E+03  0.40000000000E+03 0. -1.
   -9000007    1    1    2    0  503 -0.25916768439E+03  0.19476624860E+03 -0.26139113411E+03  0.57743147232E+03  0.40000000000E+03 0. -1.
<mgrwt>
<rscale>  2 0.51488036E+03</rscale>
<asrwt>0</asrwt>
<pdfrwt beam="1">  1       21 0.77748404E-01 0.51488036E+03</pdfrwt>
<pdfrwt beam="2">  1       21 0.93879602E-01 0.51488036E+03</pdfrwt>
<totfact> 0.11637722E+03</totfact>
</mgrwt>
</event>
<event>
 4    1  0.4656600E-002  0.4483520E+03  0.7818608E-02  0.1028215E+00
         21   -1    0    0  501  502  0.00000000000E+00  0.00000000000E+00  0.34899769836E+03  0.34899769836E+03  0.00000000000E+00 0. -1.
         21   -1    0    0  502  503 -0.00000000000E+00 -0.00000000000E+00 -0.13186495484E+04  0.13186495484E+04  0.00000000000E+00 0. -1.
    9000007    1    1    2  501    0  0.19985655048E+03 -0.32815883701E+02  0.14092874688E+03  0.46997918538E+03  0.40000000000E+03 0. -1.
   -9000007    1    1    2    0  503 -0.19985655048E+03  0.32815883701E+02 -0.11105805969E+04  0.11976680614E+04  0.40000000000E+03 0. -1.
<mgrwt>
<rscale>  2 0.44835201E+03</rscale>
<asrwt>0</asrwt>
<pdfrwt beam="1">  1       21 0.53691953E-01 0.44835201E+03</pdfrwt>
<pdfrwt beam="2">  1       21 0.20286916E+00 0.44835201E+03</pdfrwt>
<totfact> 0.34527053E+02</totfact>
</mgrwt>
</event>
<event>
 4    1  0.4656600E-002  0.4239651E+03  0.7818608E-02  0.1035783E+00
         21   -1    0    0  503  502  0.00000000000E+00  0.00000000000E+00  0.40916577410E+03  0.40916577410E+03  0.00000000000E+00 0.  1.
         21   -1    0    0  501  503 -0.00000000000E+00 -0.00000000000E+00 -0.44049484971E+03  0.44049484971E+03  0.00000000000E+00 0.  1.
    9000007    1    1    2  501    0  0.55270350969E+02  0.12919606320E+03  0.64634408642E+01  0.42401439894E+03  0.40000000000E+03 0.  1.
   -9000007    1    1    2    0  502 -0.55270350969E+02 -0.12919606320E+03 -0.37792516468E+02  0.42564622487E+03  0.40000000000E+03 0.  1.
<mgrwt>
<rscale>  2 0.42396513E+03</rscale>
<asrwt>0</asrwt>
<pdfrwt beam="1">  1       21 0.62948581E-01 0.42396513E+03</pdfrwt>
<pdfrwt beam="2">  1       21 0.67768438E-01 0.42396513E+03</pdfrwt>
<totfact> 0.41117725E+03</totfact>
</mgrwt>
</event>
<event>
 4    1  0.4656600E-002  0.4444698E+03  0.7818608E-02  0.1029384E+00
         21   -1    0    0  501  502  0.00000000000E+00  0.00000000000E+00  0.21073732960E+04  0.21073732960E+04  0.00000000000E+00 0. -1.
         21   -1    0    0  502  503 -0.00000000000E+00 -0.00000000000E+00 -0.93786773076E+02  0.93786773076E+02  0.00000000000E+00 0. -1.
    9000007    1    1    2  501    0 -0.10101716046E+03 -0.16537522509E+03  0.10303191689E+04  0.11221011637E+04  0.40000000000E+03 0. -1.
   -9000007    1    1    2    0  503  0.10101716046E+03  0.16537522509E+03  0.98326735401E+03  0.10790589054E+04  0.40000000000E+03 0. -1.
<mgrwt>
<rscale>  2 0.44446983E+03</rscale>
<asrwt>0</asrwt>
<pdfrwt beam="1">  1       21 0.32421124E+00 0.44446983E+03</pdfrwt>
<pdfrwt beam="2">  1       21 0.14428736E-01 0.44446983E+03</pdfrwt>
<totfact> 0.83434873E+02</totfact>
</mgrwt>
</event>
<event>
 4    1  0.4656600E-002  0.5223374E+03  0.7818608E-02  0.1008108E+00
         21   -1    0    0  501  502  0.00000000000E+00  0.00000000000E+00  0.59415722894E+03  0.59415722894E+03  0.00000000000E+00 0.  1.
         21   -1    0    0  502  503 -0.00000000000E+00 -0.00000000000E+00 -0.48066868635E+03  0.48066868635E+03  0.00000000000E+00 0.  1.
    9000007    1    1    2  501    0  0.19002937165E+03 -0.27699316892E+03  0.17032340162E+03  0.54940553224E+03  0.40000000000E+03 0.  1.
   -9000007    1    1    2    0  503 -0.19002937165E+03  0.27699316892E+03 -0.56834859026E+02  0.52542038305E+03  0.40000000000E+03 0.  1.
<mgrwt>
<rscale>  2 0.52233742E+03</rscale>
<asrwt>0</asrwt>
<pdfrwt beam="1">  1       21 0.91408804E-01 0.52233742E+03</pdfrwt>
<pdfrwt beam="2">  1       21 0.73949029E-01 0.52233742E+03</pdfrwt>
<totfact> 0.13879783E+03</totfact>
</mgrwt>
</event>
<event>
 4    1  0.4656600E-002  0.4231942E+03  0.7818608E-02  0.1036032E+00
         21   -1    0    0  501  502  0.00000000000E+00  0.00000000000E+00  0.13284786996E+04  0.13284786996E+04  0.00000000000E+00 0. -1.
         21   -1    0    0  502  503 -0.00000000000E+00 -0.00000000000E+00 -0.17250152603E+03  0.17250152603E+03  0.00000000000E+00 0. -1.
    9000007    1    1    2  501    0 -0.13817510165E+03 -0.97957776002E+00  0.92879342450E+03  0.10206618165E+04  0.40000000000E+03 0. -1.
   -9000007    1    1    2    0  503  0.13817510165E+03  0.97957776002E+00  0.22718374904E+03  0.48031840910E+03  0.40000000000E+03 0. -1.
<mgrwt>
<rscale>  2 0.42319419E+03</rscale>
<asrwt>0</asrwt>
<pdfrwt beam="1">  1       21 0.20438133E+00 0.42319419E+03</pdfrwt>
<pdfrwt beam="2">  1       21 0.26538697E-01 0.42319419E+03</pdfrwt>
<totfact> 0.14448041E+03</totfact>
</mgrwt>
</event>
<event>
 4    1  0.4656600E-002  0.4172211E+03  0.7818608E-02  0.1037975E+00
         21   -1    0    0  501  502  0.00000000000E+00  0.00000000000E+00  0.91984646232E+03  0.91984646232E+03  0.00000000000E+00 0.  1.
         21   -1    0    0  502  503 -0.00000000000E+00 -0.00000000000E+00 -0.33931691490E+03  0.33931691490E+03  0.00000000000E+00 0.  1.
    9000007    1    1    2  501    0 -0.11320128880E+03 -0.35481627281E+02  0.70896534525E+03  0.82262101750E+03  0.40000000000E+03 0.  1.
   -9000007    1    1    2    0  503  0.11320128880E+03  0.35481627281E+02 -0.12843579783E+03  0.43654235971E+03  0.40000000000E+03 0.  1.
<mgrwt>
<rscale>  2 0.41722114E+03</rscale>
<asrwt>0</asrwt>
<pdfrwt beam="1">  1       21 0.14151484E+00 0.41722114E+03</pdfrwt>
<pdfrwt beam="2">  1       21 0.52202603E-01 0.41722114E+03</pdfrwt>
<totfact> 0.10404694E+03</totfact>
</mgrwt>
</event>
<event>
 4    1  0.4656600E-002  0.8223470E+03  0.7818608E-02  0.9528222E-01
         21   -1    0    0  501  502  0.00000000000E+00  0.00000000000E+00  0.11819455319E+04  0.11819455319E+04  0.00000000000E+00 0. -1.
         21   -1    0    0  502  503 -0.00000000000E+00 -0.00000000000E+00 -0.57217950090E+03  0.57217950090E+03  0.00000000000E+00 0.  1.
    9000007    1    1    2  501    0 -0.58600264468E+03  0.41575890267E+03  0.29899882394E+03  0.87501706351E+03  0.40000000000E+03 0. -1.
   -9000007    1    1    2    0  503  0.58600264468E+03 -0.41575890267E+03  0.31076720709E+03  0.87910796932E+03  0.40000000000E+03 0.  1.
<mgrwt>
<rscale>  2 0.82234699E+03</rscale>
<asrwt>0</asrwt>
<pdfrwt beam="1">  1       21 0.18183777E+00 0.82234699E+03</pdfrwt>
<pdfrwt beam="2">  1       21 0.88027616E-01 0.82234699E+03</pdfrwt>
<totfact> 0.13683876E+02</totfact>
</mgrwt>
</event>
<event>
 4    1  0.4656600E-002  0.5564390E+03  0.7818608E-02  0.1000014E+00
         21   -1    0    0  503  502  0.00000000000E+00  0.00000000000E+00  0.67138123465E+03  0.67138123465E+03  0.00000000000E+00 0.  1.
         21   -1    0    0  501  503 -0.00000000000E+00 -0.00000000000E+00 -0.92533746020E+03  0.92533746020E+03  0.00000000000E+00 0.  1.
    9000007    1    1    2  501    0 -0.35342064104E+03  0.15722037383E+03 -0.69241383408E+03  0.88829123213E+03  0.40000000000E+03 0.  1.
   -9000007    1    1    2    0  502  0.35342064104E+03 -0.15722037383E+03  0.43845760852E+03  0.70842746272E+03  0.40000000000E+03 0.  1.
<mgrwt>
<rscale>  2 0.55643903E+03</rscale>
<asrwt>0</asrwt>
<pdfrwt beam="1">  1       21 0.10328942E+00 0.55643903E+03</pdfrwt>
<pdfrwt beam="2">  1       21 0.14235961E+00 0.55643903E+03</pdfrwt>
<totfact> 0.20304093E+02</totfact>
</mgrwt>
</event>
<event>
 4    1  0.4656600E-002  0.4395908E+03  0.7818608E-02  0.1030872E+00
         21   -1    0    0  501  502  0.00000000000E+00  0.00000000000E+00  0.14515501672E+03  0.14515501672E+03  0.00000000000E+00 0. -1.
         21   -1    0    0  502  503 -0.00000000000E+00 -0.00000000000E+00 -0.13460260337E+04  0.13460260337E+04  0.00000000000E+00 0. -1.
    9000007    1    1    2  501    0 -0.10728010181E+03 -0.14741468159E+03 -0.67850836780E+03  0.80846379867E+03  0.40000000000E+03 0. -1.
   -9000007    1    1    2    0  503  0.10728010181E+03  0.14741468159E+03 -0.52236264921E+03  0.68271725179E+03  0.40000000000E+03 0. -1.
<mgrwt>
<rscale>  2 0.43959084E+03</rscale>
<asrwt>0</asrwt>
<pdfrwt beam="1">  1       21 0.22331542E-01 0.43959084E+03</pdfrwt>
<pdfrwt beam="2">  1       21 0.20708092E+00 0.43959084E+03</pdfrwt>
<totfact> 0.19238856E+03</totfact>
</mgrwt>
</event>
<event>
 4    1  0.4656600E-002  0.4599572E+03  0.7818608E-02  0.1024794E+00
         21   -1    0    0  501  502  0.00000000000E+00  0.00000000000E+00  0.74215400172E+03  0.74215400172E+03  0.00000000000E+00 0.  1.
         21   -1    0    0  502  503 -0.00000000000E+00 -0.00000000000E+00 -0.10752928177E+04  0.10752928177E+04  0.00000000000E+00 0.  1.
    9000007    1    1    2  501    0  0.21995111789E+03  0.56410704135E+02  0.61244420029E+03  0.76592986642E+03  0.40000000000E+03 0.  1.
   -9000007    1    1    2    0  503 -0.21995111789E+03 -0.56410704135E+02 -0.94558301623E+03  0.10515169530E+04  0.40000000000E+03 0.  1.
<mgrwt>
<rscale>  2 0.45995724E+03</rscale>
<asrwt>0</asrwt>
<pdfrwt beam="1">  1       21 0.11417754E+00 0.45995724E+03</pdfrwt>
<pdfrwt beam="2">  1       21 0.16542966E+00 0.45995724E+03</pdfrwt>
<totfact> 0.10952137E+02</totfact>
</mgrwt>
</event>
<event>
 4    1  0.4656600E-002  0.4464076E+03  0.7818608E-02  0.1028799E+00
         21   -1    0    0  503  502  0.00000000000E+00  0.00000000000E+00  0.35518216960E+03  0.35518216960E+03  0.00000000000E+00 0.  1.
         21   -1    0    0  501  503 -0.00000000000E+00 -0.00000000000E+00 -0.86525693698E+03  0.86525693698E+03  0.00000000000E+00 0.  1.
    9000007    1    1    2  501    0 -0.10204736427E+03  0.16990007857E+03 -0.61685407269E+03  0.76143853872E+03  0.40000000000E+03 0.  1.
   -9000007    1    1    2    0  502  0.10204736427E+03 -0.16990007857E+03  0.10677930531E+03  0.45900056786E+03  0.40000000000E+03 0.  1.
<mgrwt>
<rscale>  2 0.44640755E+03</rscale>
<asrwt>0</asrwt>
<pdfrwt beam="1">  1       21 0.54643411E-01 0.44640755E+03</pdfrwt>
<pdfrwt beam="2">  1       21 0.13311645E+00 0.44640755E+03</pdfrwt>
<totfact> 0.10942818E+03</totfact>
</mgrwt>
</event>
<event>
 4    1  0.4656600E-002  0.5131569E+03  0.7818608E-02  0.1010401E+00
         21   -1    0    0  503  502  0.00000000000E+00  0.00000000000E+00  0.41121509922E+03  0.41121509922E+03  0.00000000000E+00 0.  1.
         21   -1    0    0  501  503 -0.00000000000E+00 -0.00000000000E+00 -0.76947406576E+03  0.76947406576E+03  0.00000000000E+00 0. -1.
    9000007    1    1    2  501    0 -0.10738225918E+03  0.30298357223E+03 -0.42094145916E+03  0.66371809277E+03  0.40000000000E+03 0.  1.
   -9000007    1    1    2    0  502  0.10738225918E+03 -0.30298357223E+03  0.62682492618E+02  0.51697107222E+03  0.40000000000E+03 0.  1.
<mgrwt>
<rscale>  2 0.51315689E+03</rscale>
<asrwt>0</asrwt>
<pdfrwt beam="1">  1       21 0.63263862E-01 0.51315689E+03</pdfrwt>
<pdfrwt beam="2">  1       21 0.11838063E+00 0.51315689E+03</pdfrwt>
<totfact> 0.10473587E+03</totfact>
</mgrwt>
</event>
<event>
 4    1  0.4656600E-002  0.4864515E+03  0.7818608E-02  0.1017377E+00
         21   -1    0    0  501  502  0.00000000000E+00  0.00000000000E+00  0.62651953264E+03  0.62651953264E+03  0.00000000000E+00 0.  1.
         21   -1    0    0  502  503 -0.00000000000E+00 -0.00000000000E+00 -0.77599874847E+03  0.77599874847E+03  0.00000000000E+00 0. -1.
    9000007    1    1    2  501    0  0.27398916720E+03 -0.39560429730E+02  0.42766505123E+03  0.64771327560E+03  0.40000000000E+03 0.  1.
   -9000007    1    1    2    0  503 -0.27398916720E+03  0.39560429730E+02 -0.57714426706E+03  0.75480500551E+03  0.40000000000E+03 0. -1.
<mgrwt>
<rscale>  2 0.48645153E+03</rscale>
<asrwt>0</asrwt>
<pdfrwt beam="1">  1       21 0.96387621E-01 0.48645153E+03</pdfrwt>
<pdfrwt beam="2">  1       21 0.11938442E+00 0.48645153E+03</pdfrwt>
<totfact> 0.39192440E+02</totfact>
</mgrwt>
</event>
<event>
 4    1  0.4656600E-002  0.4903177E+03  0.7818608E-02  0.1016337E+00
         21   -1    0    0  503  502  0.00000000000E+00  0.00000000000E+00  0.17908286589E+03  0.17908286589E+03  0.00000000000E+00 0. -1.
         21   -1    0    0  501  503 -0.00000000000E+00 -0.00000000000E+00 -0.19540958546E+04  0.19540958546E+04  0.00000000000E+00 0.  1.
    9000007    1    1    2  501    0 -0.72015970642E+02  0.27427202789E+03 -0.14842271327E+04  0.15631191978E+04  0.40000000000E+03 0.  1.
   -9000007    1    1    2    0  502  0.72015970642E+02 -0.27427202789E+03 -0.29078585608E+03  0.57005952269E+03  0.40000000000E+03 0. -1.
<mgrwt>
<rscale>  2 0.49031770E+03</rscale>
<asrwt>0</asrwt>
<pdfrwt beam="1">  1       21 0.27551211E-01 0.49031770E+03</pdfrwt>
<pdfrwt beam="2">  1       21 0.30063012E+00 0.49031770E+03</pdfrwt>
<totfact> 0.32898916E+02</totfact>
</mgrwt>
</event>
<event>
 4    1  0.4656600E-002  0.4364842E+03  0.7818608E-02  0.1031831E+00
         21   -1    0    0  501  502  0.00000000000E+00  0.00000000000E+00  0.34122198369E+03  0.34122198369E+03  0.00000000000E+00 0. -1.
         21   -1    0    0  502  503 -0.00000000000E+00 -0.00000000000E+00 -0.84492895217E+03  0.84492895217E+03  0.00000000000E+00 0. -1.
    9000007    1    1    2  501    0 -0.13945250892E+03 -0.10522118043E+03 -0.59725816387E+03  0.73975388702E+03  0.40000000000E+03 0. -1.
   -9000007    1    1    2    0  503  0.13945250892E+03  0.10522118043E+03  0.93551195389E+02  0.44639704884E+03  0.40000000000E+03 0. -1.
<mgrwt>
<rscale>  2 0.43648425E+03</rscale>
<asrwt>0</asrwt>
<pdfrwt beam="1">  1       21 0.52495689E-01 0.43648425E+03</pdfrwt>
<pdfrwt beam="2">  1       21 0.12998907E+00 0.43648425E+03</pdfrwt>
<totfact> 0.12741081E+03</totfact>
</mgrwt>
</event>
<event>
 4    1  0.4656600E-002  0.4105606E+03  0.7818608E-02  0.1040183E+00
         21   -1    0    0  503  502  0.00000000000E+00  0.00000000000E+00  0.63891822860E+03  0.63891822860E+03  0.00000000000E+00 0. -1.
         21   -1    0    0  501  503 -0.00000000000E+00 -0.00000000000E+00 -0.32307514179E+03  0.32307514179E+03  0.00000000000E+00 0. -1.
    9000007    1    1    2  501    0 -0.92021261502E+02  0.95960541841E+01  0.36391335158E+03  0.54862822046E+03  0.40000000000E+03 0.  1.
   -9000007    1    1    2    0  502  0.92021261502E+02 -0.95960541841E+01 -0.48070264768E+02  0.41336514993E+03  0.40000000000E+03 0.  1.
<mgrwt>
<rscale>  2 0.41056059E+03</rscale>
<asrwt>0</asrwt>
<pdfrwt beam="1">  1       21 0.98295111E-01 0.41056059E+03</pdfrwt>
<pdfrwt beam="2">  1       21 0.49703868E-01 0.41056059E+03</pdfrwt>
<totfact> 0.29086258E+03</totfact>
</mgrwt>
</event>
<event>
 4    1  0.4656600E-002  0.4139525E+03  0.7818608E-02  0.1039053E+00
         21   -1    0    0  503  502  0.00000000000E+00  0.00000000000E+00  0.35563805904E+03  0.35563805904E+03  0.00000000000E+00 0. -1.
         21   -1    0    0  501  503 -0.00000000000E+00 -0.00000000000E+00 -0.84020715062E+03  0.84020715062E+03  0.00000000000E+00 0. -1.
    9000007    1    1    2  501    0  0.21502082617E+02  0.10437587885E+03 -0.63278600538E+03  0.75615791489E+03  0.40000000000E+03 0. -1.
   -9000007    1    1    2    0  502 -0.21502082617E+02 -0.10437587885E+03  0.14821691380E+03  0.43968729477E+03  0.40000000000E+03 0. -1.
<mgrwt>
<rscale>  2 0.41395249E+03</rscale>
<asrwt>0</asrwt>
<pdfrwt beam="1">  1       21 0.54713548E-01 0.41395249E+03</pdfrwt>
<pdfrwt beam="2">  1       21 0.12926264E+00 0.41395249E+03</pdfrwt>
<totfact> 0.11944047E+03</totfact>
</mgrwt>
</event>
<event>
 4    1  0.4656600E-002  0.4527924E+03  0.7818608E-02  0.1026893E+00
         21   -1    0    0  501  502  0.00000000000E+00  0.00000000000E+00  0.12790969377E+04  0.12790969377E+04  0.00000000000E+00 0.  1.
         21   -1    0    0  502  503 -0.00000000000E+00 -0.00000000000E+00 -0.21655497318E+03  0.21655497318E+03  0.00000000000E+00 0.  1.
    9000007    1    1    2  501    0  0.21005073025E+03  0.29993862308E+02  0.91247031120E+03  0.10186378208E+04  0.40000000000E+03 0.  1.
   -9000007    1    1    2    0  503 -0.21005073025E+03 -0.29993862308E+02  0.15007165333E+03  0.47701409014E+03  0.40000000000E+03 0.  1.
<mgrwt>
<rscale>  2 0.45279238E+03</rscale>
<asrwt>0</asrwt>
<pdfrwt beam="1">  1       21 0.19678414E+00 0.45279238E+03</pdfrwt>
<pdfrwt beam="2">  1       21 0.33316150E-01 0.45279238E+03</pdfrwt>
<totfact> 0.10196761E+03</totfact>
</mgrwt>
</event>
<event>
 4    1  0.4656600E-002  0.4490326E+03  0.7818608E-02  0.1028011E+00
         21   -1    0    0  503  502  0.00000000000E+00  0.00000000000E+00  0.35437893772E+03  0.35437893772E+03  0.00000000000E+00 0. -1.
         21   -1    0    0  501  503 -0.00000000000E+00 -0.00000000000E+00 -0.76367461941E+03  0.76367461941E+03  0.00000000000E+00 0. -1.
    9000007    1    1    2  501    0 -0.32579818733E+02 -0.20141716738E+03 -0.48692039416E+03  0.66236077039E+03  0.40000000000E+03 0. -1.
   -9000007    1    1    2    0  502  0.32579818733E+02  0.20141716738E+03  0.77624712459E+02  0.45569278674E+03  0.40000000000E+03 0. -1.
<mgrwt>
<rscale>  2 0.44903265E+03</rscale>
<asrwt>0</asrwt>
<pdfrwt beam="1">  1       21 0.54519837E-01 0.44903265E+03</pdfrwt>
<pdfrwt beam="2">  1       21 0.11748840E+00 0.44903265E+03</pdfrwt>
<totfact> 0.15141610E+03</totfact>
</mgrwt>
</event>
<event>
 4    1  0.4656600E-002  0.4239816E+03  0.7818608E-02  0.1035778E+00
         21   -1    0    0  501  502  0.00000000000E+00  0.00000000000E+00  0.56152748093E+03  0.56152748093E+03  0.00000000000E+00 0.  1.
         21   -1    0    0  502  503 -0.00000000000E+00 -0.00000000000E+00 -0.32436958021E+03  0.32436958021E+03  0.00000000000E+00 0.  1.
    9000007    1    1    2  501    0  0.86440715677E+02 -0.11085303797E+03  0.67923962561E+02  0.42938800407E+03  0.40000000000E+03 0.  1.
   -9000007    1    1    2    0  503 -0.86440715677E+02  0.11085303797E+03  0.16923393816E+03  0.45650905706E+03  0.40000000000E+03 0.  1.
<mgrwt>
<rscale>  2 0.42398160E+03</rscale>
<asrwt>0</asrwt>
<pdfrwt beam="1">  1       21 0.86388843E-01 0.42398160E+03</pdfrwt>
<pdfrwt beam="2">  1       21 0.49903012E-01 0.42398160E+03</pdfrwt>
<totfact> 0.39000129E+03</totfact>
</mgrwt>
</event>
<event>
 4    1  0.4656600E-002  0.4423985E+03  0.7818608E-02  0.1030013E+00
         21   -1    0    0  501  502  0.00000000000E+00  0.00000000000E+00  0.29107782444E+03  0.29107782444E+03  0.00000000000E+00 0. -1.
         21   -1    0    0  502  503 -0.00000000000E+00 -0.00000000000E+00 -0.10872204983E+04  0.10872204983E+04  0.00000000000E+00 0. -1.
    9000007    1    1    2  501    0  0.18264107611E+03 -0.48565733561E+02  0.27617555432E+02  0.44325965588E+03  0.40000000000E+03 0. -1.
   -9000007    1    1    2    0  503 -0.18264107611E+03  0.48565733561E+02 -0.82376022928E+03  0.93503866684E+03  0.40000000000E+03 0. -1.
<mgrwt>
<rscale>  2 0.44239846E+03</rscale>
<asrwt>0</asrwt>
<pdfrwt beam="1">  1       21 0.44781204E-01 0.44239846E+03</pdfrwt>
<pdfrwt beam="2">  1       21 0.16726469E+00 0.44239846E+03</pdfrwt>
<totfact> 0.89974962E+02</totfact>
</mgrwt>
</event>
<event>
 4    1  0.4656600E-002  0.4493633E+03  0.7818608E-02  0.1027912E+00
         21   -1    0    0  501  502  0.00000000000E+00  0.00000000000E+00  0.12472412557E+04  0.12472412557E+04  0.00000000000E+00 0.  1.
         21   -1    0    0  502  503 -0.00000000000E+00 -0.00000000000E+00 -0.21771263037E+03  0.21771263037E+03  0.00000000000E+00 0.  1.
    9000007    1    1    2  501    0  0.19418425748E+03  0.64960318206E+02  0.88563412211E+03  0.99311387416E+03  0.40000000000E+03 0.  1.
   -9000007    1    1    2    0  503 -0.19418425748E+03 -0.64960318206E+02  0.14389450322E+03  0.47184001192E+03  0.40000000000E+03 0.  1.
<mgrwt>
<rscale>  2 0.44936329E+03</rscale>
<asrwt>0</asrwt>
<pdfrwt beam="1">  1       21 0.19188327E+00 0.44936329E+03</pdfrwt>
<pdfrwt beam="2">  1       21 0.33494252E-01 0.44936329E+03</pdfrwt>
<totfact> 0.10906047E+03</totfact>
</mgrwt>
</event>
<event>
 4    1  0.4656600E-002  0.4089157E+03  0.7818608E-02  0.1040735E+00
         21   -1    0    0  501  502  0.00000000000E+00  0.00000000000E+00  0.51744963877E+03  0.51744963877E+03  0.00000000000E+00 0. -1.
         21   -1    0    0  502  503 -0.00000000000E+00 -0.00000000000E+00 -0.43807161629E+03  0.43807161629E+03  0.00000000000E+00 0. -1.
    9000007    1    1    2  501    0  0.52691017500E+02  0.66600981589E+02  0.28439539289E+03  0.49808912212E+03  0.40000000000E+03 0. -1.
   -9000007    1    1    2    0  503 -0.52691017500E+02 -0.66600981589E+02 -0.20501737042E+03  0.45743213294E+03  0.40000000000E+03 0. -1.
<mgrwt>
<rscale>  2 0.40891568E+03</rscale>
<asrwt>0</asrwt>
<pdfrwt beam="1">  1       21 0.79607637E-01 0.40891568E+03</pdfrwt>
<pdfrwt beam="2">  1       21 0.67395633E-01 0.40891568E+03</pdfrwt>
<totfact> 0.24665301E+03</totfact>
</mgrwt>
</event>
<event>
 4    1  0.4656600E-002  0.5063059E+03  0.7818608E-02  0.1012146E+00
         21   -1    0    0  503  502  0.00000000000E+00  0.00000000000E+00  0.51844287743E+03  0.51844287743E+03  0.00000000000E+00 0. -1.
         21   -1    0    0  501  503 -0.00000000000E+00 -0.00000000000E+00 -0.54158638730E+03  0.54158638730E+03  0.00000000000E+00 0. -1.
    9000007    1    1    2  501    0  0.30566893856E+03 -0.53964481486E+02  0.14478550684E+03  0.52660090036E+03  0.40000000000E+03 0. -1.
   -9000007    1    1    2    0  502 -0.30566893856E+03  0.53964481486E+02 -0.16792901671E+03  0.53342836437E+03  0.40000000000E+03 0. -1.
<mgrwt>
<rscale>  2 0.50630590E+03</rscale>
<asrwt>0</asrwt>
<pdfrwt beam="1">  1       21 0.79760442E-01 0.50630590E+03</pdfrwt>
<pdfrwt beam="2">  1       21 0.83320983E-01 0.50630590E+03</pdfrwt>
<totfact> 0.14594465E+03</totfact>
</mgrwt>
</event>
<event>
 4    1  0.4656600E-002  0.4986647E+03  0.7818608E-02  0.1014128E+00
         21   -1    0    0  503  502  0.00000000000E+00  0.00000000000E+00  0.22032942870E+04  0.22032942870E+04  0.00000000000E+00 0. -1.
         21   -1    0    0  501  503 -0.00000000000E+00 -0.00000000000E+00 -0.13036552672E+03  0.13036552672E+03  0.00000000000E+00 0. -1.
    9000007    1    1    2  501    0 -0.97744919633E+02  0.28126921351E+03  0.60890261546E+03  0.78703801363E+03  0.40000000000E+03 0. -1.
   -9000007    1    1    2    0  502  0.97744919633E+02 -0.28126921351E+03  0.14640261448E+04  0.15466218000E+04  0.40000000000E+03 0. -1.
<mgrwt>
<rscale>  2 0.49866466E+03</rscale>
<asrwt>0</asrwt>
<pdfrwt beam="1">  1       21 0.33896832E+00 0.49866466E+03</pdfrwt>
<pdfrwt beam="2">  1       21 0.20056237E-01 0.49866466E+03</pdfrwt>
<totfact> 0.35469232E+02</totfact>
</mgrwt>
</event>
<event>
 4    1  0.4656600E-002  0.4123019E+03  0.7818608E-02  0.1039601E+00
         21   -1    0    0  503  502  0.00000000000E+00  0.00000000000E+00  0.37999912211E+03  0.37999912211E+03  0.00000000000E+00 0.  1.
         21   -1    0    0  501  503 -0.00000000000E+00 -0.00000000000E+00 -0.47782741953E+03  0.47782741953E+03  0.00000000000E+00 0. -1.
    9000007    1    1    2  501    0 -0.62730311383E+02 -0.77831704078E+02 -0.15723652863E+03  0.44126657709E+03  0.40000000000E+03 0. -1.
   -9000007    1    1    2    0  502  0.62730311383E+02  0.77831704078E+02  0.59408231215E+02  0.41655996455E+03  0.40000000000E+03 0.  1.
<mgrwt>
<rscale>  2 0.41230191E+03</rscale>
<asrwt>0</asrwt>
<pdfrwt beam="1">  1       21 0.58461403E-01 0.41230191E+03</pdfrwt>
<pdfrwt beam="2">  1       21 0.73511911E-01 0.41230191E+03</pdfrwt>
<totfact> 0.40432162E+03</totfact>
</mgrwt>
</event>
<event>
 4    1  0.4656600E-002  0.4528650E+03  0.7818608E-02  0.1026871E+00
         21   -1    0    0  503  502  0.00000000000E+00  0.00000000000E+00  0.76151098991E+03  0.76151098991E+03  0.00000000000E+00 0.  1.
         21   -1    0    0  501  503 -0.00000000000E+00 -0.00000000000E+00 -0.38875319205E+03  0.38875319205E+03  0.00000000000E+00 0. -1.
    9000007    1    1    2  501    0 -0.21224604359E+03 -0.61902952268E+01 -0.13240864416E+03  0.47182491649E+03  0.40000000000E+03 0. -1.
   -9000007    1    1    2    0  502  0.21224604359E+03  0.61902952268E+01  0.50516644202E+03  0.67843926546E+03  0.40000000000E+03 0.  1.
<mgrwt>
<rscale>  2 0.45286499E+03</rscale>
<asrwt>0</asrwt>
<pdfrwt beam="1">  1       21 0.11715554E+00 0.45286499E+03</pdfrwt>
<pdfrwt beam="2">  1       21 0.59808184E-01 0.45286499E+03</pdfrwt>
<totfact> 0.12451798E+03</totfact>
</mgrwt>
</event>
<event>
 4    1  0.4656600E-002  0.4708899E+03  0.7818608E-02  0.1021669E+00
         21   -1    0    0  501  502  0.00000000000E+00  0.00000000000E+00  0.70339330903E+03  0.70339330903E+03  0.00000000000E+00 0. -1.
         21   -1    0    0  502  503 -0.00000000000E+00 -0.00000000000E+00 -0.32923930895E+03  0.32923930895E+03  0.00000000000E+00 0. -1.
    9000007    1    1    2  501    0  0.12863430652E+03 -0.21258053813E+03  0.80608059514E+02  0.47773939472E+03  0.40000000000E+03 0. -1.
   -9000007    1    1    2    0  503 -0.12863430652E+03  0.21258053813E+03  0.29354594057E+03  0.55489322327E+03  0.40000000000E+03 0. -1.
<mgrwt>
<rscale>  2 0.47088987E+03</rscale>
<asrwt>0</asrwt>
<pdfrwt beam="1">  1       21 0.10821435E+00 0.47088987E+03</pdfrwt>
<pdfrwt beam="2">  1       21 0.50652202E-01 0.47088987E+03</pdfrwt>
<totfact> 0.21585476E+03</totfact>
</mgrwt>
</event>
<event>
 4    1  0.4656600E-002  0.5706747E+03  0.7818608E-02  0.9968187E-01
         21   -1    0    0  503  502  0.00000000000E+00  0.00000000000E+00  0.27924062479E+03  0.27924062479E+03  0.00000000000E+00 0. -1.
         21   -1    0    0  501  503 -0.00000000000E+00 -0.00000000000E+00 -0.14215601876E+04  0.14215601876E+04  0.00000000000E+00 0.  1.
    9000007    1    1    2  501    0 -0.31115182594E+03  0.26240072799E+03 -0.93153838561E+03  0.10924437581E+04  0.40000000000E+03 0.  1.
   -9000007    1    1    2    0  502  0.31115182594E+03 -0.26240072799E+03 -0.21078117724E+03  0.60835705430E+03  0.40000000000E+03 0. -1.
<mgrwt>
<rscale>  2 0.57067469E+03</rscale>
<asrwt>0</asrwt>
<pdfrwt beam="1">  1       21 0.42960096E-01 0.57067469E+03</pdfrwt>
<pdfrwt beam="2">  1       21 0.21870157E+00 0.57067469E+03</pdfrwt>
<totfact> 0.41297405E+02</totfact>
</mgrwt>
</event>
<event>
 4    1  0.4656600E-002  0.4736596E+03  0.7818608E-02  0.1020892E+00
         21   -1    0    0  503  502  0.00000000000E+00  0.00000000000E+00  0.10861716441E+04  0.10861716441E+04  0.00000000000E+00 0. -1.
         21   -1    0    0  501  503 -0.00000000000E+00 -0.00000000000E+00 -0.20848734667E+03  0.20848734667E+03  0.00000000000E+00 0.  1.
    9000007    1    1    2  501    0  0.16012112985E+03 -0.19676038104E+03  0.37651077472E+03  0.60507337345E+03  0.40000000000E+03 0.  1.
   -9000007    1    1    2    0  502 -0.16012112985E+03  0.19676038104E+03  0.50117352274E+03  0.68958561736E+03  0.40000000000E+03 0. -1.
<mgrwt>
<rscale>  2 0.47365961E+03</rscale>
<asrwt>0</asrwt>
<pdfrwt beam="1">  1       21 0.16710333E+00 0.47365961E+03</pdfrwt>
<pdfrwt beam="2">  1       21 0.32074977E-01 0.47365961E+03</pdfrwt>
<totfact> 0.17628215E+03</totfact>
</mgrwt>
</event>
<event>
 4    1  0.4656600E-002  0.5397082E+03  0.7818608E-02  0.1003905E+00
         21   -1    0    0  503  502  0.00000000000E+00  0.00000000000E+00  0.94848731602E+02  0.94848731602E+02  0.00000000000E+00 0.  1.
         21   -1    0    0  501  503 -0.00000000000E+00 -0.00000000000E+00 -0.34030258807E+04  0.34030258807E+04  0.00000000000E+00 0.  1.
    9000007    1    1    2  501    0  0.13985132609E+03 -0.33425523371E+03 -0.22003449943E+04  0.22655690342E+04  0.40000000000E+03 0.  1.
   -9000007    1    1    2    0  502 -0.13985132609E+03  0.33425523371E+03 -0.11078321548E+04  0.12323055781E+04  0.40000000000E+03 0.  1.
<mgrwt>
<rscale>  2 0.53970821E+03</rscale>
<asrwt>0</asrwt>
<pdfrwt beam="1">  1       21 0.14592115E-01 0.53970821E+03</pdfrwt>
<pdfrwt beam="2">  1       21 0.52354236E+00 0.53970821E+03</pdfrwt>
<totfact> 0.36945204E+01</totfact>
</mgrwt>
</event>
<event>
 4    1  0.4656600E-002  0.4300388E+03  0.7818608E-02  0.1033848E+00
         21   -1    0    0  501  502  0.00000000000E+00  0.00000000000E+00  0.23408166218E+04  0.23408166218E+04  0.00000000000E+00 0.  1.
         21   -1    0    0  502  503 -0.00000000000E+00 -0.00000000000E+00 -0.12025398556E+03  0.12025398556E+03  0.00000000000E+00 0.  1.
    9000007    1    1    2  501    0 -0.14208600710E+03 -0.68883556905E+02  0.18309860277E+04  0.18808091906E+04  0.40000000000E+03 0.  1.
   -9000007    1    1    2    0  503  0.14208600710E+03  0.68883556905E+02  0.38957660847E+03  0.58026141669E+03  0.40000000000E+03 0.  1.
<mgrwt>
<rscale>  2 0.43003881E+03</rscale>
<asrwt>0</asrwt>
<pdfrwt beam="1">  1       21 0.36012560E+00 0.43003881E+03</pdfrwt>
<pdfrwt beam="2">  1       21 0.18500615E-01 0.43003881E+03</pdfrwt>
<totfact> 0.31952438E+02</totfact>
</mgrwt>
</event>
<event>
 4    1  0.4656600E-002  0.4192970E+03  0.7818608E-02  0.1037295E+00
         21   -1    0    0  501  502  0.00000000000E+00  0.00000000000E+00  0.22549675003E+03  0.22549675003E+03  0.00000000000E+00 0. -1.
         21   -1    0    0  502  503 -0.00000000000E+00 -0.00000000000E+00 -0.80580942315E+03  0.80580942315E+03  0.00000000000E+00 0. -1.
    9000007    1    1    2  501    0  0.11058890045E+03 -0.59833357697E+02 -0.19725880062E+03  0.46337994132E+03  0.40000000000E+03 0. -1.
   -9000007    1    1    2    0  503 -0.11058890045E+03  0.59833357697E+02 -0.38305387250E+03  0.56792623186E+03  0.40000000000E+03 0. -1.
<mgrwt>
<rscale>  2 0.41929695E+03</rscale>
<asrwt>0</asrwt>
<pdfrwt beam="1">  1       21 0.34691808E-01 0.41929695E+03</pdfrwt>
<pdfrwt beam="2">  1       21 0.12397068E+00 0.41929695E+03</pdfrwt>
<totfact> 0.34278557E+03</totfact>
</mgrwt>
</event>
<event>
 4    1  0.4656600E-002  0.5271438E+03  0.7818608E-02  0.1006927E+00
         21   -1    0    0  503  502  0.00000000000E+00  0.00000000000E+00  0.43465547932E+03  0.43465547932E+03  0.00000000000E+00 0. -1.
         21   -1    0    0  501  503 -0.00000000000E+00 -0.00000000000E+00 -0.11000983470E+04  0.11000983470E+04  0.00000000000E+00 0.  1.
    9000007    1    1    2  501    0 -0.30774621591E+03  0.15222616537E+03 -0.82936257480E+03  0.98271197169E+03  0.40000000000E+03 0.  1.
   -9000007    1    1    2    0  502  0.30774621591E+03 -0.15222616537E+03  0.16391970716E+03  0.55204185459E+03  0.40000000000E+03 0. -1.
<mgrwt>
<rscale>  2 0.52714376E+03</rscale>
<asrwt>0</asrwt>
<pdfrwt beam="1">  1       21 0.66870075E-01 0.52714376E+03</pdfrwt>
<pdfrwt beam="2">  1       21 0.16924590E+00 0.52714376E+03</pdfrwt>
<totfact> 0.35238514E+02</totfact>
</mgrwt>
</event>
<event>
 4    1  0.4656600E-002  0.5445768E+03  0.7818608E-02  0.1002757E+00
         21   -1    0    0  503  502  0.00000000000E+00  0.00000000000E+00  0.27475801217E+04  0.27475801217E+04  0.00000000000E+00 0. -1.
         21   -1    0    0  501  503 -0.00000000000E+00 -0.00000000000E+00 -0.11866864563E+03  0.11866864563E+03  0.00000000000E+00 0.  1.
    9000007    1    1    2  501    0 -0.35296895912E+03  0.10943839602E+03  0.88347126475E+03  0.10378272131E+04  0.40000000000E+03 0. -1.
   -9000007    1    1    2    0  502  0.35296895912E+03 -0.10943839602E+03  0.17454402113E+04  0.18284215542E+04  0.40000000000E+03 0.  1.
<mgrwt>
<rscale>  2 0.54457676E+03</rscale>
<asrwt>0</asrwt>
<pdfrwt beam="1">  1       21 0.42270459E+00 0.54457676E+03</pdfrwt>
<pdfrwt beam="2">  1       21 0.18256717E-01 0.54457676E+03</pdfrwt>
<totfact> 0.12180746E+02</totfact>
</mgrwt>
</event>
<event>
 4    1  0.4656600E-002  0.5571123E+03  0.7818608E-02  0.9998610E-01
         21   -1    0    0  503  502  0.00000000000E+00  0.00000000000E+00  0.28935095514E+03  0.28935095514E+03  0.00000000000E+00 0. -1.
         21   -1    0    0  501  503 -0.00000000000E+00 -0.00000000000E+00 -0.10737674583E+04  0.10737674583E+04  0.00000000000E+00 0.  1.
    9000007    1    1    2  501    0  0.22016052909E+03 -0.31922324567E+03 -0.41413260733E+03  0.69417573827E+03  0.40000000000E+03 0.  1.
   -9000007    1    1    2    0  502 -0.22016052909E+03  0.31922324567E+03 -0.37028389584E+03  0.66894267518E+03  0.40000000000E+03 0.  1.
<mgrwt>
<rscale>  2 0.55711232E+03</rscale>
<asrwt>0</asrwt>
<pdfrwt beam="1">  1       21 0.44515531E-01 0.55711232E+03</pdfrwt>
<pdfrwt beam="2">  1       21 0.16519500E+00 0.55711232E+03</pdfrwt>
<totfact> 0.90170933E+02</totfact>
</mgrwt>
</event>
<event>
 4    1  0.4656600E-002  0.4273528E+03  0.7818608E-02  0.1034699E+00
         21   -1    0    0  503  502  0.00000000000E+00  0.00000000000E+00  0.40670216271E+03  0.40670216271E+03  0.00000000000E+00 0. -1.
         21   -1    0    0  501  503 -0.00000000000E+00 -0.00000000000E+00 -0.51050517089E+03  0.51050517089E+03  0.00000000000E+00 0.  1.
    9000007    1    1    2  501    0 -0.74451568959E+02  0.13071877580E+03 -0.21101589808E+03  0.47661110321E+03  0.40000000000E+03 0.  1.
   -9000007    1    1    2    0  502  0.74451568959E+02 -0.13071877580E+03  0.10721288990E+03  0.44059623038E+03  0.40000000000E+03 0. -1.
<mgrwt>
<rscale>  2 0.42735282E+03</rscale>
<asrwt>0</asrwt>
<pdfrwt beam="1">  1       21 0.62569564E-01 0.42735282E+03</pdfrwt>
<pdfrwt beam="2">  1       21 0.78539257E-01 0.42735282E+03</pdfrwt>
<totfact> 0.29790613E+03</totfact>
</mgrwt>
</event>
<event>
 4    1  0.4656600E-002  0.5723254E+03  0.7818608E-02  0.9964546E-01
         21   -1    0    0  501  502  0.00000000000E+00  0.00000000000E+00  0.23495559967E+04  0.23495559967E+04  0.00000000000E+00 0. -1.
         21   -1    0    0  502  503 -0.00000000000E+00 -0.00000000000E+00 -0.19135900901E+03  0.19135900901E+03  0.00000000000E+00 0. -1.
    9000007    1    1    2  501    0  0.32945964522E+03  0.24292520396E+03  0.17410343974E+04  0.18326912139E+04  0.40000000000E+03 0. -1.
   -9000007    1    1    2    0  503 -0.32945964522E+03 -0.24292520396E+03  0.41716259027E+03  0.70822379180E+03  0.40000000000E+03 0. -1.
<mgrwt>
<rscale>  2 0.57232536E+03</rscale>
<asrwt>0</asrwt>
<pdfrwt beam="1">  1       21 0.36147013E+00 0.57232536E+03</pdfrwt>
<pdfrwt beam="2">  1       21 0.29439849E-01 0.57232536E+03</pdfrwt>
<totfact> 0.11725111E+02</totfact>
</mgrwt>
</event>
<event>
 4    1  0.4656600E-002  0.4300475E+03  0.7818608E-02  0.1033845E+00
         21   -1    0    0  501  502  0.00000000000E+00  0.00000000000E+00  0.39648289354E+03  0.39648289354E+03  0.00000000000E+00 0.  1.
         21   -1    0    0  502  503 -0.00000000000E+00 -0.00000000000E+00 -0.55121959327E+03  0.55121959327E+03  0.00000000000E+00 0.  1.
    9000007    1    1    2  501    0  0.54306299788E+02 -0.14829594194E+03  0.10845086017E+03  0.44351149891E+03  0.40000000000E+03 0.  1.
   -9000007    1    1    2    0  503 -0.54306299788E+02  0.14829594194E+03 -0.26318755990E+03  0.50419098790E+03  0.40000000000E+03 0.  1.
<mgrwt>
<rscale>  2 0.43004751E+03</rscale>
<asrwt>0</asrwt>
<pdfrwt beam="1">  1       21 0.60997368E-01 0.43004751E+03</pdfrwt>
<pdfrwt beam="2">  1       21 0.84803014E-01 0.43004751E+03</pdfrwt>
<totfact> 0.26347673E+03</totfact>
</mgrwt>
</event>
<event>
 4    1  0.4656600E-002  0.4138461E+03  0.7818608E-02  0.1039088E+00
         21   -1    0    0  503  502  0.00000000000E+00  0.00000000000E+00  0.10075184705E+04  0.10075184705E+04  0.00000000000E+00 0. -1.
         21   -1    0    0  501  503 -0.00000000000E+00 -0.00000000000E+00 -0.26216007982E+03  0.26216007982E+03  0.00000000000E+00 0. -1.
    9000007    1    1    2  501    0  0.40499933028E+02  0.98124355254E+02 -0.37420770547E+01  0.41386306529E+03  0.40000000000E+03 0. -1.
   -9000007    1    1    2    0  502 -0.40499933028E+02 -0.98124355254E+02  0.74910046775E+03  0.85581548505E+03  0.40000000000E+03 0. -1.
<mgrwt>
<rscale>  2 0.41384615E+03</rscale>
<asrwt>0</asrwt>
<pdfrwt beam="1">  1       21 0.15500284E+00 0.41384615E+03</pdfrwt>
<pdfrwt beam="2">  1       21 0.40332320E-01 0.41384615E+03</pdfrwt>
<totfact> 0.14002692E+03</totfact>
</mgrwt>
</event>
<event>
 4    1  0.4656600E-002  0.5006695E+03  0.7818608E-02  0.1013604E+00
         21   -1    0    0  501  502  0.00000000000E+00  0.00000000000E+00  0.24628299297E+03  0.24628299297E+03  0.00000000000E+00 0.  1.
         21   -1    0    0  502  503 -0.00000000000E+00 -0.00000000000E+00 -0.10265262684E+04  0.10265262684E+04  0.00000000000E+00 0. -1.
    9000007    1    1    2  501    0  0.12457059538E+02  0.30085677562E+03 -0.33148833952E+03  0.60046190304E+03  0.40000000000E+03 0.  1.
   -9000007    1    1    2    0  503 -0.12457059538E+02 -0.30085677562E+03 -0.44875493595E+03  0.67234735837E+03  0.40000000000E+03 0. -1.
<mgrwt>
<rscale>  2 0.50066953E+03</rscale>
<asrwt>0</asrwt>
<pdfrwt beam="1">  1       21 0.37889691E-01 0.50066953E+03</pdfrwt>
<pdfrwt beam="2">  1       21 0.15792712E+00 0.50066953E+03</pdfrwt>
<totfact> 0.14588914E+03</totfact>
</mgrwt>
</event>
<event>
 4    1  0.4656600E-002  0.4695808E+03  0.7818608E-02  0.1022039E+00
         21   -1    0    0  501  502  0.00000000000E+00  0.00000000000E+00  0.76783011193E+03  0.76783011193E+03  0.00000000000E+00 0. -1.
         21   -1    0    0  502  503 -0.00000000000E+00 -0.00000000000E+00 -0.29128725255E+03  0.29128725255E+03  0.00000000000E+00 0.  1.
    9000007    1    1    2  501    0  0.19366518784E+03  0.15165723953E+03  0.17539573458E+03  0.50126817872E+03  0.40000000000E+03 0.  1.
   -9000007    1    1    2    0  503 -0.19366518784E+03 -0.15165723953E+03  0.30114712480E+03  0.55784918577E+03  0.40000000000E+03 0.  1.
<mgrwt>
<rscale>  2 0.46958080E+03</rscale>
<asrwt>0</asrwt>
<pdfrwt beam="1">  1       21 0.11812771E+00 0.46958080E+03</pdfrwt>
<pdfrwt beam="2">  1       21 0.44813424E-01 0.46958080E+03</pdfrwt>
<totfact> 0.22479413E+03</totfact>
</mgrwt>
</event>
<event>
 4    1  0.4656600E-002  0.5156147E+03  0.7818608E-02  0.1009782E+00
         21   -1    0    0  503  502  0.00000000000E+00  0.00000000000E+00  0.10872927175E+04  0.10872927175E+04  0.00000000000E+00 0.  1.
         21   -1    0    0  501  503 -0.00000000000E+00 -0.00000000000E+00 -0.25426607695E+03  0.25426607695E+03  0.00000000000E+00 0.  1.
    9000007    1    1    2  501    0  0.19771513738E+03  0.25839355302E+03  0.54787833434E+03  0.75234910316E+03  0.40000000000E+03 0.  1.
   -9000007    1    1    2    0  502 -0.19771513738E+03 -0.25839355302E+03  0.28514830626E+03  0.58920969133E+03  0.40000000000E+03 0.  1.
<mgrwt>
<rscale>  2 0.51561469E+03</rscale>
<asrwt>0</asrwt>
<pdfrwt beam="1">  1       21 0.16727580E+00 0.51561469E+03</pdfrwt>
<pdfrwt beam="2">  1       21 0.39117859E-01 0.51561469E+03</pdfrwt>
<totfact> 0.11558554E+03</totfact>
</mgrwt>
</event>
<event>
 4    1  0.4656600E-002  0.5288198E+03  0.7818608E-02  0.1006519E+00
         21   -1    0    0  503  502  0.00000000000E+00  0.00000000000E+00  0.22678192100E+03  0.22678192100E+03  0.00000000000E+00 0. -1.
         21   -1    0    0  501  503 -0.00000000000E+00 -0.00000000000E+00 -0.12903764418E+04  0.12903764418E+04  0.00000000000E+00 0. -1.
    9000007    1    1    2  501    0 -0.62752558452E+02 -0.34016533139E+03 -0.69158296751E+03  0.87059596670E+03  0.40000000000E+03 0. -1.
   -9000007    1    1    2    0  502  0.62752558452E+02  0.34016533139E+03 -0.37201155328E+03  0.64656239610E+03  0.40000000000E+03 0. -1.
<mgrwt>
<rscale>  2 0.52881976E+03</rscale>
<asrwt>0</asrwt>
<pdfrwt beam="1">  1       21 0.34889526E-01 0.52881976E+03</pdfrwt>
<pdfrwt beam="2">  1       21 0.19851946E+00 0.52881976E+03</pdfrwt>
<totfact> 0.87580018E+02</totfact>
</mgrwt>
</event>
<event>
 4    1  0.4656600E-002  0.5171921E+03  0.7818608E-02  0.1009386E+00
         21   -1    0    0  503  502  0.00000000000E+00  0.00000000000E+00  0.56504139808E+03  0.56504139808E+03  0.00000000000E+00 0.  1.
         21   -1    0    0  501  503 -0.00000000000E+00 -0.00000000000E+00 -0.51743016293E+03  0.51743016293E+03  0.00000000000E+00 0.  1.
    9000007    1    1    2  501    0  0.32351703881E+03 -0.53145037744E+02 -0.13408682134E+03  0.53429106776E+03  0.40000000000E+03 0.  1.
   -9000007    1    1    2    0  502 -0.32351703881E+03  0.53145037744E+02  0.18169805649E+03  0.54818049324E+03  0.40000000000E+03 0.  1.
<mgrwt>
<rscale>  2 0.51719210E+03</rscale>
<asrwt>0</asrwt>
<pdfrwt beam="1">  1       21 0.86929446E-01 0.51719210E+03</pdfrwt>
<pdfrwt beam="2">  1       21 0.79604640E-01 0.51719210E+03</pdfrwt>
<totfact> 0.13222531E+03</totfact>
</mgrwt>
</event>
<event>
 4    1  0.4656600E-002  0.5241518E+03  0.7818608E-02  0.1007660E+00
         21   -1    0    0  501  502  0.00000000000E+00  0.00000000000E+00  0.13945855063E+04  0.13945855063E+04  0.00000000000E+00 0. -1.
         21   -1    0    0  502  503 -0.00000000000E+00 -0.00000000000E+00 -0.24381879635E+03  0.24381879635E+03  0.00000000000E+00 0.  1.
    9000007    1    1    2  501    0  0.31821505294E+03 -0.11607875884E+03  0.93435635394E+03  0.10713341656E+04  0.40000000000E+03 0. -1.
   -9000007    1    1    2    0  503 -0.31821505294E+03  0.11607875884E+03  0.21641035599E+03  0.56707013707E+03  0.40000000000E+03 0. -1.
<mgrwt>
<rscale>  2 0.52415179E+03</rscale>
<asrwt>0</asrwt>
<pdfrwt beam="1">  1       21 0.21455161E+00 0.52415179E+03</pdfrwt>
<pdfrwt beam="2">  1       21 0.37510585E-01 0.52415179E+03</pdfrwt>
<totfact> 0.59297270E+02</totfact>
</mgrwt>
</event>
<event>
 4    1  0.4656600E-002  0.4592898E+03  0.7818608E-02  0.1024987E+00
         21   -1    0    0  501  502  0.00000000000E+00  0.00000000000E+00  0.28300412063E+03  0.28300412063E+03  0.00000000000E+00 0. -1.
         21   -1    0    0  502  503 -0.00000000000E+00 -0.00000000000E+00 -0.96801278348E+03  0.96801278348E+03  0.00000000000E+00 0. -1.
    9000007    1    1    2  501    0 -0.77295896947E+02  0.21206701716E+03 -0.42531343868E+02  0.46125480015E+03  0.40000000000E+03 0. -1.
   -9000007    1    1    2    0  503  0.77295896947E+02 -0.21206701716E+03 -0.64247731898E+03  0.78976210396E+03  0.40000000000E+03 0. -1.
<mgrwt>
<rscale>  2 0.45928975E+03</rscale>
<asrwt>0</asrwt>
<pdfrwt beam="1">  1       21 0.43539095E-01 0.45928975E+03</pdfrwt>
<pdfrwt beam="2">  1       21 0.14892504E+00 0.45928975E+03</pdfrwt>
<totfact> 0.13067514E+03</totfact>
</mgrwt>
</event>
<event>
 4    1  0.4656600E-002  0.5435945E+03  0.7818608E-02  0.1002988E+00
         21   -1    0    0  503  502  0.00000000000E+00  0.00000000000E+00  0.45954328416E+03  0.45954328416E+03  0.00000000000E+00 0.  1.
         21   -1    0    0  501  503 -0.00000000000E+00 -0.00000000000E+00 -0.16776751591E+04  0.16776751591E+04  0.00000000000E+00 0.  1.
    9000007    1    1    2  501    0 -0.23997074037E+03  0.27912197365E+03 -0.14482611899E+04  0.15469180672E+04  0.40000000000E+03 0.  1.
   -9000007    1    1    2    0  502  0.23997074037E+03 -0.27912197365E+03  0.23012931495E+03  0.59030037609E+03  0.40000000000E+03 0.  1.
<mgrwt>
<rscale>  2 0.54359455E+03</rscale>
<asrwt>0</asrwt>
<pdfrwt beam="1">  1       21 0.70698965E-01 0.54359455E+03</pdfrwt>
<pdfrwt beam="2">  1       21 0.25810388E+00 0.54359455E+03</pdfrwt>
<totfact> 0.80016187E+01</totfact>
</mgrwt>
</event>
<event>
 4    1  0.4656600E-002  0.4437719E+03  0.7818608E-02  0.1029596E+00
         21   -1    0    0  503  502  0.00000000000E+00  0.00000000000E+00  0.10610030907E+03  0.10610030907E+03  0.00000000000E+00 0. -1.
         21   -1    0    0  501  503 -0.00000000000E+00 -0.00000000000E+00 -0.18946462024E+04  0.18946462024E+04  0.00000000000E+00 0. -1.
    9000007    1    1    2  501    0  0.12441608848E+03  0.14647218854E+03 -0.10369495053E+04  0.11279174357E+04  0.40000000000E+03 0. -1.
   -9000007    1    1    2    0  502 -0.12441608848E+03 -0.14647218854E+03 -0.75159638794E+03  0.87282907574E+03  0.40000000000E+03 0. -1.
<mgrwt>
<rscale>  2 0.44377186E+03</rscale>
<asrwt>0</asrwt>
<pdfrwt beam="1">  1       21 0.16323124E-01 0.44377186E+03</pdfrwt>
<pdfrwt beam="2">  1       21 0.29148403E+00 0.44377186E+03</pdfrwt>
<totfact> 0.10445169E+03</totfact>
</mgrwt>
</event>
<event>
 4    1  0.4656600E-002  0.4626841E+03  0.7818608E-02  0.1024006E+00
         21   -1    0    0  501  502  0.00000000000E+00  0.00000000000E+00  0.18990618827E+04  0.18990618827E+04  0.00000000000E+00 0.  1.
         21   -1    0    0  502  503 -0.00000000000E+00 -0.00000000000E+00 -0.33607185144E+03  0.33607185144E+03  0.00000000000E+00 0.  1.
    9000007    1    1    2  501    0  0.14000236548E+03 -0.18567679864E+03  0.16925506866E+04  0.17546522056E+04  0.40000000000E+03 0.  1.
   -9000007    1    1    2    0  503 -0.14000236548E+03  0.18567679864E+03 -0.12956065531E+03  0.48048152857E+03  0.40000000000E+03 0.  1.
<mgrwt>
<rscale>  2 0.46268406E+03</rscale>
<asrwt>0</asrwt>
<pdfrwt beam="1">  1       21 0.29216336E+00 0.46268406E+03</pdfrwt>
<pdfrwt beam="2">  1       21 0.51703363E-01 0.46268406E+03</pdfrwt>
<totfact> 0.10350137E+02</totfact>
</mgrwt>
</event>
<event>
 4    1  0.4656600E-002  0.4222464E+03  0.7818608E-02  0.1036338E+00
         21   -1    0    0  501  502  0.00000000000E+00  0.00000000000E+00  0.13046864448E+04  0.13046864448E+04  0.00000000000E+00 0.  1.
         21   -1    0    0  502  503 -0.00000000000E+00 -0.00000000000E+00 -0.14005161698E+03  0.14005161698E+03  0.00000000000E+00 0.  1.
    9000007    1    1    2  501    0  0.13200915566E+03  0.29420711237E+02  0.69481286123E+03  0.81305406189E+03  0.40000000000E+03 0.  1.
   -9000007    1    1    2    0  503 -0.13200915566E+03 -0.29420711237E+02  0.46982196660E+03  0.63168399990E+03  0.40000000000E+03 0.  1.
<mgrwt>
<rscale>  2 0.42224637E+03</rscale>
<asrwt>0</asrwt>
<pdfrwt beam="1">  1       21 0.20072098E+00 0.42224637E+03</pdfrwt>
<pdfrwt beam="2">  1       21 0.21546404E-01 0.42224637E+03</pdfrwt>
<totfact> 0.22871366E+03</totfact>
</mgrwt>
</event>
<event>
 4    1  0.4656600E-002  0.8113911E+03  0.7818608E-02  0.9543674E-01
         21   -1    0    0  503  502  0.00000000000E+00  0.00000000000E+00  0.79865606556E+03  0.79865606556E+03  0.00000000000E+00 0. -1.
         21   -1    0    0  501  503 -0.00000000000E+00 -0.00000000000E+00 -0.82444124841E+03  0.82444124841E+03  0.00000000000E+00 0.  1.
    9000007    1    1    2  501    0 -0.14567755024E+03 -0.69074851443E+03 -0.34285798564E+01  0.81139830786E+03  0.40000000000E+03 0. -1.
   -9000007    1    1    2    0  502  0.14567755024E+03  0.69074851443E+03 -0.22356602994E+02  0.81169900611E+03  0.40000000000E+03 0. -1.
<mgrwt>
<rscale>  2 0.81139106E+03</rscale>
<asrwt>0</asrwt>
<pdfrwt beam="1">  1       21 0.12287016E+00 0.81139106E+03</pdfrwt>
<pdfrwt beam="2">  1       21 0.12683711E+00 0.81139106E+03</pdfrwt>
<totfact> 0.16360291E+02</totfact>
</mgrwt>
</event>
<event>
 4    1  0.4656600E-002  0.4244632E+03  0.7818608E-02  0.1035623E+00
         21   -1    0    0  501  502  0.00000000000E+00  0.00000000000E+00  0.97540601357E+03  0.97540601357E+03  0.00000000000E+00 0. -1.
         21   -1    0    0  502  503 -0.00000000000E+00 -0.00000000000E+00 -0.47820893275E+03  0.47820893275E+03  0.00000000000E+00 0. -1.
    9000007    1    1    2  501    0  0.18626697712E+02  0.14079074112E+03  0.81799201268E+03  0.92156384448E+03  0.40000000000E+03 0. -1.
   -9000007    1    1    2    0  503 -0.18626697712E+02 -0.14079074112E+03 -0.32079493186E+03  0.53205110183E+03  0.40000000000E+03 0. -1.
<mgrwt>
<rscale>  2 0.42446317E+03</rscale>
<asrwt>0</asrwt>
<pdfrwt beam="1">  1       21 0.15006246E+00 0.42446317E+03</pdfrwt>
<pdfrwt beam="2">  1       21 0.73570605E-01 0.42446317E+03</pdfrwt>
<totfact> 0.41616805E+02</totfact>
</mgrwt>
</event>
<event>
 4    1  0.4656600E-002  0.5517462E+03  0.7818608E-02  0.1001091E+00
         21   -1    0    0  501  502  0.00000000000E+00  0.00000000000E+00  0.65790998688E+03  0.65790998688E+03  0.00000000000E+00 0. -1.
         21   -1    0    0  502  503 -0.00000000000E+00 -0.00000000000E+00 -0.81801930981E+03  0.81801930981E+03  0.00000000000E+00 0.  1.
    9000007    1    1    2  501    0 -0.35279482222E+02  0.37839033163E+03  0.40630201938E+03  0.68520450662E+03  0.40000000000E+03 0. -1.
   -9000007    1    1    2    0  503  0.35279482222E+02 -0.37839033163E+03 -0.56641134232E+03  0.79072479007E+03  0.40000000000E+03 0.  1.
<mgrwt>
<rscale>  2 0.55174621E+03</rscale>
<asrwt>0</asrwt>
<pdfrwt beam="1">  1       21 0.10121692E+00 0.55174621E+03</pdfrwt>
<pdfrwt beam="2">  1       21 0.12584912E+00 0.55174621E+03</pdfrwt>
<totfact> 0.29594551E+02</totfact>
</mgrwt>
</event>
<event>
 4    1  0.4656600E-002  0.4674976E+03  0.7818608E-02  0.1022629E+00
         21   -1    0    0  501  502  0.00000000000E+00  0.00000000000E+00  0.66698818316E+03  0.66698818316E+03  0.00000000000E+00 0. -1.
         21   -1    0    0  502  503 -0.00000000000E+00 -0.00000000000E+00 -0.65788267442E+03  0.65788267442E+03  0.00000000000E+00 0. -1.
    9000007    1    1    2  501    0 -0.23914538314E+03  0.36925650153E+02  0.47386752675E+03  0.66566091280E+03  0.40000000000E+03 0. -1.
   -9000007    1    1    2    0  503  0.23914538314E+03 -0.36925650153E+02 -0.46476201801E+03  0.65920994479E+03  0.40000000000E+03 0. -1.
<mgrwt>
<rscale>  2 0.46749761E+03</rscale>
<asrwt>0</asrwt>
<pdfrwt beam="1">  1       21 0.10261357E+00 0.46749761E+03</pdfrwt>
<pdfrwt beam="2">  1       21 0.10121272E+00 0.46749761E+03</pdfrwt>
<totfact> 0.51171649E+02</totfact>
</mgrwt>
</event>
<event>
 4    1  0.4656600E-002  0.4143654E+03  0.7818608E-02  0.1038916E+00
         21   -1    0    0  501  502  0.00000000000E+00  0.00000000000E+00  0.23344180488E+03  0.23344180488E+03  0.00000000000E+00 0.  1.
         21   -1    0    0  502  503 -0.00000000000E+00 -0.00000000000E+00 -0.12638210346E+04  0.12638210346E+04  0.00000000000E+00 0.  1.
    9000007    1    1    2  501    0  0.32229647403E+02  0.10324686979E+03 -0.31161815843E+02  0.41553546787E+03  0.40000000000E+03 0.  1.
   -9000007    1    1    2    0  503 -0.32229647403E+02 -0.10324686979E+03 -0.99921741384E+03  0.10817273716E+04  0.40000000000E+03 0.  1.
<mgrwt>
<rscale>  2 0.41436538E+03</rscale>
<asrwt>0</asrwt>
<pdfrwt beam="1">  1       21 0.35914123E-01 0.41436538E+03</pdfrwt>
<pdfrwt beam="2">  1       21 0.19443401E+00 0.41436538E+03</pdfrwt>
<totfact> 0.92545582E+02</totfact>
</mgrwt>
</event>
<event>
 4    1  0.4656600E-002  0.6849326E+03  0.7818608E-02  0.9743352E-01
         21   -1    0    0  503  502  0.00000000000E+00  0.00000000000E+00  0.11370786327E+04  0.11370786327E+04  0.00000000000E+00 0. -1.
         21   -1    0    0  501  503 -0.00000000000E+00 -0.00000000000E+00 -0.61234329109E+03  0.61234329109E+03  0.00000000000E+00 0.  1.
    9000007    1    1    2  501    0  0.31301703433E+03  0.45951390415E+03 -0.23723873527E+03  0.72485509545E+03  0.40000000000E+03 0.  1.
   -9000007    1    1    2    0  502 -0.31301703433E+03 -0.45951390415E+03  0.76197407689E+03  0.10245668283E+04  0.40000000000E+03 0. -1.
<mgrwt>
<rscale>  2 0.68493262E+03</rscale>
<asrwt>0</asrwt>
<pdfrwt beam="1">  1       21 0.17493517E+00 0.68493262E+03</pdfrwt>
<pdfrwt beam="2">  1       21 0.94206660E-01 0.68493262E+03</pdfrwt>
<totfact> 0.13605463E+02</totfact>
</mgrwt>
</event>
<event>
 4    1  0.4656600E-002  0.4765549E+03  0.7818608E-02  0.1020086E+00
         21   -1    0    0  503  502  0.00000000000E+00  0.00000000000E+00  0.15273316904E+04  0.15273316904E+04  0.00000000000E+00 0. -1.
         21   -1    0    0  501  503 -0.00000000000E+00 -0.00000000000E+00 -0.15778862759E+03  0.15778862759E+03  0.00000000000E+00 0. -1.
    9000007    1    1    2  501    0  0.11368291540E+03  0.23276771900E+03  0.48248710831E+03  0.67815811280E+03  0.40000000000E+03 0. -1.
   -9000007    1    1    2    0  502 -0.11368291540E+03 -0.23276771900E+03  0.88705595451E+03  0.10069622052E+04  0.40000000000E+03 0. -1.
<mgrwt>
<rscale>  2 0.47655495E+03</rscale>
<asrwt>0</asrwt>
<pdfrwt beam="1">  1       21 0.23497410E+00 0.47655495E+03</pdfrwt>
<pdfrwt beam="2">  1       21 0.24275175E-01 0.47655495E+03</pdfrwt>
<totfact> 0.10677818E+03</totfact>
</mgrwt>
</event>
<event>
 4    1  0.4656600E-002  0.4098515E+03  0.7818608E-02  0.1040421E+00
         21   -1    0    0  503  502  0.00000000000E+00  0.00000000000E+00  0.52288282074E+03  0.52288282074E+03  0.00000000000E+00 0.  1.
         21   -1    0    0  501  503 -0.00000000000E+00 -0.00000000000E+00 -0.36905928498E+03  0.36905928498E+03  0.00000000000E+00 0.  1.
    9000007    1    1    2  501    0  0.46256753467E+02  0.76410339050E+02 -0.83596091283E+02  0.41829001140E+03  0.40000000000E+03 0.  1.
   -9000007    1    1    2    0  502 -0.46256753467E+02 -0.76410339050E+02  0.23741962704E+03  0.47365209433E+03  0.40000000000E+03 0.  1.
<mgrwt>
<rscale>  2 0.40985147E+03</rscale>
<asrwt>0</asrwt>
<pdfrwt beam="1">  1       21 0.80443511E-01 0.40985147E+03</pdfrwt>
<pdfrwt beam="2">  1       21 0.56778351E-01 0.40985147E+03</pdfrwt>
<totfact> 0.35088532E+03</totfact>
</mgrwt>
</event>
<event>
 4    1  0.4656600E-002  0.4289588E+03  0.7818608E-02  0.1034189E+00
         21   -1    0    0  501  502  0.00000000000E+00  0.00000000000E+00  0.20895066707E+03  0.20895066707E+03  0.00000000000E+00 0.  1.
         21   -1    0    0  502  503 -0.00000000000E+00 -0.00000000000E+00 -0.88078654263E+03  0.88078654263E+03  0.00000000000E+00 0.  1.
    9000007    1    1    2  501    0  0.10492555155E+03 -0.11400130692E+03 -0.32837545408E+03  0.54021857446E+03  0.40000000000E+03 0.  1.
   -9000007    1    1    2    0  503 -0.10492555155E+03  0.11400130692E+03 -0.34346042148E+03  0.54951863524E+03  0.40000000000E+03 0.  1.
<mgrwt>
<rscale>  2 0.42895882E+03</rscale>
<asrwt>0</asrwt>
<pdfrwt beam="1">  1       21 0.32146256E-01 0.42895882E+03</pdfrwt>
<pdfrwt beam="2">  1       21 0.13550562E+00 0.42895882E+03</pdfrwt>
<totfact> 0.31616749E+03</totfact>
</mgrwt>
</event>
<event>
 4    1  0.4656600E-002  0.4563350E+03  0.7818608E-02  0.1025850E+00
         21   -1    0    0  503  502  0.00000000000E+00  0.00000000000E+00  0.16744536212E+03  0.16744536212E+03  0.00000000000E+00 0.  1.
         21   -1    0    0  501  503 -0.00000000000E+00 -0.00000000000E+00 -0.14694404244E+04  0.14694404244E+04  0.00000000000E+00 0.  1.
    9000007    1    1    2  501    0  0.10292195213E+03  0.19403268566E+03 -0.97182796943E+03  0.10736345810E+04  0.40000000000E+03 0.  1.
   -9000007    1    1    2    0  502 -0.10292195213E+03 -0.19403268566E+03 -0.33016709285E+03  0.56325120553E+03  0.40000000000E+03 0.  1.
<mgrwt>
<rscale>  2 0.45633498E+03</rscale>
<asrwt>0</asrwt>
<pdfrwt beam="1">  1       21 0.25760826E-01 0.45633498E+03</pdfrwt>
<pdfrwt beam="2">  1       21 0.22606775E+00 0.45633498E+03</pdfrwt>
<totfact> 0.10925218E+03</totfact>
</mgrwt>
</event>
<event>
 4    1  0.4656600E-002  0.4656088E+03  0.7818608E-02  0.1023167E+00
         21   -1    0    0  501  502  0.00000000000E+00  0.00000000000E+00  0.17616142351E+04  0.17616142351E+04  0.00000000000E+00 0.  1.
         21   -1    0    0  502  503 -0.00000000000E+00 -0.00000000000E+00 -0.16161922779E+03  0.16161922779E+03  0.00000000000E+00 0.  1.
    9000007    1    1    2  501    0  0.30844156416E+02 -0.23630523440E+03  0.12696713678E+04  0.13523523609E+04  0.40000000000E+03 0.  1.
   -9000007    1    1    2    0  503 -0.30844156416E+02  0.23630523440E+03  0.33032363948E+03  0.57088110197E+03  0.40000000000E+03 0.  1.
<mgrwt>
<rscale>  2 0.46560877E+03</rscale>
<asrwt>0</asrwt>
<pdfrwt beam="1">  1       21 0.27101756E+00 0.46560877E+03</pdfrwt>
<pdfrwt beam="2">  1       21 0.24864498E-01 0.46560877E+03</pdfrwt>
<totfact> 0.61523678E+02</totfact>
</mgrwt>
</event>
<event>
 4    1  0.4656600E-002  0.4806394E+03  0.7818608E-02  0.1018960E+00
         21   -1    0    0  501  502  0.00000000000E+00  0.00000000000E+00  0.10980140282E+04  0.10980140282E+04  0.00000000000E+00 0. -1.
         21   -1    0    0  502  503 -0.00000000000E+00 -0.00000000000E+00 -0.22699600075E+03  0.22699600075E+03  0.00000000000E+00 0. -1.
    9000007    1    1    2  501    0  0.25989381340E+03 -0.58902036193E+02  0.25633459800E+03  0.54472164474E+03  0.40000000000E+03 0. -1.
   -9000007    1    1    2    0  503 -0.25989381340E+03  0.58902036193E+02  0.61468342946E+03  0.78028838423E+03  0.40000000000E+03 0. -1.
<mgrwt>
<rscale>  2 0.48063941E+03</rscale>
<asrwt>0</asrwt>
<pdfrwt beam="1">  1       21 0.16892523E+00 0.48063941E+03</pdfrwt>
<pdfrwt beam="2">  1       21 0.34922462E-01 0.48063941E+03</pdfrwt>
<totfact> 0.14361182E+03</totfact>
</mgrwt>
</event>
<event>
 4    1  0.4656600E-002  0.4136175E+03  0.7818608E-02  0.1039164E+00
         21   -1    0    0  503  502  0.00000000000E+00  0.00000000000E+00  0.76801954311E+03  0.76801954311E+03  0.00000000000E+00 0. -1.
         21   -1    0    0  501  503 -0.00000000000E+00 -0.00000000000E+00 -0.29262297676E+03  0.29262297676E+03  0.00000000000E+00 0. -1.
    9000007    1    1    2  501    0  0.91141028002E+02  0.52656590082E+02 -0.21437331946E+02  0.41417262423E+03  0.40000000000E+03 0. -1.
   -9000007    1    1    2    0  502 -0.91141028002E+02 -0.52656590082E+02  0.49683389830E+03  0.64646989564E+03  0.40000000000E+03 0. -1.
<mgrwt>
<rscale>  2 0.41361746E+03</rscale>
<asrwt>0</asrwt>
<pdfrwt beam="1">  1       21 0.11815685E+00 0.41361746E+03</pdfrwt>
<pdfrwt beam="2">  1       21 0.45018920E-01 0.41361746E+03</pdfrwt>
<totfact> 0.22734841E+03</totfact>
</mgrwt>
</event>
<event>
 4    1  0.4656600E-002  0.4901468E+03  0.7818608E-02  0.1016383E+00
         21   -1    0    0  503  502  0.00000000000E+00  0.00000000000E+00  0.26858281423E+03  0.26858281423E+03  0.00000000000E+00 0. -1.
         21   -1    0    0  501  503 -0.00000000000E+00 -0.00000000000E+00 -0.96822016862E+03  0.96822016862E+03  0.00000000000E+00 0. -1.
    9000007    1    1    2  501    0 -0.26459246445E+03 -0.10116678426E+03 -0.52047182933E+03  0.71493693121E+03  0.40000000000E+03 0. -1.
   -9000007    1    1    2    0  502  0.26459246445E+03  0.10116678426E+03 -0.17916552506E+03  0.52186605164E+03  0.40000000000E+03 0. -1.
<mgrwt>
<rscale>  2 0.49014681E+03</rscale>
<asrwt>0</asrwt>
<pdfrwt beam="1">  1       21 0.41320433E-01 0.49014681E+03</pdfrwt>
<pdfrwt beam="2">  1       21 0.14895695E+00 0.49014681E+03</pdfrwt>
<totfact> 0.14384619E+03</totfact>
</mgrwt>
</event>
<event>
 4    1  0.4656600E-002  0.6382692E+03  0.7818608E-02  0.9829044E-01
         21   -1    0    0  503  502  0.00000000000E+00  0.00000000000E+00  0.15670970300E+04  0.15670970300E+04  0.00000000000E+00 0. -1.
         21   -1    0    0  501  503 -0.00000000000E+00 -0.00000000000E+00 -0.37518431734E+03  0.37518431734E+03  0.00000000000E+00 0.  1.
    9000007    1    1    2  501    0 -0.30206016826E+03  0.39515466452E+03  0.57778465795E+02  0.64087900984E+03  0.40000000000E+03 0.  1.
   -9000007    1    1    2    0  502  0.30206016826E+03 -0.39515466452E+03  0.11341342468E+04  0.13014023375E+04  0.40000000000E+03 0. -1.
<mgrwt>
<rscale>  2 0.63826919E+03</rscale>
<asrwt>0</asrwt>
<pdfrwt beam="1">  1       21 0.24109185E+00 0.63826919E+03</pdfrwt>
<pdfrwt beam="2">  1       21 0.57720665E-01 0.63826919E+03</pdfrwt>
<totfact> 0.15382137E+02</totfact>
</mgrwt>
</event>
<event>
 4    1  0.4656600E-002  0.4143775E+03  0.7818608E-02  0.1038912E+00
         21   -1    0    0  501  502  0.00000000000E+00  0.00000000000E+00  0.33918613532E+03  0.33918613532E+03  0.00000000000E+00 0.  1.
         21   -1    0    0  502  503 -0.00000000000E+00 -0.00000000000E+00 -0.13880686658E+04  0.13880686658E+04  0.00000000000E+00 0.  1.
    9000007    1    1    2  501    0  0.55079099032E+02 -0.93139603783E+02  0.16391567334E+03  0.44561983900E+03  0.40000000000E+03 0.  1.
   -9000007    1    1    2    0  503 -0.55079099032E+02  0.93139603783E+02 -0.12127982039E+04  0.12816349622E+04  0.40000000000E+03 0.  1.
<mgrwt>
<rscale>  2 0.41437748E+03</rscale>
<asrwt>0</asrwt>
<pdfrwt beam="1">  1       21 0.52182483E-01 0.41437748E+03</pdfrwt>
<pdfrwt beam="2">  1       21 0.21354902E+00 0.41437748E+03</pdfrwt>
<totfact> 0.31833392E+02</totfact>
</mgrwt>
</event>
<event>
 4    1  0.4656600E-002  0.4267087E+03  0.7818608E-02  0.1034905E+00
         21   -1    0    0  501  502  0.00000000000E+00  0.00000000000E+00  0.95127106697E+03  0.95127106697E+03  0.00000000000E+00 0.  1.
         21   -1    0    0  502  503 -0.00000000000E+00 -0.00000000000E+00 -0.32754229935E+03  0.32754229935E+03  0.00000000000E+00 0. -1.
    9000007    1    1    2  501    0  0.11245003997E+03  0.97135649447E+02  0.72408354114E+03  0.84046256337E+03  0.40000000000E+03 0.  1.
   -9000007    1    1    2    0  503 -0.11245003997E+03 -0.97135649447E+02 -0.10035477351E+03  0.43835080295E+03  0.40000000000E+03 0. -1.
<mgrwt>
<rscale>  2 0.42670874E+03</rscale>
<asrwt>0</asrwt>
<pdfrwt beam="1">  1       21 0.14634939E+00 0.42670874E+03</pdfrwt>
<pdfrwt beam="2">  1       21 0.50391123E-01 0.42670874E+03</pdfrwt>
<totfact> 0.10209783E+03</totfact>
</mgrwt>
</event>
<event>
 4    1  0.4656600E-002  0.4784115E+03  0.7818608E-02  0.1019573E+00
         21   -1    0    0  501  502  0.00000000000E+00  0.00000000000E+00  0.13280902116E+04  0.13280902116E+04  0.00000000000E+00 0.  1.
         21   -1    0    0  502  503 -0.00000000000E+00 -0.00000000000E+00 -0.21670461606E+03  0.21670461606E+03  0.00000000000E+00 0.  1.
    9000007    1    1    2  501    0  0.12026417417E+03  0.23326837259E+03  0.90519122188E+03  0.10238401992E+04  0.40000000000E+03 0.  1.
   -9000007    1    1    2    0  503 -0.12026417417E+03 -0.23326837259E+03  0.20619437368E+03  0.52095462852E+03  0.40000000000E+03 0.  1.
<mgrwt>
<rscale>  2 0.47841154E+03</rscale>
<asrwt>0</asrwt>
<pdfrwt beam="1">  1       21 0.20432157E+00 0.47841154E+03</pdfrwt>
<pdfrwt beam="2">  1       21 0.33339172E-01 0.47841154E+03</pdfrwt>
<totfact> 0.89656372E+02</totfact>
</mgrwt>
</event>
<event>
 4    1  0.4656600E-002  0.4166478E+03  0.7818608E-02  0.1038163E+00
         21   -1    0    0  501  502  0.00000000000E+00  0.00000000000E+00  0.39917017300E+03  0.39917017300E+03  0.00000000000E+00 0.  1.
         21   -1    0    0  502  503 -0.00000000000E+00 -0.00000000000E+00 -0.10642776084E+04  0.10642776084E+04  0.00000000000E+00 0.  1.
    9000007    1    1    2  501    0  0.11015589828E+03 -0.38223654126E+02  0.23014852710E+03  0.47598709456E+03  0.40000000000E+03 0.  1.
   -9000007    1    1    2    0  503 -0.11015589828E+03  0.38223654126E+02 -0.89525596252E+03  0.98746068686E+03  0.40000000000E+03 0.  1.
<mgrwt>
<rscale>  2 0.41664778E+03</rscale>
<asrwt>0</asrwt>
<pdfrwt beam="1">  1       21 0.61410797E-01 0.41664778E+03</pdfrwt>
<pdfrwt beam="2">  1       21 0.16373501E+00 0.41664778E+03</pdfrwt>
<totfact> 0.49176960E+02</totfact>
</mgrwt>
</event>
<event>
 4    1  0.4656600E-002  0.4136895E+03  0.7818608E-02  0.1039140E+00
         21   -1    0    0  503  502  0.00000000000E+00  0.00000000000E+00  0.55715396134E+03  0.55715396134E+03  0.00000000000E+00 0. -1.
         21   -1    0    0  501  503 -0.00000000000E+00 -0.00000000000E+00 -0.30845487075E+03  0.30845487075E+03  0.00000000000E+00 0. -1.
    9000007    1    1    2  501    0  0.54104072151E+02  0.90618800577E+02  0.96377725649E+02  0.42476779968E+03  0.40000000000E+03 0. -1.
   -9000007    1    1    2    0  502 -0.54104072151E+02 -0.90618800577E+02  0.15232136494E+03  0.44084103241E+03  0.40000000000E+03 0. -1.
<mgrwt>
<rscale>  2 0.41368952E+03</rscale>
<asrwt>0</asrwt>
<pdfrwt beam="1">  1       21 0.85715994E-01 0.41368952E+03</pdfrwt>
<pdfrwt beam="2">  1       21 0.47454596E-01 0.41368952E+03</pdfrwt>
<totfact> 0.44346370E+03</totfact>
</mgrwt>
</event>
<event>
 4    1  0.4656600E-002  0.4213192E+03  0.7818608E-02  0.1036638E+00
         21   -1    0    0  501  502  0.00000000000E+00  0.00000000000E+00  0.12238777728E+04  0.12238777728E+04  0.00000000000E+00 0. -1.
         21   -1    0    0  502  503 -0.00000000000E+00 -0.00000000000E+00 -0.22573564530E+03  0.22573564530E+03  0.00000000000E+00 0. -1.
    9000007    1    1    2  501    0 -0.81481492185E+02 -0.10426222696E+03  0.93243246964E+03  0.10232009363E+04  0.40000000000E+03 0. -1.
   -9000007    1    1    2    0  503  0.81481492185E+02  0.10426222696E+03  0.65709657881E+02  0.42641248185E+03  0.40000000000E+03 0. -1.
<mgrwt>
<rscale>  2 0.42131917E+03</rscale>
<asrwt>0</asrwt>
<pdfrwt beam="1">  1       21 0.18828888E+00 0.42131917E+03</pdfrwt>
<pdfrwt beam="2">  1       21 0.34728562E-01 0.42131917E+03</pdfrwt>
<totfact> 0.10867953E+03</totfact>
</mgrwt>
</event>
<event>
 4    1  0.4656600E-002  0.4587729E+03  0.7818608E-02  0.1025138E+00
         21   -1    0    0  501  502  0.00000000000E+00  0.00000000000E+00  0.32500852937E+03  0.32500852937E+03  0.00000000000E+00 0. -1.
         21   -1    0    0  502  503 -0.00000000000E+00 -0.00000000000E+00 -0.90879623546E+03  0.90879623546E+03  0.00000000000E+00 0. -1.
    9000007    1    1    2  501    0  0.22377253999E+03  0.19961542243E+02  0.38836527022E+02  0.46041382327E+03  0.40000000000E+03 0. -1.
   -9000007    1    1    2    0  503 -0.22377253999E+03 -0.19961542243E+02 -0.62262423311E+03  0.77339094156E+03  0.40000000000E+03 0. -1.
<mgrwt>
<rscale>  2 0.45877294E+03</rscale>
<asrwt>0</asrwt>
<pdfrwt beam="1">  1       21 0.50001314E-01 0.45877294E+03</pdfrwt>
<pdfrwt beam="2">  1       21 0.13981480E+00 0.45877294E+03</pdfrwt>
<totfact> 0.11569798E+03</totfact>
</mgrwt>
</event>
<event>
 4    1  0.4656600E-002  0.5242368E+03  0.7818608E-02  0.1007639E+00
         21   -1    0    0  501  502  0.00000000000E+00  0.00000000000E+00  0.39343573367E+03  0.39343573367E+03  0.00000000000E+00 0.  1.
         21   -1    0    0  502  503 -0.00000000000E+00 -0.00000000000E+00 -0.11497847863E+04  0.11497847863E+04  0.00000000000E+00 0. -1.
    9000007    1    1    2  501    0  0.18578302132E+03  0.28338831771E+03  0.10522203073E+03  0.53469238388E+03  0.40000000000E+03 0.  1.
   -9000007    1    1    2    0  503 -0.18578302132E+03 -0.28338831771E+03 -0.86157108337E+03  0.10085281361E+04  0.40000000000E+03 0. -1.
<mgrwt>
<rscale>  2 0.52423684E+03</rscale>
<asrwt>0</asrwt>
<pdfrwt beam="1">  1       21 0.60528575E-01 0.52423684E+03</pdfrwt>
<pdfrwt beam="2">  1       21 0.17688996E+00 0.52423684E+03</pdfrwt>
<totfact> 0.38751126E+02</totfact>
</mgrwt>
</event>
<event>
 4    1  0.4656600E-002  0.4867421E+03  0.7818608E-02  0.1017299E+00
         21   -1    0    0  503  502  0.00000000000E+00  0.00000000000E+00  0.68027929152E+03  0.68027929152E+03  0.00000000000E+00 0.  1.
         21   -1    0    0  501  503 -0.00000000000E+00 -0.00000000000E+00 -0.92713215405E+03  0.92713215405E+03  0.00000000000E+00 0.  1.
    9000007    1    1    2  501    0 -0.35054844605E+02  0.27511642114E+03 -0.75848745835E+03  0.90123310624E+03  0.40000000000E+03 0.  1.
   -9000007    1    1    2    0  502  0.35054844605E+02 -0.27511642114E+03  0.51163459581E+03  0.70617833933E+03  0.40000000000E+03 0.  1.
<mgrwt>
<rscale>  2 0.48674212E+03</rscale>
<asrwt>0</asrwt>
<pdfrwt beam="1">  1       21 0.10465835E+00 0.48674212E+03</pdfrwt>
<pdfrwt beam="2">  1       21 0.14263572E+00 0.48674212E+03</pdfrwt>
<totfact> 0.20152898E+02</totfact>
</mgrwt>
</event>
<event>
 4    1  0.4656600E-002  0.4962080E+03  0.7818608E-02  0.1014773E+00
         21   -1    0    0  501  502  0.00000000000E+00  0.00000000000E+00  0.43102639781E+03  0.43102639781E+03  0.00000000000E+00 0.  1.
         21   -1    0    0  502  503 -0.00000000000E+00 -0.00000000000E+00 -0.11313129280E+04  0.11313129280E+04  0.00000000000E+00 0. -1.
    9000007    1    1    2  501    0  0.23811890107E+03  0.17181886636E+03  0.19949094080E+03  0.53480741332E+03  0.40000000000E+03 0.  1.
   -9000007    1    1    2    0  503 -0.23811890107E+03 -0.17181886636E+03 -0.89977747097E+03  0.10275319125E+04  0.40000000000E+03 0. -1.
<mgrwt>
<rscale>  2 0.49620795E+03</rscale>
<asrwt>0</asrwt>
<pdfrwt beam="1">  1       21 0.66311753E-01 0.49620795E+03</pdfrwt>
<pdfrwt beam="2">  1       21 0.17404814E+00 0.49620795E+03</pdfrwt>
<totfact> 0.33571125E+02</totfact>
</mgrwt>
</event>
<event>
 4    1  0.4656600E-002  0.4815147E+03  0.7818608E-02  0.1018720E+00
         21   -1    0    0  501  502  0.00000000000E+00  0.00000000000E+00  0.57718556545E+03  0.57718556545E+03  0.00000000000E+00 0. -1.
         21   -1    0    0  502  503 -0.00000000000E+00 -0.00000000000E+00 -0.58699791042E+03  0.58699791042E+03  0.00000000000E+00 0.  1.
    9000007    1    1    2  501    0  0.26782919705E+03  0.11132695953E+02  0.32213801935E+03  0.57933523907E+03  0.40000000000E+03 0. -1.
   -9000007    1    1    2    0  503 -0.26782919705E+03 -0.11132695953E+02 -0.33195036432E+03  0.58484823680E+03  0.40000000000E+03 0.  1.
<mgrwt>
<rscale>  2 0.48151471E+03</rscale>
<asrwt>0</asrwt>
<pdfrwt beam="1">  1       21 0.88797779E-01 0.48151471E+03</pdfrwt>
<pdfrwt beam="2">  1       21 0.90307371E-01 0.48151471E+03</pdfrwt>
<totfact> 0.94766078E+02</totfact>
</mgrwt>
</event>
<event>
 4    1  0.4656600E-002  0.4476964E+03  0.7818608E-02  0.1028411E+00
         21   -1    0    0  503  502  0.00000000000E+00  0.00000000000E+00  0.47295853297E+03  0.47295853297E+03  0.00000000000E+00 0. -1.
         21   -1    0    0  501  503 -0.00000000000E+00 -0.00000000000E+00 -0.43077678259E+03  0.43077678259E+03  0.00000000000E+00 0. -1.
    9000007    1    1    2  501    0  0.20102628696E+03  0.45265794155E+01 -0.36482716191E+02  0.44918041648E+03  0.40000000000E+03 0. -1.
   -9000007    1    1    2    0  502 -0.20102628696E+03 -0.45265794155E+01  0.78664466570E+02  0.45455489907E+03  0.40000000000E+03 0. -1.
<mgrwt>
<rscale>  2 0.44769639E+03</rscale>
<asrwt>0</asrwt>
<pdfrwt beam="1">  1       21 0.72762852E-01 0.44769639E+03</pdfrwt>
<pdfrwt beam="2">  1       21 0.66273351E-01 0.44769639E+03</pdfrwt>
<totfact> 0.30991860E+03</totfact>
</mgrwt>
</event>
<event>
 4    1  0.4656600E-002  0.5898226E+03  0.7818608E-02  0.9926749E-01
         21   -1    0    0  503  502  0.00000000000E+00  0.00000000000E+00  0.18305941468E+03  0.18305941468E+03  0.00000000000E+00 0.  1.
         21   -1    0    0  501  503 -0.00000000000E+00 -0.00000000000E+00 -0.23590101881E+04  0.23590101881E+04  0.00000000000E+00 0. -1.
    9000007    1    1    2  501    0  0.16659038179E+03 -0.40017285310E+03 -0.52756961664E+03  0.79134086718E+03  0.40000000000E+03 0.  1.
   -9000007    1    1    2    0  502 -0.16659038179E+03  0.40017285310E+03 -0.16483811568E+04  0.17507287356E+04  0.40000000000E+03 0. -1.
<mgrwt>
<rscale>  2 0.58982257E+03</rscale>
<asrwt>0</asrwt>
<pdfrwt beam="1">  1       21 0.28162987E-01 0.58982257E+03</pdfrwt>
<pdfrwt beam="2">  1       21 0.36292464E+00 0.58982257E+03</pdfrwt>
<totfact> 0.12426759E+02</totfact>
</mgrwt>
</event>
<event>
 4    1  0.4656600E-002  0.4112423E+03  0.7818608E-02  0.1039955E+00
         21   -1    0    0  503  502  0.00000000000E+00  0.00000000000E+00  0.68864759977E+03  0.68864759977E+03  0.00000000000E+00 0.  1.
         21   -1    0    0  501  503 -0.00000000000E+00 -0.00000000000E+00 -0.28104599879E+03  0.28104599879E+03  0.00000000000E+00 0.  1.
    9000007    1    1    2  501    0  0.65074079977E+02 -0.69896877616E+02  0.31573112206E+02  0.41245250733E+03  0.40000000000E+03 0.  1.
   -9000007    1    1    2    0  502 -0.65074079977E+02  0.69896877616E+02  0.37602848878E+03  0.55724109123E+03  0.40000000000E+03 0.  1.
<mgrwt>
<rscale>  2 0.41124228E+03</rscale>
<asrwt>0</asrwt>
<pdfrwt beam="1">  1       21 0.10594578E+00 0.41124228E+03</pdfrwt>
<pdfrwt beam="2">  1       21 0.43237846E-01 0.41124228E+03</pdfrwt>
<totfact> 0.32455563E+03</totfact>
</mgrwt>
</event>
<event>
 4    1  0.4656600E-002  0.4079873E+03  0.7818608E-02  0.1041049E+00
         21   -1    0    0  501  502  0.00000000000E+00  0.00000000000E+00  0.23153842953E+03  0.23153842953E+03  0.00000000000E+00 0.  1.
         21   -1    0    0  502  503 -0.00000000000E+00 -0.00000000000E+00 -0.75549424961E+03  0.75549424961E+03  0.00000000000E+00 0.  1.
    9000007    1    1    2  501    0 -0.20658285445E+01 -0.80307833583E+02 -0.15336636151E+03  0.43586105197E+03  0.40000000000E+03 0.  1.
   -9000007    1    1    2    0  503  0.20658285445E+01  0.80307833583E+02 -0.37058945857E+03  0.55117162716E+03  0.40000000000E+03 0.  1.
<mgrwt>
<rscale>  2 0.40798727E+03</rscale>
<asrwt>0</asrwt>
<pdfrwt beam="1">  1       21 0.35621297E-01 0.40798727E+03</pdfrwt>
<pdfrwt beam="2">  1       21 0.11622988E+00 0.40798727E+03</pdfrwt>
<totfact> 0.38431462E+03</totfact>
</mgrwt>
</event>
<event>
 4    1  0.4656600E-002  0.5634256E+03  0.7818608E-02  0.9984333E-01
         21   -1    0    0  501  502  0.00000000000E+00  0.00000000000E+00  0.96095067001E+03  0.96095067001E+03  0.00000000000E+00 0. -1.
         21   -1    0    0  502  503 -0.00000000000E+00 -0.00000000000E+00 -0.58555996837E+03  0.58555996837E+03  0.00000000000E+00 0.  1.
    9000007    1    1    2  501    0 -0.48509202641E+02  0.39382136472E+03  0.69818565651E+03  0.89716866920E+03  0.40000000000E+03 0. -1.
   -9000007    1    1    2    0  503  0.48509202641E+02 -0.39382136472E+03 -0.32279495487E+03  0.64934196918E+03  0.40000000000E+03 0.  1.
<mgrwt>
<rscale>  2 0.56342560E+03</rscale>
<asrwt>0</asrwt>
<pdfrwt beam="1">  1       21 0.14783856E+00 0.56342560E+03</pdfrwt>
<pdfrwt beam="2">  1       21 0.90086149E-01 0.56342560E+03</pdfrwt>
<totfact> 0.25456340E+02</totfact>
</mgrwt>
</event>
<event>
 4    1  0.4656600E-002  0.4920465E+03  0.7818608E-02  0.1015876E+00
         21   -1    0    0  503  502  0.00000000000E+00  0.00000000000E+00  0.18223266127E+04  0.18223266127E+04  0.00000000000E+00 0. -1.
         21   -1    0    0  501  503 -0.00000000000E+00 -0.00000000000E+00 -0.14393019442E+03  0.14393019442E+03  0.00000000000E+00 0. -1.
    9000007    1    1    2  501    0  0.13471848128E+03  0.25290442519E+03  0.56651312654E+03  0.75036447146E+03  0.40000000000E+03 0.  1.
   -9000007    1    1    2    0  502 -0.13471848128E+03 -0.25290442519E+03  0.11118832917E+04  0.12158923357E+04  0.40000000000E+03 0.  1.
<mgrwt>
<rscale>  2 0.49204646E+03</rscale>
<asrwt>0</asrwt>
<pdfrwt beam="1">  1       21 0.28035792E+00 0.49204646E+03</pdfrwt>
<pdfrwt beam="2">  1       21 0.22143108E-01 0.49204646E+03</pdfrwt>
<totfact> 0.66688912E+02</totfact>
</mgrwt>
</event>
<event>
 4    1  0.4656600E-002  0.4613320E+03  0.7818608E-02  0.1024396E+00
         21   -1    0    0  503  502  0.00000000000E+00  0.00000000000E+00  0.44875520209E+03  0.44875520209E+03  0.00000000000E+00 0.  1.
         21   -1    0    0  501  503 -0.00000000000E+00 -0.00000000000E+00 -0.80841910132E+03  0.80841910132E+03  0.00000000000E+00 0.  1.
    9000007    1    1    2  501    0  0.19100505857E+03 -0.12784461829E+03 -0.58396380671E+03  0.74420488198E+03  0.40000000000E+03 0.  1.
   -9000007    1    1    2    0  502 -0.19100505857E+03  0.12784461829E+03  0.22429990747E+03  0.51296942142E+03  0.40000000000E+03 0.  1.
<mgrwt>
<rscale>  2 0.46133196E+03</rscale>
<asrwt>0</asrwt>
<pdfrwt beam="1">  1       21 0.69039262E-01 0.46133196E+03</pdfrwt>
<pdfrwt beam="2">  1       21 0.12437217E+00 0.46133196E+03</pdfrwt>
<totfact> 0.77491480E+02</totfact>
</mgrwt>
</event>
<event>
 4    1  0.4656600E-002  0.4437994E+03  0.7818608E-02  0.1029587E+00
         21   -1    0    0  503  502  0.00000000000E+00  0.00000000000E+00  0.10654574682E+03  0.10654574682E+03  0.00000000000E+00 0.  1.
         21   -1    0    0  501  503 -0.00000000000E+00 -0.00000000000E+00 -0.28952747434E+04  0.28952747434E+04  0.00000000000E+00 0.  1.
    9000007    1    1    2  501    0  0.10724042864E+03  0.15955368463E+03 -0.22968094642E+04  0.23392929707E+04  0.40000000000E+03 0.  1.
   -9000007    1    1    2    0  502 -0.10724042864E+03 -0.15955368463E+03 -0.49191953236E+03  0.66252751953E+03  0.40000000000E+03 0.  1.
<mgrwt>
<rscale>  2 0.44379938E+03</rscale>
<asrwt>0</asrwt>
<pdfrwt beam="1">  1       21 0.16391652E-01 0.44379938E+03</pdfrwt>
<pdfrwt beam="2">  1       21 0.44542691E+00 0.44379938E+03</pdfrwt>
<totfact> 0.11221602E+02</totfact>
</mgrwt>
</event>
<event>
 4    1  0.4656600E-002  0.4438372E+03  0.7818608E-02  0.1029576E+00
         21   -1    0    0  503  502  0.00000000000E+00  0.00000000000E+00  0.32280584339E+03  0.32280584339E+03  0.00000000000E+00 0. -1.
         21   -1    0    0  501  503 -0.00000000000E+00 -0.00000000000E+00 -0.75466046574E+03  0.75466046574E+03  0.00000000000E+00 0. -1.
    9000007    1    1    2  501    0 -0.19084044925E+03 -0.23903867221E+02 -0.45159548515E+03  0.63319029852E+03  0.40000000000E+03 0. -1.
   -9000007    1    1    2    0  502  0.19084044925E+03  0.23903867221E+02  0.19740862805E+02  0.44427601061E+03  0.40000000000E+03 0. -1.
<mgrwt>
<rscale>  2 0.44383721E+03</rscale>
<asrwt>0</asrwt>
<pdfrwt beam="1">  1       21 0.49662437E-01 0.44383721E+03</pdfrwt>
<pdfrwt beam="2">  1       21 0.11610161E+00 0.44383721E+03</pdfrwt>
<totfact> 0.19085835E+03</totfact>
</mgrwt>
</event>
<event>
 4    1  0.4656600E-002  0.4353603E+03  0.7818608E-02  0.1032180E+00
         21   -1    0    0  503  502  0.00000000000E+00  0.00000000000E+00  0.22756920910E+03  0.22756920910E+03  0.00000000000E+00 0.  1.
         21   -1    0    0  501  503 -0.00000000000E+00 -0.00000000000E+00 -0.92334167362E+03  0.92334167362E+03  0.00000000000E+00 0.  1.
    9000007    1    1    2  501    0  0.12252671344E+03  0.12052288204E+03 -0.52800344623E+03  0.68434362701E+03  0.40000000000E+03 0.  1.
   -9000007    1    1    2    0  502 -0.12252671344E+03 -0.12052288204E+03 -0.16776901830E+03  0.46656725571E+03  0.40000000000E+03 0.  1.
<mgrwt>
<rscale>  2 0.43536027E+03</rscale>
<asrwt>0</asrwt>
<pdfrwt beam="1">  1       21 0.35010647E-01 0.43536027E+03</pdfrwt>
<pdfrwt beam="2">  1       21 0.14205257E+00 0.43536027E+03</pdfrwt>
<totfact> 0.23441636E+03</totfact>
</mgrwt>
</event>
<event>
 4    1  0.4656600E-002  0.4845483E+03  0.7818608E-02  0.1017893E+00
         21   -1    0    0  501  502  0.00000000000E+00  0.00000000000E+00  0.27700191235E+03  0.27700191235E+03  0.00000000000E+00 0.  1.
         21   -1    0    0  502  503 -0.00000000000E+00 -0.00000000000E+00 -0.84885851701E+03  0.84885851701E+03  0.00000000000E+00 0.  1.
    9000007    1    1    2  501    0 -0.61168517765E+02 -0.26654349077E+03 -0.30759747726E+03  0.57393660630E+03  0.40000000000E+03 0.  1.
   -9000007    1    1    2    0  503  0.61168517765E+02  0.26654349077E+03 -0.26425912740E+03  0.55192382305E+03  0.40000000000E+03 0.  1.
<mgrwt>
<rscale>  2 0.48454826E+03</rscale>
<asrwt>0</asrwt>
<pdfrwt beam="1">  1       21 0.42615679E-01 0.48454826E+03</pdfrwt>
<pdfrwt beam="2">  1       21 0.13059362E+00 0.48454826E+03</pdfrwt>
<totfact> 0.19185978E+03</totfact>
</mgrwt>
</event>
<event>
 4    1  0.4656600E-002  0.4722664E+03  0.7818608E-02  0.1021282E+00
         21   -1    0    0  501  502  0.00000000000E+00  0.00000000000E+00  0.66924962982E+03  0.66924962982E+03  0.00000000000E+00 0.  1.
         21   -1    0    0  502  503 -0.00000000000E+00 -0.00000000000E+00 -0.38785729111E+03  0.38785729111E+03  0.00000000000E+00 0.  1.
    9000007    1    1    2  501    0 -0.14389728013E+03  0.20574042128E+03  0.33899952794E+03  0.58134002797E+03  0.40000000000E+03 0.  1.
   -9000007    1    1    2    0  503  0.14389728013E+03 -0.20574042128E+03 -0.57607189234E+02  0.47576689295E+03  0.40000000000E+03 0.  1.
<mgrwt>
<rscale>  2 0.47226640E+03</rscale>
<asrwt>0</asrwt>
<pdfrwt beam="1">  1       21 0.10296148E+00 0.47226640E+03</pdfrwt>
<pdfrwt beam="2">  1       21 0.59670353E-01 0.47226640E+03</pdfrwt>
<totfact> 0.17116744E+03</totfact>
</mgrwt>
</event>
<event>
 4    1  0.4656600E-002  0.5777107E+03  0.7818608E-02  0.9952760E-01
         21   -1    0    0  501  502  0.00000000000E+00  0.00000000000E+00  0.64362783480E+03  0.64362783480E+03  0.00000000000E+00 0. -1.
         21   -1    0    0  502  503 -0.00000000000E+00 -0.00000000000E+00 -0.71448948643E+03  0.71448948643E+03  0.00000000000E+00 0.  1.
    9000007    1    1    2  501    0  0.20932280422E+03 -0.36046313447E+03  0.32018116035E+03  0.66050411287E+03  0.40000000000E+03 0.  1.
   -9000007    1    1    2    0  503 -0.20932280422E+03  0.36046313447E+03 -0.39104281198E+03  0.69761320836E+03  0.40000000000E+03 0. -1.
<mgrwt>
<rscale>  2 0.57771075E+03</rscale>
<asrwt>0</asrwt>
<pdfrwt beam="1">  1       21 0.99019667E-01 0.57771075E+03</pdfrwt>
<pdfrwt beam="2">  1       21 0.10992146E+00 0.57771075E+03</pdfrwt>
<totfact> 0.43618806E+02</totfact>
</mgrwt>
</event>
<event>
 4    1  0.4656600E-002  0.4163098E+03  0.7818608E-02  0.1038274E+00
         21   -1    0    0  503  502  0.00000000000E+00  0.00000000000E+00  0.19546295759E+04  0.19546295759E+04  0.00000000000E+00 0. -1.
         21   -1    0    0  501  503 -0.00000000000E+00 -0.00000000000E+00 -0.90971173079E+02  0.90971173079E+02  0.00000000000E+00 0. -1.
    9000007    1    1    2  501    0 -0.82067214897E+02 -0.81109872742E+02  0.76909966784E+03  0.87454453190E+03  0.40000000000E+03 0. -1.
   -9000007    1    1    2    0  502  0.82067214897E+02  0.81109872742E+02  0.10945587350E+04  0.11710562171E+04  0.40000000000E+03 0. -1.
<mgrwt>
<rscale>  2 0.41630979E+03</rscale>
<asrwt>0</asrwt>
<pdfrwt beam="1">  1       21 0.30071221E+00 0.41630979E+03</pdfrwt>
<pdfrwt beam="2">  1       21 0.13995567E-01 0.41630979E+03</pdfrwt>
<totfact> 0.12417128E+03</totfact>
</mgrwt>
</event>
<event>
 4    1  0.4656600E-002  0.4221372E+03  0.7818608E-02  0.1036373E+00
         21   -1    0    0  503  502  0.00000000000E+00  0.00000000000E+00  0.13540288432E+04  0.13540288432E+04  0.00000000000E+00 0.  1.
         21   -1    0    0  501  503 -0.00000000000E+00 -0.00000000000E+00 -0.15973673505E+03  0.15973673505E+03  0.00000000000E+00 0.  1.
    9000007    1    1    2  501    0  0.19903826343E+02  0.13343020410E+03  0.27952562001E+03  0.50629473028E+03  0.40000000000E+03 0.  1.
   -9000007    1    1    2    0  502 -0.19903826343E+02 -0.13343020410E+03  0.91476648813E+03  0.10074708480E+04  0.40000000000E+03 0.  1.
<mgrwt>
<rscale>  2 0.42213716E+03</rscale>
<asrwt>0</asrwt>
<pdfrwt beam="1">  1       21 0.20831212E+00 0.42213716E+03</pdfrwt>
<pdfrwt beam="2">  1       21 0.24574883E-01 0.42213716E+03</pdfrwt>
<totfact> 0.15823683E+03</totfact>
</mgrwt>
</event>
<event>
 4    1  0.4656600E-002  0.4666385E+03  0.7818608E-02  0.1022873E+00
         21   -1    0    0  503  502  0.00000000000E+00  0.00000000000E+00  0.11923957003E+04  0.11923957003E+04  0.00000000000E+00 0. -1.
         21   -1    0    0  501  503 -0.00000000000E+00 -0.00000000000E+00 -0.19144467408E+03  0.19144467408E+03  0.00000000000E+00 0. -1.
    9000007    1    1    2  501    0 -0.18685321468E+03  0.15112034252E+03  0.64905625840E+03  0.79939071068E+03  0.40000000000E+03 0. -1.
   -9000007    1    1    2    0  502  0.18685321468E+03 -0.15112034252E+03  0.35189476781E+03  0.58444966368E+03  0.40000000000E+03 0. -1.
<mgrwt>
<rscale>  2 0.46663849E+03</rscale>
<asrwt>0</asrwt>
<pdfrwt beam="1">  1       21 0.18344549E+00 0.46663849E+03</pdfrwt>
<pdfrwt beam="2">  1       21 0.29453028E-01 0.46663849E+03</pdfrwt>
<totfact> 0.16000811E+03</totfact>
</mgrwt>
</event>
<event>
 4    1  0.4656600E-002  0.4551125E+03  0.7818608E-02  0.1026208E+00
         21   -1    0    0  503  502  0.00000000000E+00  0.00000000000E+00  0.37359765314E+03  0.37359765314E+03  0.00000000000E+00 0. -1.
         21   -1    0    0  501  503 -0.00000000000E+00 -0.00000000000E+00 -0.55441306873E+03  0.55441306873E+03  0.00000000000E+00 0. -1.
    9000007    1    1    2  501    0  0.12239302895E+02 -0.21674304763E+03 -0.90681504295E+02  0.46405870798E+03  0.40000000000E+03 0. -1.
   -9000007    1    1    2    0  502 -0.12239302895E+02  0.21674304763E+03 -0.90133911294E+02  0.46395201389E+03  0.40000000000E+03 0. -1.
<mgrwt>
<rscale>  2 0.45511246E+03</rscale>
<asrwt>0</asrwt>
<pdfrwt beam="1">  1       21 0.57476563E-01 0.45511246E+03</pdfrwt>
<pdfrwt beam="2">  1       21 0.85294318E-01 0.45511246E+03</pdfrwt>
<totfact> 0.29332908E+03</totfact>
</mgrwt>
</event>
<event>
 4    1  0.4656600E-002  0.4043551E+03  0.7818608E-02  0.1042282E+00
         21   -1    0    0  501  502  0.00000000000E+00  0.00000000000E+00  0.38069358689E+03  0.38069358689E+03  0.00000000000E+00 0.  1.
         21   -1    0    0  502  503 -0.00000000000E+00 -0.00000000000E+00 -0.55555055595E+03  0.55555055595E+03  0.00000000000E+00 0.  1.
    9000007    1    1    2  501    0  0.42259640362E+02 -0.41438623073E+02  0.13556475342E+03  0.42647489851E+03  0.40000000000E+03 0.  1.
   -9000007    1    1    2    0  503 -0.42259640362E+02  0.41438623073E+02 -0.31042172248E+03  0.50976924434E+03  0.40000000000E+03 0.  1.
<mgrwt>
<rscale>  2 0.40435509E+03</rscale>
<asrwt>0</asrwt>
<pdfrwt beam="1">  1       21 0.58568245E-01 0.40435509E+03</pdfrwt>
<pdfrwt beam="2">  1       21 0.85469315E-01 0.40435509E+03</pdfrwt>
<totfact> 0.28557774E+03</totfact>
</mgrwt>
</event>
<event>
 4    1  0.4656600E-002  0.4008882E+03  0.7818608E-02  0.1043473E+00
         21   -1    0    0  503  502  0.00000000000E+00  0.00000000000E+00  0.36788882283E+03  0.36788882283E+03  0.00000000000E+00 0.  1.
         21   -1    0    0  501  503 -0.00000000000E+00 -0.00000000000E+00 -0.55966450070E+03  0.55966450070E+03  0.00000000000E+00 0.  1.
    9000007    1    1    2  501    0  0.26667961790E+02 -0.42018171499E+00 -0.31314497042E+03  0.50869551722E+03  0.40000000000E+03 0.  1.
   -9000007    1    1    2    0  502 -0.26667961790E+02  0.42018171499E+00  0.12136929255E+03  0.41885780632E+03  0.40000000000E+03 0.  1.
<mgrwt>
<rscale>  2 0.40088821E+03</rscale>
<asrwt>0</asrwt>
<pdfrwt beam="1">  1       21 0.56598281E-01 0.40088821E+03</pdfrwt>
<pdfrwt beam="2">  1       21 0.86102231E-01 0.40088821E+03</pdfrwt>
<totfact> 0.30276039E+03</totfact>
</mgrwt>
</event>
<event>
 4    1  0.4656600E-002  0.7416406E+03  0.7818608E-02  0.9648557E-01
         21   -1    0    0  501  502  0.00000000000E+00  0.00000000000E+00  0.30527951224E+04  0.30527951224E+04  0.00000000000E+00 0. -1.
         21   -1    0    0  502  503 -0.00000000000E+00 -0.00000000000E+00 -0.30953905327E+03  0.30953905327E+03  0.00000000000E+00 0.  1.
    9000007    1    1    2  501    0 -0.51547166226E+02  0.62239350723E+03  0.24584629341E+04  0.25678922848E+04  0.40000000000E+03 0. -1.
   -9000007    1    1    2    0  503  0.51547166226E+02 -0.62239350723E+03  0.28479313505E+03  0.79444189086E+03  0.40000000000E+03 0.  1.
<mgrwt>
<rscale>  2 0.74164061E+03</rscale>
<asrwt>0</asrwt>
<pdfrwt beam="1">  1       21 0.46966077E+00 0.74164061E+03</pdfrwt>
<pdfrwt beam="2">  1       21 0.47621395E-01 0.74164061E+03</pdfrwt>
<totfact> 0.77487490E+00</totfact>
</mgrwt>
</event>
<event>
 4    1  0.4656600E-002  0.4212683E+03  0.7818608E-02  0.1036654E+00
         21   -1    0    0  503  502  0.00000000000E+00  0.00000000000E+00  0.48791823923E+03  0.48791823923E+03  0.00000000000E+00 0.  1.
         21   -1    0    0  501  503 -0.00000000000E+00 -0.00000000000E+00 -0.36416688610E+03  0.36416688610E+03  0.00000000000E+00 0. -1.
    9000007    1    1    2  501    0 -0.51890929749E+02 -0.12154955116E+03  0.76754293901E+02  0.42820343718E+03  0.40000000000E+03 0. -1.
   -9000007    1    1    2    0  502  0.51890929749E+02  0.12154955116E+03  0.46997059225E+02  0.42388168815E+03  0.40000000000E+03 0. -1.
<mgrwt>
<rscale>  2 0.42126828E+03</rscale>
<asrwt>0</asrwt>
<pdfrwt beam="1">  1       21 0.75064344E-01 0.42126828E+03</pdfrwt>
<pdfrwt beam="2">  1       21 0.56025675E-01 0.42126828E+03</pdfrwt>
<totfact> 0.42149141E+03</totfact>
</mgrwt>
</event>
<event>
 4    1  0.4656600E-002  0.4483285E+03  0.7818608E-02  0.1028222E+00
         21   -1    0    0  501  502  0.00000000000E+00  0.00000000000E+00  0.56594011017E+03  0.56594011017E+03  0.00000000000E+00 0. -1.
         21   -1    0    0  502  503 -0.00000000000E+00 -0.00000000000E+00 -0.47863834234E+03  0.47863834234E+03  0.00000000000E+00 0. -1.
    9000007    1    1    2  501    0 -0.16672931693E+03 -0.11489024922E+03  0.30893141398E+03  0.54446033192E+03  0.40000000000E+03 0. -1.
   -9000007    1    1    2    0  503  0.16672931693E+03  0.11489024922E+03 -0.22162964615E+03  0.50011812059E+03  0.40000000000E+03 0. -1.
<mgrwt>
<rscale>  2 0.44832849E+03</rscale>
<asrwt>0</asrwt>
<pdfrwt beam="1">  1       21 0.87067709E-01 0.44832849E+03</pdfrwt>
<pdfrwt beam="2">  1       21 0.73636668E-01 0.44832849E+03</pdfrwt>
<totfact> 0.16151661E+03</totfact>
</mgrwt>
</event>
<event>
 4    1  0.4656600E-002  0.4491650E+03  0.7818608E-02  0.1027971E+00
         21   -1    0    0  503  502  0.00000000000E+00  0.00000000000E+00  0.98694186035E+03  0.98694186035E+03  0.00000000000E+00 0.  1.
         21   -1    0    0  501  503 -0.00000000000E+00 -0.00000000000E+00 -0.20443495839E+03  0.20443495839E+03  0.00000000000E+00 0.  1.
    9000007    1    1    2  501    0  0.13046991296E+03  0.15724769277E+03  0.38591854940E+03  0.59218439851E+03  0.40000000000E+03 0.  1.
   -9000007    1    1    2    0  502 -0.13046991296E+03 -0.15724769277E+03  0.39658835256E+03  0.59919242022E+03  0.40000000000E+03 0.  1.
<mgrwt>
<rscale>  2 0.44916504E+03</rscale>
<asrwt>0</asrwt>
<pdfrwt beam="1">  1       21 0.15183721E+00 0.44916504E+03</pdfrwt>
<pdfrwt beam="2">  1       21 0.31451533E-01 0.44916504E+03</pdfrwt>
<totfact> 0.24165033E+03</totfact>
</mgrwt>
</event>
<event>
 4    1  0.4656600E-002  0.5243942E+03  0.7818608E-02  0.1007601E+00
         21   -1    0    0  503  502  0.00000000000E+00  0.00000000000E+00  0.45014314814E+03  0.45014314814E+03  0.00000000000E+00 0.  1.
         21   -1    0    0  501  503 -0.00000000000E+00 -0.00000000000E+00 -0.61275012740E+03  0.61275012740E+03  0.00000000000E+00 0.  1.
    9000007    1    1    2  501    0 -0.32303724399E+03  0.10313191719E+03 -0.11056188182E+03  0.53592273982E+03  0.40000000000E+03 0.  1.
   -9000007    1    1    2    0  502  0.32303724399E+03 -0.10313191719E+03 -0.52045097443E+02  0.52697053572E+03  0.40000000000E+03 0.  1.
<mgrwt>
<rscale>  2 0.52439418E+03</rscale>
<asrwt>0</asrwt>
<pdfrwt beam="1">  1       21 0.69252792E-01 0.52439418E+03</pdfrwt>
<pdfrwt beam="2">  1       21 0.94269250E-01 0.52439418E+03</pdfrwt>
<totfact> 0.14952382E+03</totfact>
</mgrwt>
</event>
<event>
 4    1  0.4656600E-002  0.4091138E+03  0.7818608E-02  0.1040669E+00
         21   -1    0    0  503  502  0.00000000000E+00  0.00000000000E+00  0.33206213967E+03  0.33206213967E+03  0.00000000000E+00 0.  1.
         21   -1    0    0  501  503 -0.00000000000E+00 -0.00000000000E+00 -0.64816810809E+03  0.64816810809E+03  0.00000000000E+00 0.  1.
    9000007    1    1    2  501    0  0.79867854369E+02 -0.31546991717E+02 -0.38916465408E+03  0.56464432596E+03  0.40000000000E+03 0.  1.
   -9000007    1    1    2    0  502 -0.79867854369E+02  0.31546991717E+02  0.73058685661E+02  0.41558592180E+03  0.40000000000E+03 0.  1.
<mgrwt>
<rscale>  2 0.40911378E+03</rscale>
<asrwt>0</asrwt>
<pdfrwt beam="1">  1       21 0.51086484E-01 0.40911378E+03</pdfrwt>
<pdfrwt beam="2">  1       21 0.99718169E-01 0.40911378E+03</pdfrwt>
<totfact> 0.26518241E+03</totfact>
</mgrwt>
</event>
<event>
 4    1  0.4656600E-002  0.4119500E+03  0.7818608E-02  0.1039719E+00
         21   -1    0    0  503  502  0.00000000000E+00  0.00000000000E+00  0.23561034471E+03  0.23561034471E+03  0.00000000000E+00 0. -1.
         21   -1    0    0  501  503 -0.00000000000E+00 -0.00000000000E+00 -0.73498045920E+03  0.73498045920E+03  0.00000000000E+00 0. -1.
    9000007    1    1    2  501    0 -0.55704176573E+02 -0.81239226665E+02 -0.31834444449E+03  0.52062073775E+03  0.40000000000E+03 0. -1.
   -9000007    1    1    2    0  502  0.55704176573E+02  0.81239226665E+02 -0.18102567000E+03  0.44997006616E+03  0.40000000000E+03 0. -1.
<mgrwt>
<rscale>  2 0.41194996E+03</rscale>
<asrwt>0</asrwt>
<pdfrwt beam="1">  1       21 0.36247745E-01 0.41194996E+03</pdfrwt>
<pdfrwt beam="2">  1       21 0.11307392E+00 0.41194996E+03</pdfrwt>
<totfact> 0.39672161E+03</totfact>
</mgrwt>
</event>
<event>
 4    1  0.4656600E-002  0.5090796E+03  0.7818608E-02  0.1011436E+00
         21   -1    0    0  503  502  0.00000000000E+00  0.00000000000E+00  0.92787355514E+03  0.92787355514E+03  0.00000000000E+00 0. -1.
         21   -1    0    0  501  503 -0.00000000000E+00 -0.00000000000E+00 -0.31989580234E+03  0.31989580234E+03  0.00000000000E+00 0. -1.
    9000007    1    1    2  501    0  0.17840647835E+03 -0.25948635244E+03  0.81759985694E+02  0.51560327179E+03  0.40000000000E+03 0. -1.
   -9000007    1    1    2    0  502 -0.17840647835E+03  0.25948635244E+03  0.52621776710E+03  0.73216608569E+03  0.40000000000E+03 0. -1.
<mgrwt>
<rscale>  2 0.50907960E+03</rscale>
<asrwt>0</asrwt>
<pdfrwt beam="1">  1       21 0.14274978E+00 0.50907960E+03</pdfrwt>
<pdfrwt beam="2">  1       21 0.49214739E-01 0.50907960E+03</pdfrwt>
<totfact> 0.11100390E+03</totfact>
</mgrwt>
</event>
<event>
 4    1  0.4656600E-002  0.4105968E+03  0.7818608E-02  0.1040171E+00
         21   -1    0    0  503  502  0.00000000000E+00  0.00000000000E+00  0.36201502897E+03  0.36201502897E+03  0.00000000000E+00 0.  1.
         21   -1    0    0  501  503 -0.00000000000E+00 -0.00000000000E+00 -0.57925191507E+03  0.57925191507E+03  0.00000000000E+00 0.  1.
    9000007    1    1    2  501    0 -0.92614687780E+02  0.34985056358E+01 -0.31699549568E+03  0.51872522998E+03  0.40000000000E+03 0.  1.
   -9000007    1    1    2    0  502  0.92614687780E+02 -0.34985056358E+01  0.99758609583E+02  0.42254171406E+03  0.40000000000E+03 0.  1.
<mgrwt>
<rscale>  2 0.41059679E+03</rscale>
<asrwt>0</asrwt>
<pdfrwt beam="1">  1       21 0.55694619E-01 0.41059679E+03</pdfrwt>
<pdfrwt beam="2">  1       21 0.89115680E-01 0.41059679E+03</pdfrwt>
<totfact> 0.28801812E+03</totfact>
</mgrwt>
</event>
<event>
 4    1  0.4656600E-002  0.4762948E+03  0.7818608E-02  0.1020158E+00
         21   -1    0    0  501  502  0.00000000000E+00  0.00000000000E+00  0.32955442795E+03  0.32955442795E+03  0.00000000000E+00 0. -1.
         21   -1    0    0  502  503 -0.00000000000E+00 -0.00000000000E+00 -0.72871596498E+03  0.72871596498E+03  0.00000000000E+00 0.  1.
    9000007    1    1    2  501    0 -0.18997744640E+02 -0.25786791707E+03 -0.75082081328E+02  0.48217641573E+03  0.40000000000E+03 0.  1.
   -9000007    1    1    2    0  503  0.18997744640E+02  0.25786791707E+03 -0.32407945570E+03  0.57609397719E+03  0.40000000000E+03 0. -1.
<mgrwt>
<rscale>  2 0.47629484E+03</rscale>
<asrwt>0</asrwt>
<pdfrwt beam="1">  1       21 0.50700682E-01 0.47629484E+03</pdfrwt>
<pdfrwt beam="2">  1       21 0.11211015E+00 0.47629484E+03</pdfrwt>
<totfact> 0.19690121E+03</totfact>
</mgrwt>
</event>
<event>
 4    1  0.4656600E-002  0.4237310E+03  0.7818608E-02  0.1035859E+00
         21   -1    0    0  503  502  0.00000000000E+00  0.00000000000E+00  0.44326039079E+03  0.44326039079E+03  0.00000000000E+00 0. -1.
         21   -1    0    0  501  503 -0.00000000000E+00 -0.00000000000E+00 -0.87988276699E+03  0.87988276699E+03  0.00000000000E+00 0. -1.
    9000007    1    1    2  501    0  0.76140320506E+01 -0.13960668434E+03 -0.70430330530E+03  0.82194351732E+03  0.40000000000E+03 0. -1.
   -9000007    1    1    2    0  502 -0.76140320506E+01  0.13960668434E+03  0.26768092910E+03  0.50119964047E+03  0.40000000000E+03 0. -1.
<mgrwt>
<rscale>  2 0.42373105E+03</rscale>
<asrwt>0</asrwt>
<pdfrwt beam="1">  1       21 0.68193907E-01 0.42373105E+03</pdfrwt>
<pdfrwt beam="2">  1       21 0.13536658E+00 0.42373105E+03</pdfrwt>
<totfact> 0.65037857E+02</totfact>
</mgrwt>
</event>
<event>
 4    1  0.4656600E-002  0.4423171E+03  0.7818608E-02  0.1030038E+00
         21   -1    0    0  503  502  0.00000000000E+00  0.00000000000E+00  0.14256833591E+04  0.14256833591E+04  0.00000000000E+00 0. -1.
         21   -1    0    0  501  503 -0.00000000000E+00 -0.00000000000E+00 -0.15184534032E+03  0.15184534032E+03  0.00000000000E+00 0. -1.
    9000007    1    1    2  501    0 -0.18146142588E+02 -0.18792313949E+03  0.39219685356E+03  0.59115375393E+03  0.40000000000E+03 0. -1.
   -9000007    1    1    2    0  502  0.18146142588E+02  0.18792313949E+03  0.88164116521E+03  0.98637494546E+03  0.40000000000E+03 0. -1.
<mgrwt>
<rscale>  2 0.44231707E+03</rscale>
<asrwt>0</asrwt>
<pdfrwt beam="1">  1       21 0.21933589E+00 0.44231707E+03</pdfrwt>
<pdfrwt beam="2">  1       21 0.23360823E-01 0.44231707E+03</pdfrwt>
<totfact> 0.14675089E+03</totfact>
</mgrwt>
</event>
<event>
 4    1  0.4656600E-002  0.4015417E+03  0.7818608E-02  0.1043247E+00
         21   -1    0    0  503  502  0.00000000000E+00  0.00000000000E+00  0.16125252329E+03  0.16125252329E+03  0.00000000000E+00 0. -1.
         21   -1    0    0  501  503 -0.00000000000E+00 -0.00000000000E+00 -0.11646482802E+04  0.11646482802E+04  0.00000000000E+00 0. -1.
    9000007    1    1    2  501    0 -0.34793597592E+02  0.50151223247E+01 -0.75104216348E+03  0.85164551147E+03  0.40000000000E+03 0. -1.
   -9000007    1    1    2    0  502  0.34793597592E+02 -0.50151223247E+01 -0.25235359343E+03  0.47425529201E+03  0.40000000000E+03 0. -1.
<mgrwt>
<rscale>  2 0.40154171E+03</rscale>
<asrwt>0</asrwt>
<pdfrwt beam="1">  1       21 0.24808081E-01 0.40154171E+03</pdfrwt>
<pdfrwt beam="2">  1       21 0.17917665E+00 0.40154171E+03</pdfrwt>
<totfact> 0.24687154E+03</totfact>
</mgrwt>
</event>
<event>
 4    1  0.4656600E-002  0.4627309E+03  0.7818608E-02  0.1023992E+00
         21   -1    0    0  503  502  0.00000000000E+00  0.00000000000E+00  0.21387166533E+03  0.21387166533E+03  0.00000000000E+00 0.  1.
         21   -1    0    0  501  503 -0.00000000000E+00 -0.00000000000E+00 -0.10789585500E+04  0.10789585500E+04  0.00000000000E+00 0. -1.
    9000007    1    1    2  501    0 -0.71369560565E+02  0.22141878242E+03 -0.60612081404E+03  0.76256300238E+03  0.40000000000E+03 0.  1.
   -9000007    1    1    2    0  502  0.71369560565E+02 -0.22141878242E+03 -0.25896607063E+03  0.53026721294E+03  0.40000000000E+03 0.  1.
<mgrwt>
<rscale>  2 0.46273091E+03</rscale>
<asrwt>0</asrwt>
<pdfrwt beam="1">  1       21 0.32903333E-01 0.46273091E+03</pdfrwt>
<pdfrwt beam="2">  1       21 0.16599362E+00 0.46273091E+03</pdfrwt>
<totfact> 0.17141869E+03</totfact>
</mgrwt>
</event>
<event>
 4    1  0.4656600E-002  0.5194660E+03  0.7818608E-02  0.1008819E+00
         21   -1    0    0  501  502  0.00000000000E+00  0.00000000000E+00  0.11645199188E+04  0.11645199188E+04  0.00000000000E+00 0. -1.
         21   -1    0    0  502  503 -0.00000000000E+00 -0.00000000000E+00 -0.23186815085E+03  0.23186815085E+03  0.00000000000E+00 0.  1.
    9000007    1    1    2  501    0 -0.43613968343E+02 -0.32854639106E+03  0.44879819179E+03  0.68648723679E+03  0.40000000000E+03 0.  1.
   -9000007    1    1    2    0  503  0.43613968343E+02  0.32854639106E+03  0.48385357613E+03  0.70990083282E+03  0.40000000000E+03 0. -1.
<mgrwt>
<rscale>  2 0.51946598E+03</rscale>
<asrwt>0</asrwt>
<pdfrwt beam="1">  1       21 0.17915691E+00 0.51946598E+03</pdfrwt>
<pdfrwt beam="2">  1       21 0.35672024E-01 0.51946598E+03</pdfrwt>
<totfact> 0.11434201E+03</totfact>
</mgrwt>
</event>
<event>
 4    1  0.4656600E-002  0.4187835E+03  0.7818608E-02  0.1037463E+00
         21   -1    0    0  501  502  0.00000000000E+00  0.00000000000E+00  0.32262468062E+03  0.32262468062E+03  0.00000000000E+00 0. -1.
         21   -1    0    0  502  503 -0.00000000000E+00 -0.00000000000E+00 -0.60248340509E+03  0.60248340509E+03  0.00000000000E+00 0. -1.
    9000007    1    1    2  501    0  0.75552861081E+02 -0.98343107891E+02  0.46735238501E+01  0.41880955518E+03  0.40000000000E+03 0. -1.
   -9000007    1    1    2    0  503 -0.75552861081E+02  0.98343107891E+02 -0.28453224832E+03  0.50629853053E+03  0.40000000000E+03 0. -1.
<mgrwt>
<rscale>  2 0.41878348E+03</rscale>
<asrwt>0</asrwt>
<pdfrwt beam="1">  1       21 0.49634567E-01 0.41878348E+03</pdfrwt>
<pdfrwt beam="2">  1       21 0.92689753E-01 0.41878348E+03</pdfrwt>
<totfact> 0.33470580E+03</totfact>
</mgrwt>
</event>
<event>
 4    1  0.4656600E-002  0.5994090E+03  0.7818608E-02  0.9906633E-01
         21   -1    0    0  503  502  0.00000000000E+00  0.00000000000E+00  0.81426398601E+03  0.81426398601E+03  0.00000000000E+00 0.  1.
         21   -1    0    0  501  503 -0.00000000000E+00 -0.00000000000E+00 -0.72939287226E+03  0.72939287226E+03  0.00000000000E+00 0.  1.
    9000007    1    1    2  501    0 -0.42378753420E+03 -0.14033995822E+03 -0.44268150676E+03  0.74515642281E+03  0.40000000000E+03 0.  1.
   -9000007    1    1    2    0  502  0.42378753420E+03  0.14033995822E+03  0.52755262052E+03  0.79850043546E+03  0.40000000000E+03 0.  1.
<mgrwt>
<rscale>  2 0.59940902E+03</rscale>
<asrwt>0</asrwt>
<pdfrwt beam="1">  1       21 0.12527138E+00 0.59940902E+03</pdfrwt>
<pdfrwt beam="2">  1       21 0.11221429E+00 0.59940902E+03</pdfrwt>
<totfact> 0.22765712E+02</totfact>
</mgrwt>
</event>
<event>
 4    1  0.4656600E-002  0.4431088E+03  0.7818608E-02  0.1029797E+00
         21   -1    0    0  503  502  0.00000000000E+00  0.00000000000E+00  0.50380095045E+03  0.50380095045E+03  0.00000000000E+00 0. -1.
         21   -1    0    0  501  503 -0.00000000000E+00 -0.00000000000E+00 -0.48185842682E+03  0.48185842682E+03  0.00000000000E+00 0. -1.
    9000007    1    1    2  501    0  0.73533871456E+02 -0.17589241030E+03 -0.20452439335E+03  0.48803237365E+03  0.40000000000E+03 0. -1.
   -9000007    1    1    2    0  502 -0.73533871456E+02  0.17589241030E+03  0.22646691698E+03  0.49762700362E+03  0.40000000000E+03 0. -1.
<mgrwt>
<rscale>  2 0.44310876E+03</rscale>
<asrwt>0</asrwt>
<pdfrwt beam="1">  1       21 0.77507838E-01 0.44310876E+03</pdfrwt>
<pdfrwt beam="2">  1       21 0.74132066E-01 0.44310876E+03</pdfrwt>
<totfact> 0.20882607E+03</totfact>
</mgrwt>
</event>
<event>
 4    1  0.4656600E-002  0.4294750E+03  0.7818608E-02  0.1034026E+00
         21   -1    0    0  503  502  0.00000000000E+00  0.00000000000E+00  0.60225608999E+03  0.60225608999E+03  0.00000000000E+00 0. -1.
         21   -1    0    0  501  503 -0.00000000000E+00 -0.00000000000E+00 -0.30669184394E+03  0.30669184394E+03  0.00000000000E+00 0. -1.
    9000007    1    1    2  501    0  0.11494888117E+03 -0.10599782895E+03  0.16477566380E+03  0.45999978740E+03  0.40000000000E+03 0. -1.
   -9000007    1    1    2    0  502 -0.11494888117E+03  0.10599782895E+03  0.13078858225E+03  0.44894814653E+03  0.40000000000E+03 0. -1.
<mgrwt>
<rscale>  2 0.42947501E+03</rscale>
<asrwt>0</asrwt>
<pdfrwt beam="1">  1       21 0.92654783E-01 0.42947501E+03</pdfrwt>
<pdfrwt beam="2">  1       21 0.47183361E-01 0.42947501E+03</pdfrwt>
<totfact> 0.37140350E+03</totfact>
</mgrwt>
</event>
<event>
 4    1  0.4656600E-002  0.4231146E+03  0.7818608E-02  0.1036057E+00
         21   -1    0    0  503  502  0.00000000000E+00  0.00000000000E+00  0.53139292620E+03  0.53139292620E+03  0.00000000000E+00 0. -1.
         21   -1    0    0  501  503 -0.00000000000E+00 -0.00000000000E+00 -0.36381982648E+03  0.36381982648E+03  0.00000000000E+00 0.  1.
    9000007    1    1    2  501    0 -0.89881585253E+02  0.10462898939E+03 -0.37970622994E+02  0.42481489263E+03  0.40000000000E+03 0.  1.
   -9000007    1    1    2    0  502  0.89881585253E+02 -0.10462898939E+03  0.20554372272E+03  0.47039786005E+03  0.40000000000E+03 0. -1.
<mgrwt>
<rscale>  2 0.42311455E+03</rscale>
<asrwt>0</asrwt>
<pdfrwt beam="1">  1       21 0.81752758E-01 0.42311455E+03</pdfrwt>
<pdfrwt beam="2">  1       21 0.55972281E-01 0.42311455E+03</pdfrwt>
<totfact> 0.34692805E+03</totfact>
</mgrwt>
</event>
<event>
 4    1  0.4656600E-002  0.4131068E+03  0.7818608E-02  0.1039333E+00
         21   -1    0    0  501  502  0.00000000000E+00  0.00000000000E+00  0.10871973472E+04  0.10871973472E+04  0.00000000000E+00 0.  1.
         21   -1    0    0  502  503 -0.00000000000E+00 -0.00000000000E+00 -0.15709961942E+03  0.15709961942E+03  0.00000000000E+00 0.  1.
    9000007    1    1    2  501    0 -0.29781601222E+02 -0.98844612282E+02  0.48293011195E+03  0.63551451138E+03  0.40000000000E+03 0. -1.
   -9000007    1    1    2    0  503  0.29781601222E+02  0.98844612282E+02  0.44716761581E+03  0.60878245522E+03  0.40000000000E+03 0. -1.
<mgrwt>
<rscale>  2 0.41310677E+03</rscale>
<asrwt>0</asrwt>
<pdfrwt beam="1">  1       21 0.16726113E+00 0.41310677E+03</pdfrwt>
<pdfrwt beam="2">  1       21 0.24169173E-01 0.41310677E+03</pdfrwt>
<totfact> 0.31457162E+03</totfact>
</mgrwt>
</event>
<event>
 4    1  0.4656600E-002  0.4684271E+03  0.7818608E-02  0.1022365E+00
         21   -1    0    0  501  502  0.00000000000E+00  0.00000000000E+00  0.24060749238E+03  0.24060749238E+03  0.00000000000E+00 0.  1.
         21   -1    0    0  502  503 -0.00000000000E+00 -0.00000000000E+00 -0.13398163480E+04  0.13398163480E+04  0.00000000000E+00 0.  1.
    9000007    1    1    2  501    0 -0.69245038605E+02  0.23372861166E+03 -0.99615527794E+03  0.11007948388E+04  0.40000000000E+03 0.  1.
   -9000007    1    1    2    0  503  0.69245038605E+02 -0.23372861166E+03 -0.10305357763E+03  0.47962900156E+03  0.40000000000E+03 0.  1.
<mgrwt>
<rscale>  2 0.46842709E+03</rscale>
<asrwt>0</asrwt>
<pdfrwt beam="1">  1       21 0.37016537E-01 0.46842709E+03</pdfrwt>
<pdfrwt beam="2">  1       21 0.20612559E+00 0.46842709E+03</pdfrwt>
<totfact> 0.70882385E+02</totfact>
</mgrwt>
</event>
<event>
 4    1  0.4656600E-002  0.4895986E+03  0.7818608E-02  0.1016530E+00
         21   -1    0    0  503  502  0.00000000000E+00  0.00000000000E+00  0.27216958951E+03  0.27216958951E+03  0.00000000000E+00 0.  1.
         21   -1    0    0  501  503 -0.00000000000E+00 -0.00000000000E+00 -0.10147634029E+04  0.10147634029E+04  0.00000000000E+00 0.  1.
    9000007    1    1    2  501    0  0.19579975776E+03 -0.20339423226E+03 -0.60515746913E+03  0.77841012410E+03  0.40000000000E+03 0.  1.
   -9000007    1    1    2    0  502 -0.19579975776E+03  0.20339423226E+03 -0.13743634425E+03  0.50852286829E+03  0.40000000000E+03 0.  1.
<mgrwt>
<rscale>  2 0.48959857E+03</rscale>
<asrwt>0</asrwt>
<pdfrwt beam="1">  1       21 0.41872245E-01 0.48959857E+03</pdfrwt>
<pdfrwt beam="2">  1       21 0.15611745E+00 0.48959857E+03</pdfrwt>
<totfact> 0.12308016E+03</totfact>
</mgrwt>
</event>
<event>
 4    1  0.4656600E-002  0.5263743E+03  0.7818608E-02  0.1007115E+00
         21   -1    0    0  503  502  0.00000000000E+00  0.00000000000E+00  0.21736038592E+04  0.21736038592E+04  0.00000000000E+00 0. -1.
         21   -1    0    0  501  503 -0.00000000000E+00 -0.00000000000E+00 -0.27463994265E+03  0.27463994265E+03  0.00000000000E+00 0. -1.
    9000007    1    1    2  501    0 -0.29606500662E+03 -0.17150921106E+03  0.53391275126E+02  0.52907516090E+03  0.40000000000E+03 0. -1.
   -9000007    1    1    2    0  502  0.29606500662E+03  0.17150921106E+03  0.18455726414E+04  0.19191686409E+04  0.40000000000E+03 0. -1.
<mgrwt>
<rscale>  2 0.52637429E+03</rscale>
<asrwt>0</asrwt>
<pdfrwt beam="1">  1       21 0.33440058E+00 0.52637429E+03</pdfrwt>
<pdfrwt beam="2">  1       21 0.42252300E-01 0.52637429E+03</pdfrwt>
<totfact> 0.84686045E+01</totfact>
</mgrwt>
</event>
<event>
 4    1  0.4656600E-002  0.4386548E+03  0.7818608E-02  0.1031160E+00
         21   -1    0    0  503  502  0.00000000000E+00  0.00000000000E+00  0.35487970894E+03  0.35487970894E+03  0.00000000000E+00 0. -1.
         21   -1    0    0  501  503 -0.00000000000E+00 -0.00000000000E+00 -0.54331761997E+03  0.54331761997E+03  0.00000000000E+00 0. -1.
    9000007    1    1    2  501    0  0.97676505811E+02 -0.15125246659E+03 -0.11453024291E+03  0.45335988461E+03  0.40000000000E+03 0. -1.
   -9000007    1    1    2    0  502 -0.97676505811E+02  0.15125246659E+03 -0.73907668116E+02  0.44483744429E+03  0.40000000000E+03 0. -1.
<mgrwt>
<rscale>  2 0.43865477E+03</rscale>
<asrwt>0</asrwt>
<pdfrwt beam="1">  1       21 0.54596879E-01 0.43865477E+03</pdfrwt>
<pdfrwt beam="2">  1       21 0.83587326E-01 0.43865477E+03</pdfrwt>
<totfact> 0.34572049E+03</totfact>
</mgrwt>
</event>
<event>
 4    1  0.4656600E-002  0.4313793E+03  0.7818608E-02  0.1033425E+00
         21   -1    0    0  501  502  0.00000000000E+00  0.00000000000E+00  0.41624956902E+03  0.41624956902E+03  0.00000000000E+00 0. -1.
         21   -1    0    0  502  503 -0.00000000000E+00 -0.00000000000E+00 -0.89926881332E+03  0.89926881332E+03  0.00000000000E+00 0. -1.
    9000007    1    1    2  501    0  0.26069252828E+01 -0.16149709864E+03  0.22492648146E+03  0.48649771941E+03  0.40000000000E+03 0. -1.
   -9000007    1    1    2    0  503 -0.26069252828E+01  0.16149709864E+03 -0.70794572577E+03  0.82902066293E+03  0.40000000000E+03 0. -1.
<mgrwt>
<rscale>  2 0.43137931E+03</rscale>
<asrwt>0</asrwt>
<pdfrwt beam="1">  1       21 0.64038396E-01 0.43137931E+03</pdfrwt>
<pdfrwt beam="2">  1       21 0.13834905E+00 0.43137931E+03</pdfrwt>
<totfact> 0.70387038E+02</totfact>
</mgrwt>
</event>
<event>
 4    1  0.4656600E-002  0.5152664E+03  0.7818608E-02  0.1009869E+00
         21   -1    0    0  503  502  0.00000000000E+00  0.00000000000E+00  0.12885789558E+04  0.12885789558E+04  0.00000000000E+00 0. -1.
         21   -1    0    0  501  503 -0.00000000000E+00 -0.00000000000E+00 -0.94255689491E+03  0.94255689491E+03  0.00000000000E+00 0. -1.
    9000007    1    1    2  501    0  0.20347008893E+03  0.25317853434E+03 -0.81311731442E+03  0.96263140108E+03  0.40000000000E+03 0. -1.
   -9000007    1    1    2    0  502 -0.20347008893E+03 -0.25317853434E+03  0.11591393753E+04  0.12685044496E+04  0.40000000000E+03 0. -1.
<mgrwt>
<rscale>  2 0.51526638E+03</rscale>
<asrwt>0</asrwt>
<pdfrwt beam="1">  1       21 0.19824292E+00 0.51526638E+03</pdfrwt>
<pdfrwt beam="2">  1       21 0.14500875E+00 0.51526638E+03</pdfrwt>
<totfact> 0.33536669E+01</totfact>
</mgrwt>
</event>
<event>
 4    1  0.4656600E-002  0.5651973E+03  0.7818608E-02  0.9980363E-01
         21   -1    0    0  501  502  0.00000000000E+00  0.00000000000E+00  0.74400758113E+03  0.74400758113E+03  0.00000000000E+00 0. -1.
         21   -1    0    0  502  503 -0.00000000000E+00 -0.00000000000E+00 -0.76378919999E+03  0.76378919999E+03  0.00000000000E+00 0. -1.
    9000007    1    1    2  501    0  0.39054092970E+03  0.83221319310E+02  0.48896767133E+03  0.74735359059E+03  0.40000000000E+03 0. -1.
   -9000007    1    1    2    0  503 -0.39054092970E+03 -0.83221319310E+02 -0.50874929019E+03  0.76044319053E+03  0.40000000000E+03 0. -1.
<mgrwt>
<rscale>  2 0.56519732E+03</rscale>
<asrwt>0</asrwt>
<pdfrwt beam="1">  1       21 0.11446270E+00 0.56519732E+03</pdfrwt>
<pdfrwt beam="2">  1       21 0.11750603E+00 0.56519732E+03</pdfrwt>
<totfact> 0.25863581E+02</totfact>
</mgrwt>
</event>
<event>
 4    1  0.4656600E-002  0.4028372E+03  0.7818608E-02  0.1042802E+00
         21   -1    0    0  503  502  0.00000000000E+00  0.00000000000E+00  0.58837790872E+03  0.58837790872E+03  0.00000000000E+00 0.  1.
         21   -1    0    0  501  503 -0.00000000000E+00 -0.00000000000E+00 -0.63471362719E+03  0.63471362719E+03  0.00000000000E+00 0.  1.
    9000007    1    1    2  501    0 -0.95536353079E+01 -0.46760303943E+02 -0.48303435260E+03  0.62896739483E+03  0.40000000000E+03 0.  1.
   -9000007    1    1    2    0  502  0.95536353079E+01  0.46760303943E+02  0.43669863412E+03  0.59412414108E+03  0.40000000000E+03 0.  1.
<mgrwt>
<rscale>  2 0.40283719E+03</rscale>
<asrwt>0</asrwt>
<pdfrwt beam="1">  1       21 0.90519678E-01 0.40283719E+03</pdfrwt>
<pdfrwt beam="2">  1       21 0.97648251E-01 0.40283719E+03</pdfrwt>
<totfact> 0.77719803E+02</totfact>
</mgrwt>
</event>
<event>
 4    1  0.4656600E-002  0.5123233E+03  0.7818608E-02  0.1010611E+00
         21   -1    0    0  503  502  0.00000000000E+00  0.00000000000E+00  0.10030220708E+04  0.10030220708E+04  0.00000000000E+00 0.  1.
         21   -1    0    0  501  503 -0.00000000000E+00 -0.00000000000E+00 -0.33030428324E+03  0.33030428324E+03  0.00000000000E+00 0. -1.
    9000007    1    1    2  501    0 -0.16403863981E+03  0.27489352326E+03  0.32498090675E+02  0.51335294913E+03  0.40000000000E+03 0. -1.
   -9000007    1    1    2    0  502  0.16403863981E+03 -0.27489352326E+03  0.64021969687E+03  0.81997340490E+03  0.40000000000E+03 0.  1.
<mgrwt>
<rscale>  2 0.51232326E+03</rscale>
<asrwt>0</asrwt>
<pdfrwt beam="1">  1       21 0.15431109E+00 0.51232326E+03</pdfrwt>
<pdfrwt beam="2">  1       21 0.50816044E-01 0.51232326E+03</pdfrwt>
<totfact> 0.83793068E+02</totfact>
</mgrwt>
</event>
<event>
 4    1  0.4656600E-002  0.4361849E+03  0.7818608E-02  0.1031924E+00
         21   -1    0    0  503  502  0.00000000000E+00  0.00000000000E+00  0.59415624209E+03  0.59415624209E+03  0.00000000000E+00 0. -1.
         21   -1    0    0  501  503 -0.00000000000E+00 -0.00000000000E+00 -0.33207550778E+03  0.33207550778E+03  0.00000000000E+00 0. -1.
    9000007    1    1    2  501    0  0.48859974406E+02 -0.16694290684E+03  0.21856667242E+03  0.48788177004E+03  0.40000000000E+03 0. -1.
   -9000007    1    1    2    0  502 -0.48859974406E+02  0.16694290684E+03  0.43514061888E+02  0.43834997984E+03  0.40000000000E+03 0. -1.
<mgrwt>
<rscale>  2 0.43618486E+03</rscale>
<asrwt>0</asrwt>
<pdfrwt beam="1">  1       21 0.91408653E-01 0.43618486E+03</pdfrwt>
<pdfrwt beam="2">  1       21 0.51088540E-01 0.43618486E+03</pdfrwt>
<totfact> 0.32327266E+03</totfact>
</mgrwt>
</event>
<event>
 4    1  0.4656600E-002  0.4903435E+03  0.7818608E-02  0.1016331E+00
         21   -1    0    0  503  502  0.00000000000E+00  0.00000000000E+00  0.61159823189E+03  0.61159823189E+03  0.00000000000E+00 0.  1.
         21   -1    0    0  501  503 -0.00000000000E+00 -0.00000000000E+00 -0.46249720667E+03  0.46249720667E+03  0.00000000000E+00 0.  1.
    9000007    1    1    2  501    0 -0.22553400194E+03 -0.17196274401E+03 -0.13343818240E+03  0.50817567817E+03  0.40000000000E+03 0.  1.
   -9000007    1    1    2    0  502  0.22553400194E+03  0.17196274401E+03  0.28253920762E+03  0.56591976039E+03  0.40000000000E+03 0.  1.
<mgrwt>
<rscale>  2 0.49034352E+03</rscale>
<asrwt>0</asrwt>
<pdfrwt beam="1">  1       21 0.94092035E-01 0.49034352E+03</pdfrwt>
<pdfrwt beam="2">  1       21 0.71153417E-01 0.49034352E+03</pdfrwt>
<totfact> 0.14294377E+03</totfact>
</mgrwt>
</event>
<event>
 4    1  0.4656600E-002  0.4040252E+03  0.7818608E-02  0.1042395E+00
         21   -1    0    0  503  502  0.00000000000E+00  0.00000000000E+00  0.28752257211E+03  0.28752257211E+03  0.00000000000E+00 0.  1.
         21   -1    0    0  501  503 -0.00000000000E+00 -0.00000000000E+00 -0.93688483054E+03  0.93688483054E+03  0.00000000000E+00 0.  1.
    9000007    1    1    2  501    0  0.15552626558E+02 -0.54721959017E+02 -0.70896724749E+03  0.81600915130E+03  0.40000000000E+03 0.  1.
   -9000007    1    1    2    0  502 -0.15552626558E+02  0.54721959017E+02  0.59604989059E+02  0.40839825136E+03  0.40000000000E+03 0.  1.
<mgrwt>
<rscale>  2 0.40402522E+03</rscale>
<asrwt>0</asrwt>
<pdfrwt beam="1">  1       21 0.44234242E-01 0.40402522E+03</pdfrwt>
<pdfrwt beam="2">  1       21 0.14413613E+00 0.40402522E+03</pdfrwt>
<totfact> 0.14139123E+03</totfact>
</mgrwt>
</event>
<event>
 4    1  0.4656600E-002  0.5994683E+03  0.7818608E-02  0.9906510E-01
         21   -1    0    0  503  502  0.00000000000E+00  0.00000000000E+00  0.53451565490E+03  0.53451565490E+03  0.00000000000E+00 0. -1.
         21   -1    0    0  501  503 -0.00000000000E+00 -0.00000000000E+00 -0.68190967316E+03  0.68190967316E+03  0.00000000000E+00 0.  1.
    9000007    1    1    2  501    0 -0.31114737690E+03  0.32023357859E+03 -0.14584678128E+03  0.61695503776E+03  0.40000000000E+03 0. -1.
   -9000007    1    1    2    0  502  0.31114737690E+03 -0.32023357859E+03 -0.15472369697E+01  0.59947029030E+03  0.40000000000E+03 0.  1.
<mgrwt>
<rscale>  2 0.59946829E+03</rscale>
<asrwt>0</asrwt>
<pdfrwt beam="1">  1       21 0.82233177E-01 0.59946829E+03</pdfrwt>
<pdfrwt beam="2">  1       21 0.10490918E+00 0.59946829E+03</pdfrwt>
<totfact> 0.75768296E+02</totfact>
</mgrwt>
</event>
<event>
 4    1  0.4656600E-002  0.4723120E+03  0.7818608E-02  0.1021270E+00
         21   -1    0    0  501  502  0.00000000000E+00  0.00000000000E+00  0.47590837301E+03  0.47590837301E+03  0.00000000000E+00 0.  1.
         21   -1    0    0  502  503 -0.00000000000E+00 -0.00000000000E+00 -0.47546265956E+03  0.47546265956E+03  0.00000000000E+00 0.  1.
    9000007    1    1    2  501    0 -0.13771000844E+02  0.25077675383E+03  0.56774078760E+02  0.47571201030E+03  0.40000000000E+03 0.  1.
   -9000007    1    1    2    0  503  0.13771000844E+02 -0.25077675383E+03 -0.56328365312E+02  0.47565902227E+03  0.40000000000E+03 0.  1.
<mgrwt>
<rscale>  2 0.47231200E+03</rscale>
<asrwt>0</asrwt>
<pdfrwt beam="1">  1       21 0.73216673E-01 0.47231200E+03</pdfrwt>
<pdfrwt beam="2">  1       21 0.73148101E-01 0.47231200E+03</pdfrwt>
<totfact> 0.24259173E+03</totfact>
</mgrwt>
</event>
<event>
 4    1  0.4656600E-002  0.4949237E+03  0.7818608E-02  0.1015112E+00
         21   -1    0    0  503  502  0.00000000000E+00  0.00000000000E+00  0.93503851730E+03  0.93503851730E+03  0.00000000000E+00 0.  1.
         21   -1    0    0  501  503 -0.00000000000E+00 -0.00000000000E+00 -0.26571233224E+03  0.26571233224E+03  0.00000000000E+00 0. -1.
    9000007    1    1    2  501    0 -0.15203113202E+03  0.24866840586E+03  0.26338608514E+03  0.56064397885E+03  0.40000000000E+03 0. -1.
   -9000007    1    1    2    0  502  0.15203113202E+03 -0.24866840586E+03  0.40594009993E+03  0.64010687069E+03  0.40000000000E+03 0. -1.
<mgrwt>
<rscale>  2 0.49492367E+03</rscale>
<asrwt>0</asrwt>
<pdfrwt beam="1">  1       21 0.14385208E+00 0.49492367E+03</pdfrwt>
<pdfrwt beam="2">  1       21 0.40878821E-01 0.49492367E+03</pdfrwt>
<totfact> 0.16134279E+03</totfact>
</mgrwt>
</event>
<event>
 4    1  0.4656600E-002  0.4102104E+03  0.7818608E-02  0.1040300E+00
         21   -1    0    0  501  502  0.00000000000E+00  0.00000000000E+00  0.48583955597E+03  0.48583955597E+03  0.00000000000E+00 0. -1.
         21   -1    0    0  502  503 -0.00000000000E+00 -0.00000000000E+00 -0.40387126301E+03  0.40387126301E+03  0.00000000000E+00 0. -1.
    9000007    1    1    2  501    0  0.63242390730E+02 -0.65367667648E+02  0.20886302211E+03  0.46032194600E+03  0.40000000000E+03 0. -1.
   -9000007    1    1    2    0  503 -0.63242390730E+02  0.65367667648E+02 -0.12689472915E+03  0.42938887299E+03  0.40000000000E+03 0. -1.
<mgrwt>
<rscale>  2 0.41021035E+03</rscale>
<asrwt>0</asrwt>
<pdfrwt beam="1">  1       21 0.74744548E-01 0.41021035E+03</pdfrwt>
<pdfrwt beam="2">  1       21 0.62134040E-01 0.41021035E+03</pdfrwt>
<totfact> 0.34098740E+03</totfact>
</mgrwt>
</event>
<event>
 4    1  0.4656600E-002  0.4028002E+03  0.7818608E-02  0.1042814E+00
         21   -1    0    0  503  502  0.00000000000E+00  0.00000000000E+00  0.35618335167E+03  0.35618335167E+03  0.00000000000E+00 0. -1.
         21   -1    0    0  501  503 -0.00000000000E+00 -0.00000000000E+00 -0.45556304800E+03  0.45556304800E+03  0.00000000000E+00 0. -1.
    9000007    1    1    2  501    0  0.13052849632E+02  0.45581313258E+02 -0.45667052021E+02  0.40538070088E+03  0.40000000000E+03 0. -1.
   -9000007    1    1    2    0  502 -0.13052849632E+02 -0.45581313258E+02 -0.53712644310E+02  0.40636569880E+03  0.40000000000E+03 0. -1.
<mgrwt>
<rscale>  2 0.40280024E+03</rscale>
<asrwt>0</asrwt>
<pdfrwt beam="1">  1       21 0.54797439E-01 0.40280024E+03</pdfrwt>
<pdfrwt beam="2">  1       21 0.70086622E-01 0.40280024E+03</pdfrwt>
<totfact> 0.51985206E+03</totfact>
</mgrwt>
</event>
<event>
 4    1  0.4656600E-002  0.4543421E+03  0.7818608E-02  0.1026435E+00
         21   -1    0    0  501  502  0.00000000000E+00  0.00000000000E+00  0.16496721494E+04  0.16496721494E+04  0.00000000000E+00 0.  1.
         21   -1    0    0  502  503 -0.00000000000E+00 -0.00000000000E+00 -0.19896337928E+03  0.19896337928E+03  0.00000000000E+00 0.  1.
    9000007    1    1    2  501    0  0.21492171226E+03  0.15342433982E+02  0.12884151844E+04  0.13661773018E+04  0.40000000000E+03 0.  1.
   -9000007    1    1    2    0  503 -0.21492171226E+03 -0.15342433982E+02  0.16229358571E+03  0.48245822684E+03  0.40000000000E+03 0.  1.
<mgrwt>
<rscale>  2 0.45434209E+03</rscale>
<asrwt>0</asrwt>
<pdfrwt beam="1">  1       21 0.25379571E+00 0.45434209E+03</pdfrwt>
<pdfrwt beam="2">  1       21 0.30609752E-01 0.45434209E+03</pdfrwt>
<totfact> 0.52327203E+02</totfact>
</mgrwt>
</event>
<event>
 4    1  0.4656600E-002  0.6604703E+03  0.7818608E-02  0.9787328E-01
         21   -1    0    0  501  502  0.00000000000E+00  0.00000000000E+00  0.74670849451E+03  0.74670849451E+03  0.00000000000E+00 0. -1.
         21   -1    0    0  502  503 -0.00000000000E+00 -0.00000000000E+00 -0.60779074140E+03  0.60779074140E+03  0.00000000000E+00 0.  1.
    9000007    1    1    2  501    0  0.16479120944E+03 -0.49906395587E+03  0.20290871363E+03  0.69093626393E+03  0.40000000000E+03 0. -1.
   -9000007    1    1    2    0  503 -0.16479120944E+03  0.49906395587E+03 -0.63990960525E+02  0.66356297198E+03  0.40000000000E+03 0.  1.
<mgrwt>
<rscale>  2 0.66047027E+03</rscale>
<asrwt>0</asrwt>
<pdfrwt beam="1">  1       21 0.11487823E+00 0.66047027E+03</pdfrwt>
<pdfrwt beam="2">  1       21 0.93506267E-01 0.66047027E+03</pdfrwt>
<totfact> 0.43671035E+02</totfact>
</mgrwt>
</event>
<event>
 4    1  0.4656600E-002  0.4275189E+03  0.7818608E-02  0.1034647E+00
         21   -1    0    0  501  502  0.00000000000E+00  0.00000000000E+00  0.42167899517E+03  0.42167899517E+03  0.00000000000E+00 0.  1.
         21   -1    0    0  502  503 -0.00000000000E+00 -0.00000000000E+00 -0.57390279332E+03  0.57390279332E+03  0.00000000000E+00 0. -1.
    9000007    1    1    2  501    0 -0.54204283934E+02  0.14083445044E+03  0.17015655504E+03  0.46013661020E+03  0.40000000000E+03 0.  1.
   -9000007    1    1    2    0  503  0.54204283934E+02 -0.14083445044E+03 -0.32238035319E+03  0.53544517829E+03  0.40000000000E+03 0. -1.
<mgrwt>
<rscale>  2 0.42751894E+03</rscale>
<asrwt>0</asrwt>
<pdfrwt beam="1">  1       21 0.64873692E-01 0.42751894E+03</pdfrwt>
<pdfrwt beam="2">  1       21 0.88292737E-01 0.42751894E+03</pdfrwt>
<totfact> 0.20942030E+03</totfact>
</mgrwt>
</event>
<event>
 4    1  0.4656600E-002  0.4290704E+03  0.7818608E-02  0.1034154E+00
         21   -1    0    0  501  502  0.00000000000E+00  0.00000000000E+00  0.31207425781E+03  0.31207425781E+03  0.00000000000E+00 0. -1.
         21   -1    0    0  502  503 -0.00000000000E+00 -0.00000000000E+00 -0.16166413547E+04  0.16166413547E+04  0.00000000000E+00 0. -1.
    9000007    1    1    2  501    0 -0.13391456585E+03 -0.78538454958E+02  0.11623778055E+03  0.44453641187E+03  0.40000000000E+03 0. -1.
   -9000007    1    1    2    0  503  0.13391456585E+03  0.78538454958E+02 -0.14208048775E+04  0.14841792007E+04  0.40000000000E+03 0. -1.
<mgrwt>
<rscale>  2 0.42907039E+03</rscale>
<asrwt>0</asrwt>
<pdfrwt beam="1">  1       21 0.48011425E-01 0.42907039E+03</pdfrwt>
<pdfrwt beam="2">  1       21 0.24871405E+00 0.42907039E+03</pdfrwt>
<totfact> 0.22671151E+02</totfact>
</mgrwt>
</event>
<event>
 4    1  0.4656600E-002  0.5362658E+03  0.7818608E-02  0.1004724E+00
         21   -1    0    0  503  502  0.00000000000E+00  0.00000000000E+00  0.69501730232E+03  0.69501730232E+03  0.00000000000E+00 0. -1.
         21   -1    0    0  501  503 -0.00000000000E+00 -0.00000000000E+00 -0.42249488053E+03  0.42249488053E+03  0.00000000000E+00 0. -1.
    9000007    1    1    2  501    0  0.34914092258E+03  0.75376445297E+02  0.55990084376E+02  0.53918075065E+03  0.40000000000E+03 0. -1.
   -9000007    1    1    2    0  502 -0.34914092258E+03 -0.75376445297E+02  0.21653233741E+03  0.57833143220E+03  0.40000000000E+03 0. -1.
<mgrwt>
<rscale>  2 0.53626579E+03</rscale>
<asrwt>0</asrwt>
<pdfrwt beam="1">  1       21 0.10692574E+00 0.53626579E+03</pdfrwt>
<pdfrwt beam="2">  1       21 0.64999212E-01 0.53626579E+03</pdfrwt>
<totfact> 0.12620772E+03</totfact>
</mgrwt>
</event>
<event>
 4    1  0.4656600E-002  0.4155992E+03  0.7818608E-02  0.1038508E+00
         21   -1    0    0  503  502  0.00000000000E+00  0.00000000000E+00  0.20066777749E+03  0.20066777749E+03  0.00000000000E+00 0. -1.
         21   -1    0    0  501  503 -0.00000000000E+00 -0.00000000000E+00 -0.10871821780E+04  0.10871821780E+04  0.00000000000E+00 0. -1.
    9000007    1    1    2  501    0  0.11265581494E+03  0.55990800175E+01 -0.73713261240E+03  0.84621933953E+03  0.40000000000E+03 0. -1.
   -9000007    1    1    2    0  502 -0.11265581494E+03 -0.55990800175E+01 -0.14938178812E+03  0.44163061597E+03  0.40000000000E+03 0. -1.
<mgrwt>
<rscale>  2 0.41559918E+03</rscale>
<asrwt>0</asrwt>
<pdfrwt beam="1">  1       21 0.30871965E-01 0.41559918E+03</pdfrwt>
<pdfrwt beam="2">  1       21 0.16725880E+00 0.41559918E+03</pdfrwt>
<totfact> 0.19439509E+03</totfact>
</mgrwt>
</event>
<event>
 4    1  0.4656600E-002  0.4896013E+03  0.7818608E-02  0.1016529E+00
         21   -1    0    0  503  502  0.00000000000E+00  0.00000000000E+00  0.11676672788E+04  0.11676672788E+04  0.00000000000E+00 0.  1.
         21   -1    0    0  501  503 -0.00000000000E+00 -0.00000000000E+00 -0.86846000348E+03  0.86846000348E+03  0.00000000000E+00 0. -1.
    9000007    1    1    2  501    0 -0.82338867768E+02  0.27005511129E+03 -0.74003313015E+03  0.88733222978E+03  0.40000000000E+03 0. -1.
   -9000007    1    1    2    0  502  0.82338867768E+02 -0.27005511129E+03  0.10392404055E+04  0.11487950525E+04  0.40000000000E+03 0.  1.
<mgrwt>
<rscale>  2 0.48960132E+03</rscale>
<asrwt>0</asrwt>
<pdfrwt beam="1">  1       21 0.17964112E+00 0.48960132E+03</pdfrwt>
<pdfrwt beam="2">  1       21 0.13360923E+00 0.48960132E+03</pdfrwt>
<totfact> 0.56832726E+01</totfact>
</mgrwt>
</event>
<event>
 4    1  0.4656600E-002  0.4604165E+03  0.7818608E-02  0.1024660E+00
         21   -1    0    0  501  502  0.00000000000E+00  0.00000000000E+00  0.81095371914E+03  0.81095371914E+03  0.00000000000E+00 0. -1.
         21   -1    0    0  502  503 -0.00000000000E+00 -0.00000000000E+00 -0.44197332786E+03  0.44197332786E+03  0.00000000000E+00 0. -1.
    9000007    1    1    2  501    0 -0.14192046808E+03  0.17844313186E+03  0.58491821378E+03  0.74438745783E+03  0.40000000000E+03 0. -1.
   -9000007    1    1    2    0  503  0.14192046808E+03 -0.17844313186E+03 -0.21593782250E+03  0.50853958917E+03  0.40000000000E+03 0. -1.
<mgrwt>
<rscale>  2 0.46041652E+03</rscale>
<asrwt>0</asrwt>
<pdfrwt beam="1">  1       21 0.12476211E+00 0.46041652E+03</pdfrwt>
<pdfrwt beam="2">  1       21 0.67995897E-01 0.46041652E+03</pdfrwt>
<totfact> 0.79573575E+02</totfact>
</mgrwt>
</event>
<event>
 4    1  0.4656600E-002  0.6001993E+03  0.7818608E-02  0.9904993E-01
         21   -1    0    0  503  502  0.00000000000E+00  0.00000000000E+00  0.28317198957E+03  0.28317198957E+03  0.00000000000E+00 0.  1.
         21   -1    0    0  501  503 -0.00000000000E+00 -0.00000000000E+00 -0.13173296183E+04  0.13173296183E+04  0.00000000000E+00 0. -1.
    9000007    1    1    2  501    0 -0.41728399692E+03 -0.16159600337E+03 -0.66526815656E+03  0.89600274694E+03  0.40000000000E+03 0.  1.
   -9000007    1    1    2    0  502  0.41728399692E+03  0.16159600337E+03 -0.36888947220E+03  0.70449886096E+03  0.40000000000E+03 0. -1.
<mgrwt>
<rscale>  2 0.60019930E+03</rscale>
<asrwt>0</asrwt>
<pdfrwt beam="1">  1       21 0.43564921E-01 0.60019930E+03</pdfrwt>
<pdfrwt beam="2">  1       21 0.20266610E+00 0.60019930E+03</pdfrwt>
<totfact> 0.50572743E+02</totfact>
</mgrwt>
</event>
<event>
 4    1  0.4656600E-002  0.4519376E+03  0.7818608E-02  0.1027146E+00
         21   -1    0    0  501  502  0.00000000000E+00  0.00000000000E+00  0.71990082704E+03  0.71990082704E+03  0.00000000000E+00 0. -1.
         21   -1    0    0  502  503 -0.00000000000E+00 -0.00000000000E+00 -0.49713674765E+03  0.49713674765E+03  0.00000000000E+00 0. -1.
    9000007    1    1    2  501    0  0.34295125509E+02 -0.20753664620E+03  0.51008921199E+03  0.68149733627E+03  0.40000000000E+03 0. -1.
   -9000007    1    1    2    0  503 -0.34295125509E+02  0.20753664620E+03 -0.28732513260E+03  0.53554023843E+03  0.40000000000E+03 0. -1.
<mgrwt>
<rscale>  2 0.45193762E+03</rscale>
<asrwt>0</asrwt>
<pdfrwt beam="1">  1       21 0.11075397E+00 0.45193762E+03</pdfrwt>
<pdfrwt beam="2">  1       21 0.76482576E-01 0.45193762E+03</pdfrwt>
<totfact> 0.82643600E+02</totfact>
</mgrwt>
</event>
<event>
 4    1  0.4656600E-002  0.5941533E+03  0.7818608E-02  0.9917611E-01
         21   -1    0    0  503  502  0.00000000000E+00  0.00000000000E+00  0.15917859516E+04  0.15917859516E+04  0.00000000000E+00 0. -1.
         21   -1    0    0  501  503 -0.00000000000E+00 -0.00000000000E+00 -0.23239547029E+03  0.23239547029E+03  0.00000000000E+00 0.  1.
    9000007    1    1    2  501    0 -0.36918224294E+02 -0.43778445011E+03  0.87467880099E+03  0.10573935809E+04  0.40000000000E+03 0. -1.
   -9000007    1    1    2    0  502  0.36918224294E+02  0.43778445011E+03  0.48471168031E+03  0.76678784098E+03  0.40000000000E+03 0. -1.
<mgrwt>
<rscale>  2 0.59415333E+03</rscale>
<asrwt>0</asrwt>
<pdfrwt beam="1">  1       21 0.24489014E+00 0.59415333E+03</pdfrwt>
<pdfrwt beam="2">  1       21 0.35753150E-01 0.59415333E+03</pdfrwt>
<totfact> 0.40756322E+02</totfact>
</mgrwt>
</event>
<event>
 4    1  0.4656600E-002  0.4888635E+03  0.7818608E-02  0.1016727E+00
         21   -1    0    0  501  502  0.00000000000E+00  0.00000000000E+00  0.11530279627E+04  0.11530279627E+04  0.00000000000E+00 0. -1.
         21   -1    0    0  502  503 -0.00000000000E+00 -0.00000000000E+00 -0.96168865214E+03  0.96168865214E+03  0.00000000000E+00 0.  1.
    9000007    1    1    2  501    0  0.21808288178E+03  0.17727767254E+03  0.10321772245E+04  0.11420934022E+04  0.40000000000E+03 0. -1.
   -9000007    1    1    2    0  503 -0.21808288178E+03 -0.17727767254E+03 -0.84083791388E+03  0.97262321272E+03  0.40000000000E+03 0.  1.
<mgrwt>
<rscale>  2 0.48886349E+03</rscale>
<asrwt>0</asrwt>
<pdfrwt beam="1">  1       21 0.17738892E+00 0.48886349E+03</pdfrwt>
<pdfrwt beam="2">  1       21 0.14795210E+00 0.48886349E+03</pdfrwt>
<totfact> 0.44936770E+01</totfact>
</mgrwt>
</event>
<event>
 4    1  0.4656600E-002  0.5171178E+03  0.7818608E-02  0.1009405E+00
         21   -1    0    0  501  502  0.00000000000E+00  0.00000000000E+00  0.36669718916E+03  0.36669718916E+03  0.00000000000E+00 0.  1.
         21   -1    0    0  502  503 -0.00000000000E+00 -0.00000000000E+00 -0.73187177570E+03  0.73187177570E+03  0.00000000000E+00 0.  1.
    9000007    1    1    2  501    0  0.30104315530E+03  0.12955242780E+03 -0.14965822634E+03  0.53833855297E+03  0.40000000000E+03 0.  1.
   -9000007    1    1    2    0  503 -0.30104315530E+03 -0.12955242780E+03 -0.21551636020E+03  0.56023041190E+03  0.40000000000E+03 0.  1.
<mgrwt>
<rscale>  2 0.51711779E+03</rscale>
<asrwt>0</asrwt>
<pdfrwt beam="1">  1       21 0.56414953E-01 0.51711779E+03</pdfrwt>
<pdfrwt beam="2">  1       21 0.11259566E+00 0.51711779E+03</pdfrwt>
<totfact> 0.15257395E+03</totfact>
</mgrwt>
</event>
<event>
 4    1  0.4656600E-002  0.5036152E+03  0.7818608E-02  0.1012840E+00
         21   -1    0    0  503  502  0.00000000000E+00  0.00000000000E+00  0.11591411944E+04  0.11591411944E+04  0.00000000000E+00 0. -1.
         21   -1    0    0  501  503 -0.00000000000E+00 -0.00000000000E+00 -0.21891645272E+03  0.21891645272E+03  0.00000000000E+00 0. -1.
    9000007    1    1    2  501    0 -0.27751988572E+03 -0.12888345845E+03  0.45470715525E+03  0.67851811315E+03  0.40000000000E+03 0. -1.
   -9000007    1    1    2    0  502  0.27751988572E+03  0.12888345845E+03  0.48551758640E+03  0.69953953394E+03  0.40000000000E+03 0. -1.
<mgrwt>
<rscale>  2 0.50361516E+03</rscale>
<asrwt>0</asrwt>
<pdfrwt beam="1">  1       21 0.17832941E+00 0.50361516E+03</pdfrwt>
<pdfrwt beam="2">  1       21 0.33679455E-01 0.50361516E+03</pdfrwt>
<totfact> 0.13099910E+03</totfact>
</mgrwt>
</event>
<event>
 4    1  0.4656600E-002  0.4304976E+03  0.7818608E-02  0.1033703E+00
         21   -1    0    0  501  502  0.00000000000E+00  0.00000000000E+00  0.79342705531E+03  0.79342705531E+03  0.00000000000E+00 0.  1.
         21   -1    0    0  502  503 -0.00000000000E+00 -0.00000000000E+00 -0.13266149963E+04  0.13266149963E+04  0.00000000000E+00 0.  1.
    9000007    1    1    2  501    0  0.91813306400E+02 -0.12999437667E+03  0.69559235381E+03  0.81803236114E+03  0.40000000000E+03 0.  1.
   -9000007    1    1    2    0  503 -0.91813306400E+02  0.12999437667E+03 -0.12287802948E+04  0.13020096905E+04  0.40000000000E+03 0.  1.
<mgrwt>
<rscale>  2 0.43049764E+03</rscale>
<asrwt>0</asrwt>
<pdfrwt beam="1">  1       21 0.12206570E+00 0.43049764E+03</pdfrwt>
<pdfrwt beam="2">  1       21 0.20409461E+00 0.43049764E+03</pdfrwt>
<totfact> 0.50659144E+01</totfact>
</mgrwt>
</event>
<event>
 4    1  0.4656600E-002  0.5843307E+03  0.7818608E-02  0.9938459E-01
         21   -1    0    0  503  502  0.00000000000E+00  0.00000000000E+00  0.74833878499E+03  0.74833878499E+03  0.00000000000E+00 0.  1.
         21   -1    0    0  501  503 -0.00000000000E+00 -0.00000000000E+00 -0.52797093650E+03  0.52797093650E+03  0.00000000000E+00 0.  1.
    9000007    1    1    2  501    0 -0.42576496228E+03 -0.12905116796E+02 -0.12499172918E+03  0.59754939337E+03  0.40000000000E+03 0.  1.
   -9000007    1    1    2    0  502  0.42576496228E+03  0.12905116796E+02  0.34535957767E+03  0.67876032812E+03  0.40000000000E+03 0.  1.
<mgrwt>
<rscale>  2 0.58433068E+03</rscale>
<asrwt>0</asrwt>
<pdfrwt beam="1">  1       21 0.11512904E+00 0.58433068E+03</pdfrwt>
<pdfrwt beam="2">  1       21 0.81226298E-01 0.58433068E+03</pdfrwt>
<totfact> 0.62116529E+02</totfact>
</mgrwt>
</event>
<event>
 4    1  0.4656600E-002  0.4374884E+03  0.7818608E-02  0.1031520E+00
         21   -1    0    0  501  502  0.00000000000E+00  0.00000000000E+00  0.17093477863E+03  0.17093477863E+03  0.00000000000E+00 0.  1.
         21   -1    0    0  502  503 -0.00000000000E+00 -0.00000000000E+00 -0.13765381762E+04  0.13765381762E+04  0.00000000000E+00 0.  1.
    9000007    1    1    2  501    0  0.10791999871E+03 -0.14053232689E+03 -0.26858603177E+03  0.51335613124E+03  0.40000000000E+03 0.  1.
   -9000007    1    1    2    0  503 -0.10791999871E+03  0.14053232689E+03 -0.93701736576E+03  0.10341168236E+04  0.40000000000E+03 0.  1.
<mgrwt>
<rscale>  2 0.43748836E+03</rscale>
<asrwt>0</asrwt>
<pdfrwt beam="1">  1       21 0.26297659E-01 0.43748836E+03</pdfrwt>
<pdfrwt beam="2">  1       21 0.21177510E+00 0.43748836E+03</pdfrwt>
<totfact> 0.13072298E+03</totfact>
</mgrwt>
</event>
<event>
 4    1  0.4656600E-002  0.5709479E+03  0.7818608E-02  0.9967583E-01
         21   -1    0    0  501  502  0.00000000000E+00  0.00000000000E+00  0.18754023259E+04  0.18754023259E+04  0.00000000000E+00 0. -1.
         21   -1    0    0  502  503 -0.00000000000E+00 -0.00000000000E+00 -0.20786509094E+03  0.20786509094E+03  0.00000000000E+00 0. -1.
    9000007    1    1    2  501    0  0.13229266718E+02 -0.40719336991E+03  0.12553241781E+04  0.13790649898E+04  0.40000000000E+03 0. -1.
   -9000007    1    1    2    0  503 -0.13229266718E+02  0.40719336991E+03  0.41221305688E+03  0.70420242705E+03  0.40000000000E+03 0. -1.
<mgrwt>
<rscale>  2 0.57094786E+03</rscale>
<asrwt>0</asrwt>
<pdfrwt beam="1">  1       21 0.28852342E+00 0.57094786E+03</pdfrwt>
<pdfrwt beam="2">  1       21 0.31979246E-01 0.57094786E+03</pdfrwt>
<totfact> 0.27829576E+02</totfact>
</mgrwt>
</event>
<event>
 4    1  0.4656600E-002  0.5142930E+03  0.7818608E-02  0.1010114E+00
         21   -1    0    0  503  502  0.00000000000E+00  0.00000000000E+00  0.13986108765E+03  0.13986108765E+03  0.00000000000E+00 0. -1.
         21   -1    0    0  501  503 -0.00000000000E+00 -0.00000000000E+00 -0.21694226383E+04  0.21694226383E+04  0.00000000000E+00 0.  1.
    9000007    1    1    2  501    0 -0.68479728816E+02  0.31592369550E+03 -0.14283195891E+04  0.15180889643E+04  0.40000000000E+03 0.  1.
   -9000007    1    1    2    0  502  0.68479728816E+02 -0.31592369550E+03 -0.60124196146E+03  0.79119476165E+03  0.40000000000E+03 0. -1.
<mgrwt>
<rscale>  2 0.51429297E+03</rscale>
<asrwt>0</asrwt>
<pdfrwt beam="1">  1       21 0.21517093E-01 0.51429297E+03</pdfrwt>
<pdfrwt beam="2">  1       21 0.33375729E+00 0.51429297E+03</pdfrwt>
<totfact> 0.33086978E+02</totfact>
</mgrwt>
</event>
<event>
 4    1  0.4656600E-002  0.4279952E+03  0.7818608E-02  0.1034495E+00
         21   -1    0    0  501  502  0.00000000000E+00  0.00000000000E+00  0.12093693797E+04  0.12093693797E+04  0.00000000000E+00 0. -1.
         21   -1    0    0  502  503 -0.00000000000E+00 -0.00000000000E+00 -0.40322525504E+03  0.40322525504E+03  0.00000000000E+00 0. -1.
    9000007    1    1    2  501    0 -0.14926265601E+03 -0.30008822289E+02  0.10401799550E+04  0.11247907399E+04  0.40000000000E+03 0. -1.
   -9000007    1    1    2    0  503  0.14926265601E+03  0.30008822289E+02 -0.23403583034E+03  0.48780389479E+03  0.40000000000E+03 0. -1.
<mgrwt>
<rscale>  2 0.42799518E+03</rscale>
<asrwt>0</asrwt>
<pdfrwt beam="1">  1       21 0.18605683E+00 0.42799518E+03</pdfrwt>
<pdfrwt beam="2">  1       21 0.62034655E-01 0.42799518E+03</pdfrwt>
<totfact> 0.33106520E+02</totfact>
</mgrwt>
</event>
<event>
 4    1  0.4656600E-002  0.4979607E+03  0.7818608E-02  0.1014313E+00
         21   -1    0    0  501  502  0.00000000000E+00  0.00000000000E+00  0.62747568240E+03  0.62747568240E+03  0.00000000000E+00 0.  1.
         21   -1    0    0  502  503 -0.00000000000E+00 -0.00000000000E+00 -0.44446747843E+03  0.44446747843E+03  0.00000000000E+00 0. -1.
    9000007    1    1    2  501    0 -0.24869766666E+03 -0.16159929523E+03  0.26998713528E+03  0.56644321413E+03  0.40000000000E+03 0.  1.
   -9000007    1    1    2    0  503  0.24869766666E+03  0.16159929523E+03 -0.86978931297E+02  0.50549994670E+03  0.40000000000E+03 0. -1.
<mgrwt>
<rscale>  2 0.49796070E+03</rscale>
<asrwt>0</asrwt>
<pdfrwt beam="1">  1       21 0.96534721E-01 0.49796070E+03</pdfrwt>
<pdfrwt beam="2">  1       21 0.68379612E-01 0.49796070E+03</pdfrwt>
<totfact> 0.14661391E+03</totfact>
</mgrwt>
</event>
<event>
 4    1  0.4656600E-002  0.5078636E+03  0.7818608E-02  0.1011747E+00
         21   -1    0    0  501  502  0.00000000000E+00  0.00000000000E+00  0.55941496357E+03  0.55941496357E+03  0.00000000000E+00 0.  1.
         21   -1    0    0  502  503 -0.00000000000E+00 -0.00000000000E+00 -0.79076982032E+03  0.79076982032E+03  0.00000000000E+00 0.  1.
    9000007    1    1    2  501    0  0.24504422004E+03 -0.19462465745E+03  0.32023803050E+03  0.60039805400E+03  0.40000000000E+03 0.  1.
   -9000007    1    1    2    0  503 -0.24504422004E+03  0.19462465745E+03 -0.55159288725E+03  0.74978672989E+03  0.40000000000E+03 0.  1.
<mgrwt>
<rscale>  2 0.50786359E+03</rscale>
<asrwt>0</asrwt>
<pdfrwt beam="1">  1       21 0.86063841E-01 0.50786359E+03</pdfrwt>
<pdfrwt beam="2">  1       21 0.12165690E+00 0.50786359E+03</pdfrwt>
<totfact> 0.48479969E+02</totfact>
</mgrwt>
</event>
<event>
 4    1  0.4656600E-002  0.4906707E+03  0.7818608E-02  0.1016243E+00
         21   -1    0    0  503  502  0.00000000000E+00  0.00000000000E+00  0.46554624852E+03  0.46554624852E+03  0.00000000000E+00 0. -1.
         21   -1    0    0  501  503 -0.00000000000E+00 -0.00000000000E+00 -0.83613596251E+03  0.83613596251E+03  0.00000000000E+00 0. -1.
    9000007    1    1    2  501    0 -0.25227408721E+03  0.13082640975E+03 -0.58729068409E+03  0.76528956100E+03  0.40000000000E+03 0. -1.
   -9000007    1    1    2    0  502  0.25227408721E+03 -0.13082640975E+03  0.21670097010E+03  0.53639265003E+03  0.40000000000E+03 0. -1.
<mgrwt>
<rscale>  2 0.49067073E+03</rscale>
<asrwt>0</asrwt>
<pdfrwt beam="1">  1       21 0.71622500E-01 0.49067073E+03</pdfrwt>
<pdfrwt beam="2">  1       21 0.12863630E+00 0.49067073E+03</pdfrwt>
<totfact> 0.64586361E+02</totfact>
</mgrwt>
</event>
<event>
 4    1  0.4656600E-002  0.5359118E+03  0.7818608E-02  0.1004808E+00
         21   -1    0    0  503  502  0.00000000000E+00  0.00000000000E+00  0.30022907939E+03  0.30022907939E+03  0.00000000000E+00 0.  1.
         21   -1    0    0  501  503 -0.00000000000E+00 -0.00000000000E+00 -0.12608342211E+04  0.12608342211E+04  0.00000000000E+00 0. -1.
    9000007    1    1    2  501    0  0.28657274309E+03  0.21231457467E+03 -0.86370966058E+03  0.10164623916E+04  0.40000000000E+03 0. -1.
   -9000007    1    1    2    0  502 -0.28657274309E+03 -0.21231457467E+03 -0.96895481095E+02  0.54460090888E+03  0.40000000000E+03 0.  1.
<mgrwt>
<rscale>  2 0.53591176E+03</rscale>
<asrwt>0</asrwt>
<pdfrwt beam="1">  1       21 0.46189089E-01 0.53591176E+03</pdfrwt>
<pdfrwt beam="2">  1       21 0.19397449E+00 0.53591176E+03</pdfrwt>
<totfact> 0.52472289E+02</totfact>
</mgrwt>
</event>
<event>
 4    1  0.4656600E-002  0.4083134E+03  0.7818608E-02  0.1040938E+00
         21   -1    0    0  501  502  0.00000000000E+00  0.00000000000E+00  0.33019250665E+03  0.33019250665E+03  0.00000000000E+00 0.  1.
         21   -1    0    0  502  503 -0.00000000000E+00 -0.00000000000E+00 -0.57469237448E+03  0.57469237448E+03  0.00000000000E+00 0.  1.
    9000007    1    1    2  501    0 -0.68165928620E+02  0.45533123237E+02 -0.27990075712E+03  0.49503968828E+03  0.40000000000E+03 0.  1.
   -9000007    1    1    2    0  503  0.68165928620E+02 -0.45533123237E+02  0.35400889286E+02  0.40984519285E+03  0.40000000000E+03 0.  1.
<mgrwt>
<rscale>  2 0.40831343E+03</rscale>
<asrwt>0</asrwt>
<pdfrwt beam="1">  1       21 0.50798847E-01 0.40831343E+03</pdfrwt>
<pdfrwt beam="2">  1       21 0.88414211E-01 0.40831343E+03</pdfrwt>
<totfact> 0.35770640E+03</totfact>
</mgrwt>
</event>
<event>
 4    1  0.4656600E-002  0.4595713E+03  0.7818608E-02  0.1024906E+00
         21   -1    0    0  501  502  0.00000000000E+00  0.00000000000E+00  0.38994615958E+03  0.38994615958E+03  0.00000000000E+00 0.  1.
         21   -1    0    0  502  503 -0.00000000000E+00 -0.00000000000E+00 -0.68827147893E+03  0.68827147893E+03  0.00000000000E+00 0. -1.
    9000007    1    1    2  501    0 -0.39727762833E+02 -0.22277218274E+03  0.99681811291E+02  0.47025759329E+03  0.40000000000E+03 0.  1.
   -9000007    1    1    2    0  503  0.39727762833E+02  0.22277218274E+03 -0.39800713065E+03  0.60796004522E+03  0.40000000000E+03 0. -1.
<mgrwt>
<rscale>  2 0.45957126E+03</rscale>
<asrwt>0</asrwt>
<pdfrwt beam="1">  1       21 0.59991718E-01 0.45957126E+03</pdfrwt>
<pdfrwt beam="2">  1       21 0.10588792E+00 0.45957126E+03</pdfrwt>
<totfact> 0.15864606E+03</totfact>
</mgrwt>
</event>
<event>
 4    1  0.4656600E-002  0.5147114E+03  0.7818608E-02  0.1010009E+00
         21   -1    0    0  501  502  0.00000000000E+00  0.00000000000E+00  0.83016542213E+03  0.83016542213E+03  0.00000000000E+00 0.  1.
         21   -1    0    0  502  503 -0.00000000000E+00 -0.00000000000E+00 -0.38984094565E+03  0.38984094565E+03  0.00000000000E+00 0. -1.
    9000007    1    1    2  501    0  0.31197976463E+03 -0.87157425648E+02  0.47996420155E+03  0.70377086126E+03  0.40000000000E+03 0.  1.
   -9000007    1    1    2    0  503 -0.31197976463E+03  0.87157425648E+02 -0.39639725071E+02  0.51623550652E+03  0.40000000000E+03 0. -1.
<mgrwt>
<rscale>  2 0.51471137E+03</rscale>
<asrwt>0</asrwt>
<pdfrwt beam="1">  1       21 0.12771776E+00 0.51471137E+03</pdfrwt>
<pdfrwt beam="2">  1       21 0.59975530E-01 0.51471137E+03</pdfrwt>
<totfact> 0.96881749E+02</totfact>
</mgrwt>
</event>
<event>
 4    1  0.4656600E-002  0.6108913E+03  0.7818608E-02  0.9883064E-01
         21   -1    0    0  503  502  0.00000000000E+00  0.00000000000E+00  0.68190478626E+03  0.68190478626E+03  0.00000000000E+00 0.  1.
         21   -1    0    0  501  503 -0.00000000000E+00 -0.00000000000E+00 -0.66663625272E+03  0.66663625272E+03  0.00000000000E+00 0.  1.
    9000007    1    1    2  501    0 -0.45823918032E+03  0.56613036128E+02 -0.27768083054E+03  0.67104010751E+03  0.40000000000E+03 0.  1.
   -9000007    1    1    2    0  502  0.45823918032E+03 -0.56613036128E+02  0.29294936408E+03  0.67750093148E+03  0.40000000000E+03 0.  1.
<mgrwt>
<rscale>  2 0.61089130E+03</rscale>
<asrwt>0</asrwt>
<pdfrwt beam="1">  1       21 0.10490843E+00 0.61089130E+03</pdfrwt>
<pdfrwt beam="2">  1       21 0.10255942E+00 0.61089130E+03</pdfrwt>
<totfact> 0.44442266E+02</totfact>
</mgrwt>
</event>
<event>
 4    1  0.4656600E-002  0.5458358E+03  0.7818608E-02  0.1002462E+00
         21   -1    0    0  503  502  0.00000000000E+00  0.00000000000E+00  0.39278661087E+03  0.39278661087E+03  0.00000000000E+00 0.  1.
         21   -1    0    0  501  503 -0.00000000000E+00 -0.00000000000E+00 -0.80854722230E+03  0.80854722230E+03  0.00000000000E+00 0. -1.
    9000007    1    1    2  501    0  0.34104918856E+03 -0.14704479336E+03 -0.58469578548E+02  0.54895847921E+03  0.40000000000E+03 0.  1.
   -9000007    1    1    2    0  502 -0.34104918856E+03  0.14704479336E+03 -0.35729103289E+03  0.65237535396E+03  0.40000000000E+03 0.  1.
<mgrwt>
<rscale>  2 0.54583580E+03</rscale>
<asrwt>0</asrwt>
<pdfrwt beam="1">  1       21 0.60428711E-01 0.54583580E+03</pdfrwt>
<pdfrwt beam="2">  1       21 0.12439188E+00 0.54583580E+03</pdfrwt>
<totfact> 0.10092203E+03</totfact>
</mgrwt>
</event>
<event>
 4    1  0.4656600E-002  0.4494356E+03  0.7818608E-02  0.1027890E+00
         21   -1    0    0  501  502  0.00000000000E+00  0.00000000000E+00  0.16431972366E+03  0.16431972366E+03  0.00000000000E+00 0. -1.
         21   -1    0    0  502  503 -0.00000000000E+00 -0.00000000000E+00 -0.13161292822E+04  0.13161292822E+04  0.00000000000E+00 0. -1.
    9000007    1    1    2  501    0 -0.97653131414E+02  0.18015619967E+03 -0.76607225432E+03  0.88817739737E+03  0.40000000000E+03 0. -1.
   -9000007    1    1    2    0  503  0.97653131414E+02 -0.18015619967E+03 -0.38573730419E+03  0.59227160847E+03  0.40000000000E+03 0. -1.
<mgrwt>
<rscale>  2 0.44943564E+03</rscale>
<asrwt>0</asrwt>
<pdfrwt beam="1">  1       21 0.25279958E-01 0.44943564E+03</pdfrwt>
<pdfrwt beam="2">  1       21 0.20248142E+00 0.44943564E+03</pdfrwt>
<totfact> 0.16157112E+03</totfact>
</mgrwt>
</event>
<event>
 4    1  0.4656600E-002  0.4466176E+03  0.7818608E-02  0.1028736E+00
         21   -1    0    0  503  502  0.00000000000E+00  0.00000000000E+00  0.61925772922E+03  0.61925772922E+03  0.00000000000E+00 0. -1.
         21   -1    0    0  501  503 -0.00000000000E+00 -0.00000000000E+00 -0.36407072960E+03  0.36407072960E+03  0.00000000000E+00 0.  1.
    9000007    1    1    2  501    0  0.17554547313E+03 -0.93011256350E+02  0.29451500402E+03  0.53498261143E+03  0.40000000000E+03 0. -1.
   -9000007    1    1    2    0  502 -0.17554547313E+03  0.93011256350E+02 -0.39328004399E+02  0.44834584739E+03  0.40000000000E+03 0.  1.
<mgrwt>
<rscale>  2 0.44661763E+03</rscale>
<asrwt>0</asrwt>
<pdfrwt beam="1">  1       21 0.95270420E-01 0.44661763E+03</pdfrwt>
<pdfrwt beam="2">  1       21 0.56010882E-01 0.44661763E+03</pdfrwt>
<totfact> 0.23944024E+03</totfact>
</mgrwt>
</event>
<event>
 4    1  0.4656600E-002  0.1034507E+04  0.7818608E-02  0.9271487E-01
         21   -1    0    0  503  502  0.00000000000E+00  0.00000000000E+00  0.14097057814E+04  0.14097057814E+04  0.00000000000E+00 0.  1.
         21   -1    0    0  501  503 -0.00000000000E+00 -0.00000000000E+00 -0.76986619272E+03  0.76986619272E+03  0.00000000000E+00 0. -1.
    9000007    1    1    2  501    0  0.95010491076E+03  0.86639580321E+02  0.44837643300E+03  0.11274959796E+04  0.40000000000E+03 0. -1.
   -9000007    1    1    2    0  502 -0.95010491076E+03 -0.86639580321E+02  0.19146315572E+03  0.10520759946E+04  0.40000000000E+03 0.  1.
<mgrwt>
<rscale>  2 0.10345075E+04</rscale>
<asrwt>0</asrwt>
<pdfrwt beam="1">  1       21 0.21687781E+00 0.10345075E+04</pdfrwt>
<pdfrwt beam="2">  1       21 0.11844095E+00 0.10345075E+04</pdfrwt>
<totfact> 0.35490809E+01</totfact>
</mgrwt>
</event>
<event>
 4    1  0.4656600E-002  0.4362356E+03  0.7818608E-02  0.1031908E+00
         21   -1    0    0  501  502  0.00000000000E+00  0.00000000000E+00  0.12121222791E+04  0.12121222791E+04  0.00000000000E+00 0. -1.
         21   -1    0    0  502  503 -0.00000000000E+00 -0.00000000000E+00 -0.25520229026E+03  0.25520229026E+03  0.00000000000E+00 0.  1.
    9000007    1    1    2  501    0 -0.59596518481E+02 -0.16355364331E+03  0.93357142561E+03  0.10304645292E+04  0.40000000000E+03 0. -1.
   -9000007    1    1    2    0  503  0.59596518481E+02  0.16355364331E+03  0.23348563210E+02  0.43686004013E+03  0.40000000000E+03 0.  1.
<mgrwt>
<rscale>  2 0.43623565E+03</rscale>
<asrwt>0</asrwt>
<pdfrwt beam="1">  1       21 0.18648035E+00 0.43623565E+03</pdfrwt>
<pdfrwt beam="2">  1       21 0.39261891E-01 0.43623565E+03</pdfrwt>
<totfact> 0.86509649E+02</totfact>
</mgrwt>
</event>
<event>
 4    1  0.4656600E-002  0.4031728E+03  0.7818608E-02  0.1042687E+00
         21   -1    0    0  503  502  0.00000000000E+00  0.00000000000E+00  0.45413667774E+03  0.45413667774E+03  0.00000000000E+00 0.  1.
         21   -1    0    0  501  503 -0.00000000000E+00 -0.00000000000E+00 -0.41199161173E+03  0.41199161173E+03  0.00000000000E+00 0.  1.
    9000007    1    1    2  501    0  0.50416996932E+02  0.25335522315E+01 -0.13580474352E+03  0.42543062987E+03  0.40000000000E+03 0.  1.
   -9000007    1    1    2    0  502 -0.50416996932E+02 -0.25335522315E+01  0.17794980953E+03  0.44069765960E+03  0.40000000000E+03 0.  1.
<mgrwt>
<rscale>  2 0.40317278E+03</rscale>
<asrwt>0</asrwt>
<pdfrwt beam="1">  1       21 0.69867181E-01 0.40317278E+03</pdfrwt>
<pdfrwt beam="2">  1       21 0.63383325E-01 0.40317278E+03</pdfrwt>
<totfact> 0.38115597E+03</totfact>
</mgrwt>
</event>
<event>
 4    1  0.4656600E-002  0.4027576E+03  0.7818608E-02  0.1042829E+00
         21   -1    0    0  503  502  0.00000000000E+00  0.00000000000E+00  0.21101072312E+03  0.21101072312E+03  0.00000000000E+00 0. -1.
         21   -1    0    0  501  503 -0.00000000000E+00 -0.00000000000E+00 -0.77925327890E+03  0.77925327890E+03  0.00000000000E+00 0. -1.
    9000007    1    1    2  501    0  0.40013394067E+02  0.24751747640E+02 -0.34161491959E+03  0.52812354048E+03  0.40000000000E+03 0.  1.
   -9000007    1    1    2    0  502 -0.40013394067E+02 -0.24751747640E+02 -0.22662763619E+03  0.46214046155E+03  0.40000000000E+03 0.  1.
<mgrwt>
<rscale>  2 0.40275765E+03</rscale>
<asrwt>0</asrwt>
<pdfrwt beam="1">  1       21 0.32463188E-01 0.40275765E+03</pdfrwt>
<pdfrwt beam="2">  1       21 0.11988512E+00 0.40275765E+03</pdfrwt>
<totfact> 0.42941450E+03</totfact>
</mgrwt>
</event>
<event>
 4    1  0.4656600E-002  0.5961363E+03  0.7818608E-02  0.9913455E-01
         21   -1    0    0  503  502  0.00000000000E+00  0.00000000000E+00  0.29284805290E+03  0.29284805290E+03  0.00000000000E+00 0.  1.
         21   -1    0    0  501  503 -0.00000000000E+00 -0.00000000000E+00 -0.15131275700E+04  0.15131275700E+04  0.00000000000E+00 0. -1.
    9000007    1    1    2  501    0 -0.40040175129E+03  0.18723479607E+03 -0.10119461942E+04  0.11744843682E+04  0.40000000000E+03 0. -1.
   -9000007    1    1    2    0  502  0.40040175129E+03 -0.18723479607E+03 -0.20833332294E+03  0.63149125468E+03  0.40000000000E+03 0. -1.
<mgrwt>
<rscale>  2 0.59613625E+03</rscale>
<asrwt>0</asrwt>
<pdfrwt beam="1">  1       21 0.45053546E-01 0.59613625E+03</pdfrwt>
<pdfrwt beam="2">  1       21 0.23278886E+00 0.59613625E+03</pdfrwt>
<totfact> 0.30048831E+02</totfact>
</mgrwt>
</event>
<event>
 4    1  0.4656600E-002  0.7023791E+03  0.7818608E-02  0.9713172E-01
         21   -1    0    0  501  502  0.00000000000E+00  0.00000000000E+00  0.18021225952E+04  0.18021225952E+04  0.00000000000E+00 0. -1.
         21   -1    0    0  502  503 -0.00000000000E+00 -0.00000000000E+00 -0.37620451818E+03  0.37620451818E+03  0.00000000000E+00 0.  1.
    9000007    1    1    2  501    0 -0.57381684919E+03  0.63800905367E+02  0.12813412216E+04  0.14612226586E+04  0.40000000000E+03 0. -1.
   -9000007    1    1    2    0  503  0.57381684919E+03 -0.63800905367E+02  0.14457685547E+03  0.71710445479E+03  0.40000000000E+03 0.  1.
<mgrwt>
<rscale>  2 0.70237905E+03</rscale>
<asrwt>0</asrwt>
<pdfrwt beam="1">  1       21 0.27724963E+00 0.70237905E+03</pdfrwt>
<pdfrwt beam="2">  1       21 0.57877619E-01 0.70237905E+03</pdfrwt>
<totfact> 0.88910654E+01</totfact>
</mgrwt>
</event>
<event>
 4    1  0.4656600E-002  0.4116410E+03  0.7818608E-02  0.1039822E+00
         21   -1    0    0  503  502  0.00000000000E+00  0.00000000000E+00  0.12918886740E+03  0.12918886740E+03  0.00000000000E+00 0.  1.
         21   -1    0    0  501  503 -0.00000000000E+00 -0.00000000000E+00 -0.14821562937E+04  0.14821562937E+04  0.00000000000E+00 0.  1.
    9000007    1    1    2  501    0  0.83356720529E+02 -0.49999922269E+02 -0.94976122710E+03  0.10351302930E+04  0.40000000000E+03 0.  1.
   -9000007    1    1    2    0  502 -0.83356720529E+02  0.49999922269E+02 -0.40320619918E+03  0.57621486804E+03  0.40000000000E+03 0.  1.
<mgrwt>
<rscale>  2 0.41164103E+03</rscale>
<asrwt>0</asrwt>
<pdfrwt beam="1">  1       21 0.19875211E-01 0.41164103E+03</pdfrwt>
<pdfrwt beam="2">  1       21 0.22802404E+00 0.41164103E+03</pdfrwt>
<totfact> 0.17875755E+03</totfact>
</mgrwt>
</event>
<event>
 4    1  0.4656600E-002  0.5078439E+03  0.7818608E-02  0.1011752E+00
         21   -1    0    0  503  502  0.00000000000E+00  0.00000000000E+00  0.88191809850E+03  0.88191809850E+03  0.00000000000E+00 0. -1.
         21   -1    0    0  501  503 -0.00000000000E+00 -0.00000000000E+00 -0.46803048835E+03  0.46803048835E+03  0.00000000000E+00 0. -1.
    9000007    1    1    2  501    0 -0.10844839611E+03 -0.29350354233E+03 -0.20648858935E+03  0.54821795074E+03  0.40000000000E+03 0. -1.
   -9000007    1    1    2    0  502  0.10844839611E+03  0.29350354233E+03  0.62037619950E+03  0.80173063612E+03  0.40000000000E+03 0. -1.
<mgrwt>
<rscale>  2 0.50784386E+03</rscale>
<asrwt>0</asrwt>
<pdfrwt beam="1">  1       21 0.13567971E+00 0.50784386E+03</pdfrwt>
<pdfrwt beam="2">  1       21 0.72004691E-01 0.50784386E+03</pdfrwt>
<totfact> 0.55138448E+02</totfact>
</mgrwt>
</event>
<event>
 4    1  0.4656600E-002  0.4285359E+03  0.7818608E-02  0.1034323E+00
         21   -1    0    0  501  502  0.00000000000E+00  0.00000000000E+00  0.24808482491E+03  0.24808482491E+03  0.00000000000E+00 0.  1.
         21   -1    0    0  502  503 -0.00000000000E+00 -0.00000000000E+00 -0.10243541275E+04  0.10243541275E+04  0.00000000000E+00 0. -1.
    9000007    1    1    2  501    0  0.65119264187E+02  0.13929293987E+03 -0.53071968159E+02  0.43180976769E+03  0.40000000000E+03 0.  1.
   -9000007    1    1    2    0  503 -0.65119264187E+02 -0.13929293987E+03 -0.72319733442E+03  0.84062918471E+03  0.40000000000E+03 0. -1.
<mgrwt>
<rscale>  2 0.42853593E+03</rscale>
<asrwt>0</asrwt>
<pdfrwt beam="1">  1       21 0.38166896E-01 0.42853593E+03</pdfrwt>
<pdfrwt beam="2">  1       21 0.15759294E+00 0.42853593E+03</pdfrwt>
<totfact> 0.14883947E+03</totfact>
</mgrwt>
</event>
<event>
 4    1  0.4656600E-002  0.4490827E+03  0.7818608E-02  0.1027996E+00
         21   -1    0    0  501  502  0.00000000000E+00  0.00000000000E+00  0.73270956224E+03  0.73270956224E+03  0.00000000000E+00 0.  1.
         21   -1    0    0  502  503 -0.00000000000E+00 -0.00000000000E+00 -0.32053646598E+03  0.32053646598E+03  0.00000000000E+00 0.  1.
    9000007    1    1    2  501    0  0.20026636910E+03 -0.39605919112E+02  0.40404103464E+03  0.60408973265E+03  0.40000000000E+03 0. -1.
   -9000007    1    1    2    0  503 -0.20026636910E+03  0.39605919112E+02  0.81320616276E+01  0.44915629557E+03  0.40000000000E+03 0. -1.
<mgrwt>
<rscale>  2 0.44908267E+03</rscale>
<asrwt>0</asrwt>
<pdfrwt beam="1">  1       21 0.11272455E+00 0.44908267E+03</pdfrwt>
<pdfrwt beam="2">  1       21 0.49313303E-01 0.44908267E+03</pdfrwt>
<totfact> 0.20814423E+03</totfact>
</mgrwt>
</event>
<event>
 4    1  0.4656600E-002  0.4251543E+03  0.7818608E-02  0.1035402E+00
         21   -1    0    0  503  502  0.00000000000E+00  0.00000000000E+00  0.44175468680E+03  0.44175468680E+03  0.00000000000E+00 0.  1.
         21   -1    0    0  501  503 -0.00000000000E+00 -0.00000000000E+00 -0.67070489338E+03  0.67070489338E+03  0.00000000000E+00 0.  1.
    9000007    1    1    2  501    0 -0.19730946109E+02 -0.14271262606E+03 -0.46180875633E+03  0.62771293701E+03  0.40000000000E+03 0.  1.
   -9000007    1    1    2    0  502  0.19730946109E+02  0.14271262606E+03  0.23285854974E+03  0.48474664317E+03  0.40000000000E+03 0.  1.
<mgrwt>
<rscale>  2 0.42515433E+03</rscale>
<asrwt>0</asrwt>
<pdfrwt beam="1">  1       21 0.67962260E-01 0.42515433E+03</pdfrwt>
<pdfrwt beam="2">  1       21 0.10318537E+00 0.42515433E+03</pdfrwt>
<totfact> 0.13003380E+03</totfact>
</mgrwt>
</event>
<event>
 4    1  0.4656600E-002  0.4142947E+03  0.7818608E-02  0.1038939E+00
         21   -1    0    0  503  502  0.00000000000E+00  0.00000000000E+00  0.18635889718E+04  0.18635889718E+04  0.00000000000E+00 0. -1.
         21   -1    0    0  501  503 -0.00000000000E+00 -0.00000000000E+00 -0.16219827596E+03  0.16219827596E+03  0.00000000000E+00 0. -1.
    9000007    1    1    2  501    0  0.13603574757E+02 -0.10702820366E+03  0.15165638763E+04  0.15721342451E+04  0.40000000000E+03 0. -1.
   -9000007    1    1    2    0  502 -0.13603574757E+02  0.10702820366E+03  0.18482681954E+03  0.45365300268E+03  0.40000000000E+03 0. -1.
<mgrwt>
<rscale>  2 0.41429469E+03</rscale>
<asrwt>0</asrwt>
<pdfrwt beam="1">  1       21 0.28670598E+00 0.41429469E+03</pdfrwt>
<pdfrwt beam="2">  1       21 0.24953582E-01 0.41429469E+03</pdfrwt>
<totfact> 0.50579294E+02</totfact>
</mgrwt>
</event>
<event>
 4    1  0.4656600E-002  0.4149535E+03  0.7818608E-02  0.1038721E+00
         21   -1    0    0  503  502  0.00000000000E+00  0.00000000000E+00  0.76268504811E+03  0.76268504811E+03  0.00000000000E+00 0.  1.
         21   -1    0    0  501  503 -0.00000000000E+00 -0.00000000000E+00 -0.34987808925E+03  0.34987808925E+03  0.00000000000E+00 0. -1.
    9000007    1    1    2  501    0 -0.56146724402E+02  0.95047036370E+02 -0.12491665909E+03  0.43334808815E+03  0.40000000000E+03 0. -1.
   -9000007    1    1    2    0  502  0.56146724402E+02 -0.95047036370E+02  0.53772361795E+03  0.67921504922E+03  0.40000000000E+03 0.  1.
<mgrwt>
<rscale>  2 0.41495348E+03</rscale>
<asrwt>0</asrwt>
<pdfrwt beam="1">  1       21 0.11733616E+00 0.41495348E+03</pdfrwt>
<pdfrwt beam="2">  1       21 0.53827398E-01 0.41495348E+03</pdfrwt>
<totfact> 0.15834519E+03</totfact>
</mgrwt>
</event>
<event>
 4    1  0.4656600E-002  0.4382438E+03  0.7818608E-02  0.1031287E+00
         21   -1    0    0  503  502  0.00000000000E+00  0.00000000000E+00  0.36588735680E+03  0.36588735680E+03  0.00000000000E+00 0. -1.
         21   -1    0    0  501  503 -0.00000000000E+00 -0.00000000000E+00 -0.14987306790E+04  0.14987306790E+04  0.00000000000E+00 0. -1.
    9000007    1    1    2  501    0 -0.12397665540E+03 -0.12917975070E+03 -0.13179368691E+04  0.13888899200E+04  0.40000000000E+03 0. -1.
   -9000007    1    1    2    0  502  0.12397665540E+03  0.12917975070E+03  0.18509354685E+03  0.47572811580E+03  0.40000000000E+03 0. -1.
<mgrwt>
<rscale>  2 0.43824379E+03</rscale>
<asrwt>0</asrwt>
<pdfrwt beam="1">  1       21 0.56290363E-01 0.43824379E+03</pdfrwt>
<pdfrwt beam="2">  1       21 0.23057395E+00 0.43824379E+03</pdfrwt>
<totfact> 0.20794398E+02</totfact>
</mgrwt>
</event>
<event>
 4    1  0.4656600E-002  0.7192369E+03  0.7818608E-02  0.9684889E-01
         21   -1    0    0  501  502  0.00000000000E+00  0.00000000000E+00  0.88218779364E+03  0.88218779364E+03  0.00000000000E+00 0.  1.
         21   -1    0    0  502  503 -0.00000000000E+00 -0.00000000000E+00 -0.64751531328E+03  0.64751531328E+03  0.00000000000E+00 0. -1.
    9000007    1    1    2  501    0 -0.53392135749E+03  0.26875575435E+03  0.35234308626E+03  0.80090406536E+03  0.40000000000E+03 0. -1.
   -9000007    1    1    2    0  503  0.53392135749E+03 -0.26875575435E+03 -0.11767060590E+03  0.72879904156E+03  0.40000000000E+03 0. -1.
<mgrwt>
<rscale>  2 0.71923687E+03</rscale>
<asrwt>0</asrwt>
<pdfrwt beam="1">  1       21 0.13572120E+00 0.71923687E+03</pdfrwt>
<pdfrwt beam="2">  1       21 0.99617740E-01 0.71923687E+03</pdfrwt>
<totfact> 0.23846613E+02</totfact>
</mgrwt>
</event>
<event>
 4    1  0.4656600E-002  0.4313279E+03  0.7818608E-02  0.1033441E+00
         21   -1    0    0  501  502  0.00000000000E+00  0.00000000000E+00  0.84345722430E+02  0.84345722430E+02  0.00000000000E+00 0. -1.
         21   -1    0    0  502  503 -0.00000000000E+00 -0.00000000000E+00 -0.25118045199E+04  0.25118045199E+04  0.00000000000E+00 0. -1.
    9000007    1    1    2  501    0 -0.14150474013E+03 -0.77589547232E+02 -0.16668583910E+04  0.17217609082E+04  0.40000000000E+03 0. -1.
   -9000007    1    1    2    0  503  0.14150474013E+03  0.77589547232E+02 -0.76060040638E+03  0.87438933405E+03  0.40000000000E+03 0. -1.
<mgrwt>
<rscale>  2 0.43132787E+03</rscale>
<asrwt>0</asrwt>
<pdfrwt beam="1">  1       21 0.12976266E-01 0.43132787E+03</pdfrwt>
<pdfrwt beam="2">  1       21 0.38643142E+00 0.43132787E+03</pdfrwt>
<totfact> 0.42285222E+02</totfact>
</mgrwt>
</event>
<event>
 4    1  0.4656600E-002  0.6149664E+03  0.7818608E-02  0.9874833E-01
         21   -1    0    0  501  502  0.00000000000E+00  0.00000000000E+00  0.38878443931E+03  0.38878443931E+03  0.00000000000E+00 0.  1.
         21   -1    0    0  502  503 -0.00000000000E+00 -0.00000000000E+00 -0.12745201702E+04  0.12745201702E+04  0.00000000000E+00 0. -1.
    9000007    1    1    2  501    0  0.13243453191E+03 -0.44793392992E+03 -0.38181707302E+02  0.61615059327E+03  0.40000000000E+03 0.  1.
   -9000007    1    1    2    0  503 -0.13243453191E+03  0.44793392992E+03 -0.84755402358E+03  0.10471540162E+04  0.40000000000E+03 0.  1.
<mgrwt>
<rscale>  2 0.61496643E+03</rscale>
<asrwt>0</asrwt>
<pdfrwt beam="1">  1       21 0.59812991E-01 0.61496643E+03</pdfrwt>
<pdfrwt beam="2">  1       21 0.19608003E+00 0.61496643E+03</pdfrwt>
<totfact> 0.28206254E+02</totfact>
</mgrwt>
</event>
<event>
 4    1  0.4656600E-002  0.5158386E+03  0.7818608E-02  0.1009726E+00
         21   -1    0    0  503  502  0.00000000000E+00  0.00000000000E+00  0.45593331978E+03  0.45593331978E+03  0.00000000000E+00 0.  1.
         21   -1    0    0  501  503 -0.00000000000E+00 -0.00000000000E+00 -0.70561221210E+03  0.70561221210E+03  0.00000000000E+00 0. -1.
    9000007    1    1    2  501    0 -0.32178953842E+03  0.50408110102E+02 -0.36632897668E+03  0.63268191357E+03  0.40000000000E+03 0. -1.
   -9000007    1    1    2    0  502  0.32178953842E+03 -0.50408110102E+02  0.11665008435E+03  0.52886361832E+03  0.40000000000E+03 0.  1.
<mgrwt>
<rscale>  2 0.51583862E+03</rscale>
<asrwt>0</asrwt>
<pdfrwt beam="1">  1       21 0.70143588E-01 0.51583862E+03</pdfrwt>
<pdfrwt beam="2">  1       21 0.10855572E+00 0.51583862E+03</pdfrwt>
<totfact> 0.10316515E+03</totfact>
</mgrwt>
</event>
<event>
 4    1  0.4656600E-002  0.4638632E+03  0.7818608E-02  0.1023667E+00
         21   -1    0    0  501  502  0.00000000000E+00  0.00000000000E+00  0.12339193219E+04  0.12339193219E+04  0.00000000000E+00 0. -1.
         21   -1    0    0  502  503 -0.00000000000E+00 -0.00000000000E+00 -0.17445753019E+03  0.17445753019E+03  0.00000000000E+00 0. -1.
    9000007    1    1    2  501    0  0.76743810654E+02  0.22198971126E+03  0.51474637845E+03  0.69291621319E+03  0.40000000000E+03 0. -1.
   -9000007    1    1    2    0  503 -0.76743810654E+02 -0.22198971126E+03  0.54471541329E+03  0.71546063893E+03  0.40000000000E+03 0. -1.
<mgrwt>
<rscale>  2 0.46386317E+03</rscale>
<asrwt>0</asrwt>
<pdfrwt beam="1">  1       21 0.18983374E+00 0.46386317E+03</pdfrwt>
<pdfrwt beam="2">  1       21 0.26839621E-01 0.46386317E+03</pdfrwt>
<totfact> 0.17382659E+03</totfact>
</mgrwt>
</event>
<event>
 4    1  0.4656600E-002  0.5294480E+03  0.7818608E-02  0.1006366E+00
         21   -1    0    0  503  502  0.00000000000E+00  0.00000000000E+00  0.43811761411E+03  0.43811761411E+03  0.00000000000E+00 0.  1.
         21   -1    0    0  501  503 -0.00000000000E+00 -0.00000000000E+00 -0.65359311440E+03  0.65359311440E+03  0.00000000000E+00 0.  1.
    9000007    1    1    2  501    0 -0.34136696241E+03  0.61512231893E+02 -0.18698515577E+03  0.56149675527E+03  0.40000000000E+03 0.  1.
   -9000007    1    1    2    0  502  0.34136696241E+03 -0.61512231893E+02 -0.28490344522E+02  0.53021397325E+03  0.40000000000E+03 0.  1.
<mgrwt>
<rscale>  2 0.52944797E+03</rscale>
<asrwt>0</asrwt>
<pdfrwt beam="1">  1       21 0.67402710E-01 0.52944797E+03</pdfrwt>
<pdfrwt beam="2">  1       21 0.10055279E+00 0.52944797E+03</pdfrwt>
<totfact> 0.13570420E+03</totfact>
</mgrwt>
</event>
<event>
 4    1  0.4656600E-002  0.4525525E+03  0.7818608E-02  0.1026964E+00
         21   -1    0    0  501  502  0.00000000000E+00  0.00000000000E+00  0.21178642395E+03  0.21178642395E+03  0.00000000000E+00 0.  1.
         21   -1    0    0  502  503 -0.00000000000E+00 -0.00000000000E+00 -0.31192815608E+04  0.31192815608E+04  0.00000000000E+00 0.  1.
    9000007    1    1    2  501    0 -0.17025467070E+03  0.12576614309E+03 -0.70267995148E+02  0.45797529059E+03  0.40000000000E+03 0.  1.
   -9000007    1    1    2    0  503  0.17025467070E+03 -0.12576614309E+03 -0.28372271417E+04  0.28730926942E+04  0.40000000000E+03 0.  1.
<mgrwt>
<rscale>  2 0.45255251E+03</rscale>
<asrwt>0</asrwt>
<pdfrwt beam="1">  1       21 0.32582527E-01 0.45255251E+03</pdfrwt>
<pdfrwt beam="2">  1       21 0.47988946E+00 0.45255251E+03</pdfrwt>
<totfact> 0.17142531E+01</totfact>
</mgrwt>
</event>
<event>
 4    1  0.4656600E-002  0.4579770E+03  0.7818608E-02  0.1025370E+00
         21   -1    0    0  503  502  0.00000000000E+00  0.00000000000E+00  0.27495685410E+03  0.27495685410E+03  0.00000000000E+00 0. -1.
         21   -1    0    0  501  503 -0.00000000000E+00 -0.00000000000E+00 -0.90636827889E+03  0.90636827889E+03  0.00000000000E+00 0. -1.
    9000007    1    1    2  501    0 -0.12459035068E+03 -0.18498695827E+03 -0.55076867657E+03  0.71630235606E+03  0.40000000000E+03 0. -1.
   -9000007    1    1    2    0  502  0.12459035068E+03  0.18498695827E+03 -0.80642748226E+02  0.46502277692E+03  0.40000000000E+03 0. -1.
<mgrwt>
<rscale>  2 0.45797700E+03</rscale>
<asrwt>0</asrwt>
<pdfrwt beam="1">  1       21 0.42301053E-01 0.45797700E+03</pdfrwt>
<pdfrwt beam="2">  1       21 0.13944128E+00 0.45797700E+03</pdfrwt>
<totfact> 0.16567359E+03</totfact>
</mgrwt>
</event>
<event>
 4    1  0.4656600E-002  0.5059585E+03  0.7818608E-02  0.1012235E+00
         21   -1    0    0  503  502  0.00000000000E+00  0.00000000000E+00  0.79319584996E+03  0.79319584996E+03  0.00000000000E+00 0. -1.
         21   -1    0    0  501  503 -0.00000000000E+00 -0.00000000000E+00 -0.33556813135E+03  0.33556813135E+03  0.00000000000E+00 0.  1.
    9000007    1    1    2  501    0 -0.60573548224E+02 -0.30385001288E+03  0.11845477259E+03  0.51963979661E+03  0.40000000000E+03 0.  1.
   -9000007    1    1    2    0  502  0.60573548224E+02  0.30385001288E+03  0.33917294601E+03  0.60912418469E+03  0.40000000000E+03 0. -1.
<mgrwt>
<rscale>  2 0.50595848E+03</rscale>
<asrwt>0</asrwt>
<pdfrwt beam="1">  1       21 0.12203013E+00 0.50595848E+03</pdfrwt>
<pdfrwt beam="2">  1       21 0.51625866E-01 0.50595848E+03</pdfrwt>
<totfact> 0.15132227E+03</totfact>
</mgrwt>
</event>
<event>
 4    1  0.4656600E-002  0.4866199E+03  0.7818608E-02  0.1017332E+00
         21   -1    0    0  501  502  0.00000000000E+00  0.00000000000E+00  0.10240854272E+04  0.10240854272E+04  0.00000000000E+00 0. -1.
         21   -1    0    0  502  503 -0.00000000000E+00 -0.00000000000E+00 -0.68048455933E+03  0.68048455933E+03  0.00000000000E+00 0. -1.
    9000007    1    1    2  501    0  0.51321703931E+02 -0.27233255957E+03  0.86430414938E+03  0.99187731244E+03  0.40000000000E+03 0. -1.
   -9000007    1    1    2    0  503 -0.51321703931E+02  0.27233255957E+03 -0.52070328152E+03  0.71269267408E+03  0.40000000000E+03 0. -1.
<mgrwt>
<rscale>  2 0.48661991E+03</rscale>
<asrwt>0</asrwt>
<pdfrwt beam="1">  1       21 0.15755160E+00 0.48661991E+03</pdfrwt>
<pdfrwt beam="2">  1       21 0.10468993E+00 0.48661991E+03</pdfrwt>
<totfact> 0.15358269E+02</totfact>
</mgrwt>
</event>
<event>
 4    1  0.4656600E-002  0.4068673E+03  0.7818608E-02  0.1041427E+00
         21   -1    0    0  501  502  0.00000000000E+00  0.00000000000E+00  0.10876576652E+03  0.10876576652E+03  0.00000000000E+00 0. -1.
         21   -1    0    0  502  503 -0.00000000000E+00 -0.00000000000E+00 -0.17486306680E+04  0.17486306680E+04  0.00000000000E+00 0. -1.
    9000007    1    1    2  501    0 -0.56359908337E+02  0.48626638826E+02 -0.48559165217E+03  0.63351420026E+03  0.40000000000E+03 0. -1.
   -9000007    1    1    2    0  503  0.56359908337E+02 -0.48626638826E+02 -0.11542732493E+04  0.12238822343E+04  0.40000000000E+03 0. -1.
<mgrwt>
<rscale>  2 0.40686729E+03</rscale>
<asrwt>0</asrwt>
<pdfrwt beam="1">  1       21 0.16733196E-01 0.40686729E+03</pdfrwt>
<pdfrwt beam="2">  1       21 0.26902009E+00 0.40686729E+03</pdfrwt>
<totfact> 0.13885680E+03</totfact>
</mgrwt>
</event>
<event>
 4    1  0.4656600E-002  0.4534163E+03  0.7818608E-02  0.1026708E+00
         21   -1    0    0  501  502  0.00000000000E+00  0.00000000000E+00  0.27041214858E+03  0.27041214858E+03  0.00000000000E+00 0. -1.
         21   -1    0    0  502  503 -0.00000000000E+00 -0.00000000000E+00 -0.11144849034E+04  0.11144849034E+04  0.00000000000E+00 0. -1.
    9000007    1    1    2  501    0  0.21348515506E+03 -0.32263113692E+01 -0.31659898905E+02  0.45452026326E+03  0.40000000000E+03 0. -1.
   -9000007    1    1    2    0  503 -0.21348515506E+03  0.32263113692E+01 -0.81241285588E+03  0.93037678868E+03  0.40000000000E+03 0. -1.
<mgrwt>
<rscale>  2 0.45341628E+03</rscale>
<asrwt>0</asrwt>
<pdfrwt beam="1">  1       21 0.41601869E-01 0.45341628E+03</pdfrwt>
<pdfrwt beam="2">  1       21 0.17145921E+00 0.45341628E+03</pdfrwt>
<totfact> 0.97278963E+02</totfact>
</mgrwt>
</event>
<event>
 4    1  0.4656600E-002  0.4061734E+03  0.7818608E-02  0.1041663E+00
         21   -1    0    0  503  502  0.00000000000E+00  0.00000000000E+00  0.74217318863E+03  0.74217318863E+03  0.00000000000E+00 0.  1.
         21   -1    0    0  501  503 -0.00000000000E+00 -0.00000000000E+00 -0.22251814507E+03  0.22251814507E+03  0.00000000000E+00 0.  1.
    9000007    1    1    2  501    0  0.62802567996E+02  0.32134546762E+02  0.24434238410E+03  0.47400421128E+03  0.40000000000E+03 0. -1.
   -9000007    1    1    2    0  502 -0.62802567996E+02 -0.32134546762E+02  0.27531265946E+03  0.49068712241E+03  0.40000000000E+03 0. -1.
<mgrwt>
<rscale>  2 0.40617335E+03</rscale>
<asrwt>0</asrwt>
<pdfrwt beam="1">  1       21 0.11418049E+00 0.40617335E+03</pdfrwt>
<pdfrwt beam="2">  1       21 0.34233561E-01 0.40617335E+03</pdfrwt>
<totfact> 0.43562346E+03</totfact>
</mgrwt>
</event>
<event>
 4    1  0.4656600E-002  0.4137994E+03  0.7818608E-02  0.1039103E+00
         21   -1    0    0  501  502  0.00000000000E+00  0.00000000000E+00  0.46373035648E+03  0.46373035648E+03  0.00000000000E+00 0.  1.
         21   -1    0    0  502  503 -0.00000000000E+00 -0.00000000000E+00 -0.48683697815E+03  0.48683697815E+03  0.00000000000E+00 0.  1.
    9000007    1    1    2  501    0  0.49481408543E+02 -0.93709750858E+02 -0.24514140820E+03  0.48096178353E+03  0.40000000000E+03 0.  1.
   -9000007    1    1    2    0  503 -0.49481408543E+02  0.93709750858E+02  0.22203478654E+03  0.46960555111E+03  0.40000000000E+03 0.  1.
<mgrwt>
<rscale>  2 0.41379938E+03</rscale>
<asrwt>0</asrwt>
<pdfrwt beam="1">  1       21 0.71343132E-01 0.41379938E+03</pdfrwt>
<pdfrwt beam="2">  1       21 0.74897997E-01 0.41379938E+03</pdfrwt>
<totfact> 0.24912353E+03</totfact>
</mgrwt>
</event>
<event>
 4    1  0.4656600E-002  0.5508535E+03  0.7818608E-02  0.1001297E+00
         21   -1    0    0  503  502  0.00000000000E+00  0.00000000000E+00  0.19388705330E+03  0.19388705330E+03  0.00000000000E+00 0.  1.
         21   -1    0    0  501  503 -0.00000000000E+00 -0.00000000000E+00 -0.16936513802E+04  0.16936513802E+04  0.00000000000E+00 0.  1.
    9000007    1    1    2  501    0  0.35870263674E+03  0.12154015901E+03 -0.10099614144E+04  0.11504180329E+04  0.40000000000E+03 0.  1.
   -9000007    1    1    2    0  502 -0.35870263674E+03 -0.12154015901E+03 -0.48980291248E+03  0.73712040057E+03  0.40000000000E+03 0.  1.
<mgrwt>
<rscale>  2 0.55085351E+03</rscale>
<asrwt>0</asrwt>
<pdfrwt beam="1">  1       21 0.29828777E-01 0.55085351E+03</pdfrwt>
<pdfrwt beam="2">  1       21 0.26056175E+00 0.55085351E+03</pdfrwt>
<totfact> 0.47824397E+02</totfact>
</mgrwt>
</event>
<event>
 4    1  0.4656600E-002  0.4122465E+03  0.7818608E-02  0.1039620E+00
         21   -1    0    0  501  502  0.00000000000E+00  0.00000000000E+00  0.13849687093E+04  0.13849687093E+04  0.00000000000E+00 0. -1.
         21   -1    0    0  502  503 -0.00000000000E+00 -0.00000000000E+00 -0.13023926763E+03  0.13023926763E+03  0.00000000000E+00 0. -1.
    9000007    1    1    2  501    0 -0.86259258158E+02 -0.50065441037E+02  0.80954257600E+03  0.90846375292E+03  0.40000000000E+03 0. -1.
   -9000007    1    1    2    0  503  0.86259258158E+02  0.50065441037E+02  0.44518686566E+03  0.60674422400E+03  0.40000000000E+03 0. -1.
<mgrwt>
<rscale>  2 0.41224654E+03</rscale>
<asrwt>0</asrwt>
<pdfrwt beam="1">  1       21 0.21307210E+00 0.41224654E+03</pdfrwt>
<pdfrwt beam="2">  1       21 0.20036811E-01 0.41224654E+03</pdfrwt>
<totfact> 0.21909782E+03</totfact>
</mgrwt>
</event>
<event>
 4    1  0.4656600E-002  0.4230156E+03  0.7818608E-02  0.1036089E+00
         21   -1    0    0  501  502  0.00000000000E+00  0.00000000000E+00  0.12361630241E+03  0.12361630241E+03  0.00000000000E+00 0. -1.
         21   -1    0    0  502  503 -0.00000000000E+00 -0.00000000000E+00 -0.14494942633E+04  0.14494942633E+04  0.00000000000E+00 0.  1.
    9000007    1    1    2  501    0  0.14553765822E+02  0.13685889262E+03 -0.69166258994E+03  0.81076464335E+03  0.40000000000E+03 0.  1.
   -9000007    1    1    2    0  503 -0.14553765822E+02 -0.13685889262E+03 -0.63421537093E+03  0.76234592234E+03  0.40000000000E+03 0.  1.
<mgrwt>
<rscale>  2 0.42301557E+03</rscale>
<asrwt>0</asrwt>
<pdfrwt beam="1">  1       21 0.19017892E-01 0.42301557E+03</pdfrwt>
<pdfrwt beam="2">  1       21 0.22299912E+00 0.42301557E+03</pdfrwt>
<totfact> 0.20792530E+03</totfact>
</mgrwt>
</event>
<event>
 4    1  0.4656600E-002  0.5117342E+03  0.7818608E-02  0.1010761E+00
         21   -1    0    0  503  502  0.00000000000E+00  0.00000000000E+00  0.52807786988E+03  0.52807786988E+03  0.00000000000E+00 0.  1.
         21   -1    0    0  501  503 -0.00000000000E+00 -0.00000000000E+00 -0.56066815659E+03  0.56066815659E+03  0.00000000000E+00 0.  1.
    9000007    1    1    2  501    0 -0.24936390243E+03  0.19922238322E+03 -0.20132273008E+03  0.54991158876E+03  0.40000000000E+03 0.  1.
   -9000007    1    1    2    0  502  0.24936390243E+03 -0.19922238322E+03  0.16873244338E+03  0.53883443771E+03  0.40000000000E+03 0.  1.
<mgrwt>
<rscale>  2 0.51173422E+03</rscale>
<asrwt>0</asrwt>
<pdfrwt beam="1">  1       21 0.81242749E-01 0.51173422E+03</pdfrwt>
<pdfrwt beam="2">  1       21 0.86256639E-01 0.51173422E+03</pdfrwt>
<totfact> 0.12869221E+03</totfact>
</mgrwt>
</event>
<event>
 4    1  0.4656600E-002  0.4213412E+03  0.7818608E-02  0.1036631E+00
         21   -1    0    0  503  502  0.00000000000E+00  0.00000000000E+00  0.65462804660E+03  0.65462804660E+03  0.00000000000E+00 0.  1.
         21   -1    0    0  501  503 -0.00000000000E+00 -0.00000000000E+00 -0.27321260028E+03  0.27321260028E+03  0.00000000000E+00 0.  1.
    9000007    1    1    2  501    0  0.77030211735E+02 -0.10767892017E+03  0.15078896460E+03  0.44751057553E+03  0.40000000000E+03 0.  1.
   -9000007    1    1    2    0  502 -0.77030211735E+02  0.10767892017E+03  0.23062648172E+03  0.48033007134E+03  0.40000000000E+03 0.  1.
<mgrwt>
<rscale>  2 0.42134120E+03</rscale>
<asrwt>0</asrwt>
<pdfrwt beam="1">  1       21 0.10071201E+00 0.42134120E+03</pdfrwt>
<pdfrwt beam="2">  1       21 0.42032708E-01 0.42134120E+03</pdfrwt>
<totfact> 0.38812925E+03</totfact>
</mgrwt>
</event>
<event>
 4    1  0.4656600E-002  0.4485372E+03  0.7818608E-02  0.1028159E+00
         21   -1    0    0  503  502  0.00000000000E+00  0.00000000000E+00  0.24079328656E+04  0.24079328656E+04  0.00000000000E+00 0.  1.
         21   -1    0    0  501  503 -0.00000000000E+00 -0.00000000000E+00 -0.11532615151E+03  0.11532615151E+03  0.00000000000E+00 0. -1.
    9000007    1    1    2  501    0 -0.19659415262E+03 -0.50362185817E+02  0.18085360009E+04  0.18633271524E+04  0.40000000000E+03 0. -1.
   -9000007    1    1    2    0  502  0.19659415262E+03  0.50362185817E+02  0.48407071328E+03  0.65993186471E+03  0.40000000000E+03 0. -1.
<mgrwt>
<rscale>  2 0.44853719E+03</rscale>
<asrwt>0</asrwt>
<pdfrwt beam="1">  1       21 0.37045117E+00 0.44853719E+03</pdfrwt>
<pdfrwt beam="2">  1       21 0.17742487E-01 0.44853719E+03</pdfrwt>
<totfact> 0.29475148E+02</totfact>
</mgrwt>
</event>
<event>
 4    1  0.4656600E-002  0.5162018E+03  0.7818608E-02  0.1009634E+00
         21   -1    0    0  503  502  0.00000000000E+00  0.00000000000E+00  0.11183711329E+03  0.11183711329E+03  0.00000000000E+00 0. -1.
         21   -1    0    0  501  503 -0.00000000000E+00 -0.00000000000E+00 -0.25224580043E+04  0.25224580043E+04  0.00000000000E+00 0. -1.
    9000007    1    1    2  501    0 -0.13395748328E+03  0.29752257071E+03 -0.89517620153E+03  0.10333463694E+04  0.40000000000E+03 0. -1.
   -9000007    1    1    2    0  502  0.13395748328E+03 -0.29752257071E+03 -0.15154446895E+04  0.16009487482E+04  0.40000000000E+03 0. -1.
<mgrwt>
<rscale>  2 0.51620179E+03</rscale>
<asrwt>0</asrwt>
<pdfrwt beam="1">  1       21 0.17205710E-01 0.51620179E+03</pdfrwt>
<pdfrwt beam="2">  1       21 0.38807047E+00 0.51620179E+03</pdfrwt>
<totfact> 0.23212622E+02</totfact>
</mgrwt>
</event>
<event>
 4    1  0.4656600E-002  0.4047745E+03  0.7818608E-02  0.1042139E+00
         21   -1    0    0  501  502  0.00000000000E+00  0.00000000000E+00  0.10233566011E+03  0.10233566011E+03  0.00000000000E+00 0. -1.
         21   -1    0    0  502  503 -0.00000000000E+00 -0.00000000000E+00 -0.16928358710E+04  0.16928358710E+04  0.00000000000E+00 0. -1.
    9000007    1    1    2  501    0 -0.47338992981E+02 -0.40017501170E+02 -0.58622154216E+03  0.71238899286E+03  0.40000000000E+03 0. -1.
   -9000007    1    1    2    0  503  0.47338992981E+02  0.40017501170E+02 -0.10042786687E+04  0.10827825382E+04  0.40000000000E+03 0. -1.
<mgrwt>
<rscale>  2 0.40477448E+03</rscale>
<asrwt>0</asrwt>
<pdfrwt beam="1">  1       21 0.15743947E-01 0.40477448E+03</pdfrwt>
<pdfrwt beam="2">  1       21 0.26043630E+00 0.40477448E+03</pdfrwt>
<totfact> 0.17548976E+03</totfact>
</mgrwt>
</event>
<event>
 4    1  0.4656600E-002  0.4721938E+03  0.7818608E-02  0.1021303E+00
         21   -1    0    0  503  502  0.00000000000E+00  0.00000000000E+00  0.33349505009E+03  0.33349505009E+03  0.00000000000E+00 0.  1.
         21   -1    0    0  501  503 -0.00000000000E+00 -0.00000000000E+00 -0.67248541086E+03  0.67248541086E+03  0.00000000000E+00 0.  1.
    9000007    1    1    2  501    0  0.24207104114E+03 -0.66095005227E+02 -0.13114667477E+03  0.49006773917E+03  0.40000000000E+03 0.  1.
   -9000007    1    1    2    0  502 -0.24207104114E+03  0.66095005227E+02 -0.20784368601E+03  0.51591272178E+03  0.40000000000E+03 0.  1.
<mgrwt>
<rscale>  2 0.47219375E+03</rscale>
<asrwt>0</asrwt>
<pdfrwt beam="1">  1       21 0.51306931E-01 0.47219375E+03</pdfrwt>
<pdfrwt beam="2">  1       21 0.10345929E+00 0.47219375E+03</pdfrwt>
<totfact> 0.23453312E+03</totfact>
</mgrwt>
</event>
<event>
 4    1  0.4656600E-002  0.6058098E+03  0.7818608E-02  0.9893425E-01
         21   -1    0    0  501  502  0.00000000000E+00  0.00000000000E+00  0.57457439153E+03  0.57457439153E+03  0.00000000000E+00 0.  1.
         21   -1    0    0  502  503 -0.00000000000E+00 -0.00000000000E+00 -0.11237164163E+04  0.11237164163E+04  0.00000000000E+00 0. -1.
    9000007    1    1    2  501    0  0.36872509425E+03 -0.26654695071E+03  0.28327275885E+03  0.66876672164E+03  0.40000000000E+03 0.  1.
   -9000007    1    1    2    0  503 -0.36872509425E+03  0.26654695071E+03 -0.83241478363E+03  0.10295240862E+04  0.40000000000E+03 0. -1.
<mgrwt>
<rscale>  2 0.60580977E+03</rscale>
<asrwt>0</asrwt>
<pdfrwt beam="1">  1       21 0.88396062E-01 0.60580977E+03</pdfrwt>
<pdfrwt beam="2">  1       21 0.17287945E+00 0.60580977E+03</pdfrwt>
<totfact> 0.16879432E+02</totfact>
</mgrwt>
</event>
<event>
 4    1  0.4656600E-002  0.4417293E+03  0.7818608E-02  0.1030218E+00
         21   -1    0    0  503  502  0.00000000000E+00  0.00000000000E+00  0.74505243346E+03  0.74505243346E+03  0.00000000000E+00 0. -1.
         21   -1    0    0  501  503 -0.00000000000E+00 -0.00000000000E+00 -0.26509007201E+03  0.26509007201E+03  0.00000000000E+00 0. -1.
    9000007    1    1    2  501    0 -0.51872698650E+02  0.18009452431E+03  0.18452379342E+03  0.47872105123E+03  0.40000000000E+03 0.  1.
   -9000007    1    1    2    0  502  0.51872698650E+02 -0.18009452431E+03  0.29543856803E+03  0.53142145424E+03  0.40000000000E+03 0.  1.
<mgrwt>
<rscale>  2 0.44172935E+03</rscale>
<asrwt>0</asrwt>
<pdfrwt beam="1">  1       21 0.11462345E+00 0.44172935E+03</pdfrwt>
<pdfrwt beam="2">  1       21 0.40783088E-01 0.44172935E+03</pdfrwt>
<totfact> 0.29795163E+03</totfact>
</mgrwt>
</event>
<event>
 4    1  0.4656600E-002  0.4376161E+03  0.7818608E-02  0.1031481E+00
         21   -1    0    0  503  502  0.00000000000E+00  0.00000000000E+00  0.13813062049E+03  0.13813062049E+03  0.00000000000E+00 0.  1.
         21   -1    0    0  501  503 -0.00000000000E+00 -0.00000000000E+00 -0.18383728379E+04  0.18383728379E+04  0.00000000000E+00 0. -1.
    9000007    1    1    2  501    0 -0.17199188544E+03  0.43893290296E+02 -0.13401194949E+04  0.14097617140E+04  0.40000000000E+03 0. -1.
   -9000007    1    1    2    0  502  0.17199188544E+03 -0.43893290296E+02 -0.36012272249E+03  0.56674174440E+03  0.40000000000E+03 0.  1.
<mgrwt>
<rscale>  2 0.43761608E+03</rscale>
<asrwt>0</asrwt>
<pdfrwt beam="1">  1       21 0.21250864E-01 0.43761608E+03</pdfrwt>
<pdfrwt beam="2">  1       21 0.28282661E+00 0.43761608E+03</pdfrwt>
<totfact> 0.71764165E+02</totfact>
</mgrwt>
</event>
<event>
 4    1  0.4656600E-002  0.4063047E+03  0.7818608E-02  0.1041618E+00
         21   -1    0    0  503  502  0.00000000000E+00  0.00000000000E+00  0.40116851390E+03  0.40116851390E+03  0.00000000000E+00 0.  1.
         21   -1    0    0  501  503 -0.00000000000E+00 -0.00000000000E+00 -0.53950998703E+03  0.53950998703E+03  0.00000000000E+00 0.  1.
    9000007    1    1    2  501    0  0.83763214806E+01 -0.70805043018E+02 -0.29826916001E+03  0.50403175366E+03  0.40000000000E+03 0.  1.
   -9000007    1    1    2    0  502 -0.83763214806E+01  0.70805043018E+02  0.15992768688E+03  0.43664674728E+03  0.40000000000E+03 0.  1.
<mgrwt>
<rscale>  2 0.40630471E+03</rscale>
<asrwt>0</asrwt>
<pdfrwt beam="1">  1       21 0.61718233E-01 0.40630471E+03</pdfrwt>
<pdfrwt beam="2">  1       21 0.83001536E-01 0.40630471E+03</pdfrwt>
<totfact> 0.27242903E+03</totfact>
</mgrwt>
</event>
<event>
 4    1  0.4656600E-002  0.4995863E+03  0.7818608E-02  0.1013887E+00
         21   -1    0    0  503  502  0.00000000000E+00  0.00000000000E+00  0.31400644593E+03  0.31400644593E+03  0.00000000000E+00 0.  1.
         21   -1    0    0  501  503 -0.00000000000E+00 -0.00000000000E+00 -0.83194398404E+03  0.83194398404E+03  0.00000000000E+00 0.  1.
    9000007    1    1    2  501    0 -0.16961758677E+03 -0.24660966732E+03 -0.37996443028E+03  0.62766186919E+03  0.40000000000E+03 0.  1.
   -9000007    1    1    2    0  502  0.16961758677E+03  0.24660966732E+03 -0.13797310783E+03  0.51828856078E+03  0.40000000000E+03 0.  1.
<mgrwt>
<rscale>  2 0.49958628E+03</rscale>
<asrwt>0</asrwt>
<pdfrwt beam="1">  1       21 0.48308684E-01 0.49958628E+03</pdfrwt>
<pdfrwt beam="2">  1       21 0.12799138E+00 0.49958628E+03</pdfrwt>
<totfact> 0.15449511E+03</totfact>
</mgrwt>
</event>
<event>
 4    1  0.4656600E-002  0.4333429E+03  0.7818608E-02  0.1032809E+00
         21   -1    0    0  501  502  0.00000000000E+00  0.00000000000E+00  0.76251454004E+03  0.76251454004E+03  0.00000000000E+00 0. -1.
         21   -1    0    0  502  503 -0.00000000000E+00 -0.00000000000E+00 -0.61817402148E+03  0.61817402148E+03  0.00000000000E+00 0. -1.
    9000007    1    1    2  501    0  0.16518462734E+03 -0.22363605923E+02  0.60762718546E+03  0.74632224172E+03  0.40000000000E+03 0. -1.
   -9000007    1    1    2    0  503 -0.16518462734E+03  0.22363605923E+02 -0.46328666690E+03  0.63436631981E+03  0.40000000000E+03 0. -1.
<mgrwt>
<rscale>  2 0.43334293E+03</rscale>
<asrwt>0</asrwt>
<pdfrwt beam="1">  1       21 0.11730993E+00 0.43334293E+03</pdfrwt>
<pdfrwt beam="2">  1       21 0.95103695E-01 0.43334293E+03</pdfrwt>
<totfact> 0.43347490E+02</totfact>
</mgrwt>
</event>
<event>
 4    1  0.4656600E-002  0.4155767E+03  0.7818608E-02  0.1038516E+00
         21   -1    0    0  501  502  0.00000000000E+00  0.00000000000E+00  0.38191990210E+03  0.38191990210E+03  0.00000000000E+00 0. -1.
         21   -1    0    0  502  503 -0.00000000000E+00 -0.00000000000E+00 -0.45457024746E+03  0.45457024746E+03  0.00000000000E+00 0. -1.
    9000007    1    1    2  501    0  0.17679052272E+02  0.11131690947E+03 -0.66529524005E+02  0.42086836515E+03  0.40000000000E+03 0. -1.
   -9000007    1    1    2    0  503 -0.17679052272E+02 -0.11131690947E+03 -0.61208213565E+01  0.41562178441E+03  0.40000000000E+03 0. -1.
<mgrwt>
<rscale>  2 0.41557671E+03</rscale>
<asrwt>0</asrwt>
<pdfrwt beam="1">  1       21 0.58756908E-01 0.41557671E+03</pdfrwt>
<pdfrwt beam="2">  1       21 0.69933884E-01 0.41557671E+03</pdfrwt>
<totfact> 0.44705357E+03</totfact>
</mgrwt>
</event>
<event>
 4    1  0.4656600E-002  0.4492829E+03  0.7818608E-02  0.1027936E+00
         21   -1    0    0  503  502  0.00000000000E+00  0.00000000000E+00  0.21488998637E+04  0.21488998637E+04  0.00000000000E+00 0.  1.
         21   -1    0    0  501  503 -0.00000000000E+00 -0.00000000000E+00 -0.95006788326E+02  0.95006788326E+02  0.00000000000E+00 0.  1.
    9000007    1    1    2  501    0 -0.16404060434E+03 -0.12225295263E+03  0.90773397098E+03  0.10128356562E+04  0.40000000000E+03 0.  1.
   -9000007    1    1    2    0  502  0.16404060434E+03  0.12225295263E+03  0.11461591044E+04  0.12310709959E+04  0.40000000000E+03 0.  1.
<mgrwt>
<rscale>  2 0.44928288E+03</rscale>
<asrwt>0</asrwt>
<pdfrwt beam="1">  1       21 0.33059994E+00 0.44928288E+03</pdfrwt>
<pdfrwt beam="2">  1       21 0.14616431E-01 0.44928288E+03</pdfrwt>
<totfact> 0.74317349E+02</totfact>
</mgrwt>
</event>
<event>
 4    1  0.4656600E-002  0.6260936E+03  0.7818608E-02  0.9852702E-01
         21   -1    0    0  503  502  0.00000000000E+00  0.00000000000E+00  0.22806376024E+03  0.22806376024E+03  0.00000000000E+00 0. -1.
         21   -1    0    0  501  503 -0.00000000000E+00 -0.00000000000E+00 -0.18011043630E+04  0.18011043630E+04  0.00000000000E+00 0. -1.
    9000007    1    1    2  501    0 -0.46369483520E+03  0.13030863742E+03 -0.10034214419E+04  0.11827289762E+04  0.40000000000E+03 0. -1.
   -9000007    1    1    2    0  502  0.46369483520E+03 -0.13030863742E+03 -0.56961916089E+03  0.84643914703E+03  0.40000000000E+03 0. -1.
<mgrwt>
<rscale>  2 0.62609364E+03</rscale>
<asrwt>0</asrwt>
<pdfrwt beam="1">  1       21 0.35086731E-01 0.62609364E+03</pdfrwt>
<pdfrwt beam="2">  1       21 0.27709299E+00 0.62609364E+03</pdfrwt>
<totfact> 0.26454757E+02</totfact>
</mgrwt>
</event>
<event>
 4    1  0.4656600E-002  0.5659694E+03  0.7818608E-02  0.9978638E-01
         21   -1    0    0  501  502  0.00000000000E+00  0.00000000000E+00  0.48313030131E+03  0.48313030131E+03  0.00000000000E+00 0. -1.
         21   -1    0    0  502  503 -0.00000000000E+00 -0.00000000000E+00 -0.66537850290E+03  0.66537850290E+03  0.00000000000E+00 0. -1.
    9000007    1    1    2  501    0 -0.17903185408E+03  0.35814654839E+03 -0.56879536552E+02  0.56882039043E+03  0.40000000000E+03 0. -1.
   -9000007    1    1    2    0  503  0.17903185408E+03 -0.35814654839E+03 -0.12536866503E+03  0.57968841378E+03  0.40000000000E+03 0. -1.
<mgrwt>
<rscale>  2 0.56596939E+03</rscale>
<asrwt>0</asrwt>
<pdfrwt beam="1">  1       21 0.74327739E-01 0.56596939E+03</pdfrwt>
<pdfrwt beam="2">  1       21 0.10236592E+00 0.56596939E+03</pdfrwt>
<totfact> 0.10281408E+03</totfact>
</mgrwt>
</event>
<event>
 4    1  0.4656600E-002  0.7785701E+03  0.7818608E-02  0.9591565E-01
         21   -1    0    0  503  502  0.00000000000E+00  0.00000000000E+00  0.49256152279E+03  0.49256152279E+03  0.00000000000E+00 0.  1.
         21   -1    0    0  501  503 -0.00000000000E+00 -0.00000000000E+00 -0.17311333561E+04  0.17311333561E+04  0.00000000000E+00 0. -1.
    9000007    1    1    2  501    0 -0.61111024601E+03  0.26965837375E+03 -0.12171112130E+04  0.14448290820E+04  0.40000000000E+03 0. -1.
   -9000007    1    1    2    0  502  0.61111024601E+03 -0.26965837375E+03 -0.21460620256E+02  0.77886579687E+03  0.40000000000E+03 0.  1.
<mgrwt>
<rscale>  2 0.77857008E+03</rscale>
<asrwt>0</asrwt>
<pdfrwt beam="1">  1       21 0.75778696E-01 0.77857008E+03</pdfrwt>
<pdfrwt beam="2">  1       21 0.26632821E+00 0.77857008E+03</pdfrwt>
<totfact> 0.55010711E+01</totfact>
</mgrwt>
</event>
<event>
 4    1  0.4656600E-002  0.4803251E+03  0.7818608E-02  0.1019046E+00
         21   -1    0    0  501  502  0.00000000000E+00  0.00000000000E+00  0.25964328210E+03  0.25964328210E+03  0.00000000000E+00 0.  1.
         21   -1    0    0  502  503 -0.00000000000E+00 -0.00000000000E+00 -0.12759525355E+04  0.12759525355E+04  0.00000000000E+00 0.  1.
    9000007    1    1    2  501    0 -0.48363901934E+02  0.26148254370E+03 -0.85098860332E+02  0.48780529282E+03  0.40000000000E+03 0.  1.
   -9000007    1    1    2    0  503  0.48363901934E+02 -0.26148254370E+03 -0.93121039307E+03  0.10477905248E+04  0.40000000000E+03 0.  1.
<mgrwt>
<rscale>  2 0.48032509E+03</rscale>
<asrwt>0</asrwt>
<pdfrwt beam="1">  1       21 0.39945121E-01 0.48032509E+03</pdfrwt>
<pdfrwt beam="2">  1       21 0.19630039E+00 0.48032509E+03</pdfrwt>
<totfact> 0.70123837E+02</totfact>
</mgrwt>
</event>
<event>
 4    1  0.4656600E-002  0.4128132E+03  0.7818608E-02  0.1039431E+00
         21   -1    0    0  501  502  0.00000000000E+00  0.00000000000E+00  0.37233755013E+03  0.37233755013E+03  0.00000000000E+00 0. -1.
         21   -1    0    0  502  503 -0.00000000000E+00 -0.00000000000E+00 -0.49762917868E+03  0.49762917868E+03  0.00000000000E+00 0. -1.
    9000007    1    1    2  501    0 -0.89838867354E+02  0.48412164888E+02 -0.18587833509E+03  0.45273117327E+03  0.40000000000E+03 0. -1.
   -9000007    1    1    2    0  503  0.89838867354E+02 -0.48412164888E+02  0.60586706538E+02  0.41723555554E+03  0.40000000000E+03 0. -1.
<mgrwt>
<rscale>  2 0.41281323E+03</rscale>
<asrwt>0</asrwt>
<pdfrwt beam="1">  1       21 0.57282701E-01 0.41281323E+03</pdfrwt>
<pdfrwt beam="2">  1       21 0.76558335E-01 0.41281323E+03</pdfrwt>
<totfact> 0.38523966E+03</totfact>
</mgrwt>
</event>
<event>
 4    1  0.4656600E-002  0.4617352E+03  0.7818608E-02  0.1024279E+00
         21   -1    0    0  501  502  0.00000000000E+00  0.00000000000E+00  0.10683825103E+04  0.10683825103E+04  0.00000000000E+00 0. -1.
         21   -1    0    0  502  503 -0.00000000000E+00 -0.00000000000E+00 -0.34617360231E+03  0.34617360231E+03  0.00000000000E+00 0. -1.
    9000007    1    1    2  501    0 -0.59594117305E+02  0.22281814305E+03  0.82140351413E+03  0.94228611192E+03  0.40000000000E+03 0. -1.
   -9000007    1    1    2    0  503  0.59594117305E+02 -0.22281814305E+03 -0.99194606123E+02  0.47227000071E+03  0.40000000000E+03 0. -1.
<mgrwt>
<rscale>  2 0.46173519E+03</rscale>
<asrwt>0</asrwt>
<pdfrwt beam="1">  1       21 0.16436654E+00 0.46173519E+03</pdfrwt>
<pdfrwt beam="2">  1       21 0.53257478E-01 0.46173519E+03</pdfrwt>
<totfact> 0.64885165E+02</totfact>
</mgrwt>
</event>
<event>
 4    1  0.4656600E-002  0.5917676E+03  0.7818608E-02  0.9922634E-01
         21   -1    0    0  501  502  0.00000000000E+00  0.00000000000E+00  0.11219402695E+04  0.11219402695E+04  0.00000000000E+00 0. -1.
         21   -1    0    0  502  503 -0.00000000000E+00 -0.00000000000E+00 -0.50852788615E+03  0.50852788615E+03  0.00000000000E+00 0.  1.
    9000007    1    1    2  501    0 -0.51817206852E+02  0.43301723120E+03  0.81334164924E+03  0.10058397406E+04  0.40000000000E+03 0. -1.
   -9000007    1    1    2    0  503  0.51817206852E+02 -0.43301723120E+03 -0.19992926593E+03  0.62462841499E+03  0.40000000000E+03 0.  1.
<mgrwt>
<rscale>  2 0.59176764E+03</rscale>
<asrwt>0</asrwt>
<pdfrwt beam="1">  1       21 0.17260620E+00 0.59176764E+03</pdfrwt>
<pdfrwt beam="2">  1       21 0.78235059E-01 0.59176764E+03</pdfrwt>
<totfact> 0.22700581E+02</totfact>
</mgrwt>
</event>
<event>
 4    1  0.4656600E-002  0.4158752E+03  0.7818608E-02  0.1038417E+00
         21   -1    0    0  503  502  0.00000000000E+00  0.00000000000E+00  0.22880834648E+03  0.22880834648E+03  0.00000000000E+00 0. -1.
         21   -1    0    0  501  503 -0.00000000000E+00 -0.00000000000E+00 -0.88991391013E+03  0.88991391013E+03  0.00000000000E+00 0. -1.
    9000007    1    1    2  501    0  0.76576291264E+02 -0.84191661390E+02 -0.54763387925E+03  0.68764455203E+03  0.40000000000E+03 0. -1.
   -9000007    1    1    2    0  502 -0.76576291264E+02  0.84191661390E+02 -0.11347168440E+03  0.43107770459E+03  0.40000000000E+03 0. -1.
<mgrwt>
<rscale>  2 0.41587518E+03</rscale>
<asrwt>0</asrwt>
<pdfrwt beam="1">  1       21 0.35201284E-01 0.41587518E+03</pdfrwt>
<pdfrwt beam="2">  1       21 0.13690983E+00 0.41587518E+03</pdfrwt>
<totfact> 0.25770851E+03</totfact>
</mgrwt>
</event>
<event>
 4    1  0.4656600E-002  0.5353938E+03  0.7818608E-02  0.1004932E+00
         21   -1    0    0  501  502  0.00000000000E+00  0.00000000000E+00  0.55174536384E+03  0.55174536384E+03  0.00000000000E+00 0. -1.
         21   -1    0    0  502  503 -0.00000000000E+00 -0.00000000000E+00 -0.76902272041E+03  0.76902272041E+03  0.00000000000E+00 0.  1.
    9000007    1    1    2  501    0 -0.12270610643E+03  0.33405056876E+03  0.26750918762E+03  0.59850458353E+03  0.40000000000E+03 0. -1.
   -9000007    1    1    2    0  503  0.12270610643E+03 -0.33405056876E+03 -0.48478654418E+03  0.72226350072E+03  0.40000000000E+03 0.  1.
<mgrwt>
<rscale>  2 0.53539385E+03</rscale>
<asrwt>0</asrwt>
<pdfrwt beam="1">  1       21 0.84883903E-01 0.53539385E+03</pdfrwt>
<pdfrwt beam="2">  1       21 0.11831119E+00 0.53539385E+03</pdfrwt>
<totfact> 0.53218166E+02</totfact>
</mgrwt>
</event>
<event>
 4    1  0.4656600E-002  0.4703624E+03  0.7818608E-02  0.1021818E+00
         21   -1    0    0  501  502  0.00000000000E+00  0.00000000000E+00  0.68711081982E+02  0.68711081982E+02  0.00000000000E+00 0. -1.
         21   -1    0    0  502  503 -0.00000000000E+00 -0.00000000000E+00 -0.32945627296E+04  0.32945627296E+04  0.00000000000E+00 0. -1.
    9000007    1    1    2  501    0  0.21222731918E+03  0.12728075773E+03 -0.18661291124E+04  0.19244943987E+04  0.40000000000E+03 0. -1.
   -9000007    1    1    2    0  503 -0.21222731918E+03 -0.12728075773E+03 -0.13597225352E+04  0.14387794129E+04  0.40000000000E+03 0. -1.
<mgrwt>
<rscale>  2 0.47036244E+03</rscale>
<asrwt>0</asrwt>
<pdfrwt beam="1">  1       21 0.10570934E-01 0.47036244E+03</pdfrwt>
<pdfrwt beam="2">  1       21 0.50685588E+00 0.47036244E+03</pdfrwt>
<totfact> 0.92075077E+01</totfact>
</mgrwt>
</event>
<event>
 4    1  0.4656600E-002  0.4480336E+03  0.7818608E-02  0.1028310E+00
         21   -1    0    0  501  502  0.00000000000E+00  0.00000000000E+00  0.35721116547E+03  0.35721116547E+03  0.00000000000E+00 0.  1.
         21   -1    0    0  502  503 -0.00000000000E+00 -0.00000000000E+00 -0.56486529747E+03  0.56486529747E+03  0.00000000000E+00 0. -1.
    9000007    1    1    2  501    0  0.19835361839E+03  0.37281803478E+02 -0.70694370350E+02  0.45357665813E+03  0.40000000000E+03 0. -1.
   -9000007    1    1    2    0  503 -0.19835361839E+03 -0.37281803478E+02 -0.13695976166E+03  0.46849980481E+03  0.40000000000E+03 0.  1.
<mgrwt>
<rscale>  2 0.44803358E+03</rscale>
<asrwt>0</asrwt>
<pdfrwt beam="1">  1       21 0.54955564E-01 0.44803358E+03</pdfrwt>
<pdfrwt beam="2">  1       21 0.86902353E-01 0.44803358E+03</pdfrwt>
<totfact> 0.31017837E+03</totfact>
</mgrwt>
</event>
<event>
 4    1  0.4656600E-002  0.6180590E+03  0.7818608E-02  0.9868632E-01
         21   -1    0    0  503  502  0.00000000000E+00  0.00000000000E+00  0.66399919411E+03  0.66399919411E+03  0.00000000000E+00 0. -1.
         21   -1    0    0  501  503 -0.00000000000E+00 -0.00000000000E+00 -0.58199861625E+03  0.58199861625E+03  0.00000000000E+00 0.  1.
    9000007    1    1    2  501    0  0.43753758066E+03  0.17480786562E+03 -0.25850617646E+02  0.61859936858E+03  0.40000000000E+03 0.  1.
   -9000007    1    1    2    0  502 -0.43753758066E+03 -0.17480786562E+03  0.10785119550E+03  0.62739844178E+03  0.40000000000E+03 0. -1.
<mgrwt>
<rscale>  2 0.61805900E+03</rscale>
<asrwt>0</asrwt>
<pdfrwt beam="1">  1       21 0.10215372E+00 0.61805900E+03</pdfrwt>
<pdfrwt beam="2">  1       21 0.89538249E-01 0.61805900E+03</pdfrwt>
<totfact> 0.65812129E+02</totfact>
</mgrwt>
</event>
<event>
 4    1  0.4656600E-002  0.4618576E+03  0.7818608E-02  0.1024244E+00
         21   -1    0    0  501  502  0.00000000000E+00  0.00000000000E+00  0.28346079362E+03  0.28346079362E+03  0.00000000000E+00 0. -1.
         21   -1    0    0  502  503 -0.00000000000E+00 -0.00000000000E+00 -0.79514931344E+03  0.79514931344E+03  0.00000000000E+00 0. -1.
    9000007    1    1    2  501    0  0.22860251979E+03  0.32455733408E+02 -0.13098575748E+03  0.48007265632E+03  0.40000000000E+03 0. -1.
   -9000007    1    1    2    0  503 -0.22860251979E+03 -0.32455733408E+02 -0.38070276235E+03  0.59853745074E+03  0.40000000000E+03 0. -1.
<mgrwt>
<rscale>  2 0.46185765E+03</rscale>
<asrwt>0</asrwt>
<pdfrwt beam="1">  1       21 0.43609354E-01 0.46185765E+03</pdfrwt>
<pdfrwt beam="2">  1       21 0.12233066E+00 0.46185765E+03</pdfrwt>
<totfact> 0.21829132E+03</totfact>
</mgrwt>
</event>
<event>
 4    1  0.4656600E-002  0.4195736E+03  0.7818608E-02  0.1037205E+00
         21   -1    0    0  501  502  0.00000000000E+00  0.00000000000E+00  0.24965166648E+03  0.24965166648E+03  0.00000000000E+00 0.  1.
         21   -1    0    0  502  503 -0.00000000000E+00 -0.00000000000E+00 -0.76309812513E+03  0.76309812513E+03  0.00000000000E+00 0.  1.
    9000007    1    1    2  501    0 -0.12040184341E+03  0.39311792021E+02 -0.11718299671E+03  0.43563043466E+03  0.40000000000E+03 0.  1.
   -9000007    1    1    2    0  503  0.12040184341E+03 -0.39311792021E+02 -0.39626346195E+03  0.57711935695E+03  0.40000000000E+03 0.  1.
<mgrwt>
<rscale>  2 0.41957362E+03</rscale>
<asrwt>0</asrwt>
<pdfrwt beam="1">  1       21 0.38407949E-01 0.41957362E+03</pdfrwt>
<pdfrwt beam="2">  1       21 0.11739971E+00 0.41957362E+03</pdfrwt>
<totfact> 0.32012435E+03</totfact>
</mgrwt>
</event>
<event>
 4    1  0.4656600E-002  0.4187721E+03  0.7818608E-02  0.1037467E+00
         21   -1    0    0  501  502  0.00000000000E+00  0.00000000000E+00  0.39011727001E+03  0.39011727001E+03  0.00000000000E+00 0. -1.
         21   -1    0    0  502  503 -0.00000000000E+00 -0.00000000000E+00 -0.52254174856E+03  0.52254174856E+03  0.00000000000E+00 0. -1.
    9000007    1    1    2  501    0  0.84724564702E+02  0.90508756075E+02  0.10436038087E+03  0.43157986038E+03  0.40000000000E+03 0. -1.
   -9000007    1    1    2    0  503 -0.84724564702E+02 -0.90508756075E+02 -0.23678485943E+03  0.48107915819E+03  0.40000000000E+03 0. -1.
<mgrwt>
<rscale>  2 0.41877212E+03</rscale>
<asrwt>0</asrwt>
<pdfrwt beam="1">  1       21 0.60018041E-01 0.41877212E+03</pdfrwt>
<pdfrwt beam="2">  1       21 0.80391039E-01 0.41877212E+03</pdfrwt>
<totfact> 0.31036984E+03</totfact>
</mgrwt>
</event>
<event>
 4    1  0.4656600E-002  0.5537436E+03  0.7818608E-02  0.1000631E+00
         21   -1    0    0  503  502  0.00000000000E+00  0.00000000000E+00  0.32310085408E+03  0.32310085408E+03  0.00000000000E+00 0.  1.
         21   -1    0    0  501  503 -0.00000000000E+00 -0.00000000000E+00 -0.96607831697E+03  0.96607831697E+03  0.00000000000E+00 0. -1.
    9000007    1    1    2  501    0  0.28302858633E+03 -0.25792790896E+03 -0.40712037844E+03  0.68729832638E+03  0.40000000000E+03 0. -1.
   -9000007    1    1    2    0  502 -0.28302858633E+03  0.25792790896E+03 -0.23585708444E+03  0.60188084467E+03  0.40000000000E+03 0.  1.
<mgrwt>
<rscale>  2 0.55374361E+03</rscale>
<asrwt>0</asrwt>
<pdfrwt beam="1">  1       21 0.49707825E-01 0.55374361E+03</pdfrwt>
<pdfrwt beam="2">  1       21 0.14862743E+00 0.55374361E+03</pdfrwt>
<totfact> 0.95896631E+02</totfact>
</mgrwt>
</event>
<event>
 4    1  0.4656600E-002  0.4711920E+03  0.7818608E-02  0.1021584E+00
         21   -1    0    0  501  502  0.00000000000E+00  0.00000000000E+00  0.19234950543E+03  0.19234950543E+03  0.00000000000E+00 0. -1.
         21   -1    0    0  502  503 -0.00000000000E+00 -0.00000000000E+00 -0.11794468927E+04  0.11794468927E+04  0.00000000000E+00 0. -1.
    9000007    1    1    2  501    0 -0.23803057080E+03 -0.73234652653E+02 -0.39332182827E+03  0.61377840266E+03  0.40000000000E+03 0. -1.
   -9000007    1    1    2    0  503  0.23803057080E+03  0.73234652653E+02 -0.59377555898E+03  0.75801799545E+03  0.40000000000E+03 0. -1.
<mgrwt>
<rscale>  2 0.47119196E+03</rscale>
<asrwt>0</asrwt>
<pdfrwt beam="1">  1       21 0.29592232E-01 0.47119196E+03</pdfrwt>
<pdfrwt beam="2">  1       21 0.18145337E+00 0.47119196E+03</pdfrwt>
<totfact> 0.16338962E+03</totfact>
</mgrwt>
</event>
<event>
 4    1  0.4656600E-002  0.4030824E+03  0.7818608E-02  0.1042718E+00
         21   -1    0    0  501  502  0.00000000000E+00  0.00000000000E+00  0.57583980205E+03  0.57583980205E+03  0.00000000000E+00 0. -1.
         21   -1    0    0  502  503 -0.00000000000E+00 -0.00000000000E+00 -0.28741730965E+03  0.28741730965E+03  0.00000000000E+00 0. -1.
    9000007    1    1    2  501    0 -0.81451056919E+01 -0.49082263689E+02  0.85800901105E+02  0.41211309854E+03  0.40000000000E+03 0. -1.
   -9000007    1    1    2    0  503  0.81451056919E+01  0.49082263689E+02  0.20262159130E+03  0.45114401317E+03  0.40000000000E+03 0. -1.
<mgrwt>
<rscale>  2 0.40308239E+03</rscale>
<asrwt>0</asrwt>
<pdfrwt beam="1">  1       21 0.88590739E-01 0.40308239E+03</pdfrwt>
<pdfrwt beam="2">  1       21 0.44218048E-01 0.40308239E+03</pdfrwt>
<totfact> 0.47780323E+03</totfact>
</mgrwt>
</event>
<event>
 4    1  0.4656600E-002  0.4262032E+03  0.7818608E-02  0.1035066E+00
         21   -1    0    0  503  502  0.00000000000E+00  0.00000000000E+00  0.50224404721E+03  0.50224404721E+03  0.00000000000E+00 0. -1.
         21   -1    0    0  501  503 -0.00000000000E+00 -0.00000000000E+00 -0.58671835182E+03  0.58671835182E+03  0.00000000000E+00 0. -1.
    9000007    1    1    2  501    0 -0.20638922499E+02 -0.14568184129E+03 -0.37944762453E+03  0.57063969697E+03  0.40000000000E+03 0. -1.
   -9000007    1    1    2    0  502  0.20638922499E+02  0.14568184129E+03  0.29497331992E+03  0.51832270206E+03  0.40000000000E+03 0. -1.
<mgrwt>
<rscale>  2 0.42620320E+03</rscale>
<asrwt>0</asrwt>
<pdfrwt beam="1">  1       21 0.77268316E-01 0.42620320E+03</pdfrwt>
<pdfrwt beam="2">  1       21 0.90264361E-01 0.42620320E+03</pdfrwt>
<totfact> 0.13409968E+03</totfact>
</mgrwt>
</event>
<event>
 4    1  0.4656600E-002  0.4385190E+03  0.7818608E-02  0.1031202E+00
         21   -1    0    0  501  502  0.00000000000E+00  0.00000000000E+00  0.34511773000E+03  0.34511773000E+03  0.00000000000E+00 0. -1.
         21   -1    0    0  502  503 -0.00000000000E+00 -0.00000000000E+00 -0.59805043989E+03  0.59805043989E+03  0.00000000000E+00 0. -1.
    9000007    1    1    2  501    0  0.87940824659E+02 -0.15673321326E+03 -0.32127748307E+01  0.43853074089E+03  0.40000000000E+03 0. -1.
   -9000007    1    1    2    0  503 -0.87940824659E+02  0.15673321326E+03 -0.24971993507E+03  0.50463742900E+03  0.40000000000E+03 0. -1.
<mgrwt>
<rscale>  2 0.43851897E+03</rscale>
<asrwt>0</asrwt>
<pdfrwt beam="1">  1       21 0.53095036E-01 0.43851897E+03</pdfrwt>
<pdfrwt beam="2">  1       21 0.92007760E-01 0.43851897E+03</pdfrwt>
<totfact> 0.29286607E+03</totfact>
</mgrwt>
</event>
<event>
 4    1  0.4656600E-002  0.4114241E+03  0.7818608E-02  0.1039894E+00
         21   -1    0    0  503  502  0.00000000000E+00  0.00000000000E+00  0.56317433310E+03  0.56317433310E+03  0.00000000000E+00 0.  1.
         21   -1    0    0  501  503 -0.00000000000E+00 -0.00000000000E+00 -0.37981338514E+03  0.37981338514E+03  0.00000000000E+00 0.  1.
    9000007    1    1    2  501    0 -0.86224502850E+02 -0.42838234688E+02 -0.12369170069E+03  0.42961542810E+03  0.40000000000E+03 0.  1.
   -9000007    1    1    2    0  502  0.86224502850E+02  0.42838234688E+02  0.30705264865E+03  0.51337229014E+03  0.40000000000E+03 0.  1.
<mgrwt>
<rscale>  2 0.41142409E+03</rscale>
<asrwt>0</asrwt>
<pdfrwt beam="1">  1       21 0.86642205E-01 0.41142409E+03</pdfrwt>
<pdfrwt beam="2">  1       21 0.58432828E-01 0.41142409E+03</pdfrwt>
<totfact> 0.27722418E+03</totfact>
</mgrwt>
</event>
<event>
 4    1  0.4656600E-002  0.4265276E+03  0.7818608E-02  0.1034963E+00
         21   -1    0    0  503  502  0.00000000000E+00  0.00000000000E+00  0.26072746542E+03  0.26072746542E+03  0.00000000000E+00 0.  1.
         21   -1    0    0  501  503 -0.00000000000E+00 -0.00000000000E+00 -0.77867844121E+03  0.77867844121E+03  0.00000000000E+00 0.  1.
    9000007    1    1    2  501    0 -0.14762778961E+03  0.11480823385E+02 -0.42650600212E+03  0.60318582826E+03  0.40000000000E+03 0.  1.
   -9000007    1    1    2    0  502  0.14762778961E+03 -0.11480823385E+02 -0.91444973675E+02  0.43622007838E+03  0.40000000000E+03 0.  1.
<mgrwt>
<rscale>  2 0.42652758E+03</rscale>
<asrwt>0</asrwt>
<pdfrwt beam="1">  1       21 0.40111919E-01 0.42652758E+03</pdfrwt>
<pdfrwt beam="2">  1       21 0.11979668E+00 0.42652758E+03</pdfrwt>
<totfact> 0.27752484E+03</totfact>
</mgrwt>
</event>
<event>
 4    1  0.4656600E-002  0.5271988E+03  0.7818608E-02  0.1006914E+00
         21   -1    0    0  503  502  0.00000000000E+00  0.00000000000E+00  0.48433270147E+03  0.48433270147E+03  0.00000000000E+00 0. -1.
         21   -1    0    0  501  503 -0.00000000000E+00 -0.00000000000E+00 -0.10493221347E+04  0.10493221347E+04  0.00000000000E+00 0. -1.
    9000007    1    1    2  501    0  0.10186251188E+03  0.32796745801E+03 -0.79867533329E+03  0.95698532531E+03  0.40000000000E+03 0. -1.
   -9000007    1    1    2    0  502 -0.10186251188E+03 -0.32796745801E+03  0.23368590009E+03  0.57666951085E+03  0.40000000000E+03 0. -1.
<mgrwt>
<rscale>  2 0.52719885E+03</rscale>
<asrwt>0</asrwt>
<pdfrwt beam="1">  1       21 0.74512724E-01 0.52719885E+03</pdfrwt>
<pdfrwt beam="2">  1       21 0.16143417E+00 0.52719885E+03</pdfrwt>
<totfact> 0.31534329E+02</totfact>
</mgrwt>
</event>
<event>
 4    1  0.4656600E-002  0.4012859E+03  0.7818608E-02  0.1043335E+00
         21   -1    0    0  503  502  0.00000000000E+00  0.00000000000E+00  0.23039402797E+03  0.23039402797E+03  0.00000000000E+00 0.  1.
         21   -1    0    0  501  503 -0.00000000000E+00 -0.00000000000E+00 -0.77829843159E+03  0.77829843159E+03  0.00000000000E+00 0.  1.
    9000007    1    1    2  501    0 -0.23313643618E+02  0.22065522936E+02 -0.43500428819E+03  0.59182695446E+03  0.40000000000E+03 0. -1.
   -9000007    1    1    2    0  502  0.23313643618E+02 -0.22065522936E+02 -0.11290011543E+03  0.41686550510E+03  0.40000000000E+03 0. -1.
<mgrwt>
<rscale>  2 0.40128595E+03</rscale>
<asrwt>0</asrwt>
<pdfrwt beam="1">  1       21 0.35445235E-01 0.40128595E+03</pdfrwt>
<pdfrwt beam="2">  1       21 0.11973822E+00 0.40128595E+03</pdfrwt>
<totfact> 0.36117921E+03</totfact>
</mgrwt>
</event>
<event>
 4    1  0.4656600E-002  0.4578044E+03  0.7818608E-02  0.1025420E+00
         21   -1    0    0  503  502  0.00000000000E+00  0.00000000000E+00  0.12519471372E+04  0.12519471372E+04  0.00000000000E+00 0.  1.
         21   -1    0    0  501  503 -0.00000000000E+00 -0.00000000000E+00 -0.17722859963E+03  0.17722859963E+03  0.00000000000E+00 0.  1.
    9000007    1    1    2  501    0 -0.40357821911E+02 -0.21898881312E+03  0.36913936402E+03  0.58808904439E+03  0.40000000000E+03 0.  1.
   -9000007    1    1    2    0  502  0.40357821911E+02  0.21898881312E+03  0.70557917355E+03  0.84108669245E+03  0.40000000000E+03 0.  1.
<mgrwt>
<rscale>  2 0.45780438E+03</rscale>
<asrwt>0</asrwt>
<pdfrwt beam="1">  1       21 0.19260725E+00 0.45780438E+03</pdfrwt>
<pdfrwt beam="2">  1       21 0.27265939E-01 0.45780438E+03</pdfrwt>
<totfact> 0.16175654E+03</totfact>
</mgrwt>
</event>
<event>
 4    1  0.4656600E-002  0.4364384E+03  0.7818608E-02  0.1031845E+00
         21   -1    0    0  503  502  0.00000000000E+00  0.00000000000E+00  0.32235471866E+03  0.32235471866E+03  0.00000000000E+00 0.  1.
         21   -1    0    0  501  503 -0.00000000000E+00 -0.00000000000E+00 -0.59108747867E+03  0.59108747867E+03  0.00000000000E+00 0.  1.
    9000007    1    1    2  501    0 -0.56678969293E+02  0.16512418830E+03 -0.12617208596E+03  0.45431035471E+03  0.40000000000E+03 0.  1.
   -9000007    1    1    2    0  502  0.56678969293E+02 -0.16512418830E+03 -0.14256067405E+03  0.45913184262E+03  0.40000000000E+03 0.  1.
<mgrwt>
<rscale>  2 0.43643843E+03</rscale>
<asrwt>0</asrwt>
<pdfrwt beam="1">  1       21 0.49593034E-01 0.43643843E+03</pdfrwt>
<pdfrwt beam="2">  1       21 0.90936534E-01 0.43643843E+03</pdfrwt>
<totfact> 0.34859641E+03</totfact>
</mgrwt>
</event>
<event>
 4    1  0.4656600E-002  0.4589076E+03  0.7818608E-02  0.1025099E+00
         21   -1    0    0  501  502  0.00000000000E+00  0.00000000000E+00  0.19464957523E+03  0.19464957523E+03  0.00000000000E+00 0. -1.
         21   -1    0    0  502  503 -0.00000000000E+00 -0.00000000000E+00 -0.11939609010E+04  0.11939609010E+04  0.00000000000E+00 0. -1.
    9000007    1    1    2  501    0  0.20932051205E+03 -0.82347353987E+02 -0.28697168546E+03  0.54124755124E+03  0.40000000000E+03 0. -1.
   -9000007    1    1    2    0  503 -0.20932051205E+03  0.82347353987E+02 -0.71233964029E+03  0.84736292496E+03  0.40000000000E+03 0. -1.
<mgrwt>
<rscale>  2 0.45890758E+03</rscale>
<asrwt>0</asrwt>
<pdfrwt beam="1">  1       21 0.29946089E-01 0.45890758E+03</pdfrwt>
<pdfrwt beam="2">  1       21 0.18368629E+00 0.45890758E+03</pdfrwt>
<totfact> 0.15471890E+03</totfact>
</mgrwt>
</event>
<event>
 4    1  0.4656600E-002  0.4129646E+03  0.7818608E-02  0.1039381E+00
         21   -1    0    0  503  502  0.00000000000E+00  0.00000000000E+00  0.78986075230E+03  0.78986075230E+03  0.00000000000E+00 0. -1.
         21   -1    0    0  501  503 -0.00000000000E+00 -0.00000000000E+00 -0.21599410269E+03  0.21599410269E+03  0.00000000000E+00 0.  1.
    9000007    1    1    2  501    0 -0.75069459968E+02 -0.70031254407E+02  0.27708164099E+03  0.49730678277E+03  0.40000000000E+03 0. -1.
   -9000007    1    1    2    0  502  0.75069459968E+02  0.70031254407E+02  0.29678500862E+03  0.50854807222E+03  0.40000000000E+03 0.  1.
<mgrwt>
<rscale>  2 0.41296465E+03</rscale>
<asrwt>0</asrwt>
<pdfrwt beam="1">  1       21 0.12151704E+00 0.41296465E+03</pdfrwt>
<pdfrwt beam="2">  1       21 0.33229862E-01 0.41296465E+03</pdfrwt>
<totfact> 0.39436282E+03</totfact>
</mgrwt>
</event>
<event>
 4    1  0.4656600E-002  0.4110075E+03  0.7818608E-02  0.1040033E+00
         21   -1    0    0  503  502  0.00000000000E+00  0.00000000000E+00  0.15961097365E+04  0.15961097365E+04  0.00000000000E+00 0.  1.
         21   -1    0    0  501  503 -0.00000000000E+00 -0.00000000000E+00 -0.10778737351E+03  0.10778737351E+03  0.00000000000E+00 0.  1.
    9000007    1    1    2  501    0 -0.16096525245E+02 -0.93102295528E+02  0.62955411869E+03  0.75184142205E+03  0.40000000000E+03 0.  1.
   -9000007    1    1    2    0  502  0.16096525245E+02  0.93102295528E+02  0.85876824426E+03  0.95205568792E+03  0.40000000000E+03 0.  1.
<mgrwt>
<rscale>  2 0.41100746E+03</rscale>
<asrwt>0</asrwt>
<pdfrwt beam="1">  1       21 0.24555533E+00 0.41100746E+03</pdfrwt>
<pdfrwt beam="2">  1       21 0.16582674E-01 0.41100746E+03</pdfrwt>
<totfact> 0.19569816E+03</totfact>
</mgrwt>
</event>
<event>
 4    1  0.4656600E-002  0.4868935E+03  0.7818608E-02  0.1017258E+00
         21   -1    0    0  503  502  0.00000000000E+00  0.00000000000E+00  0.11435975559E+04  0.11435975559E+04  0.00000000000E+00 0. -1.
         21   -1    0    0  501  503 -0.00000000000E+00 -0.00000000000E+00 -0.37550674058E+03  0.37550674058E+03  0.00000000000E+00 0.  1.
    9000007    1    1    2  501    0  0.22526488583E+03  0.16223744893E+03 -0.12431680834E+03  0.50251360923E+03  0.40000000000E+03 0.  1.
   -9000007    1    1    2    0  502 -0.22526488583E+03 -0.16223744893E+03  0.89240762363E+03  0.10165906872E+04  0.40000000000E+03 0. -1.
<mgrwt>
<rscale>  2 0.48689348E+03</rscale>
<asrwt>0</asrwt>
<pdfrwt beam="1">  1       21 0.17593808E+00 0.48689348E+03</pdfrwt>
<pdfrwt beam="2">  1       21 0.57770268E-01 0.48689348E+03</pdfrwt>
<totfact> 0.44301457E+02</totfact>
</mgrwt>
</event>
<event>
 4    1  0.4656600E-002  0.5917525E+03  0.7818608E-02  0.9922666E-01
         21   -1    0    0  501  502  0.00000000000E+00  0.00000000000E+00  0.19084540160E+04  0.19084540160E+04  0.00000000000E+00 0. -1.
         21   -1    0    0  502  503 -0.00000000000E+00 -0.00000000000E+00 -0.21135496492E+03  0.21135496492E+03  0.00000000000E+00 0. -1.
    9000007    1    1    2  501    0  0.16293620079E+03  0.40450318672E+03  0.46366056175E+03  0.75176602086E+03  0.40000000000E+03 0. -1.
   -9000007    1    1    2    0  503 -0.16293620079E+03 -0.40450318672E+03  0.12334384893E+04  0.13680429600E+04  0.40000000000E+03 0. -1.
<mgrwt>
<rscale>  2 0.59175251E+03</rscale>
<asrwt>0</asrwt>
<pdfrwt beam="1">  1       21 0.29360830E+00 0.59175251E+03</pdfrwt>
<pdfrwt beam="2">  1       21 0.32516150E-01 0.59175251E+03</pdfrwt>
<totfact> 0.24825341E+02</totfact>
</mgrwt>
</event>
<event>
 4    1  0.4656600E-002  0.4520577E+03  0.7818608E-02  0.1027110E+00
         21   -1    0    0  503  502  0.00000000000E+00  0.00000000000E+00  0.21672793563E+03  0.21672793563E+03  0.00000000000E+00 0.  1.
         21   -1    0    0  501  503 -0.00000000000E+00 -0.00000000000E+00 -0.99164975663E+03  0.99164975663E+03  0.00000000000E+00 0. -1.
    9000007    1    1    2  501    0 -0.76463110557E+02  0.19623841779E+03 -0.25352074137E+03  0.51829421200E+03  0.40000000000E+03 0. -1.
   -9000007    1    1    2    0  502  0.76463110557E+02 -0.19623841779E+03 -0.52140107962E+03  0.69008348026E+03  0.40000000000E+03 0. -1.
<mgrwt>
<rscale>  2 0.45205766E+03</rscale>
<asrwt>0</asrwt>
<pdfrwt beam="1">  1       21 0.33342759E-01 0.45205766E+03</pdfrwt>
<pdfrwt beam="2">  1       21 0.15256150E+00 0.45205766E+03</pdfrwt>
<totfact> 0.21194199E+03</totfact>
</mgrwt>
</event>
<event>
 4    1  0.4656600E-002  0.5017049E+03  0.7818608E-02  0.1013335E+00
         21   -1    0    0  501  502  0.00000000000E+00  0.00000000000E+00  0.82679940262E+03  0.82679940262E+03  0.00000000000E+00 0.  1.
         21   -1    0    0  502  503 -0.00000000000E+00 -0.00000000000E+00 -0.39598577853E+03  0.39598577853E+03  0.00000000000E+00 0. -1.
    9000007    1    1    2  501    0 -0.11332769253E+03  0.28082844393E+03  0.50938034289E+03  0.71496581355E+03  0.40000000000E+03 0.  1.
   -9000007    1    1    2    0  503  0.11332769253E+03 -0.28082844393E+03 -0.78566718803E+02  0.50781936761E+03  0.40000000000E+03 0. -1.
<mgrwt>
<rscale>  2 0.50170487E+03</rscale>
<asrwt>0</asrwt>
<pdfrwt beam="1">  1       21 0.12719991E+00 0.50170487E+03</pdfrwt>
<pdfrwt beam="2">  1       21 0.60920889E-01 0.50170487E+03</pdfrwt>
<totfact> 0.95046179E+02</totfact>
</mgrwt>
</event>
<event>
 4    1  0.4656600E-002  0.4963110E+03  0.7818608E-02  0.1014746E+00
         21   -1    0    0  501  502  0.00000000000E+00  0.00000000000E+00  0.69429158163E+03  0.69429158163E+03  0.00000000000E+00 0. -1.
         21   -1    0    0  502  503 -0.00000000000E+00 -0.00000000000E+00 -0.38587869662E+03  0.38587869662E+03  0.00000000000E+00 0.  1.
    9000007    1    1    2  501    0 -0.24976610210E+03 -0.15473053955E+03  0.30751588776E+03  0.58385843049E+03  0.40000000000E+03 0. -1.
   -9000007    1    1    2    0  503  0.24976610210E+03  0.15473053955E+03  0.89699724748E+00  0.49631184776E+03  0.40000000000E+03 0.  1.
<mgrwt>
<rscale>  2 0.49631104E+03</rscale>
<asrwt>0</asrwt>
<pdfrwt beam="1">  1       21 0.10681409E+00 0.49631104E+03</pdfrwt>
<pdfrwt beam="2">  1       21 0.59365953E-01 0.49631104E+03</pdfrwt>
<totfact> 0.15673823E+03</totfact>
</mgrwt>
</event>
<event>
 4    1  0.4656600E-002  0.4227220E+03  0.7818608E-02  0.1036184E+00
         21   -1    0    0  503  502  0.00000000000E+00  0.00000000000E+00  0.11016136576E+04  0.11016136576E+04  0.00000000000E+00 0. -1.
         21   -1    0    0  501  503 -0.00000000000E+00 -0.00000000000E+00 -0.17738229530E+03  0.17738229530E+03  0.00000000000E+00 0. -1.
    9000007    1    1    2  501    0  0.61693384788E+02  0.12201572921E+03  0.27509285941E+03  0.50435106146E+03  0.40000000000E+03 0. -1.
   -9000007    1    1    2    0  502 -0.61693384788E+02 -0.12201572921E+03  0.64913850294E+03  0.77464489148E+03  0.40000000000E+03 0. -1.
<mgrwt>
<rscale>  2 0.42272203E+03</rscale>
<asrwt>0</asrwt>
<pdfrwt beam="1">  1       21 0.16947902E+00 0.42272203E+03</pdfrwt>
<pdfrwt beam="2">  1       21 0.27289585E-01 0.42272203E+03</pdfrwt>
<totfact> 0.23825011E+03</totfact>
</mgrwt>
</event>
<event>
 4    1  0.4656600E-002  0.4540494E+03  0.7818608E-02  0.1026521E+00
         21   -1    0    0  503  502  0.00000000000E+00  0.00000000000E+00  0.28024241564E+03  0.28024241564E+03  0.00000000000E+00 0. -1.
         21   -1    0    0  501  503 -0.00000000000E+00 -0.00000000000E+00 -0.14811119034E+04  0.14811119034E+04  0.00000000000E+00 0. -1.
    9000007    1    1    2  501    0 -0.20755207439E+03  0.55525031362E+02 -0.12252259987E+04  0.13066520732E+04  0.40000000000E+03 0. -1.
   -9000007    1    1    2    0  502  0.20755207439E+03 -0.55525031362E+02  0.24356510931E+02  0.45470224578E+03  0.40000000000E+03 0. -1.
<mgrwt>
<rscale>  2 0.45404944E+03</rscale>
<asrwt>0</asrwt>
<pdfrwt beam="1">  1       21 0.43114217E-01 0.45404944E+03</pdfrwt>
<pdfrwt beam="2">  1       21 0.22786337E+00 0.45404944E+03</pdfrwt>
<totfact> 0.37767374E+02</totfact>
</mgrwt>
</event>
<event>
 4    1  0.4656600E-002  0.4012127E+03  0.7818608E-02  0.1043361E+00
         21   -1    0    0  501  502  0.00000000000E+00  0.00000000000E+00  0.90500462090E+03  0.90500462090E+03  0.00000000000E+00 0.  1.
         21   -1    0    0  502  503 -0.00000000000E+00 -0.00000000000E+00 -0.35041162087E+03  0.35041162087E+03  0.00000000000E+00 0.  1.
    9000007    1    1    2  501    0 -0.30448004336E+02  0.66746617562E+01  0.71776775847E+03  0.82229081667E+03  0.40000000000E+03 0.  1.
   -9000007    1    1    2    0  503  0.30448004336E+02 -0.66746617562E+01 -0.16317475844E+03  0.43312542510E+03  0.40000000000E+03 0.  1.
<mgrwt>
<rscale>  2 0.40121270E+03</rscale>
<asrwt>0</asrwt>
<pdfrwt beam="1">  1       21 0.13923148E+00 0.40121270E+03</pdfrwt>
<pdfrwt beam="2">  1       21 0.53909480E-01 0.40121270E+03</pdfrwt>
<totfact> 0.10217243E+03</totfact>
</mgrwt>
</event>
<event>
 4    1  0.4656600E-002  0.4987495E+03  0.7818608E-02  0.1014106E+00
         21   -1    0    0  503  502  0.00000000000E+00  0.00000000000E+00  0.69778516052E+03  0.69778516052E+03  0.00000000000E+00 0. -1.
         21   -1    0    0  501  503 -0.00000000000E+00 -0.00000000000E+00 -0.37245783136E+03  0.37245783136E+03  0.00000000000E+00 0. -1.
    9000007    1    1    2  501    0 -0.67002576307E+02  0.29027862040E+03  0.51852439160E+02  0.50143763136E+03  0.40000000000E+03 0. -1.
   -9000007    1    1    2    0  502  0.67002576307E+02 -0.29027862040E+03  0.27347489000E+03  0.56880536052E+03  0.40000000000E+03 0. -1.
<mgrwt>
<rscale>  2 0.49874946E+03</rscale>
<asrwt>0</asrwt>
<pdfrwt beam="1">  1       21 0.10735156E+00 0.49874946E+03</pdfrwt>
<pdfrwt beam="2">  1       21 0.57301205E-01 0.49874946E+03</pdfrwt>
<totfact> 0.16711840E+03</totfact>
</mgrwt>
</event>
<event>
 4    1  0.4656600E-002  0.5093561E+03  0.7818608E-02  0.1011365E+00
         21   -1    0    0  503  502  0.00000000000E+00  0.00000000000E+00  0.96955332299E+03  0.96955332299E+03  0.00000000000E+00 0. -1.
         21   -1    0    0  501  503 -0.00000000000E+00 -0.00000000000E+00 -0.35204484672E+03  0.35204484672E+03  0.00000000000E+00 0. -1.
    9000007    1    1    2  501    0  0.19024830617E+03  0.25149395965E+03 -0.14899372268E+02  0.50957396032E+03  0.40000000000E+03 0. -1.
   -9000007    1    1    2    0  502 -0.19024830617E+03 -0.25149395965E+03  0.63240784854E+03  0.81202420939E+03  0.40000000000E+03 0. -1.
<mgrwt>
<rscale>  2 0.50935609E+03</rscale>
<asrwt>0</asrwt>
<pdfrwt beam="1">  1       21 0.14916205E+00 0.50935609E+03</pdfrwt>
<pdfrwt beam="2">  1       21 0.54160746E-01 0.50935609E+03</pdfrwt>
<totfact> 0.80266790E+02</totfact>
</mgrwt>
</event>
<event>
 4    1  0.4656600E-002  0.4050690E+03  0.7818608E-02  0.1042038E+00
         21   -1    0    0  503  502  0.00000000000E+00  0.00000000000E+00  0.30391284049E+03  0.30391284049E+03  0.00000000000E+00 0.  1.
         21   -1    0    0  501  503 -0.00000000000E+00 -0.00000000000E+00 -0.97318724503E+03  0.97318724503E+03  0.00000000000E+00 0.  1.
    9000007    1    1    2  501    0  0.13691300438E+02 -0.62397536890E+02 -0.76071351235E+03  0.86183870427E+03  0.40000000000E+03 0.  1.
   -9000007    1    1    2    0  502 -0.13691300438E+02  0.62397536890E+02  0.91439107799E+02  0.41526138124E+03  0.40000000000E+03 0.  1.
<mgrwt>
<rscale>  2 0.40506901E+03</rscale>
<asrwt>0</asrwt>
<pdfrwt beam="1">  1       21 0.46755822E-01 0.40506901E+03</pdfrwt>
<pdfrwt beam="2">  1       21 0.14972111E+00 0.40506901E+03</pdfrwt>
<totfact> 0.11360897E+03</totfact>
</mgrwt>
</event>
<event>
 4    1  0.4656600E-002  0.4444889E+03  0.7818608E-02  0.1029378E+00
         21   -1    0    0  501  502  0.00000000000E+00  0.00000000000E+00  0.17614396006E+03  0.17614396006E+03  0.00000000000E+00 0.  1.
         21   -1    0    0  502  503 -0.00000000000E+00 -0.00000000000E+00 -0.11806055484E+04  0.11806055484E+04  0.00000000000E+00 0.  1.
    9000007    1    1    2  501    0 -0.14151252462E+03  0.13245593981E+03 -0.35062666927E+03  0.56613552425E+03  0.40000000000E+03 0.  1.
   -9000007    1    1    2    0  503  0.14151252462E+03 -0.13245593981E+03 -0.65383491904E+03  0.79061398417E+03  0.40000000000E+03 0.  1.
<mgrwt>
<rscale>  2 0.44448889E+03</rscale>
<asrwt>0</asrwt>
<pdfrwt beam="1">  1       21 0.27099071E-01 0.44448889E+03</pdfrwt>
<pdfrwt beam="2">  1       21 0.18163162E+00 0.44448889E+03</pdfrwt>
<totfact> 0.19599709E+03</totfact>
</mgrwt>
</event>
<event>
 4    1  0.4656600E-002  0.4471784E+03  0.7818608E-02  0.1028567E+00
         21   -1    0    0  501  502  0.00000000000E+00  0.00000000000E+00  0.21569785251E+03  0.21569785251E+03  0.00000000000E+00 0. -1.
         21   -1    0    0  502  503 -0.00000000000E+00 -0.00000000000E+00 -0.94212582008E+03  0.94212582008E+03  0.00000000000E+00 0. -1.
    9000007    1    1    2  501    0 -0.34831603941E+02  0.19686361965E+03 -0.43637988200E+03  0.62481671456E+03  0.40000000000E+03 0. -1.
   -9000007    1    1    2    0  503  0.34831603941E+02 -0.19686361965E+03 -0.29004808557E+03  0.53300695804E+03  0.40000000000E+03 0. -1.
<mgrwt>
<rscale>  2 0.44717840E+03</rscale>
<asrwt>0</asrwt>
<pdfrwt beam="1">  1       21 0.33184285E-01 0.44717840E+03</pdfrwt>
<pdfrwt beam="2">  1       21 0.14494243E+00 0.44717840E+03</pdfrwt>
<totfact> 0.24629762E+03</totfact>
</mgrwt>
</event>
<event>
 4    1  0.4656600E-002  0.4174792E+03  0.7818608E-02  0.1037890E+00
         21   -1    0    0  501  502  0.00000000000E+00  0.00000000000E+00  0.15512116612E+03  0.15512116612E+03  0.00000000000E+00 0. -1.
         21   -1    0    0  502  503 -0.00000000000E+00 -0.00000000000E+00 -0.11241620145E+04  0.11241620145E+04  0.00000000000E+00 0. -1.
    9000007    1    1    2  501    0 -0.58729443797E+01 -0.11939186049E+03 -0.46979535347E+03  0.62848753526E+03  0.40000000000E+03 0. -1.
   -9000007    1    1    2    0  503  0.58729443797E+01  0.11939186049E+03 -0.49924549487E+03  0.65079564533E+03  0.40000000000E+03 0. -1.
<mgrwt>
<rscale>  2 0.41747923E+03</rscale>
<asrwt>0</asrwt>
<pdfrwt beam="1">  1       21 0.23864796E-01 0.41747923E+03</pdfrwt>
<pdfrwt beam="2">  1       21 0.17294800E+00 0.41747923E+03</pdfrwt>
<totfact> 0.29265300E+03</totfact>
</mgrwt>
</event>
<event>
 4    1  0.4656600E-002  0.4256767E+03  0.7818608E-02  0.1035234E+00
         21   -1    0    0  501  502  0.00000000000E+00  0.00000000000E+00  0.92283347183E+03  0.92283347183E+03  0.00000000000E+00 0. -1.
         21   -1    0    0  502  503 -0.00000000000E+00 -0.00000000000E+00 -0.30531082327E+03  0.30531082327E+03  0.00000000000E+00 0. -1.
    9000007    1    1    2  501    0 -0.11683069669E+03 -0.86897651091E+02  0.67560294545E+03  0.79852360852E+03  0.40000000000E+03 0. -1.
   -9000007    1    1    2    0  503  0.11683069669E+03  0.86897651091E+02 -0.58080296889E+02  0.42962068658E+03  0.40000000000E+03 0. -1.
<mgrwt>
<rscale>  2 0.42567665E+03</rscale>
<asrwt>0</asrwt>
<pdfrwt beam="1">  1       21 0.14197438E+00 0.42567665E+03</pdfrwt>
<pdfrwt beam="2">  1       21 0.46970896E-01 0.42567665E+03</pdfrwt>
<totfact> 0.12856671E+03</totfact>
</mgrwt>
</event>
<event>
 4    1  0.4656600E-002  0.5046174E+03  0.7818608E-02  0.1012581E+00
         21   -1    0    0  501  502  0.00000000000E+00  0.00000000000E+00  0.70467135842E+03  0.70467135842E+03  0.00000000000E+00 0.  1.
         21   -1    0    0  502  503 -0.00000000000E+00 -0.00000000000E+00 -0.38641811014E+03  0.38641811014E+03  0.00000000000E+00 0. -1.
    9000007    1    1    2  501    0 -0.14518653595E+03 -0.27121869829E+03  0.29805537750E+03  0.58606801703E+03  0.40000000000E+03 0.  1.
   -9000007    1    1    2    0  503  0.14518653595E+03  0.27121869829E+03  0.20197870780E+02  0.50502145154E+03  0.40000000000E+03 0. -1.
<mgrwt>
<rscale>  2 0.50461739E+03</rscale>
<asrwt>0</asrwt>
<pdfrwt beam="1">  1       21 0.10841098E+00 0.50461739E+03</pdfrwt>
<pdfrwt beam="2">  1       21 0.59448940E-01 0.50461739E+03</pdfrwt>
<totfact> 0.15018253E+03</totfact>
</mgrwt>
</event>
<event>
 4    1  0.4656600E-002  0.4023593E+03  0.7818608E-02  0.1042966E+00
         21   -1    0    0  503  502  0.00000000000E+00  0.00000000000E+00  0.15517708650E+04  0.15517708650E+04  0.00000000000E+00 0.  1.
         21   -1    0    0  501  503 -0.00000000000E+00 -0.00000000000E+00 -0.17763430420E+03  0.17763430420E+03  0.00000000000E+00 0.  1.
    9000007    1    1    2  501    0  0.28300458507E+02 -0.33046786419E+02  0.13158079878E+03  0.42332790205E+03  0.40000000000E+03 0.  1.
   -9000007    1    1    2    0  502 -0.28300458507E+02  0.33046786419E+02  0.12425557620E+04  0.13060772672E+04  0.40000000000E+03 0.  1.
<mgrwt>
<rscale>  2 0.40235930E+03</rscale>
<asrwt>0</asrwt>
<pdfrwt beam="1">  1       21 0.23873397E+00 0.40235930E+03</pdfrwt>
<pdfrwt beam="2">  1       21 0.27328355E-01 0.40235930E+03</pdfrwt>
<totfact> 0.83354421E+02</totfact>
</mgrwt>
</event>
<event>
 4    1  0.4656600E-002  0.5678173E+03  0.7818608E-02  0.9974520E-01
         21   -1    0    0  501  502  0.00000000000E+00  0.00000000000E+00  0.13196623960E+04  0.13196623960E+04  0.00000000000E+00 0.  1.
         21   -1    0    0  502  503 -0.00000000000E+00 -0.00000000000E+00 -0.24483757845E+03  0.24483757845E+03  0.00000000000E+00 0. -1.
    9000007    1    1    2  501    0 -0.10756093916E+03 -0.38839039532E+03  0.57346964214E+03  0.80702161388E+03  0.40000000000E+03 0.  1.
   -9000007    1    1    2    0  503  0.10756093916E+03  0.38839039532E+03  0.50135517541E+03  0.75747836056E+03  0.40000000000E+03 0. -1.
<mgrwt>
<rscale>  2 0.56781727E+03</rscale>
<asrwt>0</asrwt>
<pdfrwt beam="1">  1       21 0.20302498E+00 0.56781727E+03</pdfrwt>
<pdfrwt beam="2">  1       21 0.37667321E-01 0.56781727E+03</pdfrwt>
<totfact> 0.68834745E+02</totfact>
</mgrwt>
</event>
<event>
 4    1  0.4656600E-002  0.4898744E+03  0.7818608E-02  0.1016456E+00
         21   -1    0    0  501  502  0.00000000000E+00  0.00000000000E+00  0.11863645639E+04  0.11863645639E+04  0.00000000000E+00 0. -1.
         21   -1    0    0  502  503 -0.00000000000E+00 -0.00000000000E+00 -0.20378055249E+03  0.20378055249E+03  0.00000000000E+00 0. -1.
    9000007    1    1    2  501    0  0.21551392548E+03  0.18311394634E+03  0.55095136477E+03  0.73724105675E+03  0.40000000000E+03 0. -1.
   -9000007    1    1    2    0  503 -0.21551392548E+03 -0.18311394634E+03  0.43163264661E+03  0.65290405960E+03  0.40000000000E+03 0. -1.
<mgrwt>
<rscale>  2 0.48987444E+03</rscale>
<asrwt>0</asrwt>
<pdfrwt beam="1">  1       21 0.18251762E+00 0.48987444E+03</pdfrwt>
<pdfrwt beam="2">  1       21 0.31350855E-01 0.48987444E+03</pdfrwt>
<totfact> 0.14206953E+03</totfact>
</mgrwt>
</event>
<event>
 4    1  0.4656600E-002  0.5587976E+03  0.7818608E-02  0.9994779E-01
         21   -1    0    0  503  502  0.00000000000E+00  0.00000000000E+00  0.43052076854E+03  0.43052076854E+03  0.00000000000E+00 0. -1.
         21   -1    0    0  501  503 -0.00000000000E+00 -0.00000000000E+00 -0.19472409952E+04  0.19472409952E+04  0.00000000000E+00 0.  1.
    9000007    1    1    2  501    0  0.34027325693E+03 -0.19096827032E+03 -0.17001508430E+04  0.17896277989E+04  0.40000000000E+03 0.  1.
   -9000007    1    1    2    0  502 -0.34027325693E+03  0.19096827032E+03  0.18343061630E+03  0.58813396488E+03  0.40000000000E+03 0. -1.
<mgrwt>
<rscale>  2 0.55879761E+03</rscale>
<asrwt>0</asrwt>
<pdfrwt beam="1">  1       21 0.66233963E-01 0.55879761E+03</pdfrwt>
<pdfrwt beam="2">  1       21 0.29957554E+00 0.55879761E+03</pdfrwt>
<totfact> 0.51383039E+01</totfact>
</mgrwt>
</event>
<event>
 4    1  0.4656600E-002  0.4592278E+03  0.7818608E-02  0.1025005E+00
         21   -1    0    0  501  502  0.00000000000E+00  0.00000000000E+00  0.37553181269E+03  0.37553181269E+03  0.00000000000E+00 0.  1.
         21   -1    0    0  502  503 -0.00000000000E+00 -0.00000000000E+00 -0.72738637523E+03  0.72738637523E+03  0.00000000000E+00 0.  1.
    9000007    1    1    2  501    0 -0.20679862588E+03  0.90136237330E+02  0.87362874309E+02  0.46746388604E+03  0.40000000000E+03 0.  1.
   -9000007    1    1    2    0  503  0.20679862588E+03 -0.90136237330E+02 -0.43921743684E+03  0.63545430188E+03  0.40000000000E+03 0.  1.
<mgrwt>
<rscale>  2 0.45922784E+03</rscale>
<asrwt>0</asrwt>
<pdfrwt beam="1">  1       21 0.57774126E-01 0.45922784E+03</pdfrwt>
<pdfrwt beam="2">  1       21 0.11190560E+00 0.45922784E+03</pdfrwt>
<totfact> 0.15022757E+03</totfact>
</mgrwt>
</event>
<event>
 4    1  0.4656600E-002  0.4929356E+03  0.7818608E-02  0.1015639E+00
         21   -1    0    0  501  502  0.00000000000E+00  0.00000000000E+00  0.11701852537E+04  0.11701852537E+04  0.00000000000E+00 0. -1.
         21   -1    0    0  502  503 -0.00000000000E+00 -0.00000000000E+00 -0.44373691525E+03  0.44373691525E+03  0.00000000000E+00 0. -1.
    9000007    1    1    2  501    0  0.60111507059E+02  0.28173057327E+03  0.95183532502E+03  0.10719029784E+04  0.40000000000E+03 0. -1.
   -9000007    1    1    2    0  503 -0.60111507059E+02 -0.28173057327E+03 -0.22538698657E+03  0.54201919054E+03  0.40000000000E+03 0. -1.
<mgrwt>
<rscale>  2 0.49293560E+03</rscale>
<asrwt>0</asrwt>
<pdfrwt beam="1">  1       21 0.18002850E+00 0.49293560E+03</pdfrwt>
<pdfrwt beam="2">  1       21 0.68267218E-01 0.49293560E+03</pdfrwt>
<totfact> 0.28548237E+02</totfact>
</mgrwt>
</event>
<event>
 4    1  0.4656600E-002  0.4619733E+03  0.7818608E-02  0.1024210E+00
         21   -1    0    0  501  502  0.00000000000E+00  0.00000000000E+00  0.10244860794E+04  0.10244860794E+04  0.00000000000E+00 0. -1.
         21   -1    0    0  502  503 -0.00000000000E+00 -0.00000000000E+00 -0.20834454635E+03  0.20834454635E+03  0.00000000000E+00 0. -1.
    9000007    1    1    2  501    0  0.14224175324E+03 -0.18217185116E+03  0.40116523060E+03  0.61184380520E+03  0.40000000000E+03 0. -1.
   -9000007    1    1    2    0  503 -0.14224175324E+03  0.18217185116E+03  0.41497630249E+03  0.62098682059E+03  0.40000000000E+03 0. -1.
<mgrwt>
<rscale>  2 0.46197327E+03</rscale>
<asrwt>0</asrwt>
<pdfrwt beam="1">  1       21 0.15761324E+00 0.46197327E+03</pdfrwt>
<pdfrwt beam="2">  1       21 0.32053008E-01 0.46197327E+03</pdfrwt>
<totfact> 0.20893025E+03</totfact>
</mgrwt>
</event>
<event>
 4    1  0.4656600E-002  0.5319643E+03  0.7818608E-02  0.1005757E+00
         21   -1    0    0  501  502  0.00000000000E+00  0.00000000000E+00  0.80407506847E+03  0.80407506847E+03  0.00000000000E+00 0. -1.
         21   -1    0    0  502  503 -0.00000000000E+00 -0.00000000000E+00 -0.74100449003E+03  0.74100449003E+03  0.00000000000E+00 0.  1.
    9000007    1    1    2  501    0 -0.17684831986E+03  0.30283771312E+03  0.59132040562E+03  0.79539036380E+03  0.40000000000E+03 0. -1.
   -9000007    1    1    2    0  503  0.17684831986E+03 -0.30283771312E+03 -0.52824982718E+03  0.74968919470E+03  0.40000000000E+03 0.  1.
<mgrwt>
<rscale>  2 0.53196429E+03</rscale>
<asrwt>0</asrwt>
<pdfrwt beam="1">  1       21 0.12370386E+00 0.53196429E+03</pdfrwt>
<pdfrwt beam="2">  1       21 0.11400069E+00 0.53196429E+03</pdfrwt>
<totfact> 0.23210716E+02</totfact>
</mgrwt>
</event>
<event>
 4    1  0.4656600E-002  0.4728150E+03  0.7818608E-02  0.1021129E+00
         21   -1    0    0  503  502  0.00000000000E+00  0.00000000000E+00  0.16170185865E+03  0.16170185865E+03  0.00000000000E+00 0. -1.
         21   -1    0    0  501  503 -0.00000000000E+00 -0.00000000000E+00 -0.17433598449E+04  0.17433598449E+04  0.00000000000E+00 0.  1.
    9000007    1    1    2  501    0 -0.25194391680E+03 -0.88472598285E+01 -0.12241905435E+04  0.13123248447E+04  0.40000000000E+03 0.  1.
   -9000007    1    1    2    0  502  0.25194391680E+03  0.88472598285E+01 -0.35746744277E+03  0.59273685887E+03  0.40000000000E+03 0. -1.
<mgrwt>
<rscale>  2 0.47281499E+03</rscale>
<asrwt>0</asrwt>
<pdfrwt beam="1">  1       21 0.24877210E-01 0.47281499E+03</pdfrwt>
<pdfrwt beam="2">  1       21 0.26820920E+00 0.47281499E+03</pdfrwt>
<totfact> 0.63684460E+02</totfact>
</mgrwt>
</event>
<event>
 4    1  0.4656600E-002  0.4235000E+03  0.7818608E-02  0.1035933E+00
         21   -1    0    0  501  502  0.00000000000E+00  0.00000000000E+00  0.70000453803E+03  0.70000453803E+03  0.00000000000E+00 0. -1.
         21   -1    0    0  502  503 -0.00000000000E+00 -0.00000000000E+00 -0.70177991055E+03  0.70177991055E+03  0.00000000000E+00 0. -1.
    9000007    1    1    2  501    0 -0.87749771533E+02 -0.10794539784E+03  0.55759005821E+03  0.70018490724E+03  0.40000000000E+03 0. -1.
   -9000007    1    1    2    0  503  0.87749771533E+02  0.10794539784E+03 -0.55936543072E+03  0.70159954134E+03  0.40000000000E+03 0. -1.
<mgrwt>
<rscale>  2 0.42349998E+03</rscale>
<asrwt>0</asrwt>
<pdfrwt beam="1">  1       21 0.10769300E+00 0.42349998E+03</pdfrwt>
<pdfrwt beam="2">  1       21 0.10796614E+00 0.42349998E+03</pdfrwt>
<totfact> 0.39564247E+02</totfact>
</mgrwt>
</event>
<event>
 4    1  0.4656600E-002  0.4093560E+03  0.7818608E-02  0.1040587E+00
         21   -1    0    0  501  502  0.00000000000E+00  0.00000000000E+00  0.53148106715E+03  0.53148106715E+03  0.00000000000E+00 0. -1.
         21   -1    0    0  502  503 -0.00000000000E+00 -0.00000000000E+00 -0.35037931061E+03  0.35037931061E+03  0.00000000000E+00 0. -1.
    9000007    1    1    2  501    0 -0.66853904296E+01  0.86761774862E+02  0.23008132817E+03  0.46958462240E+03  0.40000000000E+03 0. -1.
   -9000007    1    1    2    0  503  0.66853904296E+01 -0.86761774862E+02 -0.48979571628E+02  0.41227575536E+03  0.40000000000E+03 0. -1.
<mgrwt>
<rscale>  2 0.40935596E+03</rscale>
<asrwt>0</asrwt>
<pdfrwt beam="1">  1       21 0.81766318E-01 0.40935596E+03</pdfrwt>
<pdfrwt beam="2">  1       21 0.53904509E-01 0.40935596E+03</pdfrwt>
<totfact> 0.37802021E+03</totfact>
</mgrwt>
</event>
<event>
 4    1  0.4656600E-002  0.5597061E+03  0.7818608E-02  0.9992720E-01
         21   -1    0    0  501  502  0.00000000000E+00  0.00000000000E+00  0.41223264317E+03  0.41223264317E+03  0.00000000000E+00 0.  1.
         21   -1    0    0  502  503 -0.00000000000E+00 -0.00000000000E+00 -0.80786033686E+03  0.80786033686E+03  0.00000000000E+00 0.  1.
    9000007    1    1    2  501    0  0.20487601195E+03  0.33361158942E+03 -0.49231253910E+02  0.56186705654E+03  0.40000000000E+03 0.  1.
   -9000007    1    1    2    0  503 -0.20487601195E+03 -0.33361158942E+03 -0.34639643978E+03  0.65822592349E+03  0.40000000000E+03 0.  1.
<mgrwt>
<rscale>  2 0.55970606E+03</rscale>
<asrwt>0</asrwt>
<pdfrwt beam="1">  1       21 0.63420406E-01 0.55970606E+03</pdfrwt>
<pdfrwt beam="2">  1       21 0.12428621E+00 0.55970606E+03</pdfrwt>
<totfact> 0.90458740E+02</totfact>
</mgrwt>
</event>
<event>
 4    1  0.4656600E-002  0.4874369E+03  0.7818608E-02  0.1017111E+00
         21   -1    0    0  501  502  0.00000000000E+00  0.00000000000E+00  0.75495117871E+03  0.75495117871E+03  0.00000000000E+00 0.  1.
         21   -1    0    0  502  503 -0.00000000000E+00 -0.00000000000E+00 -0.33702606577E+03  0.33702606577E+03  0.00000000000E+00 0. -1.
    9000007    1    1    2  501    0 -0.56911863796E+02 -0.27268262913E+03  0.68484681714E+02  0.49222446922E+03  0.40000000000E+03 0. -1.
   -9000007    1    1    2    0  503  0.56911863796E+02  0.27268262913E+03  0.34944043123E+03  0.59975277527E+03  0.40000000000E+03 0.  1.
<mgrwt>
<rscale>  2 0.48743695E+03</rscale>
<asrwt>0</asrwt>
<pdfrwt beam="1">  1       21 0.11614633E+00 0.48743695E+03</pdfrwt>
<pdfrwt beam="2">  1       21 0.51850164E-01 0.48743695E+03</pdfrwt>
<totfact> 0.17109590E+03</totfact>
</mgrwt>
</event>
<event>
 4    1  0.4656600E-002  0.4393069E+03  0.7818608E-02  0.1030960E+00
         21   -1    0    0  501  502  0.00000000000E+00  0.00000000000E+00  0.64842238386E+03  0.64842238386E+03  0.00000000000E+00 0.  1.
         21   -1    0    0  502  503 -0.00000000000E+00 -0.00000000000E+00 -0.31749395688E+03  0.31749395688E+03  0.00000000000E+00 0.  1.
    9000007    1    1    2  501    0 -0.10284688149E+02 -0.18134162298E+03  0.44664899177E+02  0.44157163887E+03  0.40000000000E+03 0.  1.
   -9000007    1    1    2    0  503  0.10284688149E+02  0.18134162298E+03  0.28626352780E+03  0.52434470188E+03  0.40000000000E+03 0.  1.
<mgrwt>
<rscale>  2 0.43930691E+03</rscale>
<asrwt>0</asrwt>
<pdfrwt beam="1">  1       21 0.99757290E-01 0.43930691E+03</pdfrwt>
<pdfrwt beam="2">  1       21 0.48845224E-01 0.43930691E+03</pdfrwt>
<totfact> 0.28807185E+03</totfact>
</mgrwt>
</event>
<event>
 4    1  0.4656600E-002  0.5438249E+03  0.7818608E-02  0.1002933E+00
         21   -1    0    0  501  502  0.00000000000E+00  0.00000000000E+00  0.46159278850E+03  0.46159278850E+03  0.00000000000E+00 0.  1.
         21   -1    0    0  502  503 -0.00000000000E+00 -0.00000000000E+00 -0.72744068055E+03  0.72744068055E+03  0.00000000000E+00 0. -1.
    9000007    1    1    2  501    0 -0.31266071468E+03  0.19490726498E+03  0.72362408001E+02  0.54861815732E+03  0.40000000000E+03 0.  1.
   -9000007    1    1    2    0  503  0.31266071468E+03 -0.19490726498E+03 -0.33821030005E+03  0.64041531174E+03  0.40000000000E+03 0. -1.
<mgrwt>
<rscale>  2 0.54382494E+03</rscale>
<asrwt>0</asrwt>
<pdfrwt beam="1">  1       21 0.71014275E-01 0.54382494E+03</pdfrwt>
<pdfrwt beam="2">  1       21 0.11191395E+00 0.54382494E+03</pdfrwt>
<totfact> 0.92085933E+02</totfact>
</mgrwt>
</event>
<event>
 4    1  0.4656600E-002  0.4367693E+03  0.7818608E-02  0.1031743E+00
         21   -1    0    0  503  502  0.00000000000E+00  0.00000000000E+00  0.17133394846E+04  0.17133394846E+04  0.00000000000E+00 0. -1.
         21   -1    0    0  501  503 -0.00000000000E+00 -0.00000000000E+00 -0.11509822279E+03  0.11509822279E+03  0.00000000000E+00 0. -1.
    9000007    1    1    2  501    0  0.13205600735E+03  0.11544980443E+03  0.63397598814E+03  0.76986557265E+03  0.40000000000E+03 0. -1.
   -9000007    1    1    2    0  502 -0.13205600735E+03 -0.11544980443E+03  0.96426527364E+03  0.10585721347E+04  0.40000000000E+03 0. -1.
<mgrwt>
<rscale>  2 0.43676933E+03</rscale>
<asrwt>0</asrwt>
<pdfrwt beam="1">  1       21 0.26359067E+00 0.43676933E+03</pdfrwt>
<pdfrwt beam="2">  1       21 0.17707420E-01 0.43676933E+03</pdfrwt>
<totfact> 0.13258464E+03</totfact>
</mgrwt>
</event>
<event>
 4    1  0.4656600E-002  0.4091272E+03  0.7818608E-02  0.1040664E+00
         21   -1    0    0  501  502  0.00000000000E+00  0.00000000000E+00  0.45208607424E+03  0.45208607424E+03  0.00000000000E+00 0.  1.
         21   -1    0    0  502  503 -0.00000000000E+00 -0.00000000000E+00 -0.42218497455E+03  0.42218497455E+03  0.00000000000E+00 0.  1.
    9000007    1    1    2  501    0  0.23394902234E+02 -0.82690640836E+02  0.16826845523E+03  0.44237917736E+03  0.40000000000E+03 0.  1.
   -9000007    1    1    2    0  503 -0.23394902234E+02  0.82690640836E+02 -0.13836735555E+03  0.43189187144E+03  0.40000000000E+03 0.  1.
<mgrwt>
<rscale>  2 0.40912720E+03</rscale>
<asrwt>0</asrwt>
<pdfrwt beam="1">  1       21 0.69551704E-01 0.40912720E+03</pdfrwt>
<pdfrwt beam="2">  1       21 0.64951534E-01 0.40912720E+03</pdfrwt>
<totfact> 0.36394372E+03</totfact>
</mgrwt>
</event>
<event>
 4    1  0.4656600E-002  0.4175899E+03  0.7818608E-02  0.1037854E+00
         21   -1    0    0  503  502  0.00000000000E+00  0.00000000000E+00  0.24970996196E+03  0.24970996196E+03  0.00000000000E+00 0.  1.
         21   -1    0    0  501  503 -0.00000000000E+00 -0.00000000000E+00 -0.83371250503E+03  0.83371250503E+03  0.00000000000E+00 0.  1.
    9000007    1    1    2  501    0  0.10579648284E+02 -0.11945452322E+03 -0.51029047557E+03  0.65937673718E+03  0.40000000000E+03 0.  1.
   -9000007    1    1    2    0  502 -0.10579648284E+02  0.11945452322E+03 -0.73712067506E+02  0.42404572981E+03  0.40000000000E+03 0.  1.
<mgrwt>
<rscale>  2 0.41758989E+03</rscale>
<asrwt>0</asrwt>
<pdfrwt beam="1">  1       21 0.38416917E-01 0.41758989E+03</pdfrwt>
<pdfrwt beam="2">  1       21 0.12826346E+00 0.41758989E+03</pdfrwt>
<totfact> 0.25545807E+03</totfact>
</mgrwt>
</event>
<event>
 4    1  0.4656600E-002  0.4075245E+03  0.7818608E-02  0.1041205E+00
         21   -1    0    0  501  502  0.00000000000E+00  0.00000000000E+00  0.35054967196E+03  0.35054967196E+03  0.00000000000E+00 0. -1.
         21   -1    0    0  502  503 -0.00000000000E+00 -0.00000000000E+00 -0.53257940144E+03  0.53257940144E+03  0.00000000000E+00 0. -1.
    9000007    1    1    2  501    0  0.46179570416E+02 -0.62798873792E+02  0.55730368656E+02  0.41131754796E+03  0.40000000000E+03 0. -1.
   -9000007    1    1    2    0  503 -0.46179570416E+02  0.62798873792E+02 -0.23776009813E+03  0.47181152544E+03  0.40000000000E+03 0. -1.
<mgrwt>
<rscale>  2 0.40752454E+03</rscale>
<asrwt>0</asrwt>
<pdfrwt beam="1">  1       21 0.53930719E-01 0.40752454E+03</pdfrwt>
<pdfrwt beam="2">  1       21 0.81935292E-01 0.40752454E+03</pdfrwt>
<totfact> 0.37609060E+03</totfact>
</mgrwt>
</event>
<event>
 4    1  0.4656600E-002  0.4197995E+03  0.7818608E-02  0.1037132E+00
         21   -1    0    0  503  502  0.00000000000E+00  0.00000000000E+00  0.13954461331E+04  0.13954461331E+04  0.00000000000E+00 0. -1.
         21   -1    0    0  501  503 -0.00000000000E+00 -0.00000000000E+00 -0.27016775402E+03  0.27016775402E+03  0.00000000000E+00 0. -1.
    9000007    1    1    2  501    0  0.12150633826E+03 -0.38311810408E+02 -0.45108976127E+02  0.42221606410E+03  0.40000000000E+03 0. -1.
   -9000007    1    1    2    0  502 -0.12150633826E+03  0.38311810408E+02  0.11703873552E+04  0.12433978230E+04  0.40000000000E+03 0. -1.
<mgrwt>
<rscale>  2 0.41979946E+03</rscale>
<asrwt>0</asrwt>
<pdfrwt beam="1">  1       21 0.21468402E+00 0.41979946E+03</pdfrwt>
<pdfrwt beam="2">  1       21 0.41564271E-01 0.41979946E+03</pdfrwt>
<totfact> 0.50345913E+02</totfact>
</mgrwt>
</event>
<event>
 4    1  0.4656600E-002  0.4895083E+03  0.7818608E-02  0.1016554E+00
         21   -1    0    0  503  502  0.00000000000E+00  0.00000000000E+00  0.36765195153E+03  0.36765195153E+03  0.00000000000E+00 0. -1.
         21   -1    0    0  501  503 -0.00000000000E+00 -0.00000000000E+00 -0.65179612770E+03  0.65179612770E+03  0.00000000000E+00 0.  1.
    9000007    1    1    2  501    0  0.15296296609E+03  0.23710914580E+03 -0.13794595816E+03  0.50857399009E+03  0.40000000000E+03 0.  1.
   -9000007    1    1    2    0  502 -0.15296296609E+03 -0.23710914580E+03 -0.14619821800E+03  0.51087408915E+03  0.40000000000E+03 0. -1.
<mgrwt>
<rscale>  2 0.48950834E+03</rscale>
<asrwt>0</asrwt>
<pdfrwt beam="1">  1       21 0.56561839E-01 0.48950834E+03</pdfrwt>
<pdfrwt beam="2">  1       21 0.10027633E+00 0.48950834E+03</pdfrwt>
<totfact> 0.20396971E+03</totfact>
</mgrwt>
</event>
<event>
 4    1  0.4656600E-002  0.5820744E+03  0.7818608E-02  0.9943310E-01
         21   -1    0    0  501  502  0.00000000000E+00  0.00000000000E+00  0.68397900542E+03  0.68397900542E+03  0.00000000000E+00 0. -1.
         21   -1    0    0  502  503 -0.00000000000E+00 -0.00000000000E+00 -0.69302404527E+03  0.69302404527E+03  0.00000000000E+00 0. -1.
    9000007    1    1    2  501    0  0.30365770400E+03 -0.29428323202E+03  0.36318539303E+03  0.68608618377E+03  0.40000000000E+03 0. -1.
   -9000007    1    1    2    0  503 -0.30365770400E+03  0.29428323202E+03 -0.37223043288E+03  0.69091686693E+03  0.40000000000E+03 0. -1.
<mgrwt>
<rscale>  2 0.58207441E+03</rscale>
<asrwt>0</asrwt>
<pdfrwt beam="1">  1       21 0.10522754E+00 0.58207441E+03</pdfrwt>
<pdfrwt beam="2">  1       21 0.10661908E+00 0.58207441E+03</pdfrwt>
<totfact> 0.40457472E+02</totfact>
</mgrwt>
</event>
<event>
 4    1  0.4656600E-002  0.7668572E+03  0.7818608E-02  0.9609269E-01
         21   -1    0    0  501  502  0.00000000000E+00  0.00000000000E+00  0.75295335794E+03  0.75295335794E+03  0.00000000000E+00 0. -1.
         21   -1    0    0  502  503 -0.00000000000E+00 -0.00000000000E+00 -0.80000852625E+03  0.80000852625E+03  0.00000000000E+00 0.  1.
    9000007    1    1    2  501    0 -0.12841563863E+03  0.64154447737E+03 -0.14316183423E+03  0.78010589247E+03  0.40000000000E+03 0. -1.
   -9000007    1    1    2    0  503  0.12841563863E+03 -0.64154447737E+03  0.96106665924E+02  0.77285599171E+03  0.40000000000E+03 0. -1.
<mgrwt>
<rscale>  2 0.76685715E+03</rscale>
<asrwt>0</asrwt>
<pdfrwt beam="1">  1       21 0.11583898E+00 0.76685715E+03</pdfrwt>
<pdfrwt beam="2">  1       21 0.12307824E+00 0.76685715E+03</pdfrwt>
<totfact> 0.20853758E+02</totfact>
</mgrwt>
</event>
<event>
 4    1  0.4656600E-002  0.4120341E+03  0.7818608E-02  0.1039691E+00
         21   -1    0    0  501  502  0.00000000000E+00  0.00000000000E+00  0.12112435275E+04  0.12112435275E+04  0.00000000000E+00 0.  1.
         21   -1    0    0  502  503 -0.00000000000E+00 -0.00000000000E+00 -0.19513279455E+03  0.19513279455E+03  0.00000000000E+00 0.  1.
    9000007    1    1    2  501    0 -0.13020892996E+02 -0.97992667669E+02  0.88127680583E+03  0.97284167009E+03  0.40000000000E+03 0.  1.
   -9000007    1    1    2    0  503  0.13020892996E+02  0.97992667669E+02  0.13483392715E+03  0.43353465200E+03  0.40000000000E+03 0.  1.
<mgrwt>
<rscale>  2 0.41203411E+03</rscale>
<asrwt>0</asrwt>
<pdfrwt beam="1">  1       21 0.18634515E+00 0.41203411E+03</pdfrwt>
<pdfrwt beam="2">  1       21 0.30020431E-01 0.41203411E+03</pdfrwt>
<totfact> 0.15066011E+03</totfact>
</mgrwt>
</event>
<event>
 4    1  0.4656600E-002  0.4963899E+03  0.7818608E-02  0.1014726E+00
         21   -1    0    0  503  502  0.00000000000E+00  0.00000000000E+00  0.30856182928E+03  0.30856182928E+03  0.00000000000E+00 0.  1.
         21   -1    0    0  501  503 -0.00000000000E+00 -0.00000000000E+00 -0.80085012027E+03  0.80085012027E+03  0.00000000000E+00 0. -1.
    9000007    1    1    2  501    0  0.20651120768E+03  0.20917935989E+03 -0.27585443972E+03  0.56788956269E+03  0.40000000000E+03 0. -1.
   -9000007    1    1    2    0  502 -0.20651120768E+03 -0.20917935989E+03 -0.21643385126E+03  0.54152238686E+03  0.40000000000E+03 0.  1.
<mgrwt>
<rscale>  2 0.49638985E+03</rscale>
<asrwt>0</asrwt>
<pdfrwt beam="1">  1       21 0.47471051E-01 0.49638985E+03</pdfrwt>
<pdfrwt beam="2">  1       21 0.12320771E+00 0.49638985E+03</pdfrwt>
<totfact> 0.17709652E+03</totfact>
</mgrwt>
</event>
<event>
 4    1  0.4656600E-002  0.4104822E+03  0.7818608E-02  0.1040209E+00
         21   -1    0    0  503  502  0.00000000000E+00  0.00000000000E+00  0.43123892203E+03  0.43123892203E+03  0.00000000000E+00 0. -1.
         21   -1    0    0  501  503 -0.00000000000E+00 -0.00000000000E+00 -0.41898915198E+03  0.41898915198E+03  0.00000000000E+00 0. -1.
    9000007    1    1    2  501    0 -0.90696290828E+02 -0.16426565938E+02 -0.10428938794E+03  0.42352322920E+03  0.40000000000E+03 0.  1.
   -9000007    1    1    2    0  502  0.90696290828E+02  0.16426565938E+02  0.11653915799E+03  0.42670484481E+03  0.40000000000E+03 0.  1.
<mgrwt>
<rscale>  2 0.41048222E+03</rscale>
<asrwt>0</asrwt>
<pdfrwt beam="1">  1       21 0.66344449E-01 0.41048222E+03</pdfrwt>
<pdfrwt beam="2">  1       21 0.64459870E-01 0.41048222E+03</pdfrwt>
<totfact> 0.41110113E+03</totfact>
</mgrwt>
</event>
<event>
 4    1  0.4656600E-002  0.4256801E+03  0.7818608E-02  0.1035233E+00
         21   -1    0    0  501  502  0.00000000000E+00  0.00000000000E+00  0.31838263269E+03  0.31838263269E+03  0.00000000000E+00 0.  1.
         21   -1    0    0  502  503 -0.00000000000E+00 -0.00000000000E+00 -0.65898745380E+03  0.65898745380E+03  0.00000000000E+00 0.  1.
    9000007    1    1    2  501    0  0.98083613620E+02 -0.10762490154E+03  0.10144419970E+02  0.42580092056E+03  0.40000000000E+03 0. -1.
   -9000007    1    1    2    0  503 -0.98083613620E+02  0.10762490154E+03 -0.35074924108E+03  0.55156916593E+03  0.40000000000E+03 0. -1.
<mgrwt>
<rscale>  2 0.42568006E+03</rscale>
<asrwt>0</asrwt>
<pdfrwt beam="1">  1       21 0.48981943E-01 0.42568006E+03</pdfrwt>
<pdfrwt beam="2">  1       21 0.10138269E+00 0.42568006E+03</pdfrwt>
<totfact> 0.27672774E+03</totfact>
</mgrwt>
</event>
<event>
 4    1  0.4656600E-002  0.5085365E+03  0.7818608E-02  0.1011574E+00
         21   -1    0    0  501  502  0.00000000000E+00  0.00000000000E+00  0.10118473356E+04  0.10118473356E+04  0.00000000000E+00 0.  1.
         21   -1    0    0  502  503 -0.00000000000E+00 -0.00000000000E+00 -0.30260969186E+03  0.30260969186E+03  0.00000000000E+00 0.  1.
    9000007    1    1    2  501    0 -0.11755554759E+03  0.29118742261E+03  0.61371099529E+03  0.79702610221E+03  0.40000000000E+03 0.  1.
   -9000007    1    1    2    0  503  0.11755554759E+03 -0.29118742261E+03  0.95526648451E+02  0.51743092526E+03  0.40000000000E+03 0.  1.
<mgrwt>
<rscale>  2 0.50853655E+03</rscale>
<asrwt>0</asrwt>
<pdfrwt beam="1">  1       21 0.15566882E+00 0.50853655E+03</pdfrwt>
<pdfrwt beam="2">  1       21 0.46555338E-01 0.50853655E+03</pdfrwt>
<totfact> 0.98654917E+02</totfact>
</mgrwt>
</event>
<event>
 4    1  0.4656600E-002  0.4007394E+03  0.7818608E-02  0.1043524E+00
         21   -1    0    0  503  502  0.00000000000E+00  0.00000000000E+00  0.43646158617E+03  0.43646158617E+03  0.00000000000E+00 0. -1.
         21   -1    0    0  501  503 -0.00000000000E+00 -0.00000000000E+00 -0.42312414707E+03  0.42312414707E+03  0.00000000000E+00 0. -1.
    9000007    1    1    2  501    0 -0.10715507272E+02  0.21846232963E+02 -0.14854454127E+03  0.42738455837E+03  0.40000000000E+03 0. -1.
   -9000007    1    1    2    0  502  0.10715507272E+02 -0.21846232963E+02  0.16188198037E+03  0.43220117487E+03  0.40000000000E+03 0. -1.
<mgrwt>
<rscale>  2 0.40073942E+03</rscale>
<asrwt>0</asrwt>
<pdfrwt beam="1">  1       21 0.67147936E-01 0.40073942E+03</pdfrwt>
<pdfrwt beam="2">  1       21 0.65096022E-01 0.40073942E+03</pdfrwt>
<totfact> 0.39307144E+03</totfact>
</mgrwt>
</event>
<event>
 4    1  0.4656600E-002  0.5613365E+03  0.7818608E-02  0.9989035E-01
         21   -1    0    0  501  502  0.00000000000E+00  0.00000000000E+00  0.26712158108E+03  0.26712158108E+03  0.00000000000E+00 0. -1.
         21   -1    0    0  502  503 -0.00000000000E+00 -0.00000000000E+00 -0.12514448540E+04  0.12514448540E+04  0.00000000000E+00 0.  1.
    9000007    1    1    2  501    0  0.39340012328E+03  0.18303259527E+02 -0.31024492892E+03  0.64136618420E+03  0.40000000000E+03 0. -1.
   -9000007    1    1    2    0  503 -0.39340012328E+03 -0.18303259527E+02 -0.67407834396E+03  0.87720025086E+03  0.40000000000E+03 0.  1.
<mgrwt>
<rscale>  2 0.56133650E+03</rscale>
<asrwt>0</asrwt>
<pdfrwt beam="1">  1       21 0.41095628E-01 0.56133650E+03</pdfrwt>
<pdfrwt beam="2">  1       21 0.19252998E+00 0.56133650E+03</pdfrwt>
<totfact> 0.67891372E+02</totfact>
</mgrwt>
</event>
<event>
 4    1  0.4656600E-002  0.4899404E+03  0.7818608E-02  0.1016438E+00
         21   -1    0    0  503  502  0.00000000000E+00  0.00000000000E+00  0.86191160371E+03  0.86191160371E+03  0.00000000000E+00 0. -1.
         21   -1    0    0  501  503 -0.00000000000E+00 -0.00000000000E+00 -0.29219464588E+03  0.29219464588E+03  0.00000000000E+00 0. -1.
    9000007    1    1    2  501    0  0.26723261020E+03 -0.92888543502E+02  0.15992743123E+03  0.51538173496E+03  0.40000000000E+03 0. -1.
   -9000007    1    1    2    0  502 -0.26723261020E+03  0.92888543502E+02  0.40978952660E+03  0.63872451463E+03  0.40000000000E+03 0. -1.
<mgrwt>
<rscale>  2 0.48994035E+03</rscale>
<asrwt>0</asrwt>
<pdfrwt beam="1">  1       21 0.13260178E+00 0.48994035E+03</pdfrwt>
<pdfrwt beam="2">  1       21 0.44953023E-01 0.48994035E+03</pdfrwt>
<totfact> 0.16457777E+03</totfact>
</mgrwt>
</event>
<event>
 4    1  0.4656600E-002  0.5373441E+03  0.7818608E-02  0.1004466E+00
         21   -1    0    0  501  502  0.00000000000E+00  0.00000000000E+00  0.56260128895E+03  0.56260128895E+03  0.00000000000E+00 0.  1.
         21   -1    0    0  502  503 -0.00000000000E+00 -0.00000000000E+00 -0.66157587966E+03  0.66157587966E+03  0.00000000000E+00 0.  1.
    9000007    1    1    2  501    0  0.18454805433E+02  0.35832674566E+03  0.24036435761E+03  0.58865410974E+03  0.40000000000E+03 0. -1.
   -9000007    1    1    2    0  503 -0.18454805433E+02 -0.35832674566E+03 -0.33933894832E+03  0.63552305886E+03  0.40000000000E+03 0. -1.
<mgrwt>
<rscale>  2 0.53734406E+03</rscale>
<asrwt>0</asrwt>
<pdfrwt beam="1">  1       21 0.86554044E-01 0.53734406E+03</pdfrwt>
<pdfrwt beam="2">  1       21 0.10178090E+00 0.53734406E+03</pdfrwt>
<totfact> 0.73913753E+02</totfact>
</mgrwt>
</event>
<event>
 4    1  0.4656600E-002  0.6301930E+03  0.7818608E-02  0.9844672E-01
         21   -1    0    0  503  502  0.00000000000E+00  0.00000000000E+00  0.22714701862E+03  0.22714701862E+03  0.00000000000E+00 0. -1.
         21   -1    0    0  501  503 -0.00000000000E+00 -0.00000000000E+00 -0.17546952913E+04  0.17546952913E+04  0.00000000000E+00 0.  1.
    9000007    1    1    2  501    0 -0.36593066656E+02 -0.48559667187E+03 -0.82314145579E+03  0.10366798139E+04  0.40000000000E+03 0. -1.
   -9000007    1    1    2    0  502  0.36593066656E+02  0.48559667187E+03 -0.70440681689E+03  0.94516249605E+03  0.40000000000E+03 0.  1.
<mgrwt>
<rscale>  2 0.63019297E+03</rscale>
<asrwt>0</asrwt>
<pdfrwt beam="1">  1       21 0.34945695E-01 0.63019297E+03</pdfrwt>
<pdfrwt beam="2">  1       21 0.26995312E+00 0.63019297E+03</pdfrwt>
<totfact> 0.29455932E+02</totfact>
</mgrwt>
</event>
<event>
 4    1  0.4656600E-002  0.4530292E+03  0.7818608E-02  0.1026823E+00
         21   -1    0    0  501  502  0.00000000000E+00  0.00000000000E+00  0.14589762968E+03  0.14589762968E+03  0.00000000000E+00 0. -1.
         21   -1    0    0  502  503 -0.00000000000E+00 -0.00000000000E+00 -0.15276234818E+04  0.15276234818E+04  0.00000000000E+00 0.  1.
    9000007    1    1    2  501    0 -0.18120674862E+03 -0.11135318952E+03 -0.92627747896E+03  0.10311282105E+04  0.40000000000E+03 0.  1.
   -9000007    1    1    2    0  503  0.18120674862E+03  0.11135318952E+03 -0.45544837318E+03  0.64239290095E+03  0.40000000000E+03 0. -1.
<mgrwt>
<rscale>  2 0.45302916E+03</rscale>
<asrwt>0</asrwt>
<pdfrwt beam="1">  1       21 0.22445789E-01 0.45302916E+03</pdfrwt>
<pdfrwt beam="2">  1       21 0.23501900E+00 0.45302916E+03</pdfrwt>
<totfact> 0.12553386E+03</totfact>
</mgrwt>
</event>
<event>
 4    1  0.4656600E-002  0.4742180E+03  0.7818608E-02  0.1020736E+00
         21   -1    0    0  501  502  0.00000000000E+00  0.00000000000E+00  0.47033969972E+03  0.47033969972E+03  0.00000000000E+00 0. -1.
         21   -1    0    0  502  503 -0.00000000000E+00 -0.00000000000E+00 -0.54217005206E+03  0.54217005206E+03  0.00000000000E+00 0. -1.
    9000007    1    1    2  501    0 -0.64751911004E+02  0.24635328706E+03  0.13807824832E+03  0.49391128220E+03  0.40000000000E+03 0. -1.
   -9000007    1    1    2    0  503  0.64751911004E+02 -0.24635328706E+03 -0.20990860066E+03  0.51859846958E+03  0.40000000000E+03 0. -1.
<mgrwt>
<rscale>  2 0.47421804E+03</rscale>
<asrwt>0</asrwt>
<pdfrwt beam="1">  1       21 0.72359954E-01 0.47421804E+03</pdfrwt>
<pdfrwt beam="2">  1       21 0.83410777E-01 0.47421804E+03</pdfrwt>
<totfact> 0.18404032E+03</totfact>
</mgrwt>
</event>
<event>
 4    1  0.4656600E-002  0.4678130E+03  0.7818608E-02  0.1022539E+00
         21   -1    0    0  501  502  0.00000000000E+00  0.00000000000E+00  0.16470806577E+03  0.16470806577E+03  0.00000000000E+00 0.  1.
         21   -1    0    0  502  503 -0.00000000000E+00 -0.00000000000E+00 -0.14286633302E+04  0.14286633302E+04  0.00000000000E+00 0.  1.
    9000007    1    1    2  501    0  0.54243411906E+02 -0.23644593526E+03 -0.42124893248E+03  0.62952338412E+03  0.40000000000E+03 0.  1.
   -9000007    1    1    2    0  503 -0.54243411906E+02  0.23644593526E+03 -0.84270633195E+03  0.96384801185E+03  0.40000000000E+03 0.  1.
<mgrwt>
<rscale>  2 0.46781303E+03</rscale>
<asrwt>0</asrwt>
<pdfrwt beam="1">  1       21 0.25339703E-01 0.46781303E+03</pdfrwt>
<pdfrwt beam="2">  1       21 0.21979436E+00 0.46781303E+03</pdfrwt>
<totfact> 0.12304311E+03</totfact>
</mgrwt>
</event>
<event>
 4    1  0.4656600E-002  0.4712642E+03  0.7818608E-02  0.1021564E+00
         21   -1    0    0  503  502  0.00000000000E+00  0.00000000000E+00  0.52806261422E+03  0.52806261422E+03  0.00000000000E+00 0.  1.
         21   -1    0    0  501  503 -0.00000000000E+00 -0.00000000000E+00 -0.44908766718E+03  0.44908766718E+03  0.00000000000E+00 0.  1.
    9000007    1    1    2  501    0  0.18958280203E+03  0.16170442305E+03 -0.83619983149E+02  0.47862538675E+03  0.40000000000E+03 0.  1.
   -9000007    1    1    2    0  502 -0.18958280203E+03 -0.16170442305E+03  0.16259493019E+03  0.49852489465E+03  0.40000000000E+03 0.  1.
<mgrwt>
<rscale>  2 0.47126421E+03</rscale>
<asrwt>0</asrwt>
<pdfrwt beam="1">  1       21 0.81240402E-01 0.47126421E+03</pdfrwt>
<pdfrwt beam="2">  1       21 0.69090410E-01 0.47126421E+03</pdfrwt>
<totfact> 0.21745414E+03</totfact>
</mgrwt>
</event>
<event>
 4    1  0.4656600E-002  0.4810486E+03  0.7818608E-02  0.1018847E+00
         21   -1    0    0  503  502  0.00000000000E+00  0.00000000000E+00  0.26015209660E+03  0.26015209660E+03  0.00000000000E+00 0.  1.
         21   -1    0    0  501  503 -0.00000000000E+00 -0.00000000000E+00 -0.91338978280E+03  0.91338978280E+03  0.00000000000E+00 0.  1.
    9000007    1    1    2  501    0 -0.26000782082E+03 -0.61674118575E+02 -0.42149567415E+03  0.63958296343E+03  0.40000000000E+03 0.  1.
   -9000007    1    1    2    0  502  0.26000782082E+03  0.61674118575E+02 -0.23174201205E+03  0.53395891596E+03  0.40000000000E+03 0.  1.
<mgrwt>
<rscale>  2 0.48104861E+03</rscale>
<asrwt>0</asrwt>
<pdfrwt beam="1">  1       21 0.40023398E-01 0.48104861E+03</pdfrwt>
<pdfrwt beam="2">  1       21 0.14052151E+00 0.48104861E+03</pdfrwt>
<totfact> 0.18040589E+03</totfact>
</mgrwt>
</event>
<event>
 4    1  0.4656600E-002  0.4210864E+03  0.7818608E-02  0.1036713E+00
         21   -1    0    0  501  502  0.00000000000E+00  0.00000000000E+00  0.23329335822E+03  0.23329335822E+03  0.00000000000E+00 0. -1.
         21   -1    0    0  502  503 -0.00000000000E+00 -0.00000000000E+00 -0.89964981725E+03  0.89964981725E+03  0.00000000000E+00 0. -1.
    9000007    1    1    2  501    0  0.93519208919E+01 -0.13124896764E+03 -0.11003198127E+03  0.43522498416E+03  0.40000000000E+03 0. -1.
   -9000007    1    1    2    0  503 -0.93519208919E+01  0.13124896764E+03 -0.55632447776E+03  0.69771819131E+03  0.40000000000E+03 0. -1.
<mgrwt>
<rscale>  2 0.42108639E+03</rscale>
<asrwt>0</asrwt>
<pdfrwt beam="1">  1       21 0.35891286E-01 0.42108639E+03</pdfrwt>
<pdfrwt beam="2">  1       21 0.13840766E+00 0.42108639E+03</pdfrwt>
<totfact> 0.24024319E+03</totfact>
</mgrwt>
</event>
<event>
 4    1  0.4656600E-002  0.4484124E+03  0.7818608E-02  0.1028197E+00
         21   -1    0    0  501  502  0.00000000000E+00  0.00000000000E+00  0.10465112100E+04  0.10465112100E+04  0.00000000000E+00 0.  1.
         21   -1    0    0  502  503 -0.00000000000E+00 -0.00000000000E+00 -0.33185773082E+03  0.33185773082E+03  0.00000000000E+00 0.  1.
    9000007    1    1    2  501    0 -0.84084684791E+02 -0.18440020303E+03  0.80451430871E+03  0.92104122710E+03  0.40000000000E+03 0.  1.
   -9000007    1    1    2    0  503  0.84084684791E+02  0.18440020303E+03 -0.89860829495E+02  0.45732771376E+03  0.40000000000E+03 0.  1.
<mgrwt>
<rscale>  2 0.44841239E+03</rscale>
<asrwt>0</asrwt>
<pdfrwt beam="1">  1       21 0.16100172E+00 0.44841239E+03</pdfrwt>
<pdfrwt beam="2">  1       21 0.51055036E-01 0.44841239E+03</pdfrwt>
<totfact> 0.75719298E+02</totfact>
</mgrwt>
</event>
<event>
 4    1  0.4656600E-002  0.4271804E+03  0.7818608E-02  0.1034754E+00
         21   -1    0    0  503  502  0.00000000000E+00  0.00000000000E+00  0.13499939299E+03  0.13499939299E+03  0.00000000000E+00 0. -1.
         21   -1    0    0  501  503 -0.00000000000E+00 -0.00000000000E+00 -0.13533015884E+04  0.13533015884E+04  0.00000000000E+00 0. -1.
    9000007    1    1    2  501    0  0.13226146350E+03  0.70639644248E+02 -0.63449073721E+03  0.76489316226E+03  0.40000000000E+03 0. -1.
   -9000007    1    1    2    0  502 -0.13226146350E+03 -0.70639644248E+02 -0.58381145820E+03  0.72340781914E+03  0.40000000000E+03 0. -1.
<mgrwt>
<rscale>  2 0.42718035E+03</rscale>
<asrwt>0</asrwt>
<pdfrwt beam="1">  1       21 0.20769138E-01 0.42718035E+03</pdfrwt>
<pdfrwt beam="2">  1       21 0.20820024E+00 0.42718035E+03</pdfrwt>
<totfact> 0.21857961E+03</totfact>
</mgrwt>
</event>
<event>
 4    1  0.4656600E-002  0.7573306E+03  0.7818608E-02  0.9623919E-01
         21   -1    0    0  501  502  0.00000000000E+00  0.00000000000E+00  0.49943062700E+03  0.49943062700E+03  0.00000000000E+00 0.  1.
         21   -1    0    0  502  503 -0.00000000000E+00 -0.00000000000E+00 -0.13622252105E+04  0.13622252105E+04  0.00000000000E+00 0.  1.
    9000007    1    1    2  501    0  0.64219558371E+03  0.33682022100E+02 -0.62617383322E+02  0.75991485250E+03  0.40000000000E+03 0.  1.
   -9000007    1    1    2    0  503 -0.64219558371E+03 -0.33682022100E+02 -0.80017720018E+03  0.11017409850E+04  0.40000000000E+03 0.  1.
<mgrwt>
<rscale>  2 0.75733061E+03</rscale>
<asrwt>0</asrwt>
<pdfrwt beam="1">  1       21 0.76835482E-01 0.75733061E+03</pdfrwt>
<pdfrwt beam="2">  1       21 0.20957311E+00 0.75733061E+03</pdfrwt>
<totfact> 0.12371810E+02</totfact>
</mgrwt>
</event>
<event>
 4    1  0.4656600E-002  0.4662253E+03  0.7818608E-02  0.1022991E+00
         21   -1    0    0  501  502  0.00000000000E+00  0.00000000000E+00  0.71351181353E+03  0.71351181353E+03  0.00000000000E+00 0. -1.
         21   -1    0    0  502  503 -0.00000000000E+00 -0.00000000000E+00 -0.74662222543E+03  0.74662222543E+03  0.00000000000E+00 0.  1.
    9000007    1    1    2  501    0 -0.13377631205E+03  0.19867044054E+03  0.54515644356E+03  0.71732948745E+03  0.40000000000E+03 0. -1.
   -9000007    1    1    2    0  503  0.13377631205E+03 -0.19867044054E+03 -0.57826685546E+03  0.74280455151E+03  0.40000000000E+03 0.  1.
<mgrwt>
<rscale>  2 0.46622532E+03</rscale>
<asrwt>0</asrwt>
<pdfrwt beam="1">  1       21 0.10977105E+00 0.46622532E+03</pdfrwt>
<pdfrwt beam="2">  1       21 0.11486496E+00 0.46622532E+03</pdfrwt>
<totfact> 0.31695268E+02</totfact>
</mgrwt>
</event>
<event>
 4    1  0.4656600E-002  0.4294231E+03  0.7818608E-02  0.1034042E+00
         21   -1    0    0  503  502  0.00000000000E+00  0.00000000000E+00  0.12417630600E+04  0.12417630600E+04  0.00000000000E+00 0.  1.
         21   -1    0    0  501  503 -0.00000000000E+00 -0.00000000000E+00 -0.14908266179E+03  0.14908266179E+03  0.00000000000E+00 0. -1.
    9000007    1    1    2  501    0  0.11423172398E+03 -0.10656122631E+03  0.50293597304E+03  0.66132350230E+03  0.40000000000E+03 0. -1.
   -9000007    1    1    2    0  502 -0.11423172398E+03  0.10656122631E+03  0.58974442520E+03  0.72952221952E+03  0.40000000000E+03 0. -1.
<mgrwt>
<rscale>  2 0.42942308E+03</rscale>
<asrwt>0</asrwt>
<pdfrwt beam="1">  1       21 0.19104046E+00 0.42942308E+03</pdfrwt>
<pdfrwt beam="2">  1       21 0.22935795E-01 0.42942308E+03</pdfrwt>
<totfact> 0.23492141E+03</totfact>
</mgrwt>
</event>
<event>
 4    1  0.4656600E-002  0.5069247E+03  0.7818608E-02  0.1011987E+00
         21   -1    0    0  501  502  0.00000000000E+00  0.00000000000E+00  0.33475748594E+04  0.33475748594E+04  0.00000000000E+00 0.  1.
         21   -1    0    0  502  503 -0.00000000000E+00 -0.00000000000E+00 -0.14612898949E+03  0.14612898949E+03  0.00000000000E+00 0.  1.
    9000007    1    1    2  501    0 -0.76181146816E+02  0.30194213063E+03  0.28042577105E+04  0.28497076910E+04  0.40000000000E+03 0.  1.
   -9000007    1    1    2    0  503  0.76181146816E+02 -0.30194213063E+03  0.39718815944E+03  0.64399615789E+03  0.40000000000E+03 0.  1.
<mgrwt>
<rscale>  2 0.50692467E+03</rscale>
<asrwt>0</asrwt>
<pdfrwt beam="1">  1       21 0.51501146E+00 0.50692467E+03</pdfrwt>
<pdfrwt beam="2">  1       21 0.22481386E-01 0.50692467E+03</pdfrwt>
<totfact> 0.19206792E+01</totfact>
</mgrwt>
</event>
<event>
 4    1  0.4656600E-002  0.4806625E+03  0.7818608E-02  0.1018953E+00
         21   -1    0    0  503  502  0.00000000000E+00  0.00000000000E+00  0.90371484638E+03  0.90371484638E+03  0.00000000000E+00 0.  1.
         21   -1    0    0  501  503 -0.00000000000E+00 -0.00000000000E+00 -0.26053907661E+03  0.26053907661E+03  0.00000000000E+00 0.  1.
    9000007    1    1    2  501    0  0.17627712176E+03 -0.19990708237E+03  0.24186042077E+03  0.53808264084E+03  0.40000000000E+03 0.  1.
   -9000007    1    1    2    0  502 -0.17627712176E+03  0.19990708237E+03  0.40131534901E+03  0.62617128215E+03  0.40000000000E+03 0.  1.
<mgrwt>
<rscale>  2 0.48066253E+03</rscale>
<asrwt>0</asrwt>
<pdfrwt beam="1">  1       21 0.13903305E+00 0.48066253E+03</pdfrwt>
<pdfrwt beam="2">  1       21 0.40082935E-01 0.48066253E+03</pdfrwt>
<totfact> 0.18506057E+03</totfact>
</mgrwt>
</event>
<event>
 4    1  0.4656600E-002  0.9088674E+03  0.7818608E-02  0.9414564E-01
         21   -1    0    0  501  502  0.00000000000E+00  0.00000000000E+00  0.11720543214E+04  0.11720543214E+04  0.00000000000E+00 0.  1.
         21   -1    0    0  502  503 -0.00000000000E+00 -0.00000000000E+00 -0.81498587051E+03  0.81498587051E+03  0.00000000000E+00 0. -1.
    9000007    1    1    2  501    0  0.81218323622E+03  0.79989986866E+02  0.54388052788E+03  0.10591723353E+04  0.40000000000E+03 0.  1.
   -9000007    1    1    2    0  503 -0.81218323622E+03 -0.79989986866E+02 -0.18681207703E+03  0.92786785661E+03  0.40000000000E+03 0. -1.
<mgrwt>
<rscale>  2 0.90886743E+03</rscale>
<asrwt>0</asrwt>
<pdfrwt beam="1">  1       21 0.18031605E+00 0.90886743E+03</pdfrwt>
<pdfrwt beam="2">  1       21 0.12538244E+00 0.90886743E+03</pdfrwt>
<totfact> 0.56566912E+01</totfact>
</mgrwt>
</event>
<event>
 4    1  0.4656600E-002  0.4165141E+03  0.7818608E-02  0.1038207E+00
         21   -1    0    0  501  502  0.00000000000E+00  0.00000000000E+00  0.10646371476E+04  0.10646371476E+04  0.00000000000E+00 0. -1.
         21   -1    0    0  502  503 -0.00000000000E+00 -0.00000000000E+00 -0.50337075646E+03  0.50337075646E+03  0.00000000000E+00 0. -1.
    9000007    1    1    2  501    0 -0.92398065442E+02  0.70331887712E+02  0.92536852132E+03  0.10147861239E+04  0.40000000000E+03 0. -1.
   -9000007    1    1    2    0  503  0.92398065442E+02 -0.70331887712E+02 -0.36410213016E+03  0.55322178023E+03  0.40000000000E+03 0. -1.
<mgrwt>
<rscale>  2 0.41651408E+03</rscale>
<asrwt>0</asrwt>
<pdfrwt beam="1">  1       21 0.16379033E+00 0.41651408E+03</pdfrwt>
<pdfrwt beam="2">  1       21 0.77441655E-01 0.41651408E+03</pdfrwt>
<totfact> 0.29207350E+02</totfact>
</mgrwt>
</event>
<event>
 4    1  0.4656600E-002  0.5743226E+03  0.7818608E-02  0.9960159E-01
         21   -1    0    0  501  502  0.00000000000E+00  0.00000000000E+00  0.41294337876E+03  0.41294337876E+03  0.00000000000E+00 0. -1.
         21   -1    0    0  502  503 -0.00000000000E+00 -0.00000000000E+00 -0.10677163531E+04  0.10677163531E+04  0.00000000000E+00 0.  1.
    9000007    1    1    2  501    0  0.19970963172E+03 -0.36050319653E+03  0.44175024623E+02  0.57601903138E+03  0.40000000000E+03 0.  1.
   -9000007    1    1    2    0  503 -0.19970963172E+03  0.36050319653E+03 -0.69894799896E+03  0.90464070048E+03  0.40000000000E+03 0. -1.
<mgrwt>
<rscale>  2 0.57432264E+03</rscale>
<asrwt>0</asrwt>
<pdfrwt beam="1">  1       21 0.63529750E-01 0.57432264E+03</pdfrwt>
<pdfrwt beam="2">  1       21 0.16426406E+00 0.57432264E+03</pdfrwt>
<totfact> 0.42235658E+02</totfact>
</mgrwt>
</event>
<event>
 4    1  0.4656600E-002  0.4012930E+03  0.7818608E-02  0.1043333E+00
         21   -1    0    0  501  502  0.00000000000E+00  0.00000000000E+00  0.15764485759E+03  0.15764485759E+03  0.00000000000E+00 0. -1.
         21   -1    0    0  502  503 -0.00000000000E+00 -0.00000000000E+00 -0.10744036930E+04  0.10744036930E+04  0.00000000000E+00 0. -1.
    9000007    1    1    2  501    0  0.15254700876E+02  0.28343431076E+02 -0.59506078647E+03  0.71772793980E+03  0.40000000000E+03 0. -1.
   -9000007    1    1    2    0  503 -0.15254700876E+02 -0.28343431076E+02 -0.32169804895E+03  0.51432061079E+03  0.40000000000E+03 0. -1.
<mgrwt>
<rscale>  2 0.40129298E+03</rscale>
<asrwt>0</asrwt>
<pdfrwt beam="1">  1       21 0.24253055E-01 0.40129298E+03</pdfrwt>
<pdfrwt beam="2">  1       21 0.16529287E+00 0.40129298E+03</pdfrwt>
<totfact> 0.32469842E+03</totfact>
</mgrwt>
</event>
<event>
 4    1  0.4656600E-002  0.5889279E+03  0.7818608E-02  0.9928647E-01
         21   -1    0    0  501  502  0.00000000000E+00  0.00000000000E+00  0.57522643656E+03  0.57522643656E+03  0.00000000000E+00 0. -1.
         21   -1    0    0  502  503 -0.00000000000E+00 -0.00000000000E+00 -0.72574328147E+03  0.72574328147E+03  0.00000000000E+00 0.  1.
    9000007    1    1    2  501    0  0.28595922330E+03 -0.32413486333E+03  0.19230258080E+03  0.61952915153E+03  0.40000000000E+03 0. -1.
   -9000007    1    1    2    0  503 -0.28595922330E+03  0.32413486333E+03 -0.34281942571E+03  0.68144056649E+03  0.40000000000E+03 0.  1.
<mgrwt>
<rscale>  2 0.58892791E+03</rscale>
<asrwt>0</asrwt>
<pdfrwt beam="1">  1       21 0.88496375E-01 0.58892791E+03</pdfrwt>
<pdfrwt beam="2">  1       21 0.11165281E+00 0.58892791E+03</pdfrwt>
<totfact> 0.54747404E+02</totfact>
</mgrwt>
</event>
<event>
 4    1  0.4656600E-002  0.4702489E+03  0.7818608E-02  0.1021850E+00
         21   -1    0    0  501  502  0.00000000000E+00  0.00000000000E+00  0.59990194685E+03  0.59990194685E+03  0.00000000000E+00 0.  1.
         21   -1    0    0  502  503 -0.00000000000E+00 -0.00000000000E+00 -0.54975446096E+03  0.54975446096E+03  0.00000000000E+00 0.  1.
    9000007    1    1    2  501    0 -0.15703049349E+03  0.19098544433E+03  0.35503116791E+03  0.58922079564E+03  0.40000000000E+03 0.  1.
   -9000007    1    1    2    0  503  0.15703049349E+03 -0.19098544433E+03 -0.30488368202E+03  0.56043561217E+03  0.40000000000E+03 0.  1.
<mgrwt>
<rscale>  2 0.47024889E+03</rscale>
<asrwt>0</asrwt>
<pdfrwt beam="1">  1       21 0.92292607E-01 0.47024889E+03</pdfrwt>
<pdfrwt beam="2">  1       21 0.84577609E-01 0.47024889E+03</pdfrwt>
<totfact> 0.10135841E+03</totfact>
</mgrwt>
</event>
<event>
 4    1  0.4656600E-002  0.5162843E+03  0.7818608E-02  0.1009614E+00
         21   -1    0    0  501  502  0.00000000000E+00  0.00000000000E+00  0.10818674404E+04  0.10818674404E+04  0.00000000000E+00 0.  1.
         21   -1    0    0  502  503 -0.00000000000E+00 -0.00000000000E+00 -0.38946346771E+03  0.38946346771E+03  0.00000000000E+00 0.  1.
    9000007    1    1    2  501    0 -0.28476840513E+03  0.15955058190E+03  0.79210789268E+03  0.94550745443E+03  0.40000000000E+03 0.  1.
   -9000007    1    1    2    0  503  0.28476840513E+03 -0.15955058190E+03 -0.99703920010E+02  0.52582345365E+03  0.40000000000E+03 0.  1.
<mgrwt>
<rscale>  2 0.51628426E+03</rscale>
<asrwt>0</asrwt>
<pdfrwt beam="1">  1       21 0.16644114E+00 0.51628426E+03</pdfrwt>
<pdfrwt beam="2">  1       21 0.59917457E-01 0.51628426E+03</pdfrwt>
<totfact> 0.47362532E+02</totfact>
</mgrwt>
</event>
<event>
 4    1  0.4656600E-002  0.4650697E+03  0.7818608E-02  0.1023321E+00
         21   -1    0    0  503  502  0.00000000000E+00  0.00000000000E+00  0.86631917592E+03  0.86631917592E+03  0.00000000000E+00 0. -1.
         21   -1    0    0  501  503 -0.00000000000E+00 -0.00000000000E+00 -0.25277917666E+03  0.25277917666E+03  0.00000000000E+00 0. -1.
    9000007    1    1    2  501    0 -0.23330342621E+03  0.43120409388E+02  0.36887357318E+03  0.59359714569E+03  0.40000000000E+03 0. -1.
   -9000007    1    1    2    0  502  0.23330342621E+03 -0.43120409388E+02  0.24466642608E+03  0.52550120688E+03  0.40000000000E+03 0. -1.
<mgrwt>
<rscale>  2 0.46506973E+03</rscale>
<asrwt>0</asrwt>
<pdfrwt beam="1">  1       21 0.13327987E+00 0.46506973E+03</pdfrwt>
<pdfrwt beam="2">  1       21 0.38889105E-01 0.46506973E+03</pdfrwt>
<totfact> 0.22142259E+03</totfact>
</mgrwt>
</event>
<event>
 4    1  0.4656600E-002  0.5742931E+03  0.7818608E-02  0.9960223E-01
         21   -1    0    0  503  502  0.00000000000E+00  0.00000000000E+00  0.12000701122E+04  0.12000701122E+04  0.00000000000E+00 0. -1.
         21   -1    0    0  501  503 -0.00000000000E+00 -0.00000000000E+00 -0.29856831982E+03  0.29856831982E+03  0.00000000000E+00 0. -1.
    9000007    1    1    2  501    0 -0.62399757975E+01  0.41203595482E+03  0.23945522329E+03  0.62221488999E+03  0.40000000000E+03 0. -1.
   -9000007    1    1    2    0  502  0.62399757975E+01 -0.41203595482E+03  0.66204656906E+03  0.87642354200E+03  0.40000000000E+03 0. -1.
<mgrwt>
<rscale>  2 0.57429310E+03</rscale>
<asrwt>0</asrwt>
<pdfrwt beam="1">  1       21 0.18462617E+00 0.57429310E+03</pdfrwt>
<pdfrwt beam="2">  1       21 0.45933588E-01 0.57429310E+03</pdfrwt>
<totfact> 0.60707614E+02</totfact>
</mgrwt>
</event>
<event>
 4    1  0.4656600E-002  0.4764816E+03  0.7818608E-02  0.1020107E+00
         21   -1    0    0  503  502  0.00000000000E+00  0.00000000000E+00  0.79818364807E+03  0.79818364807E+03  0.00000000000E+00 0.  1.
         21   -1    0    0  501  503 -0.00000000000E+00 -0.00000000000E+00 -0.48712529108E+03  0.48712529108E+03  0.00000000000E+00 0.  1.
    9000007    1    1    2  501    0  0.25891005494E+03 -0.56591878367E+00 -0.25901339760E+03  0.54233078186E+03  0.40000000000E+03 0.  1.
   -9000007    1    1    2    0  502 -0.25891005494E+03  0.56591878367E+00  0.57007175460E+03  0.74297815728E+03  0.40000000000E+03 0.  1.
<mgrwt>
<rscale>  2 0.47648162E+03</rscale>
<asrwt>0</asrwt>
<pdfrwt beam="1">  1       21 0.12279748E+00 0.47648162E+03</pdfrwt>
<pdfrwt beam="2">  1       21 0.74942352E-01 0.47648162E+03</pdfrwt>
<totfact> 0.66066402E+02</totfact>
</mgrwt>
</event>
<event>
 4    1  0.4656600E-002  0.4296233E+03  0.7818608E-02  0.1033979E+00
         21   -1    0    0  501  502  0.00000000000E+00  0.00000000000E+00  0.90134124574E+03  0.90134124574E+03  0.00000000000E+00 0. -1.
         21   -1    0    0  502  503 -0.00000000000E+00 -0.00000000000E+00 -0.21526424593E+03  0.21526424593E+03  0.00000000000E+00 0. -1.
    9000007    1    1    2  501    0  0.11062389983E+03  0.11107881822E+03  0.46625365093E+03  0.63400995109E+03  0.40000000000E+03 0. -1.
   -9000007    1    1    2    0  503 -0.11062389983E+03 -0.11107881822E+03  0.21982334888E+03  0.48259554058E+03  0.40000000000E+03 0. -1.
<mgrwt>
<rscale>  2 0.42962327E+03</rscale>
<asrwt>0</asrwt>
<pdfrwt beam="1">  1       21 0.13866788E+00 0.42962327E+03</pdfrwt>
<pdfrwt beam="2">  1       21 0.33117577E-01 0.42962327E+03</pdfrwt>
<totfact> 0.28021271E+03</totfact>
</mgrwt>
</event>
<event>
 4    1  0.4656600E-002  0.4161278E+03  0.7818608E-02  0.1038334E+00
         21   -1    0    0  501  502  0.00000000000E+00  0.00000000000E+00  0.10826938074E+03  0.10826938074E+03  0.00000000000E+00 0.  1.
         21   -1    0    0  502  503 -0.00000000000E+00 -0.00000000000E+00 -0.16047608886E+04  0.16047608886E+04  0.00000000000E+00 0.  1.
    9000007    1    1    2  501    0  0.10117590307E+03  0.54090606708E+02 -0.69858371149E+03  0.81313071462E+03  0.40000000000E+03 0.  1.
   -9000007    1    1    2    0  503 -0.10117590307E+03 -0.54090606708E+02 -0.79790779636E+03  0.89989955472E+03  0.40000000000E+03 0.  1.
<mgrwt>
<rscale>  2 0.41612781E+03</rscale>
<asrwt>0</asrwt>
<pdfrwt beam="1">  1       21 0.16656828E-01 0.41612781E+03</pdfrwt>
<pdfrwt beam="2">  1       21 0.24688629E+00 0.41612781E+03</pdfrwt>
<totfact> 0.18997217E+03</totfact>
</mgrwt>
</event>
<event>
 4    1  0.4656600E-002  0.4380019E+03  0.7818608E-02  0.1031362E+00
         21   -1    0    0  501  502  0.00000000000E+00  0.00000000000E+00  0.82732551170E+03  0.82732551170E+03  0.00000000000E+00 0.  1.
         21   -1    0    0  502  503 -0.00000000000E+00 -0.00000000000E+00 -0.62425118228E+03  0.62425118228E+03  0.00000000000E+00 0.  1.
    9000007    1    1    2  501    0  0.16858834118E+03 -0.58511791126E+02  0.67694428402E+03  0.80628730745E+03  0.40000000000E+03 0.  1.
   -9000007    1    1    2    0  503 -0.16858834118E+03  0.58511791126E+02 -0.47386995460E+03  0.64528938652E+03  0.40000000000E+03 0.  1.
<mgrwt>
<rscale>  2 0.43800189E+03</rscale>
<asrwt>0</asrwt>
<pdfrwt beam="1">  1       21 0.12728085E+00 0.43800189E+03</pdfrwt>
<pdfrwt beam="2">  1       21 0.96038643E-01 0.43800189E+03</pdfrwt>
<totfact> 0.34303684E+02</totfact>
</mgrwt>
</event>
<event>
 4    1  0.4656600E-002  0.4027611E+03  0.7818608E-02  0.1042828E+00
         21   -1    0    0  503  502  0.00000000000E+00  0.00000000000E+00  0.49066266545E+03  0.49066266545E+03  0.00000000000E+00 0. -1.
         21   -1    0    0  501  503 -0.00000000000E+00 -0.00000000000E+00 -0.33580650087E+03  0.33580650087E+03  0.00000000000E+00 0. -1.
    9000007    1    1    2  501    0 -0.43084445187E+02  0.18980165039E+02  0.12884814203E+03  0.42286919938E+03  0.40000000000E+03 0.  1.
   -9000007    1    1    2    0  502  0.43084445187E+02 -0.18980165039E+02  0.26008022551E+02  0.40359996695E+03  0.40000000000E+03 0.  1.
<mgrwt>
<rscale>  2 0.40276112E+03</rscale>
<asrwt>0</asrwt>
<pdfrwt beam="1">  1       21 0.75486564E-01 0.40276112E+03</pdfrwt>
<pdfrwt beam="2">  1       21 0.51662539E-01 0.40276112E+03</pdfrwt>
<totfact> 0.49862652E+03</totfact>
</mgrwt>
</event>
<event>
 4    1  0.4656600E-002  0.5843827E+03  0.7818608E-02  0.9938347E-01
         21   -1    0    0  501  502  0.00000000000E+00  0.00000000000E+00  0.16968367393E+04  0.16968367393E+04  0.00000000000E+00 0.  1.
         21   -1    0    0  502  503 -0.00000000000E+00 -0.00000000000E+00 -0.27908380579E+03  0.27908380579E+03  0.00000000000E+00 0.  1.
    9000007    1    1    2  501    0  0.38152147104E+03  0.18959030233E+03  0.12305899846E+04  0.13622976275E+04  0.40000000000E+03 0.  1.
   -9000007    1    1    2    0  503 -0.38152147104E+03 -0.18959030233E+03  0.18716294894E+03  0.61362291764E+03  0.40000000000E+03 0.  1.
<mgrwt>
<rscale>  2 0.58438268E+03</rscale>
<asrwt>0</asrwt>
<pdfrwt beam="1">  1       21 0.26105180E+00 0.58438268E+03</pdfrwt>
<pdfrwt beam="2">  1       21 0.42935971E-01 0.58438268E+03</pdfrwt>
<totfact> 0.22257361E+02</totfact>
</mgrwt>
</event>
<event>
 4    1  0.4656600E-002  0.4665364E+03  0.7818608E-02  0.1022902E+00
         21   -1    0    0  503  502  0.00000000000E+00  0.00000000000E+00  0.17619473978E+03  0.17619473978E+03  0.00000000000E+00 0.  1.
         21   -1    0    0  501  503 -0.00000000000E+00 -0.00000000000E+00 -0.13441952626E+04  0.13441952626E+04  0.00000000000E+00 0.  1.
    9000007    1    1    2  501    0 -0.23916647627E+03  0.21345678840E+02 -0.80035466209E+03  0.92640370601E+03  0.40000000000E+03 0.  1.
   -9000007    1    1    2    0  502  0.23916647627E+03 -0.21345678840E+02 -0.36764586078E+03  0.59398629641E+03  0.40000000000E+03 0.  1.
<mgrwt>
<rscale>  2 0.46653643E+03</rscale>
<asrwt>0</asrwt>
<pdfrwt beam="1">  1       21 0.27106884E-01 0.46653643E+03</pdfrwt>
<pdfrwt beam="2">  1       21 0.20679926E+00 0.46653643E+03</pdfrwt>
<totfact> 0.13102074E+03</totfact>
</mgrwt>
</event>
<event>
 4    1  0.4656600E-002  0.4170883E+03  0.7818608E-02  0.1038018E+00
         21   -1    0    0  503  502  0.00000000000E+00  0.00000000000E+00  0.44594831027E+03  0.44594831027E+03  0.00000000000E+00 0.  1.
         21   -1    0    0  501  503 -0.00000000000E+00 -0.00000000000E+00 -0.47305445891E+03  0.47305445891E+03  0.00000000000E+00 0.  1.
    9000007    1    1    2  501    0 -0.10158101583E+03 -0.60364999704E+02 -0.20597815902E+03  0.46517699638E+03  0.40000000000E+03 0.  1.
   -9000007    1    1    2    0  502  0.10158101583E+03  0.60364999704E+02  0.17887201037E+03  0.45382577280E+03  0.40000000000E+03 0.  1.
<mgrwt>
<rscale>  2 0.41708828E+03</rscale>
<asrwt>0</asrwt>
<pdfrwt beam="1">  1       21 0.68607433E-01 0.41708828E+03</pdfrwt>
<pdfrwt beam="2">  1       21 0.72777609E-01 0.41708828E+03</pdfrwt>
<totfact> 0.28996216E+03</totfact>
</mgrwt>
</event>
<event>
 4    1  0.4656600E-002  0.4339066E+03  0.7818608E-02  0.1032633E+00
         21   -1    0    0  503  502  0.00000000000E+00  0.00000000000E+00  0.29119811168E+04  0.29119811168E+04  0.00000000000E+00 0. -1.
         21   -1    0    0  501  503 -0.00000000000E+00 -0.00000000000E+00 -0.21194418835E+03  0.21194418835E+03  0.00000000000E+00 0. -1.
    9000007    1    1    2  501    0 -0.13165274515E+03 -0.10460619411E+03  0.47916668343E+02  0.43654427983E+03  0.40000000000E+03 0. -1.
   -9000007    1    1    2    0  502  0.13165274515E+03  0.10460619411E+03  0.26521202601E+04  0.26873810253E+04  0.40000000000E+03 0. -1.
<mgrwt>
<rscale>  2 0.43390656E+03</rscale>
<asrwt>0</asrwt>
<pdfrwt beam="1">  1       21 0.44799707E+00 0.43390656E+03</pdfrwt>
<pdfrwt beam="2">  1       21 0.32606800E-01 0.43390656E+03</pdfrwt>
<totfact> 0.28770528E+01</totfact>
</mgrwt>
</event>
<event>
 4    1  0.4656600E-002  0.5482007E+03  0.7818608E-02  0.1001911E+00
         21   -1    0    0  503  502  0.00000000000E+00  0.00000000000E+00  0.45579254978E+03  0.45579254978E+03  0.00000000000E+00 0.  1.
         21   -1    0    0  501  503 -0.00000000000E+00 -0.00000000000E+00 -0.10063401068E+04  0.10063401068E+04  0.00000000000E+00 0.  1.
    9000007    1    1    2  501    0  0.35120881445E+02  0.37321652158E+03 -0.70455979240E+03  0.89270854671E+03  0.40000000000E+03 0.  1.
   -9000007    1    1    2    0  502 -0.35120881445E+02 -0.37321652158E+03  0.15401223536E+03  0.56942410990E+03  0.40000000000E+03 0.  1.
<mgrwt>
<rscale>  2 0.54820074E+03</rscale>
<asrwt>0</asrwt>
<pdfrwt beam="1">  1       21 0.70121932E-01 0.54820074E+03</pdfrwt>
<pdfrwt beam="2">  1       21 0.15482155E+00 0.54820074E+03</pdfrwt>
<totfact> 0.40351788E+02</totfact>
</mgrwt>
</event>
<event>
 4    1  0.4656600E-002  0.4739463E+03  0.7818608E-02  0.1020812E+00
         21   -1    0    0  501  502  0.00000000000E+00  0.00000000000E+00  0.37356479852E+03  0.37356479852E+03  0.00000000000E+00 0. -1.
         21   -1    0    0  502  503 -0.00000000000E+00 -0.00000000000E+00 -0.61026596630E+03  0.61026596630E+03  0.00000000000E+00 0.  1.
    9000007    1    1    2  501    0 -0.17528905408E+03  0.18411631682E+03 -0.17797075911E+03  0.50625948060E+03  0.40000000000E+03 0.  1.
   -9000007    1    1    2    0  503  0.17528905408E+03 -0.18411631682E+03 -0.58730408674E+02  0.47757128421E+03  0.40000000000E+03 0.  1.
<mgrwt>
<rscale>  2 0.47394627E+03</rscale>
<asrwt>0</asrwt>
<pdfrwt beam="1">  1       21 0.57471507E-01 0.47394627E+03</pdfrwt>
<pdfrwt beam="2">  1       21 0.93887072E-01 0.47394627E+03</pdfrwt>
<totfact> 0.23220001E+03</totfact>
</mgrwt>
</event>
<event>
 4    1  0.4656600E-002  0.4299819E+03  0.7818608E-02  0.1033866E+00
         21   -1    0    0  503  502  0.00000000000E+00  0.00000000000E+00  0.13613057214E+04  0.13613057214E+04  0.00000000000E+00 0.  1.
         21   -1    0    0  501  503 -0.00000000000E+00 -0.00000000000E+00 -0.13627853790E+03  0.13627853790E+03  0.00000000000E+00 0.  1.
    9000007    1    1    2  501    0 -0.88795576726E+02  0.13038334054E+03  0.65622810000E+03  0.78455069254E+03  0.40000000000E+03 0.  1.
   -9000007    1    1    2    0  502  0.88795576726E+02 -0.13038334054E+03  0.56879908353E+03  0.71303356679E+03  0.40000000000E+03 0.  1.
<mgrwt>
<rscale>  2 0.42998194E+03</rscale>
<asrwt>0</asrwt>
<pdfrwt beam="1">  1       21 0.20943164E+00 0.42998194E+03</pdfrwt>
<pdfrwt beam="2">  1       21 0.20965930E-01 0.42998194E+03</pdfrwt>
<totfact> 0.21048402E+03</totfact>
</mgrwt>
</event>
<event>
 4    1  0.4656600E-002  0.5286219E+03  0.7818608E-02  0.1006567E+00
         21   -1    0    0  501  502  0.00000000000E+00  0.00000000000E+00  0.88381765251E+03  0.88381765251E+03  0.00000000000E+00 0.  1.
         21   -1    0    0  502  503 -0.00000000000E+00 -0.00000000000E+00 -0.36782461199E+03  0.36782461199E+03  0.00000000000E+00 0.  1.
    9000007    1    1    2  501    0  0.18613462567E+03  0.29119592159E+03  0.49250729674E+03  0.72249885880E+03  0.40000000000E+03 0.  1.
   -9000007    1    1    2    0  503 -0.18613462567E+03 -0.29119592159E+03  0.23485743782E+02  0.52914340569E+03  0.40000000000E+03 0.  1.
<mgrwt>
<rscale>  2 0.52862195E+03</rscale>
<asrwt>0</asrwt>
<pdfrwt beam="1">  1       21 0.13597195E+00 0.52862195E+03</pdfrwt>
<pdfrwt beam="2">  1       21 0.56588402E-01 0.52862195E+03</pdfrwt>
<totfact> 0.92939571E+02</totfact>
</mgrwt>
</event>
<event>
 4    1  0.4656600E-002  0.4029124E+03  0.7818608E-02  0.1042776E+00
         21   -1    0    0  503  502  0.00000000000E+00  0.00000000000E+00  0.22649217185E+03  0.22649217185E+03  0.00000000000E+00 0. -1.
         21   -1    0    0  501  503 -0.00000000000E+00 -0.00000000000E+00 -0.11347100610E+04  0.11347100610E+04  0.00000000000E+00 0. -1.
    9000007    1    1    2  501    0  0.40639819852E+02  0.26206344061E+02 -0.86717295703E+03  0.95620463544E+03  0.40000000000E+03 0. -1.
   -9000007    1    1    2    0  502 -0.40639819852E+02 -0.26206344061E+02 -0.41044932076E+02  0.40499759737E+03  0.40000000000E+03 0. -1.
<mgrwt>
<rscale>  2 0.40291236E+03</rscale>
<asrwt>0</asrwt>
<pdfrwt beam="1">  1       21 0.34844949E-01 0.40291236E+03</pdfrwt>
<pdfrwt beam="2">  1       21 0.17457078E+00 0.40291236E+03</pdfrwt>
<totfact> 0.13584425E+03</totfact>
</mgrwt>
</event>
<event>
 4    1  0.4656600E-002  0.4928004E+03  0.7818608E-02  0.1015675E+00
         21   -1    0    0  501  502  0.00000000000E+00  0.00000000000E+00  0.70473582800E+03  0.70473582800E+03  0.00000000000E+00 0. -1.
         21   -1    0    0  502  503 -0.00000000000E+00 -0.00000000000E+00 -0.55985958403E+03  0.55985958403E+03  0.00000000000E+00 0. -1.
    9000007    1    1    2  501    0  0.12108989606E+03  0.26113119251E+03  0.46450745318E+03  0.67721446875E+03  0.40000000000E+03 0. -1.
   -9000007    1    1    2    0  503 -0.12108989606E+03 -0.26113119251E+03 -0.31963120920E+03  0.58738094328E+03  0.40000000000E+03 0. -1.
<mgrwt>
<rscale>  2 0.49280043E+03</rscale>
<asrwt>0</asrwt>
<pdfrwt beam="1">  1       21 0.10842090E+00 0.49280043E+03</pdfrwt>
<pdfrwt beam="2">  1       21 0.86132243E-01 0.49280043E+03</pdfrwt>
<totfact> 0.65030104E+02</totfact>
</mgrwt>
</event>
<event>
 4    1  0.4656600E-002  0.4864550E+03  0.7818608E-02  0.1017376E+00
         21   -1    0    0  501  502  0.00000000000E+00  0.00000000000E+00  0.24434210093E+04  0.24434210093E+04  0.00000000000E+00 0.  1.
         21   -1    0    0  502  503 -0.00000000000E+00 -0.00000000000E+00 -0.99777375366E+02  0.99777375366E+02  0.00000000000E+00 0. -1.
    9000007    1    1    2  501    0  0.26736202871E+03  0.71805493734E+02  0.95390988683E+03  0.10707859522E+04  0.40000000000E+03 0. -1.
   -9000007    1    1    2    0  503 -0.26736202871E+03 -0.71805493734E+02  0.13897337471E+04  0.14724124325E+04  0.40000000000E+03 0.  1.
<mgrwt>
<rscale>  2 0.48645502E+03</rscale>
<asrwt>0</asrwt>
<pdfrwt beam="1">  1       21 0.37591088E+00 0.48645502E+03</pdfrwt>
<pdfrwt beam="2">  1       21 0.15350367E-01 0.48645502E+03</pdfrwt>
<totfact> 0.34893412E+02</totfact>
</mgrwt>
</event>
<event>
 4    1  0.4656600E-002  0.7183753E+03  0.7818608E-02  0.9686314E-01
         21   -1    0    0  501  502  0.00000000000E+00  0.00000000000E+00  0.10017132091E+04  0.10017132091E+04  0.00000000000E+00 0.  1.
         21   -1    0    0  502  503 -0.00000000000E+00 -0.00000000000E+00 -0.53815397350E+03  0.53815397350E+03  0.00000000000E+00 0.  1.
    9000007    1    1    2  501    0 -0.82698834349E+02  0.59095169316E+03  0.72700061054E+02  0.72204452753E+03  0.40000000000E+03 0.  1.
   -9000007    1    1    2    0  503  0.82698834349E+02 -0.59095169316E+03  0.39085917457E+03  0.81782265510E+03  0.40000000000E+03 0.  1.
<mgrwt>
<rscale>  2 0.71837525E+03</rscale>
<asrwt>0</asrwt>
<pdfrwt beam="1">  1       21 0.15410972E+00 0.71837525E+03</pdfrwt>
<pdfrwt beam="2">  1       21 0.82792919E-01 0.71837525E+03</pdfrwt>
<totfact> 0.26303650E+02</totfact>
</mgrwt>
</event>
<event>
 4    1  0.4656600E-002  0.6869810E+03  0.7818608E-02  0.9739759E-01
         21   -1    0    0  503  502  0.00000000000E+00  0.00000000000E+00  0.61433808112E+03  0.61433808112E+03  0.00000000000E+00 0.  1.
         21   -1    0    0  501  503 -0.00000000000E+00 -0.00000000000E+00 -0.98920633359E+03  0.98920633359E+03  0.00000000000E+00 0. -1.
    9000007    1    1    2  501    0 -0.42164121152E+02  0.55692472291E+03 -0.56639677282E+03  0.89036411898E+03  0.40000000000E+03 0. -1.
   -9000007    1    1    2    0  502  0.42164121152E+02 -0.55692472291E+03  0.19152852035E+03  0.71318029573E+03  0.40000000000E+03 0.  1.
<mgrwt>
<rscale>  2 0.68698105E+03</rscale>
<asrwt>0</asrwt>
<pdfrwt beam="1">  1       21 0.94513551E-01 0.68698105E+03</pdfrwt>
<pdfrwt beam="2">  1       21 0.15218559E+00 0.68698105E+03</pdfrwt>
<totfact> 0.20055728E+02</totfact>
</mgrwt>
</event>
<event>
 4    1  0.4656600E-002  0.4276382E+03  0.7818608E-02  0.1034609E+00
         21   -1    0    0  501  502  0.00000000000E+00  0.00000000000E+00  0.80048188126E+03  0.80048188126E+03  0.00000000000E+00 0.  1.
         21   -1    0    0  502  503 -0.00000000000E+00 -0.00000000000E+00 -0.24195414204E+03  0.24195414204E+03  0.00000000000E+00 0.  1.
    9000007    1    1    2  501    0  0.15106796139E+03  0.72727266421E+01  0.15615218625E+03  0.45525589154E+03  0.40000000000E+03 0.  1.
   -9000007    1    1    2    0  503 -0.15106796139E+03 -0.72727266421E+01  0.40237555297E+03  0.58718013177E+03  0.40000000000E+03 0.  1.
<mgrwt>
<rscale>  2 0.42763819E+03</rscale>
<asrwt>0</asrwt>
<pdfrwt beam="1">  1       21 0.12315106E+00 0.42763819E+03</pdfrwt>
<pdfrwt beam="2">  1       21 0.37223714E-01 0.42763819E+03</pdfrwt>
<totfact> 0.30128254E+03</totfact>
</mgrwt>
</event>
<event>
 4    1  0.4656600E-002  0.4346300E+03  0.7818608E-02  0.1032407E+00
         21   -1    0    0  503  502  0.00000000000E+00  0.00000000000E+00  0.17525159780E+03  0.17525159780E+03  0.00000000000E+00 0.  1.
         21   -1    0    0  501  503 -0.00000000000E+00 -0.00000000000E+00 -0.13448837491E+04  0.13448837491E+04  0.00000000000E+00 0. -1.
    9000007    1    1    2  501    0 -0.63586084534E+02  0.15767061047E+03 -0.92346878676E+03  0.10206359839E+04  0.40000000000E+03 0. -1.
   -9000007    1    1    2    0  502  0.63586084534E+02 -0.15767061047E+03 -0.24616336450E+03  0.49949936294E+03  0.40000000000E+03 0. -1.
<mgrwt>
<rscale>  2 0.43462997E+03</rscale>
<asrwt>0</asrwt>
<pdfrwt beam="1">  1       21 0.26961785E-01 0.43462997E+03</pdfrwt>
<pdfrwt beam="2">  1       21 0.20690519E+00 0.43462997E+03</pdfrwt>
<totfact> 0.13411272E+03</totfact>
</mgrwt>
</event>
<event>
 4    1  0.4656600E-002  0.4020776E+03  0.7818608E-02  0.1043063E+00
         21   -1    0    0  501  502  0.00000000000E+00  0.00000000000E+00  0.26437678621E+03  0.26437678621E+03  0.00000000000E+00 0. -1.
         21   -1    0    0  502  503 -0.00000000000E+00 -0.00000000000E+00 -0.66884049312E+03  0.66884049312E+03  0.00000000000E+00 0. -1.
    9000007    1    1    2  501    0 -0.27314142225E+02 -0.30337232652E+02 -0.65609383443E+02  0.40739538687E+03  0.40000000000E+03 0. -1.
   -9000007    1    1    2    0  503  0.27314142225E+02  0.30337232652E+02 -0.33885432347E+03  0.52582189246E+03  0.40000000000E+03 0. -1.
<mgrwt>
<rscale>  2 0.40207762E+03</rscale>
<asrwt>0</asrwt>
<pdfrwt beam="1">  1       21 0.40673352E-01 0.40207762E+03</pdfrwt>
<pdfrwt beam="2">  1       21 0.10289854E+00 0.40207762E+03</pdfrwt>
<totfact> 0.39709076E+03</totfact>
</mgrwt>
</event>
<event>
 4    1  0.4656600E-002  0.6512795E+03  0.7818608E-02  0.9804381E-01
         21   -1    0    0  503  502  0.00000000000E+00  0.00000000000E+00  0.89988566368E+03  0.89988566368E+03  0.00000000000E+00 0. -1.
         21   -1    0    0  501  503 -0.00000000000E+00 -0.00000000000E+00 -0.61683419511E+03  0.61683419511E+03  0.00000000000E+00 0.  1.
    9000007    1    1    2  501    0  0.39839335017E+03 -0.32472717804E+03 -0.22676653742E+03  0.68962893219E+03  0.40000000000E+03 0.  1.
   -9000007    1    1    2    0  502 -0.39839335017E+03  0.32472717804E+03  0.50981800599E+03  0.82709092660E+03  0.40000000000E+03 0. -1.
<mgrwt>
<rscale>  2 0.65127951E+03</rscale>
<asrwt>0</asrwt>
<pdfrwt beam="1">  1       21 0.13844395E+00 0.65127951E+03</pdfrwt>
<pdfrwt beam="2">  1       21 0.94897569E-01 0.65127951E+03</pdfrwt>
<totfact> 0.26002728E+02</totfact>
</mgrwt>
</event>
<event>
 4    1  0.4656600E-002  0.4555326E+03  0.7818608E-02  0.1026085E+00
         21   -1    0    0  503  502  0.00000000000E+00  0.00000000000E+00  0.69164165085E+03  0.69164165085E+03  0.00000000000E+00 0. -1.
         21   -1    0    0  501  503 -0.00000000000E+00 -0.00000000000E+00 -0.50293229713E+03  0.50293229713E+03  0.00000000000E+00 0. -1.
    9000007    1    1    2  501    0  0.18512588658E+03  0.11505811005E+03 -0.28502742709E+03  0.53735518679E+03  0.40000000000E+03 0. -1.
   -9000007    1    1    2    0  502 -0.18512588658E+03 -0.11505811005E+03  0.47373678082E+03  0.65721876120E+03  0.40000000000E+03 0. -1.
<mgrwt>
<rscale>  2 0.45553261E+03</rscale>
<asrwt>0</asrwt>
<pdfrwt beam="1">  1       21 0.10640641E+00 0.45553261E+03</pdfrwt>
<pdfrwt beam="2">  1       21 0.77374199E-01 0.45553261E+03</pdfrwt>
<totfact> 0.88732022E+02</totfact>
</mgrwt>
</event>
<event>
 4    1  0.4656600E-002  0.4242193E+03  0.7818608E-02  0.1035702E+00
         21   -1    0    0  503  502  0.00000000000E+00  0.00000000000E+00  0.93569435439E+02  0.93569435439E+02  0.00000000000E+00 0. -1.
         21   -1    0    0  501  503 -0.00000000000E+00 -0.00000000000E+00 -0.19387681629E+04  0.19387681629E+04  0.00000000000E+00 0. -1.
    9000007    1    1    2  501    0 -0.12076746527E+03 -0.73329793788E+02 -0.10133669246E+04  0.10985784283E+04  0.40000000000E+03 0.  1.
   -9000007    1    1    2    0  502  0.12076746527E+03  0.73329793788E+02 -0.83183180290E+03  0.93375917004E+03  0.40000000000E+03 0.  1.
<mgrwt>
<rscale>  2 0.42421933E+03</rscale>
<asrwt>0</asrwt>
<pdfrwt beam="1">  1       21 0.14395297E-01 0.42421933E+03</pdfrwt>
<pdfrwt beam="2">  1       21 0.29827205E+00 0.42421933E+03</pdfrwt>
<totfact> 0.12138486E+03</totfact>
</mgrwt>
</event>
<event>
 4    1  0.4656600E-002  0.7074543E+03  0.7818608E-02  0.9704569E-01
         21   -1    0    0  501  502  0.00000000000E+00  0.00000000000E+00  0.12645371767E+04  0.12645371767E+04  0.00000000000E+00 0. -1.
         21   -1    0    0  502  503 -0.00000000000E+00 -0.00000000000E+00 -0.72910209118E+03  0.72910209118E+03  0.00000000000E+00 0. -1.
    9000007    1    1    2  501    0  0.57953212282E+03 -0.68073798209E+02  0.94169871290E+03  0.11778319020E+04  0.40000000000E+03 0. -1.
   -9000007    1    1    2    0  503 -0.57953212282E+03  0.68073798209E+02 -0.40626362737E+03  0.81580736593E+03  0.40000000000E+03 0. -1.
<mgrwt>
<rscale>  2 0.70745426E+03</rscale>
<asrwt>0</asrwt>
<pdfrwt beam="1">  1       21 0.19454418E+00 0.70745426E+03</pdfrwt>
<pdfrwt beam="2">  1       21 0.11216955E+00 0.70745426E+03</pdfrwt>
<totfact> 0.63702242E+01</totfact>
</mgrwt>
</event>
<event>
 4    1  0.4656600E-002  0.4633218E+03  0.7818608E-02  0.1023822E+00
         21   -1    0    0  503  502  0.00000000000E+00  0.00000000000E+00  0.10405118700E+04  0.10405118700E+04  0.00000000000E+00 0. -1.
         21   -1    0    0  501  503 -0.00000000000E+00 -0.00000000000E+00 -0.20734842585E+03  0.20734842585E+03  0.00000000000E+00 0. -1.
    9000007    1    1    2  501    0  0.14656275276E+03  0.18217150581E+03  0.46075456196E+03  0.65342318936E+03  0.40000000000E+03 0. -1.
   -9000007    1    1    2    0  502 -0.14656275276E+03 -0.18217150581E+03  0.37240888215E+03  0.59443710645E+03  0.40000000000E+03 0. -1.
<mgrwt>
<rscale>  2 0.46332181E+03</rscale>
<asrwt>0</asrwt>
<pdfrwt beam="1">  1       21 0.16007875E+00 0.46332181E+03</pdfrwt>
<pdfrwt beam="2">  1       21 0.31899758E-01 0.46332181E+03</pdfrwt>
<totfact> 0.20192258E+03</totfact>
</mgrwt>
</event>
<event>
 4    1  0.4656600E-002  0.4517060E+03  0.7818608E-02  0.1027215E+00
         21   -1    0    0  503  502  0.00000000000E+00  0.00000000000E+00  0.28730406872E+04  0.28730406872E+04  0.00000000000E+00 0. -1.
         21   -1    0    0  501  503 -0.00000000000E+00 -0.00000000000E+00 -0.86446899616E+02  0.86446899616E+02  0.00000000000E+00 0. -1.
    9000007    1    1    2  501    0 -0.20973490744E+03 -0.70390393971E+01  0.76815877510E+03  0.89112635650E+03  0.40000000000E+03 0. -1.
   -9000007    1    1    2    0  502  0.20973490744E+03  0.70390393971E+01  0.20184350124E+04  0.20683612303E+04  0.40000000000E+03 0. -1.
<mgrwt>
<rscale>  2 0.45170597E+03</rscale>
<asrwt>0</asrwt>
<pdfrwt beam="1">  1       21 0.44200619E+00 0.45170597E+03</pdfrwt>
<pdfrwt beam="2">  1       21 0.13299525E-01 0.45170597E+03</pdfrwt>
<totfact> 0.17331598E+02</totfact>
</mgrwt>
</event>
<event>
 4    1  0.4656600E-002  0.4518405E+03  0.7818608E-02  0.1027175E+00
         21   -1    0    0  501  502  0.00000000000E+00  0.00000000000E+00  0.10235113114E+04  0.10235113114E+04  0.00000000000E+00 0.  1.
         21   -1    0    0  502  503 -0.00000000000E+00 -0.00000000000E+00 -0.20403459456E+03  0.20403459456E+03  0.00000000000E+00 0.  1.
    9000007    1    1    2  501    0  0.18073272151E+03  0.10721696144E+03  0.50154145071E+03  0.67505823469E+03  0.40000000000E+03 0.  1.
   -9000007    1    1    2    0  503 -0.18073272151E+03 -0.10721696144E+03  0.31793526613E+03  0.55248767126E+03  0.40000000000E+03 0.  1.
<mgrwt>
<rscale>  2 0.45184045E+03</rscale>
<asrwt>0</asrwt>
<pdfrwt beam="1">  1       21 0.15746327E+00 0.45184045E+03</pdfrwt>
<pdfrwt beam="2">  1       21 0.31389938E-01 0.45184045E+03</pdfrwt>
<totfact> 0.21929785E+03</totfact>
</mgrwt>
</event>
<event>
 4    1  0.4656600E-002  0.5813597E+03  0.7818608E-02  0.9944852E-01
         21   -1    0    0  503  502  0.00000000000E+00  0.00000000000E+00  0.87722162186E+03  0.87722162186E+03  0.00000000000E+00 0.  1.
         21   -1    0    0  501  503 -0.00000000000E+00 -0.00000000000E+00 -0.40329150500E+03  0.40329150500E+03  0.00000000000E+00 0. -1.
    9000007    1    1    2  501    0  0.10343016614E+03 -0.40900042674E+03  0.37225811060E+03  0.69032981194E+03  0.40000000000E+03 0.  1.
   -9000007    1    1    2    0  502 -0.10343016614E+03  0.40900042674E+03  0.10167200626E+03  0.59018331491E+03  0.40000000000E+03 0. -1.
<mgrwt>
<rscale>  2 0.58135974E+03</rscale>
<asrwt>0</asrwt>
<pdfrwt beam="1">  1       21 0.13495717E+00 0.58135974E+03</pdfrwt>
<pdfrwt beam="2">  1       21 0.62044847E-01 0.58135974E+03</pdfrwt>
<totfact> 0.76039911E+02</totfact>
</mgrwt>
</event>
<event>
 4    1  0.4656600E-002  0.4927205E+03  0.7818608E-02  0.1015697E+00
         21   -1    0    0  503  502  0.00000000000E+00  0.00000000000E+00  0.87844758431E+03  0.87844758431E+03  0.00000000000E+00 0.  1.
         21   -1    0    0  501  503 -0.00000000000E+00 -0.00000000000E+00 -0.35941420836E+03  0.35941420836E+03  0.00000000000E+00 0. -1.
    9000007    1    1    2  501    0 -0.18389586248E+03  0.22125961460E+03 -0.37997927852E+02  0.49418351633E+03  0.40000000000E+03 0. -1.
   -9000007    1    1    2    0  502  0.18389586248E+03 -0.22125961460E+03  0.55703130380E+03  0.74367827634E+03  0.40000000000E+03 0.  1.
<mgrwt>
<rscale>  2 0.49272051E+03</rscale>
<asrwt>0</asrwt>
<pdfrwt beam="1">  1       21 0.13514578E+00 0.49272051E+03</pdfrwt>
<pdfrwt beam="2">  1       21 0.55294494E-01 0.49272051E+03</pdfrwt>
<totfact> 0.10062041E+03</totfact>
</mgrwt>
</event>
<event>
 4    1  0.4656600E-002  0.4599300E+03  0.7818608E-02  0.1024802E+00
         21   -1    0    0  501  502  0.00000000000E+00  0.00000000000E+00  0.99910771247E+03  0.99910771247E+03  0.00000000000E+00 0. -1.
         21   -1    0    0  502  503 -0.00000000000E+00 -0.00000000000E+00 -0.37906937007E+03  0.37906937007E+03  0.00000000000E+00 0. -1.
    9000007    1    1    2  501    0 -0.22083013782E+03 -0.52627600614E+02  0.76786771796E+03  0.89507343073E+03  0.40000000000E+03 0. -1.
   -9000007    1    1    2    0  503  0.22083013782E+03  0.52627600614E+02 -0.14782937555E+03  0.48310365181E+03  0.40000000000E+03 0. -1.
<mgrwt>
<rscale>  2 0.45993001E+03</rscale>
<asrwt>0</asrwt>
<pdfrwt beam="1">  1       21 0.15370888E+00 0.45993001E+03</pdfrwt>
<pdfrwt beam="2">  1       21 0.58318365E-01 0.45993001E+03</pdfrwt>
<totfact> 0.64285061E+02</totfact>
</mgrwt>
</event>
<event>
 4    1  0.4656600E-002  0.4194299E+03  0.7818608E-02  0.1037252E+00
         21   -1    0    0  503  502  0.00000000000E+00  0.00000000000E+00  0.46221156841E+03  0.46221156841E+03  0.00000000000E+00 0. -1.
         21   -1    0    0  501  503 -0.00000000000E+00 -0.00000000000E+00 -0.40778959363E+03  0.40778959363E+03  0.00000000000E+00 0. -1.
    9000007    1    1    2  501    0  0.39462175734E+02  0.11985065443E+03  0.13951850921E+03  0.44202585568E+03  0.40000000000E+03 0. -1.
   -9000007    1    1    2    0  502 -0.39462175734E+02 -0.11985065443E+03 -0.85096534430E+02  0.42797530636E+03  0.40000000000E+03 0. -1.
<mgrwt>
<rscale>  2 0.41942990E+03</rscale>
<asrwt>0</asrwt>
<pdfrwt beam="1">  1       21 0.71109472E-01 0.41942990E+03</pdfrwt>
<pdfrwt beam="2">  1       21 0.62736861E-01 0.41942990E+03</pdfrwt>
<totfact> 0.37243054E+03</totfact>
</mgrwt>
</event>
<event>
 4    1  0.4656600E-002  0.6895599E+03  0.7818608E-02  0.9735255E-01
         21   -1    0    0  503  502  0.00000000000E+00  0.00000000000E+00  0.10463431751E+04  0.10463431751E+04  0.00000000000E+00 0. -1.
         21   -1    0    0  501  503 -0.00000000000E+00 -0.00000000000E+00 -0.68109519184E+03  0.68109519184E+03  0.00000000000E+00 0.  1.
    9000007    1    1    2  501    0  0.11377161568E+03 -0.55004440861E+03 -0.31563854361E+03  0.75836701022E+03  0.40000000000E+03 0.  1.
   -9000007    1    1    2    0  502 -0.11377161568E+03  0.55004440861E+03  0.68088652691E+03  0.96907135677E+03  0.40000000000E+03 0. -1.
<mgrwt>
<rscale>  2 0.68955988E+03</rscale>
<asrwt>0</asrwt>
<pdfrwt beam="1">  1       21 0.16097587E+00 0.68955988E+03</pdfrwt>
<pdfrwt beam="2">  1       21 0.10478388E+00 0.68955988E+03</pdfrwt>
<totfact> 0.13292613E+02</totfact>
</mgrwt>
</event>
<event>
 4    1  0.4656600E-002  0.6269149E+03  0.7818608E-02  0.9851088E-01
         21   -1    0    0  501  502  0.00000000000E+00  0.00000000000E+00  0.23940878060E+04  0.23940878060E+04  0.00000000000E+00 0. -1.
         21   -1    0    0  502  503 -0.00000000000E+00 -0.00000000000E+00 -0.16816371070E+03  0.16816371070E+03  0.00000000000E+00 0. -1.
    9000007    1    1    2  501    0 -0.47447028042E+03  0.88883394392E+02  0.91537595610E+03  0.11094753020E+04  0.40000000000E+03 0. -1.
   -9000007    1    1    2    0  503  0.47447028042E+03 -0.88883394392E+02  0.13105481392E+04  0.14527762147E+04  0.40000000000E+03 0. -1.
<mgrwt>
<rscale>  2 0.62691491E+03</rscale>
<asrwt>0</asrwt>
<pdfrwt beam="1">  1       21 0.36832118E+00 0.62691491E+03</pdfrwt>
<pdfrwt beam="2">  1       21 0.25871342E-01 0.62691491E+03</pdfrwt>
<totfact> 0.13353739E+02</totfact>
</mgrwt>
</event>
<event>
 4    1  0.4656600E-002  0.4745897E+03  0.7818608E-02  0.1020633E+00
         21   -1    0    0  503  502  0.00000000000E+00  0.00000000000E+00  0.63768099038E+03  0.63768099038E+03  0.00000000000E+00 0.  1.
         21   -1    0    0  501  503 -0.00000000000E+00 -0.00000000000E+00 -0.13340535510E+04  0.13340535510E+04  0.00000000000E+00 0.  1.
    9000007    1    1    2  501    0  0.67576184381E+02 -0.24631049773E+03 -0.11935267354E+04  0.12844226213E+04  0.40000000000E+03 0.  1.
   -9000007    1    1    2    0  502 -0.67576184381E+02  0.24631049773E+03  0.49715417478E+03  0.68731192009E+03  0.40000000000E+03 0.  1.
<mgrwt>
<rscale>  2 0.47458972E+03</rscale>
<asrwt>0</asrwt>
<pdfrwt beam="1">  1       21 0.98104769E-01 0.47458972E+03</pdfrwt>
<pdfrwt beam="2">  1       21 0.20523901E+00 0.47458972E+03</pdfrwt>
<totfact> 0.83393262E+01</totfact>
</mgrwt>
</event>
<event>
 4    1  0.4656600E-002  0.4787627E+03  0.7818608E-02  0.1019476E+00
         21   -1    0    0  501  502  0.00000000000E+00  0.00000000000E+00  0.28467227021E+03  0.28467227021E+03  0.00000000000E+00 0. -1.
         21   -1    0    0  502  503 -0.00000000000E+00 -0.00000000000E+00 -0.89050301856E+03  0.89050301856E+03  0.00000000000E+00 0. -1.
    9000007    1    1    2  501    0 -0.23312209437E+03  0.12193366880E+03 -0.12103898077E+03  0.49382604765E+03  0.40000000000E+03 0. -1.
   -9000007    1    1    2    0  503  0.23312209437E+03 -0.12193366880E+03 -0.48479176758E+03  0.68134924113E+03  0.40000000000E+03 0. -1.
<mgrwt>
<rscale>  2 0.47876271E+03</rscale>
<asrwt>0</asrwt>
<pdfrwt beam="1">  1       21 0.43795734E-01 0.47876271E+03</pdfrwt>
<pdfrwt beam="2">  1       21 0.13700046E+00 0.47876271E+03</pdfrwt>
<totfact> 0.16021906E+03</totfact>
</mgrwt>
</event>
<event>
 4    1  0.4656600E-002  0.4278574E+03  0.7818608E-02  0.1034539E+00
         21   -1    0    0  503  502  0.00000000000E+00  0.00000000000E+00  0.28547458525E+03  0.28547458525E+03  0.00000000000E+00 0. -1.
         21   -1    0    0  501  503 -0.00000000000E+00 -0.00000000000E+00 -0.15650914681E+04  0.15650914681E+04  0.00000000000E+00 0. -1.
    9000007    1    1    2  501    0  0.26054993519E+02  0.14960979182E+03 -0.13506983150E+04  0.14168443425E+04  0.40000000000E+03 0. -1.
   -9000007    1    1    2    0  502 -0.26054993519E+02 -0.14960979182E+03  0.71081432201E+02  0.43372171089E+03  0.40000000000E+03 0. -1.
<mgrwt>
<rscale>  2 0.42785740E+03</rscale>
<asrwt>0</asrwt>
<pdfrwt beam="1">  1       21 0.43919167E-01 0.42785740E+03</pdfrwt>
<pdfrwt beam="2">  1       21 0.24078330E+00 0.42785740E+03</pdfrwt>
<totfact> 0.30607310E+02</totfact>
</mgrwt>
</event>
<event>
 4    1  0.4656600E-002  0.4169857E+03  0.7818608E-02  0.1038052E+00
         21   -1    0    0  503  502  0.00000000000E+00  0.00000000000E+00  0.75435349769E+03  0.75435349769E+03  0.00000000000E+00 0.  1.
         21   -1    0    0  501  503 -0.00000000000E+00 -0.00000000000E+00 -0.62024188376E+03  0.62024188376E+03  0.00000000000E+00 0.  1.
    9000007    1    1    2  501    0 -0.83724584215E+02  0.82869067007E+02 -0.47776528021E+03  0.63414253228E+03  0.40000000000E+03 0.  1.
   -9000007    1    1    2    0  502  0.83724584215E+02 -0.82869067007E+02  0.61187689414E+03  0.74045284917E+03  0.40000000000E+03 0.  1.
<mgrwt>
<rscale>  2 0.41698572E+03</rscale>
<asrwt>0</asrwt>
<pdfrwt beam="1">  1       21 0.11605438E+00 0.41698572E+03</pdfrwt>
<pdfrwt beam="2">  1       21 0.95421828E-01 0.41698572E+03</pdfrwt>
<totfact> 0.44529050E+02</totfact>
</mgrwt>
</event>
<event>
 4    1  0.4656600E-002  0.5195820E+03  0.7818608E-02  0.1008790E+00
         21   -1    0    0  501  502  0.00000000000E+00  0.00000000000E+00  0.17662136271E+03  0.17662136271E+03  0.00000000000E+00 0. -1.
         21   -1    0    0  502  503 -0.00000000000E+00 -0.00000000000E+00 -0.16306766365E+04  0.16306766365E+04  0.00000000000E+00 0. -1.
    9000007    1    1    2  501    0 -0.31300284536E+03 -0.10952019992E+03 -0.50082626813E+03  0.72165948081E+03  0.40000000000E+03 0.  1.
   -9000007    1    1    2    0  503  0.31300284536E+03  0.10952019992E+03 -0.95322900562E+03  0.10856385184E+04  0.40000000000E+03 0.  1.
<mgrwt>
<rscale>  2 0.51958200E+03</rscale>
<asrwt>0</asrwt>
<pdfrwt beam="1">  1       21 0.27172517E-01 0.51958200E+03</pdfrwt>
<pdfrwt beam="2">  1       21 0.25087333E+00 0.51958200E+03</pdfrwt>
<totfact> 0.66916834E+02</totfact>
</mgrwt>
</event>
<event>
 4    1  0.4656600E-002  0.4005434E+03  0.7818608E-02  0.1043592E+00
         21   -1    0    0  501  502  0.00000000000E+00  0.00000000000E+00  0.50173225687E+03  0.50173225687E+03  0.00000000000E+00 0.  1.
         21   -1    0    0  502  503 -0.00000000000E+00 -0.00000000000E+00 -0.37638042607E+03  0.37638042607E+03  0.00000000000E+00 0.  1.
    9000007    1    1    2  501    0 -0.18701294140E+02 -0.92364280366E+01  0.23296411929E+03  0.46336522407E+03  0.40000000000E+03 0.  1.
   -9000007    1    1    2    0  503  0.18701294140E+02  0.92364280366E+01 -0.10761228848E+03  0.41474745887E+03  0.40000000000E+03 0.  1.
<mgrwt>
<rscale>  2 0.40054344E+03</rscale>
<asrwt>0</asrwt>
<pdfrwt beam="1">  1       21 0.77189578E-01 0.40054344E+03</pdfrwt>
<pdfrwt beam="2">  1       21 0.57904681E-01 0.40054344E+03</pdfrwt>
<totfact> 0.37105205E+03</totfact>
</mgrwt>
</event>
<event>
 4    1  0.4656600E-002  0.4826924E+03  0.7818608E-02  0.1018398E+00
         21   -1    0    0  503  502  0.00000000000E+00  0.00000000000E+00  0.82306479466E+03  0.82306479466E+03  0.00000000000E+00 0. -1.
         21   -1    0    0  501  503 -0.00000000000E+00 -0.00000000000E+00 -0.28867454585E+03  0.28867454585E+03  0.00000000000E+00 0. -1.
    9000007    1    1    2  501    0 -0.64962170550E+02  0.26224382699E+03  0.18980042690E+03  0.51866763004E+03  0.40000000000E+03 0. -1.
   -9000007    1    1    2    0  502  0.64962170550E+02 -0.26224382699E+03  0.34458982192E+03  0.59307171047E+03  0.40000000000E+03 0. -1.
<mgrwt>
<rscale>  2 0.48269235E+03</rscale>
<asrwt>0</asrwt>
<pdfrwt beam="1">  1       21 0.12662535E+00 0.48269235E+03</pdfrwt>
<pdfrwt beam="2">  1       21 0.44411469E-01 0.48269235E+03</pdfrwt>
<totfact> 0.19081291E+03</totfact>
</mgrwt>
</event>
<event>
 4    1  0.4656600E-002  0.5400261E+03  0.7818608E-02  0.1003829E+00
         21   -1    0    0  503  502  0.00000000000E+00  0.00000000000E+00  0.28987578842E+03  0.28987578842E+03  0.00000000000E+00 0. -1.
         21   -1    0    0  501  503 -0.00000000000E+00 -0.00000000000E+00 -0.13579591920E+04  0.13579591920E+04  0.00000000000E+00 0. -1.
    9000007    1    1    2  501    0  0.30375192931E+03  0.19840101213E+03 -0.95347076663E+03  0.10957804064E+04  0.40000000000E+03 0. -1.
   -9000007    1    1    2    0  502 -0.30375192931E+03 -0.19840101213E+03 -0.11461263696E+03  0.55205457405E+03  0.40000000000E+03 0. -1.
<mgrwt>
<rscale>  2 0.54002611E+03</rscale>
<asrwt>0</asrwt>
<pdfrwt beam="1">  1       21 0.44596275E-01 0.54002611E+03</pdfrwt>
<pdfrwt beam="2">  1       21 0.20891680E+00 0.54002611E+03</pdfrwt>
<totfact> 0.44793650E+02</totfact>
</mgrwt>
</event>
<event>
 4    1  0.4656600E-002  0.4024441E+03  0.7818608E-02  0.1042937E+00
         21   -1    0    0  501  502  0.00000000000E+00  0.00000000000E+00  0.20388071020E+03  0.20388071020E+03  0.00000000000E+00 0. -1.
         21   -1    0    0  502  503 -0.00000000000E+00 -0.00000000000E+00 -0.12332346989E+04  0.12332346989E+04  0.00000000000E+00 0. -1.
    9000007    1    1    2  501    0  0.23332891678E+02 -0.37640879767E+02 -0.86036606931E+02  0.41153803882E+03  0.40000000000E+03 0. -1.
   -9000007    1    1    2    0  503 -0.23332891678E+02  0.37640879767E+02 -0.94331738173E+03  0.10255773702E+04  0.40000000000E+03 0. -1.
<mgrwt>
<rscale>  2 0.40244411E+03</rscale>
<asrwt>0</asrwt>
<pdfrwt beam="1">  1       21 0.31366264E-01 0.40244411E+03</pdfrwt>
<pdfrwt beam="2">  1       21 0.18972841E+00 0.40244411E+03</pdfrwt>
<totfact> 0.13152502E+03</totfact>
</mgrwt>
</event>
<event>
 4    1  0.4656600E-002  0.7130449E+03  0.7818608E-02  0.9695180E-01
         21   -1    0    0  501  502  0.00000000000E+00  0.00000000000E+00  0.57711654742E+03  0.57711654742E+03  0.00000000000E+00 0. -1.
         21   -1    0    0  502  503 -0.00000000000E+00 -0.00000000000E+00 -0.10873895466E+04  0.10873895466E+04  0.00000000000E+00 0.  1.
    9000007    1    1    2  501    0  0.43923709560E+03 -0.39433967849E+03  0.10745600750E+03  0.72109624998E+03  0.40000000000E+03 0.  1.
   -9000007    1    1    2    0  503 -0.43923709560E+03  0.39433967849E+03 -0.61772900672E+03  0.94340984409E+03  0.40000000000E+03 0.  1.
<mgrwt>
<rscale>  2 0.71304489E+03</rscale>
<asrwt>0</asrwt>
<pdfrwt beam="1">  1       21 0.88787162E-01 0.71304489E+03</pdfrwt>
<pdfrwt beam="2">  1       21 0.16729070E+00 0.71304489E+03</pdfrwt>
<totfact> 0.17691420E+02</totfact>
</mgrwt>
</event>
<event>
 4    1  0.4656600E-002  0.4257980E+03  0.7818608E-02  0.1035196E+00
         21   -1    0    0  503  502  0.00000000000E+00  0.00000000000E+00  0.21107958604E+03  0.21107958604E+03  0.00000000000E+00 0.  1.
         21   -1    0    0  501  503 -0.00000000000E+00 -0.00000000000E+00 -0.17738842428E+04  0.17738842428E+04  0.00000000000E+00 0.  1.
    9000007    1    1    2  501    0 -0.11313332449E+03  0.92221560753E+02 -0.14941865927E+04  0.15536722754E+04  0.40000000000E+03 0.  1.
   -9000007    1    1    2    0  502  0.11313332449E+03 -0.92221560753E+02 -0.68618064023E+02  0.43129155346E+03  0.40000000000E+03 0.  1.
<mgrwt>
<rscale>  2 0.42579803E+03</rscale>
<asrwt>0</asrwt>
<pdfrwt beam="1">  1       21 0.32473783E-01 0.42579803E+03</pdfrwt>
<pdfrwt beam="2">  1       21 0.27290526E+00 0.42579803E+03</pdfrwt>
<totfact> 0.36168470E+02</totfact>
</mgrwt>
</event>
<event>
 4    1  0.4656600E-002  0.4152270E+03  0.7818608E-02  0.1038631E+00
         21   -1    0    0  501  502  0.00000000000E+00  0.00000000000E+00  0.57493016136E+03  0.57493016136E+03  0.00000000000E+00 0. -1.
         21   -1    0    0  502  503 -0.00000000000E+00 -0.00000000000E+00 -0.30271274745E+03  0.30271274745E+03  0.00000000000E+00 0. -1.
    9000007    1    1    2  501    0  0.44918006944E+02 -0.10195997697E+03  0.17851415240E+03  0.45197429889E+03  0.40000000000E+03 0. -1.
   -9000007    1    1    2    0  503 -0.44918006944E+02  0.10195997697E+03  0.93703261507E+02  0.42566860992E+03  0.40000000000E+03 0. -1.
<mgrwt>
<rscale>  2 0.41522700E+03</rscale>
<asrwt>0</asrwt>
<pdfrwt beam="1">  1       21 0.88450794E-01 0.41522700E+03</pdfrwt>
<pdfrwt beam="2">  1       21 0.46571192E-01 0.41522700E+03</pdfrwt>
<totfact> 0.42832602E+03</totfact>
</mgrwt>
</event>
<event>
 4    1  0.4656600E-002  0.6873058E+03  0.7818608E-02  0.9739191E-01
         21   -1    0    0  503  502  0.00000000000E+00  0.00000000000E+00  0.49539888260E+03  0.49539888260E+03  0.00000000000E+00 0. -1.
         21   -1    0    0  501  503 -0.00000000000E+00 -0.00000000000E+00 -0.12338498225E+04  0.12338498225E+04  0.00000000000E+00 0.  1.
    9000007    1    1    2  501    0  0.18082711445E+03 -0.52885803730E+03 -0.78132784786E+03  0.10406067820E+04  0.40000000000E+03 0.  1.
   -9000007    1    1    2    0  502 -0.18082711445E+03  0.52885803730E+03  0.42876907994E+02  0.68864192304E+03  0.40000000000E+03 0.  1.
<mgrwt>
<rscale>  2 0.68730580E+03</rscale>
<asrwt>0</asrwt>
<pdfrwt beam="1">  1       21 0.76215213E-01 0.68730580E+03</pdfrwt>
<pdfrwt beam="2">  1       21 0.18982305E+00 0.68730580E+03</pdfrwt>
<totfact> 0.17576837E+02</totfact>
</mgrwt>
</event>
<event>
 4    1  0.4656600E-002  0.5628344E+03  0.7818608E-02  0.9985662E-01
         21   -1    0    0  501  502  0.00000000000E+00  0.00000000000E+00  0.98451309525E+03  0.98451309525E+03  0.00000000000E+00 0.  1.
         21   -1    0    0  502  503 -0.00000000000E+00 -0.00000000000E+00 -0.32998830812E+03  0.32998830812E+03  0.00000000000E+00 0.  1.
    9000007    1    1    2  501    0 -0.35579879583E+03  0.17375209985E+03  0.43101183617E+03  0.70891027517E+03  0.40000000000E+03 0.  1.
   -9000007    1    1    2    0  503  0.35579879583E+03 -0.17375209985E+03  0.22351295096E+03  0.60559112820E+03  0.40000000000E+03 0.  1.
<mgrwt>
<rscale>  2 0.56283441E+03</rscale>
<asrwt>0</asrwt>
<pdfrwt beam="1">  1       21 0.15146355E+00 0.56283441E+03</pdfrwt>
<pdfrwt beam="2">  1       21 0.50767432E-01 0.56283441E+03</pdfrwt>
<totfact> 0.86776356E+02</totfact>
</mgrwt>
</event>
<event>
 4    1  0.4656600E-002  0.4217300E+03  0.7818608E-02  0.1036505E+00
         21   -1    0    0  501  502  0.00000000000E+00  0.00000000000E+00  0.13108046573E+04  0.13108046573E+04  0.00000000000E+00 0. -1.
         21   -1    0    0  502  503 -0.00000000000E+00 -0.00000000000E+00 -0.14933373555E+03  0.14933373555E+03  0.00000000000E+00 0. -1.
    9000007    1    1    2  501    0 -0.17915455446E+02 -0.13242070488E+03  0.80145216073E+03  0.90563887536E+03  0.40000000000E+03 0.  1.
   -9000007    1    1    2    0  503  0.17915455446E+02  0.13242070488E+03  0.36001876105E+03  0.55449951752E+03  0.40000000000E+03 0.  1.
<mgrwt>
<rscale>  2 0.42173002E+03</rscale>
<asrwt>0</asrwt>
<pdfrwt beam="1">  1       21 0.20166225E+00 0.42173002E+03</pdfrwt>
<pdfrwt beam="2">  1       21 0.22974422E-01 0.42173002E+03</pdfrwt>
<totfact> 0.19935345E+03</totfact>
</mgrwt>
</event>
<event>
 4    1  0.4656600E-002  0.4164210E+03  0.7818608E-02  0.1038237E+00
         21   -1    0    0  503  502  0.00000000000E+00  0.00000000000E+00  0.16636933685E+04  0.16636933685E+04  0.00000000000E+00 0. -1.
         21   -1    0    0  501  503 -0.00000000000E+00 -0.00000000000E+00 -0.43705891841E+03  0.43705891841E+03  0.00000000000E+00 0.  1.
    9000007    1    1    2  501    0 -0.64922230923E+02 -0.95872696807E+02 -0.30329468603E+03  0.51516418415E+03  0.40000000000E+03 0.  1.
   -9000007    1    1    2    0  502  0.64922230923E+02  0.95872696807E+02  0.15299291361E+04  0.15855881028E+04  0.40000000000E+03 0. -1.
<mgrwt>
<rscale>  2 0.41642102E+03</rscale>
<asrwt>0</asrwt>
<pdfrwt beam="1">  1       21 0.25595282E+00 0.41642102E+03</pdfrwt>
<pdfrwt beam="2">  1       21 0.67239835E-01 0.41642102E+03</pdfrwt>
<totfact> 0.99380192E+01</totfact>
</mgrwt>
</event>
<event>
 4    1  0.4656600E-002  0.4261160E+03  0.7818608E-02  0.1035094E+00
         21   -1    0    0  503  502  0.00000000000E+00  0.00000000000E+00  0.96108122496E+03  0.96108122496E+03  0.00000000000E+00 0.  1.
         21   -1    0    0  501  503 -0.00000000000E+00 -0.00000000000E+00 -0.21719196866E+03  0.21719196866E+03  0.00000000000E+00 0.  1.
    9000007    1    1    2  501    0  0.12894165910E+03  0.70348282509E+02  0.15941804444E+03  0.45496037761E+03  0.40000000000E+03 0.  1.
   -9000007    1    1    2    0  502 -0.12894165910E+03 -0.70348282509E+02  0.58447121186E+03  0.72331281600E+03  0.40000000000E+03 0.  1.
<mgrwt>
<rscale>  2 0.42611598E+03</rscale>
<asrwt>0</asrwt>
<pdfrwt beam="1">  1       21 0.14785865E+00 0.42611598E+03</pdfrwt>
<pdfrwt beam="2">  1       21 0.33414150E-01 0.42611598E+03</pdfrwt>
<totfact> 0.23214928E+03</totfact>
</mgrwt>
</event>
<event>
 4    1  0.4656600E-002  0.5300868E+03  0.7818608E-02  0.1006211E+00
         21   -1    0    0  503  502  0.00000000000E+00  0.00000000000E+00  0.43828112346E+03  0.43828112346E+03  0.00000000000E+00 0.  1.
         21   -1    0    0  501  503 -0.00000000000E+00 -0.00000000000E+00 -0.11918303137E+04  0.11918303137E+04  0.00000000000E+00 0.  1.
    9000007    1    1    2  501    0  0.69170554825E+02 -0.34089211823E+03  0.17726474502E+03  0.55894077661E+03  0.40000000000E+03 0.  1.
   -9000007    1    1    2    0  502 -0.69170554825E+02  0.34089211823E+03 -0.93081393524E+03  0.10711706605E+04  0.40000000000E+03 0.  1.
<mgrwt>
<rscale>  2 0.53008679E+03</rscale>
<asrwt>0</asrwt>
<pdfrwt beam="1">  1       21 0.67427865E-01 0.53008679E+03</pdfrwt>
<pdfrwt beam="2">  1       21 0.18335851E+00 0.53008679E+03</pdfrwt>
<totfact> 0.27359558E+02</totfact>
</mgrwt>
</event>
<event>
 4    1  0.4656600E-002  0.4681481E+03  0.7818608E-02  0.1022444E+00
         21   -1    0    0  503  502  0.00000000000E+00  0.00000000000E+00  0.22947907896E+04  0.22947907896E+04  0.00000000000E+00 0. -1.
         21   -1    0    0  501  503 -0.00000000000E+00 -0.00000000000E+00 -0.10015148087E+03  0.10015148087E+03  0.00000000000E+00 0. -1.
    9000007    1    1    2  501    0  0.18677630764E+03  0.15581155857E+03  0.13552641166E+04  0.14338422008E+04  0.40000000000E+03 0.  1.
   -9000007    1    1    2    0  502 -0.18677630764E+03 -0.15581155857E+03  0.83937519217E+03  0.96110006977E+03  0.40000000000E+03 0.  1.
<mgrwt>
<rscale>  2 0.46814809E+03</rscale>
<asrwt>0</asrwt>
<pdfrwt beam="1">  1       21 0.35304470E+00 0.46814809E+03</pdfrwt>
<pdfrwt beam="2">  1       21 0.15407922E-01 0.46814809E+03</pdfrwt>
<totfact> 0.48606817E+02</totfact>
</mgrwt>
</event>
<event>
 4    1  0.4656600E-002  0.4310695E+03  0.7818608E-02  0.1033523E+00
         21   -1    0    0  503  502  0.00000000000E+00  0.00000000000E+00  0.22437974649E+03  0.22437974649E+03  0.00000000000E+00 0.  1.
         21   -1    0    0  501  503 -0.00000000000E+00 -0.00000000000E+00 -0.99393613037E+03  0.99393613037E+03  0.00000000000E+00 0.  1.
    9000007    1    1    2  501    0  0.15880558078E+03  0.24529039607E+02 -0.63356084864E+03  0.76630296567E+03  0.40000000000E+03 0.  1.
   -9000007    1    1    2    0  502 -0.15880558078E+03 -0.24529039607E+02 -0.13599553525E+03  0.45201291118E+03  0.40000000000E+03 0.  1.
<mgrwt>
<rscale>  2 0.43106947E+03</rscale>
<asrwt>0</asrwt>
<pdfrwt beam="1">  1       21 0.34519961E-01 0.43106947E+03</pdfrwt>
<pdfrwt beam="2">  1       21 0.15291325E+00 0.43106947E+03</pdfrwt>
<totfact> 0.19806293E+03</totfact>
</mgrwt>
</event>
<event>
 4    1  0.4656600E-002  0.4274289E+03  0.7818608E-02  0.1034675E+00
         21   -1    0    0  503  502  0.00000000000E+00  0.00000000000E+00  0.10530212026E+03  0.10530212026E+03  0.00000000000E+00 0. -1.
         21   -1    0    0  501  503 -0.00000000000E+00 -0.00000000000E+00 -0.20586349020E+04  0.20586349020E+04  0.00000000000E+00 0.  1.
    9000007    1    1    2  501    0  0.14442675637E+03  0.42852698624E+02 -0.54764747498E+03  0.69470367682E+03  0.40000000000E+03 0. -1.
   -9000007    1    1    2    0  502 -0.14442675637E+03 -0.42852698624E+02 -0.14056853068E+04  0.14692333454E+04  0.40000000000E+03 0.  1.
<mgrwt>
<rscale>  2 0.42742887E+03</rscale>
<asrwt>0</asrwt>
<pdfrwt beam="1">  1       21 0.16200325E-01 0.42742887E+03</pdfrwt>
<pdfrwt beam="2">  1       21 0.31671309E+00 0.42742887E+03</pdfrwt>
<totfact> 0.75413709E+02</totfact>
</mgrwt>
</event>
<event>
 4    1  0.4656600E-002  0.4926624E+03  0.7818608E-02  0.1015712E+00
         21   -1    0    0  503  502  0.00000000000E+00  0.00000000000E+00  0.14713309297E+04  0.14713309297E+04  0.00000000000E+00 0.  1.
         21   -1    0    0  501  503 -0.00000000000E+00 -0.00000000000E+00 -0.18717654067E+03  0.18717654067E+03  0.00000000000E+00 0.  1.
    9000007    1    1    2  501    0 -0.14279076142E+03  0.24965389803E+03  0.35640809082E+03  0.60806496162E+03  0.40000000000E+03 0.  1.
   -9000007    1    1    2    0  502  0.14279076142E+03 -0.24965389803E+03  0.92774629824E+03  0.10504425088E+04  0.40000000000E+03 0.  1.
<mgrwt>
<rscale>  2 0.49266243E+03</rscale>
<asrwt>0</asrwt>
<pdfrwt beam="1">  1       21 0.22635860E+00 0.49266243E+03</pdfrwt>
<pdfrwt beam="2">  1       21 0.28796392E-01 0.49266243E+03</pdfrwt>
<totfact> 0.85938807E+02</totfact>
</mgrwt>
</event>
<event>
 4    1  0.4656600E-002  0.5583536E+03  0.7818608E-02  0.9995787E-01
         21   -1    0    0  503  502  0.00000000000E+00  0.00000000000E+00  0.55212165728E+03  0.55212165728E+03  0.00000000000E+00 0. -1.
         21   -1    0    0  501  503 -0.00000000000E+00 -0.00000000000E+00 -0.76125203631E+03  0.76125203631E+03  0.00000000000E+00 0.  1.
    9000007    1    1    2  501    0  0.38422604656E+03 -0.64257863349E+02 -0.43828471704E+03  0.70982548633E+03  0.40000000000E+03 0. -1.
   -9000007    1    1    2    0  502 -0.38422604656E+03  0.64257863349E+02  0.22915433800E+03  0.60354820725E+03  0.40000000000E+03 0. -1.
<mgrwt>
<rscale>  2 0.55835359E+03</rscale>
<asrwt>0</asrwt>
<pdfrwt beam="1">  1       21 0.84941794E-01 0.55835359E+03</pdfrwt>
<pdfrwt beam="2">  1       21 0.11711570E+00 0.55835359E+03</pdfrwt>
<totfact> 0.54060393E+02</totfact>
</mgrwt>
</event>
<event>
 4    1  0.4656600E-002  0.4488775E+03  0.7818608E-02  0.1028057E+00
         21   -1    0    0  501  502  0.00000000000E+00  0.00000000000E+00  0.76603610342E+03  0.76603610342E+03  0.00000000000E+00 0. -1.
         21   -1    0    0  502  503 -0.00000000000E+00 -0.00000000000E+00 -0.33101514950E+03  0.33101514950E+03  0.00000000000E+00 0. -1.
    9000007    1    1    2  501    0  0.63358651428E+02 -0.19358891999E+03  0.46609717113E+03  0.64709934445E+03  0.40000000000E+03 0. -1.
   -9000007    1    1    2    0  503 -0.63358651428E+02  0.19358891999E+03 -0.31076217220E+02  0.44995190846E+03  0.40000000000E+03 0. -1.
<mgrwt>
<rscale>  2 0.44887748E+03</rscale>
<asrwt>0</asrwt>
<pdfrwt beam="1">  1       21 0.11785171E+00 0.44887748E+03</pdfrwt>
<pdfrwt beam="2">  1       21 0.50925408E-01 0.44887748E+03</pdfrwt>
<totfact> 0.17391682E+03</totfact>
</mgrwt>
</event>
<event>
 4    1  0.4656600E-002  0.6560909E+03  0.7818608E-02  0.9795417E-01
         21   -1    0    0  501  502  0.00000000000E+00  0.00000000000E+00  0.87551436101E+03  0.87551436101E+03  0.00000000000E+00 0. -1.
         21   -1    0    0  502  503 -0.00000000000E+00 -0.00000000000E+00 -0.91239546109E+03  0.91239546109E+03  0.00000000000E+00 0. -1.
    9000007    1    1    2  501    0 -0.44758748458E+03 -0.26480307024E+03  0.58861539203E+03  0.88143252839E+03  0.40000000000E+03 0. -1.
   -9000007    1    1    2    0  503  0.44758748458E+03  0.26480307024E+03 -0.62549649212E+03  0.90647729371E+03  0.40000000000E+03 0. -1.
<mgrwt>
<rscale>  2 0.65609086E+03</rscale>
<asrwt>0</asrwt>
<pdfrwt beam="1">  1       21 0.13469452E+00 0.65609086E+03</pdfrwt>
<pdfrwt beam="2">  1       21 0.14036853E+00 0.65609086E+03</pdfrwt>
<totfact> 0.10313308E+02</totfact>
</mgrwt>
</event>
<event>
 4    1  0.4656600E-002  0.4876879E+03  0.7818608E-02  0.1017043E+00
         21   -1    0    0  503  502  0.00000000000E+00  0.00000000000E+00  0.36334676074E+03  0.36334676074E+03  0.00000000000E+00 0. -1.
         21   -1    0    0  501  503 -0.00000000000E+00 -0.00000000000E+00 -0.65515968445E+03  0.65515968445E+03  0.00000000000E+00 0.  1.
    9000007    1    1    2  501    0 -0.26451387222E+03  0.88723454527E+02 -0.16105745965E+03  0.51359414452E+03  0.40000000000E+03 0. -1.
   -9000007    1    1    2    0  502  0.26451387222E+03 -0.88723454527E+02 -0.13075546406E+03  0.50491230066E+03  0.40000000000E+03 0. -1.
<mgrwt>
<rscale>  2 0.48768785E+03</rscale>
<asrwt>0</asrwt>
<pdfrwt beam="1">  1       21 0.55899502E-01 0.48768785E+03</pdfrwt>
<pdfrwt beam="2">  1       21 0.10079380E+00 0.48768785E+03</pdfrwt>
<totfact> 0.20676550E+03</totfact>
</mgrwt>
</event>
<event>
 4    1  0.4656600E-002  0.5193921E+03  0.7818608E-02  0.1008838E+00
         21   -1    0    0  503  502  0.00000000000E+00  0.00000000000E+00  0.10930403783E+04  0.10930403783E+04  0.00000000000E+00 0. -1.
         21   -1    0    0  501  503 -0.00000000000E+00 -0.00000000000E+00 -0.73827727265E+03  0.73827727265E+03  0.00000000000E+00 0.  1.
    9000007    1    1    2  501    0  0.18826799731E+03  0.27262303882E+03 -0.56970911843E+03  0.77093231852E+03  0.40000000000E+03 0.  1.
   -9000007    1    1    2    0  502 -0.18826799731E+03 -0.27262303882E+03  0.92447222406E+03  0.10603853324E+04  0.40000000000E+03 0. -1.
<mgrwt>
<rscale>  2 0.51939211E+03</rscale>
<asrwt>0</asrwt>
<pdfrwt beam="1">  1       21 0.16816006E+00 0.51939211E+03</pdfrwt>
<pdfrwt beam="2">  1       21 0.11358112E+00 0.51939211E+03</pdfrwt>
<totfact> 0.10277379E+02</totfact>
</mgrwt>
</event>
<event>
 4    1  0.4656600E-002  0.5222647E+03  0.7818608E-02  0.1008126E+00
         21   -1    0    0  501  502  0.00000000000E+00  0.00000000000E+00  0.70906975345E+03  0.70906975345E+03  0.00000000000E+00 0. -1.
         21   -1    0    0  502  503 -0.00000000000E+00 -0.00000000000E+00 -0.70948002422E+03  0.70948002422E+03  0.00000000000E+00 0. -1.
    9000007    1    1    2  501    0 -0.29290410848E+03 -0.16421803498E+03  0.47970159029E+03  0.70913609096E+03  0.40000000000E+03 0. -1.
   -9000007    1    1    2    0  503  0.29290410848E+03  0.16421803498E+03 -0.48011186105E+03  0.70941368672E+03  0.40000000000E+03 0. -1.
<mgrwt>
<rscale>  2 0.52226466E+03</rscale>
<asrwt>0</asrwt>
<pdfrwt beam="1">  1       21 0.10908765E+00 0.52226466E+03</pdfrwt>
<pdfrwt beam="2">  1       21 0.10915077E+00 0.52226466E+03</pdfrwt>
<totfact> 0.35690921E+02</totfact>
</mgrwt>
</event>
<event>
 4    1  0.4656600E-002  0.4052202E+03  0.7818608E-02  0.1041987E+00
         21   -1    0    0  501  502  0.00000000000E+00  0.00000000000E+00  0.67551447991E+03  0.67551447991E+03  0.00000000000E+00 0.  1.
         21   -1    0    0  502  503 -0.00000000000E+00 -0.00000000000E+00 -0.25981763380E+03  0.25981763380E+03  0.00000000000E+00 0.  1.
    9000007    1    1    2  501    0  0.63286288653E+02 -0.14081406969E+02  0.89145759192E+02  0.41491011886E+03  0.40000000000E+03 0.  1.
   -9000007    1    1    2    0  503 -0.63286288653E+02  0.14081406969E+02  0.32655108692E+03  0.52042199485E+03  0.40000000000E+03 0.  1.
<mgrwt>
<rscale>  2 0.40522024E+03</rscale>
<asrwt>0</asrwt>
<pdfrwt beam="1">  1       21 0.10392530E+00 0.40522024E+03</pdfrwt>
<pdfrwt beam="2">  1       21 0.39971944E-01 0.40522024E+03</pdfrwt>
<totfact> 0.40119297E+03</totfact>
</mgrwt>
</event>
<event>
 4    1  0.4656600E-002  0.4243028E+03  0.7818608E-02  0.1035675E+00
         21   -1    0    0  501  502  0.00000000000E+00  0.00000000000E+00  0.76237381788E+03  0.76237381788E+03  0.00000000000E+00 0. -1.
         21   -1    0    0  502  503 -0.00000000000E+00 -0.00000000000E+00 -0.27589197322E+03  0.27589197322E+03  0.00000000000E+00 0. -1.
    9000007    1    1    2  501    0 -0.83197366492E+02  0.11450344605E+03  0.44027719008E+03  0.61145469583E+03  0.40000000000E+03 0. -1.
   -9000007    1    1    2    0  503  0.83197366492E+02 -0.11450344605E+03  0.46204654584E+02  0.42681109528E+03  0.40000000000E+03 0. -1.
<mgrwt>
<rscale>  2 0.42430277E+03</rscale>
<asrwt>0</asrwt>
<pdfrwt beam="1">  1       21 0.11728828E+00 0.42430277E+03</pdfrwt>
<pdfrwt beam="2">  1       21 0.42444919E-01 0.42430277E+03</pdfrwt>
<totfact> 0.26069712E+03</totfact>
</mgrwt>
</event>
<event>
 4    1  0.4656600E-002  0.5589991E+03  0.7818608E-02  0.9994322E-01
         21   -1    0    0  503  502  0.00000000000E+00  0.00000000000E+00  0.53797330533E+03  0.53797330533E+03  0.00000000000E+00 0. -1.
         21   -1    0    0  501  503 -0.00000000000E+00 -0.00000000000E+00 -0.62919496689E+03  0.62919496689E+03  0.00000000000E+00 0.  1.
    9000007    1    1    2  501    0 -0.15784599831E+03  0.35716198101E+03  0.11616034414E+03  0.57094068467E+03  0.40000000000E+03 0. -1.
   -9000007    1    1    2    0  502  0.15784599831E+03 -0.35716198101E+03 -0.20738200569E+03  0.59622758754E+03  0.40000000000E+03 0. -1.
<mgrwt>
<rscale>  2 0.55899914E+03</rscale>
<asrwt>0</asrwt>
<pdfrwt beam="1">  1       21 0.82765124E-01 0.55899914E+03</pdfrwt>
<pdfrwt beam="2">  1       21 0.96799226E-01 0.55899914E+03</pdfrwt>
<totfact> 0.92109109E+02</totfact>
</mgrwt>
</event>
<event>
 4    1  0.4656600E-002  0.6136521E+03  0.7818608E-02  0.9877480E-01
         21   -1    0    0  503  502  0.00000000000E+00  0.00000000000E+00  0.41122885740E+03  0.41122885740E+03  0.00000000000E+00 0.  1.
         21   -1    0    0  501  503 -0.00000000000E+00 -0.00000000000E+00 -0.14559175348E+04  0.14559175348E+04  0.00000000000E+00 0.  1.
    9000007    1    1    2  501    0 -0.44108574374E+03 -0.14836526546E+03 -0.10910111109E+04  0.12517484290E+04  0.40000000000E+03 0.  1.
   -9000007    1    1    2    0  502  0.44108574374E+03  0.14836526546E+03  0.46322433478E+02  0.61539796325E+03  0.40000000000E+03 0.  1.
<mgrwt>
<rscale>  2 0.61365209E+03</rscale>
<asrwt>0</asrwt>
<pdfrwt beam="1">  1       21 0.63265978E-01 0.61365209E+03</pdfrwt>
<pdfrwt beam="2">  1       21 0.22398731E+00 0.61365209E+03</pdfrwt>
<totfact> 0.16292225E+02</totfact>
</mgrwt>
</event>
<event>
 4    1  0.4656600E-002  0.4889562E+03  0.7818608E-02  0.1016702E+00
         21   -1    0    0  501  502  0.00000000000E+00  0.00000000000E+00  0.28314825714E+03  0.28314825714E+03  0.00000000000E+00 0. -1.
         21   -1    0    0  502  503 -0.00000000000E+00 -0.00000000000E+00 -0.11583341778E+04  0.11583341778E+04  0.00000000000E+00 0. -1.
    9000007    1    1    2  501    0  0.26872453129E+03  0.82857166252E+02 -0.62350879351E+02  0.49291562754E+03  0.40000000000E+03 0.  1.
   -9000007    1    1    2    0  503 -0.26872453129E+03 -0.82857166252E+02 -0.81283504127E+03  0.94856680737E+03  0.40000000000E+03 0.  1.
<mgrwt>
<rscale>  2 0.48895622E+03</rscale>
<asrwt>0</asrwt>
<pdfrwt beam="1">  1       21 0.43561269E-01 0.48895622E+03</pdfrwt>
<pdfrwt beam="2">  1       21 0.17820526E+00 0.48895622E+03</pdfrwt>
<totfact> 0.77863310E+02</totfact>
</mgrwt>
</event>
<event>
 4    1  0.4656600E-002  0.4829317E+03  0.7818608E-02  0.1018333E+00
         21   -1    0    0  503  502  0.00000000000E+00  0.00000000000E+00  0.40162653466E+03  0.40162653466E+03  0.00000000000E+00 0. -1.
         21   -1    0    0  501  503 -0.00000000000E+00 -0.00000000000E+00 -0.60924509448E+03  0.60924509448E+03  0.00000000000E+00 0. -1.
    9000007    1    1    2  501    0  0.26013442359E+03 -0.74519120073E+02  0.56025680926E+01  0.48296418746E+03  0.40000000000E+03 0. -1.
   -9000007    1    1    2    0  502 -0.26013442359E+03  0.74519120073E+02 -0.21322112792E+03  0.52790744168E+03  0.40000000000E+03 0. -1.
<mgrwt>
<rscale>  2 0.48293169E+03</rscale>
<asrwt>0</asrwt>
<pdfrwt beam="1">  1       21 0.61788698E-01 0.48293169E+03</pdfrwt>
<pdfrwt beam="2">  1       21 0.93730014E-01 0.48293169E+03</pdfrwt>
<totfact> 0.19827249E+03</totfact>
</mgrwt>
</event>
<event>
 4    1  0.4656600E-002  0.4005333E+03  0.7818608E-02  0.1043595E+00
         21   -1    0    0  503  502  0.00000000000E+00  0.00000000000E+00  0.62165379794E+03  0.62165379794E+03  0.00000000000E+00 0.  1.
         21   -1    0    0  501  503 -0.00000000000E+00 -0.00000000000E+00 -0.54468703559E+03  0.54468703559E+03  0.00000000000E+00 0.  1.
    9000007    1    1    2  501    0 -0.53293300447E+01  0.19962189210E+02 -0.38455229367E+03  0.55525431770E+03  0.40000000000E+03 0.  1.
   -9000007    1    1    2    0  502  0.53293300447E+01 -0.19962189210E+02  0.46151905602E+03  0.61108651583E+03  0.40000000000E+03 0.  1.
<mgrwt>
<rscale>  2 0.40053326E+03</rscale>
<asrwt>0</asrwt>
<pdfrwt beam="1">  1       21 0.95639046E-01 0.40053326E+03</pdfrwt>
<pdfrwt beam="2">  1       21 0.83798006E-01 0.40053326E+03</pdfrwt>
<totfact> 0.98009068E+02</totfact>
</mgrwt>
</event>
<event>
 4    1  0.4656600E-002  0.4652890E+03  0.7818608E-02  0.1023258E+00
         21   -1    0    0  501  502  0.00000000000E+00  0.00000000000E+00  0.24754837051E+03  0.24754837051E+03  0.00000000000E+00 0. -1.
         21   -1    0    0  502  503 -0.00000000000E+00 -0.00000000000E+00 -0.87924490163E+03  0.87924490163E+03  0.00000000000E+00 0. -1.
    9000007    1    1    2  501    0 -0.22649061042E+03  0.72082277912E+02 -0.35700996917E+03  0.58647247973E+03  0.40000000000E+03 0.  1.
   -9000007    1    1    2    0  503  0.22649061042E+03 -0.72082277912E+02 -0.27468656196E+03  0.54032079242E+03  0.40000000000E+03 0.  1.
<mgrwt>
<rscale>  2 0.46528900E+03</rscale>
<asrwt>0</asrwt>
<pdfrwt beam="1">  1       21 0.38084365E-01 0.46528900E+03</pdfrwt>
<pdfrwt beam="2">  1       21 0.13526845E+00 0.46528900E+03</pdfrwt>
<totfact> 0.22231498E+03</totfact>
</mgrwt>
</event>
<event>
 4    1  0.4656600E-002  0.4055778E+03  0.7818608E-02  0.1041865E+00
         21   -1    0    0  501  502  0.00000000000E+00  0.00000000000E+00  0.80805037965E+02  0.80805037965E+02  0.00000000000E+00 0. -1.
         21   -1    0    0  502  503 -0.00000000000E+00 -0.00000000000E+00 -0.22576983800E+04  0.22576983800E+04  0.00000000000E+00 0. -1.
    9000007    1    1    2  501    0  0.41975349006E+02 -0.52262662283E+02 -0.72178280606E+03  0.82792737297E+03  0.40000000000E+03 0. -1.
   -9000007    1    1    2    0  503 -0.41975349006E+02  0.52262662283E+02 -0.14551105359E+04  0.15105760449E+04  0.40000000000E+03 0. -1.
<mgrwt>
<rscale>  2 0.40557776E+03</rscale>
<asrwt>0</asrwt>
<pdfrwt beam="1">  1       21 0.12431544E-01 0.40557776E+03</pdfrwt>
<pdfrwt beam="2">  1       21 0.34733822E+00 0.40557776E+03</pdfrwt>
<totfact> 0.81290431E+02</totfact>
</mgrwt>
</event>
<event>
 4    1  0.4656600E-002  0.4981999E+03  0.7818608E-02  0.1014250E+00
         21   -1    0    0  501  502  0.00000000000E+00  0.00000000000E+00  0.17491520048E+03  0.17491520048E+03  0.00000000000E+00 0. -1.
         21   -1    0    0  502  503 -0.00000000000E+00 -0.00000000000E+00 -0.19084638258E+04  0.19084638258E+04  0.00000000000E+00 0.  1.
    9000007    1    1    2  501    0  0.26092416686E+03 -0.14185111828E+03 -0.33922816860E+03  0.60272623220E+03  0.40000000000E+03 0. -1.
   -9000007    1    1    2    0  503 -0.26092416686E+03  0.14185111828E+03 -0.13943204567E+04  0.14806527941E+04  0.40000000000E+03 0.  1.
<mgrwt>
<rscale>  2 0.49819992E+03</rscale>
<asrwt>0</asrwt>
<pdfrwt beam="1">  1       21 0.26910031E-01 0.49819992E+03</pdfrwt>
<pdfrwt beam="2">  1       21 0.29360981E+00 0.49819992E+03</pdfrwt>
<totfact> 0.37835130E+02</totfact>
</mgrwt>
</event>
<event>
 4    1  0.4656600E-002  0.5604290E+03  0.7818608E-02  0.9991084E-01
         21   -1    0    0  503  502  0.00000000000E+00  0.00000000000E+00  0.57330950882E+03  0.57330950882E+03  0.00000000000E+00 0. -1.
         21   -1    0    0  501  503 -0.00000000000E+00 -0.00000000000E+00 -0.55288372031E+03  0.55288372031E+03  0.00000000000E+00 0. -1.
    9000007    1    1    2  501    0  0.17128435214E+03  0.35318885886E+03  0.64006450693E+02  0.56407226934E+03  0.40000000000E+03 0. -1.
   -9000007    1    1    2    0  502 -0.17128435214E+03 -0.35318885886E+03 -0.43580662187E+02  0.56212095979E+03  0.40000000000E+03 0. -1.
<mgrwt>
<rscale>  2 0.56042903E+03</rscale>
<asrwt>0</asrwt>
<pdfrwt beam="1">  1       21 0.88201463E-01 0.56042903E+03</pdfrwt>
<pdfrwt beam="2">  1       21 0.85059033E-01 0.56042903E+03</pdfrwt>
<totfact> 0.10789798E+03</totfact>
</mgrwt>
</event>
<event>
 4    1  0.4656600E-002  0.4208805E+03  0.7818608E-02  0.1036780E+00
         21   -1    0    0  503  502  0.00000000000E+00  0.00000000000E+00  0.27077684102E+03  0.27077684102E+03  0.00000000000E+00 0.  1.
         21   -1    0    0  501  503 -0.00000000000E+00 -0.00000000000E+00 -0.92852477107E+03  0.92852477107E+03  0.00000000000E+00 0.  1.
    9000007    1    1    2  501    0  0.12079337468E+03  0.50491087415E+02 -0.65481535115E+03  0.77841090266E+03  0.40000000000E+03 0.  1.
   -9000007    1    1    2    0  502 -0.12079337468E+03 -0.50491087415E+02 -0.29325789003E+01  0.42089070944E+03  0.40000000000E+03 0.  1.
<mgrwt>
<rscale>  2 0.42088049E+03</rscale>
<asrwt>0</asrwt>
<pdfrwt beam="1">  1       21 0.41657976E-01 0.42088049E+03</pdfrwt>
<pdfrwt beam="2">  1       21 0.14284996E+00 0.42088049E+03</pdfrwt>
<totfact> 0.16281643E+03</totfact>
</mgrwt>
</event>
<event>
 4    1  0.4656600E-002  0.5535458E+03  0.7818608E-02  0.1000677E+00
         21   -1    0    0  501  502  0.00000000000E+00  0.00000000000E+00  0.11220359179E+04  0.11220359179E+04  0.00000000000E+00 0. -1.
         21   -1    0    0  502  503 -0.00000000000E+00 -0.00000000000E+00 -0.37851227453E+03  0.37851227453E+03  0.00000000000E+00 0.  1.
    9000007    1    1    2  501    0  0.85835654962E+02  0.37288765873E+03  0.76772351958E+03  0.94647364898E+03  0.40000000000E+03 0. -1.
   -9000007    1    1    2    0  503 -0.85835654962E+02 -0.37288765873E+03 -0.24199876195E+02  0.55407454346E+03  0.40000000000E+03 0.  1.
<mgrwt>
<rscale>  2 0.55354581E+03</rscale>
<asrwt>0</asrwt>
<pdfrwt beam="1">  1       21 0.17262091E+00 0.55354581E+03</pdfrwt>
<pdfrwt beam="2">  1       21 0.58232658E-01 0.55354581E+03</pdfrwt>
<totfact> 0.44764301E+02</totfact>
</mgrwt>
</event>
<event>
 4    1  0.4656600E-002  0.4045398E+03  0.7818608E-02  0.1042219E+00
         21   -1    0    0  501  502  0.00000000000E+00  0.00000000000E+00  0.13720931202E+03  0.13720931202E+03  0.00000000000E+00 0.  1.
         21   -1    0    0  502  503 -0.00000000000E+00 -0.00000000000E+00 -0.18658039850E+04  0.18658039850E+04  0.00000000000E+00 0.  1.
    9000007    1    1    2  501    0  0.48130500738E+02  0.36550083634E+02 -0.26277040849E+03  0.48239065216E+03  0.40000000000E+03 0.  1.
   -9000007    1    1    2    0  503 -0.48130500738E+02 -0.36550083634E+02 -0.14658242644E+04  0.15206226448E+04  0.40000000000E+03 0.  1.
<mgrwt>
<rscale>  2 0.40453980E+03</rscale>
<asrwt>0</asrwt>
<pdfrwt beam="1">  1       21 0.21109123E-01 0.40453980E+03</pdfrwt>
<pdfrwt beam="2">  1       21 0.28704679E+00 0.40453980E+03</pdfrwt>
<totfact> 0.69892845E+02</totfact>
</mgrwt>
</event>
<event>
 4    1  0.4656600E-002  0.4332050E+03  0.7818608E-02  0.1032852E+00
         21   -1    0    0  503  502  0.00000000000E+00  0.00000000000E+00  0.45073115255E+03  0.45073115255E+03  0.00000000000E+00 0.  1.
         21   -1    0    0  501  503 -0.00000000000E+00 -0.00000000000E+00 -0.42175302026E+03  0.42175302026E+03  0.00000000000E+00 0.  1.
    9000007    1    1    2  501    0 -0.91980081850E+02 -0.13858650018E+03 -0.34839989415E+02  0.43460370264E+03  0.40000000000E+03 0.  1.
   -9000007    1    1    2    0  502  0.91980081850E+02  0.13858650018E+03  0.63818121704E+02  0.43788047016E+03  0.40000000000E+03 0.  1.
<mgrwt>
<rscale>  2 0.43320498E+03</rscale>
<asrwt>0</asrwt>
<pdfrwt beam="1">  1       21 0.69343254E-01 0.43320498E+03</pdfrwt>
<pdfrwt beam="2">  1       21 0.64885080E-01 0.43320498E+03</pdfrwt>
<totfact> 0.36401318E+03</totfact>
</mgrwt>
</event>
<event>
 4    1  0.4656600E-002  0.4309801E+03  0.7818608E-02  0.1033551E+00
         21   -1    0    0  501  502  0.00000000000E+00  0.00000000000E+00  0.41500582132E+03  0.41500582132E+03  0.00000000000E+00 0. -1.
         21   -1    0    0  502  503 -0.00000000000E+00 -0.00000000000E+00 -0.50032182367E+03  0.50032182367E+03  0.00000000000E+00 0. -1.
    9000007    1    1    2  501    0  0.32883936231E+02  0.15704295716E+03  0.10595051292E+03  0.44381229686E+03  0.40000000000E+03 0.  1.
   -9000007    1    1    2    0  503 -0.32883936231E+02 -0.15704295716E+03 -0.19126651527E+03  0.47151534813E+03  0.40000000000E+03 0.  1.
<mgrwt>
<rscale>  2 0.43098010E+03</rscale>
<asrwt>0</asrwt>
<pdfrwt beam="1">  1       21 0.63847049E-01 0.43098010E+03</pdfrwt>
<pdfrwt beam="2">  1       21 0.76972588E-01 0.43098010E+03</pdfrwt>
<totfact> 0.29797816E+03</totfact>
</mgrwt>
</event>
<event>
 4    1  0.4656600E-002  0.5714246E+03  0.7818608E-02  0.9966531E-01
         21   -1    0    0  503  502  0.00000000000E+00  0.00000000000E+00  0.25773080617E+04  0.25773080617E+04  0.00000000000E+00 0.  1.
         21   -1    0    0  501  503 -0.00000000000E+00 -0.00000000000E+00 -0.17896902684E+03  0.17896902684E+03  0.00000000000E+00 0.  1.
    9000007    1    1    2  501    0 -0.10060711655E+03  0.39547974111E+03  0.19439986138E+04  0.20262419964E+04  0.40000000000E+03 0.  1.
   -9000007    1    1    2    0  502  0.10060711655E+03 -0.39547974111E+03  0.45434042102E+03  0.73003509210E+03  0.40000000000E+03 0.  1.
<mgrwt>
<rscale>  2 0.57142455E+03</rscale>
<asrwt>0</asrwt>
<pdfrwt beam="1">  1       21 0.39650891E+00 0.57142455E+03</pdfrwt>
<pdfrwt beam="2">  1       21 0.27533698E-01 0.57142455E+03</pdfrwt>
<totfact> 0.80335496E+01</totfact>
</mgrwt>
</event>
<event>
 4    1  0.4656600E-002  0.4790073E+03  0.7818608E-02  0.1019408E+00
         21   -1    0    0  501  502  0.00000000000E+00  0.00000000000E+00  0.24046060556E+03  0.24046060556E+03  0.00000000000E+00 0.  1.
         21   -1    0    0  502  503 -0.00000000000E+00 -0.00000000000E+00 -0.10672646013E+04  0.10672646013E+04  0.00000000000E+00 0.  1.
    9000007    1    1    2  501    0  0.25328061009E+03  0.72780224888E+02 -0.20058337371E+03  0.51930888534E+03  0.40000000000E+03 0.  1.
   -9000007    1    1    2    0  503 -0.25328061009E+03 -0.72780224888E+02 -0.62622062206E+03  0.78841632154E+03  0.40000000000E+03 0.  1.
<mgrwt>
<rscale>  2 0.47900734E+03</rscale>
<asrwt>0</asrwt>
<pdfrwt beam="1">  1       21 0.36993939E-01 0.47900734E+03</pdfrwt>
<pdfrwt beam="2">  1       21 0.16419455E+00 0.47900734E+03</pdfrwt>
<totfact> 0.13852538E+03</totfact>
</mgrwt>
</event>
<event>
 4    1  0.4656600E-002  0.4238671E+03  0.7818608E-02  0.1035815E+00
         21   -1    0    0  503  502  0.00000000000E+00  0.00000000000E+00  0.39066533189E+03  0.39066533189E+03  0.00000000000E+00 0.  1.
         21   -1    0    0  501  503 -0.00000000000E+00 -0.00000000000E+00 -0.80149250303E+03  0.80149250303E+03  0.00000000000E+00 0.  1.
    9000007    1    1    2  501    0 -0.50930408470E+02  0.13064992706E+03 -0.59456102447E+03  0.73018225243E+03  0.40000000000E+03 0.  1.
   -9000007    1    1    2    0  502  0.50930408470E+02 -0.13064992706E+03  0.18373385333E+03  0.46197558248E+03  0.40000000000E+03 0.  1.
<mgrwt>
<rscale>  2 0.42386709E+03</rscale>
<asrwt>0</asrwt>
<pdfrwt beam="1">  1       21 0.60102359E-01 0.42386709E+03</pdfrwt>
<pdfrwt beam="2">  1       21 0.12330654E+00 0.42386709E+03</pdfrwt>
<totfact> 0.10948945E+03</totfact>
</mgrwt>
</event>
<event>
 4    1  0.4656600E-002  0.4614256E+03  0.7818608E-02  0.1024369E+00
         21   -1    0    0  501  502  0.00000000000E+00  0.00000000000E+00  0.30859954720E+03  0.30859954720E+03  0.00000000000E+00 0.  1.
         21   -1    0    0  502  503 -0.00000000000E+00 -0.00000000000E+00 -0.13542108085E+04  0.13542108085E+04  0.00000000000E+00 0. -1.
    9000007    1    1    2  501    0 -0.89436656142E+02  0.21193089367E+03 -0.11051016421E+04  0.11975655550E+04  0.40000000000E+03 0. -1.
   -9000007    1    1    2    0  503  0.89436656142E+02 -0.21193089367E+03  0.59490380814E+02  0.46524480069E+03  0.40000000000E+03 0.  1.
<mgrwt>
<rscale>  2 0.46142564E+03</rscale>
<asrwt>0</asrwt>
<pdfrwt beam="1">  1       21 0.47476853E-01 0.46142564E+03</pdfrwt>
<pdfrwt beam="2">  1       21 0.20834013E+00 0.46142564E+03</pdfrwt>
<totfact> 0.41033051E+02</totfact>
</mgrwt>
</event>
<event>
 4    1  0.4656600E-002  0.4488168E+03  0.7818608E-02  0.1028075E+00
         21   -1    0    0  501  502  0.00000000000E+00  0.00000000000E+00  0.10851363188E+04  0.10851363188E+04  0.00000000000E+00 0. -1.
         21   -1    0    0  502  503 -0.00000000000E+00 -0.00000000000E+00 -0.29849368045E+03  0.29849368045E+03  0.00000000000E+00 0. -1.
    9000007    1    1    2  501    0  0.14739750873E+03  0.14039390857E+03  0.81871874916E+03  0.93366849865E+03  0.40000000000E+03 0. -1.
   -9000007    1    1    2    0  503 -0.14739750873E+03 -0.14039390857E+03 -0.32076110799E+02  0.44996150061E+03  0.40000000000E+03 0. -1.
<mgrwt>
<rscale>  2 0.44881675E+03</rscale>
<asrwt>0</asrwt>
<pdfrwt beam="1">  1       21 0.16694405E+00 0.44881675E+03</pdfrwt>
<pdfrwt beam="2">  1       21 0.45922105E-01 0.44881675E+03</pdfrwt>
<totfact> 0.85569410E+02</totfact>
</mgrwt>
</event>
<event>
 4    1  0.4656600E-002  0.4466006E+03  0.7818608E-02  0.1028741E+00
         21   -1    0    0  501  502  0.00000000000E+00  0.00000000000E+00  0.20423414194E+03  0.20423414194E+03  0.00000000000E+00 0.  1.
         21   -1    0    0  502  503 -0.00000000000E+00 -0.00000000000E+00 -0.10592335032E+04  0.10592335032E+04  0.00000000000E+00 0.  1.
    9000007    1    1    2  501    0 -0.14731045839E+03 -0.13323575225E+03 -0.25103653983E+03  0.51231970600E+03  0.40000000000E+03 0.  1.
   -9000007    1    1    2    0  503  0.14731045839E+03  0.13323575225E+03 -0.60396282147E+03  0.75114793919E+03  0.40000000000E+03 0.  1.
<mgrwt>
<rscale>  2 0.44660065E+03</rscale>
<asrwt>0</asrwt>
<pdfrwt beam="1">  1       21 0.31420637E-01 0.44660065E+03</pdfrwt>
<pdfrwt beam="2">  1       21 0.16295900E+00 0.44660065E+03</pdfrwt>
<totfact> 0.19932609E+03</totfact>
</mgrwt>
</event>
<event>
 4    1  0.4656600E-002  0.4667289E+03  0.7818608E-02  0.1022848E+00
         21   -1    0    0  503  502  0.00000000000E+00  0.00000000000E+00  0.15402119369E+03  0.15402119369E+03  0.00000000000E+00 0.  1.
         21   -1    0    0  501  503 -0.00000000000E+00 -0.00000000000E+00 -0.16847474409E+04  0.16847474409E+04  0.00000000000E+00 0. -1.
    9000007    1    1    2  501    0 -0.84521083869E+02 -0.22514891218E+03 -0.11337057525E+04  0.12260198121E+04  0.40000000000E+03 0. -1.
   -9000007    1    1    2    0  502  0.84521083869E+02  0.22514891218E+03 -0.39702049462E+03  0.61274882246E+03  0.40000000000E+03 0.  1.
<mgrwt>
<rscale>  2 0.46672888E+03</rscale>
<asrwt>0</asrwt>
<pdfrwt beam="1">  1       21 0.23695570E-01 0.46672888E+03</pdfrwt>
<pdfrwt beam="2">  1       21 0.25919190E+00 0.46672888E+03</pdfrwt>
<totfact> 0.79669947E+02</totfact>
</mgrwt>
</event>
<event>
 4    1  0.4656600E-002  0.4892183E+03  0.7818608E-02  0.1016632E+00
         21   -1    0    0  501  502  0.00000000000E+00  0.00000000000E+00  0.10578101348E+04  0.10578101348E+04  0.00000000000E+00 0. -1.
         21   -1    0    0  502  503 -0.00000000000E+00 -0.00000000000E+00 -0.22990535248E+03  0.22990535248E+03  0.00000000000E+00 0.  1.
    9000007    1    1    2  501    0  0.79466718966E+02  0.27022132189E+03  0.49508589011E+03  0.69602051753E+03  0.40000000000E+03 0.  1.
   -9000007    1    1    2    0  503 -0.79466718966E+02 -0.27022132189E+03  0.33281889221E+03  0.59169496976E+03  0.40000000000E+03 0.  1.
<mgrwt>
<rscale>  2 0.48921828E+03</rscale>
<asrwt>0</asrwt>
<pdfrwt beam="1">  1       21 0.16274002E+00 0.48921828E+03</pdfrwt>
<pdfrwt beam="2">  1       21 0.35370055E-01 0.48921828E+03</pdfrwt>
<totfact> 0.15500508E+03</totfact>
</mgrwt>
</event>
<event>
 4    1  0.4656600E-002  0.5207570E+03  0.7818608E-02  0.1008499E+00
         21   -1    0    0  503  502  0.00000000000E+00  0.00000000000E+00  0.13565035955E+04  0.13565035955E+04  0.00000000000E+00 0.  1.
         21   -1    0    0  501  503 -0.00000000000E+00 -0.00000000000E+00 -0.21228805256E+03  0.21228805256E+03  0.00000000000E+00 0. -1.
    9000007    1    1    2  501    0 -0.26536269471E+03 -0.20191710693E+03  0.38275176895E+03  0.64628692888E+03  0.40000000000E+03 0. -1.
   -9000007    1    1    2    0  502  0.26536269471E+03  0.20191710693E+03  0.76146377398E+03  0.92250471918E+03  0.40000000000E+03 0.  1.
<mgrwt>
<rscale>  2 0.52075702E+03</rscale>
<asrwt>0</asrwt>
<pdfrwt beam="1">  1       21 0.20869286E+00 0.52075702E+03</pdfrwt>
<pdfrwt beam="2">  1       21 0.32659701E-01 0.52075702E+03</pdfrwt>
<totfact> 0.85914401E+02</totfact>
</mgrwt>
</event>
<event>
 4    1  0.4656600E-002  0.4031902E+03  0.7818608E-02  0.1042681E+00
         21   -1    0    0  503  502  0.00000000000E+00  0.00000000000E+00  0.48592296090E+03  0.48592296090E+03  0.00000000000E+00 0. -1.
         21   -1    0    0  501  503 -0.00000000000E+00 -0.00000000000E+00 -0.78121002491E+03  0.78121002491E+03  0.00000000000E+00 0. -1.
    9000007    1    1    2  501    0  0.45536974857E+02  0.22107448495E+02 -0.62671467595E+03  0.74520711242E+03  0.40000000000E+03 0. -1.
   -9000007    1    1    2    0  502 -0.45536974857E+02 -0.22107448495E+02  0.33142761193E+03  0.52192587339E+03  0.40000000000E+03 0. -1.
<mgrwt>
<rscale>  2 0.40319022E+03</rscale>
<asrwt>0</asrwt>
<pdfrwt beam="1">  1       21 0.74757379E-01 0.40319022E+03</pdfrwt>
<pdfrwt beam="2">  1       21 0.12018616E+00 0.40319022E+03</pdfrwt>
<totfact> 0.72533976E+02</totfact>
</mgrwt>
</event>
<event>
 4    1  0.4656600E-002  0.5868471E+03  0.7818608E-02  0.9933076E-01
         21   -1    0    0  503  502  0.00000000000E+00  0.00000000000E+00  0.80203540495E+03  0.80203540495E+03  0.00000000000E+00 0.  1.
         21   -1    0    0  501  503 -0.00000000000E+00 -0.00000000000E+00 -0.56492028402E+03  0.56492028402E+03  0.00000000000E+00 0.  1.
    9000007    1    1    2  501    0 -0.15859230637E+03 -0.39904642479E+03 -0.21620884311E+03  0.62540853258E+03  0.40000000000E+03 0.  1.
   -9000007    1    1    2    0  502  0.15859230637E+03  0.39904642479E+03  0.45332396404E+03  0.74154715639E+03  0.40000000000E+03 0.  1.
<mgrwt>
<rscale>  2 0.58684714E+03</rscale>
<asrwt>0</asrwt>
<pdfrwt beam="1">  1       21 0.12339006E+00 0.58684714E+03</pdfrwt>
<pdfrwt beam="2">  1       21 0.86910813E-01 0.58684714E+03</pdfrwt>
<totfact> 0.44358808E+02</totfact>
</mgrwt>
</event>
<event>
 4    1  0.4656600E-002  0.4583215E+03  0.7818608E-02  0.1025269E+00
         21   -1    0    0  501  502  0.00000000000E+00  0.00000000000E+00  0.96473495803E+03  0.96473495803E+03  0.00000000000E+00 0.  1.
         21   -1    0    0  502  503 -0.00000000000E+00 -0.00000000000E+00 -0.26635841200E+03  0.26635841200E+03  0.00000000000E+00 0. -1.
    9000007    1    1    2  501    0 -0.20992835473E+03  0.77386399457E+02  0.61217948228E+03  0.76473674390E+03  0.40000000000E+03 0.  1.
   -9000007    1    1    2    0  503  0.20992835473E+03 -0.77386399457E+02  0.86197063753E+02  0.46635662613E+03  0.40000000000E+03 0. -1.
<mgrwt>
<rscale>  2 0.45832147E+03</rscale>
<asrwt>0</asrwt>
<pdfrwt beam="1">  1       21 0.14842076E+00 0.45832147E+03</pdfrwt>
<pdfrwt beam="2">  1       21 0.40978218E-01 0.45832147E+03</pdfrwt>
<totfact> 0.14963710E+03</totfact>
</mgrwt>
</event>
<event>
 4    1  0.4656600E-002  0.4245082E+03  0.7818608E-02  0.1035609E+00
         21   -1    0    0  503  502  0.00000000000E+00  0.00000000000E+00  0.57662025141E+03  0.57662025141E+03  0.00000000000E+00 0. -1.
         21   -1    0    0  501  503 -0.00000000000E+00 -0.00000000000E+00 -0.31844021817E+03  0.31844021817E+03  0.00000000000E+00 0. -1.
    9000007    1    1    2  501    0 -0.13647174099E+03 -0.39783271371E+02  0.19009389107E+03  0.46512679152E+03  0.40000000000E+03 0. -1.
   -9000007    1    1    2    0  502  0.13647174099E+03  0.39783271371E+02  0.68086142169E+02  0.42993367805E+03  0.40000000000E+03 0. -1.
<mgrwt>
<rscale>  2 0.42450824E+03</rscale>
<asrwt>0</asrwt>
<pdfrwt beam="1">  1       21 0.88710808E-01 0.42450824E+03</pdfrwt>
<pdfrwt beam="2">  1       21 0.48990803E-01 0.42450824E+03</pdfrwt>
<totfact> 0.38097408E+03</totfact>
</mgrwt>
</event>
<event>
 4    1  0.4656600E-002  0.4400330E+03  0.7818608E-02  0.1030737E+00
         21   -1    0    0  503  502  0.00000000000E+00  0.00000000000E+00  0.29422184066E+03  0.29422184066E+03  0.00000000000E+00 0. -1.
         21   -1    0    0  501  503 -0.00000000000E+00 -0.00000000000E+00 -0.84309658990E+03  0.84309658990E+03  0.00000000000E+00 0.  1.
    9000007    1    1    2  501    0 -0.14847762245E+03 -0.10762637958E+03 -0.54080945302E+03  0.69721152201E+03  0.40000000000E+03 0.  1.
   -9000007    1    1    2    0  502  0.14847762245E+03  0.10762637958E+03 -0.80652962165E+01  0.44010690855E+03  0.40000000000E+03 0. -1.
<mgrwt>
<rscale>  2 0.44003300E+03</rscale>
<asrwt>0</asrwt>
<pdfrwt beam="1">  1       21 0.45264900E-01 0.44003300E+03</pdfrwt>
<pdfrwt beam="2">  1       21 0.12970716E+00 0.44003300E+03</pdfrwt>
<totfact> 0.17512425E+03</totfact>
</mgrwt>
</event>
<event>
 4    1  0.4656600E-002  0.4300570E+03  0.7818608E-02  0.1033842E+00
         21   -1    0    0  503  502  0.00000000000E+00  0.00000000000E+00  0.40986508512E+03  0.40986508512E+03  0.00000000000E+00 0.  1.
         21   -1    0    0  501  503 -0.00000000000E+00 -0.00000000000E+00 -0.73384878245E+03  0.73384878245E+03  0.00000000000E+00 0.  1.
    9000007    1    1    2  501    0 -0.12035191633E+03  0.10229590924E+03 -0.51686577177E+03  0.67238327079E+03  0.40000000000E+03 0.  1.
   -9000007    1    1    2    0  502  0.12035191633E+03 -0.10229590924E+03  0.19288207444E+03  0.47133059677E+03  0.40000000000E+03 0.  1.
<mgrwt>
<rscale>  2 0.43005702E+03</rscale>
<asrwt>0</asrwt>
<pdfrwt beam="1">  1       21 0.63056168E-01 0.43005702E+03</pdfrwt>
<pdfrwt beam="2">  1       21 0.11289981E+00 0.43005702E+03</pdfrwt>
<totfact> 0.12273649E+03</totfact>
</mgrwt>
</event>
<event>
 4    1  0.4656600E-002  0.5520153E+03  0.7818608E-02  0.1001029E+00
         21   -1    0    0  501  502  0.00000000000E+00  0.00000000000E+00  0.58320430454E+03  0.58320430454E+03  0.00000000000E+00 0.  1.
         21   -1    0    0  502  503 -0.00000000000E+00 -0.00000000000E+00 -0.53653128295E+03  0.53653128295E+03  0.00000000000E+00 0.  1.
    9000007    1    1    2  501    0  0.77855014362E+02  0.37237009960E+03 -0.67221246117E+02  0.55609314891E+03  0.40000000000E+03 0.  1.
   -9000007    1    1    2    0  503 -0.77855014362E+02 -0.37237009960E+03  0.11389426771E+03  0.56364243857E+03  0.40000000000E+03 0.  1.
<mgrwt>
<rscale>  2 0.55201530E+03</rscale>
<asrwt>0</asrwt>
<pdfrwt beam="1">  1       21 0.89723739E-01 0.55201530E+03</pdfrwt>
<pdfrwt beam="2">  1       21 0.82543274E-01 0.55201530E+03</pdfrwt>
<totfact> 0.11146097E+03</totfact>
</mgrwt>
</event>
<event>
 4    1  0.4656600E-002  0.5972398E+03  0.7818608E-02  0.9911149E-01
         21   -1    0    0  503  502  0.00000000000E+00  0.00000000000E+00  0.75319206645E+03  0.75319206645E+03  0.00000000000E+00 0.  1.
         21   -1    0    0  501  503 -0.00000000000E+00 -0.00000000000E+00 -0.13486873748E+04  0.13486873748E+04  0.00000000000E+00 0.  1.
    9000007    1    1    2  501    0  0.41839327577E+03 -0.14711353560E+03 -0.11442989619E+04  0.12907809418E+04  0.40000000000E+03 0.  1.
   -9000007    1    1    2    0  502 -0.41839327577E+03  0.14711353560E+03  0.54880365357E+03  0.81109849941E+03  0.40000000000E+03 0.  1.
<mgrwt>
<rscale>  2 0.59723976E+03</rscale>
<asrwt>0</asrwt>
<pdfrwt beam="1">  1       21 0.11587570E+00 0.59723976E+03</pdfrwt>
<pdfrwt beam="2">  1       21 0.20749036E+00 0.59723976E+03</pdfrwt>
<totfact> 0.50168154E+01</totfact>
</mgrwt>
</event>
<event>
 4    1  0.4656600E-002  0.4460518E+03  0.7818608E-02  0.1028906E+00
         21   -1    0    0  501  502  0.00000000000E+00  0.00000000000E+00  0.75901018077E+03  0.75901018077E+03  0.00000000000E+00 0. -1.
         21   -1    0    0  502  503 -0.00000000000E+00 -0.00000000000E+00 -0.60810185433E+03  0.60810185433E+03  0.00000000000E+00 0.  1.
    9000007    1    1    2  501    0 -0.19669168020E+03  0.16570711885E+02  0.59104354048E+03  0.74046922441E+03  0.40000000000E+03 0. -1.
   -9000007    1    1    2    0  503  0.19669168020E+03 -0.16570711885E+02 -0.44013521404E+03  0.62664281069E+03  0.40000000000E+03 0.  1.
<mgrwt>
<rscale>  2 0.44605180E+03</rscale>
<asrwt>0</asrwt>
<pdfrwt beam="1">  1       21 0.11677080E+00 0.44605180E+03</pdfrwt>
<pdfrwt beam="2">  1       21 0.93554132E-01 0.44605180E+03</pdfrwt>
<totfact> 0.45336296E+02</totfact>
</mgrwt>
</event>
<event>
 4    1  0.4656600E-002  0.4549947E+03  0.7818608E-02  0.1026243E+00
         21   -1    0    0  501  502  0.00000000000E+00  0.00000000000E+00  0.96580851076E+03  0.96580851076E+03  0.00000000000E+00 0. -1.
         21   -1    0    0  502  503 -0.00000000000E+00 -0.00000000000E+00 -0.37582357567E+03  0.37582357567E+03  0.00000000000E+00 0.  1.
    9000007    1    1    2  501    0 -0.34289432686E+02  0.21411302583E+03  0.73469950513E+03  0.86417794224E+03  0.40000000000E+03 0. -1.
   -9000007    1    1    2    0  503  0.34289432686E+02 -0.21411302583E+03 -0.14471457004E+03  0.47745414419E+03  0.40000000000E+03 0.  1.
<mgrwt>
<rscale>  2 0.45499467E+03</rscale>
<asrwt>0</asrwt>
<pdfrwt beam="1">  1       21 0.14858592E+00 0.45499467E+03</pdfrwt>
<pdfrwt beam="2">  1       21 0.57819012E-01 0.45499467E+03</pdfrwt>
<totfact> 0.71991772E+02</totfact>
</mgrwt>
</event>
<event>
 4    1  0.4656600E-002  0.4928956E+03  0.7818608E-02  0.1015650E+00
         21   -1    0    0  501  502  0.00000000000E+00  0.00000000000E+00  0.10602321629E+04  0.10602321629E+04  0.00000000000E+00 0.  1.
         21   -1    0    0  502  503 -0.00000000000E+00 -0.00000000000E+00 -0.22954841634E+03  0.22954841634E+03  0.00000000000E+00 0. -1.
    9000007    1    1    2  501    0  0.28796938205E+03 -0.44409425811E+01  0.38828128205E+03  0.62746190399E+03  0.40000000000E+03 0. -1.
   -9000007    1    1    2    0  503 -0.28796938205E+03  0.44409425811E+01  0.44240246452E+03  0.66231867525E+03  0.40000000000E+03 0.  1.
<mgrwt>
<rscale>  2 0.49289561E+03</rscale>
<asrwt>0</asrwt>
<pdfrwt beam="1">  1       21 0.16311264E+00 0.49289561E+03</pdfrwt>
<pdfrwt beam="2">  1       21 0.35315141E-01 0.49289561E+03</pdfrwt>
<totfact> 0.15427943E+03</totfact>
</mgrwt>
</event>
<event>
 4    1  0.4656600E-002  0.4940345E+03  0.7818608E-02  0.1015348E+00
         21   -1    0    0  503  502  0.00000000000E+00  0.00000000000E+00  0.24875570161E+03  0.24875570161E+03  0.00000000000E+00 0. -1.
         21   -1    0    0  501  503 -0.00000000000E+00 -0.00000000000E+00 -0.98308016682E+03  0.98308016682E+03  0.00000000000E+00 0. -1.
    9000007    1    1    2  501    0 -0.27010911524E+03  0.10540957508E+03 -0.39435523387E+03  0.63212828060E+03  0.40000000000E+03 0. -1.
   -9000007    1    1    2    0  502  0.27010911524E+03 -0.10540957508E+03 -0.33996923133E+03  0.59970758783E+03  0.40000000000E+03 0. -1.
<mgrwt>
<rscale>  2 0.49403453E+03</rscale>
<asrwt>0</asrwt>
<pdfrwt beam="1">  1       21 0.38270108E-01 0.49403453E+03</pdfrwt>
<pdfrwt beam="2">  1       21 0.15124310E+00 0.49403453E+03</pdfrwt>
<totfact> 0.16141107E+03</totfact>
</mgrwt>
</event>
<event>
 4    1  0.4656600E-002  0.4011627E+03  0.7818608E-02  0.1043378E+00
         21   -1    0    0  503  502  0.00000000000E+00  0.00000000000E+00  0.48814695701E+03  0.48814695701E+03  0.00000000000E+00 0.  1.
         21   -1    0    0  501  503 -0.00000000000E+00 -0.00000000000E+00 -0.10167960617E+04  0.10167960617E+04  0.00000000000E+00 0.  1.
    9000007    1    1    2  501    0 -0.29988811807E+02  0.56758311309E+01 -0.88289428518E+03  0.96975969327E+03  0.40000000000E+03 0.  1.
   -9000007    1    1    2    0  502  0.29988811807E+02 -0.56758311309E+01  0.35424518051E+03  0.53518332542E+03  0.40000000000E+03 0.  1.
<mgrwt>
<rscale>  2 0.40116274E+03</rscale>
<asrwt>0</asrwt>
<pdfrwt beam="1">  1       21 0.75099532E-01 0.40116274E+03</pdfrwt>
<pdfrwt beam="2">  1       21 0.15643016E+00 0.40116274E+03</pdfrwt>
<totfact> 0.35896892E+02</totfact>
</mgrwt>
</event>
<event>
 4    1  0.4656600E-002  0.5621305E+03  0.7818608E-02  0.9987246E-01
         21   -1    0    0  501  502  0.00000000000E+00  0.00000000000E+00  0.11959222897E+03  0.11959222897E+03  0.00000000000E+00 0. -1.
         21   -1    0    0  502  503 -0.00000000000E+00 -0.00000000000E+00 -0.32594510020E+04  0.32594510020E+04  0.00000000000E+00 0. -1.
    9000007    1    1    2  501    0 -0.31608890122E+03  0.23680896496E+03 -0.83472110844E+03  0.10063548123E+04  0.40000000000E+03 0. -1.
   -9000007    1    1    2    0  503  0.31608890122E+03 -0.23680896496E+03 -0.23051376646E+04  0.23726884187E+04  0.40000000000E+03 0. -1.
<mgrwt>
<rscale>  2 0.56213048E+03</rscale>
<asrwt>0</asrwt>
<pdfrwt beam="1">  1       21 0.18398804E-01 0.56213048E+03</pdfrwt>
<pdfrwt beam="2">  1       21 0.50145402E+00 0.56213048E+03</pdfrwt>
<totfact> 0.34102996E+01</totfact>
</mgrwt>
</event>
<event>
 4    1  0.4656600E-002  0.5297816E+03  0.7818608E-02  0.1006285E+00
         21   -1    0    0  503  502  0.00000000000E+00  0.00000000000E+00  0.10782355714E+04  0.10782355714E+04  0.00000000000E+00 0.  1.
         21   -1    0    0  501  503 -0.00000000000E+00 -0.00000000000E+00 -0.31353461177E+03  0.31353461177E+03  0.00000000000E+00 0. -1.
    9000007    1    1    2  501    0  0.12693509859E+03  0.32335120410E+03  0.66908333015E+03  0.85342897955E+03  0.40000000000E+03 0.  1.
   -9000007    1    1    2    0  502 -0.12693509859E+03 -0.32335120410E+03  0.95617629488E+02  0.53834120362E+03  0.40000000000E+03 0. -1.
<mgrwt>
<rscale>  2 0.52978158E+03</rscale>
<asrwt>0</asrwt>
<pdfrwt beam="1">  1       21 0.16588239E+00 0.52978158E+03</pdfrwt>
<pdfrwt beam="2">  1       21 0.48236095E-01 0.52978158E+03</pdfrwt>
<totfact> 0.75968530E+02</totfact>
</mgrwt>
</event>
<event>
 4    1  0.4656600E-002  0.4769594E+03  0.7818608E-02  0.1019974E+00
         21   -1    0    0  503  502  0.00000000000E+00  0.00000000000E+00  0.10962836968E+04  0.10962836968E+04  0.00000000000E+00 0.  1.
         21   -1    0    0  501  503 -0.00000000000E+00 -0.00000000000E+00 -0.34256967781E+03  0.34256967781E+03  0.00000000000E+00 0.  1.
    9000007    1    1    2  501    0  0.72068206471E+02  0.24959262781E+03 -0.74868109063E+02  0.48279968931E+03  0.40000000000E+03 0.  1.
   -9000007    1    1    2    0  502 -0.72068206471E+02 -0.24959262781E+03  0.82858212808E+03  0.95605368532E+03  0.40000000000E+03 0.  1.
<mgrwt>
<rscale>  2 0.47695944E+03</rscale>
<asrwt>0</asrwt>
<pdfrwt beam="1">  1       21 0.16865903E+00 0.47695944E+03</pdfrwt>
<pdfrwt beam="2">  1       21 0.52703028E-01 0.47695944E+03</pdfrwt>
<totfact> 0.61276241E+02</totfact>
</mgrwt>
</event>
<event>
 4    1  0.4656600E-002  0.6129770E+03  0.7818608E-02  0.9878843E-01
         21   -1    0    0  503  502  0.00000000000E+00  0.00000000000E+00  0.73570540382E+03  0.73570540382E+03  0.00000000000E+00 0. -1.
         21   -1    0    0  501  503 -0.00000000000E+00 -0.00000000000E+00 -0.90335412459E+03  0.90335412459E+03  0.00000000000E+00 0.  1.
    9000007    1    1    2  501    0 -0.39160445738E+03  0.24977340768E+03 -0.62411659703E+03  0.87479273712E+03  0.40000000000E+03 0.  1.
   -9000007    1    1    2    0  502  0.39160445738E+03 -0.24977340768E+03  0.45646787626E+03  0.76426679130E+03  0.40000000000E+03 0. -1.
<mgrwt>
<rscale>  2 0.61297700E+03</rscale>
<asrwt>0</asrwt>
<pdfrwt beam="1">  1       21 0.11318545E+00 0.61297700E+03</pdfrwt>
<pdfrwt beam="2">  1       21 0.13897756E+00 0.61297700E+03</pdfrwt>
<totfact> 0.16870337E+02</totfact>
</mgrwt>
</event>
<event>
 4    1  0.4656600E-002  0.4888256E+03  0.7818608E-02  0.1016737E+00
         21   -1    0    0  503  502  0.00000000000E+00  0.00000000000E+00  0.13369657590E+04  0.13369657590E+04  0.00000000000E+00 0. -1.
         21   -1    0    0  501  503 -0.00000000000E+00 -0.00000000000E+00 -0.18064390530E+03  0.18064390530E+03  0.00000000000E+00 0.  1.
    9000007    1    1    2  501    0 -0.40029051135E+02  0.27811527688E+03  0.65634914793E+03  0.81837927403E+03  0.40000000000E+03 0.  1.
   -9000007    1    1    2    0  502  0.40029051135E+02 -0.27811527688E+03  0.49997270579E+03  0.69923039029E+03  0.40000000000E+03 0.  1.
<mgrwt>
<rscale>  2 0.48882556E+03</rscale>
<asrwt>0</asrwt>
<pdfrwt beam="1">  1       21 0.20568703E+00 0.48882556E+03</pdfrwt>
<pdfrwt beam="2">  1       21 0.27791371E-01 0.48882556E+03</pdfrwt>
<totfact> 0.12565439E+03</totfact>
</mgrwt>
</event>
<event>
 4    1  0.4656600E-002  0.5489179E+03  0.7818608E-02  0.1001745E+00
         21   -1    0    0  501  502  0.00000000000E+00  0.00000000000E+00  0.12904629271E+04  0.12904629271E+04  0.00000000000E+00 0. -1.
         21   -1    0    0  502  503 -0.00000000000E+00 -0.00000000000E+00 -0.34336125132E+03  0.34336125132E+03  0.00000000000E+00 0. -1.
    9000007    1    1    2  501    0 -0.21981455284E+03 -0.30494657160E+03  0.93565587831E+03  0.10847869707E+04  0.40000000000E+03 0. -1.
   -9000007    1    1    2    0  503  0.21981455284E+03  0.30494657160E+03  0.11445797445E+02  0.54903720771E+03  0.40000000000E+03 0. -1.
<mgrwt>
<rscale>  2 0.54891789E+03</rscale>
<asrwt>0</asrwt>
<pdfrwt beam="1">  1       21 0.19853275E+00 0.54891789E+03</pdfrwt>
<pdfrwt beam="2">  1       21 0.52824809E-01 0.54891789E+03</pdfrwt>
<totfact> 0.36509703E+02</totfact>
</mgrwt>
</event>
<event>
 4    1  0.4656600E-002  0.4124923E+03  0.7818608E-02  0.1039538E+00
         21   -1    0    0  501  502  0.00000000000E+00  0.00000000000E+00  0.34485201950E+03  0.34485201950E+03  0.00000000000E+00 0.  1.
         21   -1    0    0  502  503 -0.00000000000E+00 -0.00000000000E+00 -0.87323559020E+03  0.87323559020E+03  0.00000000000E+00 0.  1.
    9000007    1    1    2  501    0 -0.39478394888E+02 -0.92689439249E+02  0.13748878686E+03  0.43480230257E+03  0.40000000000E+03 0.  1.
   -9000007    1    1    2    0  503  0.39478394888E+02  0.92689439249E+02 -0.66587235755E+03  0.78328530713E+03  0.40000000000E+03 0.  1.
<mgrwt>
<rscale>  2 0.41249227E+03</rscale>
<asrwt>0</asrwt>
<pdfrwt beam="1">  1       21 0.53054158E-01 0.41249227E+03</pdfrwt>
<pdfrwt beam="2">  1       21 0.13434393E+00 0.41249227E+03</pdfrwt>
<totfact> 0.11552997E+03</totfact>
</mgrwt>
</event>
<event>
 4    1  0.4656600E-002  0.4519815E+03  0.7818608E-02  0.1027133E+00
         21   -1    0    0  503  502  0.00000000000E+00  0.00000000000E+00  0.32532881919E+03  0.32532881919E+03  0.00000000000E+00 0.  1.
         21   -1    0    0  501  503 -0.00000000000E+00 -0.00000000000E+00 -0.66900075509E+03  0.66900075509E+03  0.00000000000E+00 0.  1.
    9000007    1    1    2  501    0 -0.20283574916E+03  0.56079572396E+02 -0.48668515883E+02  0.45459419708E+03  0.40000000000E+03 0.  1.
   -9000007    1    1    2    0  502  0.20283574916E+03 -0.56079572396E+02 -0.29500342002E+03  0.53973537720E+03  0.40000000000E+03 0.  1.
<mgrwt>
<rscale>  2 0.45198148E+03</rscale>
<asrwt>0</asrwt>
<pdfrwt beam="1">  1       21 0.50050588E-01 0.45198148E+03</pdfrwt>
<pdfrwt beam="2">  1       21 0.10292319E+00 0.45198148E+03</pdfrwt>
<totfact> 0.25227044E+03</totfact>
</mgrwt>
</event>
<event>
 4    1  0.4656600E-002  0.5463499E+03  0.7818608E-02  0.1002342E+00
         21   -1    0    0  503  502  0.00000000000E+00  0.00000000000E+00  0.10351394541E+04  0.10351394541E+04  0.00000000000E+00 0.  1.
         21   -1    0    0  501  503 -0.00000000000E+00 -0.00000000000E+00 -0.43179122511E+03  0.43179122511E+03  0.00000000000E+00 0.  1.
    9000007    1    1    2  501    0  0.37053509311E+03 -0.34668521196E+02 -0.12104970581E+03  0.55959913587E+03  0.40000000000E+03 0.  1.
   -9000007    1    1    2    0  502 -0.37053509311E+03  0.34668521196E+02  0.72439793479E+03  0.90733154333E+03  0.40000000000E+03 0.  1.
<mgrwt>
<rscale>  2 0.54634985E+03</rscale>
<asrwt>0</asrwt>
<pdfrwt beam="1">  1       21 0.15925222E+00 0.54634985E+03</pdfrwt>
<pdfrwt beam="2">  1       21 0.66429420E-01 0.54634985E+03</pdfrwt>
<totfact> 0.42162212E+02</totfact>
</mgrwt>
</event>
<event>
 4    1  0.4656600E-002  0.4877407E+03  0.7818608E-02  0.1017029E+00
         21   -1    0    0  503  502  0.00000000000E+00  0.00000000000E+00  0.11799231771E+04  0.11799231771E+04  0.00000000000E+00 0.  1.
         21   -1    0    0  501  503 -0.00000000000E+00 -0.00000000000E+00 -0.78730995790E+03  0.78730995790E+03  0.00000000000E+00 0.  1.
    9000007    1    1    2  501    0  0.13681471485E+03 -0.24325446579E+03 -0.65206955302E+03  0.81430074500E+03  0.40000000000E+03 0.  1.
   -9000007    1    1    2    0  502 -0.13681471485E+03  0.24325446579E+03  0.10446827722E+04  0.11529323900E+04  0.40000000000E+03 0.  1.
<mgrwt>
<rscale>  2 0.48774071E+03</rscale>
<asrwt>0</asrwt>
<pdfrwt beam="1">  1       21 0.18152664E+00 0.48774071E+03</pdfrwt>
<pdfrwt beam="2">  1       21 0.12112461E+00 0.48774071E+03</pdfrwt>
<totfact> 0.71123228E+01</totfact>
</mgrwt>
</event>
<event>
 4    1  0.4656600E-002  0.5159030E+03  0.7818608E-02  0.1009709E+00
         21   -1    0    0  503  502  0.00000000000E+00  0.00000000000E+00  0.10031488595E+03  0.10031488595E+03  0.00000000000E+00 0. -1.
         21   -1    0    0  501  503 -0.00000000000E+00 -0.00000000000E+00 -0.29041951835E+04  0.29041951835E+04  0.00000000000E+00 0.  1.
    9000007    1    1    2  501    0  0.13575217273E+03 -0.29618779598E+03 -0.18435715519E+04  0.19143959700E+04  0.40000000000E+03 0.  1.
   -9000007    1    1    2    0  502 -0.13575217273E+03  0.29618779598E+03 -0.96030874566E+03  0.10901140995E+04  0.40000000000E+03 0. -1.
<mgrwt>
<rscale>  2 0.51590296E+03</rscale>
<asrwt>0</asrwt>
<pdfrwt beam="1">  1       21 0.15433062E-01 0.51590296E+03</pdfrwt>
<pdfrwt beam="2">  1       21 0.44679920E+00 0.51590296E+03</pdfrwt>
<totfact> 0.11720113E+02</totfact>
</mgrwt>
</event>
<event>
 4    1  0.4656600E-002  0.4116879E+03  0.7818608E-02  0.1039806E+00
         21   -1    0    0  501  502  0.00000000000E+00  0.00000000000E+00  0.75234507439E+03  0.75234507439E+03  0.00000000000E+00 0.  1.
         21   -1    0    0  502  503 -0.00000000000E+00 -0.00000000000E+00 -0.23515698262E+03  0.23515698262E+03  0.00000000000E+00 0.  1.
    9000007    1    1    2  501    0 -0.95357502653E+02  0.19846924641E+02  0.35979404487E+03  0.54675287695E+03  0.40000000000E+03 0. -1.
   -9000007    1    1    2    0  503  0.95357502653E+02 -0.19846924641E+02  0.15739404690E+03  0.44074918007E+03  0.40000000000E+03 0. -1.
<mgrwt>
<rscale>  2 0.41168793E+03</rscale>
<asrwt>0</asrwt>
<pdfrwt beam="1">  1       21 0.11574540E+00 0.41168793E+03</pdfrwt>
<pdfrwt beam="2">  1       21 0.36177998E-01 0.41168793E+03</pdfrwt>
<totfact> 0.37579431E+03</totfact>
</mgrwt>
</event>
<event>
 4    1  0.4656600E-002  0.4841990E+03  0.7818608E-02  0.1017988E+00
         21   -1    0    0  503  502  0.00000000000E+00  0.00000000000E+00  0.20719248222E+03  0.20719248222E+03  0.00000000000E+00 0. -1.
         21   -1    0    0  501  503 -0.00000000000E+00 -0.00000000000E+00 -0.12031710323E+04  0.12031710323E+04  0.00000000000E+00 0. -1.
    9000007    1    1    2  501    0 -0.27276677439E+03  0.68543051145E+01 -0.32593832831E+03  0.58368183848E+03  0.40000000000E+03 0. -1.
   -9000007    1    1    2    0  502  0.27276677439E+03 -0.68543051145E+01 -0.67004022174E+03  0.82668167601E+03  0.40000000000E+03 0. -1.
<mgrwt>
<rscale>  2 0.48419902E+03</rscale>
<asrwt>0</asrwt>
<pdfrwt beam="1">  1       21 0.31875766E-01 0.48419902E+03</pdfrwt>
<pdfrwt beam="2">  1       21 0.18510324E+00 0.48419902E+03</pdfrwt>
<totfact> 0.13212722E+03</totfact>
</mgrwt>
</event>
<event>
 4    1  0.4656600E-002  0.7061100E+03  0.7818608E-02  0.9706840E-01
         21   -1    0    0  501  502  0.00000000000E+00  0.00000000000E+00  0.16899625617E+04  0.16899625617E+04  0.00000000000E+00 0.  1.
         21   -1    0    0  502  503 -0.00000000000E+00 -0.00000000000E+00 -0.31893283887E+03  0.31893283887E+03  0.00000000000E+00 0. -1.
    9000007    1    1    2  501    0 -0.56968921604E+03  0.11851396803E+03  0.96048989560E+03  0.11921124960E+04  0.40000000000E+03 0.  1.
   -9000007    1    1    2    0  503  0.56968921604E+03 -0.11851396803E+03  0.41053982720E+03  0.81678290458E+03  0.40000000000E+03 0. -1.
<mgrwt>
<rscale>  2 0.70611002E+03</rscale>
<asrwt>0</asrwt>
<pdfrwt beam="1">  1       21 0.25999424E+00 0.70611002E+03</pdfrwt>
<pdfrwt beam="2">  1       21 0.49066591E-01 0.70611002E+03</pdfrwt>
<totfact> 0.16239298E+02</totfact>
</mgrwt>
</event>
<event>
 4    1  0.4656600E-002  0.4906663E+03  0.7818608E-02  0.1016244E+00
         21   -1    0    0  503  502  0.00000000000E+00  0.00000000000E+00  0.67665001709E+03  0.67665001709E+03  0.00000000000E+00 0. -1.
         21   -1    0    0  501  503 -0.00000000000E+00 -0.00000000000E+00 -0.39029325925E+03  0.39029325925E+03  0.00000000000E+00 0. -1.
    9000007    1    1    2  501    0 -0.84468642760E+02 -0.27132727503E+03 -0.15409583704E+02  0.49090823690E+03  0.40000000000E+03 0. -1.
   -9000007    1    1    2    0  502  0.84468642760E+02  0.27132727503E+03  0.30176634154E+03  0.57603503945E+03  0.40000000000E+03 0. -1.
<mgrwt>
<rscale>  2 0.49066632E+03</rscale>
<asrwt>0</asrwt>
<pdfrwt beam="1">  1       21 0.10410000E+00 0.49066632E+03</pdfrwt>
<pdfrwt beam="2">  1       21 0.60045117E-01 0.49066632E+03</pdfrwt>
<totfact> 0.16323082E+03</totfact>
</mgrwt>
</event>
<event>
 4    1  0.4656600E-002  0.5566706E+03  0.7818608E-02  0.9999616E-01
         21   -1    0    0  501  502  0.00000000000E+00  0.00000000000E+00  0.74188594922E+03  0.74188594922E+03  0.00000000000E+00 0. -1.
         21   -1    0    0  502  503 -0.00000000000E+00 -0.00000000000E+00 -0.41922722661E+03  0.41922722661E+03  0.00000000000E+00 0. -1.
    9000007    1    1    2  501    0 -0.30061491170E+03 -0.24395249214E+03  0.19642585608E+03  0.59030946163E+03  0.40000000000E+03 0. -1.
   -9000007    1    1    2    0  503  0.30061491170E+03  0.24395249214E+03  0.12623286653E+03  0.57080371420E+03  0.40000000000E+03 0. -1.
<mgrwt>
<rscale>  2 0.55667059E+03</rscale>
<asrwt>0</asrwt>
<pdfrwt beam="1">  1       21 0.11413630E+00 0.55667059E+03</pdfrwt>
<pdfrwt beam="2">  1       21 0.64496496E-01 0.55667059E+03</pdfrwt>
<totfact> 0.10837510E+03</totfact>
</mgrwt>
</event>
<event>
 4    1  0.4656600E-002  0.4873887E+03  0.7818608E-02  0.1017124E+00
         21   -1    0    0  503  502  0.00000000000E+00  0.00000000000E+00  0.14277399901E+03  0.14277399901E+03  0.00000000000E+00 0.  1.
         21   -1    0    0  501  503 -0.00000000000E+00 -0.00000000000E+00 -0.26405003903E+04  0.26405003903E+04  0.00000000000E+00 0.  1.
    9000007    1    1    2  501    0  0.18152124855E+03  0.21118184094E+03 -0.20952386092E+04  0.21511793424E+04  0.40000000000E+03 0.  1.
   -9000007    1    1    2    0  502 -0.18152124855E+03 -0.21118184094E+03 -0.40248778207E+03  0.63209504691E+03  0.40000000000E+03 0.  1.
<mgrwt>
<rscale>  2 0.48738869E+03</rscale>
<asrwt>0</asrwt>
<pdfrwt beam="1">  1       21 0.21965232E-01 0.48738869E+03</pdfrwt>
<pdfrwt beam="2">  1       21 0.40623081E+00 0.48738869E+03</pdfrwt>
<totfact> 0.11344824E+02</totfact>
</mgrwt>
</event>
<event>
 4    1  0.4656600E-002  0.4101265E+03  0.7818608E-02  0.1040329E+00
         21   -1    0    0  503  502  0.00000000000E+00  0.00000000000E+00  0.20958455875E+03  0.20958455875E+03  0.00000000000E+00 0.  1.
         21   -1    0    0  501  503 -0.00000000000E+00 -0.00000000000E+00 -0.16905254775E+04  0.16905254775E+04  0.00000000000E+00 0.  1.
    9000007    1    1    2  501    0 -0.90118443953E+02  0.90764098321E+01 -0.14290220458E+04  0.14867103695E+04  0.40000000000E+03 0.  1.
   -9000007    1    1    2    0  502  0.90118443953E+02 -0.90764098321E+01 -0.51918872933E+02  0.41339966681E+03  0.40000000000E+03 0.  1.
<mgrwt>
<rscale>  2 0.41012646E+03</rscale>
<asrwt>0</asrwt>
<pdfrwt beam="1">  1       21 0.32243779E-01 0.41012646E+03</pdfrwt>
<pdfrwt beam="2">  1       21 0.26008084E+00 0.41012646E+03</pdfrwt>
<totfact> 0.44263281E+02</totfact>
</mgrwt>
</event>
<event>
 4    1  0.4656600E-002  0.5000926E+03  0.7818608E-02  0.1013755E+00
         21   -1    0    0  501  502  0.00000000000E+00  0.00000000000E+00  0.12208297371E+04  0.12208297371E+04  0.00000000000E+00 0.  1.
         21   -1    0    0  502  503 -0.00000000000E+00 -0.00000000000E+00 -0.20574978455E+03  0.20574978455E+03  0.00000000000E+00 0. -1.
    9000007    1    1    2  501    0 -0.69563809638E+02  0.29198196341E+03  0.46049080627E+03  0.67981201315E+03  0.40000000000E+03 0. -1.
   -9000007    1    1    2    0  503  0.69563809638E+02 -0.29198196341E+03  0.55458914623E+03  0.74676750845E+03  0.40000000000E+03 0.  1.
<mgrwt>
<rscale>  2 0.50009258E+03</rscale>
<asrwt>0</asrwt>
<pdfrwt beam="1">  1       21 0.18781996E+00 0.50009258E+03</pdfrwt>
<pdfrwt beam="2">  1       21 0.31653814E-01 0.50009258E+03</pdfrwt>
<totfact> 0.12749244E+03</totfact>
</mgrwt>
</event>
<event>
 4    1  0.4656600E-002  0.4477143E+03  0.7818608E-02  0.1028406E+00
         21   -1    0    0  501  502  0.00000000000E+00  0.00000000000E+00  0.28220901510E+03  0.28220901510E+03  0.00000000000E+00 0.  1.
         21   -1    0    0  502  503 -0.00000000000E+00 -0.00000000000E+00 -0.75348919663E+03  0.75348919663E+03  0.00000000000E+00 0.  1.
    9000007    1    1    2  501    0 -0.12503218138E+03 -0.15752795634E+03 -0.11163468207E+03  0.46142215557E+03  0.40000000000E+03 0.  1.
   -9000007    1    1    2    0  503  0.12503218138E+03  0.15752795634E+03 -0.35964549945E+03  0.57427605617E+03  0.40000000000E+03 0.  1.
<mgrwt>
<rscale>  2 0.44771431E+03</rscale>
<asrwt>0</asrwt>
<pdfrwt beam="1">  1       21 0.43416772E-01 0.44771431E+03</pdfrwt>
<pdfrwt beam="2">  1       21 0.11592141E+00 0.44771431E+03</pdfrwt>
<totfact> 0.25384400E+03</totfact>
</mgrwt>
</event>
<event>
 4    1  0.4656600E-002  0.4736710E+03  0.7818608E-02  0.1020889E+00
         21   -1    0    0  503  502  0.00000000000E+00  0.00000000000E+00  0.17781189497E+03  0.17781189497E+03  0.00000000000E+00 0.  1.
         21   -1    0    0  501  503 -0.00000000000E+00 -0.00000000000E+00 -0.14798507256E+04  0.14798507256E+04  0.00000000000E+00 0. -1.
    9000007    1    1    2  501    0 -0.18642369061E+03 -0.17207680463E+03 -0.96916757026E+03  0.10787260998E+04  0.40000000000E+03 0. -1.
   -9000007    1    1    2    0  502  0.18642369061E+03  0.17207680463E+03 -0.33287126039E+03  0.57893652079E+03  0.40000000000E+03 0.  1.
<mgrwt>
<rscale>  2 0.47367100E+03</rscale>
<asrwt>0</asrwt>
<pdfrwt beam="1">  1       21 0.27355676E-01 0.47367100E+03</pdfrwt>
<pdfrwt beam="2">  1       21 0.22766934E+00 0.47367100E+03</pdfrwt>
<totfact> 0.94117121E+02</totfact>
</mgrwt>
</event>
<event>
 4    1  0.4656600E-002  0.5958325E+03  0.7818608E-02  0.9914090E-01
         21   -1    0    0  503  502  0.00000000000E+00  0.00000000000E+00  0.11464684796E+04  0.11464684796E+04  0.00000000000E+00 0.  1.
         21   -1    0    0  501  503 -0.00000000000E+00 -0.00000000000E+00 -0.34635183032E+03  0.34635183032E+03  0.00000000000E+00 0.  1.
    9000007    1    1    2  501    0  0.36951828025E+03  0.24181113536E+03  0.15711858983E+03  0.61620015895E+03  0.40000000000E+03 0.  1.
   -9000007    1    1    2    0  502 -0.36951828025E+03 -0.24181113536E+03  0.64299805942E+03  0.87662015095E+03  0.40000000000E+03 0.  1.
<mgrwt>
<rscale>  2 0.59583251E+03</rscale>
<asrwt>0</asrwt>
<pdfrwt beam="1">  1       21 0.17637976E+00 0.59583251E+03</pdfrwt>
<pdfrwt beam="2">  1       21 0.53284898E-01 0.59583251E+03</pdfrwt>
<totfact> 0.50209082E+02</totfact>
</mgrwt>
</event>
<event>
 4    1  0.4656600E-002  0.4063962E+03  0.7818608E-02  0.1041587E+00
         21   -1    0    0  503  502  0.00000000000E+00  0.00000000000E+00  0.44490469490E+03  0.44490469490E+03  0.00000000000E+00 0. -1.
         21   -1    0    0  501  503 -0.00000000000E+00 -0.00000000000E+00 -0.70776187021E+03  0.70776187021E+03  0.00000000000E+00 0. -1.
    9000007    1    1    2  501    0 -0.53482513967E+02 -0.47931860040E+02 -0.52884811708E+03  0.66696189805E+03  0.40000000000E+03 0. -1.
   -9000007    1    1    2    0  502  0.53482513967E+02  0.47931860040E+02  0.26599094177E+03  0.48570466707E+03  0.40000000000E+03 0. -1.
<mgrwt>
<rscale>  2 0.40639616E+03</rscale>
<asrwt>0</asrwt>
<pdfrwt beam="1">  1       21 0.68446877E-01 0.40639616E+03</pdfrwt>
<pdfrwt beam="2">  1       21 0.10888644E+00 0.40639616E+03</pdfrwt>
<totfact> 0.11304851E+03</totfact>
</mgrwt>
</event>
<event>
 4    1  0.4656600E-002  0.5172161E+03  0.7818608E-02  0.1009380E+00
         21   -1    0    0  501  502  0.00000000000E+00  0.00000000000E+00  0.37902835454E+03  0.37902835454E+03  0.00000000000E+00 0. -1.
         21   -1    0    0  502  503 -0.00000000000E+00 -0.00000000000E+00 -0.99798648571E+03  0.99798648571E+03  0.00000000000E+00 0. -1.
    9000007    1    1    2  501    0 -0.32715821988E+03 -0.21908474577E+02  0.63073529809E+02  0.52104774470E+03  0.40000000000E+03 0. -1.
   -9000007    1    1    2    0  503  0.32715821988E+03  0.21908474577E+02 -0.68203166098E+03  0.85596709555E+03  0.40000000000E+03 0. -1.
<mgrwt>
<rscale>  2 0.51721609E+03</rscale>
<asrwt>0</asrwt>
<pdfrwt beam="1">  1       21 0.58312055E-01 0.51721609E+03</pdfrwt>
<pdfrwt beam="2">  1       21 0.15353638E+00 0.51721609E+03</pdfrwt>
<totfact> 0.62980646E+02</totfact>
</mgrwt>
</event>
<event>
 4    1  0.4656600E-002  0.4500846E+03  0.7818608E-02  0.1027697E+00
         21   -1    0    0  503  502  0.00000000000E+00  0.00000000000E+00  0.40924251305E+03  0.40924251305E+03  0.00000000000E+00 0.  1.
         21   -1    0    0  501  503 -0.00000000000E+00 -0.00000000000E+00 -0.59543671481E+03  0.59543671481E+03  0.00000000000E+00 0.  1.
    9000007    1    1    2  501    0  0.36568095808E+02  0.20307376101E+03  0.11321270982E+03  0.46410483267E+03  0.40000000000E+03 0.  1.
   -9000007    1    1    2    0  502 -0.36568095808E+02 -0.20307376101E+03 -0.29940691157E+03  0.54057439519E+03  0.40000000000E+03 0.  1.
<mgrwt>
<rscale>  2 0.45008463E+03</rscale>
<asrwt>0</asrwt>
<pdfrwt beam="1">  1       21 0.62960387E-01 0.45008463E+03</pdfrwt>
<pdfrwt beam="2">  1       21 0.91605648E-01 0.45008463E+03</pdfrwt>
<totfact> 0.20332558E+03</totfact>
</mgrwt>
</event>
<event>
 4    1  0.4656600E-002  0.5915674E+03  0.7818608E-02  0.9923057E-01
         21   -1    0    0  501  502  0.00000000000E+00  0.00000000000E+00  0.59822791926E+03  0.59822791926E+03  0.00000000000E+00 0.  1.
         21   -1    0    0  502  503 -0.00000000000E+00 -0.00000000000E+00 -0.62542430003E+03  0.62542430003E+03  0.00000000000E+00 0. -1.
    9000007    1    1    2  501    0  0.43535696622E+03  0.20404581311E+02 -0.16918160845E+03  0.61528404141E+03  0.40000000000E+03 0. -1.
   -9000007    1    1    2    0  503 -0.43535696622E+03 -0.20404581311E+02  0.14198522768E+03  0.60836817788E+03  0.40000000000E+03 0. -1.
<mgrwt>
<rscale>  2 0.59156744E+03</rscale>
<asrwt>0</asrwt>
<pdfrwt beam="1">  1       21 0.92035066E-01 0.59156744E+03</pdfrwt>
<pdfrwt beam="2">  1       21 0.96219122E-01 0.59156744E+03</pdfrwt>
<totfact> 0.71917824E+02</totfact>
</mgrwt>
</event>
<event>
 4    1  0.4656600E-002  0.4410712E+03  0.7818608E-02  0.1030419E+00
         21   -1    0    0  503  502  0.00000000000E+00  0.00000000000E+00  0.13029012738E+03  0.13029012738E+03  0.00000000000E+00 0.  1.
         21   -1    0    0  501  503 -0.00000000000E+00 -0.00000000000E+00 -0.16926400787E+04  0.16926400787E+04  0.00000000000E+00 0.  1.
    9000007    1    1    2  501    0  0.18096970272E+03 -0.42353020942E+02 -0.10940775451E+04  0.11796395579E+04  0.40000000000E+03 0.  1.
   -9000007    1    1    2    0  502 -0.18096970272E+03  0.42353020942E+02 -0.46827240618E+03  0.64329064821E+03  0.40000000000E+03 0.  1.
<mgrwt>
<rscale>  2 0.44107121E+03</rscale>
<asrwt>0</asrwt>
<pdfrwt beam="1">  1       21 0.20044637E-01 0.44107121E+03</pdfrwt>
<pdfrwt beam="2">  1       21 0.26040614E+00 0.44107121E+03</pdfrwt>
<totfact> 0.10940418E+03</totfact>
</mgrwt>
</event>
<event>
 4    1  0.4656600E-002  0.4911554E+03  0.7818608E-02  0.1016114E+00
         21   -1    0    0  501  502  0.00000000000E+00  0.00000000000E+00  0.28755878412E+03  0.28755878412E+03  0.00000000000E+00 0.  1.
         21   -1    0    0  502  503 -0.00000000000E+00 -0.00000000000E+00 -0.83959682470E+03  0.83959682470E+03  0.00000000000E+00 0.  1.
    9000007    1    1    2  501    0  0.27971584347E+03  0.54705680920E+02 -0.25980732628E+03  0.55563793193E+03  0.40000000000E+03 0.  1.
   -9000007    1    1    2    0  503 -0.27971584347E+03 -0.54705680920E+02 -0.29223071430E+03  0.57151767689E+03  0.40000000000E+03 0.  1.
<mgrwt>
<rscale>  2 0.49115544E+03</rscale>
<asrwt>0</asrwt>
<pdfrwt beam="1">  1       21 0.44239814E-01 0.49115544E+03</pdfrwt>
<pdfrwt beam="2">  1       21 0.12916874E+00 0.49115544E+03</pdfrwt>
<totfact> 0.18214500E+03</totfact>
</mgrwt>
</event>
<event>
 4    1  0.4656600E-002  0.6596298E+03  0.7818608E-02  0.9788875E-01
         21   -1    0    0  501  502  0.00000000000E+00  0.00000000000E+00  0.78701650079E+03  0.78701650079E+03  0.00000000000E+00 0. -1.
         21   -1    0    0  502  503 -0.00000000000E+00 -0.00000000000E+00 -0.70562043196E+03  0.70562043196E+03  0.00000000000E+00 0.  1.
    9000007    1    1    2  501    0  0.52383313808E+03  0.26651938212E+02  0.38794724858E+03  0.76525456551E+03  0.40000000000E+03 0. -1.
   -9000007    1    1    2    0  503 -0.52383313808E+03 -0.26651938212E+02 -0.30655117975E+03  0.72738236723E+03  0.40000000000E+03 0.  1.
<mgrwt>
<rscale>  2 0.65962981E+03</rscale>
<asrwt>0</asrwt>
<pdfrwt beam="1">  1       21 0.12107946E+00 0.65962981E+03</pdfrwt>
<pdfrwt beam="2">  1       21 0.10855699E+00 0.65962981E+03</pdfrwt>
<totfact> 0.26466254E+02</totfact>
</mgrwt>
</event>
<event>
 4    1  0.4656600E-002  0.6925572E+03  0.7818608E-02  0.9730046E-01
         21   -1    0    0  503  502  0.00000000000E+00  0.00000000000E+00  0.58068454320E+03  0.58068454320E+03  0.00000000000E+00 0.  1.
         21   -1    0    0  501  503 -0.00000000000E+00 -0.00000000000E+00 -0.82862919968E+03  0.82862919968E+03  0.00000000000E+00 0. -1.
    9000007    1    1    2  501    0 -0.54893540058E+03  0.13529747316E+03 -0.16379407424E+03  0.71166282677E+03  0.40000000000E+03 0. -1.
   -9000007    1    1    2    0  502  0.54893540058E+03 -0.13529747316E+03 -0.84150582247E+02  0.69765091611E+03  0.40000000000E+03 0.  1.
<mgrwt>
<rscale>  2 0.69255720E+03</rscale>
<asrwt>0</asrwt>
<pdfrwt beam="1">  1       21 0.89336085E-01 0.69255720E+03</pdfrwt>
<pdfrwt beam="2">  1       21 0.12748141E+00 0.69255720E+03</pdfrwt>
<totfact> 0.36909810E+02</totfact>
</mgrwt>
</event>
<event>
 4    1  0.4656600E-002  0.4047972E+03  0.7818608E-02  0.1042131E+00
         21   -1    0    0  503  502  0.00000000000E+00  0.00000000000E+00  0.54811578837E+03  0.54811578837E+03  0.00000000000E+00 0.  1.
         21   -1    0    0  501  503 -0.00000000000E+00 -0.00000000000E+00 -0.55135235801E+03  0.55135235801E+03  0.00000000000E+00 0.  1.
    9000007    1    1    2  501    0 -0.44498652693E+02 -0.43366393985E+02 -0.37356634170E+03  0.55082899876E+03  0.40000000000E+03 0.  1.
   -9000007    1    1    2    0  502  0.44498652693E+02  0.43366393985E+02  0.37032977207E+03  0.54863914762E+03  0.40000000000E+03 0.  1.
<mgrwt>
<rscale>  2 0.40479720E+03</rscale>
<asrwt>0</asrwt>
<pdfrwt beam="1">  1       21 0.84325506E-01 0.40479720E+03</pdfrwt>
<pdfrwt beam="2">  1       21 0.84823439E-01 0.40479720E+03</pdfrwt>
<totfact> 0.12799455E+03</totfact>
</mgrwt>
</event>
<event>
 4    1  0.4656600E-002  0.5697451E+03  0.7818608E-02  0.9970243E-01
         21   -1    0    0  503  502  0.00000000000E+00  0.00000000000E+00  0.21257587749E+03  0.21257587749E+03  0.00000000000E+00 0.  1.
         21   -1    0    0  501  503 -0.00000000000E+00 -0.00000000000E+00 -0.19296286776E+04  0.19296286776E+04  0.00000000000E+00 0.  1.
    9000007    1    1    2  501    0 -0.14854309958E+03  0.37755055381E+03 -0.13477765023E+04  0.14632535574E+04  0.40000000000E+03 0.  1.
   -9000007    1    1    2    0  502  0.14854309958E+03 -0.37755055381E+03 -0.36927629777E+03  0.67895099765E+03  0.40000000000E+03 0.  1.
<mgrwt>
<rscale>  2 0.56974509E+03</rscale>
<asrwt>0</asrwt>
<pdfrwt beam="1">  1       21 0.32703981E-01 0.56974509E+03</pdfrwt>
<pdfrwt beam="2">  1       21 0.29686595E+00 0.56974509E+03</pdfrwt>
<totfact> 0.23682890E+02</totfact>
</mgrwt>
</event>
<event>
 4    1  0.4656600E-002  0.6662558E+03  0.7818608E-02  0.9776746E-01
         21   -1    0    0  501  502  0.00000000000E+00  0.00000000000E+00  0.35554194217E+03  0.35554194217E+03  0.00000000000E+00 0.  1.
         21   -1    0    0  502  503 -0.00000000000E+00 -0.00000000000E+00 -0.12568792464E+04  0.12568792464E+04  0.00000000000E+00 0. -1.
    9000007    1    1    2  501    0  0.38875583187E+03  0.36437030717E+03 -0.38487149738E+03  0.76943023534E+03  0.40000000000E+03 0.  1.
   -9000007    1    1    2    0  503 -0.38875583187E+03 -0.36437030717E+03 -0.51646580680E+03  0.84299095319E+03  0.40000000000E+03 0.  1.
<mgrwt>
<rscale>  2 0.66625582E+03</rscale>
<asrwt>0</asrwt>
<pdfrwt beam="1">  1       21 0.54698759E-01 0.66625582E+03</pdfrwt>
<pdfrwt beam="2">  1       21 0.19336604E+00 0.66625582E+03</pdfrwt>
<totfact> 0.35179905E+02</totfact>
</mgrwt>
</event>
<event>
 4    1  0.4656600E-002  0.5133397E+03  0.7818608E-02  0.1010355E+00
         21   -1    0    0  503  502  0.00000000000E+00  0.00000000000E+00  0.63301258033E+03  0.63301258033E+03  0.00000000000E+00 0.  1.
         21   -1    0    0  501  503 -0.00000000000E+00 -0.00000000000E+00 -0.51171250689E+03  0.51171250689E+03  0.00000000000E+00 0. -1.
    9000007    1    1    2  501    0  0.27054464754E+03 -0.17413582252E+03 -0.18651123572E+03  0.54617225493E+03  0.40000000000E+03 0. -1.
   -9000007    1    1    2    0  502 -0.27054464754E+03  0.17413582252E+03  0.30781130916E+03  0.59855283229E+03  0.40000000000E+03 0.  1.
<mgrwt>
<rscale>  2 0.51333974E+03</rscale>
<asrwt>0</asrwt>
<pdfrwt beam="1">  1       21 0.97386551E-01 0.51333974E+03</pdfrwt>
<pdfrwt beam="2">  1       21 0.78725001E-01 0.51333974E+03</pdfrwt>
<totfact> 0.10356881E+03</totfact>
</mgrwt>
</event>
<event>
 4    1  0.4656600E-002  0.4559920E+03  0.7818608E-02  0.1025950E+00
         21   -1    0    0  503  502  0.00000000000E+00  0.00000000000E+00  0.12181622746E+04  0.12181622746E+04  0.00000000000E+00 0.  1.
         21   -1    0    0  501  503 -0.00000000000E+00 -0.00000000000E+00 -0.17973543631E+03  0.17973543631E+03  0.00000000000E+00 0.  1.
    9000007    1    1    2  501    0 -0.20942511581E+03 -0.63794863951E+02  0.67600854564E+03  0.81542394960E+03  0.40000000000E+03 0.  1.
   -9000007    1    1    2    0  502  0.20942511581E+03  0.63794863951E+02  0.36241829270E+03  0.58247376137E+03  0.40000000000E+03 0.  1.
<mgrwt>
<rscale>  2 0.45599196E+03</rscale>
<asrwt>0</asrwt>
<pdfrwt beam="1">  1       21 0.18740958E+00 0.45599196E+03</pdfrwt>
<pdfrwt beam="2">  1       21 0.27651606E-01 0.45599196E+03</pdfrwt>
<totfact> 0.17090476E+03</totfact>
</mgrwt>
</event>
<event>
 4    1  0.4656600E-002  0.4111947E+03  0.7818608E-02  0.1039971E+00
         21   -1    0    0  501  502  0.00000000000E+00  0.00000000000E+00  0.56121468913E+03  0.56121468913E+03  0.00000000000E+00 0.  1.
         21   -1    0    0  502  503 -0.00000000000E+00 -0.00000000000E+00 -0.35239639805E+03  0.35239639805E+03  0.00000000000E+00 0.  1.
    9000007    1    1    2  501    0  0.95194197312E+02  0.43727027480E+01  0.27839288810E+03  0.49657190403E+03  0.40000000000E+03 0.  1.
   -9000007    1    1    2    0  503 -0.95194197312E+02 -0.43727027480E+01 -0.69574597012E+02  0.41703918315E+03  0.40000000000E+03 0.  1.
<mgrwt>
<rscale>  2 0.41119467E+03</rscale>
<asrwt>0</asrwt>
<pdfrwt beam="1">  1       21 0.86340721E-01 0.41119467E+03</pdfrwt>
<pdfrwt beam="2">  1       21 0.54214831E-01 0.41119467E+03</pdfrwt>
<totfact> 0.32869981E+03</totfact>
</mgrwt>
</event>
<event>
 4    1  0.4656600E-002  0.4731688E+03  0.7818608E-02  0.1021030E+00
         21   -1    0    0  503  502  0.00000000000E+00  0.00000000000E+00  0.15557550068E+04  0.15557550068E+04  0.00000000000E+00 0.  1.
         21   -1    0    0  501  503 -0.00000000000E+00 -0.00000000000E+00 -0.46584326525E+03  0.46584326525E+03  0.00000000000E+00 0. -1.
    9000007    1    1    2  501    0 -0.22020373751E+03 -0.12409295243E+03 -0.29533154523E+03  0.55777187851E+03  0.40000000000E+03 0. -1.
   -9000007    1    1    2    0  502  0.22020373751E+03  0.12409295243E+03  0.13852432868E+04  0.14638263936E+04  0.40000000000E+03 0.  1.
<mgrwt>
<rscale>  2 0.47316884E+03</rscale>
<asrwt>0</asrwt>
<pdfrwt beam="1">  1       21 0.23934692E+00 0.47316884E+03</pdfrwt>
<pdfrwt beam="2">  1       21 0.71668195E-01 0.47316884E+03</pdfrwt>
<totfact> 0.10522773E+02</totfact>
</mgrwt>
</event>
<event>
 4    1  0.4656600E-002  0.4686906E+03  0.7818608E-02  0.1022290E+00
         21   -1    0    0  501  502  0.00000000000E+00  0.00000000000E+00  0.41432498743E+03  0.41432498743E+03  0.00000000000E+00 0. -1.
         21   -1    0    0  502  503 -0.00000000000E+00 -0.00000000000E+00 -0.54951840576E+03  0.54951840576E+03  0.00000000000E+00 0. -1.
    9000007    1    1    2  501    0  0.24405901015E+03  0.10298734290E+02 -0.15797957455E+03  0.49459924215E+03  0.40000000000E+03 0. -1.
   -9000007    1    1    2    0  503 -0.24405901015E+03 -0.10298734290E+02  0.22786156219E+02  0.46924415103E+03  0.40000000000E+03 0. -1.
<mgrwt>
<rscale>  2 0.46869058E+03</rscale>
<asrwt>0</asrwt>
<pdfrwt beam="1">  1       21 0.63742306E-01 0.46869058E+03</pdfrwt>
<pdfrwt beam="2">  1       21 0.84541293E-01 0.46869058E+03</pdfrwt>
<totfact> 0.23745861E+03</totfact>
</mgrwt>
</event>
<event>
 4    1  0.4656600E-002  0.5814155E+03  0.7818608E-02  0.9944731E-01
         21   -1    0    0  503  502  0.00000000000E+00  0.00000000000E+00  0.31607143063E+03  0.31607143063E+03  0.00000000000E+00 0.  1.
         21   -1    0    0  501  503 -0.00000000000E+00 -0.00000000000E+00 -0.10709282842E+04  0.10709282842E+04  0.00000000000E+00 0.  1.
    9000007    1    1    2  501    0  0.93988572844E+02 -0.41135164160E+03 -0.40259641357E+03  0.70719721231E+03  0.40000000000E+03 0.  1.
   -9000007    1    1    2    0  502 -0.93988572844E+02  0.41135164160E+03 -0.35226044004E+03  0.67980250257E+03  0.40000000000E+03 0.  1.
<mgrwt>
<rscale>  2 0.58141554E+03</rscale>
<asrwt>0</asrwt>
<pdfrwt beam="1">  1       21 0.48626374E-01 0.58141554E+03</pdfrwt>
<pdfrwt beam="2">  1       21 0.16475820E+00 0.58141554E+03</pdfrwt>
<totfact> 0.74730981E+02</totfact>
</mgrwt>
</event>
<event>
 4    1  0.4656600E-002  0.6803323E+03  0.7818608E-02  0.9751470E-01
         21   -1    0    0  503  502  0.00000000000E+00  0.00000000000E+00  0.19758467743E+04  0.19758467743E+04  0.00000000000E+00 0. -1.
         21   -1    0    0  501  503 -0.00000000000E+00 -0.00000000000E+00 -0.26007614209E+03  0.26007614209E+03  0.00000000000E+00 0. -1.
    9000007    1    1    2  501    0  0.51697511934E+03  0.18865001601E+03  0.12101456987E+04  0.13882740056E+04  0.40000000000E+03 0. -1.
   -9000007    1    1    2    0  502 -0.51697511934E+03 -0.18865001601E+03  0.50562493350E+03  0.84764891077E+03  0.40000000000E+03 0. -1.
<mgrwt>
<rscale>  2 0.68033235E+03</rscale>
<asrwt>0</asrwt>
<pdfrwt beam="1">  1       21 0.30397642E+00 0.68033235E+03</pdfrwt>
<pdfrwt beam="2">  1       21 0.40011715E-01 0.68033235E+03</pdfrwt>
<totfact> 0.13529113E+02</totfact>
</mgrwt>
</event>
<event>
 4    1  0.4656600E-002  0.5645979E+03  0.7818608E-02  0.9981704E-01
         21   -1    0    0  503  502  0.00000000000E+00  0.00000000000E+00  0.31889414791E+03  0.31889414791E+03  0.00000000000E+00 0.  1.
         21   -1    0    0  501  503 -0.00000000000E+00 -0.00000000000E+00 -0.10282702249E+04  0.10282702249E+04  0.00000000000E+00 0.  1.
    9000007    1    1    2  501    0 -0.37285881213E+03 -0.14052436438E+03 -0.46713629463E+03  0.73279404237E+03  0.40000000000E+03 0.  1.
   -9000007    1    1    2    0  502  0.37285881213E+03  0.14052436438E+03 -0.24223978234E+03  0.61437033043E+03  0.40000000000E+03 0.  1.
<mgrwt>
<rscale>  2 0.56459790E+03</rscale>
<asrwt>0</asrwt>
<pdfrwt beam="1">  1       21 0.49060638E-01 0.56459790E+03</pdfrwt>
<pdfrwt beam="2">  1       21 0.15819542E+00 0.56459790E+03</pdfrwt>
<totfact> 0.82713193E+02</totfact>
</mgrwt>
</event>
<event>
 4    1  0.4656600E-002  0.4452265E+03  0.7818608E-02  0.1029155E+00
         21   -1    0    0  501  502  0.00000000000E+00  0.00000000000E+00  0.13692304637E+04  0.13692304637E+04  0.00000000000E+00 0. -1.
         21   -1    0    0  502  503 -0.00000000000E+00 -0.00000000000E+00 -0.16293687002E+03  0.16293687002E+03  0.00000000000E+00 0.  1.
    9000007    1    1    2  501    0 -0.16525473539E+03 -0.10448700317E+03  0.34735952916E+03  0.56469930396E+03  0.40000000000E+03 0.  1.
   -9000007    1    1    2    0  503  0.16525473539E+03  0.10448700317E+03  0.85893406454E+03  0.96746802977E+03  0.40000000000E+03 0. -1.
<mgrwt>
<rscale>  2 0.44522653E+03</rscale>
<asrwt>0</asrwt>
<pdfrwt beam="1">  1       21 0.21065083E+00 0.44522653E+03</pdfrwt>
<pdfrwt beam="2">  1       21 0.25067212E-01 0.44522653E+03</pdfrwt>
<totfact> 0.14544808E+03</totfact>
</mgrwt>
</event>
<event>
 4    1  0.4656600E-002  0.4014115E+03  0.7818608E-02  0.1043292E+00
         21   -1    0    0  501  502  0.00000000000E+00  0.00000000000E+00  0.97221813270E+03  0.97221813270E+03  0.00000000000E+00 0. -1.
         21   -1    0    0  502  503 -0.00000000000E+00 -0.00000000000E+00 -0.33984627909E+03  0.33984627909E+03  0.00000000000E+00 0. -1.
    9000007    1    1    2  501    0  0.32345145010E+02 -0.92187120442E+01  0.78575183374E+03  0.88234751503E+03  0.40000000000E+03 0. -1.
   -9000007    1    1    2    0  503 -0.32345145010E+02  0.92187120442E+01 -0.15337998013E+03  0.42971689676E+03  0.40000000000E+03 0. -1.
<mgrwt>
<rscale>  2 0.40141150E+03</rscale>
<asrwt>0</asrwt>
<pdfrwt beam="1">  1       21 0.14957202E+00 0.40141150E+03</pdfrwt>
<pdfrwt beam="2">  1       21 0.52284043E-01 0.40141150E+03</pdfrwt>
<totfact> 0.90060466E+02</totfact>
</mgrwt>
</event>
<event>
 4    1  0.4656600E-002  0.4401640E+03  0.7818608E-02  0.1030696E+00
         21   -1    0    0  503  502  0.00000000000E+00  0.00000000000E+00  0.13040715982E+04  0.13040715982E+04  0.00000000000E+00 0. -1.
         21   -1    0    0  501  503 -0.00000000000E+00 -0.00000000000E+00 -0.16289564989E+03  0.16289564989E+03  0.00000000000E+00 0.  1.
    9000007    1    1    2  501    0  0.24662620995E+02 -0.18203331909E+03  0.35306217032E+03  0.56426702034E+03  0.40000000000E+03 0.  1.
   -9000007    1    1    2    0  502 -0.24662620995E+02  0.18203331909E+03  0.78811377799E+03  0.90270022776E+03  0.40000000000E+03 0. -1.
<mgrwt>
<rscale>  2 0.44016403E+03</rscale>
<asrwt>0</asrwt>
<pdfrwt beam="1">  1       21 0.20062639E+00 0.44016403E+03</pdfrwt>
<pdfrwt beam="2">  1       21 0.25060870E-01 0.44016403E+03</pdfrwt>
<totfact> 0.16975464E+03</totfact>
</mgrwt>
</event>
<event>
 4    1  0.4656600E-002  0.4420439E+03  0.7818608E-02  0.1030122E+00
         21   -1    0    0  503  502  0.00000000000E+00  0.00000000000E+00  0.43433444592E+03  0.43433444592E+03  0.00000000000E+00 0.  1.
         21   -1    0    0  501  503 -0.00000000000E+00 -0.00000000000E+00 -0.49751443428E+03  0.49751443428E+03  0.00000000000E+00 0. -1.
    9000007    1    1    2  501    0  0.13301963957E+03  0.13307344499E+03 -0.17574413405E+03  0.47569818890E+03  0.40000000000E+03 0. -1.
   -9000007    1    1    2    0  502 -0.13301963957E+03 -0.13307344499E+03  0.11256414569E+03  0.45615069129E+03  0.40000000000E+03 0. -1.
<mgrwt>
<rscale>  2 0.44204385E+03</rscale>
<asrwt>0</asrwt>
<pdfrwt beam="1">  1       21 0.66820684E-01 0.44204385E+03</pdfrwt>
<pdfrwt beam="2">  1       21 0.76540682E-01 0.44204385E+03</pdfrwt>
<totfact> 0.27169106E+03</totfact>
</mgrwt>
</event>
<event>
 4    1  0.4656600E-002  0.4629525E+03  0.7818608E-02  0.1023928E+00
         21   -1    0    0  503  502  0.00000000000E+00  0.00000000000E+00  0.45428975648E+03  0.45428975648E+03  0.00000000000E+00 0.  1.
         21   -1    0    0  501  503 -0.00000000000E+00 -0.00000000000E+00 -0.50024347340E+03  0.50024347340E+03  0.00000000000E+00 0.  1.
    9000007    1    1    2  501    0  0.21283156482E+03 -0.95014253473E+02 -0.13682123095E+03  0.48274737968E+03  0.40000000000E+03 0.  1.
   -9000007    1    1    2    0  502 -0.21283156482E+03  0.95014253473E+02  0.90867514034E+02  0.47178585020E+03  0.40000000000E+03 0.  1.
<mgrwt>
<rscale>  2 0.46295246E+03</rscale>
<asrwt>0</asrwt>
<pdfrwt beam="1">  1       21 0.69890732E-01 0.46295246E+03</pdfrwt>
<pdfrwt beam="2">  1       21 0.76960534E-01 0.46295246E+03</pdfrwt>
<totfact> 0.24077595E+03</totfact>
</mgrwt>
</event>
<event>
 4    1  0.4656600E-002  0.4823630E+03  0.7818608E-02  0.1018488E+00
         21   -1    0    0  501  502  0.00000000000E+00  0.00000000000E+00  0.12300128702E+04  0.12300128702E+04  0.00000000000E+00 0.  1.
         21   -1    0    0  502  503 -0.00000000000E+00 -0.00000000000E+00 -0.21833002241E+03  0.21833002241E+03  0.00000000000E+00 0.  1.
    9000007    1    1    2  501    0 -0.17822264635E+03  0.20226416178E+03  0.77052292141E+03  0.90905427518E+03  0.40000000000E+03 0.  1.
   -9000007    1    1    2    0  503  0.17822264635E+03 -0.20226416178E+03  0.24115992642E+03  0.53928861746E+03  0.40000000000E+03 0.  1.
<mgrwt>
<rscale>  2 0.48236304E+03</rscale>
<asrwt>0</asrwt>
<pdfrwt beam="1">  1       21 0.18923275E+00 0.48236304E+03</pdfrwt>
<pdfrwt beam="2">  1       21 0.33589235E-01 0.48236304E+03</pdfrwt>
<totfact> 0.11144586E+03</totfact>
</mgrwt>
</event>
<event>
 4    1  0.4656600E-002  0.6417285E+03  0.7818608E-02  0.9822425E-01
         21   -1    0    0  503  502  0.00000000000E+00  0.00000000000E+00  0.12046752204E+04  0.12046752204E+04  0.00000000000E+00 0. -1.
         21   -1    0    0  501  503 -0.00000000000E+00 -0.00000000000E+00 -0.12092181878E+04  0.12092181878E+04  0.00000000000E+00 0. -1.
    9000007    1    1    2  501    0 -0.47482479124E+03  0.16234818085E+03 -0.10244766362E+04  0.12088705027E+04  0.40000000000E+03 0. -1.
   -9000007    1    1    2    0  502  0.47482479124E+03 -0.16234818085E+03  0.10199336688E+04  0.12050229055E+04  0.40000000000E+03 0. -1.
<mgrwt>
<rscale>  2 0.64172854E+03</rscale>
<asrwt>0</asrwt>
<pdfrwt beam="1">  1       21 0.18533465E+00 0.64172854E+03</pdfrwt>
<pdfrwt beam="2">  1       21 0.18603357E+00 0.64172854E+03</pdfrwt>
<totfact> 0.19020715E+01</totfact>
</mgrwt>
</event>
<event>
 4    1  0.4656600E-002  0.4182449E+03  0.7818608E-02  0.1037639E+00
         21   -1    0    0  501  502  0.00000000000E+00  0.00000000000E+00  0.24566258128E+03  0.24566258128E+03  0.00000000000E+00 0.  1.
         21   -1    0    0  502  503 -0.00000000000E+00 -0.00000000000E+00 -0.71418842390E+03  0.71418842390E+03  0.00000000000E+00 0.  1.
    9000007    1    1    2  501    0  0.92596733505E+02  0.79716229428E+02 -0.20812176808E+03  0.46716539110E+03  0.40000000000E+03 0.  1.
   -9000007    1    1    2    0  503 -0.92596733505E+02 -0.79716229428E+02 -0.26040407453E+03  0.49268561408E+03  0.40000000000E+03 0.  1.
<mgrwt>
<rscale>  2 0.41824494E+03</rscale>
<asrwt>0</asrwt>
<pdfrwt beam="1">  1       21 0.37794244E-01 0.41824494E+03</pdfrwt>
<pdfrwt beam="2">  1       21 0.10987514E+00 0.41824494E+03</pdfrwt>
<totfact> 0.39036526E+03</totfact>
</mgrwt>
</event>
<event>
 4    1  0.4656600E-002  0.4055551E+03  0.7818608E-02  0.1041873E+00
         21   -1    0    0  503  502  0.00000000000E+00  0.00000000000E+00  0.19750395163E+03  0.19750395163E+03  0.00000000000E+00 0. -1.
         21   -1    0    0  501  503 -0.00000000000E+00 -0.00000000000E+00 -0.85107599478E+03  0.85107599478E+03  0.00000000000E+00 0. -1.
    9000007    1    1    2  501    0 -0.64291825141E+02 -0.18479626036E+02 -0.24988893261E+03  0.47636059241E+03  0.40000000000E+03 0. -1.
   -9000007    1    1    2    0  502  0.64291825141E+02  0.18479626036E+02 -0.40368311053E+03  0.57221935400E+03  0.40000000000E+03 0. -1.
<mgrwt>
<rscale>  2 0.40555510E+03</rscale>
<asrwt>0</asrwt>
<pdfrwt beam="1">  1       21 0.30385223E-01 0.40555510E+03</pdfrwt>
<pdfrwt beam="2">  1       21 0.13093477E+00 0.40555510E+03</pdfrwt>
<totfact> 0.39034300E+03</totfact>
</mgrwt>
</event>
<event>
 4    1  0.4656600E-002  0.4642802E+03  0.7818608E-02  0.1023547E+00
         21   -1    0    0  501  502  0.00000000000E+00  0.00000000000E+00  0.98862615384E+02  0.98862615384E+02  0.00000000000E+00 0. -1.
         21   -1    0    0  502  503 -0.00000000000E+00 -0.00000000000E+00 -0.24047728988E+04  0.24047728988E+04  0.00000000000E+00 0.  1.
    9000007    1    1    2  501    0 -0.20745135132E+03  0.11189294170E+03 -0.15353640199E+04  0.16040258000E+04  0.40000000000E+03 0.  1.
   -9000007    1    1    2    0  503  0.20745135132E+03 -0.11189294170E+03 -0.77054626347E+03  0.89960971411E+03  0.40000000000E+03 0. -1.
<mgrwt>
<rscale>  2 0.46428019E+03</rscale>
<asrwt>0</asrwt>
<pdfrwt beam="1">  1       21 0.15209635E-01 0.46428019E+03</pdfrwt>
<pdfrwt beam="2">  1       21 0.36996502E+00 0.46428019E+03</pdfrwt>
<totfact> 0.39198204E+02</totfact>
</mgrwt>
</event>
<event>
 4    1  0.4656600E-002  0.4427576E+03  0.7818608E-02  0.1029904E+00
         21   -1    0    0  501  502  0.00000000000E+00  0.00000000000E+00  0.23293909840E+03  0.23293909840E+03  0.00000000000E+00 0. -1.
         21   -1    0    0  502  503 -0.00000000000E+00 -0.00000000000E+00 -0.89680776252E+03  0.89680776252E+03  0.00000000000E+00 0. -1.
    9000007    1    1    2  501    0 -0.18147467438E+03 -0.55689058646E+02 -0.19174229019E+03  0.48249293730E+03  0.40000000000E+03 0. -1.
   -9000007    1    1    2    0  503  0.18147467438E+03  0.55689058646E+02 -0.47212637393E+03  0.64725392363E+03  0.40000000000E+03 0. -1.
<mgrwt>
<rscale>  2 0.44275764E+03</rscale>
<asrwt>0</asrwt>
<pdfrwt beam="1">  1       21 0.35836784E-01 0.44275764E+03</pdfrwt>
<pdfrwt beam="2">  1       21 0.13797043E+00 0.44275764E+03</pdfrwt>
<totfact> 0.24093192E+03</totfact>
</mgrwt>
</event>
<event>
 4    1  0.4656600E-002  0.5637001E+03  0.7818608E-02  0.9983717E-01
         21   -1    0    0  503  502  0.00000000000E+00  0.00000000000E+00  0.82163237872E+03  0.82163237872E+03  0.00000000000E+00 0. -1.
         21   -1    0    0  501  503 -0.00000000000E+00 -0.00000000000E+00 -0.44032813151E+03  0.44032813151E+03  0.00000000000E+00 0.  1.
    9000007    1    1    2  501    0  0.29358086958E+02 -0.39610088750E+03 -0.29469810057E+02  0.56446991067E+03  0.40000000000E+03 0.  1.
   -9000007    1    1    2    0  502 -0.29358086958E+02  0.39610088750E+03  0.41077405727E+03  0.69749059956E+03  0.40000000000E+03 0. -1.
<mgrwt>
<rscale>  2 0.56370011E+03</rscale>
<asrwt>0</asrwt>
<pdfrwt beam="1">  1       21 0.12640498E+00 0.56370011E+03</pdfrwt>
<pdfrwt beam="2">  1       21 0.67742789E-01 0.56370011E+03</pdfrwt>
<totfact> 0.74610707E+02</totfact>
</mgrwt>
</event>
<event>
 4    1  0.4656600E-002  0.4014775E+03  0.7818608E-02  0.1043269E+00
         21   -1    0    0  501  502  0.00000000000E+00  0.00000000000E+00  0.28200459983E+03  0.28200459983E+03  0.00000000000E+00 0.  1.
         21   -1    0    0  502  503 -0.00000000000E+00 -0.00000000000E+00 -0.58132552893E+03  0.58132552893E+03  0.00000000000E+00 0.  1.
    9000007    1    1    2  501    0  0.33977516287E+02  0.54531207529E+01 -0.93729252250E+02  0.41227342974E+03  0.40000000000E+03 0.  1.
   -9000007    1    1    2    0  503 -0.33977516287E+02 -0.54531207529E+01 -0.20559167685E+03  0.45105669902E+03  0.40000000000E+03 0.  1.
<mgrwt>
<rscale>  2 0.40147753E+03</rscale>
<asrwt>0</asrwt>
<pdfrwt beam="1">  1       21 0.43385323E-01 0.40147753E+03</pdfrwt>
<pdfrwt beam="2">  1       21 0.89434696E-01 0.40147753E+03</pdfrwt>
<totfact> 0.48640651E+03</totfact>
</mgrwt>
</event>
<event>
 4    1  0.4656600E-002  0.4094965E+03  0.7818608E-02  0.1040540E+00
         21   -1    0    0  503  502  0.00000000000E+00  0.00000000000E+00  0.31297234881E+03  0.31297234881E+03  0.00000000000E+00 0.  1.
         21   -1    0    0  501  503 -0.00000000000E+00 -0.00000000000E+00 -0.16238060024E+04  0.16238060024E+04  0.00000000000E+00 0.  1.
    9000007    1    1    2  501    0 -0.63367650413E+02 -0.60596662465E+02 -0.14481016116E+04  0.15048872689E+04  0.40000000000E+03 0.  1.
   -9000007    1    1    2    0  502  0.63367650413E+02  0.60596662465E+02  0.13726795805E+03  0.43189108225E+03  0.40000000000E+03 0.  1.
<mgrwt>
<rscale>  2 0.40949654E+03</rscale>
<asrwt>0</asrwt>
<pdfrwt beam="1">  1       21 0.48149591E-01 0.40949654E+03</pdfrwt>
<pdfrwt beam="2">  1       21 0.24981631E+00 0.40949654E+03</pdfrwt>
<totfact> 0.22449674E+02</totfact>
</mgrwt>
</event>
<event>
 4    1  0.4656600E-002  0.4082430E+03  0.7818608E-02  0.1040962E+00
         21   -1    0    0  501  502  0.00000000000E+00  0.00000000000E+00  0.17499425628E+03  0.17499425628E+03  0.00000000000E+00 0. -1.
         21   -1    0    0  502  503 -0.00000000000E+00 -0.00000000000E+00 -0.14053674633E+04  0.14053674633E+04  0.00000000000E+00 0. -1.
    9000007    1    1    2  501    0  0.77788702684E+02 -0.24723156748E+02 -0.16657435765E+03  0.44091873783E+03  0.40000000000E+03 0. -1.
   -9000007    1    1    2    0  503 -0.77788702684E+02  0.24723156748E+02 -0.10637988493E+04  0.11394429817E+04  0.40000000000E+03 0. -1.
<mgrwt>
<rscale>  2 0.40824296E+03</rscale>
<asrwt>0</asrwt>
<pdfrwt beam="1">  1       21 0.26922194E-01 0.40824296E+03</pdfrwt>
<pdfrwt beam="2">  1       21 0.21621038E+00 0.40824296E+03</pdfrwt>
<totfact> 0.11856629E+03</totfact>
</mgrwt>
</event>
<event>
 4    1  0.4656600E-002  0.4324790E+03  0.7818608E-02  0.1033080E+00
         21   -1    0    0  503  502  0.00000000000E+00  0.00000000000E+00  0.10229918293E+04  0.10229918293E+04  0.00000000000E+00 0. -1.
         21   -1    0    0  501  503 -0.00000000000E+00 -0.00000000000E+00 -0.46877177654E+03  0.46877177654E+03  0.00000000000E+00 0. -1.
    9000007    1    1    2  501    0  0.13005155542E+03 -0.10062129893E+03 -0.30542867184E+03  0.52945701095E+03  0.40000000000E+03 0. -1.
   -9000007    1    1    2    0  502 -0.13005155542E+03  0.10062129893E+03  0.85964872462E+03  0.96230659491E+03  0.40000000000E+03 0. -1.
<mgrwt>
<rscale>  2 0.43247896E+03</rscale>
<asrwt>0</asrwt>
<pdfrwt beam="1">  1       21 0.15738336E+00 0.43247896E+03</pdfrwt>
<pdfrwt beam="2">  1       21 0.72118735E-01 0.43247896E+03</pdfrwt>
<totfact> 0.38068544E+02</totfact>
</mgrwt>
</event>
<event>
 4    1  0.4656600E-002  0.5804170E+03  0.7818608E-02  0.9946889E-01
         21   -1    0    0  503  502  0.00000000000E+00  0.00000000000E+00  0.10264304905E+04  0.10264304905E+04  0.00000000000E+00 0.  1.
         21   -1    0    0  501  503 -0.00000000000E+00 -0.00000000000E+00 -0.56738667972E+03  0.56738667972E+03  0.00000000000E+00 0. -1.
    9000007    1    1    2  501    0 -0.41940370284E+03  0.31374818293E+02 -0.28788134822E+03  0.64788850571E+03  0.40000000000E+03 0. -1.
   -9000007    1    1    2    0  502  0.41940370284E+03 -0.31374818293E+02  0.74692515897E+03  0.94592866448E+03  0.40000000000E+03 0.  1.
<mgrwt>
<rscale>  2 0.58041696E+03</rscale>
<asrwt>0</asrwt>
<pdfrwt beam="1">  1       21 0.15791238E+00 0.58041696E+03</pdfrwt>
<pdfrwt beam="2">  1       21 0.87290258E-01 0.58041696E+03</pdfrwt>
<totfact> 0.22725367E+02</totfact>
</mgrwt>
</event>
<event>
 4    1  0.4656600E-002  0.4742398E+03  0.7818608E-02  0.1020730E+00
         21   -1    0    0  501  502  0.00000000000E+00  0.00000000000E+00  0.14626333632E+03  0.14626333632E+03  0.00000000000E+00 0.  1.
         21   -1    0    0  502  503 -0.00000000000E+00 -0.00000000000E+00 -0.19311076213E+04  0.19311076213E+04  0.00000000000E+00 0.  1.
    9000007    1    1    2  501    0 -0.34584120850E+00  0.25476116055E+03 -0.42358289996E+03  0.63586621366E+03  0.40000000000E+03 0.  1.
   -9000007    1    1    2    0  503  0.34584120850E+00 -0.25476116055E+03 -0.13612613850E+04  0.14415047440E+04  0.40000000000E+03 0.  1.
<mgrwt>
<rscale>  2 0.47423978E+03</rscale>
<asrwt>0</asrwt>
<pdfrwt beam="1">  1       21 0.22502052E-01 0.47423978E+03</pdfrwt>
<pdfrwt beam="2">  1       21 0.29709347E+00 0.47423978E+03</pdfrwt>
<totfact> 0.51712795E+02</totfact>
</mgrwt>
</event>
<event>
 4    1  0.4656600E-002  0.4134456E+03  0.7818608E-02  0.1039221E+00
         21   -1    0    0  503  502  0.00000000000E+00  0.00000000000E+00  0.31936067904E+04  0.31936067904E+04  0.00000000000E+00 0.  1.
         21   -1    0    0  501  503 -0.00000000000E+00 -0.00000000000E+00 -0.84493956126E+02  0.84493956126E+02  0.00000000000E+00 0.  1.
    9000007    1    1    2  501    0  0.77726476151E+02 -0.69970595760E+02  0.56225436223E+03  0.69790203984E+03  0.40000000000E+03 0.  1.
   -9000007    1    1    2    0  502 -0.77726476151E+02  0.69970595760E+02  0.25468584721E+04  0.25801987067E+04  0.40000000000E+03 0.  1.
<mgrwt>
<rscale>  2 0.41344563E+03</rscale>
<asrwt>0</asrwt>
<pdfrwt beam="1">  1       21 0.49132403E+00 0.41344563E+03</pdfrwt>
<pdfrwt beam="2">  1       21 0.12999073E-01 0.41344563E+03</pdfrwt>
<totfact> 0.84996483E+01</totfact>
</mgrwt>
</event>
<event>
 4    1  0.4656600E-002  0.4483358E+03  0.7818608E-02  0.1028219E+00
         21   -1    0    0  503  502  0.00000000000E+00  0.00000000000E+00  0.59366483377E+03  0.59366483377E+03  0.00000000000E+00 0.  1.
         21   -1    0    0  501  503 -0.00000000000E+00 -0.00000000000E+00 -0.35403983036E+03  0.35403983036E+03  0.00000000000E+00 0.  1.
    9000007    1    1    2  501    0 -0.44639590468E+02  0.19751536929E+03  0.20803975465E+02  0.44881824778E+03  0.40000000000E+03 0.  1.
   -9000007    1    1    2    0  502  0.44639590468E+02 -0.19751536929E+03  0.21882102795E+03  0.49888641635E+03  0.40000000000E+03 0.  1.
<mgrwt>
<rscale>  2 0.44833583E+03</rscale>
<asrwt>0</asrwt>
<pdfrwt beam="1">  1       21 0.91333051E-01 0.44833583E+03</pdfrwt>
<pdfrwt beam="2">  1       21 0.54467666E-01 0.44833583E+03</pdfrwt>
<totfact> 0.28111383E+03</totfact>
</mgrwt>
</event>
<event>
 4    1  0.4656600E-002  0.4269010E+03  0.7818608E-02  0.1034843E+00
         21   -1    0    0  503  502  0.00000000000E+00  0.00000000000E+00  0.36037141091E+03  0.36037141091E+03  0.00000000000E+00 0.  1.
         21   -1    0    0  501  503 -0.00000000000E+00 -0.00000000000E+00 -0.61117518063E+03  0.61117518063E+03  0.00000000000E+00 0.  1.
    9000007    1    1    2  501    0  0.11673904061E+03 -0.92825069598E+02  0.76387916894E+02  0.43368146259E+03  0.40000000000E+03 0.  1.
   -9000007    1    1    2    0  502 -0.11673904061E+03  0.92825069598E+02 -0.32719168661E+03  0.53786512895E+03  0.40000000000E+03 0.  1.
<mgrwt>
<rscale>  2 0.42690104E+03</rscale>
<asrwt>0</asrwt>
<pdfrwt beam="1">  1       21 0.55441756E-01 0.42690104E+03</pdfrwt>
<pdfrwt beam="2">  1       21 0.94026950E-01 0.42690104E+03</pdfrwt>
<totfact> 0.25448669E+03</totfact>
</mgrwt>
</event>
<event>
 4    1  0.4656600E-002  0.4114970E+03  0.7818608E-02  0.1039870E+00
         21   -1    0    0  503  502  0.00000000000E+00  0.00000000000E+00  0.22981550746E+03  0.22981550746E+03  0.00000000000E+00 0.  1.
         21   -1    0    0  501  503 -0.00000000000E+00 -0.00000000000E+00 -0.84539880230E+03  0.84539880230E+03  0.00000000000E+00 0.  1.
    9000007    1    1    2  501    0 -0.24542117984E+02 -0.93420843512E+02 -0.50046955451E+03  0.64791939664E+03  0.40000000000E+03 0.  1.
   -9000007    1    1    2    0  502  0.24542117984E+02  0.93420843512E+02 -0.11511374033E+03  0.42729491311E+03  0.40000000000E+03 0.  1.
<mgrwt>
<rscale>  2 0.41149699E+03</rscale>
<asrwt>0</asrwt>
<pdfrwt beam="1">  1       21 0.35356232E-01 0.41149699E+03</pdfrwt>
<pdfrwt beam="2">  1       21 0.13006135E+00 0.41149699E+03</pdfrwt>
<totfact> 0.29246678E+03</totfact>
</mgrwt>
</event>
<event>
 4    1  0.4656600E-002  0.5595327E+03  0.7818608E-02  0.9993112E-01
         21   -1    0    0  503  502  0.00000000000E+00  0.00000000000E+00  0.13069614379E+04  0.13069614379E+04  0.00000000000E+00 0.  1.
         21   -1    0    0  501  503 -0.00000000000E+00 -0.00000000000E+00 -0.24787385697E+03  0.24787385697E+03  0.00000000000E+00 0. -1.
    9000007    1    1    2  501    0  0.46228624122E+02 -0.38850971496E+03  0.38704353513E+03  0.68035254273E+03  0.40000000000E+03 0.  1.
   -9000007    1    1    2    0  502 -0.46228624122E+02  0.38850971496E+03  0.67204404582E+03  0.87448275217E+03  0.40000000000E+03 0. -1.
<mgrwt>
<rscale>  2 0.55953274E+03</rscale>
<asrwt>0</asrwt>
<pdfrwt beam="1">  1       21 0.20107099E+00 0.55953274E+03</pdfrwt>
<pdfrwt beam="2">  1       21 0.38134440E-01 0.55953274E+03</pdfrwt>
<totfact> 0.69383627E+02</totfact>
</mgrwt>
</event>
<event>
 4    1  0.4656600E-002  0.4683199E+03  0.7818608E-02  0.1022395E+00
         21   -1    0    0  501  502  0.00000000000E+00  0.00000000000E+00  0.44698597442E+03  0.44698597442E+03  0.00000000000E+00 0. -1.
         21   -1    0    0  502  503 -0.00000000000E+00 -0.00000000000E+00 -0.50995782867E+03  0.50995782867E+03  0.00000000000E+00 0. -1.
    9000007    1    1    2  501    0  0.23795951746E+03  0.51950045172E+02 -0.12453403035E+03  0.48459494824E+03  0.40000000000E+03 0. -1.
   -9000007    1    1    2    0  503 -0.23795951746E+03 -0.51950045172E+02  0.61562176104E+02  0.47234885484E+03  0.40000000000E+03 0. -1.
<mgrwt>
<rscale>  2 0.46831991E+03</rscale>
<asrwt>0</asrwt>
<pdfrwt beam="1">  1       21 0.68767073E-01 0.46831991E+03</pdfrwt>
<pdfrwt beam="2">  1       21 0.78455051E-01 0.46831991E+03</pdfrwt>
<totfact> 0.23846415E+03</totfact>
</mgrwt>
</event>
<event>
 4    1  0.4656600E-002  0.6148875E+03  0.7818608E-02  0.9874992E-01
         21   -1    0    0  503  502  0.00000000000E+00  0.00000000000E+00  0.62963690788E+03  0.62963690788E+03  0.00000000000E+00 0. -1.
         21   -1    0    0  501  503 -0.00000000000E+00 -0.00000000000E+00 -0.60208285083E+03  0.60208285083E+03  0.00000000000E+00 0.  1.
    9000007    1    1    2  501    0  0.45933152896E+03  0.84268420762E+02 -0.17963614520E+02  0.61514982865E+03  0.40000000000E+03 0. -1.
   -9000007    1    1    2    0  502 -0.45933152896E+03 -0.84268420762E+02  0.45517671572E+02  0.61656993007E+03  0.40000000000E+03 0.  1.
<mgrwt>
<rscale>  2 0.61488749E+03</rscale>
<asrwt>0</asrwt>
<pdfrwt beam="1">  1       21 0.96867216E-01 0.61488749E+03</pdfrwt>
<pdfrwt beam="2">  1       21 0.92628131E-01 0.61488749E+03</pdfrwt>
<totfact> 0.69171070E+02</totfact>
</mgrwt>
</event>
<event>
 4    1  0.4656600E-002  0.5095276E+03  0.7818608E-02  0.1011322E+00
         21   -1    0    0  501  502  0.00000000000E+00  0.00000000000E+00  0.39744237534E+03  0.39744237534E+03  0.00000000000E+00 0.  1.
         21   -1    0    0  502  503 -0.00000000000E+00 -0.00000000000E+00 -0.81934304127E+03  0.81934304127E+03  0.00000000000E+00 0. -1.
    9000007    1    1    2  501    0  0.13510712173E+03  0.28524453720E+03  0.62994129937E+02  0.51340689589E+03  0.40000000000E+03 0.  1.
   -9000007    1    1    2    0  503 -0.13510712173E+03 -0.28524453720E+03 -0.48489479587E+03  0.70337852072E+03  0.40000000000E+03 0.  1.
<mgrwt>
<rscale>  2 0.50952761E+03</rscale>
<asrwt>0</asrwt>
<pdfrwt beam="1">  1       21 0.61144981E-01 0.50952761E+03</pdfrwt>
<pdfrwt beam="2">  1       21 0.12605277E+00 0.50952761E+03</pdfrwt>
<totfact> 0.96240136E+02</totfact>
</mgrwt>
</event>
<event>
 4    1  0.4656600E-002  0.5447294E+03  0.7818608E-02  0.1002721E+00
         21   -1    0    0  503  502  0.00000000000E+00  0.00000000000E+00  0.26905659615E+03  0.26905659615E+03  0.00000000000E+00 0.  1.
         21   -1    0    0  501  503 -0.00000000000E+00 -0.00000000000E+00 -0.16129782905E+04  0.16129782905E+04  0.00000000000E+00 0. -1.
    9000007    1    1    2  501    0  0.21010132106E+03  0.30428205164E+03 -0.14275890128E+03  0.56312541761E+03  0.40000000000E+03 0.  1.
   -9000007    1    1    2    0  502 -0.21010132106E+03 -0.30428205164E+03 -0.12011627930E+04  0.13189094690E+04  0.40000000000E+03 0.  1.
<mgrwt>
<rscale>  2 0.54472941E+03</rscale>
<asrwt>0</asrwt>
<pdfrwt beam="1">  1       21 0.41393323E-01 0.54472941E+03</pdfrwt>
<pdfrwt beam="2">  1       21 0.24815050E+00 0.54472941E+03</pdfrwt>
<totfact> 0.29377707E+02</totfact>
</mgrwt>
</event>
<event>
 4    1  0.4656600E-002  0.4474487E+03  0.7818608E-02  0.1028486E+00
         21   -1    0    0  501  502  0.00000000000E+00  0.00000000000E+00  0.22842609605E+03  0.22842609605E+03  0.00000000000E+00 0.  1.
         21   -1    0    0  502  503 -0.00000000000E+00 -0.00000000000E+00 -0.13550647010E+04  0.13550647010E+04  0.00000000000E+00 0. -1.
    9000007    1    1    2  501    0 -0.11605228553E+03 -0.16353031800E+03 -0.92790576048E+02  0.45696869574E+03  0.40000000000E+03 0.  1.
   -9000007    1    1    2    0  503  0.11605228553E+03  0.16353031800E+03 -0.10338480289E+04  0.11265221013E+04  0.40000000000E+03 0. -1.
<mgrwt>
<rscale>  2 0.44744865E+03</rscale>
<asrwt>0</asrwt>
<pdfrwt beam="1">  1       21 0.35142476E-01 0.44744865E+03</pdfrwt>
<pdfrwt beam="2">  1       21 0.20847149E+00 0.44744865E+03</pdfrwt>
<totfact> 0.76790436E+02</totfact>
</mgrwt>
</event>
<event>
 4    1  0.4656600E-002  0.4576723E+03  0.7818608E-02  0.1025458E+00
         21   -1    0    0  501  502  0.00000000000E+00  0.00000000000E+00  0.88694872293E+03  0.88694872293E+03  0.00000000000E+00 0.  1.
         21   -1    0    0  502  503 -0.00000000000E+00 -0.00000000000E+00 -0.29381306684E+04  0.29381306684E+04  0.00000000000E+00 0.  1.
    9000007    1    1    2  501    0  0.16813926463E+03 -0.14557867817E+03  0.80847530049E+03  0.92902974944E+03  0.40000000000E+03 0.  1.
   -9000007    1    1    2    0  503 -0.16813926463E+03  0.14557867817E+03 -0.28596572460E+04  0.28960496419E+04  0.40000000000E+03 0.  1.
<mgrwt>
<rscale>  2 0.45767233E+03</rscale>
<asrwt>0</asrwt>
<pdfrwt beam="1">  1       21 0.13645365E+00 0.45767233E+03</pdfrwt>
<pdfrwt beam="2">  1       21 0.45202010E+00 0.45767233E+03</pdfrwt>
<totfact> 0.10422360E+00</totfact>
</mgrwt>
</event>
<event>
 4    1  0.4656600E-002  0.4660333E+03  0.7818608E-02  0.1023046E+00
         21   -1    0    0  501  502  0.00000000000E+00  0.00000000000E+00  0.13608324757E+04  0.13608324757E+04  0.00000000000E+00 0. -1.
         21   -1    0    0  502  503 -0.00000000000E+00 -0.00000000000E+00 -0.15985882653E+03  0.15985882653E+03  0.00000000000E+00 0. -1.
    9000007    1    1    2  501    0 -0.19493331288E+03  0.13852097090E+03  0.56981366569E+03  0.73612136870E+03  0.40000000000E+03 0. -1.
   -9000007    1    1    2    0  503  0.19493331288E+03 -0.13852097090E+03  0.63115998346E+03  0.78456993351E+03  0.40000000000E+03 0. -1.
<mgrwt>
<rscale>  2 0.46603332E+03</rscale>
<asrwt>0</asrwt>
<pdfrwt beam="1">  1       21 0.20935883E+00 0.46603332E+03</pdfrwt>
<pdfrwt beam="2">  1       21 0.24593667E-01 0.46603332E+03</pdfrwt>
<totfact> 0.15248710E+03</totfact>
</mgrwt>
</event>
<event>
 4    1  0.4656600E-002  0.4475432E+03  0.7818608E-02  0.1028457E+00
         21   -1    0    0  503  502  0.00000000000E+00  0.00000000000E+00  0.23776869830E+04  0.23776869830E+04  0.00000000000E+00 0. -1.
         21   -1    0    0  501  503 -0.00000000000E+00 -0.00000000000E+00 -0.84286776290E+02  0.84286776290E+02  0.00000000000E+00 0.  1.
    9000007    1    1    2  501    0  0.19667398370E+03 -0.40177640484E+02  0.11175120799E+04  0.12037973864E+04  0.40000000000E+03 0.  1.
   -9000007    1    1    2    0  502 -0.19667398370E+03  0.40177640484E+02  0.11758881268E+04  0.12581763730E+04  0.40000000000E+03 0. -1.
<mgrwt>
<rscale>  2 0.44754318E+03</rscale>
<asrwt>0</asrwt>
<pdfrwt beam="1">  1       21 0.36579795E+00 0.44754318E+03</pdfrwt>
<pdfrwt beam="2">  1       21 0.12967198E-01 0.44754318E+03</pdfrwt>
<totfact> 0.56434278E+02</totfact>
</mgrwt>
</event>
<event>
 4    1  0.4656600E-002  0.4165601E+03  0.7818608E-02  0.1038192E+00
         21   -1    0    0  503  502  0.00000000000E+00  0.00000000000E+00  0.21393743262E+03  0.21393743262E+03  0.00000000000E+00 0.  1.
         21   -1    0    0  501  503 -0.00000000000E+00 -0.00000000000E+00 -0.35882954827E+04  0.35882954827E+04  0.00000000000E+00 0.  1.
    9000007    1    1    2  501    0 -0.23338829042E+02 -0.11391916994E+03 -0.33596889930E+04  0.33854146582E+04  0.40000000000E+03 0.  1.
   -9000007    1    1    2    0  502  0.23338829042E+02  0.11391916994E+03 -0.14669057065E+02  0.41681825711E+03  0.40000000000E+03 0.  1.
<mgrwt>
<rscale>  2 0.41656005E+03</rscale>
<asrwt>0</asrwt>
<pdfrwt beam="1">  1       21 0.32913453E-01 0.41656005E+03</pdfrwt>
<pdfrwt beam="2">  1       21 0.55204544E+00 0.41656005E+03</pdfrwt>
<totfact> 0.51898800E+00</totfact>
</mgrwt>
</event>
<event>
 4    1  0.4656600E-002  0.4176667E+03  0.7818608E-02  0.1037828E+00
         21   -1    0    0  503  502  0.00000000000E+00  0.00000000000E+00  0.71054781266E+03  0.71054781266E+03  0.00000000000E+00 0. -1.
         21   -1    0    0  501  503 -0.00000000000E+00 -0.00000000000E+00 -0.95135285291E+03  0.95135285291E+03  0.00000000000E+00 0. -1.
    9000007    1    1    2  501    0 -0.66897585443E+02  0.99850758667E+02 -0.83614823201E+03  0.93466000601E+03  0.40000000000E+03 0. -1.
   -9000007    1    1    2    0  502  0.66897585443E+02 -0.99850758667E+02  0.59534319175E+03  0.72724065956E+03  0.40000000000E+03 0. -1.
<mgrwt>
<rscale>  2 0.41766669E+03</rscale>
<asrwt>0</asrwt>
<pdfrwt beam="1">  1       21 0.10931505E+00 0.41766669E+03</pdfrwt>
<pdfrwt beam="2">  1       21 0.14636198E+00 0.41766669E+03</pdfrwt>
<totfact> 0.17499161E+02</totfact>
</mgrwt>
</event>
<event>
 4    1  0.4656600E-002  0.4373274E+03  0.7818608E-02  0.1031570E+00
         21   -1    0    0  503  502  0.00000000000E+00  0.00000000000E+00  0.20077556296E+04  0.20077556296E+04  0.00000000000E+00 0.  1.
         21   -1    0    0  501  503 -0.00000000000E+00 -0.00000000000E+00 -0.11168521922E+03  0.11168521922E+03  0.00000000000E+00 0.  1.
    9000007    1    1    2  501    0 -0.54489749410E+01 -0.17670761886E+03  0.13544525806E+04  0.14233049803E+04  0.40000000000E+03 0.  1.
   -9000007    1    1    2    0  502  0.54489749410E+01  0.17670761886E+03  0.54161782982E+03  0.69613586854E+03  0.40000000000E+03 0.  1.
<mgrwt>
<rscale>  2 0.43732742E+03</rscale>
<asrwt>0</asrwt>
<pdfrwt beam="1">  1       21 0.30888545E+00 0.43732742E+03</pdfrwt>
<pdfrwt beam="2">  1       21 0.17182343E-01 0.43732742E+03</pdfrwt>
<totfact> 0.74856341E+02</totfact>
</mgrwt>
</event>
<event>
 4    1  0.4656600E-002  0.4366142E+03  0.7818608E-02  0.1031791E+00
         21   -1    0    0  501  502  0.00000000000E+00  0.00000000000E+00  0.15234860865E+04  0.15234860865E+04  0.00000000000E+00 0. -1.
         21   -1    0    0  502  503 -0.00000000000E+00 -0.00000000000E+00 -0.21638305034E+03  0.21638305034E+03  0.00000000000E+00 0. -1.
    9000007    1    1    2  501    0 -0.96945883315E+02  0.14571708070E+03  0.12184904986E+04  0.12943535325E+04  0.40000000000E+03 0. -1.
   -9000007    1    1    2    0  503  0.96945883315E+02 -0.14571708070E+03  0.88612537557E+02  0.44551560434E+03  0.40000000000E+03 0. -1.
<mgrwt>
<rscale>  2 0.43661421E+03</rscale>
<asrwt>0</asrwt>
<pdfrwt beam="1">  1       21 0.23438247E+00 0.43661421E+03</pdfrwt>
<pdfrwt beam="2">  1       21 0.33289701E-01 0.43661421E+03</pdfrwt>
<totfact> 0.58855650E+02</totfact>
</mgrwt>
</event>
<event>
 4    1  0.4656600E-002  0.6612706E+03  0.7818608E-02  0.9785857E-01
         21   -1    0    0  501  502  0.00000000000E+00  0.00000000000E+00  0.15527833287E+04  0.15527833287E+04  0.00000000000E+00 0. -1.
         21   -1    0    0  502  503 -0.00000000000E+00 -0.00000000000E+00 -0.29115556359E+03  0.29115556359E+03  0.00000000000E+00 0. -1.
    9000007    1    1    2  501    0 -0.50445459664E+03  0.15101132502E+03  0.46387350017E+03  0.80774840422E+03  0.40000000000E+03 0. -1.
   -9000007    1    1    2    0  503  0.50445459664E+03 -0.15101132502E+03  0.79775426496E+03  0.10361904881E+04  0.40000000000E+03 0. -1.
<mgrwt>
<rscale>  2 0.66127064E+03</rscale>
<asrwt>0</asrwt>
<pdfrwt beam="1">  1       21 0.23888974E+00 0.66127064E+03</pdfrwt>
<pdfrwt beam="2">  1       21 0.44793165E-01 0.66127064E+03</pdfrwt>
<totfact> 0.27159633E+02</totfact>
</mgrwt>
</event>
<event>
 4    1  0.4656600E-002  0.4117508E+03  0.7818608E-02  0.1039785E+00
         21   -1    0    0  501  502  0.00000000000E+00  0.00000000000E+00  0.39983848534E+03  0.39983848534E+03  0.00000000000E+00 0. -1.
         21   -1    0    0  502  503 -0.00000000000E+00 -0.00000000000E+00 -0.42635506656E+03  0.42635506656E+03  0.00000000000E+00 0.  1.
    9000007    1    1    2  501    0  0.86681024962E+02  0.45001134570E+02 -0.43843015420E+02  0.41407838896E+03  0.40000000000E+03 0. -1.
   -9000007    1    1    2    0  503 -0.86681024962E+02 -0.45001134570E+02  0.17326434203E+02  0.41211516294E+03  0.40000000000E+03 0. -1.
<mgrwt>
<rscale>  2 0.41175078E+03</rscale>
<asrwt>0</asrwt>
<pdfrwt beam="1">  1       21 0.61513613E-01 0.41175078E+03</pdfrwt>
<pdfrwt beam="2">  1       21 0.65593087E-01 0.41175078E+03</pdfrwt>
<totfact> 0.46725943E+03</totfact>
</mgrwt>
</event>
<event>
 4    1  0.4656600E-002  0.4940914E+03  0.7818608E-02  0.1015333E+00
         21   -1    0    0  503  502  0.00000000000E+00  0.00000000000E+00  0.59254372627E+03  0.59254372627E+03  0.00000000000E+00 0. -1.
         21   -1    0    0  501  503 -0.00000000000E+00 -0.00000000000E+00 -0.43223586089E+03  0.43223586089E+03  0.00000000000E+00 0. -1.
    9000007    1    1    2  501    0  0.98103026260E+02  0.27295068989E+03  0.19102858864E+03  0.52973408853E+03  0.40000000000E+03 0.  1.
   -9000007    1    1    2    0  502 -0.98103026260E+02 -0.27295068989E+03 -0.30720723259E+02  0.49504549863E+03  0.40000000000E+03 0.  1.
<mgrwt>
<rscale>  2 0.49409137E+03</rscale>
<asrwt>0</asrwt>
<pdfrwt beam="1">  1       21 0.91160573E-01 0.49409137E+03</pdfrwt>
<pdfrwt beam="2">  1       21 0.66497825E-01 0.49409137E+03</pdfrwt>
<totfact> 0.17927999E+03</totfact>
</mgrwt>
</event>
<event>
 4    1  0.4656600E-002  0.4606451E+03  0.7818608E-02  0.1024594E+00
         21   -1    0    0  503  502  0.00000000000E+00  0.00000000000E+00  0.65256573533E+03  0.65256573533E+03  0.00000000000E+00 0.  1.
         21   -1    0    0  501  503 -0.00000000000E+00 -0.00000000000E+00 -0.35924605776E+03  0.35924605776E+03  0.00000000000E+00 0. -1.
    9000007    1    1    2  501    0  0.51508759684E+02  0.22257746092E+03  0.30247417335E+03  0.55107576973E+03  0.40000000000E+03 0.  1.
   -9000007    1    1    2    0  502 -0.51508759684E+02 -0.22257746092E+03 -0.91544957931E+01  0.46073602336E+03  0.40000000000E+03 0.  1.
<mgrwt>
<rscale>  2 0.46064507E+03</rscale>
<asrwt>0</asrwt>
<pdfrwt beam="1">  1       21 0.10039473E+00 0.46064507E+03</pdfrwt>
<pdfrwt beam="2">  1       21 0.55268624E-01 0.46064507E+03</pdfrwt>
<totfact> 0.21605104E+03</totfact>
</mgrwt>
</event>
<event>
 4    1  0.4656600E-002  0.6375657E+03  0.7818608E-02  0.9830395E-01
         21   -1    0    0  503  502  0.00000000000E+00  0.00000000000E+00  0.15497710111E+04  0.15497710111E+04  0.00000000000E+00 0.  1.
         21   -1    0    0  501  503 -0.00000000000E+00 -0.00000000000E+00 -0.28130816161E+03  0.28130816161E+03  0.00000000000E+00 0. -1.
    9000007    1    1    2  501    0  0.46461157117E+03  0.17500311328E+03  0.39618258001E+03  0.75063349141E+03  0.40000000000E+03 0. -1.
   -9000007    1    1    2    0  502 -0.46461157117E+03 -0.17500311328E+03  0.87228026950E+03  0.10804456813E+04  0.40000000000E+03 0.  1.
<mgrwt>
<rscale>  2 0.63756568E+03</rscale>
<asrwt>0</asrwt>
<pdfrwt beam="1">  1       21 0.23842630E+00 0.63756568E+03</pdfrwt>
<pdfrwt beam="2">  1       21 0.43278180E-01 0.63756568E+03</pdfrwt>
<totfact> 0.29651648E+02</totfact>
</mgrwt>
</event>
<event>
 4    1  0.4656600E-002  0.4134325E+03  0.7818608E-02  0.1039225E+00
         21   -1    0    0  503  502  0.00000000000E+00  0.00000000000E+00  0.15818102245E+04  0.15818102245E+04  0.00000000000E+00 0.  1.
         21   -1    0    0  501  503 -0.00000000000E+00 -0.00000000000E+00 -0.14274105747E+03  0.14274105747E+03  0.00000000000E+00 0.  1.
    9000007    1    1    2  501    0  0.10411960023E+03 -0.92492474433E+01  0.29449091183E+03  0.50759367301E+03  0.40000000000E+03 0.  1.
   -9000007    1    1    2    0  502 -0.10411960023E+03  0.92492474433E+01  0.11445782552E+04  0.12169576089E+04  0.40000000000E+03 0.  1.
<mgrwt>
<rscale>  2 0.41343251E+03</rscale>
<asrwt>0</asrwt>
<pdfrwt beam="1">  1       21 0.24335541E+00 0.41343251E+03</pdfrwt>
<pdfrwt beam="2">  1       21 0.21960164E-01 0.41343251E+03</pdfrwt>
<totfact> 0.11853175E+03</totfact>
</mgrwt>
</event>
<event>
 4    1  0.4656600E-002  0.4806571E+03  0.7818608E-02  0.1018955E+00
         21   -1    0    0  501  502  0.00000000000E+00  0.00000000000E+00  0.46932166688E+03  0.46932166688E+03  0.00000000000E+00 0.  1.
         21   -1    0    0  502  503 -0.00000000000E+00 -0.00000000000E+00 -0.85540980474E+03  0.85540980474E+03  0.00000000000E+00 0.  1.
    9000007    1    1    2  501    0 -0.89435624563E+02 -0.25106285723E+03  0.23852451692E+03  0.53658665134E+03  0.40000000000E+03 0.  1.
   -9000007    1    1    2    0  503  0.89435624563E+02  0.25106285723E+03 -0.62461265478E+03  0.78814482028E+03  0.40000000000E+03 0.  1.
<mgrwt>
<rscale>  2 0.48065714E+03</rscale>
<asrwt>0</asrwt>
<pdfrwt beam="1">  1       21 0.72203334E-01 0.48065714E+03</pdfrwt>
<pdfrwt beam="2">  1       21 0.13160151E+00 0.48065714E+03</pdfrwt>
<totfact> 0.60013599E+02</totfact>
</mgrwt>
</event>
<event>
 4    1  0.4656600E-002  0.4443613E+03  0.7818608E-02  0.1029417E+00
         21   -1    0    0  501  502  0.00000000000E+00  0.00000000000E+00  0.49172551859E+03  0.49172551859E+03  0.00000000000E+00 0.  1.
         21   -1    0    0  502  503 -0.00000000000E+00 -0.00000000000E+00 -0.82760111974E+03  0.82760111974E+03  0.00000000000E+00 0.  1.
    9000007    1    1    2  501    0  0.35893695533E+02  0.19018054449E+03  0.30536369084E+03  0.53916971406E+03  0.40000000000E+03 0.  1.
   -9000007    1    1    2    0  503 -0.35893695533E+02 -0.19018054449E+03 -0.64123929199E+03  0.78015692426E+03  0.40000000000E+03 0.  1.
<mgrwt>
<rscale>  2 0.44436134E+03</rscale>
<asrwt>0</asrwt>
<pdfrwt beam="1">  1       21 0.75650081E-01 0.44436134E+03</pdfrwt>
<pdfrwt beam="2">  1       21 0.12732325E+00 0.44436134E+03</pdfrwt>
<totfact> 0.59739106E+02</totfact>
</mgrwt>
</event>
<event>
 4    1  0.4656600E-002  0.5891334E+03  0.7818608E-02  0.9928211E-01
         21   -1    0    0  503  502  0.00000000000E+00  0.00000000000E+00  0.26831990868E+03  0.26831990868E+03  0.00000000000E+00 0.  1.
         21   -1    0    0  501  503 -0.00000000000E+00 -0.00000000000E+00 -0.16535341192E+04  0.16535341192E+04  0.00000000000E+00 0.  1.
    9000007    1    1    2  501    0 -0.30893523740E+03  0.30271631310E+03 -0.24423210636E+03  0.63775188663E+03  0.40000000000E+03 0.  1.
   -9000007    1    1    2    0  502  0.30893523740E+03 -0.30271631310E+03 -0.11409821041E+04  0.12841021412E+04  0.40000000000E+03 0.  1.
<mgrwt>
<rscale>  2 0.58913339E+03</rscale>
<asrwt>0</asrwt>
<pdfrwt beam="1">  1       21 0.41279986E-01 0.58913339E+03</pdfrwt>
<pdfrwt beam="2">  1       21 0.25438987E+00 0.58913339E+03</pdfrwt>
<totfact> 0.26507344E+02</totfact>
</mgrwt>
</event>
<event>
 4    1  0.4656600E-002  0.4176334E+03  0.7818608E-02  0.1037839E+00
         21   -1    0    0  501  502  0.00000000000E+00  0.00000000000E+00  0.26186805636E+03  0.26186805636E+03  0.00000000000E+00 0.  1.
         21   -1    0    0  502  503 -0.00000000000E+00 -0.00000000000E+00 -0.80082788982E+03  0.80082788982E+03  0.00000000000E+00 0.  1.
    9000007    1    1    2  501    0 -0.10620878710E+03  0.56012247578E+02 -0.51500275623E+02  0.42079681169E+03  0.40000000000E+03 0.  1.
   -9000007    1    1    2    0  503  0.10620878710E+03 -0.56012247578E+02 -0.48745955784E+03  0.64189913450E+03  0.40000000000E+03 0.  1.
<mgrwt>
<rscale>  2 0.41763343E+03</rscale>
<asrwt>0</asrwt>
<pdfrwt beam="1">  1       21 0.40287393E-01 0.41763343E+03</pdfrwt>
<pdfrwt beam="2">  1       21 0.12320429E+00 0.41763343E+03</pdfrwt>
<totfact> 0.25695185E+03</totfact>
</mgrwt>
</event>
<event>
 4    1  0.4656600E-002  0.4195037E+03  0.7818608E-02  0.1037228E+00
         21   -1    0    0  501  502  0.00000000000E+00  0.00000000000E+00  0.15355349631E+04  0.15355349631E+04  0.00000000000E+00 0.  1.
         21   -1    0    0  502  503 -0.00000000000E+00 -0.00000000000E+00 -0.16758573575E+03  0.16758573575E+03  0.00000000000E+00 0.  1.
    9000007    1    1    2  501    0  0.11194575912E+03 -0.58749513406E+02  0.11627666224E+04  0.12361268449E+04  0.40000000000E+03 0.  1.
   -9000007    1    1    2    0  503 -0.11194575912E+03  0.58749513406E+02  0.20518260489E+03  0.46699385399E+03  0.40000000000E+03 0.  1.
<mgrwt>
<rscale>  2 0.41950370E+03</rscale>
<asrwt>0</asrwt>
<pdfrwt beam="1">  1       21 0.23623614E+00 0.41950370E+03</pdfrwt>
<pdfrwt beam="2">  1       21 0.25782422E-01 0.41950370E+03</pdfrwt>
<totfact> 0.95896563E+02</totfact>
</mgrwt>
</event>
<event>
 4    1  0.4656600E-002  0.1031932E+04  0.7818608E-02  0.9274199E-01
         21   -1    0    0  501  502  0.00000000000E+00  0.00000000000E+00  0.15697056496E+04  0.15697056496E+04  0.00000000000E+00 0.  1.
         21   -1    0    0  502  503 -0.00000000000E+00 -0.00000000000E+00 -0.10410821989E+04  0.10410821989E+04  0.00000000000E+00 0. -1.
    9000007    1    1    2  501    0  0.86261082196E+03  0.40098156141E+03  0.10347963524E+04  0.14613990330E+04  0.40000000000E+03 0.  1.
   -9000007    1    1    2    0  503 -0.86261082196E+03 -0.40098156141E+03 -0.50617290178E+03  0.11493888155E+04  0.40000000000E+03 0. -1.
<mgrwt>
<rscale>  2 0.10319320E+04</rscale>
<asrwt>0</asrwt>
<pdfrwt beam="1">  1       21 0.24149318E+00 0.10319320E+04</pdfrwt>
<pdfrwt beam="2">  1       21 0.16016649E+00 0.10319320E+04</pdfrwt>
<totfact> 0.10810738E+01</totfact>
</mgrwt>
</event>
<event>
 4    1  0.4656600E-002  0.4410793E+03  0.7818608E-02  0.1030416E+00
         21   -1    0    0  503  502  0.00000000000E+00  0.00000000000E+00  0.77417304451E+03  0.77417304451E+03  0.00000000000E+00 0. -1.
         21   -1    0    0  501  503 -0.00000000000E+00 -0.00000000000E+00 -0.38091198875E+03  0.38091198875E+03  0.00000000000E+00 0. -1.
    9000007    1    1    2  501    0  0.15081927043E+03 -0.10864840797E+03 -0.14026212344E+03  0.46284380968E+03  0.40000000000E+03 0. -1.
   -9000007    1    1    2    0  502 -0.15081927043E+03  0.10864840797E+03  0.53352317920E+03  0.69224122358E+03  0.40000000000E+03 0. -1.
<mgrwt>
<rscale>  2 0.44107928E+03</rscale>
<asrwt>0</asrwt>
<pdfrwt beam="1">  1       21 0.11910355E+00 0.44107928E+03</pdfrwt>
<pdfrwt beam="2">  1       21 0.58601844E-01 0.44107928E+03</pdfrwt>
<totfact> 0.12548912E+03</totfact>
</mgrwt>
</event>
<event>
 4    1  0.4656600E-002  0.4993245E+03  0.7818608E-02  0.1013955E+00
         21   -1    0    0  503  502  0.00000000000E+00  0.00000000000E+00  0.51473927835E+03  0.51473927835E+03  0.00000000000E+00 0.  1.
         21   -1    0    0  501  503 -0.00000000000E+00 -0.00000000000E+00 -0.48591738295E+03  0.48591738295E+03  0.00000000000E+00 0.  1.
    9000007    1    1    2  501    0  0.14074232824E+03  0.26365997555E+03  0.42632182789E+02  0.50114118637E+03  0.40000000000E+03 0.  1.
   -9000007    1    1    2    0  502 -0.14074232824E+03 -0.26365997555E+03 -0.13810287390E+02  0.49951547494E+03  0.40000000000E+03 0.  1.
<mgrwt>
<rscale>  2 0.49932453E+03</rscale>
<asrwt>0</asrwt>
<pdfrwt beam="1">  1       21 0.79190658E-01 0.49932453E+03</pdfrwt>
<pdfrwt beam="2">  1       21 0.74756520E-01 0.49932453E+03</pdfrwt>
<totfact> 0.19109069E+03</totfact>
</mgrwt>
</event>
<event>
 4    1  0.4656600E-002  0.7185578E+03  0.7818608E-02  0.9686012E-01
         21   -1    0    0  503  502  0.00000000000E+00  0.00000000000E+00  0.20038147851E+04  0.20038147851E+04  0.00000000000E+00 0. -1.
         21   -1    0    0  501  503 -0.00000000000E+00 -0.00000000000E+00 -0.59076466114E+03  0.59076466114E+03  0.00000000000E+00 0. -1.
    9000007    1    1    2  501    0 -0.43009293665E+02 -0.59537842930E+03 -0.26759571251E+03  0.76676772152E+03  0.40000000000E+03 0. -1.
   -9000007    1    1    2    0  502  0.43009293665E+02  0.59537842930E+03  0.16806458365E+04  0.18278117247E+04  0.40000000000E+03 0. -1.
<mgrwt>
<rscale>  2 0.71855777E+03</rscale>
<asrwt>0</asrwt>
<pdfrwt beam="1">  1       21 0.30827920E+00 0.71855777E+03</pdfrwt>
<pdfrwt beam="2">  1       21 0.90886871E-01 0.71855777E+03</pdfrwt>
<totfact> 0.20228688E+01</totfact>
</mgrwt>
</event>
<event>
 4    1  0.4656600E-002  0.4264501E+03  0.7818608E-02  0.1034987E+00
         21   -1    0    0  503  502  0.00000000000E+00  0.00000000000E+00  0.40543784392E+03  0.40543784392E+03  0.00000000000E+00 0.  1.
         21   -1    0    0  501  503 -0.00000000000E+00 -0.00000000000E+00 -0.10420642506E+04  0.10420642506E+04  0.00000000000E+00 0.  1.
    9000007    1    1    2  501    0 -0.14371404467E+03  0.34727401153E+02 -0.86451989198E+03  0.96397840362E+03  0.40000000000E+03 0.  1.
   -9000007    1    1    2    0  502  0.14371404467E+03 -0.34727401153E+02  0.22789348530E+03  0.48352369091E+03  0.40000000000E+03 0.  1.
<mgrwt>
<rscale>  2 0.42645014E+03</rscale>
<asrwt>0</asrwt>
<pdfrwt beam="1">  1       21 0.62375053E-01 0.42645014E+03</pdfrwt>
<pdfrwt beam="2">  1       21 0.16031758E+00 0.42645014E+03</pdfrwt>
<totfact> 0.50156684E+02</totfact>
</mgrwt>
</event>
<event>
 4    1  0.4656600E-002  0.4045704E+03  0.7818608E-02  0.1042209E+00
         21   -1    0    0  501  502  0.00000000000E+00  0.00000000000E+00  0.45513263952E+03  0.45513263952E+03  0.00000000000E+00 0.  1.
         21   -1    0    0  502  503 -0.00000000000E+00 -0.00000000000E+00 -0.42699445106E+03  0.42699445106E+03  0.00000000000E+00 0.  1.
    9000007    1    1    2  501    0 -0.60485084335E+02 -0.43305442317E+01  0.18926367887E+03  0.44665192172E+03  0.40000000000E+03 0.  1.
   -9000007    1    1    2    0  503  0.60485084335E+02  0.43305442317E+01 -0.16112549041E+03  0.43547516887E+03  0.40000000000E+03 0.  1.
<mgrwt>
<rscale>  2 0.40457039E+03</rscale>
<asrwt>0</asrwt>
<pdfrwt beam="1">  1       21 0.70020406E-01 0.40457039E+03</pdfrwt>
<pdfrwt beam="2">  1       21 0.65691454E-01 0.40457039E+03</pdfrwt>
<totfact> 0.35021772E+03</totfact>
</mgrwt>
</event>
<event>
 4    1  0.4656600E-002  0.4508034E+03  0.7818608E-02  0.1027483E+00
         21   -1    0    0  503  502  0.00000000000E+00  0.00000000000E+00  0.45411659268E+03  0.45411659268E+03  0.00000000000E+00 0. -1.
         21   -1    0    0  501  503 -0.00000000000E+00 -0.00000000000E+00 -0.55461920005E+03  0.55461920005E+03  0.00000000000E+00 0. -1.
    9000007    1    1    2  501    0 -0.20168486679E+03 -0.50466597706E+02 -0.27189464204E+03  0.52645071882E+03  0.40000000000E+03 0. -1.
   -9000007    1    1    2    0  502  0.20168486679E+03  0.50466597706E+02  0.17139203466E+03  0.48228507392E+03  0.40000000000E+03 0. -1.
<mgrwt>
<rscale>  2 0.45080335E+03</rscale>
<asrwt>0</asrwt>
<pdfrwt beam="1">  1       21 0.69864092E-01 0.45080335E+03</pdfrwt>
<pdfrwt beam="2">  1       21 0.85326030E-01 0.45080335E+03</pdfrwt>
<totfact> 0.19057483E+03</totfact>
</mgrwt>
</event>
<event>
 4    1  0.4656600E-002  0.4189292E+03  0.7818608E-02  0.1037415E+00
         21   -1    0    0  503  502  0.00000000000E+00  0.00000000000E+00  0.26531267927E+03  0.26531267927E+03  0.00000000000E+00 0.  1.
         21   -1    0    0  501  503 -0.00000000000E+00 -0.00000000000E+00 -0.16028019918E+04  0.16028019918E+04  0.00000000000E+00 0.  1.
    9000007    1    1    2  501    0 -0.87902534934E+02  0.88175066591E+02 -0.13845589765E+04  0.14465494314E+04  0.40000000000E+03 0.  1.
   -9000007    1    1    2    0  502  0.87902534934E+02 -0.88175066591E+02  0.47069664005E+02  0.42156523966E+03  0.40000000000E+03 0.  1.
<mgrwt>
<rscale>  2 0.41892923E+03</rscale>
<asrwt>0</asrwt>
<pdfrwt beam="1">  1       21 0.40817335E-01 0.41892923E+03</pdfrwt>
<pdfrwt beam="2">  1       21 0.24658492E+00 0.41892923E+03</pdfrwt>
<totfact> 0.32983467E+02</totfact>
</mgrwt>
</event>
<event>
 4    1  0.4656600E-002  0.4097708E+03  0.7818608E-02  0.1040448E+00
         21   -1    0    0  501  502  0.00000000000E+00  0.00000000000E+00  0.53898353504E+03  0.53898353504E+03  0.00000000000E+00 0. -1.
         21   -1    0    0  502  503 -0.00000000000E+00 -0.00000000000E+00 -0.37022627422E+03  0.37022627422E+03  0.00000000000E+00 0. -1.
    9000007    1    1    2  501    0 -0.58559431887E+02  0.66954626544E+02  0.26538255813E+03  0.48820081036E+03  0.40000000000E+03 0. -1.
   -9000007    1    1    2    0  503  0.58559431887E+02 -0.66954626544E+02 -0.96625297309E+02  0.42100899890E+03  0.40000000000E+03 0. -1.
<mgrwt>
<rscale>  2 0.40977083E+03</rscale>
<asrwt>0</asrwt>
<pdfrwt beam="1">  1       21 0.82920544E-01 0.40977083E+03</pdfrwt>
<pdfrwt beam="2">  1       21 0.56957888E-01 0.40977083E+03</pdfrwt>
<totfact> 0.32487982E+03</totfact>
</mgrwt>
</event>
<event>
 4    1  0.4656600E-002  0.4707625E+03  0.7818608E-02  0.1021705E+00
         21   -1    0    0  503  502  0.00000000000E+00  0.00000000000E+00  0.44258190905E+03  0.44258190905E+03  0.00000000000E+00 0.  1.
         21   -1    0    0  501  503 -0.00000000000E+00 -0.00000000000E+00 -0.67976706329E+03  0.67976706329E+03  0.00000000000E+00 0.  1.
    9000007    1    1    2  501    0 -0.19240481907E+03 -0.15683645519E+03 -0.40658458005E+03  0.62203561700E+03  0.40000000000E+03 0.  1.
   -9000007    1    1    2    0  502  0.19240481907E+03  0.15683645519E+03  0.16939942581E+03  0.50031335535E+03  0.40000000000E+03 0.  1.
<mgrwt>
<rscale>  2 0.47076245E+03</rscale>
<asrwt>0</asrwt>
<pdfrwt beam="1">  1       21 0.68089524E-01 0.47076245E+03</pdfrwt>
<pdfrwt beam="2">  1       21 0.10457955E+00 0.47076245E+03</pdfrwt>
<totfact> 0.12300529E+03</totfact>
</mgrwt>
</event>
<event>
 4    1  0.4656600E-002  0.4341570E+03  0.7818608E-02  0.1032555E+00
         21   -1    0    0  503  502  0.00000000000E+00  0.00000000000E+00  0.23294529103E+03  0.23294529103E+03  0.00000000000E+00 0.  1.
         21   -1    0    0  501  503 -0.00000000000E+00 -0.00000000000E+00 -0.81431614956E+03  0.81431614956E+03  0.00000000000E+00 0.  1.
    9000007    1    1    2  501    0 -0.85407624742E+02  0.14559463676E+03 -0.24905754082E+03  0.50052164714E+03  0.40000000000E+03 0.  1.
   -9000007    1    1    2    0  502  0.85407624742E+02 -0.14559463676E+03 -0.33231331770E+03  0.54673979345E+03  0.40000000000E+03 0.  1.
<mgrwt>
<rscale>  2 0.43415695E+03</rscale>
<asrwt>0</asrwt>
<pdfrwt beam="1">  1       21 0.35837738E-01 0.43415695E+03</pdfrwt>
<pdfrwt beam="2">  1       21 0.12527941E+00 0.43415695E+03</pdfrwt>
<totfact> 0.31067725E+03</totfact>
</mgrwt>
</event>
<event>
 4    1  0.4656600E-002  0.6235300E+03  0.7818608E-02  0.9857756E-01
         21   -1    0    0  501  502  0.00000000000E+00  0.00000000000E+00  0.27689581966E+03  0.27689581966E+03  0.00000000000E+00 0. -1.
         21   -1    0    0  502  503 -0.00000000000E+00 -0.00000000000E+00 -0.14147884885E+04  0.14147884885E+04  0.00000000000E+00 0. -1.
    9000007    1    1    2  501    0 -0.47334918460E+03 -0.68776720138E+02 -0.49543029654E+03  0.79639240738E+03  0.40000000000E+03 0. -1.
   -9000007    1    1    2    0  503  0.47334918460E+03  0.68776720138E+02 -0.64246237234E+03  0.89529190081E+03  0.40000000000E+03 0. -1.
<mgrwt>
<rscale>  2 0.62353002E+03</rscale>
<asrwt>0</asrwt>
<pdfrwt beam="1">  1       21 0.42599357E-01 0.62353002E+03</pdfrwt>
<pdfrwt beam="2">  1       21 0.21765977E+00 0.62353002E+03</pdfrwt>
<totfact> 0.41850881E+02</totfact>
</mgrwt>
</event>
<event>
 4    1  0.4656600E-002  0.5326797E+03  0.7818608E-02  0.1005584E+00
         21   -1    0    0  501  502  0.00000000000E+00  0.00000000000E+00  0.13267973965E+04  0.13267973965E+04  0.00000000000E+00 0.  1.
         21   -1    0    0  502  503 -0.00000000000E+00 -0.00000000000E+00 -0.32357976482E+03  0.32357976482E+03  0.00000000000E+00 0.  1.
    9000007    1    1    2  501    0  0.14473029808E+03 -0.32062563865E+03  0.98212365437E+03  0.11172799702E+04  0.40000000000E+03 0.  1.
   -9000007    1    1    2    0  503 -0.14473029808E+03  0.32062563865E+03  0.21093977354E+02  0.53309719116E+03  0.40000000000E+03 0.  1.
<mgrwt>
<rscale>  2 0.53267970E+03</rscale>
<asrwt>0</asrwt>
<pdfrwt beam="1">  1       21 0.20412267E+00 0.53267970E+03</pdfrwt>
<pdfrwt beam="2">  1       21 0.49781503E-01 0.53267970E+03</pdfrwt>
<totfact> 0.38293952E+02</totfact>
</mgrwt>
</event>
<event>
 4    1  0.4656600E-002  0.4374126E+03  0.7818608E-02  0.1031544E+00
         21   -1    0    0  503  502  0.00000000000E+00  0.00000000000E+00  0.42287256786E+03  0.42287256786E+03  0.00000000000E+00 0.  1.
         21   -1    0    0  501  503 -0.00000000000E+00 -0.00000000000E+00 -0.45273864584E+03  0.45273864584E+03  0.00000000000E+00 0.  1.
    9000007    1    1    2  501    0 -0.17234704498E+03  0.40327075832E+02 -0.25938387048E+02  0.43818098644E+03  0.40000000000E+03 0. -1.
   -9000007    1    1    2    0  502  0.17234704498E+03 -0.40327075832E+02 -0.39276909335E+01  0.43743022725E+03  0.40000000000E+03 0. -1.
<mgrwt>
<rscale>  2 0.43741259E+03</rscale>
<asrwt>0</asrwt>
<pdfrwt beam="1">  1       21 0.65057318E-01 0.43741259E+03</pdfrwt>
<pdfrwt beam="2">  1       21 0.69652099E-01 0.43741259E+03</pdfrwt>
<totfact> 0.35774574E+03</totfact>
</mgrwt>
</event>
<event>
 4    1  0.4656600E-002  0.4210801E+03  0.7818608E-02  0.1036715E+00
         21   -1    0    0  501  502  0.00000000000E+00  0.00000000000E+00  0.79410788186E+03  0.79410788186E+03  0.00000000000E+00 0.  1.
         21   -1    0    0  502  503 -0.00000000000E+00 -0.00000000000E+00 -0.27063043963E+03  0.27063043963E+03  0.00000000000E+00 0.  1.
    9000007    1    1    2  501    0  0.13085919003E+03  0.13575353910E+02  0.48442144148E+03  0.64185087896E+03  0.40000000000E+03 0.  1.
   -9000007    1    1    2    0  503 -0.13085919003E+03 -0.13575353910E+02  0.39056000745E+02  0.42288744252E+03  0.40000000000E+03 0.  1.
<mgrwt>
<rscale>  2 0.42108006E+03</rscale>
<asrwt>0</asrwt>
<pdfrwt beam="1">  1       21 0.12217044E+00 0.42108006E+03</pdfrwt>
<pdfrwt beam="2">  1       21 0.41635453E-01 0.42108006E+03</pdfrwt>
<totfact> 0.24496219E+03</totfact>
</mgrwt>
</event>
<event>
 4    1  0.4656600E-002  0.4988765E+03  0.7818608E-02  0.1014073E+00
         21   -1    0    0  501  502  0.00000000000E+00  0.00000000000E+00  0.65444210341E+03  0.65444210341E+03  0.00000000000E+00 0.  1.
         21   -1    0    0  502  503 -0.00000000000E+00 -0.00000000000E+00 -0.44661684838E+03  0.44661684838E+03  0.00000000000E+00 0. -1.
    9000007    1    1    2  501    0  0.49930486042E+02  0.29391272744E+03  0.31606989819E+03  0.59057423355E+03  0.40000000000E+03 0.  1.
   -9000007    1    1    2    0  503 -0.49930486042E+02 -0.29391272744E+03 -0.10824464316E+03  0.51048471824E+03  0.40000000000E+03 0. -1.
<mgrwt>
<rscale>  2 0.49887648E+03</rscale>
<asrwt>0</asrwt>
<pdfrwt beam="1">  1       21 0.10068340E+00 0.49887648E+03</pdfrwt>
<pdfrwt beam="2">  1       21 0.68710285E-01 0.49887648E+03</pdfrwt>
<totfact> 0.13091743E+03</totfact>
</mgrwt>
</event>
<event>
 4    1  0.4656600E-002  0.5270370E+03  0.7818608E-02  0.1006953E+00
         21   -1    0    0  501  502  0.00000000000E+00  0.00000000000E+00  0.55157429020E+03  0.55157429020E+03  0.00000000000E+00 0. -1.
         21   -1    0    0  502  503 -0.00000000000E+00 -0.00000000000E+00 -0.63147150833E+03  0.63147150833E+03  0.00000000000E+00 0. -1.
    9000007    1    1    2  501    0  0.55377600617E+02  0.33867581729E+03 -0.30614148559E+03  0.60950028471E+03  0.40000000000E+03 0. -1.
   -9000007    1    1    2    0  503 -0.55377600617E+02 -0.33867581729E+03  0.22624426746E+03  0.57354551382E+03  0.40000000000E+03 0. -1.
<mgrwt>
<rscale>  2 0.52703699E+03</rscale>
<asrwt>0</asrwt>
<pdfrwt beam="1">  1       21 0.84857583E-01 0.52703699E+03</pdfrwt>
<pdfrwt beam="2">  1       21 0.97149463E-01 0.52703699E+03</pdfrwt>
<totfact> 0.87062088E+02</totfact>
</mgrwt>
</event>
<event>
 4    1  0.4656600E-002  0.4181483E+03  0.7818608E-02  0.1037671E+00
         21   -1    0    0  501  502  0.00000000000E+00  0.00000000000E+00  0.65137078568E+03  0.65137078568E+03  0.00000000000E+00 0.  1.
         21   -1    0    0  502  503 -0.00000000000E+00 -0.00000000000E+00 -0.27667185927E+03  0.27667185927E+03  0.00000000000E+00 0.  1.
    9000007    1    1    2  501    0 -0.64811777892E+02 -0.10318641373E+03  0.10726540088E+03  0.43168723488E+03  0.40000000000E+03 0.  1.
   -9000007    1    1    2    0  503  0.64811777892E+02  0.10318641373E+03  0.26743352553E+03  0.49635541007E+03  0.40000000000E+03 0.  1.
<mgrwt>
<rscale>  2 0.41814830E+03</rscale>
<asrwt>0</asrwt>
<pdfrwt beam="1">  1       21 0.10021089E+00 0.41814830E+03</pdfrwt>
<pdfrwt beam="2">  1       21 0.42564902E-01 0.41814830E+03</pdfrwt>
<totfact> 0.38320610E+03</totfact>
</mgrwt>
</event>
<event>
 4    1  0.4656600E-002  0.4574503E+03  0.7818608E-02  0.1025523E+00
         21   -1    0    0  503  502  0.00000000000E+00  0.00000000000E+00  0.22129450474E+04  0.22129450474E+04  0.00000000000E+00 0. -1.
         21   -1    0    0  501  503 -0.00000000000E+00 -0.00000000000E+00 -0.13521069124E+03  0.13521069124E+03  0.00000000000E+00 0.  1.
    9000007    1    1    2  501    0 -0.20230562446E+03 -0.91286446766E+02  0.39512196345E+03  0.60446848309E+03  0.40000000000E+03 0.  1.
   -9000007    1    1    2    0  502  0.20230562446E+03  0.91286446766E+02  0.16826123927E+04  0.17436872555E+04  0.40000000000E+03 0. -1.
<mgrwt>
<rscale>  2 0.45745030E+03</rscale>
<asrwt>0</asrwt>
<pdfrwt beam="1">  1       21 0.34045306E+00 0.45745030E+03</pdfrwt>
<pdfrwt beam="2">  1       21 0.20801646E-01 0.45745030E+03</pdfrwt>
<totfact> 0.33186884E+02</totfact>
</mgrwt>
</event>
<event>
 4    1  0.4656600E-002  0.4652473E+03  0.7818608E-02  0.1023270E+00
         21   -1    0    0  503  502  0.00000000000E+00  0.00000000000E+00  0.84513834786E+03  0.84513834786E+03  0.00000000000E+00 0.  1.
         21   -1    0    0  501  503 -0.00000000000E+00 -0.00000000000E+00 -0.41984853578E+03  0.41984853578E+03  0.00000000000E+00 0.  1.
    9000007    1    1    2  501    0  0.23700892035E+03  0.16788468398E+02 -0.18233467489E+03  0.49970092522E+03  0.40000000000E+03 0.  1.
   -9000007    1    1    2    0  502 -0.23700892035E+03 -0.16788468398E+02  0.60762448697E+03  0.76528595842E+03  0.40000000000E+03 0.  1.
<mgrwt>
<rscale>  2 0.46524733E+03</rscale>
<asrwt>0</asrwt>
<pdfrwt beam="1">  1       21 0.13002128E+00 0.46524733E+03</pdfrwt>
<pdfrwt beam="2">  1       21 0.64592083E-01 0.46524733E+03</pdfrwt>
<totfact> 0.80039137E+02</totfact>
</mgrwt>
</event>
<event>
 4    1  0.4656600E-002  0.4264625E+03  0.7818608E-02  0.1034983E+00
         21   -1    0    0  503  502  0.00000000000E+00  0.00000000000E+00  0.58844125977E+03  0.58844125977E+03  0.00000000000E+00 0. -1.
         21   -1    0    0  501  503 -0.00000000000E+00 -0.00000000000E+00 -0.31594846273E+03  0.31594846273E+03  0.00000000000E+00 0. -1.
    9000007    1    1    2  501    0 -0.61624925358E+02 -0.13443445120E+03  0.69531175540E+02  0.43209355175E+03  0.40000000000E+03 0. -1.
   -9000007    1    1    2    0  502  0.61624925358E+02  0.13443445120E+03  0.20296162150E+03  0.47229617074E+03  0.40000000000E+03 0. -1.
<mgrwt>
<rscale>  2 0.42646249E+03</rscale>
<asrwt>0</asrwt>
<pdfrwt beam="1">  1       21 0.90529425E-01 0.42646249E+03</pdfrwt>
<pdfrwt beam="2">  1       21 0.48607456E-01 0.42646249E+03</pdfrwt>
<totfact> 0.36896398E+03</totfact>
</mgrwt>
</event>
<event>
 4    1  0.4656600E-002  0.4912817E+03  0.7818608E-02  0.1016080E+00
         21   -1    0    0  503  502  0.00000000000E+00  0.00000000000E+00  0.20384684046E+03  0.20384684046E+03  0.00000000000E+00 0.  1.
         21   -1    0    0  501  503 -0.00000000000E+00 -0.00000000000E+00 -0.12635438127E+04  0.12635438127E+04  0.00000000000E+00 0.  1.
    9000007    1    1    2  501    0  0.73098017302E+02 -0.27570702151E+03 -0.34577835666E+03  0.60076647192E+03  0.40000000000E+03 0.  1.
   -9000007    1    1    2    0  502 -0.73098017302E+02  0.27570702151E+03 -0.71391861557E+03  0.86662418123E+03  0.40000000000E+03 0.  1.
<mgrwt>
<rscale>  2 0.49128167E+03</rscale>
<asrwt>0</asrwt>
<pdfrwt beam="1">  1       21 0.31361053E-01 0.49128167E+03</pdfrwt>
<pdfrwt beam="2">  1       21 0.19439135E+00 0.49128167E+03</pdfrwt>
<totfact> 0.11751265E+03</totfact>
</mgrwt>
</event>
<event>
 4    1  0.4656600E-002  0.4189064E+03  0.7818608E-02  0.1037423E+00
         21   -1    0    0  501  502  0.00000000000E+00  0.00000000000E+00  0.44439148566E+03  0.44439148566E+03  0.00000000000E+00 0.  1.
         21   -1    0    0  502  503 -0.00000000000E+00 -0.00000000000E+00 -0.14491840597E+04  0.14491840597E+04  0.00000000000E+00 0.  1.
    9000007    1    1    2  501    0 -0.10982313586E+03 -0.58493014838E+02  0.30516079331E+03  0.51827180488E+03  0.40000000000E+03 0.  1.
   -9000007    1    1    2    0  503  0.10982313586E+03  0.58493014838E+02 -0.13099533673E+04  0.13753037405E+04  0.40000000000E+03 0.  1.
<mgrwt>
<rscale>  2 0.41890638E+03</rscale>
<asrwt>0</asrwt>
<pdfrwt beam="1">  1       21 0.68367920E-01 0.41890638E+03</pdfrwt>
<pdfrwt beam="2">  1       21 0.22295140E+00 0.41890638E+03</pdfrwt>
<totfact> 0.15312875E+02</totfact>
</mgrwt>
</event>
<event>
 4    1  0.4656600E-002  0.4311063E+03  0.7818608E-02  0.1033511E+00
         21   -1    0    0  503  502  0.00000000000E+00  0.00000000000E+00  0.24632933588E+03  0.24632933588E+03  0.00000000000E+00 0.  1.
         21   -1    0    0  501  503 -0.00000000000E+00 -0.00000000000E+00 -0.11499410217E+04  0.11499410217E+04  0.00000000000E+00 0.  1.
    9000007    1    1    2  501    0  0.14546649950E+03 -0.68498900939E+02 -0.86120696011E+03  0.96308360491E+03  0.40000000000E+03 0.  1.
   -9000007    1    1    2    0  502 -0.14546649950E+03  0.68498900939E+02 -0.42404725690E+02  0.43318675265E+03  0.40000000000E+03 0.  1.
<mgrwt>
<rscale>  2 0.43110625E+03</rscale>
<asrwt>0</asrwt>
<pdfrwt beam="1">  1       21 0.37896821E-01 0.43110625E+03</pdfrwt>
<pdfrwt beam="2">  1       21 0.17691400E+00 0.43110625E+03</pdfrwt>
<totfact> 0.10878274E+03</totfact>
</mgrwt>
</event>
<event>
 4    1  0.4656600E-002  0.6541934E+03  0.7818608E-02  0.9798942E-01
         21   -1    0    0  501  502  0.00000000000E+00  0.00000000000E+00  0.60154254882E+03  0.60154254882E+03  0.00000000000E+00 0.  1.
         21   -1    0    0  502  503 -0.00000000000E+00 -0.00000000000E+00 -0.83136118852E+03  0.83136118852E+03  0.00000000000E+00 0. -1.
    9000007    1    1    2  501    0  0.44745504764E+03 -0.26029405728E+03  0.15718362155E+03  0.67281179151E+03  0.40000000000E+03 0.  1.
   -9000007    1    1    2    0  503 -0.44745504764E+03  0.26029405728E+03 -0.38700226125E+03  0.76009194584E+03  0.40000000000E+03 0. -1.
<mgrwt>
<rscale>  2 0.65419341E+03</rscale>
<asrwt>0</asrwt>
<pdfrwt beam="1">  1       21 0.92545008E-01 0.65419341E+03</pdfrwt>
<pdfrwt beam="2">  1       21 0.12790172E+00 0.65419341E+03</pdfrwt>
<totfact> 0.34022263E+02</totfact>
</mgrwt>
</event>
<event>
 4    1  0.4656600E-002  0.4740032E+03  0.7818608E-02  0.1020796E+00
         21   -1    0    0  501  502  0.00000000000E+00  0.00000000000E+00  0.86731114565E+03  0.86731114565E+03  0.00000000000E+00 0.  1.
         21   -1    0    0  502  503 -0.00000000000E+00 -0.00000000000E+00 -0.52603519986E+03  0.52603519986E+03  0.00000000000E+00 0.  1.
    9000007    1    1    2  501    0 -0.18536784593E+03  0.17411998978E+03  0.66695977028E+03  0.81823856198E+03  0.40000000000E+03 0.  1.
   -9000007    1    1    2    0  503  0.18536784593E+03 -0.17411998978E+03 -0.32568382449E+03  0.57510778353E+03  0.40000000000E+03 0.  1.
<mgrwt>
<rscale>  2 0.47400317E+03</rscale>
<asrwt>0</asrwt>
<pdfrwt beam="1">  1       21 0.13343248E+00 0.47400317E+03</pdfrwt>
<pdfrwt beam="2">  1       21 0.80928492E-01 0.47400317E+03</pdfrwt>
<totfact> 0.44691755E+02</totfact>
</mgrwt>
</event>
<event>
 4    1  0.4656600E-002  0.4373095E+03  0.7818608E-02  0.1031576E+00
         21   -1    0    0  501  502  0.00000000000E+00  0.00000000000E+00  0.69965834867E+03  0.69965834867E+03  0.00000000000E+00 0. -1.
         21   -1    0    0  502  503 -0.00000000000E+00 -0.00000000000E+00 -0.43168339053E+03  0.43168339053E+03  0.00000000000E+00 0. -1.
    9000007    1    1    2  501    0  0.11487948900E+03 -0.13432175670E+03  0.47659025627E+03  0.64682138469E+03  0.40000000000E+03 0. -1.
   -9000007    1    1    2    0  503 -0.11487948900E+03  0.13432175670E+03 -0.20861529813E+03  0.48452035451E+03  0.40000000000E+03 0. -1.
<mgrwt>
<rscale>  2 0.43730954E+03</rscale>
<asrwt>0</asrwt>
<pdfrwt beam="1">  1       21 0.10763975E+00 0.43730954E+03</pdfrwt>
<pdfrwt beam="2">  1       21 0.66412829E-01 0.43730954E+03</pdfrwt>
<totfact> 0.12276203E+03</totfact>
</mgrwt>
</event>
<event>
 4    1  0.4656600E-002  0.5276006E+03  0.7818608E-02  0.1006816E+00
         21   -1    0    0  503  502  0.00000000000E+00  0.00000000000E+00  0.99518779188E+03  0.99518779188E+03  0.00000000000E+00 0.  1.
         21   -1    0    0  501  503 -0.00000000000E+00 -0.00000000000E+00 -0.33081240601E+03  0.33081240601E+03  0.00000000000E+00 0.  1.
    9000007    1    1    2  501    0  0.25759555590E+03  0.22805023166E+03  0.71602221071E+02  0.53243709172E+03  0.40000000000E+03 0.  1.
   -9000007    1    1    2    0  502 -0.25759555590E+03 -0.22805023166E+03  0.59277316480E+03  0.79356310617E+03  0.40000000000E+03 0.  1.
<mgrwt>
<rscale>  2 0.52760059E+03</rscale>
<asrwt>0</asrwt>
<pdfrwt beam="1">  1       21 0.15310581E+00 0.52760059E+03</pdfrwt>
<pdfrwt beam="2">  1       21 0.50894217E-01 0.52760059E+03</pdfrwt>
<totfact> 0.84853213E+02</totfact>
</mgrwt>
</event>
<event>
 4    1  0.4656600E-002  0.4986622E+03  0.7818608E-02  0.1014129E+00
         21   -1    0    0  501  502  0.00000000000E+00  0.00000000000E+00  0.28941504852E+03  0.28941504852E+03  0.00000000000E+00 0.  1.
         21   -1    0    0  502  503 -0.00000000000E+00 -0.00000000000E+00 -0.86026721314E+03  0.86026721314E+03  0.00000000000E+00 0.  1.
    9000007    1    1    2  501    0 -0.25562421682E+02 -0.29666575069E+03 -0.26513328001E+03  0.56476513809E+03  0.40000000000E+03 0.  1.
   -9000007    1    1    2    0  503  0.25562421682E+02  0.29666575069E+03 -0.30571888460E+03  0.58491712356E+03  0.40000000000E+03 0.  1.
<mgrwt>
<rscale>  2 0.49866222E+03</rscale>
<asrwt>0</asrwt>
<pdfrwt beam="1">  1       21 0.44525392E-01 0.49866222E+03</pdfrwt>
<pdfrwt beam="2">  1       21 0.13234880E+00 0.49866222E+03</pdfrwt>
<totfact> 0.16822346E+03</totfact>
</mgrwt>
</event>
<event>
 4    1  0.4656600E-002  0.4854484E+03  0.7818608E-02  0.1017648E+00
         21   -1    0    0  503  502  0.00000000000E+00  0.00000000000E+00  0.60787147158E+03  0.60787147158E+03  0.00000000000E+00 0. -1.
         21   -1    0    0  501  503 -0.00000000000E+00 -0.00000000000E+00 -0.39480883614E+03  0.39480883614E+03  0.00000000000E+00 0.  1.
    9000007    1    1    2  501    0  0.78672990909E+02 -0.26357300476E+03  0.39168460507E+02  0.48702601228E+03  0.40000000000E+03 0.  1.
   -9000007    1    1    2    0  502 -0.78672990909E+02  0.26357300476E+03  0.17389417493E+03  0.51565429544E+03  0.40000000000E+03 0. -1.
<mgrwt>
<rscale>  2 0.48544842E+03</rscale>
<asrwt>0</asrwt>
<pdfrwt beam="1">  1       21 0.93518688E-01 0.48544842E+03</pdfrwt>
<pdfrwt beam="2">  1       21 0.60739821E-01 0.48544842E+03</pdfrwt>
<totfact> 0.20682722E+03</totfact>
</mgrwt>
</event>
<event>
 4    1  0.4656600E-002  0.6604089E+03  0.7818608E-02  0.9787441E-01
         21   -1    0    0  501  502  0.00000000000E+00  0.00000000000E+00  0.81182756491E+03  0.81182756491E+03  0.00000000000E+00 0. -1.
         21   -1    0    0  502  503 -0.00000000000E+00 -0.00000000000E+00 -0.53871959336E+03  0.53871959336E+03  0.00000000000E+00 0. -1.
    9000007    1    1    2  501    0  0.51044624806E+03 -0.12483823703E+03  0.10107244239E+03  0.66809849289E+03  0.40000000000E+03 0. -1.
   -9000007    1    1    2    0  503 -0.51044624806E+03  0.12483823703E+03  0.17203552916E+03  0.68244866538E+03  0.40000000000E+03 0. -1.
<mgrwt>
<rscale>  2 0.66040893E+03</rscale>
<asrwt>0</asrwt>
<pdfrwt beam="1">  1       21 0.12489655E+00 0.66040893E+03</pdfrwt>
<pdfrwt beam="2">  1       21 0.82879937E-01 0.66040893E+03</pdfrwt>
<totfact> 0.46957927E+02</totfact>
</mgrwt>
</event>
<event>
 4    1  0.4656600E-002  0.4635772E+03  0.7818608E-02  0.1023749E+00
         21   -1    0    0  501  502  0.00000000000E+00  0.00000000000E+00  0.36442025594E+03  0.36442025594E+03  0.00000000000E+00 0.  1.
         21   -1    0    0  502  503 -0.00000000000E+00 -0.00000000000E+00 -0.63996068445E+03  0.63996068445E+03  0.00000000000E+00 0.  1.
    9000007    1    1    2  501    0 -0.21830442127E+03 -0.85129176232E+02  0.29461782115E+01  0.46358653664E+03  0.40000000000E+03 0.  1.
   -9000007    1    1    2    0  503  0.21830442127E+03  0.85129176232E+02 -0.27848660672E+03  0.54079440374E+03  0.40000000000E+03 0.  1.
<mgrwt>
<rscale>  2 0.46357717E+03</rscale>
<asrwt>0</asrwt>
<pdfrwt beam="1">  1       21 0.56064655E-01 0.46357717E+03</pdfrwt>
<pdfrwt beam="2">  1       21 0.98455489E-01 0.46357717E+03</pdfrwt>
<totfact> 0.21938291E+03</totfact>
</mgrwt>
</event>
<event>
 4    1  0.4656600E-002  0.4171990E+03  0.7818608E-02  0.1037982E+00
         21   -1    0    0  501  502  0.00000000000E+00  0.00000000000E+00  0.26410726832E+03  0.26410726832E+03  0.00000000000E+00 0. -1.
         21   -1    0    0  502  503 -0.00000000000E+00 -0.00000000000E+00 -0.77754383976E+03  0.77754383976E+03  0.00000000000E+00 0. -1.
    9000007    1    1    2  501    0  0.11808893810E+03 -0.10490324048E+02 -0.53383639031E+02  0.42060059096E+03  0.40000000000E+03 0. -1.
   -9000007    1    1    2    0  503 -0.11808893810E+03  0.10490324048E+02 -0.46005293241E+03  0.62105051712E+03  0.40000000000E+03 0. -1.
<mgrwt>
<rscale>  2 0.41719905E+03</rscale>
<asrwt>0</asrwt>
<pdfrwt beam="1">  1       21 0.40631888E-01 0.41719905E+03</pdfrwt>
<pdfrwt beam="2">  1       21 0.11962213E+00 0.41719905E+03</pdfrwt>
<totfact> 0.27225060E+03</totfact>
</mgrwt>
</event>
<event>
 4    1  0.4656600E-002  0.4145619E+03  0.7818608E-02  0.1038851E+00
         21   -1    0    0  503  502  0.00000000000E+00  0.00000000000E+00  0.65586684503E+03  0.65586684503E+03  0.00000000000E+00 0.  1.
         21   -1    0    0  501  503 -0.00000000000E+00 -0.00000000000E+00 -0.53730826392E+03  0.53730826392E+03  0.00000000000E+00 0.  1.
    9000007    1    1    2  501    0  0.62717775110E+02 -0.89039564484E+02 -0.36773523419E+03  0.55415770844E+03  0.40000000000E+03 0.  1.
   -9000007    1    1    2    0  502 -0.62717775110E+02  0.89039564484E+02  0.48629381530E+03  0.63901740051E+03  0.40000000000E+03 0.  1.
<mgrwt>
<rscale>  2 0.41456189E+03</rscale>
<asrwt>0</asrwt>
<pdfrwt beam="1">  1       21 0.10090259E+00 0.41456189E+03</pdfrwt>
<pdfrwt beam="2">  1       21 0.82662810E-01 0.41456189E+03</pdfrwt>
<totfact> 0.88327052E+02</totfact>
</mgrwt>
</event>
<event>
 4    1  0.4656600E-002  0.4131985E+03  0.7818608E-02  0.1039303E+00
         21   -1    0    0  503  502  0.00000000000E+00  0.00000000000E+00  0.33387956255E+03  0.33387956255E+03  0.00000000000E+00 0. -1.
         21   -1    0    0  501  503 -0.00000000000E+00 -0.00000000000E+00 -0.70817629802E+03  0.70817629802E+03  0.00000000000E+00 0. -1.
    9000007    1    1    2  501    0  0.90618459037E+02 -0.50212430393E+02 -0.46182373659E+03  0.61968875814E+03  0.40000000000E+03 0.  1.
   -9000007    1    1    2    0  502 -0.90618459037E+02  0.50212430393E+02  0.87527001123E+02  0.42236710242E+03  0.40000000000E+03 0.  1.
<mgrwt>
<rscale>  2 0.41319849E+03</rscale>
<asrwt>0</asrwt>
<pdfrwt beam="1">  1       21 0.51366087E-01 0.41319849E+03</pdfrwt>
<pdfrwt beam="2">  1       21 0.10895020E+00 0.41319849E+03</pdfrwt>
<totfact> 0.21063544E+03</totfact>
</mgrwt>
</event>
<event>
 4    1  0.4656600E-002  0.6249842E+03  0.7818608E-02  0.9854886E-01
         21   -1    0    0  503  502  0.00000000000E+00  0.00000000000E+00  0.40168819340E+03  0.40168819340E+03  0.00000000000E+00 0. -1.
         21   -1    0    0  501  503 -0.00000000000E+00 -0.00000000000E+00 -0.97904804950E+03  0.97904804950E+03  0.00000000000E+00 0.  1.
    9000007    1    1    2  501    0 -0.71003697766E+02 -0.47493550432E+03 -0.23183023764E+03  0.66659621769E+03  0.40000000000E+03 0.  1.
   -9000007    1    1    2    0  502  0.71003697766E+02  0.47493550432E+03 -0.34552961846E+03  0.71414002520E+03  0.40000000000E+03 0. -1.
<mgrwt>
<rscale>  2 0.62498421E+03</rscale>
<asrwt>0</asrwt>
<pdfrwt beam="1">  1       21 0.61798183E-01 0.62498421E+03</pdfrwt>
<pdfrwt beam="2">  1       21 0.15062278E+00 0.62498421E+03</pdfrwt>
<totfact> 0.56234886E+02</totfact>
</mgrwt>
</event>
<event>
 4    1  0.4656600E-002  0.4191333E+03  0.7818608E-02  0.1037349E+00
         21   -1    0    0  501  502  0.00000000000E+00  0.00000000000E+00  0.34731729650E+03  0.34731729650E+03  0.00000000000E+00 0. -1.
         21   -1    0    0  502  503 -0.00000000000E+00 -0.00000000000E+00 -0.71372909866E+03  0.71372909866E+03  0.00000000000E+00 0. -1.
    9000007    1    1    2  501    0 -0.56020542233E+02  0.11195706143E+03  0.10314366319E+03  0.43163792699E+03  0.40000000000E+03 0. -1.
   -9000007    1    1    2    0  503  0.56020542233E+02 -0.11195706143E+03 -0.46955546535E+03  0.62940846817E+03  0.40000000000E+03 0. -1.
<mgrwt>
<rscale>  2 0.41913325E+03</rscale>
<asrwt>0</asrwt>
<pdfrwt beam="1">  1       21 0.53433430E-01 0.41913325E+03</pdfrwt>
<pdfrwt beam="2">  1       21 0.10980448E+00 0.41913325E+03</pdfrwt>
<totfact> 0.18942431E+03</totfact>
</mgrwt>
</event>
<event>
 4    1  0.4656600E-002  0.4622807E+03  0.7818608E-02  0.1024122E+00
         21   -1    0    0  501  502  0.00000000000E+00  0.00000000000E+00  0.43372574513E+03  0.43372574513E+03  0.00000000000E+00 0.  1.
         21   -1    0    0  502  503 -0.00000000000E+00 -0.00000000000E+00 -0.98411268140E+03  0.98411268140E+03  0.00000000000E+00 0.  1.
    9000007    1    1    2  501    0 -0.18121167939E+03  0.14444979381E+03  0.22575222212E+03  0.51445843513E+03  0.40000000000E+03 0.  1.
   -9000007    1    1    2    0  503  0.18121167939E+03 -0.14444979381E+03 -0.77613915839E+03  0.90337999140E+03  0.40000000000E+03 0.  1.
<mgrwt>
<rscale>  2 0.46228067E+03</rscale>
<asrwt>0</asrwt>
<pdfrwt beam="1">  1       21 0.66727038E-01 0.46228067E+03</pdfrwt>
<pdfrwt beam="2">  1       21 0.15140195E+00 0.46228067E+03</pdfrwt>
<totfact> 0.49709222E+02</totfact>
</mgrwt>
</event>
<event>
 4    1  0.4656600E-002  0.4457522E+03  0.7818608E-02  0.1028996E+00
         21   -1    0    0  501  502  0.00000000000E+00  0.00000000000E+00  0.38092644012E+03  0.38092644012E+03  0.00000000000E+00 0. -1.
         21   -1    0    0  502  503 -0.00000000000E+00 -0.00000000000E+00 -0.74570721488E+03  0.74570721488E+03  0.00000000000E+00 0. -1.
    9000007    1    1    2  501    0 -0.96761035591E+02  0.17126694109E+03  0.12641631950E+03  0.46333157561E+03  0.40000000000E+03 0. -1.
   -9000007    1    1    2    0  503  0.96761035591E+02 -0.17126694109E+03 -0.49119709425E+03  0.66330207939E+03  0.40000000000E+03 0. -1.
<mgrwt>
<rscale>  2 0.44575224E+03</rscale>
<asrwt>0</asrwt>
<pdfrwt beam="1">  1       21 0.58604068E-01 0.44575224E+03</pdfrwt>
<pdfrwt beam="2">  1       21 0.11472419E+00 0.44575224E+03</pdfrwt>
<totfact> 0.13759615E+03</totfact>
</mgrwt>
</event>
<event>
 4    1  0.4656600E-002  0.4258547E+03  0.7818608E-02  0.1035177E+00
         21   -1    0    0  503  502  0.00000000000E+00  0.00000000000E+00  0.74577974117E+03  0.74577974117E+03  0.00000000000E+00 0. -1.
         21   -1    0    0  501  503 -0.00000000000E+00 -0.00000000000E+00 -0.44655776953E+03  0.44655776953E+03  0.00000000000E+00 0.  1.
    9000007    1    1    2  501    0  0.14582689283E+03  0.93145502944E+01 -0.25272733096E+03  0.49520031031E+03  0.40000000000E+03 0.  1.
   -9000007    1    1    2    0  502 -0.14582689283E+03 -0.93145502944E+01  0.55194930260E+03  0.69713720038E+03  0.40000000000E+03 0. -1.
<mgrwt>
<rscale>  2 0.42585472E+03</rscale>
<asrwt>0</asrwt>
<pdfrwt beam="1">  1       21 0.11473534E+00 0.42585472E+03</pdfrwt>
<pdfrwt beam="2">  1       21 0.68701195E-01 0.42585472E+03</pdfrwt>
<totfact> 0.97602898E+02</totfact>
</mgrwt>
</event>
<event>
 4    1  0.4656600E-002  0.5740031E+03  0.7818608E-02  0.9960859E-01
         21   -1    0    0  503  502  0.00000000000E+00  0.00000000000E+00  0.28641917712E+03  0.28641917712E+03  0.00000000000E+00 0. -1.
         21   -1    0    0  501  503 -0.00000000000E+00 -0.00000000000E+00 -0.11661630471E+04  0.11661630471E+04  0.00000000000E+00 0. -1.
    9000007    1    1    2  501    0 -0.37522472047E+03  0.16936926833E+03 -0.52447209476E+03  0.77752846770E+03  0.40000000000E+03 0. -1.
   -9000007    1    1    2    0  502  0.37522472047E+03 -0.16936926833E+03 -0.35527177521E+03  0.67505375651E+03  0.40000000000E+03 0. -1.
<mgrwt>
<rscale>  2 0.57400308E+03</rscale>
<asrwt>0</asrwt>
<pdfrwt beam="1">  1       21 0.44064489E-01 0.57400308E+03</pdfrwt>
<pdfrwt beam="2">  1       21 0.17940970E+00 0.57400308E+03</pdfrwt>
<totfact> 0.72137932E+02</totfact>
</mgrwt>
</event>
<event>
 4    1  0.4656600E-002  0.5075627E+03  0.7818608E-02  0.1011824E+00
         21   -1    0    0  501  502  0.00000000000E+00  0.00000000000E+00  0.12319108686E+03  0.12319108686E+03  0.00000000000E+00 0. -1.
         21   -1    0    0  502  503 -0.00000000000E+00 -0.00000000000E+00 -0.21297047143E+04  0.21297047143E+04  0.00000000000E+00 0.  1.
    9000007    1    1    2  501    0 -0.23943174714E+03  0.20072949311E+03 -0.11546774907E+04  0.12613088434E+04  0.40000000000E+03 0.  1.
   -9000007    1    1    2    0  503  0.23943174714E+03 -0.20072949311E+03 -0.85183613680E+03  0.99158695782E+03  0.40000000000E+03 0.  1.
<mgrwt>
<rscale>  2 0.50756270E+03</rscale>
<asrwt>0</asrwt>
<pdfrwt beam="1">  1       21 0.18952476E-01 0.50756270E+03</pdfrwt>
<pdfrwt beam="2">  1       21 0.32764687E+00 0.50756270E+03</pdfrwt>
<totfact> 0.46100536E+02</totfact>
</mgrwt>
</event>
<event>
 4    1  0.4656600E-002  0.4851615E+03  0.7818608E-02  0.1017726E+00
         21   -1    0    0  501  502  0.00000000000E+00  0.00000000000E+00  0.45356819333E+03  0.45356819333E+03  0.00000000000E+00 0.  1.
         21   -1    0    0  502  503 -0.00000000000E+00 -0.00000000000E+00 -0.10483240253E+04  0.10483240253E+04  0.00000000000E+00 0. -1.
    9000007    1    1    2  501    0 -0.23336730628E+03 -0.14464236893E+03  0.23625185976E+03  0.53962640388E+03  0.40000000000E+03 0.  1.
   -9000007    1    1    2    0  503  0.23336730628E+03  0.14464236893E+03 -0.83100769178E+03  0.96226581480E+03  0.40000000000E+03 0. -1.
<mgrwt>
<rscale>  2 0.48516153E+03</rscale>
<asrwt>0</asrwt>
<pdfrwt beam="1">  1       21 0.69779723E-01 0.48516153E+03</pdfrwt>
<pdfrwt beam="2">  1       21 0.16128062E+00 0.48516153E+03</pdfrwt>
<totfact> 0.37364220E+02</totfact>
</mgrwt>
</event>
<event>
 4    1  0.4656600E-002  0.4395037E+03  0.7818608E-02  0.1030899E+00
         21   -1    0    0  501  502  0.00000000000E+00  0.00000000000E+00  0.12586882739E+04  0.12586882739E+04  0.00000000000E+00 0. -1.
         21   -1    0    0  502  503 -0.00000000000E+00 -0.00000000000E+00 -0.33198503454E+03  0.33198503454E+03  0.00000000000E+00 0. -1.
    9000007    1    1    2  501    0  0.17431738568E+03 -0.52696616729E+02  0.10465768455E+04  0.11351152267E+04  0.40000000000E+03 0. -1.
   -9000007    1    1    2    0  503 -0.17431738568E+03  0.52696616729E+02 -0.11987360616E+03  0.45555808172E+03  0.40000000000E+03 0. -1.
<mgrwt>
<rscale>  2 0.43950368E+03</rscale>
<asrwt>0</asrwt>
<pdfrwt beam="1">  1       21 0.19364435E+00 0.43950368E+03</pdfrwt>
<pdfrwt beam="2">  1       21 0.51074621E-01 0.43950368E+03</pdfrwt>
<totfact> 0.44502873E+02</totfact>
</mgrwt>
</event>
<event>
 4    1  0.4656600E-002  0.4212970E+03  0.7818608E-02  0.1036645E+00
         21   -1    0    0  503  502  0.00000000000E+00  0.00000000000E+00  0.12802302259E+03  0.12802302259E+03  0.00000000000E+00 0. -1.
         21   -1    0    0  501  503 -0.00000000000E+00 -0.00000000000E+00 -0.13884980006E+04  0.13884980006E+04  0.00000000000E+00 0. -1.
    9000007    1    1    2  501    0  0.12514236156E+03 -0.42785359936E+02 -0.60076718605E+03  0.73376590921E+03  0.40000000000E+03 0.  1.
   -9000007    1    1    2    0  502 -0.12514236156E+03  0.42785359936E+02 -0.65970779191E+03  0.78275511393E+03  0.40000000000E+03 0.  1.
<mgrwt>
<rscale>  2 0.42129704E+03</rscale>
<asrwt>0</asrwt>
<pdfrwt beam="1">  1       21 0.19695849E-01 0.42129704E+03</pdfrwt>
<pdfrwt beam="2">  1       21 0.21361508E+00 0.42129704E+03</pdfrwt>
<totfact> 0.22359912E+03</totfact>
</mgrwt>
</event>
<event>
 4    1  0.4656600E-002  0.5168499E+03  0.7818608E-02  0.1009472E+00
         21   -1    0    0  503  502  0.00000000000E+00  0.00000000000E+00  0.32178216905E+03  0.32178216905E+03  0.00000000000E+00 0.  1.
         21   -1    0    0  501  503 -0.00000000000E+00 -0.00000000000E+00 -0.84306913983E+03  0.84306913983E+03  0.00000000000E+00 0. -1.
    9000007    1    1    2  501    0  0.15899327662E+02  0.32692668936E+03 -0.33268654085E+03  0.61466591194E+03  0.40000000000E+03 0. -1.
   -9000007    1    1    2    0  502 -0.15899327662E+02 -0.32692668936E+03 -0.18860042992E+03  0.55018539694E+03  0.40000000000E+03 0. -1.
<mgrwt>
<rscale>  2 0.51684993E+03</rscale>
<asrwt>0</asrwt>
<pdfrwt beam="1">  1       21 0.49504949E-01 0.51684993E+03</pdfrwt>
<pdfrwt beam="2">  1       21 0.12970294E+00 0.51684993E+03</pdfrwt>
<totfact> 0.14084098E+03</totfact>
</mgrwt>
</event>
<event>
 4    1  0.4656600E-002  0.5344269E+03  0.7818608E-02  0.1005164E+00
         21   -1    0    0  503  502  0.00000000000E+00  0.00000000000E+00  0.16505134205E+04  0.16505134205E+04  0.00000000000E+00 0.  1.
         21   -1    0    0  501  503 -0.00000000000E+00 -0.00000000000E+00 -0.22012741523E+03  0.22012741523E+03  0.00000000000E+00 0.  1.
    9000007    1    1    2  501    0  0.30530807435E+03  0.17999761539E+03  0.28262407317E+03  0.60455647259E+03  0.40000000000E+03 0.  1.
   -9000007    1    1    2    0  502 -0.30530807435E+03 -0.17999761539E+03  0.11477619322E+04  0.12660843632E+04  0.40000000000E+03 0.  1.
<mgrwt>
<rscale>  2 0.53442695E+03</rscale>
<asrwt>0</asrwt>
<pdfrwt beam="1">  1       21 0.25392513E+00 0.53442695E+03</pdfrwt>
<pdfrwt beam="2">  1       21 0.33865757E-01 0.53442695E+03</pdfrwt>
<totfact> 0.41014447E+02</totfact>
</mgrwt>
</event>
<event>
 4    1  0.4656600E-002  0.6024627E+03  0.7818608E-02  0.9900310E-01
         21   -1    0    0  501  502  0.00000000000E+00  0.00000000000E+00  0.37490137835E+03  0.37490137835E+03  0.00000000000E+00 0. -1.
         21   -1    0    0  502  503 -0.00000000000E+00 -0.00000000000E+00 -0.18056290408E+04  0.18056290408E+04  0.00000000000E+00 0.  1.
    9000007    1    1    2  501    0  0.42312403701E+03  0.15468467414E+03  0.27149910486E+02  0.60307413868E+03  0.40000000000E+03 0. -1.
   -9000007    1    1    2    0  503 -0.42312403701E+03 -0.15468467414E+03 -0.14578775729E+04  0.15774562804E+04  0.40000000000E+03 0.  1.
<mgrwt>
<rscale>  2 0.60246270E+03</rscale>
<asrwt>0</asrwt>
<pdfrwt beam="1">  1       21 0.57677136E-01 0.60246270E+03</pdfrwt>
<pdfrwt beam="2">  1       21 0.27778908E+00 0.60246270E+03</pdfrwt>
<totfact> 0.92703447E+01</totfact>
</mgrwt>
</event>
<event>
 4    1  0.4656600E-002  0.4315251E+03  0.7818608E-02  0.1033379E+00
         21   -1    0    0  503  502  0.00000000000E+00  0.00000000000E+00  0.38751852119E+03  0.38751852119E+03  0.00000000000E+00 0. -1.
         21   -1    0    0  501  503 -0.00000000000E+00 -0.00000000000E+00 -0.49984824088E+03  0.49984824088E+03  0.00000000000E+00 0. -1.
    9000007    1    1    2  501    0  0.87112524364E+02 -0.13647461461E+03 -0.14339134754E+03  0.45472518171E+03  0.40000000000E+03 0. -1.
   -9000007    1    1    2    0  502 -0.87112524364E+02  0.13647461461E+03  0.31061627850E+02  0.43264158036E+03  0.40000000000E+03 0. -1.
<mgrwt>
<rscale>  2 0.43152510E+03</rscale>
<asrwt>0</asrwt>
<pdfrwt beam="1">  1       21 0.59618234E-01 0.43152510E+03</pdfrwt>
<pdfrwt beam="2">  1       21 0.76899730E-01 0.43152510E+03</pdfrwt>
<totfact> 0.34715322E+03</totfact>
</mgrwt>
</event>
<event>
 4    1  0.4656600E-002  0.4781665E+03  0.7818608E-02  0.1019640E+00
         21   -1    0    0  501  502  0.00000000000E+00  0.00000000000E+00  0.22762224914E+04  0.22762224914E+04  0.00000000000E+00 0. -1.
         21   -1    0    0  502  503 -0.00000000000E+00 -0.00000000000E+00 -0.15176284665E+03  0.15176284665E+03  0.00000000000E+00 0. -1.
    9000007    1    1    2  501    0 -0.22341423734E+03 -0.13685508634E+03  0.17681450427E+04  0.18316604839E+04  0.40000000000E+03 0. -1.
   -9000007    1    1    2    0  503  0.22341423734E+03  0.13685508634E+03  0.35631460204E+03  0.59632485420E+03  0.40000000000E+03 0. -1.
<mgrwt>
<rscale>  2 0.47816654E+03</rscale>
<asrwt>0</asrwt>
<pdfrwt beam="1">  1       21 0.35018805E+00 0.47816654E+03</pdfrwt>
<pdfrwt beam="2">  1       21 0.23348132E-01 0.47816654E+03</pdfrwt>
<totfact> 0.22875760E+02</totfact>
</mgrwt>
</event>
<event>
 4    1  0.4656600E-002  0.6007036E+03  0.7818608E-02  0.9903947E-01
         21   -1    0    0  501  502  0.00000000000E+00  0.00000000000E+00  0.15582254745E+03  0.15582254745E+03  0.00000000000E+00 0.  1.
         21   -1    0    0  502  503 -0.00000000000E+00 -0.00000000000E+00 -0.25752733246E+04  0.25752733246E+04  0.00000000000E+00 0.  1.
    9000007    1    1    2  501    0  0.78946967287E+02  0.44114865165E+03 -0.16432267898E+04  0.17495825329E+04  0.40000000000E+03 0.  1.
   -9000007    1    1    2    0  503 -0.78946967287E+02 -0.44114865165E+03 -0.77622398728E+03  0.98151333915E+03  0.40000000000E+03 0.  1.
<mgrwt>
<rscale>  2 0.60070355E+03</rscale>
<asrwt>0</asrwt>
<pdfrwt beam="1">  1       21 0.23972700E-01 0.60070355E+03</pdfrwt>
<pdfrwt beam="2">  1       21 0.39619589E+00 0.60070355E+03</pdfrwt>
<totfact> 0.10427266E+02</totfact>
</mgrwt>
</event>
<event>
 4    1  0.4656600E-002  0.5738629E+03  0.7818608E-02  0.9961167E-01
         21   -1    0    0  503  502  0.00000000000E+00  0.00000000000E+00  0.59491622214E+03  0.59491622214E+03  0.00000000000E+00 0. -1.
         21   -1    0    0  501  503 -0.00000000000E+00 -0.00000000000E+00 -0.55836649539E+03  0.55836649539E+03  0.00000000000E+00 0.  1.
    9000007    1    1    2  501    0  0.35229739023E+03 -0.21261518063E+03 -0.35255481774E+02  0.57494488014E+03  0.40000000000E+03 0. -1.
   -9000007    1    1    2    0  502 -0.35229739023E+03  0.21261518063E+03  0.71805208526E+02  0.57833783740E+03  0.40000000000E+03 0. -1.
<mgrwt>
<rscale>  2 0.57386293E+03</rscale>
<asrwt>0</asrwt>
<pdfrwt beam="1">  1       21 0.91525573E-01 0.57386293E+03</pdfrwt>
<pdfrwt beam="2">  1       21 0.85902538E-01 0.57386293E+03</pdfrwt>
<totfact> 0.96112155E+02</totfact>
</mgrwt>
</event>
<event>
 4    1  0.4656600E-002  0.4848129E+03  0.7818608E-02  0.1017821E+00
         21   -1    0    0  503  502  0.00000000000E+00  0.00000000000E+00  0.11146046703E+03  0.11146046703E+03  0.00000000000E+00 0.  1.
         21   -1    0    0  501  503 -0.00000000000E+00 -0.00000000000E+00 -0.23715173755E+04  0.23715173755E+04  0.00000000000E+00 0. -1.
    9000007    1    1    2  501    0  0.13510017103E+03  0.23830957901E+03 -0.15432720514E+04  0.16176316442E+04  0.40000000000E+03 0. -1.
   -9000007    1    1    2    0  502 -0.13510017103E+03 -0.23830957901E+03 -0.71678485706E+03  0.86534619833E+03  0.40000000000E+03 0.  1.
<mgrwt>
<rscale>  2 0.48481286E+03</rscale>
<asrwt>0</asrwt>
<pdfrwt beam="1">  1       21 0.17147764E-01 0.48481286E+03</pdfrwt>
<pdfrwt beam="2">  1       21 0.36484882E+00 0.48481286E+03</pdfrwt>
<totfact> 0.33298968E+02</totfact>
</mgrwt>
</event>
<event>
 4    1  0.4656600E-002  0.4014788E+03  0.7818608E-02  0.1043269E+00
         21   -1    0    0  501  502  0.00000000000E+00  0.00000000000E+00  0.32022468103E+03  0.32022468103E+03  0.00000000000E+00 0.  1.
         21   -1    0    0  502  503 -0.00000000000E+00 -0.00000000000E+00 -0.67189945110E+03  0.67189945110E+03  0.00000000000E+00 0.  1.
    9000007    1    1    2  501    0  0.29449789544E+02  0.17829946695E+02  0.72617264136E+02  0.40799321582E+03  0.40000000000E+03 0.  1.
   -9000007    1    1    2    0  503 -0.29449789544E+02 -0.17829946695E+02 -0.42429203420E+03  0.58413091631E+03  0.40000000000E+03 0.  1.
<mgrwt>
<rscale>  2 0.40147876E+03</rscale>
<asrwt>0</asrwt>
<pdfrwt beam="1">  1       21 0.49265336E-01 0.40147876E+03</pdfrwt>
<pdfrwt beam="2">  1       21 0.10336915E+00 0.40147876E+03</pdfrwt>
<totfact> 0.26322968E+03</totfact>
</mgrwt>
</event>
<event>
 4    1  0.4656600E-002  0.5844336E+03  0.7818608E-02  0.9938238E-01
         21   -1    0    0  501  502  0.00000000000E+00  0.00000000000E+00  0.45555822008E+03  0.45555822008E+03  0.00000000000E+00 0.  1.
         21   -1    0    0  502  503 -0.00000000000E+00 -0.00000000000E+00 -0.75045580549E+03  0.75045580549E+03  0.00000000000E+00 0.  1.
    9000007    1    1    2  501    0  0.27197954173E+03  0.32800883375E+03 -0.16571325735E+03  0.60747308566E+03  0.40000000000E+03 0.  1.
   -9000007    1    1    2    0  503 -0.27197954173E+03 -0.32800883375E+03 -0.12918432806E+03  0.59854093992E+03  0.40000000000E+03 0.  1.
<mgrwt>
<rscale>  2 0.58443363E+03</rscale>
<asrwt>0</asrwt>
<pdfrwt beam="1">  1       21 0.70085881E-01 0.58443363E+03</pdfrwt>
<pdfrwt beam="2">  1       21 0.11545474E+00 0.58443363E+03</pdfrwt>
<totfact> 0.86562282E+02</totfact>
</mgrwt>
</event>
<event>
 4    1  0.4656600E-002  0.4138432E+03  0.7818608E-02  0.1039089E+00
         21   -1    0    0  503  502  0.00000000000E+00  0.00000000000E+00  0.10872216190E+04  0.10872216190E+04  0.00000000000E+00 0.  1.
         21   -1    0    0  501  503 -0.00000000000E+00 -0.00000000000E+00 -0.19179988547E+03  0.19179988547E+03  0.00000000000E+00 0.  1.
    9000007    1    1    2  501    0 -0.76490605711E+02 -0.73589231280E+02  0.17737582217E+03  0.45025367296E+03  0.40000000000E+03 0.  1.
   -9000007    1    1    2    0  502  0.76490605711E+02  0.73589231280E+02  0.71804591140E+03  0.82876783155E+03  0.40000000000E+03 0.  1.
<mgrwt>
<rscale>  2 0.41384319E+03</rscale>
<asrwt>0</asrwt>
<pdfrwt beam="1">  1       21 0.16726486E+00 0.41384319E+03</pdfrwt>
<pdfrwt beam="2">  1       21 0.29507675E-01 0.41384319E+03</pdfrwt>
<totfact> 0.21278295E+03</totfact>
</mgrwt>
</event>
<event>
 4    1  0.4656600E-002  0.4305232E+03  0.7818608E-02  0.1033695E+00
         21   -1    0    0  503  502  0.00000000000E+00  0.00000000000E+00  0.90936411525E+03  0.90936411525E+03  0.00000000000E+00 0. -1.
         21   -1    0    0  501  503 -0.00000000000E+00 -0.00000000000E+00 -0.21331339006E+03  0.21331339006E+03  0.00000000000E+00 0.  1.
    9000007    1    1    2  501    0  0.49250932119E+02  0.15140851243E+03  0.22962961365E+03  0.48793437204E+03  0.40000000000E+03 0. -1.
   -9000007    1    1    2    0  502 -0.49250932119E+02 -0.15140851243E+03  0.46642111154E+03  0.63474313328E+03  0.40000000000E+03 0.  1.
<mgrwt>
<rscale>  2 0.43052316E+03</rscale>
<asrwt>0</asrwt>
<pdfrwt beam="1">  1       21 0.13990217E+00 0.43052316E+03</pdfrwt>
<pdfrwt beam="2">  1       21 0.32817445E-01 0.43052316E+03</pdfrwt>
<totfact> 0.27864731E+03</totfact>
</mgrwt>
</event>
<event>
 4    1  0.4656600E-002  0.7266097E+03  0.7818608E-02  0.9672778E-01
         21   -1    0    0  503  502  0.00000000000E+00  0.00000000000E+00  0.40396794637E+03  0.40396794637E+03  0.00000000000E+00 0. -1.
         21   -1    0    0  501  503 -0.00000000000E+00 -0.00000000000E+00 -0.13712890724E+04  0.13712890724E+04  0.00000000000E+00 0.  1.
    9000007    1    1    2  501    0  0.63923577648E+02 -0.60322093991E+03 -0.67594275488E+03  0.99240129685E+03  0.40000000000E+03 0.  1.
   -9000007    1    1    2    0  502 -0.63923577648E+02  0.60322093991E+03 -0.29137837113E+03  0.78285572189E+03  0.40000000000E+03 0. -1.
<mgrwt>
<rscale>  2 0.72660975E+03</rscale>
<asrwt>0</asrwt>
<pdfrwt beam="1">  1       21 0.62148915E-01 0.72660975E+03</pdfrwt>
<pdfrwt beam="2">  1       21 0.21096755E+00 0.72660975E+03</pdfrwt>
<totfact> 0.19802723E+02</totfact>
</mgrwt>
</event>
<event>
 4    1  0.4656600E-002  0.4478530E+03  0.7818608E-02  0.1028364E+00
         21   -1    0    0  503  502  0.00000000000E+00  0.00000000000E+00  0.44881346430E+03  0.44881346430E+03  0.00000000000E+00 0. -1.
         21   -1    0    0  501  503 -0.00000000000E+00 -0.00000000000E+00 -0.45893750267E+03  0.45893750267E+03  0.00000000000E+00 0.  1.
    9000007    1    1    2  501    0  0.20135804793E+03  0.52193825461E+01  0.68461429104E+02  0.45305548523E+03  0.40000000000E+03 0.  1.
   -9000007    1    1    2    0  502 -0.20135804793E+03 -0.52193825461E+01 -0.78585467475E+02  0.45469548174E+03  0.40000000000E+03 0.  1.
<mgrwt>
<rscale>  2 0.44785300E+03</rscale>
<asrwt>0</asrwt>
<pdfrwt beam="1">  1       21 0.69048226E-01 0.44785300E+03</pdfrwt>
<pdfrwt beam="2">  1       21 0.70605769E-01 0.44785300E+03</pdfrwt>
<totfact> 0.30263393E+03</totfact>
</mgrwt>
</event>
<event>
 4    1  0.4656600E-002  0.4127469E+03  0.7818608E-02  0.1039453E+00
         21   -1    0    0  503  502  0.00000000000E+00  0.00000000000E+00  0.16900903292E+04  0.16900903292E+04  0.00000000000E+00 0.  1.
         21   -1    0    0  501  503 -0.00000000000E+00 -0.00000000000E+00 -0.28178735133E+03  0.28178735133E+03  0.00000000000E+00 0.  1.
    9000007    1    1    2  501    0 -0.82133869983E+02  0.60116888591E+02 -0.86006828145E+02  0.42161260344E+03  0.40000000000E+03 0.  1.
   -9000007    1    1    2    0  502  0.82133869983E+02 -0.60116888591E+02  0.14943098060E+04  0.15502650771E+04  0.40000000000E+03 0.  1.
<mgrwt>
<rscale>  2 0.41274691E+03</rscale>
<asrwt>0</asrwt>
<pdfrwt beam="1">  1       21 0.26001389E+00 0.41274691E+03</pdfrwt>
<pdfrwt beam="2">  1       21 0.43351901E-01 0.41274691E+03</pdfrwt>
<totfact> 0.24195772E+02</totfact>
</mgrwt>
</event>
<event>
 4    1  0.4656600E-002  0.4917465E+03  0.7818608E-02  0.1015956E+00
         21   -1    0    0  501  502  0.00000000000E+00  0.00000000000E+00  0.65012354836E+03  0.65012354836E+03  0.00000000000E+00 0.  1.
         21   -1    0    0  502  503 -0.00000000000E+00 -0.00000000000E+00 -0.37448105935E+03  0.37448105935E+03  0.00000000000E+00 0.  1.
    9000007    1    1    2  501    0 -0.28341582355E+03 -0.38601297316E+02  0.17992420785E+03  0.52362898102E+03  0.40000000000E+03 0.  1.
   -9000007    1    1    2    0  503  0.28341582355E+03  0.38601297316E+02  0.95718281158E+02  0.50097562669E+03  0.40000000000E+03 0.  1.
<mgrwt>
<rscale>  2 0.49174647E+03</rscale>
<asrwt>0</asrwt>
<pdfrwt beam="1">  1       21 0.10001901E+00 0.49174647E+03</pdfrwt>
<pdfrwt beam="2">  1       21 0.57612471E-01 0.49174647E+03</pdfrwt>
<totfact> 0.19704063E+03</totfact>
</mgrwt>
</event>
<event>
 4    1  0.4656600E-002  0.4118488E+03  0.7818608E-02  0.1039752E+00
         21   -1    0    0  503  502  0.00000000000E+00  0.00000000000E+00  0.24822677357E+03  0.24822677357E+03  0.00000000000E+00 0.  1.
         21   -1    0    0  501  503 -0.00000000000E+00 -0.00000000000E+00 -0.71509824133E+03  0.71509824133E+03  0.00000000000E+00 0.  1.
    9000007    1    1    2  501    0 -0.79683256620E+02 -0.57184056517E+02 -0.13190579698E+03  0.43245644519E+03  0.40000000000E+03 0.  1.
   -9000007    1    1    2    0  502  0.79683256620E+02  0.57184056517E+02 -0.33496567078E+03  0.53086856971E+03  0.40000000000E+03 0.  1.
<mgrwt>
<rscale>  2 0.41184880E+03</rscale>
<asrwt>0</asrwt>
<pdfrwt beam="1">  1       21 0.38188735E-01 0.41184880E+03</pdfrwt>
<pdfrwt beam="2">  1       21 0.11001511E+00 0.41184880E+03</pdfrwt>
<totfact> 0.38189300E+03</totfact>
</mgrwt>
</event>
<event>
 4    1  0.4656600E-002  0.4056811E+03  0.7818608E-02  0.1041830E+00
         21   -1    0    0  503  502  0.00000000000E+00  0.00000000000E+00  0.10696939349E+04  0.10696939349E+04  0.00000000000E+00 0. -1.
         21   -1    0    0  501  503 -0.00000000000E+00 -0.00000000000E+00 -0.21067053352E+03  0.21067053352E+03  0.00000000000E+00 0. -1.
    9000007    1    1    2  501    0  0.66204668374E+02 -0.13930718236E+02  0.97053123445E+02  0.41712879521E+03  0.40000000000E+03 0. -1.
   -9000007    1    1    2    0  502 -0.66204668374E+02  0.13930718236E+02  0.76197027793E+03  0.86323567319E+03  0.40000000000E+03 0. -1.
<mgrwt>
<rscale>  2 0.40568106E+03</rscale>
<asrwt>0</asrwt>
<pdfrwt beam="1">  1       21 0.16456829E+00 0.40568106E+03</pdfrwt>
<pdfrwt beam="2">  1       21 0.32410852E-01 0.40568106E+03</pdfrwt>
<totfact> 0.18546965E+03</totfact>
</mgrwt>
</event>
<event>
 4    1  0.4656600E-002  0.6190476E+03  0.7818608E-02  0.9866658E-01
         21   -1    0    0  503  502  0.00000000000E+00  0.00000000000E+00  0.28882360396E+03  0.28882360396E+03  0.00000000000E+00 0. -1.
         21   -1    0    0  501  503 -0.00000000000E+00 -0.00000000000E+00 -0.16870123421E+04  0.16870123421E+04  0.00000000000E+00 0.  1.
    9000007    1    1    2  501    0  0.33214252530E+03  0.33600777630E+03 -0.24261322851E+03  0.66489176675E+03  0.40000000000E+03 0. -1.
   -9000007    1    1    2    0  502 -0.33214252530E+03 -0.33600777630E+03 -0.11555755097E+04  0.13109441794E+04  0.40000000000E+03 0.  1.
<mgrwt>
<rscale>  2 0.61904756E+03</rscale>
<asrwt>0</asrwt>
<pdfrwt beam="1">  1       21 0.44434402E-01 0.61904756E+03</pdfrwt>
<pdfrwt beam="2">  1       21 0.25954035E+00 0.61904756E+03</pdfrwt>
<totfact> 0.20857182E+02</totfact>
</mgrwt>
</event>
<event>
 4    1  0.4656600E-002  0.4199211E+03  0.7818608E-02  0.1037092E+00
         21   -1    0    0  503  502  0.00000000000E+00  0.00000000000E+00  0.90183143744E+03  0.90183143744E+03  0.00000000000E+00 0. -1.
         21   -1    0    0  501  503 -0.00000000000E+00 -0.00000000000E+00 -0.27027923379E+03  0.27027923379E+03  0.00000000000E+00 0. -1.
    9000007    1    1    2  501    0  0.23978921604E+02  0.12553372931E+03  0.75707674112E+01  0.41998931224E+03  0.40000000000E+03 0. -1.
   -9000007    1    1    2    0  502 -0.23978921604E+02 -0.12553372931E+03  0.62398143624E+03  0.75212135899E+03  0.40000000000E+03 0. -1.
<mgrwt>
<rscale>  2 0.41992107E+03</rscale>
<asrwt>0</asrwt>
<pdfrwt beam="1">  1       21 0.13874330E+00 0.41992107E+03</pdfrwt>
<pdfrwt beam="2">  1       21 0.41581421E-01 0.41992107E+03</pdfrwt>
<totfact> 0.17669859E+03</totfact>
</mgrwt>
</event>
<event>
 4    1  0.4656600E-002  0.5402335E+03  0.7818608E-02  0.1003780E+00
         21   -1    0    0  501  502  0.00000000000E+00  0.00000000000E+00  0.10206415247E+04  0.10206415247E+04  0.00000000000E+00 0. -1.
         21   -1    0    0  502  503 -0.00000000000E+00 -0.00000000000E+00 -0.58180295390E+03  0.58180295390E+03  0.00000000000E+00 0. -1.
    9000007    1    1    2  501    0  0.36310978686E+03  0.18645746962E+01  0.79077051863E+03  0.95769003706E+03  0.40000000000E+03 0. -1.
   -9000007    1    1    2    0  503 -0.36310978686E+03 -0.18645746962E+01 -0.35193194784E+03  0.64475444153E+03  0.40000000000E+03 0. -1.
<mgrwt>
<rscale>  2 0.54023346E+03</rscale>
<asrwt>0</asrwt>
<pdfrwt beam="1">  1       21 0.15702177E+00 0.54023346E+03</pdfrwt>
<pdfrwt beam="2">  1       21 0.89508147E-01 0.54023346E+03</pdfrwt>
<totfact> 0.22108144E+02</totfact>
</mgrwt>
</event>
<event>
 4    1  0.4656600E-002  0.7300220E+03  0.7818608E-02  0.9667225E-01
         21   -1    0    0  503  502  0.00000000000E+00  0.00000000000E+00  0.41181285356E+03  0.41181285356E+03  0.00000000000E+00 0. -1.
         21   -1    0    0  501  503 -0.00000000000E+00 -0.00000000000E+00 -0.12948015976E+04  0.12948015976E+04  0.00000000000E+00 0. -1.
    9000007    1    1    2  501    0  0.58778172820E+03  0.16566475572E+03 -0.42180931663E+03  0.84312233448E+03  0.40000000000E+03 0. -1.
   -9000007    1    1    2    0  502 -0.58778172820E+03 -0.16566475572E+03 -0.46117942741E+03  0.86349211668E+03  0.40000000000E+03 0. -1.
<mgrwt>
<rscale>  2 0.73002203E+03</rscale>
<asrwt>0</asrwt>
<pdfrwt beam="1">  1       21 0.63355825E-01 0.73002203E+03</pdfrwt>
<pdfrwt beam="2">  1       21 0.19920024E+00 0.73002203E+03</pdfrwt>
<totfact> 0.22734410E+02</totfact>
</mgrwt>
</event>
<event>
 4    1  0.4656600E-002  0.5111132E+03  0.7818608E-02  0.1010918E+00
         21   -1    0    0  503  502  0.00000000000E+00  0.00000000000E+00  0.14025425440E+04  0.14025425440E+04  0.00000000000E+00 0.  1.
         21   -1    0    0  501  503 -0.00000000000E+00 -0.00000000000E+00 -0.19089837326E+03  0.19089837326E+03  0.00000000000E+00 0.  1.
    9000007    1    1    2  501    0  0.80468028842E+02  0.30783379139E+03  0.73002029067E+03  0.89116012679E+03  0.40000000000E+03 0.  1.
   -9000007    1    1    2    0  502 -0.80468028842E+02 -0.30783379139E+03  0.48162388002E+03  0.70228079042E+03  0.40000000000E+03 0.  1.
<mgrwt>
<rscale>  2 0.51111324E+03</rscale>
<asrwt>0</asrwt>
<pdfrwt beam="1">  1       21 0.21577577E+00 0.51111324E+03</pdfrwt>
<pdfrwt beam="2">  1       21 0.29368981E-01 0.51111324E+03</pdfrwt>
<totfact> 0.95882310E+02</totfact>
</mgrwt>
</event>
<event>
 4    1  0.4656600E-002  0.5780348E+03  0.7818608E-02  0.9952055E-01
         21   -1    0    0  503  502  0.00000000000E+00  0.00000000000E+00  0.15530885610E+04  0.15530885610E+04  0.00000000000E+00 0. -1.
         21   -1    0    0  501  503 -0.00000000000E+00 -0.00000000000E+00 -0.34420025470E+03  0.34420025470E+03  0.00000000000E+00 0.  1.
    9000007    1    1    2  501    0  0.25564663931E+03 -0.32980150302E+03  0.11853449292E+04  0.13187747483E+04  0.40000000000E+03 0. -1.
   -9000007    1    1    2    0  502 -0.25564663931E+03  0.32980150302E+03  0.23543377120E+02  0.57851406741E+03  0.40000000000E+03 0. -1.
<mgrwt>
<rscale>  2 0.57803480E+03</rscale>
<asrwt>0</asrwt>
<pdfrwt beam="1">  1       21 0.23893670E+00 0.57803480E+03</pdfrwt>
<pdfrwt beam="2">  1       21 0.52953886E-01 0.57803480E+03</pdfrwt>
<totfact> 0.19619104E+02</totfact>
</mgrwt>
</event>
<event>
 4    1  0.4656600E-002  0.4477867E+03  0.7818608E-02  0.1028384E+00
         21   -1    0    0  503  502  0.00000000000E+00  0.00000000000E+00  0.42986095848E+03  0.42986095848E+03  0.00000000000E+00 0.  1.
         21   -1    0    0  501  503 -0.00000000000E+00 -0.00000000000E+00 -0.71086175477E+03  0.71086175477E+03  0.00000000000E+00 0.  1.
    9000007    1    1    2  501    0 -0.14229875473E+02  0.20077451200E+03 -0.47493390215E+03  0.65274428794E+03  0.40000000000E+03 0.  1.
   -9000007    1    1    2    0  502  0.14229875473E+02 -0.20077451200E+03  0.19393310585E+03  0.48797842531E+03  0.40000000000E+03 0.  1.
<mgrwt>
<rscale>  2 0.44778666E+03</rscale>
<asrwt>0</asrwt>
<pdfrwt beam="1">  1       21 0.66132455E-01 0.44778666E+03</pdfrwt>
<pdfrwt beam="2">  1       21 0.10936335E+00 0.44778666E+03</pdfrwt>
<totfact> 0.11863557E+03</totfact>
</mgrwt>
</event>
<event>
 4    1  0.4656600E-002  0.4241866E+03  0.7818608E-02  0.1035712E+00
         21   -1    0    0  501  502  0.00000000000E+00  0.00000000000E+00  0.22005014278E+03  0.22005014278E+03  0.00000000000E+00 0. -1.
         21   -1    0    0  502  503 -0.00000000000E+00 -0.00000000000E+00 -0.81793492317E+03  0.81793492317E+03  0.00000000000E+00 0.  1.
    9000007    1    1    2  501    0  0.20674072642E+02 -0.13966690012E+03 -0.30780082854E+03  0.52409503939E+03  0.40000000000E+03 0. -1.
   -9000007    1    1    2    0  503 -0.20674072642E+02  0.13966690012E+03 -0.29008395186E+03  0.51389002656E+03  0.40000000000E+03 0.  1.
<mgrwt>
<rscale>  2 0.42418659E+03</rscale>
<asrwt>0</asrwt>
<pdfrwt beam="1">  1       21 0.33853868E-01 0.42418659E+03</pdfrwt>
<pdfrwt beam="2">  1       21 0.12583614E+00 0.42418659E+03</pdfrwt>
<totfact> 0.34591522E+03</totfact>
</mgrwt>
</event>
<event>
 4    1  0.4656600E-002  0.4750229E+03  0.7818608E-02  0.1020512E+00
         21   -1    0    0  503  502  0.00000000000E+00  0.00000000000E+00  0.31971785163E+03  0.31971785163E+03  0.00000000000E+00 0.  1.
         21   -1    0    0  501  503 -0.00000000000E+00 -0.00000000000E+00 -0.96081934096E+03  0.96081934096E+03  0.00000000000E+00 0. -1.
    9000007    1    1    2  501    0 -0.75188062960E+02 -0.24493567455E+03 -0.65042989716E+03  0.80542273410E+03  0.40000000000E+03 0. -1.
   -9000007    1    1    2    0  502  0.75188062960E+02  0.24493567455E+03  0.93284078334E+01  0.47511445849E+03  0.40000000000E+03 0. -1.
<mgrwt>
<rscale>  2 0.47502287E+03</rscale>
<asrwt>0</asrwt>
<pdfrwt beam="1">  1       21 0.49187362E-01 0.47502287E+03</pdfrwt>
<pdfrwt beam="2">  1       21 0.14781836E+00 0.47502287E+03</pdfrwt>
<totfact> 0.10248800E+03</totfact>
</mgrwt>
</event>
<event>
 4    1  0.4656600E-002  0.8438498E+03  0.7818608E-02  0.9498629E-01
         21   -1    0    0  501  502  0.00000000000E+00  0.00000000000E+00  0.59543346366E+03  0.59543346366E+03  0.00000000000E+00 0. -1.
         21   -1    0    0  502  503 -0.00000000000E+00 -0.00000000000E+00 -0.33786834757E+04  0.33786834757E+04  0.00000000000E+00 0.  1.
    9000007    1    1    2  501    0  0.10953107664E+03 -0.73490508875E+03  0.20550992643E+03  0.86851417725E+03  0.40000000000E+03 0. -1.
   -9000007    1    1    2    0  503 -0.10953107664E+03  0.73490508875E+03 -0.29887599384E+04  0.31056027621E+04  0.40000000000E+03 0.  1.
<mgrwt>
<rscale>  2 0.84384984E+03</rscale>
<asrwt>0</asrwt>
<pdfrwt beam="1">  1       21 0.91605148E-01 0.84384984E+03</pdfrwt>
<pdfrwt beam="2">  1       21 0.51979746E+00 0.84384984E+03</pdfrwt>
<totfact> 0.73825294E-01</totfact>
</mgrwt>
</event>
<event>
 4    1  0.4656600E-002  0.5646719E+03  0.7818608E-02  0.9981539E-01
         21   -1    0    0  501  502  0.00000000000E+00  0.00000000000E+00  0.64740761415E+03  0.64740761415E+03  0.00000000000E+00 0. -1.
         21   -1    0    0  502  503 -0.00000000000E+00 -0.00000000000E+00 -0.63699704962E+03  0.63699704962E+03  0.00000000000E+00 0. -1.
    9000007    1    1    2  501    0 -0.39015634524E+03  0.81439141487E+02  0.31106240327E+03  0.64468141452E+03  0.40000000000E+03 0. -1.
   -9000007    1    1    2    0  503  0.39015634524E+03 -0.81439141487E+02 -0.30065183875E+03  0.63972324925E+03  0.40000000000E+03 0. -1.
<mgrwt>
<rscale>  2 0.56467186E+03</rscale>
<asrwt>0</asrwt>
<pdfrwt beam="1">  1       21 0.99601171E-01 0.56467186E+03</pdfrwt>
<pdfrwt beam="2">  1       21 0.97999546E-01 0.56467186E+03</pdfrwt>
<totfact> 0.57350769E+02</totfact>
</mgrwt>
</event>
<event>
 4    1  0.4656600E-002  0.6539622E+03  0.7818608E-02  0.9799373E-01
         21   -1    0    0  503  502  0.00000000000E+00  0.00000000000E+00  0.42701732550E+03  0.42701732550E+03  0.00000000000E+00 0.  1.
         21   -1    0    0  501  503 -0.00000000000E+00 -0.00000000000E+00 -0.11003711154E+04  0.11003711154E+04  0.00000000000E+00 0. -1.
    9000007    1    1    2  501    0 -0.37783072820E+03 -0.35342680178E+03 -0.56557374571E+03  0.86460408582E+03  0.40000000000E+03 0. -1.
   -9000007    1    1    2    0  502  0.37783072820E+03  0.35342680178E+03 -0.10778004417E+03  0.66278435506E+03  0.40000000000E+03 0.  1.
<mgrwt>
<rscale>  2 0.65396220E+03</rscale>
<asrwt>0</asrwt>
<pdfrwt beam="1">  1       21 0.65694974E-01 0.65396220E+03</pdfrwt>
<pdfrwt beam="2">  1       21 0.16928786E+00 0.65396220E+03</pdfrwt>
<totfact> 0.34980933E+02</totfact>
</mgrwt>
</event>
<event>
 4    1  0.4656600E-002  0.4802686E+03  0.7818608E-02  0.1019061E+00
         21   -1    0    0  501  502  0.00000000000E+00  0.00000000000E+00  0.28857888496E+03  0.28857888496E+03  0.00000000000E+00 0. -1.
         21   -1    0    0  502  503 -0.00000000000E+00 -0.00000000000E+00 -0.81361068269E+03  0.81361068269E+03  0.00000000000E+00 0.  1.
    9000007    1    1    2  501    0  0.14694025881E+03  0.22150956388E+03 -0.18939944849E+03  0.51626551079E+03  0.40000000000E+03 0. -1.
   -9000007    1    1    2    0  503 -0.14694025881E+03 -0.22150956388E+03 -0.33563234924E+03  0.58592405686E+03  0.40000000000E+03 0.  1.
<mgrwt>
<rscale>  2 0.48026860E+03</rscale>
<asrwt>0</asrwt>
<pdfrwt beam="1">  1       21 0.44396752E-01 0.48026860E+03</pdfrwt>
<pdfrwt beam="2">  1       21 0.12517087E+00 0.48026860E+03</pdfrwt>
<totfact> 0.19689879E+03</totfact>
</mgrwt>
</event>
<event>
 4    1  0.4656600E-002  0.4403184E+03  0.7818608E-02  0.1030649E+00
         21   -1    0    0  503  502  0.00000000000E+00  0.00000000000E+00  0.21379429959E+03  0.21379429959E+03  0.00000000000E+00 0.  1.
         21   -1    0    0  501  503 -0.00000000000E+00 -0.00000000000E+00 -0.12637885957E+04  0.12637885957E+04  0.00000000000E+00 0.  1.
    9000007    1    1    2  501    0 -0.78643002526E+02  0.16641975210E+03 -0.13237133256E+03  0.45978519487E+03  0.40000000000E+03 0.  1.
   -9000007    1    1    2    0  502  0.78643002526E+02 -0.16641975210E+03 -0.91762296352E+03  0.10177977004E+04  0.40000000000E+03 0.  1.
<mgrwt>
<rscale>  2 0.44031836E+03</rscale>
<asrwt>0</asrwt>
<pdfrwt beam="1">  1       21 0.32891430E-01 0.44031836E+03</pdfrwt>
<pdfrwt beam="2">  1       21 0.19442902E+00 0.44031836E+03</pdfrwt>
<totfact> 0.10915074E+03</totfact>
</mgrwt>
</event>
<event>
 4    1  0.4656600E-002  0.4631004E+03  0.7818608E-02  0.1023886E+00
         21   -1    0    0  501  502  0.00000000000E+00  0.00000000000E+00  0.18850609249E+04  0.18850609249E+04  0.00000000000E+00 0. -1.
         21   -1    0    0  502  503 -0.00000000000E+00 -0.00000000000E+00 -0.11770198317E+03  0.11770198317E+03  0.00000000000E+00 0. -1.
    9000007    1    1    2  501    0 -0.15752765984E+03 -0.17218299816E+03  0.10667234529E+04  0.11629105183E+04  0.40000000000E+03 0.  1.
   -9000007    1    1    2    0  503  0.15752765984E+03  0.17218299816E+03  0.70063548879E+03  0.83985238978E+03  0.40000000000E+03 0.  1.
<mgrwt>
<rscale>  2 0.46310037E+03</rscale>
<asrwt>0</asrwt>
<pdfrwt beam="1">  1       21 0.29000935E+00 0.46310037E+03</pdfrwt>
<pdfrwt beam="2">  1       21 0.18107999E-01 0.46310037E+03</pdfrwt>
<totfact> 0.86848893E+02</totfact>
</mgrwt>
</event>
<event>
 4    1  0.4656600E-002  0.4124607E+03  0.7818608E-02  0.1039548E+00
         21   -1    0    0  503  502  0.00000000000E+00  0.00000000000E+00  0.96764697726E+03  0.96764697726E+03  0.00000000000E+00 0. -1.
         21   -1    0    0  501  503 -0.00000000000E+00 -0.00000000000E+00 -0.18578741093E+03  0.18578741093E+03  0.00000000000E+00 0. -1.
    9000007    1    1    2  501    0  0.46150752041E+02  0.89408653833E+02  0.25729375653E+03  0.48613154233E+03  0.40000000000E+03 0. -1.
   -9000007    1    1    2    0  502 -0.46150752041E+02 -0.89408653833E+02  0.52456580980E+03  0.66730284587E+03  0.40000000000E+03 0. -1.
<mgrwt>
<rscale>  2 0.41246066E+03</rscale>
<asrwt>0</asrwt>
<pdfrwt beam="1">  1       21 0.14886876E+00 0.41246066E+03</pdfrwt>
<pdfrwt beam="2">  1       21 0.28582679E-01 0.41246066E+03</pdfrwt>
<totfact> 0.31278159E+03</totfact>
</mgrwt>
</event>
<event>
 4    1  0.4656600E-002  0.6308899E+03  0.7818608E-02  0.9843314E-01
         21   -1    0    0  501  502  0.00000000000E+00  0.00000000000E+00  0.18320318335E+04  0.18320318335E+04  0.00000000000E+00 0. -1.
         21   -1    0    0  502  503 -0.00000000000E+00 -0.00000000000E+00 -0.24439214694E+03  0.24439214694E+03  0.00000000000E+00 0. -1.
    9000007    1    1    2  501    0  0.30605996953E+03 -0.37993334738E+03  0.11397649062E+04  0.13027225701E+04  0.40000000000E+03 0. -1.
   -9000007    1    1    2    0  503 -0.30605996953E+03  0.37993334738E+03  0.44787478040E+03  0.77370141031E+03  0.40000000000E+03 0. -1.
<mgrwt>
<rscale>  2 0.63088989E+03</rscale>
<asrwt>0</asrwt>
<pdfrwt beam="1">  1       21 0.28185104E+00 0.63088989E+03</pdfrwt>
<pdfrwt beam="2">  1       21 0.37598793E-01 0.63088989E+03</pdfrwt>
<totfact> 0.21432854E+02</totfact>
</mgrwt>
</event>
