<event>
 6    1  0.9094387E-004  0.4820304E+03  0.7818608E-02  0.1018584E+00
         21   -1    0    0  501  502  0.00000000000E+00  0.00000000000E+00  0.13960410394E+03  0.13960410394E+03  0.00000000000E+00 0.  1.
         21   -1    0    0  502  503 -0.00000000000E+00 -0.00000000000E+00 -0.21612770117E+04  0.21612770117E+04  0.00000000000E+00 0.  1.
    9000007    2    1    2  501    0 -0.87088323215E+02  0.25434429849E+03 -0.45912017612E+03  0.66569108468E+03  0.40009734551E+03 0.  0.
    9000005    1    3    3    0    0 -0.11166758797E+03  0.28797908183E+01 -0.38719891317E+03  0.40299124277E+03  0.99999687468E+00 0.  0.
          4    1    3    3  501    0  0.24579264754E+02  0.25146450767E+03 -0.71921262951E+02  0.26269984191E+03  0.00000000000E+00 0.  1.
   -9000007    1    1    2    0  503  0.87088323215E+02 -0.25434429849E+03 -0.15625527316E+04  0.16351900310E+04  0.40000000000E+03 0.  1.
<mgrwt>
<rscale>  2 0.48201018E+03</rscale>
<asrwt>0</asrwt>
<pdfrwt beam="1">  1       21 0.21477556E-01 0.48203038E+03</pdfrwt>
<pdfrwt beam="2">  1       21 0.33250413E+00 0.48203038E+03</pdfrwt>
<totfact> 0.34392066E+02</totfact>
</mgrwt>
</event>
<event>
 6    1  0.9094387E-004  0.4014551E+03  0.7818608E-02  0.1043302E+00
         21   -1    0    0  501  502  0.00000000000E+00  0.00000000000E+00  0.17449124370E+03  0.17449124370E+03  0.00000000000E+00 0. -1.
         21   -1    0    0  502  503 -0.00000000000E+00 -0.00000000000E+00 -0.95802949906E+03  0.95802949906E+03  0.00000000000E+00 0. -1.
    9000007    2    1    2  501    0 -0.15531309186E+02 -0.26396748363E+02 -0.28359428549E+03  0.49151997607E+03  0.40028509618E+03 0.  0.
    9000005    1    3    3    0    0  0.36248723518E+02 -0.25978738613E+02  0.97344159817E+02  0.10707824364E+03  0.99999687468E+00 0.  0.
          4    1    3    3  501    0 -0.51780032704E+02 -0.41800974912E+00 -0.38093844531E+03  0.38444173243E+03  0.00000000000E+00 0.  1.
   -9000007    1    1    2    0  503  0.15531309186E+02  0.26396748363E+02 -0.49994396987E+03  0.64100076669E+03  0.40000000000E+03 0. -1.
<mgrwt>
<rscale>  2 0.40138398E+03</rscale>
<asrwt>0</asrwt>
<pdfrwt beam="1">  1       21 0.26844807E-01 0.40145506E+03</pdfrwt>
<pdfrwt beam="2">  1       21 0.14738915E+00 0.40145506E+03</pdfrwt>
<totfact> 0.36513002E+03</totfact>
</mgrwt>
</event>
<event>
 6    1  0.9094387E-004  0.4567414E+03  0.7818608E-02  0.1025740E+00
         21   -1    0    0  501  502  0.00000000000E+00  0.00000000000E+00  0.16338902220E+04  0.16338902220E+04  0.00000000000E+00 0. -1.
         21   -1    0    0  502  503 -0.00000000000E+00 -0.00000000000E+00 -0.64699852457E+03  0.64699852457E+03  0.00000000000E+00 0. -1.
    9000007    2    1    2  501    0 -0.13416286053E+03 -0.17462762453E+03  0.15152342630E+04  0.15825762470E+04  0.40014775444E+03 0.  0.
    9000005    1    3    3    0    0 -0.23300813724E+03 -0.24284623714E+03  0.11302259997E+04  0.11792704937E+04  0.99999687468E+00 0.  0.
          4    1    3    3  501    0  0.98845276708E+02  0.68218612608E+02  0.38500826340E+03  0.40330575339E+03  0.00000000000E+00 0.  1.
   -9000007    1    1    2    0  503  0.13416286053E+03  0.17462762453E+03 -0.52834256560E+03  0.69831249954E+03  0.40000000000E+03 0. -1.
<mgrwt>
<rscale>  2 0.45670904E+03</rscale>
<asrwt>0</asrwt>
<pdfrwt beam="1">  1       21 0.25136772E+00 0.45674140E+03</pdfrwt>
<pdfrwt beam="2">  1       21 0.99538235E-01 0.45674140E+03</pdfrwt>
<totfact> 0.41527054E+01</totfact>
</mgrwt>
</event>
<event>
 6    1  0.9094387E-004  0.4696241E+03  0.7818608E-02  0.1022037E+00
         21   -1    0    0  501  502  0.00000000000E+00  0.00000000000E+00  0.28803392747E+03  0.28803392747E+03  0.00000000000E+00 0.  1.
         21   -1    0    0  502  503 -0.00000000000E+00 -0.00000000000E+00 -0.79918849449E+03  0.79918849449E+03  0.00000000000E+00 0.  1.
    9000007    2    1    2  501    0 -0.21271079680E+03  0.12311540350E+03 -0.14392083065E+03  0.49118223641E+03  0.40017933257E+03 0.  0.
    9000005    1    3    3    0    0 -0.12688465839E+03 -0.30031980832E+02  0.11800583832E+03  0.17586362409E+03  0.99999687468E+00 0.  0.
          4    1    3    3  501    0 -0.85826138410E+02  0.15314738433E+03 -0.26192666896E+03  0.31531861232E+03  0.00000000000E+00 0.  1.
   -9000007    1    1    2    0  503  0.21271079680E+03 -0.12311540350E+03 -0.36723373638E+03  0.59604018555E+03  0.40000000000E+03 0.  1.
<mgrwt>
<rscale>  2 0.46958588E+03</rscale>
<asrwt>0</asrwt>
<pdfrwt beam="1">  1       21 0.44312912E-01 0.46962409E+03</pdfrwt>
<pdfrwt beam="2">  1       21 0.12295208E+00 0.46962409E+03</pdfrwt>
<totfact> 0.20779093E+03</totfact>
</mgrwt>
</event>
<event>
 6    1  0.9094387E-004  0.4382011E+03  0.7818608E-02  0.1031330E+00
         21   -1    0    0  501  502  0.00000000000E+00  0.00000000000E+00  0.85478934274E+02  0.85478934274E+02  0.00000000000E+00 0.  1.
         21   -1    0    0  502  503 -0.00000000000E+00 -0.00000000000E+00 -0.27164375997E+04  0.27164375997E+04  0.00000000000E+00 0.  1.
    9000007    2    1    2  501    0 -0.85259889395E+02  0.15624634511E+03 -0.18999430649E+04  0.19498214822E+04  0.40042226884E+03 0.  0.
    9000005    1    3    3    0    0  0.66607681602E+02  0.24803963747E+03 -0.99258031080E+03  0.10252691931E+04  0.99999687468E+00 0.  0.
          4    1    3    3  501    0 -0.15186757100E+03 -0.91793292357E+02 -0.90736275408E+03  0.92455228902E+03  0.00000000000E+00 0.  1.
   -9000007    1    1    2    0  503  0.85259889395E+02 -0.15624634511E+03 -0.73101560056E+03  0.85209505183E+03  0.40000000000E+03 0.  1.
<mgrwt>
<rscale>  2 0.43810456E+03</rscale>
<asrwt>0</asrwt>
<pdfrwt beam="1">  1       21 0.13150606E-01 0.43820105E+03</pdfrwt>
<pdfrwt beam="2">  1       21 0.41791345E+00 0.43820105E+03</pdfrwt>
<totfact> 0.25783366E+02</totfact>
</mgrwt>
</event>
<event>
 6    1  0.9094387E-004  0.5340856E+03  0.7818608E-02  0.1005291E+00
         21   -1    0    0  501  502  0.00000000000E+00  0.00000000000E+00  0.83218976246E+03  0.83218976246E+03  0.00000000000E+00 0.  1.
         21   -1    0    0  502  503 -0.00000000000E+00 -0.00000000000E+00 -0.10267447569E+04  0.10267447569E+04  0.00000000000E+00 0. -1.
    9000007    2    1    2  501    0  0.35122206610E+03  0.33121630102E+02  0.66158332677E+03  0.85025875028E+03  0.40099060096E+03 0.  0.
    9000005    1    3    3    0    0  0.40739713357E+01  0.13569916864E+03  0.60592050095E+02  0.14867164538E+03  0.99999687468E+00 0.  0.
          4    1    3    3  501    0  0.34714809476E+03 -0.10257753854E+03  0.60099127668E+03  0.70158710490E+03  0.00000000000E+00 0.  1.
   -9000007    1    1    2    0  503 -0.35122206610E+03 -0.33121630102E+02 -0.85613832126E+03  0.10086757691E+04  0.40000000000E+03 0. -1.
<mgrwt>
<rscale>  2 0.53389968E+03</rscale>
<asrwt>0</asrwt>
<pdfrwt beam="1">  1       21 0.12802920E+00 0.53408562E+03</pdfrwt>
<pdfrwt beam="2">  1       21 0.15796073E+00 0.53408562E+03</pdfrwt>
<totfact> 0.89679394E+01</totfact>
</mgrwt>
</event>
<event>
 6    1  0.9094387E-004  0.5290864E+03  0.7818608E-02  0.1006597E+00
         21   -1    0    0  501  502  0.00000000000E+00  0.00000000000E+00  0.17921365530E+04  0.17921365530E+04  0.00000000000E+00 0.  1.
         21   -1    0    0  502  503 -0.00000000000E+00 -0.00000000000E+00 -0.21431708193E+03  0.21431708193E+03  0.00000000000E+00 0. -1.
    9000007    2    1    2  501    0  0.12398385575E+03  0.32335796489E+03  0.26211821122E+03  0.58835555118E+03  0.39689284198E+03 0.  0.
    9000005    1    3    3    0    0  0.21336162716E+03  0.35929763586E+03  0.25968639097E+03  0.49199186653E+03  0.99999687468E+00 0.  0.
          4    1    3    3  501    0 -0.89377771404E+02 -0.35939670975E+02  0.24318202444E+01  0.96363684657E+02  0.00000000000E+00 0.  1.
   -9000007    1    1    2    0  503 -0.12398385575E+03 -0.32335796489E+03  0.13157012599E+04  0.14180980837E+04  0.40000000000E+03 0.  1.
<mgrwt>
<rscale>  2 0.52849909E+03</rscale>
<asrwt>0</asrwt>
<pdfrwt beam="1">  1       21 0.27571331E+00 0.52908635E+03</pdfrwt>
<pdfrwt beam="2">  1       21 0.32971860E-01 0.52908635E+03</pdfrwt>
<totfact> 0.31924089E+02</totfact>
</mgrwt>
</event>
<event>
 6    1  0.9094387E-004  0.4085412E+03  0.7818608E-02  0.1040865E+00
         21   -1    0    0  501  502  0.00000000000E+00  0.00000000000E+00  0.51921828478E+03  0.51921828478E+03  0.00000000000E+00 0. -1.
         21   -1    0    0  502  503 -0.00000000000E+00 -0.00000000000E+00 -0.50018211945E+03  0.50018211945E+03  0.00000000000E+00 0. -1.
    9000007    2    1    2  501    0 -0.64379575798E+02  0.52546629291E+02  0.31422827103E+03  0.51537237197E+03  0.39995424419E+03 0.  0.
    9000005    1    3    3    0    0 -0.39176877598E+02  0.84927152501E+02 -0.77519605447E+02  0.12148143147E+03  0.99999687468E+00 0.  0.
          4    1    3    3  501    0 -0.25202698200E+02 -0.32380523210E+02  0.39174787648E+03  0.39389094050E+03  0.00000000000E+00 0.  1.
   -9000007    1    1    2    0  503  0.64379575798E+02 -0.52546629291E+02 -0.29519210570E+03  0.50402803225E+03  0.40000000000E+03 0. -1.
<mgrwt>
<rscale>  2 0.40852996E+03</rscale>
<asrwt>0</asrwt>
<pdfrwt beam="1">  1       21 0.79879736E-01 0.40854116E+03</pdfrwt>
<pdfrwt beam="2">  1       21 0.76951096E-01 0.40854116E+03</pdfrwt>
<totfact> 0.18141105E+03</totfact>
</mgrwt>
</event>
<event>
 6    1  0.9094387E-004  0.4612523E+03  0.7818608E-02  0.1024451E+00
         21   -1    0    0  501  502  0.00000000000E+00  0.00000000000E+00  0.85658532292E+03  0.85658532292E+03  0.00000000000E+00 0.  1.
         21   -1    0    0  502  503 -0.00000000000E+00 -0.00000000000E+00 -0.36261776817E+03  0.36261776817E+03  0.00000000000E+00 0.  1.
    9000007    2    1    2  501    0  0.20971373171E+03  0.91468034956E+02  0.58958722613E+03  0.74857651700E+03  0.40050899355E+03 0.  0.
    9000005    1    3    3    0    0  0.19845994268E+03  0.12315133984E+03  0.93876492541E+02  0.25172683051E+03  0.99999687468E+00 0.  0.
          4    1    3    3  501    0  0.11253789022E+02 -0.31683304881E+02  0.49571073358E+03  0.49684968649E+03  0.00000000000E+00 0.  1.
   -9000007    1    1    2    0  503 -0.20971373171E+03 -0.91468034956E+02 -0.95619671380E+02  0.47062657409E+03  0.40000000000E+03 0.  1.
<mgrwt>
<rscale>  2 0.46114181E+03</rscale>
<asrwt>0</asrwt>
<pdfrwt beam="1">  1       21 0.13178236E+00 0.46125232E+03</pdfrwt>
<pdfrwt beam="2">  1       21 0.55787349E-01 0.46125232E+03</pdfrwt>
<totfact> 0.10676175E+03</totfact>
</mgrwt>
</event>
<event>
 6    1  0.9094387E-004  0.4088507E+03  0.7818608E-02  0.1040787E+00
         21   -1    0    0  501  502  0.00000000000E+00  0.00000000000E+00  0.29490001815E+03  0.29490001815E+03  0.00000000000E+00 0. -1.
         21   -1    0    0  502  503 -0.00000000000E+00 -0.00000000000E+00 -0.69409465812E+03  0.69409465812E+03  0.00000000000E+00 0. -1.
    9000007    2    1    2  501    0  0.34552359180E+01 -0.84539878677E+02  0.12621926461E+02  0.40869146748E+03  0.39963792716E+03 0.  0.
    9000005    1    3    3    0    0  0.11479564339E+03 -0.18519717908E+03  0.94743642661E+02  0.23759922706E+03  0.99999687468E+00 0.  0.
          4    1    3    3  501    0 -0.11134040748E+03  0.10065730040E+03 -0.82121716200E+02  0.17109224042E+03  0.00000000000E+00 0.  1.
   -9000007    1    1    2    0  503 -0.34552359180E+01  0.84539878677E+02 -0.41181656644E+03  0.58030320879E+03  0.40000000000E+03 0. -1.
<mgrwt>
<rscale>  2 0.40876216E+03</rscale>
<asrwt>0</asrwt>
<pdfrwt beam="1">  1       21 0.45369234E-01 0.40885074E+03</pdfrwt>
<pdfrwt beam="2">  1       21 0.10678379E+00 0.40885074E+03</pdfrwt>
<totfact> 0.28819679E+03</totfact>
</mgrwt>
</event>
<event>
 6    1  0.9094387E-004  0.4038290E+03  0.7818608E-02  0.1042512E+00
         21   -1    0    0  501  502  0.00000000000E+00  0.00000000000E+00  0.45050006150E+03  0.45050006150E+03  0.00000000000E+00 0. -1.
         21   -1    0    0  502  503 -0.00000000000E+00 -0.00000000000E+00 -0.69998136745E+03  0.69998136745E+03  0.00000000000E+00 0. -1.
    9000007    2    1    2  501    0 -0.85600580204E+01  0.50273337485E+02  0.27524656465E+03  0.48871105998E+03  0.40059598817E+03 0.  0.
    9000005    1    3    3    0    0  0.13245751331E+03  0.16810220106E+03  0.18978076881E+03  0.28604384810E+03  0.99999687468E+00 0.  0.
          4    1    3    3  501    0 -0.14101757133E+03 -0.11782886357E+03  0.85465795847E+02  0.20266721189E+03  0.00000000000E+00 0.  1.
   -9000007    1    1    2    0  503  0.85600580204E+01 -0.50273337485E+02 -0.52472787060E+03  0.66177036897E+03  0.40000000000E+03 0. -1.
<mgrwt>
<rscale>  2 0.40368108E+03</rscale>
<asrwt>0</asrwt>
<pdfrwt beam="1">  1       21 0.69307702E-01 0.40382896E+03</pdfrwt>
<pdfrwt beam="2">  1       21 0.10768944E+00 0.40382896E+03</pdfrwt>
<totfact> 0.11310231E+03</totfact>
</mgrwt>
</event>
<event>
 6    1  0.9094387E-004  0.5664886E+03  0.7818608E-02  0.9977948E-01
         21   -1    0    0  501  502  0.00000000000E+00  0.00000000000E+00  0.24411842973E+03  0.24411842973E+03  0.00000000000E+00 0. -1.
         21   -1    0    0  502  503 -0.00000000000E+00 -0.00000000000E+00 -0.13191975589E+04  0.13191975589E+04  0.00000000000E+00 0. -1.
    9000007    2    1    2  501    0 -0.36550343516E+02  0.39827481117E+03 -0.59314540682E+03  0.82020168683E+03  0.40118646614E+03 0.  0.
    9000005    1    3    3    0    0  0.74550522969E+02  0.35180397780E+03 -0.60006673185E+03  0.69957480081E+03  0.99999687468E+00 0.  0.
          4    1    3    3  501    0 -0.11110086649E+03  0.46470833375E+02  0.69213250290E+01  0.12062688601E+03  0.00000000000E+00 0.  1.
   -9000007    1    1    2    0  503  0.36550343516E+02 -0.39827481117E+03 -0.48193372236E+03  0.74311430183E+03  0.40000000000E+03 0. -1.
<mgrwt>
<rscale>  2 0.56627857E+03</rscale>
<asrwt>0</asrwt>
<pdfrwt beam="1">  1       21 0.37556682E-01 0.56648860E+03</pdfrwt>
<pdfrwt beam="2">  1       21 0.20295347E+00 0.56648860E+03</pdfrwt>
<totfact> 0.69362320E+02</totfact>
</mgrwt>
</event>
<event>
 6    1  0.9094387E-004  0.4082057E+03  0.7818608E-02  0.1041299E+00
         21   -1    0    0  501  502  0.00000000000E+00  0.00000000000E+00  0.24137147475E+04  0.24137147475E+04  0.00000000000E+00 0.  1.
         21   -1    0    0  502  503 -0.00000000000E+00 -0.00000000000E+00 -0.16868974749E+03  0.16868974749E+03  0.00000000000E+00 0.  1.
    9000007    2    1    2  501    0  0.57347639450E+02  0.15502677568E+02  0.21202748928E+04  0.21592122526E+04  0.40385993345E+03 0.  0.
    9000005    1    3    3    0    0 -0.13605327589E+03 -0.10865829383E+03  0.10710695652E+04  0.10851304678E+04  0.99999687468E+00 0.  0.
          4    1    3    3  501    0  0.19340091534E+03  0.12416097139E+03  0.10492053276E+04  0.10740817848E+04  0.00000000000E+00 0.  1.
   -9000007    1    1    2    0  503 -0.57347639450E+02 -0.15502677568E+02  0.12475010715E+03  0.42319224236E+03  0.40000000000E+03 0.  1.
<mgrwt>
<rscale>  2 0.40724777E+03</rscale>
<asrwt>0</asrwt>
<pdfrwt beam="1">  1       21 0.37134071E+00 0.40820575E+03</pdfrwt>
<pdfrwt beam="2">  1       21 0.25952271E-01 0.40820575E+03</pdfrwt>
<totfact> 0.14444121E+02</totfact>
</mgrwt>
</event>
<event>
 6    1  0.9094387E-004  0.4208952E+03  0.7818608E-02  0.1036881E+00
         21   -1    0    0  501  502  0.00000000000E+00  0.00000000000E+00  0.70746306770E+02  0.70746306770E+02  0.00000000000E+00 0.  1.
         21   -1    0    0  502  503 -0.00000000000E+00 -0.00000000000E+00 -0.25214720066E+04  0.25214720066E+04  0.00000000000E+00 0.  1.
    9000007    2    1    2  501    0  0.21254536993E+02  0.12923232513E+03 -0.13529786510E+04  0.14165477250E+04  0.39862699089E+03 0.  0.
    9000005    1    3    3    0    0 -0.14018787554E+03  0.14686289340E+03 -0.10799534513E+04  0.10988729712E+04  0.99999687468E+00 0.  0.
          4    1    3    3  501    0  0.16144241253E+03 -0.17630568270E+02 -0.27302519968E+03  0.31767475373E+03  0.00000000000E+00 0.  1.
   -9000007    1    1    2    0  503 -0.21254536993E+02 -0.12923232513E+03 -0.10977470488E+04  0.11756705884E+04  0.40000000000E+03 0.  1.
<mgrwt>
<rscale>  2 0.42056864E+03</rscale>
<asrwt>0</asrwt>
<pdfrwt beam="1">  1       21 0.10884046E-01 0.42089518E+03</pdfrwt>
<pdfrwt beam="2">  1       21 0.38791882E+00 0.42089518E+03</pdfrwt>
<totfact> 0.57364967E+02</totfact>
</mgrwt>
</event>
<event>
 6    1  0.9094387E-004  0.4409689E+03  0.7818608E-02  0.1030525E+00
         21   -1    0    0  501  502  0.00000000000E+00  0.00000000000E+00  0.50464171003E+03  0.50464171003E+03  0.00000000000E+00 0.  1.
         21   -1    0    0  502  503 -0.00000000000E+00 -0.00000000000E+00 -0.39944781186E+03  0.39944781186E+03  0.00000000000E+00 0.  1.
    9000007    2    1    2  501    0 -0.16839618850E+02 -0.18250323505E+03  0.14017282797E+03  0.46271153298E+03  0.40107672270E+03 0.  0.
    9000005    1    3    3    0    0  0.80723027231E+02  0.16484177384E+02 -0.10418252555E+03  0.13282670610E+03  0.99999687468E+00 0.  0.
          4    1    3    3  501    0 -0.97562646080E+02 -0.19898741243E+03  0.24435535352E+03  0.32988482689E+03  0.00000000000E+00 0.  1.
   -9000007    1    1    2    0  503  0.16839618850E+02  0.18250323505E+03 -0.34978929802E+02  0.44137798891E+03  0.40000000000E+03 0.  1.
<mgrwt>
<rscale>  2 0.44072389E+03</rscale>
<asrwt>0</asrwt>
<pdfrwt beam="1">  1       21 0.77637187E-01 0.44096887E+03</pdfrwt>
<pdfrwt beam="2">  1       21 0.61453509E-01 0.44096887E+03</pdfrwt>
<totfact> 0.31670898E+03</totfact>
</mgrwt>
</event>
<event>
 6    1  0.9094387E-004  0.4213869E+03  0.7818608E-02  0.1036632E+00
         21   -1    0    0  501  502  0.00000000000E+00  0.00000000000E+00  0.20831889830E+03  0.20831889830E+03  0.00000000000E+00 0. -1.
         21   -1    0    0  502  503 -0.00000000000E+00 -0.00000000000E+00 -0.18297111609E+04  0.18297111609E+04  0.00000000000E+00 0. -1.
    9000007    2    1    2  501    0  0.41388286702E+02 -0.12591244363E+03 -0.65709170459E+02  0.42628665007E+03  0.39979454624E+03 0.  0.
    9000005    1    3    3    0    0  0.11710315162E+02  0.18417113627E+02  0.15740131547E+03  0.15891033843E+03  0.99999687468E+00 0.  0.
          4    1    3    3  501    0  0.29677971540E+02 -0.14432955725E+03 -0.22311048593E+03  0.26737631163E+03  0.00000000000E+00 0.  1.
   -9000007    1    1    2    0  503 -0.41388286702E+02  0.12591244363E+03 -0.15556830921E+04  0.16117434091E+04  0.40000000000E+03 0. -1.
<mgrwt>
<rscale>  2 0.42133815E+03</rscale>
<asrwt>0</asrwt>
<pdfrwt beam="1">  1       21 0.32049061E-01 0.42138692E+03</pdfrwt>
<pdfrwt beam="2">  1       21 0.28149403E+00 0.42138692E+03</pdfrwt>
<totfact> 0.33055913E+02</totfact>
</mgrwt>
</event>
<event>
 6    1  0.9094387E-004  0.4199653E+03  0.7818608E-02  0.1037204E+00
         21   -1    0    0  501  502  0.00000000000E+00  0.00000000000E+00  0.12214474795E+04  0.12214474795E+04  0.00000000000E+00 0. -1.
         21   -1    0    0  502  503 -0.00000000000E+00 -0.00000000000E+00 -0.41780569822E+03  0.41780569822E+03  0.00000000000E+00 0. -1.
    9000007    2    1    2  501    0 -0.36335512557E+02 -0.11727105613E+03  0.10657559007E+04  0.11455158166E+04  0.40161931732E+03 0.  0.
    9000005    1    3    3    0    0 -0.15522006522E+02  0.63726808396E+02  0.88984921370E+03  0.89226378494E+03  0.99999687468E+00 0.  0.
          4    1    3    3  501    0 -0.20813506036E+02 -0.18099786453E+03  0.17590668704E+03  0.25325203167E+03  0.00000000000E+00 0.  1.
   -9000007    1    1    2    0  503  0.36335512557E+02  0.11727105613E+03 -0.26211411950E+03  0.49373736108E+03  0.40000000000E+03 0. -1.
<mgrwt>
<rscale>  2 0.41957768E+03</rscale>
<asrwt>0</asrwt>
<pdfrwt beam="1">  1       21 0.18791500E+00 0.41996529E+03</pdfrwt>
<pdfrwt beam="2">  1       21 0.64277800E-01 0.41996529E+03</pdfrwt>
<totfact> 0.29849070E+02</totfact>
</mgrwt>
</event>
<event>
 6    1  0.9094387E-004  0.4946242E+03  0.7818608E-02  0.1015292E+00
         21   -1    0    0  501  502  0.00000000000E+00  0.00000000000E+00  0.20247186849E+03  0.20247186849E+03  0.00000000000E+00 0. -1.
         21   -1    0    0  502  503 -0.00000000000E+00 -0.00000000000E+00 -0.12384601634E+04  0.12384601634E+04  0.00000000000E+00 0. -1.
    9000007    2    1    2  501    0  0.85152074702E+02 -0.27821255166E+03 -0.63628420153E+03  0.80499456484E+03  0.39812757324E+03 0.  0.
    9000005    1    3    3    0    0  0.21899026342E+03 -0.23149299197E+03 -0.55922554934E+03  0.64364583105E+03  0.99999687468E+00 0.  0.
          4    1    3    3  501    0 -0.13383818872E+03 -0.46719559685E+02 -0.77058652194E+02  0.16134873379E+03  0.00000000000E+00 0.  1.
   -9000007    1    1    2    0  503 -0.85152074702E+02  0.27821255166E+03 -0.39970409334E+03  0.63593746702E+03  0.40000000000E+03 0. -1.
<mgrwt>
<rscale>  2 0.49424552E+03</rscale>
<asrwt>0</asrwt>
<pdfrwt beam="1">  1       21 0.31149518E-01 0.49462420E+03</pdfrwt>
<pdfrwt beam="2">  1       21 0.19053234E+00 0.49462420E+03</pdfrwt>
<totfact> 0.12638932E+03</totfact>
</mgrwt>
</event>
<event>
 6    1  0.9094387E-004  0.4041097E+03  0.7818608E-02  0.1042394E+00
         21   -1    0    0  501  502  0.00000000000E+00  0.00000000000E+00  0.17415652593E+04  0.17415652593E+04  0.00000000000E+00 0.  1.
         21   -1    0    0  502  503 -0.00000000000E+00 -0.00000000000E+00 -0.24356010513E+03  0.24356010513E+03  0.00000000000E+00 0.  1.
    9000007    2    1    2  501    0 -0.46715125778E+02 -0.29220403446E+02  0.15277128131E+04  0.15802566450E+04  0.40033547141E+03 0.  0.
    9000005    1    3    3    0    0 -0.18963716562E+03  0.34747219537E+02  0.42758379589E+03  0.46904000507E+03  0.99999687468E+00 0.  0.
          4    1    3    3  501    0  0.14292203984E+03 -0.63967622983E+02  0.11001290172E+04  0.11112166399E+04  0.00000000000E+00 0.  1.
   -9000007    1    1    2    0  503  0.46715125778E+02  0.29220403446E+02 -0.29707659001E+02  0.40486871941E+03  0.40000000000E+03 0.  1.
<mgrwt>
<rscale>  2 0.40402656E+03</rscale>
<asrwt>0</asrwt>
<pdfrwt beam="1">  1       21 0.26793311E+00 0.40410967E+03</pdfrwt>
<pdfrwt beam="2">  1       21 0.37470787E-01 0.40410967E+03</pdfrwt>
<totfact> 0.29415338E+02</totfact>
</mgrwt>
</event>
<event>
 6    1  0.9094387E-004  0.5113899E+03  0.7818608E-02  0.1010849E+00
         21   -1    0    0  501  502  0.00000000000E+00  0.00000000000E+00  0.23253162205E+04  0.23253162205E+04  0.00000000000E+00 0.  1.
         21   -1    0    0  502  503 -0.00000000000E+00 -0.00000000000E+00 -0.11326817573E+03  0.11326817573E+03  0.00000000000E+00 0. -1.
    9000007    2    1    2  501    0 -0.17456883633E+03  0.26654327587E+03  0.12087720871E+04  0.13124928175E+04  0.39998480073E+03 0.  0.
    9000005    1    3    3    0    0 -0.27858296245E+03  0.67495397044E+02  0.69333609816E+03  0.75025331762E+03  0.99999687468E+00 0.  0.
          4    1    3    3  501    0  0.10401412611E+03  0.19904787882E+03  0.51543598893E+03  0.56223949984E+03  0.00000000000E+00 0.  1.
   -9000007    1    1    2    0  503  0.17456883633E+03 -0.26654327587E+03  0.10032759577E+04  0.11260915788E+04  0.40000000000E+03 0.  1.
<mgrwt>
<rscale>  2 0.51138690E+03</rscale>
<asrwt>0</asrwt>
<pdfrwt beam="1">  1       21 0.35774092E+00 0.51138987E+03</pdfrwt>
<pdfrwt beam="2">  1       21 0.17425875E-01 0.51138987E+03</pdfrwt>
<totfact> 0.35238912E+02</totfact>
</mgrwt>
</event>
<event>
 6    1  0.9094387E-004  0.4183455E+03  0.7818608E-02  0.1037621E+00
         21   -1    0    0  501  502  0.00000000000E+00  0.00000000000E+00  0.90668420273E+03  0.90668420273E+03  0.00000000000E+00 0.  1.
         21   -1    0    0  502  503 -0.00000000000E+00 -0.00000000000E+00 -0.19511399375E+03  0.19511399375E+03  0.00000000000E+00 0.  1.
    9000007    2    1    2  501    0  0.76261636402E+02 -0.95901658697E+02  0.41383551341E+03  0.58832091921E+03  0.39981083839E+03 0.  0.
    9000005    1    3    3    0    0 -0.10095039174E+03  0.68382394566E+02  0.16184763408E+02  0.12300439032E+03  0.99999687468E+00 0.  0.
          4    1    3    3  501    0  0.17721202814E+03 -0.16428405326E+03  0.39765075001E+03  0.46531652889E+03  0.00000000000E+00 0.  1.
   -9000007    1    1    2    0  503 -0.76261636402E+02  0.95901658697E+02  0.29773469556E+03  0.51347727727E+03  0.40000000000E+03 0.  1.
<mgrwt>
<rscale>  2 0.41830029E+03</rscale>
<asrwt>0</asrwt>
<pdfrwt beam="1">  1       21 0.13948987E+00 0.41834551E+03</pdfrwt>
<pdfrwt beam="2">  1       21 0.30017538E-01 0.41834551E+03</pdfrwt>
<totfact> 0.33712951E+03</totfact>
</mgrwt>
</event>
<event>
 6    1  0.9094387E-004  0.6320811E+03  0.7818608E-02  0.9841163E-01
         21   -1    0    0  501  502  0.00000000000E+00  0.00000000000E+00  0.12405739024E+04  0.12405739024E+04  0.00000000000E+00 0.  1.
         21   -1    0    0  502  503 -0.00000000000E+00 -0.00000000000E+00 -0.35583173117E+03  0.35583173117E+03  0.00000000000E+00 0.  1.
    9000007    2    1    2  501    0 -0.45711710153E+03  0.17359714837E+03  0.68905912456E+03  0.93505559828E+03  0.40054273217E+03 0.  0.
    9000005    1    3    3    0    0 -0.90661036524E+02  0.14000571299E+03  0.15488656146E+02  0.16751692952E+03  0.99999687468E+00 0.  0.
          4    1    3    3  501    0 -0.36645606501E+03  0.33591435373E+02  0.67357046842E+03  0.76753866875E+03  0.00000000000E+00 0.  1.
   -9000007    1    1    2    0  503  0.45711710153E+03 -0.17359714837E+03  0.19568304668E+03  0.66135003530E+03  0.40000000000E+03 0.  1.
<mgrwt>
<rscale>  2 0.63199512E+03</rscale>
<asrwt>0</asrwt>
<pdfrwt beam="1">  1       21 0.19085752E+00 0.63208108E+03</pdfrwt>
<pdfrwt beam="2">  1       21 0.54743344E-01 0.63208108E+03</pdfrwt>
<totfact> 0.36967670E+02</totfact>
</mgrwt>
</event>
<event>
 6    1  0.9094387E-004  0.5743389E+03  0.7818608E-02  0.9961430E-01
         21   -1    0    0  501  502  0.00000000000E+00  0.00000000000E+00  0.73380590503E+03  0.73380590503E+03  0.00000000000E+00 0.  1.
         21   -1    0    0  502  503 -0.00000000000E+00 -0.00000000000E+00 -0.45456205658E+03  0.45456205658E+03  0.00000000000E+00 0. -1.
    9000007    2    1    2  501    0 -0.12830141662E+03 -0.38816928629E+03  0.21309627416E+03  0.61259704371E+03  0.40339616703E+03 0.  0.
    9000005    1    3    3    0    0 -0.13056759125E+03 -0.36684209923E+03 -0.89773181564E+01  0.38949019742E+03  0.99999687468E+00 0.  0.
          4    1    3    3  501    0  0.22661746314E+01 -0.21327187062E+02  0.22207359232E+03  0.22310684629E+03  0.00000000000E+00 0.  1.
   -9000007    1    1    2    0  503  0.12830141662E+03  0.38816928629E+03  0.66147574291E+02  0.57577091791E+03  0.40000000000E+03 0.  1.
<mgrwt>
<rscale>  2 0.57374286E+03</rscale>
<asrwt>0</asrwt>
<pdfrwt beam="1">  1       21 0.11289322E+00 0.57433885E+03</pdfrwt>
<pdfrwt beam="2">  1       21 0.69932624E-01 0.57433885E+03</pdfrwt>
<totfact> 0.92343413E+02</totfact>
</mgrwt>
</event>
<event>
 6    1  0.9094387E-004  0.4211362E+03  0.7818608E-02  0.1036718E+00
         21   -1    0    0  501  502  0.00000000000E+00  0.00000000000E+00  0.31482072670E+03  0.31482072670E+03  0.00000000000E+00 0.  1.
         21   -1    0    0  502  503 -0.00000000000E+00 -0.00000000000E+00 -0.14566022594E+04  0.14566022594E+04  0.00000000000E+00 0.  1.
    9000007    2    1    2  501    0  0.60209018608E+02 -0.11624397945E+03  0.12277363338E+03  0.43866736082E+03  0.40027228197E+03 0.  0.
    9000005    1    3    3    0    0  0.16807417127E+03  0.86474471991E+02  0.31802453237E+02  0.19167461329E+03  0.99999687468E+00 0.  0.
          4    1    3    3  501    0 -0.10786515266E+03 -0.20271845144E+03  0.90971180139E+02  0.24699274753E+03  0.00000000000E+00 0.  1.
   -9000007    1    1    2    0  503 -0.60209018608E+02  0.11624397945E+03 -0.12645551661E+04  0.13327556253E+04  0.40000000000E+03 0.  1.
<mgrwt>
<rscale>  2 0.42107148E+03</rscale>
<asrwt>0</asrwt>
<pdfrwt beam="1">  1       21 0.48433957E-01 0.42113619E+03</pdfrwt>
<pdfrwt beam="2">  1       21 0.22409266E+00 0.42113619E+03</pdfrwt>
<totfact> 0.31817881E+02</totfact>
</mgrwt>
</event>
<event>
 6    1  0.9094387E-004  0.5262780E+03  0.7818608E-02  0.1007236E+00
         21   -1    0    0  501  502  0.00000000000E+00  0.00000000000E+00  0.29712851934E+03  0.29712851934E+03  0.00000000000E+00 0.  1.
         21   -1    0    0  502  503 -0.00000000000E+00 -0.00000000000E+00 -0.11176553629E+04  0.11176553629E+04  0.00000000000E+00 0. -1.
    9000007    2    1    2  501    0  0.24623200898E+03  0.23382246522E+03 -0.12041444920E+03  0.53987788030E+03  0.40207628452E+03 0.  0.
    9000005    1    3    3    0    0  0.16268291251E+03 -0.93351028336E+02 -0.26821129587E+02  0.18947431884E+03  0.99999687468E+00 0.  0.
          4    1    3    3  501    0  0.83549096467E+02  0.32717349356E+03 -0.93593319617E+02  0.35040356146E+03  0.00000000000E+00 0.  1.
   -9000007    1    1    2    0  503 -0.24623200898E+03 -0.23382246522E+03 -0.70011239433E+03  0.87490600191E+03  0.40000000000E+03 0.  1.
<mgrwt>
<rscale>  2 0.52588136E+03</rscale>
<asrwt>0</asrwt>
<pdfrwt beam="1">  1       21 0.45712080E-01 0.52627796E+03</pdfrwt>
<pdfrwt beam="2">  1       21 0.17194698E+00 0.52627796E+03</pdfrwt>
<totfact> 0.76918111E+02</totfact>
</mgrwt>
</event>
<event>
 6    1  0.9094387E-004  0.4419921E+03  0.7818608E-02  0.1030226E+00
         21   -1    0    0  501  502  0.00000000000E+00  0.00000000000E+00  0.48603761885E+03  0.48603761885E+03  0.00000000000E+00 0.  1.
         21   -1    0    0  502  503 -0.00000000000E+00 -0.00000000000E+00 -0.70599148922E+03  0.70599148922E+03  0.00000000000E+00 0.  1.
    9000007    2    1    2  501    0  0.12258065425E+03 -0.13893036053E+03  0.28176123098E+03  0.52416257590E+03  0.40128462818E+03 0.  0.
    9000005    1    3    3    0    0 -0.21194514432E+02 -0.65898338435E+02 -0.93139336293E+02  0.11605056833E+03  0.99999687468E+00 0.  0.
          4    1    3    3  501    0  0.14377516869E+03 -0.73032022099E+02  0.37490056727E+03  0.40811200757E+03  0.00000000000E+00 0.  1.
   -9000007    1    1    2    0  503 -0.12258065425E+03  0.13893036053E+03 -0.50171510135E+03  0.66786653218E+03  0.40000000000E+03 0.  1.
<mgrwt>
<rscale>  2 0.44170031E+03</rscale>
<asrwt>0</asrwt>
<pdfrwt beam="1">  1       21 0.74775019E-01 0.44199210E+03</pdfrwt>
<pdfrwt beam="2">  1       21 0.10861407E+00 0.44199210E+03</pdfrwt>
<totfact> 0.91718718E+02</totfact>
</mgrwt>
</event>
<event>
 6    1  0.9094387E-004  0.4540849E+03  0.7818608E-02  0.1026576E+00
         21   -1    0    0  501  502  0.00000000000E+00  0.00000000000E+00  0.21247496823E+03  0.21247496823E+03  0.00000000000E+00 0.  1.
         21   -1    0    0  502  503 -0.00000000000E+00 -0.00000000000E+00 -0.13180590355E+04  0.13180590355E+04  0.00000000000E+00 0.  1.
    9000007    2    1    2  501    0  0.67232643514E+01 -0.21482053705E+03 -0.15833565017E+03  0.48007094911E+03  0.39900485291E+03 0.  0.
    9000005    1    3    3    0    0  0.19739501202E+03 -0.14873340027E+03 -0.54386597103E+02  0.25307176268E+03  0.99999687468E+00 0.  0.
          4    1    3    3  501    0 -0.19067174767E+03 -0.66087136773E+02 -0.10394905307E+03  0.22699918643E+03  0.00000000000E+00 0.  1.
   -9000007    1    1    2    0  503 -0.67232643514E+01  0.21482053705E+03 -0.94724841708E+03  0.10504630546E+04  0.40000000000E+03 0.  1.
<mgrwt>
<rscale>  2 0.45386561E+03</rscale>
<asrwt>0</asrwt>
<pdfrwt beam="1">  1       21 0.32688457E-01 0.45408487E+03</pdfrwt>
<pdfrwt beam="2">  1       21 0.20277831E+00 0.45408487E+03</pdfrwt>
<totfact> 0.96556718E+02</totfact>
</mgrwt>
</event>
<event>
 6    1  0.9094387E-004  0.4209894E+03  0.7818608E-02  0.1037033E+00
         21   -1    0    0  501  502  0.00000000000E+00  0.00000000000E+00  0.26882070521E+03  0.26882070521E+03  0.00000000000E+00 0.  1.
         21   -1    0    0  502  503 -0.00000000000E+00 -0.00000000000E+00 -0.72421736399E+03  0.72421736399E+03  0.00000000000E+00 0.  1.
    9000007    2    1    2  501    0 -0.11608465580E+03 -0.28156760715E+02 -0.73709033637E+02  0.42739339835E+03  0.40368755842E+03 0.  0.
    9000005    1    3    3    0    0  0.96495086049E+02 -0.53669959255E+02 -0.16178886919E+03  0.19587854488E+03  0.99999687468E+00 0.  0.
          4    1    3    3  501    0 -0.21257974185E+03  0.25513198540E+02  0.88079835549E+02  0.23151485347E+03  0.00000000000E+00 0.  1.
   -9000007    1    1    2    0  503  0.11608465580E+03  0.28156760715E+02 -0.38168762514E+03  0.56564467086E+03  0.40000000000E+03 0.  1.
<mgrwt>
<rscale>  2 0.42010295E+03</rscale>
<asrwt>0</asrwt>
<pdfrwt beam="1">  1       21 0.41357032E-01 0.42098942E+03</pdfrwt>
<pdfrwt beam="2">  1       21 0.11141806E+00 0.42098942E+03</pdfrwt>
<totfact> 0.31308330E+03</totfact>
</mgrwt>
</event>
<event>
 6    1  0.9094387E-004  0.4239397E+03  0.7818608E-02  0.1035818E+00
         21   -1    0    0  501  502  0.00000000000E+00  0.00000000000E+00  0.22726220111E+03  0.22726220111E+03  0.00000000000E+00 0.  1.
         21   -1    0    0  502  503 -0.00000000000E+00 -0.00000000000E+00 -0.80189525994E+03  0.80189525994E+03  0.00000000000E+00 0.  1.
    9000007    2    1    2  501    0 -0.87826350341E+02  0.10959653354E+03 -0.34931886187E+03  0.54906230868E+03  0.39965095217E+03 0.  0.
    9000005    1    3    3    0    0 -0.19769564426E+02  0.21386572412E+02 -0.41745212236E+03  0.41846803416E+03  0.99999687468E+00 0.  0.
          4    1    3    3  501    0 -0.68056785915E+02  0.88209961130E+02  0.68133260489E+02  0.13059427452E+03  0.00000000000E+00 0.  1.
   -9000007    1    1    2    0  503  0.87826350341E+02 -0.10959653354E+03 -0.22531419695E+03  0.48009515237E+03  0.40000000000E+03 0.  1.
<mgrwt>
<rscale>  2 0.42385734E+03</rscale>
<asrwt>0</asrwt>
<pdfrwt beam="1">  1       21 0.34963415E-01 0.42393970E+03</pdfrwt>
<pdfrwt beam="2">  1       21 0.12336850E+00 0.42393970E+03</pdfrwt>
<totfact> 0.34105710E+03</totfact>
</mgrwt>
</event>
<event>
 6    1  0.9094387E-004  0.4463888E+03  0.7818608E-02  0.1028814E+00
         21   -1    0    0  501  502  0.00000000000E+00  0.00000000000E+00  0.14720529806E+04  0.14720529806E+04  0.00000000000E+00 0. -1.
         21   -1    0    0  502  503 -0.00000000000E+00 -0.00000000000E+00 -0.14007031438E+03  0.14007031438E+03  0.00000000000E+00 0. -1.
    9000007    2    1    2  501    0  0.52543720430E+02 -0.19105531586E+03  0.51754049602E+03  0.68337196934E+03  0.39985760864E+03 0.  0.
    9000005    1    3    3    0    0 -0.13556489723E+03 -0.18846882787E+03  0.16851342940E+03  0.28687299685E+03  0.99999687468E+00 0.  0.
          4    1    3    3  501    0  0.18810861766E+03 -0.25864879962E+01  0.34902706662E+03  0.39649897250E+03  0.00000000000E+00 0.  1.
   -9000007    1    1    2    0  503 -0.52543720430E+02  0.19105531586E+03  0.81444217015E+03  0.92875132560E+03  0.40000000000E+03 0.  1.
<mgrwt>
<rscale>  2 0.44635692E+03</rscale>
<asrwt>0</asrwt>
<pdfrwt beam="1">  1       21 0.22646968E+00 0.44638882E+03</pdfrwt>
<pdfrwt beam="2">  1       21 0.21549280E-01 0.44638882E+03</pdfrwt>
<totfact> 0.15412219E+03</totfact>
</mgrwt>
</event>
<event>
 6    1  0.9094387E-004  0.4026345E+03  0.7818608E-02  0.1042874E+00
         21   -1    0    0  501  502  0.00000000000E+00  0.00000000000E+00  0.19161036022E+03  0.19161036022E+03  0.00000000000E+00 0. -1.
         21   -1    0    0  502  503 -0.00000000000E+00 -0.00000000000E+00 -0.84616995620E+03  0.84616995620E+03  0.00000000000E+00 0. -1.
    9000007    2    1    2  501    0  0.14460507255E+02 -0.43651086242E+02 -0.31987218222E+03  0.51420588186E+03  0.39996868925E+03 0.  0.
    9000005    1    3    3    0    0 -0.12702538088E+02 -0.21172242800E+03 -0.25579470735E+03  0.33229455803E+03  0.99999687468E+00 0.  0.
          4    1    3    3  501    0  0.27163045342E+02  0.16807134176E+03 -0.64077474876E+02  0.18191132384E+03  0.00000000000E+00 0.  1.
   -9000007    1    1    2    0  503 -0.14460507255E+02  0.43651086242E+02 -0.33468741376E+03  0.52357443456E+03  0.40000000000E+03 0. -1.
<mgrwt>
<rscale>  2 0.40262670E+03</rscale>
<asrwt>0</asrwt>
<pdfrwt beam="1">  1       21 0.29478517E-01 0.40263448E+03</pdfrwt>
<pdfrwt beam="2">  1       21 0.13017999E+00 0.40263448E+03</pdfrwt>
<totfact> 0.42124202E+03</totfact>
</mgrwt>
</event>
<event>
 6    1  0.9094387E-004  0.4132213E+03  0.7818608E-02  0.1039335E+00
         21   -1    0    0  501  502  0.00000000000E+00  0.00000000000E+00  0.86325735320E+03  0.86325735320E+03  0.00000000000E+00 0.  1.
         21   -1    0    0  502  503 -0.00000000000E+00 -0.00000000000E+00 -0.22019357148E+03  0.22019357148E+03  0.00000000000E+00 0.  1.
    9000007    2    1    2  501    0 -0.33073104313E+02  0.98275282058E+02  0.14772544095E+03  0.43838353817E+03  0.39950651978E+03 0.  0.
    9000005    1    3    3    0    0 -0.16013211076E+03 -0.89754996961E+02  0.88800482269E+02  0.20392346118E+03  0.99999687468E+00 0.  0.
          4    1    3    3  501    0  0.12705900645E+03  0.18803027902E+03  0.58924958680E+02  0.23446007699E+03  0.00000000000E+00 0.  1.
   -9000007    1    1    2    0  503  0.33073104313E+02 -0.98275282058E+02  0.49533834078E+03  0.64506738651E+03  0.40000000000E+03 0.  1.
<mgrwt>
<rscale>  2 0.41310185E+03</rscale>
<asrwt>0</asrwt>
<pdfrwt beam="1">  1       21 0.13280882E+00 0.41322132E+03</pdfrwt>
<pdfrwt beam="2">  1       21 0.33875935E-01 0.41322132E+03</pdfrwt>
<totfact> 0.30178409E+03</totfact>
</mgrwt>
</event>
<event>
 6    1  0.9094387E-004  0.4454375E+03  0.7818608E-02  0.1029171E+00
         21   -1    0    0  501  502  0.00000000000E+00  0.00000000000E+00  0.42806949386E+03  0.42806949386E+03  0.00000000000E+00 0.  1.
         21   -1    0    0  502  503 -0.00000000000E+00 -0.00000000000E+00 -0.66837600306E+03  0.66837600306E+03  0.00000000000E+00 0.  1.
    9000007    2    1    2  501    0  0.14338644862E+02  0.19305927936E+03 -0.42457755911E+03  0.61537034487E+03  0.40116963440E+03 0.  0.
    9000005    1    3    3    0    0 -0.61309435848E+02 -0.10119602020E+03 -0.39235170551E+02  0.12465905515E+03  0.99999687468E+00 0.  0.
          4    1    3    3  501    0  0.75648080710E+02  0.29425529957E+03 -0.38534238856E+03  0.49071128972E+03  0.00000000000E+00 0.  1.
   -9000007    1    1    2    0  503 -0.14338644862E+02 -0.19305927936E+03  0.18427104991E+03  0.48107515205E+03  0.40000000000E+03 0.  1.
<mgrwt>
<rscale>  2 0.44517398E+03</rscale>
<asrwt>0</asrwt>
<pdfrwt beam="1">  1       21 0.65856846E-01 0.44543749E+03</pdfrwt>
<pdfrwt beam="2">  1       21 0.10282708E+00 0.44543749E+03</pdfrwt>
<totfact> 0.13952090E+03</totfact>
</mgrwt>
</event>
<event>
 6    1  0.9094387E-004  0.4834034E+03  0.7818608E-02  0.1018231E+00
         21   -1    0    0  501  502  0.00000000000E+00  0.00000000000E+00  0.10852464579E+04  0.10852464579E+04  0.00000000000E+00 0. -1.
         21   -1    0    0  502  503 -0.00000000000E+00 -0.00000000000E+00 -0.23447239505E+03  0.23447239505E+03  0.00000000000E+00 0. -1.
    9000007    2    1    2  501    0 -0.26809802486E+03  0.42453706263E+02  0.61465473718E+03  0.78173074523E+03  0.39952927801E+03 0.  0.
    9000005    1    3    3    0    0 -0.37156617639E+03  0.36302468529E+02  0.52784286741E+03  0.64652794628E+03  0.99999687468E+00 0.  0.
          4    1    3    3  501    0  0.10346815154E+03  0.61512377340E+01  0.86811869777E+02  0.13520279894E+03  0.00000000000E+00 0.  1.
   -9000007    1    1    2    0  503  0.26809802486E+03 -0.42453706263E+02  0.23611932568E+03  0.53798810774E+03  0.40000000000E+03 0. -1.
<mgrwt>
<rscale>  2 0.48330603E+03</rscale>
<asrwt>0</asrwt>
<pdfrwt beam="1">  1       21 0.16696099E+00 0.48340342E+03</pdfrwt>
<pdfrwt beam="2">  1       21 0.36072677E-01 0.48340342E+03</pdfrwt>
<totfact> 0.13885870E+03</totfact>
</mgrwt>
</event>
<event>
 6    1  0.9094387E-004  0.6471894E+03  0.7818608E-02  0.9812119E-01
         21   -1    0    0  501  502  0.00000000000E+00  0.00000000000E+00  0.19332151413E+04  0.19332151413E+04  0.00000000000E+00 0.  1.
         21   -1    0    0  502  503 -0.00000000000E+00 -0.00000000000E+00 -0.23236610718E+03  0.23236610718E+03  0.00000000000E+00 0. -1.
    9000007    2    1    2  501    0  0.24000652988E+03  0.44845150720E+03  0.11323131742E+04  0.13042190060E+04  0.40017771373E+03 0.  0.
    9000005    1    3    3    0    0  0.23666158809E+03  0.11041908015E+03  0.74854913966E+03  0.79279751199E+03  0.99999687468E+00 0.  0.
          4    1    3    3  501    0  0.33449417948E+01  0.33803242705E+03  0.38376403452E+03  0.51142149404E+03  0.00000000000E+00 0.  1.
   -9000007    1    1    2    0  503 -0.24000652988E+03 -0.44845150720E+03  0.56853585998E+03  0.86136224248E+03  0.40000000000E+03 0. -1.
<mgrwt>
<rscale>  2 0.64716191E+03</rscale>
<asrwt>0</asrwt>
<pdfrwt beam="1">  1       21 0.29741770E+00 0.64718938E+03</pdfrwt>
<pdfrwt beam="2">  1       21 0.35748633E-01 0.64718938E+03</pdfrwt>
<totfact> 0.18967443E+02</totfact>
</mgrwt>
</event>
<event>
 6    1  0.9094387E-004  0.4192089E+03  0.7818608E-02  0.1037333E+00
         21   -1    0    0  501  502  0.00000000000E+00  0.00000000000E+00  0.37433859452E+03  0.37433859452E+03  0.00000000000E+00 0. -1.
         21   -1    0    0  502  503 -0.00000000000E+00 -0.00000000000E+00 -0.76519951063E+03  0.76519951063E+03  0.00000000000E+00 0. -1.
    9000007    2    1    2  501    0 -0.84926466715E+02  0.91814867914E+02  0.15884429100E+03  0.44829408930E+03  0.40011699164E+03 0.  0.
    9000005    1    3    3    0    0 -0.94383797890E+02  0.24395381036E+03  0.13382153777E+03  0.29382131791E+03  0.99999687468E+00 0.  0.
          4    1    3    3  501    0  0.94573311750E+01 -0.15213894245E+03  0.25022753229E+02  0.15447277139E+03  0.00000000000E+00 0.  1.
   -9000007    1    1    2    0  503  0.84926466715E+02 -0.91814867914E+02 -0.54970520711E+03  0.69124401585E+03  0.40000000000E+03 0. -1.
<mgrwt>
<rscale>  2 0.41918096E+03</rscale>
<asrwt>0</asrwt>
<pdfrwt beam="1">  1       21 0.57590553E-01 0.41920888E+03</pdfrwt>
<pdfrwt beam="2">  1       21 0.11772300E+00 0.41920888E+03</pdfrwt>
<totfact> 0.13547398E+03</totfact>
</mgrwt>
</event>
<event>
 6    1  0.9094387E-004  0.4239337E+03  0.7818608E-02  0.1035812E+00
         21   -1    0    0  501  502  0.00000000000E+00  0.00000000000E+00  0.43062985507E+03  0.43062985507E+03  0.00000000000E+00 0. -1.
         21   -1    0    0  502  503 -0.00000000000E+00 -0.00000000000E+00 -0.46667540430E+03  0.46667540430E+03  0.00000000000E+00 0. -1.
    9000007    2    1    2  501    0 -0.13392601058E+03  0.42232931098E+02  0.12817890307E+03  0.44267412591E+03  0.39976337223E+03 0.  0.
    9000005    1    3    3    0    0 -0.18790557511E+03 -0.10989509585E+03  0.16968049556E+03  0.27600345617E+03  0.99999687468E+00 0.  0.
          4    1    3    3  501    0  0.53979564526E+02  0.15212802695E+03 -0.41501592495E+02  0.16667066974E+03  0.00000000000E+00 0.  1.
   -9000007    1    1    2    0  503  0.13392601058E+03 -0.42232931098E+02 -0.16422445230E+03  0.45463113346E+03  0.40000000000E+03 0. -1.
<mgrwt>
<rscale>  2 0.42387789E+03</rscale>
<asrwt>0</asrwt>
<pdfrwt beam="1">  1       21 0.66250747E-01 0.42393372E+03</pdfrwt>
<pdfrwt beam="2">  1       21 0.71796216E-01 0.42393372E+03</pdfrwt>
<totfact> 0.32244833E+03</totfact>
</mgrwt>
</event>
<event>
 6    1  0.9094387E-004  0.4097363E+03  0.7818608E-02  0.1040578E+00
         21   -1    0    0  501  502  0.00000000000E+00  0.00000000000E+00  0.11565081933E+03  0.11565081933E+03  0.00000000000E+00 0. -1.
         21   -1    0    0  502  503 -0.00000000000E+00 -0.00000000000E+00 -0.16316337734E+04  0.16316337734E+04  0.00000000000E+00 0. -1.
    9000007    2    1    2  501    0  0.84373682123E+02  0.27656889936E+02 -0.10509947001E+04  0.11275282711E+04  0.39855529203E+03 0.  0.
    9000005    1    3    3    0    0  0.20894871129E+03 -0.72662235181E+02 -0.39924713033E+03  0.45644127272E+03  0.99999687468E+00 0.  0.
          4    1    3    3  501    0 -0.12457502917E+03  0.10031912512E+03 -0.65174756975E+03  0.67108699841E+03  0.00000000000E+00 0.  1.
   -9000007    1    1    2    0  503 -0.84373682123E+02 -0.27656889936E+02 -0.46498825396E+03  0.61975632156E+03  0.40000000000E+03 0. -1.
<mgrwt>
<rscale>  2 0.40938326E+03</rscale>
<asrwt>0</asrwt>
<pdfrwt beam="1">  1       21 0.17792434E-01 0.40973628E+03</pdfrwt>
<pdfrwt beam="2">  1       21 0.25102057E+00 0.40973628E+03</pdfrwt>
<totfact> 0.15889485E+03</totfact>
</mgrwt>
</event>
<event>
 6    1  0.9094387E-004  0.4699057E+03  0.7818608E-02  0.1021966E+00
         21   -1    0    0  501  502  0.00000000000E+00  0.00000000000E+00  0.89401291755E+03  0.89401291755E+03  0.00000000000E+00 0. -1.
         21   -1    0    0  502  503 -0.00000000000E+00 -0.00000000000E+00 -0.25892495981E+03  0.25892495981E+03  0.00000000000E+00 0. -1.
    9000007    2    1    2  501    0 -0.21300484429E+03 -0.12425896737E+03  0.19295094222E+03  0.50772745033E+03  0.39968205245E+03 0.  0.
    9000005    1    3    3    0    0 -0.31223085345E+03 -0.81017043233E+01  0.95861305733E+02  0.32671720706E+03  0.99999687468E+00 0.  0.
          4    1    3    3  501    0  0.99226009167E+02 -0.11615726305E+03  0.97089636490E+02  0.18101024327E+03  0.00000000000E+00 0.  1.
   -9000007    1    1    2    0  503  0.21300484429E+03  0.12425896737E+03  0.44213701552E+03  0.64521042703E+03  0.40000000000E+03 0. -1.
<mgrwt>
<rscale>  2 0.46983802E+03</rscale>
<asrwt>0</asrwt>
<pdfrwt beam="1">  1       21 0.13754045E+00 0.46990569E+03</pdfrwt>
<pdfrwt beam="2">  1       21 0.39834610E-01 0.46990569E+03</pdfrwt>
<totfact> 0.19368110E+03</totfact>
</mgrwt>
</event>
<event>
 6    1  0.9094387E-004  0.6198179E+03  0.7818608E-02  0.9865314E-01
         21   -1    0    0  501  502  0.00000000000E+00  0.00000000000E+00  0.18490979372E+04  0.18490979372E+04  0.00000000000E+00 0. -1.
         21   -1    0    0  502  503 -0.00000000000E+00 -0.00000000000E+00 -0.22495530204E+03  0.22495530204E+03  0.00000000000E+00 0. -1.
    9000007    2    1    2  501    0 -0.15189425477E+02 -0.47272316238E+03  0.11000630243E+04  0.12626610127E+04  0.40059489322E+03 0.  0.
    9000005    1    3    3    0    0 -0.14752630322E+03 -0.44368526362E+03  0.95989163012E+03  0.10677141775E+04  0.99999687468E+00 0.  0.
          4    1    3    3  501    0  0.13233687774E+03 -0.29037898754E+02  0.14017139421E+03  0.19494683514E+03  0.00000000000E+00 0.  1.
   -9000007    1    1    2    0  503  0.15189425477E+02  0.47272316238E+03  0.52407961084E+03  0.81139222660E+03  0.40000000000E+03 0. -1.
<mgrwt>
<rscale>  2 0.61972175E+03</rscale>
<asrwt>0</asrwt>
<pdfrwt beam="1">  1       21 0.28447660E+00 0.61981786E+03</pdfrwt>
<pdfrwt beam="2">  1       21 0.34608509E-01 0.61981786E+03</pdfrwt>
<totfact> 0.24580735E+02</totfact>
</mgrwt>
</event>
<event>
 6    1  0.9094387E-004  0.4883913E+03  0.7818608E-02  0.1016989E+00
         21   -1    0    0  501  502  0.00000000000E+00  0.00000000000E+00  0.14739962251E+04  0.14739962251E+04  0.00000000000E+00 0. -1.
         21   -1    0    0  502  503 -0.00000000000E+00 -0.00000000000E+00 -0.36731975027E+03  0.36731975027E+03  0.00000000000E+00 0. -1.
    9000007    2    1    2  501    0  0.27425849981E+03 -0.57517902539E+02  0.12425664231E+04  0.13343720811E+04  0.39755691587E+03 0.  0.
    9000005    1    3    3    0    0  0.88024626977E+01 -0.16862432225E+03  0.70152787810E+03  0.72156358635E+03  0.99999687468E+00 0.  0.
          4    1    3    3  501    0  0.26545603711E+03  0.11110641971E+03  0.54103854496E+03  0.61280849478E+03  0.00000000000E+00 0.  1.
   -9000007    1    1    2    0  503 -0.27425849981E+03  0.57517902539E+02 -0.13588994826E+03  0.50694389420E+03  0.40000000000E+03 0. -1.
<mgrwt>
<rscale>  2 0.48789078E+03</rscale>
<asrwt>0</asrwt>
<pdfrwt beam="1">  1       21 0.22676865E+00 0.48839127E+03</pdfrwt>
<pdfrwt beam="2">  1       21 0.56510732E-01 0.48839127E+03</pdfrwt>
<totfact> 0.21207246E+02</totfact>
</mgrwt>
</event>
<event>
 6    1  0.9094387E-004  0.4346232E+03  0.7818608E-02  0.1032423E+00
         21   -1    0    0  501  502  0.00000000000E+00  0.00000000000E+00  0.37171703547E+03  0.37171703547E+03  0.00000000000E+00 0. -1.
         21   -1    0    0  502  503 -0.00000000000E+00 -0.00000000000E+00 -0.53490852538E+03  0.53490852538E+03  0.00000000000E+00 0.  1.
    9000007    2    1    2  501    0  0.19526905549E+02 -0.16842581219E+03  0.20108673555E+02  0.43508817720E+03  0.40018596794E+03 0.  0.
    9000005    1    3    3    0    0  0.12721927932E+03 -0.18401992265E+03 -0.12300627198E+03  0.25530299627E+03  0.99999687468E+00 0.  0.
          4    1    3    3  501    0 -0.10769237377E+03  0.15594110460E+02  0.14311494553E+03  0.17978518094E+03  0.00000000000E+00 0.  1.
   -9000007    1    1    2    0  503 -0.19526905549E+02  0.16842581219E+03 -0.18330016346E+03  0.47153738365E+03  0.40000000000E+03 0.  1.
<mgrwt>
<rscale>  2 0.43458043E+03</rscale>
<asrwt>0</asrwt>
<pdfrwt beam="1">  1       21 0.57187236E-01 0.43462324E+03</pdfrwt>
<pdfrwt beam="2">  1       21 0.82293619E-01 0.43462324E+03</pdfrwt>
<totfact> 0.32476683E+03</totfact>
</mgrwt>
</event>
<event>
 6    1  0.9094387E-004  0.5687050E+03  0.7818608E-02  0.9972723E-01
         21   -1    0    0  501  502  0.00000000000E+00  0.00000000000E+00  0.11939055473E+04  0.11939055473E+04  0.00000000000E+00 0. -1.
         21   -1    0    0  502  503 -0.00000000000E+00 -0.00000000000E+00 -0.28702245917E+03  0.28702245917E+03  0.00000000000E+00 0.  1.
    9000007    2    1    2  501    0  0.30130022179E+03 -0.26952464433E+03  0.27700020628E+03  0.63229510444E+03  0.39955303436E+03 0.  0.
    9000005    1    3    3    0    0  0.64997137013E+02  0.95329688248E+02 -0.26568067747E+01  0.11541419279E+03  0.99999687468E+00 0.  0.
          4    1    3    3  501    0  0.23630308478E+03 -0.36485433258E+03  0.27965701306E+03  0.51688091165E+03  0.00000000000E+00 0.  1.
   -9000007    1    1    2    0  503 -0.30130022179E+03  0.26952464433E+03  0.62988288182E+03  0.84863290200E+03  0.40000000000E+03 0. -1.
<mgrwt>
<rscale>  2 0.56862640E+03</rscale>
<asrwt>0</asrwt>
<pdfrwt beam="1">  1       21 0.18367777E+00 0.56870498E+03</pdfrwt>
<pdfrwt beam="2">  1       21 0.44157302E-01 0.56870498E+03</pdfrwt>
<totfact> 0.67120755E+02</totfact>
</mgrwt>
</event>
<event>
 6    1  0.9094387E-004  0.4026237E+03  0.7818608E-02  0.1042900E+00
         21   -1    0    0  501  502  0.00000000000E+00  0.00000000000E+00  0.10226323526E+03  0.10226323526E+03  0.00000000000E+00 0.  1.
         21   -1    0    0  502  503 -0.00000000000E+00 -0.00000000000E+00 -0.15881342907E+04  0.15881342907E+04  0.00000000000E+00 0.  1.
    9000007    2    1    2  501    0  0.40026841903E+02  0.16345100382E+02 -0.70021439200E+03  0.80771655121E+03  0.40029554326E+03 0.  0.
    9000005    1    3    3    0    0  0.77824903915E+02 -0.26272127754E+02 -0.73591770443E+03  0.74048822277E+03  0.99999687468E+00 0.  0.
          4    1    3    3  501    0 -0.37798062012E+02  0.42617228136E+02  0.35703312436E+02  0.67228328440E+02  0.00000000000E+00 0.  1.
   -9000007    1    1    2    0  503 -0.40026841903E+02 -0.16345100382E+02 -0.78565666347E+03  0.88268097477E+03  0.40000000000E+03 0.  1.
<mgrwt>
<rscale>  2 0.40255021E+03</rscale>
<asrwt>0</asrwt>
<pdfrwt beam="1">  1       21 0.15732807E-01 0.40262369E+03</pdfrwt>
<pdfrwt beam="2">  1       21 0.24432833E+00 0.40262369E+03</pdfrwt>
<totfact> 0.22058651E+03</totfact>
</mgrwt>
</event>
<event>
 6    1  0.9094387E-004  0.4194202E+03  0.7818608E-02  0.1037383E+00
         21   -1    0    0  501  502  0.00000000000E+00  0.00000000000E+00  0.77793279260E+03  0.77793279260E+03  0.00000000000E+00 0. -1.
         21   -1    0    0  502  503 -0.00000000000E+00 -0.00000000000E+00 -0.50993833416E+03  0.50993833416E+03  0.00000000000E+00 0. -1.
    9000007    2    1    2  501    0 -0.11499470656E+03 -0.37137212888E+02  0.61521355142E+03  0.74458109956E+03  0.40163459121E+03 0.  0.
    9000005    1    3    3    0    0 -0.92837104017E+02  0.15846992919E+02  0.66313061863E+03  0.66978584072E+03  0.99999687468E+00 0.  0.
          4    1    3    3  501    0 -0.22157602541E+02 -0.52984205808E+02 -0.47917067212E+02  0.74795258844E+02  0.00000000000E+00 0.  1.
   -9000007    1    1    2    0  503  0.11499470656E+03  0.37137212888E+02 -0.34721909298E+03  0.54329002720E+03  0.40000000000E+03 0. -1.
<mgrwt>
<rscale>  2 0.41902839E+03</rscale>
<asrwt>0</asrwt>
<pdfrwt beam="1">  1       21 0.11968197E+00 0.41942020E+03</pdfrwt>
<pdfrwt beam="2">  1       21 0.78452051E-01 0.41942020E+03</pdfrwt>
<totfact> 0.65148725E+02</totfact>
</mgrwt>
</event>
<event>
 6    1  0.9094387E-004  0.4416275E+03  0.7818608E-02  0.1030304E+00
         21   -1    0    0  501  502  0.00000000000E+00  0.00000000000E+00  0.20918995450E+04  0.20918995450E+04  0.00000000000E+00 0.  1.
         21   -1    0    0  502  503 -0.00000000000E+00 -0.00000000000E+00 -0.95234141393E+02  0.95234141393E+02  0.00000000000E+00 0. -1.
    9000007    2    1    2  501    0 -0.17154247363E+03 -0.74886707953E+02  0.11619905849E+04  0.12428260605E+04  0.39919877009E+03 0.  0.
    9000005    1    3    3    0    0 -0.98717942861E+02 -0.23861382015E+03  0.60767407074E+03  0.66026552511E+03  0.99999687468E+00 0.  0.
          4    1    3    3  501    0 -0.72824530764E+02  0.16372711220E+03  0.55431651417E+03  0.58256053542E+03  0.00000000000E+00 0.  1.
   -9000007    1    1    2    0  503  0.17154247363E+03  0.74886707953E+02  0.83467481869E+03  0.94430762585E+03  0.40000000000E+03 0.  1.
<mgrwt>
<rscale>  2 0.44144598E+03</rscale>
<asrwt>0</asrwt>
<pdfrwt beam="1">  1       21 0.32183067E+00 0.44162749E+03</pdfrwt>
<pdfrwt beam="2">  1       21 0.14651408E-01 0.44162749E+03</pdfrwt>
<totfact> 0.83971107E+02</totfact>
</mgrwt>
</event>
<event>
 6    1  0.9094387E-004  0.4170816E+03  0.7818608E-02  0.1038025E+00
         21   -1    0    0  501  502  0.00000000000E+00  0.00000000000E+00  0.10811942443E+04  0.10811942443E+04  0.00000000000E+00 0.  1.
         21   -1    0    0  502  503 -0.00000000000E+00 -0.00000000000E+00 -0.19757827101E+03  0.19757827101E+03  0.00000000000E+00 0.  1.
    9000007    2    1    2  501    0  0.18175985118E+02 -0.11673346382E+03  0.16618874410E+03  0.44891777068E+03  0.39993924308E+03 0.  0.
    9000005    1    3    3    0    0 -0.83980556650E+02  0.12620045529E+03  0.40317853804E+02  0.15686241787E+03  0.99999687468E+00 0.  0.
          4    1    3    3  501    0  0.10215654177E+03 -0.24293391911E+03  0.12587089029E+03  0.29205535281E+03  0.00000000000E+00 0.  1.
   -9000007    1    1    2    0  503 -0.18175985118E+02  0.11673346382E+03  0.71742722922E+03  0.82985474466E+03  0.40000000000E+03 0.  1.
<mgrwt>
<rscale>  2 0.41706704E+03</rscale>
<asrwt>0</asrwt>
<pdfrwt beam="1">  1       21 0.16633757E+00 0.41708161E+03</pdfrwt>
<pdfrwt beam="2">  1       21 0.30396658E-01 0.41708161E+03</pdfrwt>
<totfact> 0.20350095E+03</totfact>
</mgrwt>
</event>
<event>
 6    1  0.9094387E-004  0.6457708E+03  0.7818608E-02  0.9814832E-01
         21   -1    0    0  501  502  0.00000000000E+00  0.00000000000E+00  0.13844190273E+04  0.13844190273E+04  0.00000000000E+00 0.  1.
         21   -1    0    0  502  503 -0.00000000000E+00 -0.00000000000E+00 -0.33883382578E+03  0.33883382578E+03  0.00000000000E+00 0.  1.
    9000007    2    1    2  501    0  0.50295272142E+03 -0.61865835178E+02  0.81023863487E+03  0.10361016121E+04  0.40028875028E+03 0.  0.
    9000005    1    3    3    0    0  0.65822823887E+02 -0.15165039898E+03  0.88437243901E+02  0.18749035644E+03  0.99999687468E+00 0.  0.
          4    1    3    3  501    0  0.43712989753E+03  0.89784563804E+02  0.72180139097E+03  0.84861125565E+03  0.00000000000E+00 0.  1.
   -9000007    1    1    2    0  503 -0.50295272142E+03  0.61865835178E+02  0.23534656664E+03  0.68715124098E+03  0.40000000000E+03 0.  1.
<mgrwt>
<rscale>  2 0.64572604E+03</rscale>
<asrwt>0</asrwt>
<pdfrwt beam="1">  1       21 0.21298754E+00 0.64577078E+03</pdfrwt>
<pdfrwt beam="2">  1       21 0.52128282E-01 0.64577078E+03</pdfrwt>
<totfact> 0.29015937E+02</totfact>
</mgrwt>
</event>
<event>
 6    1  0.9094387E-004  0.4913719E+03  0.7818608E-02  0.1016069E+00
         21   -1    0    0  501  502  0.00000000000E+00  0.00000000000E+00  0.14203286516E+04  0.14203286516E+04  0.00000000000E+00 0.  1.
         21   -1    0    0  502  503 -0.00000000000E+00 -0.00000000000E+00 -0.17343276791E+03  0.17343276791E+03  0.00000000000E+00 0. -1.
    9000007    2    1    2  501    0  0.27454444108E+03 -0.77921088704E+02  0.73662486954E+03  0.88536685849E+03  0.39976484274E+03 0.  0.
    9000005    1    3    3    0    0  0.20547591172E+03 -0.15605508557E+03  0.16945676404E+03  0.30869100231E+03  0.99999687468E+00 0.  0.
          4    1    3    3  501    0  0.69068529359E+02  0.78133996864E+02  0.56716810550E+03  0.57667585618E+03  0.00000000000E+00 0.  1.
   -9000007    1    1    2    0  503 -0.27454444108E+03  0.77921088704E+02  0.51027101415E+03  0.70839456102E+03  0.40000000000E+03 0.  1.
<mgrwt>
<rscale>  2 0.49132404E+03</rscale>
<asrwt>0</asrwt>
<pdfrwt beam="1">  1       21 0.21851209E+00 0.49137190E+03</pdfrwt>
<pdfrwt beam="2">  1       21 0.26681965E-01 0.49137190E+03</pdfrwt>
<totfact> 0.11218202E+03</totfact>
</mgrwt>
</event>
<event>
 6    1  0.9094387E-004  0.4132726E+03  0.7818608E-02  0.1039285E+00
         21   -1    0    0  501  502  0.00000000000E+00  0.00000000000E+00  0.40417858386E+03  0.40417858386E+03  0.00000000000E+00 0. -1.
         21   -1    0    0  502  503 -0.00000000000E+00 -0.00000000000E+00 -0.44672771285E+03  0.44672771285E+03  0.00000000000E+00 0. -1.
    9000007    2    1    2  501    0  0.92981160204E+02  0.45659923574E+02 -0.12037253487E+03  0.43044606401E+03  0.40007991964E+03 0.  0.
    9000005    1    3    3    0    0  0.14282227425E+03  0.79014433178E+02  0.10708376441E+03  0.19521632941E+03  0.99999687468E+00 0.  0.
          4    1    3    3  501    0 -0.49841114044E+02 -0.33354509604E+02 -0.22745629928E+03  0.23522973461E+03  0.00000000000E+00 0.  1.
   -9000007    1    1    2    0  503 -0.92981160204E+02 -0.45659923574E+02  0.77823405876E+02  0.42046023269E+03  0.40000000000E+03 0.  1.
<mgrwt>
<rscale>  2 0.41325329E+03</rscale>
<asrwt>0</asrwt>
<pdfrwt beam="1">  1       21 0.62181321E-01 0.41327263E+03</pdfrwt>
<pdfrwt beam="2">  1       21 0.68727340E-01 0.41327263E+03</pdfrwt>
<totfact> 0.41095161E+03</totfact>
</mgrwt>
</event>
<event>
 6    1  0.9094387E-004  0.4240049E+03  0.7818608E-02  0.1035862E+00
         21   -1    0    0  501  502  0.00000000000E+00  0.00000000000E+00  0.19778517932E+03  0.19778517932E+03  0.00000000000E+00 0. -1.
         21   -1    0    0  502  503 -0.00000000000E+00 -0.00000000000E+00 -0.10730116548E+04  0.10730116548E+04  0.00000000000E+00 0. -1.
    9000007    2    1    2  501    0 -0.81691759643E+02  0.11022341052E+03 -0.18783746883E+03  0.46374888617E+03  0.40119492882E+03 0.  0.
    9000005    1    3    3    0    0 -0.15846416984E+01  0.22206588701E+03  0.10555665212E+02  0.22232451805E+03  0.99999687468E+00 0.  0.
          4    1    3    3  501    0 -0.80107117945E+02 -0.11184247649E+03 -0.19839313404E+03  0.24142436813E+03  0.00000000000E+00 0.  1.
   -9000007    1    1    2    0  503  0.81691759643E+02 -0.11022341052E+03 -0.68738900669E+03  0.80704794798E+03  0.40000000000E+03 0. -1.
<mgrwt>
<rscale>  2 0.42372195E+03</rscale>
<asrwt>0</asrwt>
<pdfrwt beam="1">  1       21 0.30428489E-01 0.42400485E+03</pdfrwt>
<pdfrwt beam="2">  1       21 0.16507872E+00 0.42400485E+03</pdfrwt>
<totfact> 0.20684970E+03</totfact>
</mgrwt>
</event>
<event>
 6    1  0.9094387E-004  0.4893656E+03  0.7818608E-02  0.1016700E+00
         21   -1    0    0  501  502  0.00000000000E+00  0.00000000000E+00  0.50129776113E+03  0.50129776113E+03  0.00000000000E+00 0. -1.
         21   -1    0    0  502  503 -0.00000000000E+00 -0.00000000000E+00 -0.56650483427E+03  0.56650483427E+03  0.00000000000E+00 0. -1.
    9000007    2    1    2  501    0  0.26180496581E+03 -0.10457927006E+03 -0.24578183189E+03  0.54618404958E+03  0.39803221388E+03 0.  0.
    9000005    1    3    3    0    0  0.29442885890E+03 -0.64825130877E+02 -0.33032978641E+03  0.44722412539E+03  0.99999687468E+00 0.  0.
          4    1    3    3  501    0 -0.32623893090E+02 -0.39754139182E+02  0.84547954525E+02  0.98959924195E+02  0.00000000000E+00 0.  1.
   -9000007    1    1    2    0  503 -0.26180496581E+03  0.10457927006E+03  0.18057475874E+03  0.52161854582E+03  0.40000000000E+03 0. -1.
<mgrwt>
<rscale>  2 0.48896330E+03</rscale>
<asrwt>0</asrwt>
<pdfrwt beam="1">  1       21 0.77122733E-01 0.48936557E+03</pdfrwt>
<pdfrwt beam="2">  1       21 0.87154590E-01 0.48936557E+03</pdfrwt>
<totfact> 0.14275673E+03</totfact>
</mgrwt>
</event>
<event>
 6    1  0.9094387E-004  0.5891449E+03  0.7818608E-02  0.9928608E-01
         21   -1    0    0  501  502  0.00000000000E+00  0.00000000000E+00  0.51981292112E+03  0.51981292112E+03  0.00000000000E+00 0.  1.
         21   -1    0    0  502  503 -0.00000000000E+00 -0.00000000000E+00 -0.13341826819E+04  0.13341826819E+04  0.00000000000E+00 0. -1.
    9000007    2    1    2  501    0  0.12019758467E+03  0.41437793987E+03  0.24829534386E+03  0.63932953326E+03  0.40116721938E+03 0.  0.
    9000005    1    3    3    0    0  0.44979461366E+02  0.15149413501E+03  0.31978699011E+03  0.35670484147E+03  0.99999687468E+00 0.  0.
          4    1    3    3  501    0  0.75218123308E+02  0.26288380486E+03 -0.71491646248E+02  0.28262469180E+03  0.00000000000E+00 0.  1.
   -9000007    1    1    2    0  503 -0.12019758467E+03 -0.41437793987E+03 -0.10626651047E+04  0.12146660698E+04  0.40000000000E+03 0. -1.
<mgrwt>
<rscale>  2 0.58894622E+03</rscale>
<asrwt>0</asrwt>
<pdfrwt beam="1">  1       21 0.79971218E-01 0.58914487E+03</pdfrwt>
<pdfrwt beam="2">  1       21 0.20525888E+00 0.58914487E+03</pdfrwt>
<totfact> 0.12805637E+02</totfact>
</mgrwt>
</event>
<event>
 6    1  0.9094387E-004  0.4071461E+03  0.7818608E-02  0.1041386E+00
         21   -1    0    0  501  502  0.00000000000E+00  0.00000000000E+00  0.11449970633E+04  0.11449970633E+04  0.00000000000E+00 0.  1.
         21   -1    0    0  502  503 -0.00000000000E+00 -0.00000000000E+00 -0.15392601587E+03  0.15392601587E+03  0.00000000000E+00 0.  1.
    9000007    2    1    2  501    0 -0.59493528036E+02 -0.47206803458E+02  0.65543250415E+03  0.77126675740E+03  0.39936534828E+03 0.  0.
    9000005    1    3    3    0    0 -0.36319759590E+02 -0.19691738073E+03  0.55367091993E+03  0.58876826285E+03  0.99999687468E+00 0.  0.
          4    1    3    3  501    0 -0.23173768446E+02  0.14971057727E+03  0.10176158421E+03  0.18249849455E+03  0.00000000000E+00 0.  1.
   -9000007    1    1    2    0  503  0.59493528036E+02  0.47206803458E+02  0.33563854327E+03  0.52765632176E+03  0.40000000000E+03 0.  1.
<mgrwt>
<rscale>  2 0.40699016E+03</rscale>
<asrwt>0</asrwt>
<pdfrwt beam="1">  1       21 0.17615339E+00 0.40714612E+03</pdfrwt>
<pdfrwt beam="2">  1       21 0.23680926E-01 0.40714612E+03</pdfrwt>
<totfact> 0.28303550E+03</totfact>
</mgrwt>
</event>
<event>
 6    1  0.9094387E-004  0.4659893E+03  0.7818608E-02  0.1023199E+00
         21   -1    0    0  501  502  0.00000000000E+00  0.00000000000E+00  0.17182214131E+03  0.17182214131E+03  0.00000000000E+00 0. -1.
         21   -1    0    0  502  503 -0.00000000000E+00 -0.00000000000E+00 -0.12746507382E+04  0.12746507382E+04  0.00000000000E+00 0.  1.
    9000007    2    1    2  501    0  0.21158288238E+03 -0.11125950610E+03 -0.63176956653E+03  0.78386997892E+03  0.39771015179E+03 0.  0.
    9000005    1    3    3    0    0 -0.14789653915E+02 -0.15760889858E+03 -0.63765987096E+02  0.17066458297E+03  0.99999687468E+00 0.  0.
          4    1    3    3  501    0  0.22637253630E+03  0.46349392483E+02 -0.56800357944E+03  0.61320539595E+03  0.00000000000E+00 0.  1.
   -9000007    1    1    2    0  503 -0.21158288238E+03  0.11125950610E+03 -0.47105903038E+03  0.66260290063E+03  0.40000000000E+03 0. -1.
<mgrwt>
<rscale>  2 0.46549746E+03</rscale>
<asrwt>0</asrwt>
<pdfrwt beam="1">  1       21 0.26434175E-01 0.46598926E+03</pdfrwt>
<pdfrwt beam="2">  1       21 0.19610012E+00 0.46598926E+03</pdfrwt>
<totfact> 0.16220911E+03</totfact>
</mgrwt>
</event>
<event>
 6    1  0.9094387E-004  0.4670455E+03  0.7818608E-02  0.1022779E+00
         21   -1    0    0  501  502  0.00000000000E+00  0.00000000000E+00  0.16015605242E+04  0.16015605242E+04  0.00000000000E+00 0. -1.
         21   -1    0    0  502  503 -0.00000000000E+00 -0.00000000000E+00 -0.13629104030E+03  0.13629104030E+03  0.00000000000E+00 0.  1.
    9000007    2    1    2  501    0 -0.18299287509E+03  0.15698765342E+03  0.76414696573E+03  0.89541207044E+03  0.39963818010E+03 0.  0.
    9000005    1    3    3    0    0 -0.61036046054E+02 -0.11729679945E+03  0.41194301225E+03  0.43264533213E+03  0.99999687468E+00 0.  0.
          4    1    3    3  501    0 -0.12195682903E+03  0.27428445287E+03  0.35220395348E+03  0.46276673830E+03  0.00000000000E+00 0.  1.
   -9000007    1    1    2    0  503  0.18299287509E+03 -0.15698765342E+03  0.70112251816E+03  0.84243949404E+03  0.40000000000E+03 0. -1.
<mgrwt>
<rscale>  2 0.46696804E+03</rscale>
<asrwt>0</asrwt>
<pdfrwt beam="1">  1       21 0.24639391E+00 0.46704552E+03</pdfrwt>
<pdfrwt beam="2">  1       21 0.20967853E-01 0.46704552E+03</pdfrwt>
<totfact> 0.12079208E+03</totfact>
</mgrwt>
</event>
<event>
 6    1  0.9094387E-004  0.4426550E+03  0.7818608E-02  0.1029946E+00
         21   -1    0    0  501  502  0.00000000000E+00  0.00000000000E+00  0.71333729382E+03  0.71333729382E+03  0.00000000000E+00 0.  1.
         21   -1    0    0  502  503 -0.00000000000E+00 -0.00000000000E+00 -0.44658060122E+03  0.44658060122E+03  0.00000000000E+00 0. -1.
    9000007    2    1    2  501    0 -0.41383049967E+02  0.18467949940E+03  0.49329739944E+03  0.66278635693E+03  0.40015541521E+03 0.  0.
    9000005    1    3    3    0    0 -0.10362127797E+02 -0.61103673872E+02  0.38914353273E+03  0.39404913616E+03  0.99999687468E+00 0.  0.
          4    1    3    3  501    0 -0.31020922170E+02  0.24578317328E+03  0.10415386671E+03  0.26873722077E+03  0.00000000000E+00 0.  1.
   -9000007    1    1    2    0  503  0.41383049967E+02 -0.18467949940E+03 -0.22654070684E+03  0.49713153810E+03  0.40000000000E+03 0. -1.
<mgrwt>
<rscale>  2 0.44261985E+03</rscale>
<asrwt>0</asrwt>
<pdfrwt beam="1">  1       21 0.10974420E+00 0.44265498E+03</pdfrwt>
<pdfrwt beam="2">  1       21 0.68704708E-01 0.44265498E+03</pdfrwt>
<totfact> 0.10822722E+03</totfact>
</mgrwt>
</event>
<event>
 6    1  0.9094387E-004  0.4141351E+03  0.7818608E-02  0.1039041E+00
         21   -1    0    0  501  502  0.00000000000E+00  0.00000000000E+00  0.24775116667E+04  0.24775116667E+04  0.00000000000E+00 0.  1.
         21   -1    0    0  502  503 -0.00000000000E+00 -0.00000000000E+00 -0.79497620999E+02  0.79497620999E+02  0.00000000000E+00 0.  1.
    9000007    2    1    2  501    0 -0.98258494720E+02  0.36977555042E+02  0.73799213133E+03  0.84625073444E+03  0.40060685000E+03 0.  0.
    9000005    1    3    3    0    0 -0.55956859116E+02  0.20257803885E+03  0.56606827839E+03  0.60382392110E+03  0.99999687468E+00 0.  0.
          4    1    3    3  501    0 -0.42301635604E+02 -0.16560048381E+03  0.17192385294E+03  0.24242681333E+03  0.00000000000E+00 0.  1.
   -9000007    1    1    2    0  503  0.98258494720E+02 -0.36977555042E+02  0.16600219144E+04  0.17107585532E+04  0.40000000000E+03 0.  1.
<mgrwt>
<rscale>  2 0.41398832E+03</rscale>
<asrwt>0</asrwt>
<pdfrwt beam="1">  1       21 0.38115558E+00 0.41413515E+03</pdfrwt>
<pdfrwt beam="2">  1       21 0.12230405E-01 0.41413515E+03</pdfrwt>
<totfact> 0.51440107E+02</totfact>
</mgrwt>
</event>
<event>
 6    1  0.9094387E-004  0.4503324E+03  0.7818608E-02  0.1027673E+00
         21   -1    0    0  501  502  0.00000000000E+00  0.00000000000E+00  0.40199581016E+03  0.40199581016E+03  0.00000000000E+00 0. -1.
         21   -1    0    0  502  503 -0.00000000000E+00 -0.00000000000E+00 -0.52799918801E+03  0.52799918801E+03  0.00000000000E+00 0.  1.
    9000007    2    1    2  501    0 -0.20586742413E+02  0.20585291401E+03  0.36734611077E+02  0.45116006919E+03  0.39924521314E+03 0.  0.
    9000005    1    3    3    0    0 -0.20406648828E+03  0.53423185152E+02  0.10875506450E+02  0.21122605186E+03  0.99999687468E+00 0.  0.
          4    1    3    3  501    0  0.18347974586E+03  0.15242972886E+03  0.25859104626E+02  0.23993401733E+03  0.00000000000E+00 0.  1.
   -9000007    1    1    2    0  503  0.20586742413E+02 -0.20585291401E+03 -0.16273798892E+03  0.47883492898E+03  0.40000000000E+03 0.  1.
<mgrwt>
<rscale>  2 0.45016470E+03</rscale>
<asrwt>0</asrwt>
<pdfrwt beam="1">  1       21 0.61845510E-01 0.45033236E+03</pdfrwt>
<pdfrwt beam="2">  1       21 0.81230644E-01 0.45033236E+03</pdfrwt>
<totfact> 0.28041927E+03</totfact>
</mgrwt>
</event>
<event>
 6    1  0.9094387E-004  0.4839620E+03  0.7818608E-02  0.1018081E+00
         21   -1    0    0  501  502  0.00000000000E+00  0.00000000000E+00  0.29721063938E+03  0.29721063938E+03  0.00000000000E+00 0. -1.
         21   -1    0    0  502  503 -0.00000000000E+00 -0.00000000000E+00 -0.89990943127E+03  0.89990943127E+03  0.00000000000E+00 0. -1.
    9000007    2    1    2  501    0 -0.16148107061E+03 -0.21848557008E+03 -0.51313205314E+03  0.70535358014E+03  0.40050853744E+03 0.  0.
    9000005    1    3    3    0    0 -0.23164095078E+03 -0.15705846760E+03 -0.54008068598E+03  0.60828697149E+03  0.99999687468E+00 0.  0.
          4    1    3    3  501    0  0.70159880167E+02 -0.61427102478E+02  0.26948632838E+02  0.97066608654E+02  0.00000000000E+00 0.  1.
   -9000007    1    1    2    0  503  0.16148107061E+03  0.21848557008E+03 -0.89566738754E+02  0.49176649051E+03  0.40000000000E+03 0. -1.
<mgrwt>
<rscale>  2 0.48385673E+03</rscale>
<asrwt>0</asrwt>
<pdfrwt beam="1">  1       21 0.45724714E-01 0.48396195E+03</pdfrwt>
<pdfrwt beam="2">  1       21 0.13844760E+00 0.48396195E+03</pdfrwt>
<totfact> 0.14206900E+03</totfact>
</mgrwt>
</event>
<event>
 6    1  0.9094387E-004  0.4972609E+03  0.7818608E-02  0.1014585E+00
         21   -1    0    0  501  502  0.00000000000E+00  0.00000000000E+00  0.49516281254E+03  0.49516281254E+03  0.00000000000E+00 0.  1.
         21   -1    0    0  502  503 -0.00000000000E+00 -0.00000000000E+00 -0.52537362618E+03  0.52537362618E+03  0.00000000000E+00 0.  1.
    9000007    2    1    2  501    0 -0.23820040869E+03  0.17472528206E+03 -0.13153701064E+03  0.51305702329E+03  0.39831791961E+03 0.  0.
    9000005    1    3    3    0    0  0.66822129401E+02  0.15167424754E+03 -0.12413230288E+03  0.20707511429E+03  0.99999687468E+00 0.  0.
          4    1    3    3  501    0 -0.30502253809E+03  0.23051034520E+02 -0.74047077563E+01  0.30598190900E+03  0.00000000000E+00 0.  1.
   -9000007    1    1    2    0  503  0.23820040869E+03 -0.17472528206E+03  0.10132619700E+03  0.50747941544E+03  0.40000000000E+03 0.  1.
<mgrwt>
<rscale>  2 0.49692249E+03</rscale>
<asrwt>0</asrwt>
<pdfrwt beam="1">  1       21 0.76178894E-01 0.49726086E+03</pdfrwt>
<pdfrwt beam="2">  1       21 0.80826711E-01 0.49726086E+03</pdfrwt>
<totfact> 0.17467582E+03</totfact>
</mgrwt>
</event>
<event>
 6    1  0.9094387E-004  0.7993699E+03  0.7818608E-02  0.9560992E-01
         21   -1    0    0  501  502  0.00000000000E+00  0.00000000000E+00  0.10398320905E+04  0.10398320905E+04  0.00000000000E+00 0.  1.
         21   -1    0    0  502  503 -0.00000000000E+00 -0.00000000000E+00 -0.10871199521E+04  0.10871199521E+04  0.00000000000E+00 0.  1.
    9000007    2    1    2  501    0  0.42211094818E+03  0.54846562960E+03  0.67764900872E+03  0.10478201390E+04  0.39965818542E+03 0.  0.
    9000005    1    3    3    0    0  0.55180301419E+02  0.30252680051E+03  0.10575670011E+03  0.32519657179E+03  0.99999687468E+00 0.  0.
          4    1    3    3  501    0  0.36693064676E+03  0.24593882910E+03  0.57189230862E+03  0.72262356718E+03  0.00000000000E+00 0.  1.
   -9000007    1    1    2    0  503 -0.42211094818E+03 -0.54846562960E+03 -0.72493687038E+03  0.10791319036E+04  0.40000000000E+03 0.  1.
<mgrwt>
<rscale>  2 0.79932713E+03</rscale>
<asrwt>0</asrwt>
<pdfrwt beam="1">  1       21 0.15997417E+00 0.79936988E+03</pdfrwt>
<pdfrwt beam="2">  1       21 0.16724922E+00 0.79936988E+03</pdfrwt>
<totfact> 0.37580728E+01</totfact>
</mgrwt>
</event>
<event>
 6    1  0.9094387E-004  0.4458174E+03  0.7818608E-02  0.1029041E+00
         21   -1    0    0  501  502  0.00000000000E+00  0.00000000000E+00  0.46024124523E+03  0.46024124523E+03  0.00000000000E+00 0.  1.
         21   -1    0    0  502  503 -0.00000000000E+00 -0.00000000000E+00 -0.52864984012E+03  0.52864984012E+03  0.00000000000E+00 0.  1.
    9000007    2    1    2  501    0  0.17086955743E+03 -0.97758789090E+02  0.17829761472E+03  0.47936469707E+03  0.39905799940E+03 0.  0.
    9000005    1    3    3    0    0 -0.41815724329E+02  0.30123220554E+02 -0.96307351345E+02  0.10923401089E+03  0.99999687468E+00 0.  0.
          4    1    3    3  501    0  0.21268528176E+03 -0.12788200964E+03  0.27460496606E+03  0.37013068618E+03  0.00000000000E+00 0.  1.
   -9000007    1    1    2    0  503 -0.17086955743E+03  0.97758789090E+02 -0.24670620960E+03  0.50952638828E+03  0.40000000000E+03 0.  1.
<mgrwt>
<rscale>  2 0.44560604E+03</rscale>
<asrwt>0</asrwt>
<pdfrwt beam="1">  1       21 0.70806346E-01 0.44581744E+03</pdfrwt>
<pdfrwt beam="2">  1       21 0.81330744E-01 0.44581744E+03</pdfrwt>
<totfact> 0.20715140E+03</totfact>
</mgrwt>
</event>
<event>
 6    1  0.9094387E-004  0.5811489E+03  0.7818608E-02  0.9945955E-01
         21   -1    0    0  501  502  0.00000000000E+00  0.00000000000E+00  0.52237477079E+03  0.52237477079E+03  0.00000000000E+00 0. -1.
         21   -1    0    0  502  503 -0.00000000000E+00 -0.00000000000E+00 -0.23477044663E+04  0.23477044663E+04  0.00000000000E+00 0.  1.
    9000007    2    1    2  501    0 -0.39153279036E+03  0.15180127904E+03  0.30911756645E+03  0.65824590966E+03  0.40173679624E+03 0.  0.
    9000005    1    3    3    0    0 -0.46386397925E+03  0.16994136670E+03  0.31081005669E+03  0.58365550686E+03  0.99999687468E+00 0.  0.
          4    1    3    3  501    0  0.72331188893E+02 -0.18140087654E+02 -0.16924902337E+01  0.74590402801E+02  0.00000000000E+00 0.  1.
   -9000007    1    1    2    0  503  0.39153279036E+03 -0.15180127904E+03 -0.21344472619E+04  0.22118333274E+04  0.40000000000E+03 0.  1.
<mgrwt>
<rscale>  2 0.58084882E+03</rscale>
<asrwt>0</asrwt>
<pdfrwt beam="1">  1       21 0.80365349E-01 0.58114887E+03</pdfrwt>
<pdfrwt beam="2">  1       21 0.36118530E+00 0.58114887E+03</pdfrwt>
<totfact> 0.13664459E+01</totfact>
</mgrwt>
</event>
<event>
 6    1  0.9094387E-004  0.4902030E+03  0.7818608E-02  0.1016386E+00
         21   -1    0    0  501  502  0.00000000000E+00  0.00000000000E+00  0.81699465814E+03  0.81699465814E+03  0.00000000000E+00 0. -1.
         21   -1    0    0  502  503 -0.00000000000E+00 -0.00000000000E+00 -0.50602292568E+03  0.50602292568E+03  0.00000000000E+00 0. -1.
    9000007    2    1    2  501    0  0.83030481050E+02 -0.27045151832E+03  0.58374023526E+03  0.76226742497E+03  0.40032596762E+03 0.  0.
    9000005    1    3    3    0    0  0.19268996485E+03 -0.31020427818E+02  0.38738574360E+03  0.43377460026E+03  0.99999687468E+00 0.  0.
          4    1    3    3  501    0 -0.10965948380E+03 -0.23943109050E+03  0.19635449166E+03  0.32849282470E+03  0.00000000000E+00 0.  1.
   -9000007    1    1    2    0  503 -0.83030481050E+02  0.27045151832E+03 -0.27276850280E+03  0.56075015886E+03  0.40000000000E+03 0. -1.
<mgrwt>
<rscale>  2 0.49013643E+03</rscale>
<asrwt>0</asrwt>
<pdfrwt beam="1">  1       21 0.12569149E+00 0.49020298E+03</pdfrwt>
<pdfrwt beam="2">  1       21 0.77849681E-01 0.49020298E+03</pdfrwt>
<totfact> 0.56696948E+02</totfact>
</mgrwt>
</event>
<event>
 6    1  0.9094387E-004  0.4322767E+03  0.7818608E-02  0.1033170E+00
         21   -1    0    0  501  502  0.00000000000E+00  0.00000000000E+00  0.35052947537E+03  0.35052947537E+03  0.00000000000E+00 0.  1.
         21   -1    0    0  502  503 -0.00000000000E+00 -0.00000000000E+00 -0.56306968183E+03  0.56306968183E+03  0.00000000000E+00 0. -1.
    9000007    2    1    2  501    0  0.16228878365E+03 -0.15089963570E+02 -0.21246162147E+03  0.48166703004E+03  0.40037211557E+03 0.  0.
    9000005    1    3    3    0    0 -0.62546550477E+02  0.66700195888E+02 -0.22419777071E+03  0.24212936107E+03  0.99999687468E+00 0.  0.
          4    1    3    3  501    0  0.22483533413E+03 -0.81790159458E+02  0.11736149235E+02  0.23953766897E+03  0.00000000000E+00 0.  1.
   -9000007    1    1    2    0  503 -0.16228878365E+03  0.15089963570E+02 -0.78584981865E-01  0.43193212716E+03  0.40000000000E+03 0. -1.
<mgrwt>
<rscale>  2 0.43219057E+03</rscale>
<asrwt>0</asrwt>
<pdfrwt beam="1">  1       21 0.53927612E-01 0.43227675E+03</pdfrwt>
<pdfrwt beam="2">  1       21 0.86626104E-01 0.43227675E+03</pdfrwt>
<totfact> 0.32732941E+03</totfact>
</mgrwt>
</event>
<event>
 6    1  0.9094387E-004  0.4291353E+03  0.7818608E-02  0.1034206E+00
         21   -1    0    0  501  502  0.00000000000E+00  0.00000000000E+00  0.21728852310E+03  0.21728852310E+03  0.00000000000E+00 0.  1.
         21   -1    0    0  502  503 -0.00000000000E+00 -0.00000000000E+00 -0.11292405112E+04  0.11292405112E+04  0.00000000000E+00 0. -1.
    9000007    2    1    2  501    0  0.23786833473E+02 -0.15103381778E+03 -0.11898989718E+03  0.44532655694E+03  0.40097396315E+03 0.  0.
    9000005    1    3    3    0    0  0.10652380082E+03 -0.76519295117E+02 -0.24455255878E+03  0.27750581375E+03  0.99999687468E+00 0.  0.
          4    1    3    3  501    0 -0.82736967348E+02 -0.74514522664E+02  0.12556266160E+03  0.16782074318E+03  0.00000000000E+00 0.  1.
   -9000007    1    1    2    0  503 -0.23786833473E+02  0.15103381778E+03 -0.79296209095E+03  0.90120247738E+03  0.40000000000E+03 0. -1.
<mgrwt>
<rscale>  2 0.42890769E+03</rscale>
<asrwt>0</asrwt>
<pdfrwt beam="1">  1       21 0.33429004E-01 0.42913535E+03</pdfrwt>
<pdfrwt beam="2">  1       21 0.17372931E+00 0.42913535E+03</pdfrwt>
<totfact> 0.14794461E+03</totfact>
</mgrwt>
</event>
<event>
 6    1  0.9094387E-004  0.4285284E+03  0.7818608E-02  0.1034331E+00
         21   -1    0    0  501  502  0.00000000000E+00  0.00000000000E+00  0.28472907279E+03  0.28472907279E+03  0.00000000000E+00 0.  1.
         21   -1    0    0  502  503 -0.00000000000E+00 -0.00000000000E+00 -0.93313081785E+03  0.93313081785E+03  0.00000000000E+00 0.  1.
    9000007    2    1    2  501    0 -0.51953459908E+02  0.14469771823E+03  0.14276453701E+02  0.42869641787E+03  0.39992525540E+03 0.  0.
    9000005    1    3    3    0    0 -0.18594319154E+03  0.18074391558E+03 -0.67079664770E+02  0.26785054587E+03  0.99999687468E+00 0.  0.
          4    1    3    3  501    0  0.13398973164E+03 -0.36046197351E+02  0.81356118472E+02  0.16084587200E+03  0.00000000000E+00 0.  1.
   -9000007    1    1    2    0  503  0.51953459908E+02 -0.14469771823E+03 -0.66267819876E+03  0.78916347278E+03  0.40000000000E+03 0.  1.
<mgrwt>
<rscale>  2 0.42851096E+03</rscale>
<asrwt>0</asrwt>
<pdfrwt beam="1">  1       21 0.43804473E-01 0.42852840E+03</pdfrwt>
<pdfrwt beam="2">  1       21 0.14355859E+00 0.42852840E+03</pdfrwt>
<totfact> 0.14428131E+03</totfact>
</mgrwt>
</event>
<event>
 6    1  0.9094387E-004  0.4098515E+03  0.7818608E-02  0.1040433E+00
         21   -1    0    0  501  502  0.00000000000E+00  0.00000000000E+00  0.44495619906E+03  0.44495619906E+03  0.00000000000E+00 0.  1.
         21   -1    0    0  502  503 -0.00000000000E+00 -0.00000000000E+00 -0.38154601968E+03  0.38154601968E+03  0.00000000000E+00 0.  1.
    9000007    2    1    2  501    0  0.82993862412E+02 -0.31110208640E+02 -0.11477265816E+02  0.41001217597E+03  0.40015300891E+03 0.  0.
    9000005    1    3    3    0    0 -0.13149726329E+03  0.93904015735E+02 -0.43752721294E+01  0.16164664371E+03  0.99999687468E+00 0.  0.
          4    1    3    3  501    0  0.21449112570E+03 -0.12501422438E+03 -0.71019936868E+01  0.24836553226E+03  0.00000000000E+00 0.  1.
   -9000007    1    1    2    0  503 -0.82993862412E+02  0.31110208640E+02  0.74887445191E+02  0.41649004277E+03  0.40000000000E+03 0.  1.
<mgrwt>
<rscale>  2 0.40981415E+03</rscale>
<asrwt>0</asrwt>
<pdfrwt beam="1">  1       21 0.68454800E-01 0.40985151E+03</pdfrwt>
<pdfrwt beam="2">  1       21 0.58699388E-01 0.40985151E+03</pdfrwt>
<totfact> 0.47098144E+03</totfact>
</mgrwt>
</event>
<event>
 6    1  0.9094387E-004  0.5273336E+03  0.7818608E-02  0.1006960E+00
         21   -1    0    0  501  502  0.00000000000E+00  0.00000000000E+00  0.10414439980E+03  0.10414439980E+03  0.00000000000E+00 0. -1.
         21   -1    0    0  502  503 -0.00000000000E+00 -0.00000000000E+00 -0.27173918324E+04  0.27173918324E+04  0.00000000000E+00 0. -1.
    9000007    2    1    2  501    0  0.17050287083E+03 -0.29834451892E+03 -0.11065769910E+04  0.12252478809E+04  0.39829518159E+03 0.  0.
    9000005    1    3    3    0    0  0.74842782217E+02 -0.26104286650E+03 -0.10874005363E+04  0.11207969248E+04  0.99999687468E+00 0.  0.
          4    1    3    3  501    0  0.95660088611E+02 -0.37301652413E+02 -0.19176454727E+02  0.10445095616E+03  0.00000000000E+00 0.  1.
   -9000007    1    1    2    0  503 -0.17050287083E+03  0.29834451892E+03 -0.15066704416E+04  0.15962883513E+04  0.40000000000E+03 0. -1.
<mgrwt>
<rscale>  2 0.52701026E+03</rscale>
<asrwt>0</asrwt>
<pdfrwt beam="1">  1       21 0.16022215E-01 0.52733356E+03</pdfrwt>
<pdfrwt beam="2">  1       21 0.41806029E+00 0.52733356E+03</pdfrwt>
<totfact> 0.16873295E+02</totfact>
</mgrwt>
</event>
<event>
 6    1  0.9094387E-004  0.5859602E+03  0.7818608E-02  0.9935277E-01
         21   -1    0    0  501  502  0.00000000000E+00  0.00000000000E+00  0.44705712576E+03  0.44705712576E+03  0.00000000000E+00 0.  1.
         21   -1    0    0  502  503 -0.00000000000E+00 -0.00000000000E+00 -0.87736471424E+03  0.87736471424E+03  0.00000000000E+00 0.  1.
    9000007    2    1    2  501    0  0.40215820988E+03 -0.14703100547E+03 -0.44964270693E+03  0.73814273484E+03  0.39915760140E+03 0.  0.
    9000005    1    3    3    0    0  0.20662062629E+02 -0.94144683123E+02  0.48958521455E+02  0.10811141942E+03  0.99999687468E+00 0.  0.
          4    1    3    3  501    0  0.38149614725E+03 -0.52886322351E+02 -0.49860122838E+03  0.63003131542E+03  0.00000000000E+00 0.  1.
   -9000007    1    1    2    0  503 -0.40215820988E+03  0.14703100547E+03  0.19335118449E+02  0.58627910516E+03  0.40000000000E+03 0.  1.
<mgrwt>
<rscale>  2 0.58581645E+03</rscale>
<asrwt>0</asrwt>
<pdfrwt beam="1">  1       21 0.68778020E-01 0.58596019E+03</pdfrwt>
<pdfrwt beam="2">  1       21 0.13497919E+00 0.58596019E+03</pdfrwt>
<totfact> 0.60266186E+02</totfact>
</mgrwt>
</event>
<event>
 6    1  0.9094387E-004  0.4455040E+03  0.7818608E-02  0.1029129E+00
         21   -1    0    0  501  502  0.00000000000E+00  0.00000000000E+00  0.55376415568E+03  0.55376415568E+03  0.00000000000E+00 0.  1.
         21   -1    0    0  502  503 -0.00000000000E+00 -0.00000000000E+00 -0.39981274410E+03  0.39981274410E+03  0.00000000000E+00 0.  1.
    9000007    2    1    2  501    0 -0.67757120952E+01  0.19603040793E+03  0.23148508893E+03  0.50137638869E+03  0.39914797460E+03 0.  0.
    9000005    1    3    3    0    0  0.16023777234E+03  0.10476691740E+03 -0.12595292665E+02  0.19186425424E+03  0.99999687468E+00 0.  0.
          4    1    3    3  501    0 -0.16701348444E+03  0.91263490535E+02  0.24408038159E+03  0.30951213444E+03  0.00000000000E+00 0.  1.
   -9000007    1    1    2    0  503  0.67757120952E+01 -0.19603040793E+03 -0.77533677354E+02  0.45220051109E+03  0.40000000000E+03 0.  1.
<mgrwt>
<rscale>  2 0.44531269E+03</rscale>
<asrwt>0</asrwt>
<pdfrwt beam="1">  1       21 0.85194485E-01 0.44550402E+03</pdfrwt>
<pdfrwt beam="2">  1       21 0.61509653E-01 0.44550402E+03</pdfrwt>
<totfact> 0.25444022E+03</totfact>
</mgrwt>
</event>
<event>
 6    1  0.9094387E-004  0.4751126E+03  0.7818608E-02  0.1020506E+00
         21   -1    0    0  501  502  0.00000000000E+00  0.00000000000E+00  0.34944360054E+03  0.34944360054E+03  0.00000000000E+00 0.  1.
         21   -1    0    0  502  503 -0.00000000000E+00 -0.00000000000E+00 -0.73917226711E+03  0.73917226711E+03  0.00000000000E+00 0.  1.
    9000007    2    1    2  501    0  0.20686342219E+03  0.15058685989E+03 -0.12503635000E+01  0.47511422155E+03  0.40032871780E+03 0.  0.
    9000005    1    3    3    0    0 -0.33480075323E+02 -0.49870061259E+02 -0.12490828117E+03  0.13860381363E+03  0.99999687468E+00 0.  0.
          4    1    3    3  501    0  0.24034349752E+03  0.20045692115E+03  0.12365791767E+03  0.33651040792E+03  0.00000000000E+00 0.  1.
   -9000007    1    1    2    0  503 -0.20686342219E+03 -0.15058685989E+03 -0.38847830307E+03  0.61350164610E+03  0.40000000000E+03 0.  1.
<mgrwt>
<rscale>  2 0.47504333E+03</rscale>
<asrwt>0</asrwt>
<pdfrwt beam="1">  1       21 0.53760555E-01 0.47511258E+03</pdfrwt>
<pdfrwt beam="2">  1       21 0.11371881E+00 0.47511258E+03</pdfrwt>
<totfact> 0.16765953E+03</totfact>
</mgrwt>
</event>
<event>
 6    1  0.9094387E-004  0.5812430E+03  0.7818608E-02  0.9945606E-01
         21   -1    0    0  501  502  0.00000000000E+00  0.00000000000E+00  0.40950634890E+03  0.40950634890E+03  0.00000000000E+00 0. -1.
         21   -1    0    0  502  503 -0.00000000000E+00 -0.00000000000E+00 -0.94567522261E+03  0.94567522261E+03  0.00000000000E+00 0.  1.
    9000007    2    1    2  501    0 -0.23673624774E+03 -0.34744595999E+03 -0.24902779394E+02  0.58177626684E+03  0.40134863913E+03 0.  0.
    9000005    1    3    3    0    0 -0.32430233228E+03 -0.33747173036E+03  0.43723292722E+02  0.47007648084E+03  0.99999687468E+00 0.  0.
          4    1    3    3  501    0  0.87566084545E+02 -0.99742296286E+01 -0.68626072116E+02  0.11169978600E+03  0.00000000000E+00 0.  1.
   -9000007    1    1    2    0  503  0.23673624774E+03  0.34744595999E+03 -0.51126609431E+03  0.77340530468E+03  0.40000000000E+03 0.  1.
<mgrwt>
<rscale>  2 0.58101030E+03</rscale>
<asrwt>0</asrwt>
<pdfrwt beam="1">  1       21 0.63000977E-01 0.58124304E+03</pdfrwt>
<pdfrwt beam="2">  1       21 0.14548849E+00 0.58124304E+03</pdfrwt>
<totfact> 0.60090618E+02</totfact>
</mgrwt>
</event>
<event>
 6    1  0.9094387E-004  0.4370005E+03  0.7818608E-02  0.1031838E+00
         21   -1    0    0  501  502  0.00000000000E+00  0.00000000000E+00  0.31201781388E+03  0.31201781388E+03  0.00000000000E+00 0.  1.
         21   -1    0    0  502  503 -0.00000000000E+00 -0.00000000000E+00 -0.63779286553E+03  0.63779286553E+03  0.00000000000E+00 0.  1.
    9000007    2    1    2  501    0  0.42648518167E+01  0.17051699814E+03 -0.62433727829E+02  0.44143789448E+03  0.40233718285E+03 0.  0.
    9000005    1    3    3    0    0  0.88814827557E+02  0.25782410291E+03 -0.13031152763E+03  0.30223076591E+03  0.99999687468E+00 0.  0.
          4    1    3    3  501    0 -0.84549975740E+02 -0.87307104771E+02  0.67877799797E+02  0.13920712858E+03  0.00000000000E+00 0.  1.
   -9000007    1    1    2    0  503 -0.42648518167E+01 -0.17051699814E+03 -0.26334132382E+03  0.50837278492E+03  0.40000000000E+03 0. -1.
<mgrwt>
<rscale>  2 0.43646180E+03</rscale>
<asrwt>0</asrwt>
<pdfrwt beam="1">  1       21 0.48002741E-01 0.43700051E+03</pdfrwt>
<pdfrwt beam="2">  1       21 0.98121979E-01 0.43700051E+03</pdfrwt>
<totfact> 0.31132208E+03</totfact>
</mgrwt>
</event>
<event>
 6    1  0.9094387E-004  0.6903390E+03  0.7818608E-02  0.9733978E-01
         21   -1    0    0  501  502  0.00000000000E+00  0.00000000000E+00  0.22342505286E+04  0.22342505286E+04  0.00000000000E+00 0.  1.
         21   -1    0    0  502  503 -0.00000000000E+00 -0.00000000000E+00 -0.26281734605E+03  0.26281734605E+03  0.00000000000E+00 0. -1.
    9000007    2    1    2  501    0 -0.27515220771E+03 -0.49051487258E+03  0.44357650962E+03  0.82056568537E+03  0.40031780687E+03 0.  0.
    9000005    1    3    3    0    0 -0.53285695265E+02  0.54129961470E+02  0.13869274358E+03  0.15813315643E+03  0.99999687468E+00 0.  0.
          4    1    3    3  501    0 -0.22186651244E+03 -0.54464483405E+03  0.30488376604E+03  0.66243252894E+03  0.00000000000E+00 0.  1.
   -9000007    1    1    2    0  503  0.27515220771E+03  0.49051487258E+03  0.15278566729E+04  0.16765021892E+04  0.40000000000E+03 0. -1.
<mgrwt>
<rscale>  2 0.69029293E+03</rscale>
<asrwt>0</asrwt>
<pdfrwt beam="1">  1       21 0.34373084E+00 0.69033899E+03</pdfrwt>
<pdfrwt beam="2">  1       21 0.40433439E-01 0.69033899E+03</pdfrwt>
<totfact> 0.75021845E+01</totfact>
</mgrwt>
</event>
<event>
 6    1  0.9094387E-004  0.4274247E+03  0.7818608E-02  0.1034913E+00
         21   -1    0    0  501  502  0.00000000000E+00  0.00000000000E+00  0.89492277496E+03  0.89492277496E+03  0.00000000000E+00 0.  1.
         21   -1    0    0  502  503 -0.00000000000E+00 -0.00000000000E+00 -0.28664075846E+03  0.28664075846E+03  0.00000000000E+00 0.  1.
    9000007    2    1    2  501    0 -0.14783232928E+03 -0.28938619228E+02  0.62303362827E+03  0.75388438813E+03  0.39683614686E+03 0.  0.
    9000005    1    3    3    0    0  0.37519357215E+02  0.15422211173E+03  0.18078963354E+03  0.24057858072E+03  0.99999687468E+00 0.  0.
          4    1    3    3  501    0 -0.18535168650E+03 -0.18316073095E+03  0.44224399473E+03  0.51330580742E+03  0.00000000000E+00 0.  1.
   -9000007    1    1    2    0  503  0.14783232928E+03  0.28938619228E+02 -0.14751611758E+02  0.42767914529E+03  0.40000000000E+03 0.  1.
<mgrwt>
<rscale>  2 0.42668289E+03</rscale>
<asrwt>0</asrwt>
<pdfrwt beam="1">  1       21 0.13768043E+00 0.42742466E+03</pdfrwt>
<pdfrwt beam="2">  1       21 0.44098579E-01 0.42742466E+03</pdfrwt>
<totfact> 0.15909973E+03</totfact>
</mgrwt>
</event>
<event>
 6    1  0.9094387E-004  0.4224243E+03  0.7818608E-02  0.1036330E+00
         21   -1    0    0  501  502  0.00000000000E+00  0.00000000000E+00  0.18982055420E+04  0.18982055420E+04  0.00000000000E+00 0. -1.
         21   -1    0    0  502  503 -0.00000000000E+00 -0.00000000000E+00 -0.99464038360E+02  0.99464038360E+02  0.00000000000E+00 0. -1.
    9000007    2    1    2  501    0 -0.10971088345E+03  0.80036426247E+02  0.11356679720E+04  0.12114706133E+04  0.39934571078E+03 0.  0.
    9000005    1    3    3    0    0 -0.24702479372E+03  0.69527269818E+01  0.86156186366E+03  0.89630320430E+03  0.99999687468E+00 0.  0.
          4    1    3    3  501    0  0.13731391027E+03  0.73083699265E+02  0.27410610838E+03  0.31516740901E+03  0.00000000000E+00 0.  1.
   -9000007    1    1    2    0  503  0.10971088345E+03 -0.80036426247E+02  0.66307353155E+03  0.78619896701E+03  0.40000000000E+03 0. -1.
<mgrwt>
<rscale>  2 0.42226936E+03</rscale>
<asrwt>0</asrwt>
<pdfrwt beam="1">  1       21 0.29203159E+00 0.42242432E+03</pdfrwt>
<pdfrwt beam="2">  1       21 0.15302161E-01 0.42242432E+03</pdfrwt>
<totfact> 0.11827436E+03</totfact>
</mgrwt>
</event>
<event>
 6    1  0.9094387E-004  0.4212238E+03  0.7818608E-02  0.1036889E+00
         21   -1    0    0  501  502  0.00000000000E+00  0.00000000000E+00  0.40716514470E+03  0.40716514470E+03  0.00000000000E+00 0.  1.
         21   -1    0    0  502  503 -0.00000000000E+00 -0.00000000000E+00 -0.47965463123E+03  0.47965463123E+03  0.00000000000E+00 0.  1.
    9000007    2    1    2  501    0  0.97689472089E+02 -0.74883075027E+02  0.10199004333E+03  0.43339523511E+03  0.40283837080E+03 0.  0.
    9000005    1    3    3    0    0 -0.13903364660E+03  0.43050150196E+01 -0.41897804314E+02  0.14527668099E+03  0.99999687468E+00 0.  0.
          4    1    3    3  501    0  0.23672311868E+03 -0.79188090047E+02  0.14388784765E+03  0.28811855411E+03  0.00000000000E+00 0.  1.
   -9000007    1    1    2    0  503 -0.97689472089E+02  0.74883075027E+02 -0.17447952985E+03  0.45342454082E+03  0.40000000000E+03 0.  1.
<mgrwt>
<rscale>  2 0.42054371E+03</rscale>
<asrwt>0</asrwt>
<pdfrwt beam="1">  1       21 0.62640791E-01 0.42122377E+03</pdfrwt>
<pdfrwt beam="2">  1       21 0.73793020E-01 0.42122377E+03</pdfrwt>
<totfact> 0.34341946E+03</totfact>
</mgrwt>
</event>
<event>
 6    1  0.9094387E-004  0.6708518E+03  0.7818608E-02  0.9768635E-01
         21   -1    0    0  501  502  0.00000000000E+00  0.00000000000E+00  0.84616903680E+03  0.84616903680E+03  0.00000000000E+00 0.  1.
         21   -1    0    0  502  503 -0.00000000000E+00 -0.00000000000E+00 -0.54944391292E+03  0.54944391292E+03  0.00000000000E+00 0.  1.
    9000007    2    1    2  501    0 -0.30655402235E+03 -0.44279422358E+03  0.27448495579E+03  0.72439262960E+03  0.39919994715E+03 0.  0.
    9000005    1    3    3    0    0 -0.17658119513E+03 -0.21538651687E+03  0.35421094586E+03  0.45059811838E+03  0.99999687468E+00 0.  0.
          4    1    3    3  501    0 -0.12997282722E+03 -0.22740770671E+03 -0.79725990062E+02  0.27379451123E+03  0.00000000000E+00 0.  1.
   -9000007    1    1    2    0  503  0.30655402235E+03  0.44279422358E+03  0.22240168087E+02  0.67122032011E+03  0.40000000000E+03 0.  1.
<mgrwt>
<rscale>  2 0.67073255E+03</rscale>
<asrwt>0</asrwt>
<pdfrwt beam="1">  1       21 0.13017985E+00 0.67085177E+03</pdfrwt>
<pdfrwt beam="2">  1       21 0.84529833E-01 0.67085177E+03</pdfrwt>
<totfact> 0.40101636E+02</totfact>
</mgrwt>
</event>
<event>
 6    1  0.9094387E-004  0.5662978E+03  0.7818608E-02  0.9979560E-01
         21   -1    0    0  501  502  0.00000000000E+00  0.00000000000E+00  0.19411515952E+04  0.19411515952E+04  0.00000000000E+00 0. -1.
         21   -1    0    0  502  503 -0.00000000000E+00 -0.00000000000E+00 -0.19653957931E+03  0.19653957931E+03  0.00000000000E+00 0. -1.
    9000007    2    1    2  501    0  0.35860504542E+03  0.16956486000E+03  0.13068081316E+04  0.14242333541E+04  0.40415756077E+03 0.  0.
    9000005    1    3    3    0    0  0.19003570292E+03  0.29424201843E+03  0.71076053691E+03  0.79238467591E+03  0.99999687468E+00 0.  0.
          4    1    3    3  501    0  0.16856934250E+03 -0.12467715843E+03  0.59604759468E+03  0.63184867824E+03  0.00000000000E+00 0.  1.
   -9000007    1    1    2    0  503 -0.35860504542E+03 -0.16956486000E+03  0.43780388435E+03  0.71345782041E+03  0.40000000000E+03 0. -1.
<mgrwt>
<rscale>  2 0.56555639E+03</rscale>
<asrwt>0</asrwt>
<pdfrwt beam="1">  1       21 0.29863869E+00 0.56629776E+03</pdfrwt>
<pdfrwt beam="2">  1       21 0.30236860E-01 0.56629776E+03</pdfrwt>
<totfact> 0.27086530E+02</totfact>
</mgrwt>
</event>
<event>
 6    1  0.9094387E-004  0.5080423E+03  0.7818608E-02  0.1011705E+00
         21   -1    0    0  501  502  0.00000000000E+00  0.00000000000E+00  0.18178844331E+03  0.18178844331E+03  0.00000000000E+00 0.  1.
         21   -1    0    0  502  503 -0.00000000000E+00 -0.00000000000E+00 -0.14866437995E+04  0.14866437995E+04  0.00000000000E+00 0. -1.
    9000007    2    1    2  501    0 -0.16593607055E+03 -0.26565420960E+03 -0.47525807595E+03  0.69563288736E+03  0.39990991066E+03 0.  0.
    9000005    1    3    3    0    0 -0.14293303027E+03 -0.44799271922E+02 -0.44743962282E+03  0.47184747744E+03  0.99999687468E+00 0.  0.
          4    1    3    3  501    0 -0.23003040276E+02 -0.22085493768E+03 -0.27818453130E+02  0.22378540992E+03  0.00000000000E+00 0.  1.
   -9000007    1    1    2    0  503  0.16593607055E+03  0.26565420960E+03 -0.82959728026E+03  0.97279935547E+03  0.40000000000E+03 0. -1.
<mgrwt>
<rscale>  2 0.50802453E+03</rscale>
<asrwt>0</asrwt>
<pdfrwt beam="1">  1       21 0.27967454E-01 0.50804226E+03</pdfrwt>
<pdfrwt beam="2">  1       21 0.22871442E+00 0.50804226E+03</pdfrwt>
<totfact> 0.87398225E+02</totfact>
</mgrwt>
</event>
<event>
 6    1  0.9094387E-004  0.4342784E+03  0.7818608E-02  0.1032554E+00
         21   -1    0    0  501  502  0.00000000000E+00  0.00000000000E+00  0.26875852657E+03  0.26875852657E+03  0.00000000000E+00 0.  1.
         21   -1    0    0  502  503 -0.00000000000E+00 -0.00000000000E+00 -0.97595830360E+03  0.97595830360E+03  0.00000000000E+00 0.  1.
    9000007    2    1    2  501    0 -0.10740553932E+03 -0.12903382539E+03 -0.68409466533E+03  0.81029822542E+03  0.40051470012E+03 0.  0.
    9000005    1    3    3    0    0 -0.26948391787E+02 -0.17543507011E+03 -0.72565609317E+02  0.19175621840E+03  0.99999687468E+00 0.  0.
          4    1    3    3  501    0 -0.80457147531E+02  0.46401244722E+02 -0.61152905601E+03  0.61854200702E+03  0.00000000000E+00 0.  1.
   -9000007    1    1    2    0  503  0.10740553932E+03  0.12903382539E+03 -0.23105111700E+02  0.43441860476E+03  0.40000000000E+03 0.  1.
<mgrwt>
<rscale>  2 0.43415966E+03</rscale>
<asrwt>0</asrwt>
<pdfrwt beam="1">  1       21 0.41347465E-01 0.43427837E+03</pdfrwt>
<pdfrwt beam="2">  1       21 0.15014743E+00 0.43427837E+03</pdfrwt>
<totfact> 0.14377728E+03</totfact>
</mgrwt>
</event>
<event>
 6    1  0.9094387E-004  0.6059238E+03  0.7818608E-02  0.9893587E-01
         21   -1    0    0  501  502  0.00000000000E+00  0.00000000000E+00  0.60370415004E+03  0.60370415004E+03  0.00000000000E+00 0.  1.
         21   -1    0    0  502  503 -0.00000000000E+00 -0.00000000000E+00 -0.62355911835E+03  0.62355911835E+03  0.00000000000E+00 0.  1.
    9000007    2    1    2  501    0  0.29984251150E+03 -0.34103474581E+03  0.88914714166E+02  0.61241282041E+03  0.40116506161E+03 0.  0.
    9000005    1    3    3    0    0  0.22024365831E+03 -0.31715505463E+03 -0.10609043622E+03  0.40043823288E+03  0.99999687468E+00 0.  0.
          4    1    3    3  501    0  0.79598853193E+02 -0.23879691183E+02  0.19500515039E+03  0.21197458753E+03  0.00000000000E+00 0.  1.
   -9000007    1    1    2    0  503 -0.29984251150E+03  0.34103474581E+03 -0.10876968248E+03  0.61485044798E+03  0.40000000000E+03 0.  1.
<mgrwt>
<rscale>  2 0.60573101E+03</rscale>
<asrwt>0</asrwt>
<pdfrwt beam="1">  1       21 0.92877561E-01 0.60592379E+03</pdfrwt>
<pdfrwt beam="2">  1       21 0.95932172E-01 0.60592379E+03</pdfrwt>
<totfact> 0.70553761E+02</totfact>
</mgrwt>
</event>
<event>
 6    1  0.9094387E-004  0.4393474E+03  0.7818608E-02  0.1031068E+00
         21   -1    0    0  501  502  0.00000000000E+00  0.00000000000E+00  0.41944074901E+03  0.41944074901E+03  0.00000000000E+00 0.  1.
         21   -1    0    0  502  503 -0.00000000000E+00 -0.00000000000E+00 -0.45894089651E+03  0.45894089651E+03  0.00000000000E+00 0.  1.
    9000007    2    1    2  501    0 -0.28394478215E+02  0.17563538971E+03 -0.71608374768E+01  0.43940571510E+03  0.40171142423E+03 0.  0.
    9000005    1    3    3    0    0 -0.27574339218E+02  0.89514732897E+02 -0.20403947494E+03  0.22451356065E+03  0.99999687468E+00 0.  0.
          4    1    3    3  501    0 -0.82013899679E+00  0.86120656815E+02  0.19687863746E+03  0.21489215445E+03  0.00000000000E+00 0.  1.
   -9000007    1    1    2    0  503  0.28394478215E+02 -0.17563538971E+03 -0.32339310027E+02  0.43897593042E+03  0.40000000000E+03 0.  1.
<mgrwt>
<rscale>  2 0.43895577E+03</rscale>
<asrwt>0</asrwt>
<pdfrwt beam="1">  1       21 0.64529346E-01 0.43934736E+03</pdfrwt>
<pdfrwt beam="2">  1       21 0.70606291E-01 0.43934736E+03</pdfrwt>
<totfact> 0.35304410E+03</totfact>
</mgrwt>
</event>
<event>
 6    1  0.9094387E-004  0.4055869E+03  0.7818608E-02  0.1041952E+00
         21   -1    0    0  501  502  0.00000000000E+00  0.00000000000E+00  0.47474156761E+03  0.47474156761E+03  0.00000000000E+00 0. -1.
         21   -1    0    0  502  503 -0.00000000000E+00 -0.00000000000E+00 -0.39167730287E+03  0.39167730287E+03  0.00000000000E+00 0. -1.
    9000007    2    1    2  501    0  0.58736001990E+02  0.13972472847E+02  0.19015883437E+03  0.44795215165E+03  0.40106807396E+03 0.  0.
    9000005    1    3    3    0    0 -0.20752637277E+01  0.56011753696E+02  0.30569264175E+03  0.31079030630E+03  0.99999687468E+00 0.  0.
          4    1    3    3  501    0  0.60811265717E+02 -0.42039280850E+02 -0.11553380738E+03  0.13716184535E+03  0.00000000000E+00 0.  1.
   -9000007    1    1    2    0  503 -0.58736001990E+02 -0.13972472847E+02 -0.10709456964E+03  0.41846671884E+03  0.40000000000E+03 0. -1.
<mgrwt>
<rscale>  2 0.40532262E+03</rscale>
<asrwt>0</asrwt>
<pdfrwt beam="1">  1       21 0.73037164E-01 0.40558692E+03</pdfrwt>
<pdfrwt beam="2">  1       21 0.60258047E-01 0.40558692E+03</pdfrwt>
<totfact> 0.38503910E+03</totfact>
</mgrwt>
</event>
<event>
 6    1  0.9094387E-004  0.4595716E+03  0.7818608E-02  0.1024910E+00
         21   -1    0    0  501  502  0.00000000000E+00  0.00000000000E+00  0.97433325855E+03  0.97433325855E+03  0.00000000000E+00 0.  1.
         21   -1    0    0  502  503 -0.00000000000E+00 -0.00000000000E+00 -0.21847975668E+03  0.21847975668E+03  0.00000000000E+00 0.  1.
    9000007    2    1    2  501    0  0.45227436891E+02  0.22159675589E+03  0.43115072726E+03  0.63015633917E+03  0.40006926765E+03 0.  0.
    9000005    1    3    3    0    0 -0.14494769344E+03 -0.22304800455E+02  0.10291062323E+03  0.17916175464E+03  0.99999687468E+00 0.  0.
          4    1    3    3  501    0  0.19017513034E+03  0.24390155634E+03  0.32824010403E+03  0.45099458454E+03  0.00000000000E+00 0.  1.
   -9000007    1    1    2    0  503 -0.45227436891E+02 -0.22159675589E+03  0.32470277461E+03  0.56265667605E+03  0.40000000000E+03 0.  1.
<mgrwt>
<rscale>  2 0.45955653E+03</rscale>
<asrwt>0</asrwt>
<pdfrwt beam="1">  1       21 0.14989742E+00 0.45957161E+03</pdfrwt>
<pdfrwt beam="2">  1       21 0.33612271E-01 0.45957161E+03</pdfrwt>
<totfact> 0.21814146E+03</totfact>
</mgrwt>
</event>
<event>
 6    1  0.9094387E-004  0.4330170E+03  0.7818608E-02  0.1032982E+00
         21   -1    0    0  501  502  0.00000000000E+00  0.00000000000E+00  0.71492275971E+03  0.71492275971E+03  0.00000000000E+00 0.  1.
         21   -1    0    0  502  503 -0.00000000000E+00 -0.00000000000E+00 -0.26583836295E+03  0.26583836295E+03  0.00000000000E+00 0.  1.
    9000007    2    1    2  501    0  0.27421106359E+02 -0.16355992305E+03  0.28531393577E+03  0.51780914957E+03  0.39902193916E+03 0.  0.
    9000005    1    3    3    0    0  0.86294098951E+02 -0.12779574106E+03  0.37456548521E+03  0.40506632253E+03  0.99999687468E+00 0.  0.
          4    1    3    3  501    0 -0.58872992592E+02 -0.35764181987E+02 -0.89251549441E+02  0.11274282703E+03  0.00000000000E+00 0.  1.
   -9000007    1    1    2    0  503 -0.27421106359E+02  0.16355992305E+03  0.16377046099E+03  0.46295197310E+03  0.40000000000E+03 0. -1.
<mgrwt>
<rscale>  2 0.43279104E+03</rscale>
<asrwt>0</asrwt>
<pdfrwt beam="1">  1       21 0.10998812E+00 0.43301705E+03</pdfrwt>
<pdfrwt beam="2">  1       21 0.40898210E-01 0.43301705E+03</pdfrwt>
<totfact> 0.32932442E+03</totfact>
</mgrwt>
</event>
<event>
 6    1  0.9094387E-004  0.4941790E+03  0.7818608E-02  0.1015317E+00
         21   -1    0    0  501  502  0.00000000000E+00  0.00000000000E+00  0.16114074028E+03  0.16114074028E+03  0.00000000000E+00 0.  1.
         21   -1    0    0  502  503 -0.00000000000E+00 -0.00000000000E+00 -0.15167012842E+04  0.15167012842E+04  0.00000000000E+00 0. -1.
    9000007    2    1    2  501    0 -0.25141774383E+03 -0.14492061954E+03 -0.70421241598E+03  0.86024355845E+03  0.39986370824E+03 0.  0.
    9000005    1    3    3    0    0 -0.45756554083E+01 -0.49014194085E+01 -0.52405557105E+03  0.52409942003E+03  0.99999687468E+00 0.  0.
          4    1    3    3  501    0 -0.24684208842E+03 -0.14001920013E+03 -0.18015684493E+03  0.33614413842E+03  0.00000000000E+00 0.  1.
   -9000007    1    1    2    0  503  0.25141774383E+03  0.14492061954E+03 -0.65134812797E+03  0.81759846605E+03  0.40000000000E+03 0.  1.
<mgrwt>
<rscale>  2 0.49415140E+03</rscale>
<asrwt>0</asrwt>
<pdfrwt beam="1">  1       21 0.24790883E-01 0.49417898E+03</pdfrwt>
<pdfrwt beam="2">  1       21 0.23333866E+00 0.49417898E+03</pdfrwt>
<totfact> 0.10411903E+03</totfact>
</mgrwt>
</event>
<event>
 6    1  0.9094387E-004  0.4514292E+03  0.7818608E-02  0.1027306E+00
         21   -1    0    0  501  502  0.00000000000E+00  0.00000000000E+00  0.67611878472E+02  0.67611878472E+02  0.00000000000E+00 0.  1.
         21   -1    0    0  502  503 -0.00000000000E+00 -0.00000000000E+00 -0.37054402109E+04  0.37054402109E+04  0.00000000000E+00 0. -1.
    9000007    2    1    2  501    0  0.13800044944E+03  0.15730287611E+03 -0.10033470942E+04  0.11001735450E+04  0.39986012380E+03 0.  0.
    9000005    1    3    3    0    0 -0.20687361458E+02 -0.11542903101E+03 -0.43032576114E+03  0.44601915745E+03  0.99999687468E+00 0.  0.
          4    1    3    3  501    0  0.15868781090E+03  0.27273190712E+03 -0.57302133310E+03  0.65415438750E+03  0.00000000000E+00 0.  1.
   -9000007    1    1    2    0  503 -0.13800044944E+03 -0.15730287611E+03 -0.26344812382E+04  0.26728785444E+04  0.40000000000E+03 0. -1.
<mgrwt>
<rscale>  2 0.45139821E+03</rscale>
<asrwt>0</asrwt>
<pdfrwt beam="1">  1       21 0.10401824E-01 0.45142920E+03</pdfrwt>
<pdfrwt beam="2">  1       21 0.57006791E+00 0.45142920E+03</pdfrwt>
<totfact> 0.32660597E+01</totfact>
</mgrwt>
</event>
<event>
 6    1  0.9094387E-004  0.4377736E+03  0.7818608E-02  0.1031432E+00
         21   -1    0    0  501  502  0.00000000000E+00  0.00000000000E+00  0.15877588158E+03  0.15877588158E+03  0.00000000000E+00 0. -1.
         21   -1    0    0  502  503 -0.00000000000E+00 -0.00000000000E+00 -0.13463051669E+04  0.13463051669E+04  0.00000000000E+00 0. -1.
    9000007    2    1    2  501    0  0.76979260416E+02  0.16036928412E+03 -0.35170853405E+03  0.56155550984E+03  0.40000197985E+03 0.  0.
    9000005    1    3    3    0    0  0.17705084283E+02  0.26466611994E+03 -0.35303587902E+03  0.44158459769E+03  0.99999687468E+00 0.  0.
          4    1    3    3  501    0  0.59274176133E+02 -0.10429683581E+03  0.13273449648E+01  0.11997091215E+03  0.00000000000E+00 0.  1.
   -9000007    1    1    2    0  503 -0.76979260416E+02 -0.16036928412E+03 -0.83582075126E+03  0.94352553863E+03  0.40000000000E+03 0. -1.
<mgrwt>
<rscale>  2 0.43777312E+03</rscale>
<asrwt>0</asrwt>
<pdfrwt beam="1">  1       21 0.24427059E-01 0.43777357E+03</pdfrwt>
<pdfrwt beam="2">  1       21 0.20712387E+00 0.43777357E+03</pdfrwt>
<totfact> 0.16181527E+03</totfact>
</mgrwt>
</event>
<event>
 6    1  0.9094387E-004  0.4175630E+03  0.7818608E-02  0.1038147E+00
         21   -1    0    0  501  502  0.00000000000E+00  0.00000000000E+00  0.31895932552E+03  0.31895932552E+03  0.00000000000E+00 0.  1.
         21   -1    0    0  502  503 -0.00000000000E+00 -0.00000000000E+00 -0.57690644374E+03  0.57690644374E+03  0.00000000000E+00 0.  1.
    9000007    2    1    2  501    0  0.75677970402E+02  0.92907178315E+02 -0.18501268216E+02  0.41452055627E+03  0.39639134155E+03 0.  0.
    9000005    1    3    3    0    0  0.20241199713E+03 -0.58480818233E+02  0.25538282882E+02  0.21223530943E+03  0.99999687468E+00 0.  0.
          4    1    3    3  501    0 -0.12673402673E+03  0.15138799655E+03 -0.44039551098E+02  0.20228524684E+03  0.00000000000E+00 0.  1.
   -9000007    1    1    2    0  503 -0.75677970402E+02 -0.92907178315E+02 -0.23944585000E+03  0.48134521299E+03  0.40000000000E+03 0.  1.
<mgrwt>
<rscale>  2 0.41669646E+03</rscale>
<asrwt>0</asrwt>
<pdfrwt beam="1">  1       21 0.49070666E-01 0.41756305E+03</pdfrwt>
<pdfrwt beam="2">  1       21 0.88754836E-01 0.41756305E+03</pdfrwt>
<totfact> 0.38018375E+03</totfact>
</mgrwt>
</event>
<event>
 6    1  0.9094387E-004  0.4079023E+03  0.7818608E-02  0.1041121E+00
         21   -1    0    0  501  502  0.00000000000E+00  0.00000000000E+00  0.18085146766E+04  0.18085146766E+04  0.00000000000E+00 0. -1.
         21   -1    0    0  502  503 -0.00000000000E+00 -0.00000000000E+00 -0.92260734384E+02  0.92260734384E+02  0.00000000000E+00 0. -1.
    9000007    2    1    2  501    0  0.63738068214E+02 -0.43567651391E+02  0.79788906757E+03  0.89610893669E+03  0.40052912589E+03 0.  0.
    9000005    1    3    3    0    0  0.12996427487E+03 -0.19495207015E+02  0.43497328459E+02  0.13843335370E+03  0.99999687468E+00 0.  0.
          4    1    3    3  501    0 -0.66226206656E+02 -0.24072444376E+02  0.75439173911E+03  0.75767558299E+03  0.00000000000E+00 0.  1.
   -9000007    1    1    2    0  503 -0.63738068214E+02  0.43567651391E+02  0.91836487466E+03  0.10046664743E+04  0.40000000000E+03 0. -1.
<mgrwt>
<rscale>  2 0.40777232E+03</rscale>
<asrwt>0</asrwt>
<pdfrwt beam="1">  1       21 0.27823300E+00 0.40790227E+03</pdfrwt>
<pdfrwt beam="2">  1       21 0.14193960E-01 0.40790227E+03</pdfrwt>
<totfact> 0.16577309E+03</totfact>
</mgrwt>
</event>
<event>
 6    1  0.9094387E-004  0.5561564E+03  0.7818608E-02  0.1000130E+00
         21   -1    0    0  501  502  0.00000000000E+00  0.00000000000E+00  0.43181162232E+03  0.43181162232E+03  0.00000000000E+00 0. -1.
         21   -1    0    0  502  503 -0.00000000000E+00 -0.00000000000E+00 -0.85702838841E+03  0.85702838841E+03  0.00000000000E+00 0.  1.
    9000007    2    1    2  501    0 -0.36351381569E+03 -0.13102544409E+03  0.49719590699E+02  0.55748886100E+03  0.39876287596E+03 0.  0.
    9000005    1    3    3    0    0 -0.75431707493E+01 -0.18499329015E+03  0.67350521661E+02  0.19701905894E+03  0.99999687468E+00 0.  0.
          4    1    3    3  501    0 -0.35597064494E+03  0.53967846060E+02 -0.17630930962E+02  0.36046980206E+03  0.00000000000E+00 0.  1.
   -9000007    1    1    2    0  503  0.36351381569E+03  0.13102544409E+03 -0.47493635679E+03  0.73135114972E+03  0.40000000000E+03 0. -1.
<mgrwt>
<rscale>  2 0.55593401E+03</rscale>
<asrwt>0</asrwt>
<pdfrwt beam="1">  1       21 0.66432557E-01 0.55615642E+03</pdfrwt>
<pdfrwt beam="2">  1       21 0.13185052E+00 0.55615642E+03</pdfrwt>
<totfact> 0.70019717E+02</totfact>
</mgrwt>
</event>
<event>
 6    1  0.9094387E-004  0.5504481E+03  0.7818608E-02  0.1001408E+00
         21   -1    0    0  501  502  0.00000000000E+00  0.00000000000E+00  0.58022808284E+03  0.58022808284E+03  0.00000000000E+00 0. -1.
         21   -1    0    0  502  503 -0.00000000000E+00 -0.00000000000E+00 -0.53501473879E+03  0.53501473879E+03  0.00000000000E+00 0.  1.
    9000007    2    1    2  501    0 -0.24972529883E+03 -0.28395490673E+03  0.10990130432E+03  0.56100672921E+03  0.39957119465E+03 0.  0.
    9000005    1    3    3    0    0  0.69695974076E+02  0.18515117603E+02 -0.55530557325E+02  0.91021871948E+02  0.99999687468E+00 0.  0.
          4    1    3    3  501    0 -0.31942127291E+03 -0.30247002434E+03  0.16543186165E+03  0.46998485726E+03  0.00000000000E+00 0.  1.
   -9000007    1    1    2    0  503  0.24972529883E+03  0.28395490673E+03 -0.64687960267E+02  0.55423609242E+03  0.40000000000E+03 0. -1.
<mgrwt>
<rscale>  2 0.55037020E+03</rscale>
<asrwt>0</asrwt>
<pdfrwt beam="1">  1       21 0.89265859E-01 0.55044810E+03</pdfrwt>
<pdfrwt beam="2">  1       21 0.82309960E-01 0.55044810E+03</pdfrwt>
<totfact> 0.11363152E+03</totfact>
</mgrwt>
</event>
<event>
 6    1  0.9094387E-004  0.4156308E+03  0.7818608E-02  0.1038524E+00
         21   -1    0    0  501  502  0.00000000000E+00  0.00000000000E+00  0.37698704565E+03  0.37698704565E+03  0.00000000000E+00 0.  1.
         21   -1    0    0  502  503 -0.00000000000E+00 -0.00000000000E+00 -0.47139459118E+03  0.47139459118E+03  0.00000000000E+00 0.  1.
    9000007    2    1    2  501    0 -0.89360705363E+02 -0.67073058993E+02  0.24590974521E+02  0.41635758810E+03  0.40033085597E+03 0.  0.
    9000005    1    3    3    0    0 -0.13581120106E+03  0.40194092294E+02 -0.14996441486E+03  0.20627790261E+03  0.99999687468E+00 0.  0.
          4    1    3    3  501    0  0.46450495699E+02 -0.10726715129E+03  0.17455538938E+03  0.21007968549E+03  0.00000000000E+00 0.  1.
   -9000007    1    1    2    0  503  0.89360705363E+02  0.67073058993E+02 -0.11899852005E+03  0.43202404873E+03  0.40000000000E+03 0.  1.
<mgrwt>
<rscale>  2 0.41555107E+03</rscale>
<asrwt>0</asrwt>
<pdfrwt beam="1">  1       21 0.57998007E-01 0.41563076E+03</pdfrwt>
<pdfrwt beam="2">  1       21 0.72522245E-01 0.41563076E+03</pdfrwt>
<totfact> 0.42369802E+03</totfact>
</mgrwt>
</event>
<event>
 6    1  0.9094387E-004  0.5274457E+03  0.7818608E-02  0.1006978E+00
         21   -1    0    0  501  502  0.00000000000E+00  0.00000000000E+00  0.89323966952E+03  0.89323966952E+03  0.00000000000E+00 0. -1.
         21   -1    0    0  502  503 -0.00000000000E+00 -0.00000000000E+00 -0.38613302273E+03  0.38613302273E+03  0.00000000000E+00 0.  1.
    9000007    2    1    2  501    0  0.18790502294E+03 -0.28790745150E+03  0.53674559382E+03  0.75109486244E+03  0.39730172619E+03 0.  0.
    9000005    1    3    3    0    0  0.22820858048E+03 -0.36364205429E+03  0.38444356406E+03  0.57629207334E+03  0.99999687468E+00 0.  0.
          4    1    3    3  501    0 -0.40303557544E+02  0.75734602787E+02  0.15230202976E+03  0.17480278911E+03  0.00000000000E+00 0.  1.
   -9000007    1    1    2    0  503 -0.18790502294E+03  0.28790745150E+03 -0.29638947032E+02  0.52827782980E+03  0.40000000000E+03 0.  1.
<mgrwt>
<rscale>  2 0.52693415E+03</rscale>
<asrwt>0</asrwt>
<pdfrwt beam="1">  1       21 0.13742149E+00 0.52744573E+03</pdfrwt>
<pdfrwt beam="2">  1       21 0.59405081E-01 0.52744573E+03</pdfrwt>
<totfact> 0.81294560E+02</totfact>
</mgrwt>
</event>
<event>
 6    1  0.9094387E-004  0.4509355E+03  0.7818608E-02  0.1027458E+00
         21   -1    0    0  501  502  0.00000000000E+00  0.00000000000E+00  0.12821297929E+04  0.12821297929E+04  0.00000000000E+00 0. -1.
         21   -1    0    0  502  503 -0.00000000000E+00 -0.00000000000E+00 -0.16567083252E+03  0.16567083252E+03  0.00000000000E+00 0.  1.
    9000007    2    1    2  501    0  0.41321948127E+02  0.20362500441E+03  0.40805803630E+03  0.60815634654E+03  0.40021511095E+03 0.  0.
    9000005    1    3    3    0    0 -0.39223794478E+01 -0.47827828225E+02  0.34052442593E+03  0.34389063793E+03  0.99999687468E+00 0.  0.
          4    1    3    3  501    0  0.45244327575E+02  0.25145283263E+03  0.67533610373E+02  0.26426570861E+03  0.00000000000E+00 0.  1.
   -9000007    1    1    2    0  503 -0.41321948127E+02 -0.20362500441E+03  0.70840092412E+03  0.83964427892E+03  0.40000000000E+03 0. -1.
<mgrwt>
<rscale>  2 0.45088772E+03</rscale>
<asrwt>0</asrwt>
<pdfrwt beam="1">  1       21 0.19725073E+00 0.45093545E+03</pdfrwt>
<pdfrwt beam="2">  1       21 0.25487821E-01 0.45093545E+03</pdfrwt>
<totfact> 0.17220914E+03</totfact>
</mgrwt>
</event>
<event>
 6    1  0.9094387E-004  0.4045912E+03  0.7818608E-02  0.1042304E+00
         21   -1    0    0  501  502  0.00000000000E+00  0.00000000000E+00  0.13751641397E+03  0.13751641397E+03  0.00000000000E+00 0.  1.
         21   -1    0    0  502  503 -0.00000000000E+00 -0.00000000000E+00 -0.12133671738E+04  0.12133671738E+04  0.00000000000E+00 0.  1.
    9000007    2    1    2  501    0  0.51625321939E+02  0.78551615088E+01 -0.43883580104E+03  0.59688429391E+03  0.40120708196E+03 0.  0.
    9000005    1    3    3    0    0  0.18762358665E+03  0.42488687169E+02 -0.74228274387E+02  0.20620071658E+03  0.99999687468E+00 0.  0.
          4    1    3    3  501    0 -0.13599826471E+03 -0.34633525660E+02 -0.36460752666E+03  0.39068357733E+03  0.00000000000E+00 0.  1.
   -9000007    1    1    2    0  503 -0.51625321939E+02 -0.78551615088E+01 -0.63701495879E+03  0.75399929387E+03  0.40000000000E+03 0. -1.
<mgrwt>
<rscale>  2 0.40429158E+03</rscale>
<asrwt>0</asrwt>
<pdfrwt beam="1">  1       21 0.21156371E-01 0.40459115E+03</pdfrwt>
<pdfrwt beam="2">  1       21 0.18667187E+00 0.40459115E+03</pdfrwt>
<totfact> 0.29703125E+03</totfact>
</mgrwt>
</event>
<event>
 6    1  0.9094387E-004  0.5569192E+03  0.7818608E-02  0.9999258E-01
         21   -1    0    0  501  502  0.00000000000E+00  0.00000000000E+00  0.12147971021E+04  0.12147971021E+04  0.00000000000E+00 0. -1.
         21   -1    0    0  502  503 -0.00000000000E+00 -0.00000000000E+00 -0.25608719597E+03  0.25608719597E+03  0.00000000000E+00 0.  1.
    9000007    2    1    2  501    0 -0.33126911735E+03  0.20003219207E+03  0.52400150233E+03  0.76468071389E+03  0.40050831922E+03 0.  0.
    9000005    1    3    3    0    0 -0.86660131374E+02  0.11732993827E+03  0.48135494784E+03  0.50297105145E+03  0.99999687468E+00 0.  0.
          4    1    3    3  501    0 -0.24460898598E+03  0.82702253804E+02  0.42646554489E+02  0.26170966244E+03  0.00000000000E+00 0.  1.
   -9000007    1    1    2    0  503  0.33126911735E+03 -0.20003219207E+03  0.43470840377E+03  0.70620358416E+03  0.40000000000E+03 0.  1.
<mgrwt>
<rscale>  2 0.55682784E+03</rscale>
<asrwt>0</asrwt>
<pdfrwt beam="1">  1       21 0.18689186E+00 0.55691922E+03</pdfrwt>
<pdfrwt beam="2">  1       21 0.39398031E-01 0.55691922E+03</pdfrwt>
<totfact> 0.81170583E+02</totfact>
</mgrwt>
</event>
<event>
 6    1  0.9094387E-004  0.4046866E+03  0.7818608E-02  0.1042240E+00
         21   -1    0    0  501  502  0.00000000000E+00  0.00000000000E+00  0.24916466023E+03  0.24916466023E+03  0.00000000000E+00 0. -1.
         21   -1    0    0  502  503 -0.00000000000E+00 -0.00000000000E+00 -0.11694079969E+04  0.11694079969E+04  0.00000000000E+00 0. -1.
    9000007    2    1    2  501    0  0.15030552372E+02 -0.59542884983E+02 -0.92985658762E+03  0.10137718576E+04  0.39916015977E+03 0.  0.
    9000005    1    3    3    0    0 -0.34308859285E+01  0.20533382254E+02 -0.93134830196E+03  0.93158147809E+03  0.99999687468E+00 0.  0.
          4    1    3    3  501    0  0.18461438301E+02 -0.80076267238E+02  0.14917143416E+01  0.82190379550E+02  0.00000000000E+00 0.  1.
   -9000007    1    1    2    0  503 -0.15030552372E+02  0.59542884983E+02  0.96132509595E+01  0.40480079947E+03  0.40000000000E+03 0. -1.
<mgrwt>
<rscale>  2 0.40447895E+03</rscale>
<asrwt>0</asrwt>
<pdfrwt beam="1">  1       21 0.38333024E-01 0.40468664E+03</pdfrwt>
<pdfrwt beam="2">  1       21 0.17990893E+00 0.40468664E+03</pdfrwt>
<totfact> 0.10249673E+03</totfact>
</mgrwt>
</event>
<event>
 6    1  0.9094387E-004  0.5832524E+03  0.7818608E-02  0.9941279E-01
         21   -1    0    0  501  502  0.00000000000E+00  0.00000000000E+00  0.64797157343E+03  0.64797157343E+03  0.00000000000E+00 0. -1.
         21   -1    0    0  502  503 -0.00000000000E+00 -0.00000000000E+00 -0.60799914801E+03  0.60799914801E+03  0.00000000000E+00 0.  1.
    9000007    2    1    2  501    0  0.31363230841E+03  0.28603874632E+03 -0.21323382755E+03  0.62012734780E+03  0.39862999512E+03 0.  0.
    9000005    1    3    3    0    0  0.36633947207E+03  0.16703588594E+03 -0.41661088180E+02  0.40477431027E+03  0.99999687468E+00 0.  0.
          4    1    3    3  501    0 -0.52707163667E+02  0.11900286038E+03 -0.17157273937E+03  0.21535303753E+03  0.00000000000E+00 0.  1.
   -9000007    1    1    2    0  503 -0.31363230841E+03 -0.28603874632E+03  0.25320625297E+03  0.63584337365E+03  0.40000000000E+03 0.  1.
<mgrwt>
<rscale>  2 0.58301760E+03</rscale>
<asrwt>0</asrwt>
<pdfrwt beam="1">  1       21 0.99687934E-01 0.58325242E+03</pdfrwt>
<pdfrwt beam="2">  1       21 0.93538331E-01 0.58325242E+03</pdfrwt>
<totfact> 0.63643483E+02</totfact>
</mgrwt>
</event>
<event>
 6    1  0.9094387E-004  0.4115478E+03  0.7818608E-02  0.1039864E+00
         21   -1    0    0  501  502  0.00000000000E+00  0.00000000000E+00  0.97204116836E+03  0.97204116836E+03  0.00000000000E+00 0. -1.
         21   -1    0    0  502  503 -0.00000000000E+00 -0.00000000000E+00 -0.24660112464E+03  0.24660112464E+03  0.00000000000E+00 0. -1.
    9000007    2    1    2  501    0  0.65510685892E+02 -0.71273552116E+02  0.69286447629E+03  0.80580729352E+03  0.39986578071E+03 0.  0.
    9000005    1    3    3    0    0 -0.89251893139E+02 -0.72062625687E+02  0.21346641006E+02  0.11668590971E+03  0.99999687468E+00 0.  0.
          4    1    3    3  501    0  0.15476257903E+03  0.78907357156E+00  0.67151783529E+03  0.68912138380E+03  0.00000000000E+00 0.  1.
   -9000007    1    1    2    0  503 -0.65510685892E+02  0.71273552116E+02  0.32575567425E+02  0.41283499947E+03  0.40000000000E+03 0. -1.
<mgrwt>
<rscale>  2 0.41151516E+03</rscale>
<asrwt>0</asrwt>
<pdfrwt beam="1">  1       21 0.14954479E+00 0.41154777E+03</pdfrwt>
<pdfrwt beam="2">  1       21 0.37938635E-01 0.41154777E+03</pdfrwt>
<totfact> 0.17516627E+03</totfact>
</mgrwt>
</event>
<event>
 6    1  0.9094387E-004  0.4249368E+03  0.7818608E-02  0.1035486E+00
         21   -1    0    0  501  502  0.00000000000E+00  0.00000000000E+00  0.14810154962E+03  0.14810154962E+03  0.00000000000E+00 0.  1.
         21   -1    0    0  502  503 -0.00000000000E+00 -0.00000000000E+00 -0.14174889314E+04  0.14174889314E+04  0.00000000000E+00 0.  1.
    9000007    2    1    2  501    0 -0.56490998629E+01  0.14278921120E+03 -0.34168405440E+03  0.54526987709E+03  0.40018817407E+03 0.  0.
    9000005    1    3    3    0    0 -0.10420996454E+03  0.90392649740E+01 -0.36299449139E+03  0.37776636404E+03  0.99999687468E+00 0.  0.
          4    1    3    3  501    0  0.98560864677E+02  0.13374994623E+03  0.21310436991E+02  0.16750351306E+03  0.00000000000E+00 0.  1.
   -9000007    1    1    2    0  503  0.56490998629E+01 -0.14278921120E+03 -0.92770332743E+03  0.10203206040E+04  0.40000000000E+03 0.  1.
<mgrwt>
<rscale>  2 0.42489245E+03</rscale>
<asrwt>0</asrwt>
<pdfrwt beam="1">  1       21 0.22784854E-01 0.42493676E+03</pdfrwt>
<pdfrwt beam="2">  1       21 0.21807522E+00 0.42493676E+03</pdfrwt>
<totfact> 0.15816047E+03</totfact>
</mgrwt>
</event>
<event>
 6    1  0.9094387E-004  0.4324643E+03  0.7818608E-02  0.1033089E+00
         21   -1    0    0  501  502  0.00000000000E+00  0.00000000000E+00  0.53035149154E+03  0.53035149154E+03  0.00000000000E+00 0.  1.
         21   -1    0    0  502  503 -0.00000000000E+00 -0.00000000000E+00 -0.83046914718E+03  0.83046914718E+03  0.00000000000E+00 0.  1.
    9000007    2    1    2  501    0 -0.11748091432E+03  0.11478034710E+03  0.36607351692E+03  0.56659965454E+03  0.40006131458E+03 0.  0.
    9000005    1    3    3    0    0  0.92722495366E+02 -0.90853233767E+02  0.62937279170E+02  0.14427013667E+03  0.99999687468E+00 0.  0.
          4    1    3    3  501    0 -0.21020340969E+03  0.20563358087E+03  0.30313623775E+03  0.42232951787E+03  0.00000000000E+00 0.  1.
   -9000007    1    1    2    0  503  0.11748091432E+03 -0.11478034710E+03 -0.66619117256E+03  0.79422098418E+03  0.40000000000E+03 0.  1.
<mgrwt>
<rscale>  2 0.43245009E+03</rscale>
<asrwt>0</asrwt>
<pdfrwt beam="1">  1       21 0.81592538E-01 0.43246427E+03</pdfrwt>
<pdfrwt beam="2">  1       21 0.12776448E+00 0.43246427E+03</pdfrwt>
<totfact> 0.50028509E+02</totfact>
</mgrwt>
</event>
<event>
 6    1  0.9094387E-004  0.4907078E+03  0.7818608E-02  0.1016282E+00
         21   -1    0    0  501  502  0.00000000000E+00  0.00000000000E+00  0.31403241834E+03  0.31403241834E+03  0.00000000000E+00 0.  1.
         21   -1    0    0  502  503 -0.00000000000E+00 -0.00000000000E+00 -0.87813580332E+03  0.87813580332E+03  0.00000000000E+00 0.  1.
    9000007    2    1    2  501    0 -0.46813560001E+02  0.28036168351E+03 -0.68515140010E+02  0.49474303460E+03  0.39910169493E+03 0.  0.
    9000005    1    3    3    0    0 -0.20024635255E+03  0.41489879275E+02 -0.91970959785E+01  0.20470856934E+03  0.99999687468E+00 0.  0.
          4    1    3    3  501    0  0.15343279255E+03  0.23887180424E+03 -0.59318044032E+02  0.29003446526E+03  0.00000000000E+00 0.  1.
   -9000007    1    1    2    0  503  0.46813560001E+02 -0.28036168351E+03 -0.49558824497E+03  0.69742518705E+03  0.40000000000E+03 0.  1.
<mgrwt>
<rscale>  2 0.49052474E+03</rscale>
<asrwt>0</asrwt>
<pdfrwt beam="1">  1       21 0.48312680E-01 0.49070784E+03</pdfrwt>
<pdfrwt beam="2">  1       21 0.13509781E+00 0.49070784E+03</pdfrwt>
<totfact> 0.13458856E+03</totfact>
</mgrwt>
</event>
<event>
 6    1  0.9094387E-004  0.4113500E+03  0.7818608E-02  0.1039933E+00
         21   -1    0    0  501  502  0.00000000000E+00  0.00000000000E+00  0.18359793874E+03  0.18359793874E+03  0.00000000000E+00 0.  1.
         21   -1    0    0  502  503 -0.00000000000E+00 -0.00000000000E+00 -0.12509475201E+04  0.12509475201E+04  0.00000000000E+00 0. -1.
    9000007    2    1    2  501    0 -0.72569505710E+02 -0.62788942869E+02 -0.16535490959E+03  0.44318116030E+03  0.39982309865E+03 0.  0.
    9000005    1    3    3    0    0  0.15755128748E+03 -0.41148637235E+02 -0.69756220964E+01  0.16298858190E+03  0.99999687468E+00 0.  0.
          4    1    3    3  501    0 -0.23012079319E+03 -0.21640305634E+02 -0.15837928750E+03  0.28019257840E+03  0.00000000000E+00 0.  1.
   -9000007    1    1    2    0  503  0.72569505710E+02  0.62788942869E+02 -0.90199467174E+03  0.99136429851E+03  0.40000000000E+03 0. -1.
<mgrwt>
<rscale>  2 0.41130694E+03</rscale>
<asrwt>0</asrwt>
<pdfrwt beam="1">  1       21 0.28245836E-01 0.41134995E+03</pdfrwt>
<pdfrwt beam="2">  1       21 0.19245347E+00 0.41134995E+03</pdfrwt>
<totfact> 0.15443677E+03</totfact>
</mgrwt>
</event>
<event>
 6    1  0.9094387E-004  0.5420840E+03  0.7818608E-02  0.1003378E+00
         21   -1    0    0  501  502  0.00000000000E+00  0.00000000000E+00  0.57519991625E+03  0.57519991625E+03  0.00000000000E+00 0. -1.
         21   -1    0    0  502  503 -0.00000000000E+00 -0.00000000000E+00 -0.78758827030E+03  0.78758827030E+03  0.00000000000E+00 0. -1.
    9000007    2    1    2  501    0 -0.24934097186E+03  0.26653580069E+03  0.29806661380E+03  0.61862655927E+03  0.40080276980E+03 0.  0.
    9000005    1    3    3    0    0 -0.11583082099E+03  0.30907528186E+03  0.50158220544E+02  0.33385798782E+03  0.99999687468E+00 0.  0.
          4    1    3    3  501    0 -0.13351015087E+03 -0.42539481166E+02  0.24790839326E+03  0.28476857146E+03  0.00000000000E+00 0.  1.
   -9000007    1    1    2    0  503  0.24934097186E+03 -0.26653580069E+03 -0.51045496786E+03  0.74416162728E+03  0.40000000000E+03 0. -1.
<mgrwt>
<rscale>  2 0.54193567E+03</rscale>
<asrwt>0</asrwt>
<pdfrwt beam="1">  1       21 0.88492295E-01 0.54208405E+03</pdfrwt>
<pdfrwt beam="2">  1       21 0.12116743E+00 0.54208405E+03</pdfrwt>
<totfact> 0.45268576E+02</totfact>
</mgrwt>
</event>
<event>
 6    1  0.9094387E-004  0.4317193E+03  0.7818608E-02  0.1033379E+00
         21   -1    0    0  501  502  0.00000000000E+00  0.00000000000E+00  0.10427320322E+04  0.10427320322E+04  0.00000000000E+00 0.  1.
         21   -1    0    0  502  503 -0.00000000000E+00 -0.00000000000E+00 -0.26984182901E+03  0.26984182901E+03  0.00000000000E+00 0.  1.
    9000007    2    1    2  501    0 -0.40464794397E+01 -0.16032382119E+03  0.76865986072E+03  0.88160054711E+03  0.40082594919E+03 0.  0.
    9000005    1    3    3    0    0 -0.50830728300E+02 -0.14239548798E+03  0.47188856921E+02  0.15839200153E+03  0.99999687468E+00 0.  0.
          4    1    3    3  501    0  0.46784248861E+02 -0.17928333206E+02  0.72147100380E+03  0.72320854558E+03  0.00000000000E+00 0.  1.
   -9000007    1    1    2    0  503  0.40464794397E+01  0.16032382119E+03  0.42303424208E+01  0.43097331406E+03  0.40000000000E+03 0.  1.
<mgrwt>
<rscale>  2 0.43152748E+03</rscale>
<asrwt>0</asrwt>
<pdfrwt beam="1">  1       21 0.16042031E+00 0.43171929E+03</pdfrwt>
<pdfrwt beam="2">  1       21 0.41514128E-01 0.43171929E+03</pdfrwt>
<totfact> 0.11900937E+03</totfact>
</mgrwt>
</event>
<event>
 6    1  0.9094387E-004  0.4863905E+03  0.7818608E-02  0.1017424E+00
         21   -1    0    0  501  502  0.00000000000E+00  0.00000000000E+00  0.62693478323E+03  0.62693478323E+03  0.00000000000E+00 0.  1.
         21   -1    0    0  502  503 -0.00000000000E+00 -0.00000000000E+00 -0.38397319975E+03  0.38397319975E+03  0.00000000000E+00 0.  1.
    9000007    2    1    2  501    0  0.15314560627E+03  0.23048239650E+03  0.18954039430E+03  0.52159260895E+03  0.39944658819E+03 0.  0.
    9000005    1    3    3    0    0 -0.10491105568E+03 -0.17151239157E+02  0.11432843142E+03  0.15611689478E+03  0.99999687468E+00 0.  0.
          4    1    3    3  501    0  0.25805666195E+03  0.24763363566E+03  0.75211962880E+02  0.36547571417E+03  0.00000000000E+00 0.  1.
   -9000007    1    1    2    0  503 -0.15314560627E+03 -0.23048239650E+03  0.53421189176E+02  0.48931537404E+03  0.40000000000E+03 0.  1.
<mgrwt>
<rscale>  2 0.48627670E+03</rscale>
<asrwt>0</asrwt>
<pdfrwt beam="1">  1       21 0.96451505E-01 0.48639049E+03</pdfrwt>
<pdfrwt beam="2">  1       21 0.59072800E-01 0.48639049E+03</pdfrwt>
<totfact> 0.20407407E+03</totfact>
</mgrwt>
</event>
<event>
 6    1  0.9094387E-004  0.5574280E+03  0.7818608E-02  0.9998100E-01
         21   -1    0    0  501  502  0.00000000000E+00  0.00000000000E+00  0.43182875951E+03  0.43182875951E+03  0.00000000000E+00 0. -1.
         21   -1    0    0  502  503 -0.00000000000E+00 -0.00000000000E+00 -0.13555852710E+04  0.13555852710E+04  0.00000000000E+00 0. -1.
    9000007    2    1    2  501    0 -0.91132238390E+02 -0.37738686851E+03 -0.10741916926E+04  0.12100435453E+04  0.39948924357E+03 0.  0.
    9000005    1    3    3    0    0 -0.23808413939E+03 -0.14941212694E+03 -0.46774250686E+03  0.54570330201E+03  0.99999687468E+00 0.  0.
          4    1    3    3  501    0  0.14695190100E+03 -0.22797474156E+03 -0.60644918573E+03  0.66434024330E+03  0.00000000000E+00 0.  1.
   -9000007    1    1    2    0  503  0.91132238390E+02  0.37738686851E+03  0.15043518115E+03  0.57737048515E+03  0.40000000000E+03 0. -1.
<mgrwt>
<rscale>  2 0.55733634E+03</rscale>
<asrwt>0</asrwt>
<pdfrwt beam="1">  1       21 0.66435195E-01 0.55742796E+03</pdfrwt>
<pdfrwt beam="2">  1       21 0.20855158E+00 0.55742796E+03</pdfrwt>
<totfact> 0.18849493E+02</totfact>
</mgrwt>
</event>
<event>
 6    1  0.9094387E-004  0.4234549E+03  0.7818608E-02  0.1035989E+00
         21   -1    0    0  501  502  0.00000000000E+00  0.00000000000E+00  0.33844655080E+03  0.33844655080E+03  0.00000000000E+00 0.  1.
         21   -1    0    0  502  503 -0.00000000000E+00 -0.00000000000E+00 -0.52916848374E+03  0.52916848374E+03  0.00000000000E+00 0.  1.
    9000007    2    1    2  501    0 -0.97986796523E+02  0.98552542633E+02 -0.95635205433E+02  0.43361560861E+03  0.39945260991E+03 0.  0.
    9000005    1    3    3    0    0  0.39182799952E+01  0.13414066735E+02 -0.23830172485E+03  0.23871322160E+03  0.99999687468E+00 0.  0.
          4    1    3    3  501    0 -0.10190507652E+03  0.85138475898E+02  0.14266651942E+03  0.19490238701E+03  0.00000000000E+00 0.  1.
   -9000007    1    1    2    0  503  0.97986796523E+02 -0.98552542633E+02 -0.95086727510E+02  0.43399942592E+03  0.40000000000E+03 0.  1.
<mgrwt>
<rscale>  2 0.42332554E+03</rscale>
<asrwt>0</asrwt>
<pdfrwt beam="1">  1       21 0.52068701E-01 0.42345486E+03</pdfrwt>
<pdfrwt beam="2">  1       21 0.81410535E-01 0.42345486E+03</pdfrwt>
<totfact> 0.40915869E+03</totfact>
</mgrwt>
</event>
<event>
 6    1  0.9094387E-004  0.4630884E+03  0.7818608E-02  0.1023920E+00
         21   -1    0    0  501  502  0.00000000000E+00  0.00000000000E+00  0.90029639822E+03  0.90029639822E+03  0.00000000000E+00 0. -1.
         21   -1    0    0  502  503 -0.00000000000E+00 -0.00000000000E+00 -0.26311268691E+03  0.26311268691E+03  0.00000000000E+00 0.  1.
    9000007    2    1    2  501    0 -0.73427076489E+02 -0.22149349194E+03  0.49824806206E+03  0.67992794055E+03  0.39949965014E+03 0.  0.
    9000005    1    3    3    0    0  0.15527368914E+03 -0.10906292039E+03  0.30857198971E+03  0.36224620352E+03  0.99999687468E+00 0.  0.
          4    1    3    3  501    0 -0.22870076563E+03 -0.11243057155E+03  0.18967607235E+03  0.31768173703E+03  0.00000000000E+00 0.  1.
   -9000007    1    1    2    0  503  0.73427076489E+02  0.22149349194E+03  0.13893564925E+03  0.48348114458E+03  0.40000000000E+03 0.  1.
<mgrwt>
<rscale>  2 0.46298037E+03</rscale>
<asrwt>0</asrwt>
<pdfrwt beam="1">  1       21 0.13850714E+00 0.46308844E+03</pdfrwt>
<pdfrwt beam="2">  1       21 0.40478875E-01 0.46308844E+03</pdfrwt>
<totfact> 0.18440040E+03</totfact>
</mgrwt>
</event>
<event>
 6    1  0.9094387E-004  0.6583630E+03  0.7818608E-02  0.9791447E-01
         21   -1    0    0  501  502  0.00000000000E+00  0.00000000000E+00  0.25061663460E+03  0.25061663460E+03  0.00000000000E+00 0. -1.
         21   -1    0    0  502  503 -0.00000000000E+00 -0.00000000000E+00 -0.19509238668E+04  0.19509238668E+04  0.00000000000E+00 0.  1.
    9000007    2    1    2  501    0 -0.11033747412E+03  0.51048631573E+03 -0.47848485049E+03  0.81387318926E+03  0.40083809612E+03 0.  0.
    9000005    1    3    3    0    0 -0.54918109020E+02  0.44569309121E+03 -0.14839325658E+03  0.47294808260E+03  0.99999687468E+00 0.  0.
          4    1    3    3  501    0 -0.55419365095E+02  0.64793224519E+02 -0.33009159392E+03  0.34092510665E+03  0.00000000000E+00 0.  1.
   -9000007    1    1    2    0  503  0.11033747412E+03 -0.51048631573E+03 -0.12218223817E+04  0.13876673121E+04  0.40000000000E+03 0.  1.
<mgrwt>
<rscale>  2 0.65823546E+03</rscale>
<asrwt>0</asrwt>
<pdfrwt beam="1">  1       21 0.38556407E-01 0.65836298E+03</pdfrwt>
<pdfrwt beam="2">  1       21 0.30014212E+00 0.65836298E+03</pdfrwt>
<totfact> 0.15557033E+02</totfact>
</mgrwt>
</event>
<event>
 6    1  0.9094387E-004  0.4651167E+03  0.7818608E-02  0.1023328E+00
         21   -1    0    0  501  502  0.00000000000E+00  0.00000000000E+00  0.55871506844E+03  0.55871506844E+03  0.00000000000E+00 0. -1.
         21   -1    0    0  502  503 -0.00000000000E+00 -0.00000000000E+00 -0.84361309994E+03  0.84361309994E+03  0.00000000000E+00 0. -1.
    9000007    2    1    2  501    0  0.33309799720E+02 -0.23499797141E+03 -0.65829715627E+03  0.80587155160E+03  0.39967514609E+03 0.  0.
    9000005    1    3    3    0    0  0.14977609910E+03 -0.27183361818E+03 -0.31817929586E+03  0.44448336318E+03  0.99999687468E+00 0.  0.
          4    1    3    3  501    0 -0.11646629938E+03  0.36835646769E+02 -0.34011786041E+03  0.36138818842E+03  0.00000000000E+00 0.  1.
   -9000007    1    1    2    0  503 -0.33309799720E+02  0.23499797141E+03  0.37339912477E+03  0.59645661678E+03  0.40000000000E+03 0. -1.
<mgrwt>
<rscale>  2 0.46504690E+03</rscale>
<asrwt>0</asrwt>
<pdfrwt beam="1">  1       21 0.85956165E-01 0.46511675E+03</pdfrwt>
<pdfrwt beam="2">  1       21 0.12978663E+00 0.46511675E+03</pdfrwt>
<totfact> 0.41901779E+02</totfact>
</mgrwt>
</event>
<event>
 6    1  0.9094387E-004  0.4095745E+03  0.7818608E-02  0.1040525E+00
         21   -1    0    0  501  502  0.00000000000E+00  0.00000000000E+00  0.11409053745E+04  0.11409053745E+04  0.00000000000E+00 0.  1.
         21   -1    0    0  502  503 -0.00000000000E+00 -0.00000000000E+00 -0.30466398244E+03  0.30466398244E+03  0.00000000000E+00 0.  1.
    9000007    2    1    2  501    0  0.44433167348E+02  0.75273286603E+02  0.93813265540E+03  0.10236425818E+04  0.40013857853E+03 0.  0.
    9000005    1    3    3    0    0 -0.91417076172E+02 -0.58196842080E+02  0.74342014727E+03  0.75127789106E+03  0.99999687468E+00 0.  0.
          4    1    3    3  501    0  0.13585024352E+03  0.13347012868E+03  0.19471250814E+03  0.27236469070E+03  0.00000000000E+00 0.  1.
   -9000007    1    1    2    0  503 -0.44433167348E+02 -0.75273286603E+02 -0.10189126337E+03  0.42192677515E+03  0.40000000000E+03 0.  1.
<mgrwt>
<rscale>  2 0.40954063E+03</rscale>
<asrwt>0</asrwt>
<pdfrwt beam="1">  1       21 0.17552390E+00 0.40957448E+03</pdfrwt>
<pdfrwt beam="2">  1       21 0.46871382E-01 0.40957448E+03</pdfrwt>
<totfact> 0.72382209E+02</totfact>
</mgrwt>
</event>
<event>
 6    1  0.9094387E-004  0.4428328E+03  0.7818608E-02  0.1029895E+00
         21   -1    0    0  501  502  0.00000000000E+00  0.00000000000E+00  0.11048810373E+03  0.11048810373E+03  0.00000000000E+00 0. -1.
         21   -1    0    0  502  503 -0.00000000000E+00 -0.00000000000E+00 -0.17952377486E+04  0.17952377486E+04  0.00000000000E+00 0. -1.
    9000007    2    1    2  501    0 -0.17960702100E+03 -0.61985386934E+02 -0.94556630859E+03  0.10440455898E+04  0.39979329594E+03 0.  0.
    9000005    1    3    3    0    0  0.50940636576E+02  0.12985320334E+03 -0.24400054523E+03  0.28105883537E+03  0.99999687468E+00 0.  0.
          4    1    3    3  501    0 -0.23054765757E+03 -0.19183859028E+03 -0.70156576336E+03  0.76298675444E+03  0.00000000000E+00 0.  1.
   -9000007    1    1    2    0  503  0.17960702100E+03  0.61985386934E+02 -0.73918333629E+03  0.86168026253E+03  0.40000000000E+03 0.  1.
<mgrwt>
<rscale>  2 0.44278610E+03</rscale>
<asrwt>0</asrwt>
<pdfrwt beam="1">  1       21 0.16998171E-01 0.44283278E+03</pdfrwt>
<pdfrwt beam="2">  1       21 0.27619040E+00 0.44283278E+03</pdfrwt>
<totfact> 0.11974373E+03</totfact>
</mgrwt>
</event>
<event>
 6    1  0.9094387E-004  0.4457536E+03  0.7818608E-02  0.1029058E+00
         21   -1    0    0  501  502  0.00000000000E+00  0.00000000000E+00  0.41105066707E+03  0.41105066707E+03  0.00000000000E+00 0. -1.
         21   -1    0    0  502  503 -0.00000000000E+00 -0.00000000000E+00 -0.48893297304E+03  0.48893297304E+03  0.00000000000E+00 0. -1.
    9000007    2    1    2  501    0  0.42603886023E+02  0.19204468646E+03  0.12733241003E+02  0.44511285620E+03  0.39908278167E+03 0.  0.
    9000005    1    3    3    0    0  0.16546434919E+03  0.25664403192E+03  0.20809835250E+02  0.30606969665E+03  0.99999687468E+00 0.  0.
          4    1    3    3  501    0 -0.12286046316E+03 -0.64599345456E+02 -0.80765942470E+01  0.13904315955E+03  0.00000000000E+00 0.  1.
   -9000007    1    1    2    0  503 -0.42603886023E+02 -0.19204468646E+03 -0.90615546971E+02  0.45487078391E+03  0.40000000000E+03 0. -1.
<mgrwt>
<rscale>  2 0.44554771E+03</rscale>
<asrwt>0</asrwt>
<pdfrwt beam="1">  1       21 0.63238564E-01 0.44575358E+03</pdfrwt>
<pdfrwt beam="2">  1       21 0.75220457E-01 0.44575358E+03</pdfrwt>
<totfact> 0.31910020E+03</totfact>
</mgrwt>
</event>
<event>
 6    1  0.9094387E-004  0.5310866E+03  0.7818608E-02  0.1005990E+00
         21   -1    0    0  501  502  0.00000000000E+00  0.00000000000E+00  0.37361675799E+03  0.37361675799E+03  0.00000000000E+00 0. -1.
         21   -1    0    0  502  503 -0.00000000000E+00 -0.00000000000E+00 -0.75852406225E+03  0.75852406225E+03  0.00000000000E+00 0. -1.
    9000007    2    1    2  501    0 -0.32496664091E+03  0.12825607860E+03 -0.15078363442E+03  0.55173851822E+03  0.39953316343E+03 0.  0.
    9000005    1    3    3    0    0  0.12695833027E+02 -0.91569952074E+02  0.46084552461E+02  0.10330065957E+03  0.99999687468E+00 0.  0.
          4    1    3    3  501    0 -0.33766247394E+03  0.21982603067E+03 -0.19686818688E+03  0.44843785865E+03  0.00000000000E+00 0.  1.
   -9000007    1    1    2    0  503  0.32496664091E+03 -0.12825607860E+03 -0.23412366985E+03  0.58040230202E+03  0.40000000000E+03 0. -1.
<mgrwt>
<rscale>  2 0.53099866E+03</rscale>
<asrwt>0</asrwt>
<pdfrwt beam="1">  1       21 0.57479502E-01 0.53108656E+03</pdfrwt>
<pdfrwt beam="2">  1       21 0.11669601E+00 0.53108656E+03</pdfrwt>
<totfact> 0.13328040E+03</totfact>
</mgrwt>
</event>
<event>
 6    1  0.9094387E-004  0.4524164E+03  0.7818608E-02  0.1027047E+00
         21   -1    0    0  501  502  0.00000000000E+00  0.00000000000E+00  0.79033166385E+03  0.79033166385E+03  0.00000000000E+00 0.  1.
         21   -1    0    0  502  503 -0.00000000000E+00 -0.00000000000E+00 -0.52759674486E+03  0.52759674486E+03  0.00000000000E+00 0. -1.
    9000007    2    1    2  501    0  0.52224046952E+01 -0.21007471083E+03  0.60189119786E+03  0.75296324241E+03  0.40065193463E+03 0.  0.
    9000005    1    3    3    0    0 -0.26714876004E+02  0.83978364330E+01 -0.54037180151E+02  0.60870560118E+02  0.99999687468E+00 0.  0.
          4    1    3    3  501    0  0.31937280699E+02 -0.21847254727E+03  0.65592837801E+03  0.69209268229E+03  0.00000000000E+00 0.  1.
   -9000007    1    1    2    0  503 -0.52224046952E+01  0.21007471083E+03 -0.33915627887E+03  0.56496516630E+03  0.40000000000E+03 0. -1.
<mgrwt>
<rscale>  2 0.45227206E+03</rscale>
<asrwt>0</asrwt>
<pdfrwt beam="1">  1       21 0.12158949E+00 0.45241643E+03</pdfrwt>
<pdfrwt beam="2">  1       21 0.81168730E-01 0.45241643E+03</pdfrwt>
<totfact> 0.56983091E+02</totfact>
</mgrwt>
</event>
<event>
 6    1  0.9094387E-004  0.4267170E+03  0.7818608E-02  0.1034986E+00
         21   -1    0    0  501  502  0.00000000000E+00  0.00000000000E+00  0.46020326743E+03  0.46020326743E+03  0.00000000000E+00 0.  1.
         21   -1    0    0  502  503 -0.00000000000E+00 -0.00000000000E+00 -0.41516491875E+03  0.41516491875E+03  0.00000000000E+00 0.  1.
    9000007    2    1    2  501    0 -0.12274468553E+03 -0.78291216875E+02  0.11972524229E+03  0.44319472039E+03  0.40111301907E+03 0.  0.
    9000005    1    3    3    0    0  0.76163262224E+02 -0.15191697233E+03  0.15279870315E+03  0.22853457654E+03  0.99999687468E+00 0.  0.
          4    1    3    3  501    0 -0.19890794775E+03  0.73625755453E+02 -0.33073460860E+02  0.21466014385E+03  0.00000000000E+00 0.  1.
   -9000007    1    1    2    0  503  0.12274468553E+03  0.78291216875E+02 -0.74686893612E+02  0.43217346580E+03  0.40000000000E+03 0. -1.
<mgrwt>
<rscale>  2 0.42645528E+03</rscale>
<asrwt>0</asrwt>
<pdfrwt beam="1">  1       21 0.70800502E-01 0.42671703E+03</pdfrwt>
<pdfrwt beam="2">  1       21 0.63871526E-01 0.42671703E+03</pdfrwt>
<totfact> 0.36054598E+03</totfact>
</mgrwt>
</event>
<event>
 6    1  0.9094387E-004  0.5600018E+03  0.7818608E-02  0.9992102E-01
         21   -1    0    0  501  502  0.00000000000E+00  0.00000000000E+00  0.53974536816E+03  0.53974536816E+03  0.00000000000E+00 0.  1.
         21   -1    0    0  502  503 -0.00000000000E+00 -0.00000000000E+00 -0.76892138235E+03  0.76892138235E+03  0.00000000000E+00 0.  1.
    9000007    2    1    2  501    0  0.24830759569E+03  0.30305771224E+03  0.20894906278E+03  0.59771371261E+03  0.40012664543E+03 0.  0.
    9000005    1    3    3    0    0  0.22759165025E+03  0.13669027438E+03  0.30510754578E+03  0.40444258536E+03  0.99999687468E+00 0.  0.
          4    1    3    3  501    0  0.20715945445E+02  0.16636743786E+03 -0.96158482998E+02  0.19327112725E+03  0.00000000000E+00 0.  1.
   -9000007    1    1    2    0  503 -0.24830759569E+03 -0.30305771224E+03 -0.43812507697E+03  0.71095303790E+03  0.40000000000E+03 0.  1.
<mgrwt>
<rscale>  2 0.55997914E+03</rscale>
<asrwt>0</asrwt>
<pdfrwt beam="1">  1       21 0.83037749E-01 0.56000176E+03</pdfrwt>
<pdfrwt beam="2">  1       21 0.11829560E+00 0.56000176E+03</pdfrwt>
<totfact> 0.55555328E+02</totfact>
</mgrwt>
</event>
<event>
 6    1  0.9094387E-004  0.4867291E+03  0.7818608E-02  0.1017318E+00
         21   -1    0    0  501  502  0.00000000000E+00  0.00000000000E+00  0.52268468173E+03  0.52268468173E+03  0.00000000000E+00 0.  1.
         21   -1    0    0  502  503 -0.00000000000E+00 -0.00000000000E+00 -0.52068918332E+03  0.52068918332E+03  0.00000000000E+00 0.  1.
    9000007    2    1    2  501    0 -0.26534987196E+03 -0.79143076068E+02  0.18905835321E+03  0.52215731438E+03  0.40028866959E+03 0.  0.
    9000005    1    3    3    0    0 -0.30630777376E+03  0.78886647623E+02  0.81423474935E+02  0.32661649943E+03  0.99999687468E+00 0.  0.
          4    1    3    3  501    0  0.40957901798E+02 -0.15802972369E+03  0.10763487828E+03  0.19554081495E+03  0.00000000000E+00 0.  1.
   -9000007    1    1    2    0  503  0.26534987196E+03  0.79143076068E+02 -0.18706285481E+03  0.52121655066E+03  0.40000000000E+03 0.  1.
<mgrwt>
<rscale>  2 0.48666973E+03</rscale>
<asrwt>0</asrwt>
<pdfrwt beam="1">  1       21 0.80413028E-01 0.48672908E+03</pdfrwt>
<pdfrwt beam="2">  1       21 0.80106028E-01 0.48672908E+03</pdfrwt>
<totfact> 0.15801659E+03</totfact>
</mgrwt>
</event>
<event>
 6    1  0.9094387E-004  0.4232561E+03  0.7818608E-02  0.1036657E+00
         21   -1    0    0  501  502  0.00000000000E+00  0.00000000000E+00  0.87158048602E+03  0.87158048602E+03  0.00000000000E+00 0.  1.
         21   -1    0    0  502  503 -0.00000000000E+00 -0.00000000000E+00 -0.34877473512E+03  0.34877473512E+03  0.00000000000E+00 0.  1.
    9000007    2    1    2  501    0 -0.11150821215E+03 -0.80117969220E+01  0.65904352206E+03  0.78325225780E+03  0.40822477277E+03 0.  0.
    9000005    1    3    3    0    0  0.59048242296E+02 -0.11480878075E+03  0.52695311012E+03  0.54253878324E+03  0.99999687468E+00 0.  0.
          4    1    3    3  501    0 -0.17055645445E+03  0.10679698383E+03  0.13209041194E+03  0.24071347456E+03  0.00000000000E+00 0.  1.
   -9000007    1    1    2    0  503  0.11150821215E+03  0.80117969220E+01 -0.13623777116E+03  0.43710296334E+03  0.40000000000E+03 0.  1.
<mgrwt>
<rscale>  2 0.42126029E+03</rscale>
<asrwt>0</asrwt>
<pdfrwt beam="1">  1       21 0.13408930E+00 0.42325611E+03</pdfrwt>
<pdfrwt beam="2">  1       21 0.53657652E-01 0.42325611E+03</pdfrwt>
<totfact> 0.11277790E+03</totfact>
</mgrwt>
</event>
<event>
 6    1  0.9094387E-004  0.6530071E+03  0.7818608E-02  0.9801440E-01
         21   -1    0    0  501  502  0.00000000000E+00  0.00000000000E+00  0.74731769699E+03  0.74731769699E+03  0.00000000000E+00 0. -1.
         21   -1    0    0  502  503 -0.00000000000E+00 -0.00000000000E+00 -0.70612046347E+03  0.70612046347E+03  0.00000000000E+00 0. -1.
    9000007    2    1    2  501    0  0.31541133045E+03  0.40857548627E+03  0.33959198558E+03  0.73548435735E+03  0.39899409504E+03 0.  0.
    9000005    1    3    3    0    0  0.82411153952E+02  0.40621164354E+03  0.17350248086E+03  0.44933685416E+03  0.99999687468E+00 0.  0.
          4    1    3    3  501    0  0.23300017650E+03  0.23638427234E+01  0.16608950473E+03  0.28614750319E+03  0.00000000000E+00 0.  1.
   -9000007    1    1    2    0  503 -0.31541133045E+03 -0.40857548627E+03 -0.29839475206E+03  0.71795380312E+03  0.40000000000E+03 0. -1.
<mgrwt>
<rscale>  2 0.65285310E+03</rscale>
<asrwt>0</asrwt>
<pdfrwt beam="1">  1       21 0.11497195E+00 0.65300707E+03</pdfrwt>
<pdfrwt beam="2">  1       21 0.10863392E+00 0.65300707E+03</pdfrwt>
<totfact> 0.30212982E+02</totfact>
</mgrwt>
</event>
<event>
 6    1  0.9094387E-004  0.4284406E+03  0.7818608E-02  0.1034368E+00
         21   -1    0    0  501  502  0.00000000000E+00  0.00000000000E+00  0.14272312455E+03  0.14272312455E+03  0.00000000000E+00 0.  1.
         21   -1    0    0  502  503 -0.00000000000E+00 -0.00000000000E+00 -0.12871560031E+04  0.12871560031E+04  0.00000000000E+00 0.  1.
    9000007    2    1    2  501    0  0.13332998466E+03  0.76055631838E+02 -0.59700751012E+03  0.73472743346E+03  0.39980631611E+03 0.  0.
    9000005    1    3    3    0    0 -0.13997746104E+03  0.64356626249E+00 -0.25100929470E+03  0.28740349650E+03  0.99999687468E+00 0.  0.
          4    1    3    3  501    0  0.27330744570E+03  0.75412065576E+02 -0.34599821542E+03  0.44732393697E+03  0.00000000000E+00 0.  1.
   -9000007    1    1    2    0  503 -0.13332998466E+03 -0.76055631838E+02 -0.54742536847E+03  0.69515169423E+03  0.40000000000E+03 0.  1.
<mgrwt>
<rscale>  2 0.42839538E+03</rscale>
<asrwt>0</asrwt>
<pdfrwt beam="1">  1       21 0.21957402E-01 0.42844060E+03</pdfrwt>
<pdfrwt beam="2">  1       21 0.19802401E+00 0.42844060E+03</pdfrwt>
<totfact> 0.22927289E+03</totfact>
</mgrwt>
</event>
<event>
 6    1  0.9094387E-004  0.4880307E+03  0.7818608E-02  0.1016957E+00
         21   -1    0    0  501  502  0.00000000000E+00  0.00000000000E+00  0.76918993246E+03  0.76918993246E+03  0.00000000000E+00 0.  1.
         21   -1    0    0  502  503 -0.00000000000E+00 -0.00000000000E+00 -0.35484474245E+03  0.35484474245E+03  0.00000000000E+00 0.  1.
    9000007    2    1    2  501    0  0.27709705176E+03  0.36245867992E+02  0.64852246253E+01  0.48807375597E+03  0.40009673092E+03 0.  0.
    9000005    1    3    3    0    0 -0.58219387392E+02 -0.51853912466E+02 -0.98690983106E+02  0.12577454212E+03  0.99999687468E+00 0.  0.
          4    1    3    3  501    0  0.33531643915E+03  0.88099780458E+02  0.10517620773E+03  0.36229921385E+03  0.00000000000E+00 0.  1.
   -9000007    1    1    2    0  503 -0.27709705176E+03 -0.36245867992E+02  0.40785996539E+03  0.63596091893E+03  0.40000000000E+03 0.  1.
<mgrwt>
<rscale>  2 0.48801084E+03</rscale>
<asrwt>0</asrwt>
<pdfrwt beam="1">  1       21 0.11833691E+00 0.48803067E+03</pdfrwt>
<pdfrwt beam="2">  1       21 0.54591499E-01 0.48803067E+03</pdfrwt>
<totfact> 0.14608094E+03</totfact>
</mgrwt>
</event>
<event>
 6    1  0.9094387E-004  0.5769581E+03  0.7818608E-02  0.9955776E-01
         21   -1    0    0  501  502  0.00000000000E+00  0.00000000000E+00  0.79225886503E+03  0.79225886503E+03  0.00000000000E+00 0.  1.
         21   -1    0    0  502  503 -0.00000000000E+00 -0.00000000000E+00 -0.44056464270E+03  0.44056464270E+03  0.00000000000E+00 0. -1.
    9000007    2    1    2  501    0  0.34618954325E+02  0.41082501957E+03  0.31468713714E+03  0.65719759356E+03  0.40361493282E+03 0.  0.
    9000005    1    3    3    0    0  0.14934505076E+03  0.47250517148E+02  0.20972394490E+03  0.26176647726E+03  0.99999687468E+00 0.  0.
          4    1    3    3  501    0 -0.11472609644E+03  0.36357450243E+03  0.10496319224E+03  0.39543111631E+03  0.00000000000E+00 0.  1.
   -9000007    1    1    2    0  503 -0.34618954325E+02 -0.41082501957E+03  0.37007085200E+02  0.57562591417E+03  0.40000000000E+03 0.  1.
<mgrwt>
<rscale>  2 0.57632633E+03</rscale>
<asrwt>0</asrwt>
<pdfrwt beam="1">  1       21 0.12188598E+00 0.57695813E+03</pdfrwt>
<pdfrwt beam="2">  1       21 0.67779176E-01 0.57695813E+03</pdfrwt>
<totfact> 0.81512192E+02</totfact>
</mgrwt>
</event>
<event>
 6    1  0.9094387E-004  0.5355755E+03  0.7818608E-02  0.1004916E+00
         21   -1    0    0  501  502  0.00000000000E+00  0.00000000000E+00  0.25741979624E+03  0.25741979624E+03  0.00000000000E+00 0. -1.
         21   -1    0    0  502  503 -0.00000000000E+00 -0.00000000000E+00 -0.11210836255E+04  0.11210836255E+04  0.00000000000E+00 0. -1.
    9000007    2    1    2  501    0  0.18912164290E+03  0.30097701854E+03 -0.37475639404E+03  0.65366920501E+03  0.40060817916E+03 0.  0.
    9000005    1    3    3    0    0  0.17782801517E+03  0.31625186110E+03 -0.97405577652E+02  0.37566858956E+03  0.99999687468E+00 0.  0.
          4    1    3    3  501    0  0.11293627735E+02 -0.15274842564E+02 -0.27735081638E+03  0.27800061545E+03  0.00000000000E+00 0.  1.
   -9000007    1    1    2    0  503 -0.18912164290E+03 -0.30097701854E+03 -0.48890743519E+03  0.72483421669E+03  0.40000000000E+03 0. -1.
<mgrwt>
<rscale>  2 0.53546173E+03</rscale>
<asrwt>0</asrwt>
<pdfrwt beam="1">  1       21 0.39603046E-01 0.53557546E+03</pdfrwt>
<pdfrwt beam="2">  1       21 0.17247440E+00 0.53557546E+03</pdfrwt>
<totfact> 0.10248322E+03</totfact>
</mgrwt>
</event>
<event>
 6    1  0.9094387E-004  0.4116362E+03  0.7818608E-02  0.1039835E+00
         21   -1    0    0  501  502  0.00000000000E+00  0.00000000000E+00  0.11375740423E+04  0.11375740423E+04  0.00000000000E+00 0.  1.
         21   -1    0    0  502  503 -0.00000000000E+00 -0.00000000000E+00 -0.33031287698E+03  0.33031287698E+03  0.00000000000E+00 0.  1.
    9000007    2    1    2  501    0 -0.82781113287E+02  0.50908374979E+02  0.94751565188E+03  0.10330125737E+04  0.39985583850E+03 0.  0.
    9000005    1    3    3    0    0 -0.12478150230E+03  0.17021880025E+03  0.26451936720E+03  0.33840265793E+03  0.99999687468E+00 0.  0.
          4    1    3    3  501    0  0.42000389016E+02 -0.11931042527E+03  0.68299628468E+03  0.69460991581E+03  0.00000000000E+00 0.  1.
   -9000007    1    1    2    0  503  0.82781113287E+02 -0.50908374979E+02 -0.14025448661E+03  0.43487434550E+03  0.40000000000E+03 0.  1.
<mgrwt>
<rscale>  2 0.41160119E+03</rscale>
<asrwt>0</asrwt>
<pdfrwt beam="1">  1       21 0.17501139E+00 0.41163622E+03</pdfrwt>
<pdfrwt beam="2">  1       21 0.50817366E-01 0.41163622E+03</pdfrwt>
<totfact> 0.61458190E+02</totfact>
</mgrwt>
</event>
<event>
 6    1  0.9094387E-004  0.4490129E+03  0.7818608E-02  0.1028027E+00
         21   -1    0    0  501  502  0.00000000000E+00  0.00000000000E+00  0.94198566381E+03  0.94198566381E+03  0.00000000000E+00 0.  1.
         21   -1    0    0  502  503 -0.00000000000E+00 -0.00000000000E+00 -0.53774588147E+03  0.53774588147E+03  0.00000000000E+00 0.  1.
    9000007    2    1    2  501    0  0.31760128378E+01  0.20365255171E+03  0.77623914438E+03  0.89674957794E+03  0.40016015218E+03 0.  0.
    9000005    1    3    3    0    0  0.12742926656E+03 -0.50851562782E+02  0.41883383617E+03  0.44073447984E+03  0.99999687468E+00 0.  0.
          4    1    3    3  501    0 -0.12425325372E+03  0.25450411449E+03  0.35740530822E+03  0.45601509810E+03  0.00000000000E+00 0.  1.
   -9000007    1    1    2    0  503 -0.31760128378E+01 -0.20365255171E+03 -0.37199936204E+03  0.58298196733E+03  0.40000000000E+03 0.  1.
<mgrwt>
<rscale>  2 0.44897723E+03</rscale>
<asrwt>0</asrwt>
<pdfrwt beam="1">  1       21 0.14492087E+00 0.44901291E+03</pdfrwt>
<pdfrwt beam="2">  1       21 0.82730136E-01 0.44901291E+03</pdfrwt>
<totfact> 0.34501053E+02</totfact>
</mgrwt>
</event>
<event>
 6    1  0.9094387E-004  0.4692840E+03  0.7818608E-02  0.1022139E+00
         21   -1    0    0  501  502  0.00000000000E+00  0.00000000000E+00  0.20679339705E+03  0.20679339705E+03  0.00000000000E+00 0.  1.
         21   -1    0    0  502  503 -0.00000000000E+00 -0.00000000000E+00 -0.10676702499E+04  0.10676702499E+04  0.00000000000E+00 0.  1.
    9000007    2    1    2  501    0  0.44512656211E+02 -0.24088771291E+03 -0.46563001194E+03  0.66108910229E+03  0.40027393912E+03 0.  0.
    9000005    1    3    3    0    0  0.92118977274E+02  0.93281267372E+02 -0.14599811370E+03  0.19622372439E+03  0.99999687468E+00 0.  0.
          4    1    3    3  501    0 -0.47606321063E+02 -0.33416898028E+03 -0.31963189824E+03  0.46486537789E+03  0.00000000000E+00 0.  1.
   -9000007    1    1    2    0  503 -0.44512656211E+02  0.24088771291E+03 -0.39524684090E+03  0.61337454466E+03  0.40000000000E+03 0.  1.
<mgrwt>
<rscale>  2 0.46922560E+03</rscale>
<asrwt>0</asrwt>
<pdfrwt beam="1">  1       21 0.31814368E-01 0.46928402E+03</pdfrwt>
<pdfrwt beam="2">  1       21 0.16425697E+00 0.46928402E+03</pdfrwt>
<totfact> 0.18842291E+03</totfact>
</mgrwt>
</event>
<event>
 6    1  0.9094387E-004  0.5082855E+03  0.7818608E-02  0.1011659E+00
         21   -1    0    0  501  502  0.00000000000E+00  0.00000000000E+00  0.32303389018E+03  0.32303389018E+03  0.00000000000E+00 0. -1.
         21   -1    0    0  502  503 -0.00000000000E+00 -0.00000000000E+00 -0.12819972552E+04  0.12819972552E+04  0.00000000000E+00 0.  1.
    9000007    2    1    2  501    0 -0.31080921188E+03 -0.41854060328E+02  0.13050588344E+02  0.50814224760E+03  0.39960492663E+03 0.  0.
    9000005    1    3    3    0    0 -0.51387889294E+02  0.81594197213E+02  0.15895568420E+03  0.18591997665E+03  0.99999687468E+00 0.  0.
          4    1    3    3  501    0 -0.25942132259E+03 -0.12344825754E+03 -0.14590509585E+03  0.32222227095E+03  0.00000000000E+00 0.  1.
   -9000007    1    1    2    0  503  0.31080921188E+03  0.41854060328E+02 -0.97201395340E+03  0.10968888978E+04  0.40000000000E+03 0.  1.
<mgrwt>
<rscale>  2 0.50820775E+03</rscale>
<asrwt>0</asrwt>
<pdfrwt beam="1">  1       21 0.49697523E-01 0.50828548E+03</pdfrwt>
<pdfrwt beam="2">  1       21 0.19723034E+00 0.50828548E+03</pdfrwt>
<totfact> 0.43188781E+02</totfact>
</mgrwt>
</event>
<event>
 6    1  0.9094387E-004  0.5435914E+03  0.7818608E-02  0.1003032E+00
         21   -1    0    0  501  502  0.00000000000E+00  0.00000000000E+00  0.72168518598E+03  0.72168518598E+03  0.00000000000E+00 0. -1.
         21   -1    0    0  502  503 -0.00000000000E+00 -0.00000000000E+00 -0.41677793640E+03  0.41677793640E+03  0.00000000000E+00 0.  1.
    9000007    2    1    2  501    0 -0.11312315909E+03  0.35027805320E+03  0.23066905919E+03  0.58982583547E+03  0.39899215236E+03 0.  0.
    9000005    1    3    3    0    0 -0.22310328735E+02 -0.33358569359E+02  0.18920036421E+03  0.19341231276E+03  0.99999687468E+00 0.  0.
          4    1    3    3  501    0 -0.90812830359E+02  0.38363662256E+03  0.41468694985E+02  0.39641352271E+03  0.00000000000E+00 0.  1.
   -9000007    1    1    2    0  503  0.11312315909E+03 -0.35027805320E+03  0.74238190391E+02  0.54863728691E+03  0.40000000000E+03 0.  1.
<mgrwt>
<rscale>  2 0.54340596E+03</rscale>
<asrwt>0</asrwt>
<pdfrwt beam="1">  1       21 0.11102849E+00 0.54359136E+03</pdfrwt>
<pdfrwt beam="2">  1       21 0.64119683E-01 0.54359136E+03</pdfrwt>
<totfact> 0.11816969E+03</totfact>
</mgrwt>
</event>
<event>
 6    1  0.9094387E-004  0.4170931E+03  0.7818608E-02  0.1038042E+00
         21   -1    0    0  501  502  0.00000000000E+00  0.00000000000E+00  0.79697670763E+03  0.79697670763E+03  0.00000000000E+00 0. -1.
         21   -1    0    0  502  503 -0.00000000000E+00 -0.00000000000E+00 -0.23204473880E+03  0.23204473880E+03  0.00000000000E+00 0. -1.
    9000007    2    1    2  501    0 -0.11755963202E+03  0.12097798110E+02  0.40839285110E+03  0.58352047093E+03  0.39968086689E+03 0.  0.
    9000005    1    3    3    0    0  0.51983411835E+02 -0.13513084448E+03  0.36865240639E+02  0.14940771800E+03  0.99999687468E+00 0.  0.
          4    1    3    3  501    0 -0.16954304386E+03  0.14722864259E+03  0.37152761047E+03  0.43411275293E+03  0.00000000000E+00 0.  1.
   -9000007    1    1    2    0  503  0.11755963202E+03 -0.12097798110E+02  0.15653911772E+03  0.44550097551E+03  0.40000000000E+03 0. -1.
<mgrwt>
<rscale>  2 0.41701653E+03</rscale>
<asrwt>0</asrwt>
<pdfrwt beam="1">  1       21 0.12261180E+00 0.41709306E+03</pdfrwt>
<pdfrwt beam="2">  1       21 0.35699191E-01 0.41709306E+03</pdfrwt>
<totfact> 0.33304311E+03</totfact>
</mgrwt>
</event>
<event>
 6    1  0.9094387E-004  0.4517931E+03  0.7818608E-02  0.1027203E+00
         21   -1    0    0  501  502  0.00000000000E+00  0.00000000000E+00  0.37120824759E+03  0.37120824759E+03  0.00000000000E+00 0. -1.
         21   -1    0    0  502  503 -0.00000000000E+00 -0.00000000000E+00 -0.60204021402E+03  0.60204021402E+03  0.00000000000E+00 0.  1.
    9000007    2    1    2  501    0  0.19413727667E+03 -0.80173173995E+02  0.28173037790E+02  0.45247921114E+03  0.39978331185E+03 0.  0.
    9000005    1    3    3    0    0 -0.10260879877E+02 -0.20172549839E+03 -0.38224900974E+02  0.20557384417E+03  0.99999687468E+00 0.  0.
          4    1    3    3  501    0  0.20439815654E+03  0.12155232440E+03  0.66397938764E+02  0.24690536697E+03  0.00000000000E+00 0.  1.
   -9000007    1    1    2    0  503 -0.19413727667E+03  0.80173173995E+02 -0.25900500422E+03  0.52076925047E+03  0.40000000000E+03 0.  1.
<mgrwt>
<rscale>  2 0.45174515E+03</rscale>
<asrwt>0</asrwt>
<pdfrwt beam="1">  1       21 0.57108961E-01 0.45179312E+03</pdfrwt>
<pdfrwt beam="2">  1       21 0.92621572E-01 0.45179312E+03</pdfrwt>
<totfact> 0.24511244E+03</totfact>
</mgrwt>
</event>
<event>
 6    1  0.9094387E-004  0.4800845E+03  0.7818608E-02  0.1019144E+00
         21   -1    0    0  501  502  0.00000000000E+00  0.00000000000E+00  0.15043079173E+03  0.15043079173E+03  0.00000000000E+00 0.  1.
         21   -1    0    0  502  503 -0.00000000000E+00 -0.00000000000E+00 -0.15870206183E+04  0.15870206183E+04  0.00000000000E+00 0.  1.
    9000007    2    1    2  501    0  0.21797849498E+02 -0.26458643836E+03 -0.55426259461E+03  0.73297021367E+03  0.39944609240E+03 0.  0.
    9000005    1    3    3    0    0  0.14860104278E+03  0.34066440651E+02 -0.21460289894E+03  0.26324550618E+03  0.99999687468E+00 0.  0.
          4    1    3    3  501    0 -0.12680319328E+03 -0.29865287901E+03 -0.33965969567E+03  0.46972470749E+03  0.00000000000E+00 0.  1.
   -9000007    1    1    2    0  503 -0.21797849498E+02  0.26458643836E+03 -0.88232723194E+03  0.10044811964E+04  0.40000000000E+03 0.  1.
<mgrwt>
<rscale>  2 0.47996911E+03</rscale>
<asrwt>0</asrwt>
<pdfrwt beam="1">  1       21 0.23143200E-01 0.48008450E+03</pdfrwt>
<pdfrwt beam="2">  1       21 0.24415701E+00 0.48008450E+03</pdfrwt>
<totfact> 0.10250843E+03</totfact>
</mgrwt>
</event>
<event>
 6    1  0.9094387E-004  0.4101940E+03  0.7818608E-02  0.1040359E+00
         21   -1    0    0  501  502  0.00000000000E+00  0.00000000000E+00  0.47358824676E+03  0.47358824676E+03  0.00000000000E+00 0. -1.
         21   -1    0    0  502  503 -0.00000000000E+00 -0.00000000000E+00 -0.36620013479E+03  0.36620013479E+03  0.00000000000E+00 0. -1.
    9000007    2    1    2  501    0 -0.85223780065E+02 -0.31559607227E+02  0.12793092419E+03  0.42908032388E+03  0.39935510700E+03 0.  0.
    9000005    1    3    3    0    0 -0.20225311700E+03 -0.59149535478E+02  0.19863999400E+03  0.28959253805E+03  0.99999687468E+00 0.  0.
          4    1    3    3  501    0  0.11702933693E+03  0.27589928252E+02 -0.70709069812E+02  0.13948778584E+03  0.00000000000E+00 0.  1.
   -9000007    1    1    2    0  503  0.85223780065E+02  0.31559607227E+02 -0.20542812220E+02  0.41070805766E+03  0.40000000000E+03 0. -1.
<mgrwt>
<rscale>  2 0.41003668E+03</rscale>
<asrwt>0</asrwt>
<pdfrwt beam="1">  1       21 0.72859730E-01 0.41019398E+03</pdfrwt>
<pdfrwt beam="2">  1       21 0.56338482E-01 0.41019398E+03</pdfrwt>
<totfact> 0.44740145E+03</totfact>
</mgrwt>
</event>
<event>
 6    1  0.9094387E-004  0.5320869E+03  0.7818608E-02  0.1006021E+00
         21   -1    0    0  501  502  0.00000000000E+00  0.00000000000E+00  0.11571703194E+04  0.11571703194E+04  0.00000000000E+00 0.  1.
         21   -1    0    0  502  503 -0.00000000000E+00 -0.00000000000E+00 -0.26216295355E+03  0.26216295355E+03  0.00000000000E+00 0. -1.
    9000007    2    1    2  501    0  0.31740801458E+03 -0.13129970694E+03  0.25475434505E+03  0.58992903412E+03  0.40636071194E+03 0.  0.
    9000005    1    3    3    0    0  0.18740798887E+03 -0.22290980438E+03  0.19136746219E+01  0.29123048832E+03  0.99999687468E+00 0.  0.
          4    1    3    3  501    0  0.13000002571E+03  0.91610097445E+02  0.25284067043E+03  0.29869854579E+03  0.00000000000E+00 0.  1.
   -9000007    1    1    2    0  503 -0.31740801458E+03  0.13129970694E+03  0.64025302081E+03  0.82940423885E+03  0.40000000000E+03 0.  1.
<mgrwt>
<rscale>  2 0.53087233E+03</rscale>
<asrwt>0</asrwt>
<pdfrwt beam="1">  1       21 0.17802620E+00 0.53208692E+03</pdfrwt>
<pdfrwt beam="2">  1       21 0.40332763E-01 0.53208692E+03</pdfrwt>
<totfact> 0.90117166E+02</totfact>
</mgrwt>
</event>
<event>
 6    1  0.9094387E-004  0.5672759E+03  0.7818608E-02  0.9975811E-01
         21   -1    0    0  501  502  0.00000000000E+00  0.00000000000E+00  0.71077835900E+03  0.71077835900E+03  0.00000000000E+00 0.  1.
         21   -1    0    0  502  503 -0.00000000000E+00 -0.00000000000E+00 -0.16363672906E+04  0.16363672906E+04  0.00000000000E+00 0.  1.
    9000007    2    1    2  501    0 -0.39421110525E+03 -0.79997078903E+02  0.53538002258E+03  0.77990852228E+03  0.39977944721E+03 0.  0.
    9000005    1    3    3    0    0 -0.10917568279E+03 -0.22261808322E+03  0.21898454842E+03  0.33080715399E+03  0.99999687468E+00 0.  0.
          4    1    3    3  501    0 -0.28503542247E+03  0.14262100432E+03  0.31639547416E+03  0.44910136829E+03  0.00000000000E+00 0.  1.
   -9000007    1    1    2    0  503  0.39421110525E+03  0.79997078903E+02 -0.14609689542E+04  0.15672371273E+04  0.40000000000E+03 0.  1.
<mgrwt>
<rscale>  2 0.56723701E+03</rscale>
<asrwt>0</asrwt>
<pdfrwt beam="1">  1       21 0.10935052E+00 0.56727588E+03</pdfrwt>
<pdfrwt beam="2">  1       21 0.25174881E+00 0.56727588E+03</pdfrwt>
<totfact> 0.30724291E+01</totfact>
</mgrwt>
</event>
<event>
 6    1  0.9094387E-004  0.4654085E+03  0.7818608E-02  0.1023227E+00
         21   -1    0    0  501  502  0.00000000000E+00  0.00000000000E+00  0.11848873929E+03  0.11848873929E+03  0.00000000000E+00 0.  1.
         21   -1    0    0  502  503 -0.00000000000E+00 -0.00000000000E+00 -0.18420602927E+04  0.18420602927E+04  0.00000000000E+00 0. -1.
    9000007    2    1    2  501    0 -0.18334392731E+03  0.15162485716E+03 -0.77586822848E+03  0.90473338280E+03  0.39995736397E+03 0.  0.
    9000005    1    3    3    0    0 -0.24585664424E+03 -0.38935368135E+02 -0.54347080697E+03  0.59776497926E+03  0.99999687468E+00 0.  0.
          4    1    3    3  501    0  0.62512716938E+02  0.19056022530E+03 -0.23239742151E+03  0.30696840353E+03  0.00000000000E+00 0.  1.
   -9000007    1    1    2    0  503  0.18334392731E+03 -0.15162485716E+03 -0.94770332492E+03  0.10558156492E+04  0.40000000000E+03 0. -1.
<mgrwt>
<rscale>  2 0.46539936E+03</rscale>
<asrwt>0</asrwt>
<pdfrwt beam="1">  1       21 0.18229038E-01 0.46540852E+03</pdfrwt>
<pdfrwt beam="2">  1       21 0.28339388E+00 0.46540852E+03</pdfrwt>
<totfact> 0.93901054E+02</totfact>
</mgrwt>
</event>
<event>
 6    1  0.9094387E-004  0.4220443E+03  0.7818608E-02  0.1036460E+00
         21   -1    0    0  501  502  0.00000000000E+00  0.00000000000E+00  0.51713646204E+03  0.51713646204E+03  0.00000000000E+00 0.  1.
         21   -1    0    0  502  503 -0.00000000000E+00 -0.00000000000E+00 -0.36140405492E+03  0.36140405492E+03  0.00000000000E+00 0. -1.
    9000007    2    1    2  501    0 -0.64610418031E+02 -0.11556654606E+03  0.17469440550E+03  0.45677080483E+03  0.40073844356E+03 0.  0.
    9000005    1    3    3    0    0  0.12206836413E+03  0.84448491492E+02  0.63089621079E+02  0.16128711516E+03  0.99999687468E+00 0.  0.
          4    1    3    3  501    0 -0.18667878216E+03 -0.20001503755E+03  0.11160478442E+03  0.29548368967E+03  0.00000000000E+00 0.  1.
   -9000007    1    1    2    0  503  0.64610418031E+02  0.11556654606E+03 -0.18961998386E+02  0.42176971213E+03  0.40000000000E+03 0.  1.
<mgrwt>
<rscale>  2 0.42186896E+03</rscale>
<asrwt>0</asrwt>
<pdfrwt beam="1">  1       21 0.79559456E-01 0.42204435E+03</pdfrwt>
<pdfrwt beam="2">  1       21 0.55600624E-01 0.42204435E+03</pdfrwt>
<totfact> 0.37492853E+03</totfact>
</mgrwt>
</event>
<event>
 6    1  0.9094387E-004  0.4246201E+03  0.7818608E-02  0.1035862E+00
         21   -1    0    0  501  502  0.00000000000E+00  0.00000000000E+00  0.11402969939E+04  0.11402969939E+04  0.00000000000E+00 0.  1.
         21   -1    0    0  502  503 -0.00000000000E+00 -0.00000000000E+00 -0.20286536577E+03  0.20286536577E+03  0.00000000000E+00 0.  1.
    9000007    2    1    2  501    0 -0.12542662208E+03 -0.39284929659E+02  0.79031027061E+03  0.89715805807E+03  0.40376616265E+03 0.  0.
    9000005    1    3    3    0    0  0.18422536287E+02  0.16162063303E+03  0.43460550809E+03  0.46405125420E+03  0.99999687468E+00 0.  0.
          4    1    3    3  501    0 -0.14384915837E+03 -0.20090556269E+03  0.35570476252E+03  0.43310680388E+03  0.00000000000E+00 0.  1.
   -9000007    1    1    2    0  503  0.12542662208E+03  0.39284929659E+02  0.14712135755E+03  0.44600430163E+03  0.40000000000E+03 0.  1.
<mgrwt>
<rscale>  2 0.42372239E+03</rscale>
<asrwt>0</asrwt>
<pdfrwt beam="1">  1       21 0.17543030E+00 0.42462013E+03</pdfrwt>
<pdfrwt beam="2">  1       21 0.31210057E-01 0.42462013E+03</pdfrwt>
<totfact> 0.16538421E+03</totfact>
</mgrwt>
</event>
<event>
 6    1  0.9094387E-004  0.4028474E+03  0.7818608E-02  0.1042849E+00
         21   -1    0    0  501  502  0.00000000000E+00  0.00000000000E+00  0.62909414536E+03  0.62909414536E+03  0.00000000000E+00 0.  1.
         21   -1    0    0  502  503 -0.00000000000E+00 -0.00000000000E+00 -0.18413363405E+04  0.18413363405E+04  0.00000000000E+00 0.  1.
    9000007    2    1    2  501    0 -0.35806879530E+02 -0.22968479077E+02  0.53937967011E+03  0.67321351441E+03  0.40059496227E+03 0.  0.
    9000005    1    3    3    0    0  0.47809850901E+02  0.17730270376E+03  0.28233390364E+03  0.33680181672E+03  0.99999687468E+00 0.  0.
          4    1    3    3  501    0 -0.83616730430E+02 -0.20027118284E+03  0.25704576647E+03  0.33641169769E+03  0.00000000000E+00 0.  1.
   -9000007    1    1    2    0  503  0.35806879530E+02  0.22968479077E+02 -0.17516218653E+04  0.17972169715E+04  0.40000000000E+03 0.  1.
<mgrwt>
<rscale>  2 0.40269939E+03</rscale>
<asrwt>0</asrwt>
<pdfrwt beam="1">  1       21 0.96783715E-01 0.40284737E+03</pdfrwt>
<pdfrwt beam="2">  1       21 0.28328251E+00 0.40284737E+03</pdfrwt>
<totfact> 0.29591199E+01</totfact>
</mgrwt>
</event>
<event>
 6    1  0.9094387E-004  0.4446498E+03  0.7818608E-02  0.1029355E+00
         21   -1    0    0  501  502  0.00000000000E+00  0.00000000000E+00  0.24600374491E+03  0.24600374491E+03  0.00000000000E+00 0. -1.
         21   -1    0    0  502  503 -0.00000000000E+00 -0.00000000000E+00 -0.97365983072E+03  0.97365983072E+03  0.00000000000E+00 0.  1.
    9000007    2    1    2  501    0  0.98653661556E+02 -0.16727489860E+03 -0.10846929524E+03  0.45736067110E+03  0.39962452229E+03 0.  0.
    9000005    1    3    3    0    0  0.11118663287E+03 -0.22967503827E+03  0.72706559455E+02  0.26533061322E+03  0.99999687468E+00 0.  0.
          4    1    3    3  501    0 -0.12532971309E+02  0.62400139669E+02 -0.18117585470E+03  0.19203005787E+03  0.00000000000E+00 0.  1.
   -9000007    1    1    2    0  503 -0.98653661556E+02  0.16727489860E+03 -0.61918679057E+03  0.76230290453E+03  0.40000000000E+03 0.  1.
<mgrwt>
<rscale>  2 0.44456533E+03</rscale>
<asrwt>0</asrwt>
<pdfrwt beam="1">  1       21 0.37846730E-01 0.44464979E+03</pdfrwt>
<pdfrwt beam="2">  1       21 0.14979382E+00 0.44464979E+03</pdfrwt>
<totfact> 0.17281348E+03</totfact>
</mgrwt>
</event>
<event>
 6    1  0.9094387E-004  0.4762074E+03  0.7818608E-02  0.1020259E+00
         21   -1    0    0  501  502  0.00000000000E+00  0.00000000000E+00  0.18469995007E+03  0.18469995007E+03  0.00000000000E+00 0.  1.
         21   -1    0    0  502  503 -0.00000000000E+00 -0.00000000000E+00 -0.12255959554E+04  0.12255959554E+04  0.00000000000E+00 0.  1.
    9000007    2    1    2  501    0 -0.20001237202E+03 -0.16038781082E+03 -0.53704316945E+03  0.71776657104E+03  0.40130323426E+03 0.  0.
    9000005    1    3    3    0    0 -0.90857242123E+02  0.12824125172E+03 -0.25594112504E+03  0.30034599477E+03  0.99999687468E+00 0.  0.
          4    1    3    3  501    0 -0.10915512990E+03 -0.28862906254E+03 -0.28110204440E+03  0.41742057627E+03  0.00000000000E+00 0.  1.
   -9000007    1    1    2    0  503  0.20001237202E+03  0.16038781082E+03 -0.50385283585E+03  0.69252933440E+03  0.40000000000E+03 0.  1.
<mgrwt>
<rscale>  2 0.47593273E+03</rscale>
<asrwt>0</asrwt>
<pdfrwt beam="1">  1       21 0.28415377E-01 0.47620740E+03</pdfrwt>
<pdfrwt beam="2">  1       21 0.18855322E+00 0.47620740E+03</pdfrwt>
<totfact> 0.15771955E+03</totfact>
</mgrwt>
</event>
<event>
 6    1  0.9094387E-004  0.5886398E+03  0.7818608E-02  0.9929349E-01
         21   -1    0    0  501  502  0.00000000000E+00  0.00000000000E+00  0.53879778369E+03  0.53879778369E+03  0.00000000000E+00 0. -1.
         21   -1    0    0  502  503 -0.00000000000E+00 -0.00000000000E+00 -0.64707350635E+03  0.64707350635E+03  0.00000000000E+00 0.  1.
    9000007    2    1    2  501    0 -0.30076888822E+03  0.30989501136E+03 -0.10170462809E+03  0.59719479019E+03  0.39975110239E+03 0.  0.
    9000005    1    3    3    0    0  0.89516818938E+02  0.40236837189E+02 -0.72296754087E+02  0.12190194660E+03  0.99999687468E+00 0.  0.
          4    1    3    3  501    0 -0.39028570716E+03  0.26965817417E+03 -0.29407874004E+02  0.47529284359E+03  0.00000000000E+00 0.  1.
   -9000007    1    1    2    0  503  0.30076888822E+03 -0.30989501136E+03 -0.65710945698E+01  0.58867649985E+03  0.40000000000E+03 0.  1.
<mgrwt>
<rscale>  2 0.58859754E+03</rscale>
<asrwt>0</asrwt>
<pdfrwt beam="1">  1       21 0.82891967E-01 0.58863982E+03</pdfrwt>
<pdfrwt beam="2">  1       21 0.99549770E-01 0.58863982E+03</pdfrwt>
<totfact> 0.84917526E+02</totfact>
</mgrwt>
</event>
<event>
 6    1  0.9094387E-004  0.6164307E+03  0.7818608E-02  0.9872286E-01
         21   -1    0    0  501  502  0.00000000000E+00  0.00000000000E+00  0.12612173482E+04  0.12612173482E+04  0.00000000000E+00 0.  1.
         21   -1    0    0  502  503 -0.00000000000E+00 -0.00000000000E+00 -0.97878543766E+03  0.97878543766E+03  0.00000000000E+00 0. -1.
    9000007    2    1    2  501    0 -0.93763956005E+02 -0.45850696533E+03  0.10733213717E+04  0.12377421131E+04  0.40120624974E+03 0.  0.
    9000005    1    3    3    0    0 -0.14945445487E+03 -0.16276766054E+03  0.80425042403E+03  0.83405616714E+03  0.99999687468E+00 0.  0.
          4    1    3    3  501    0  0.55690498864E+02 -0.29573930479E+03  0.26907094764E+03  0.40368594591E+03  0.00000000000E+00 0.  1.
   -9000007    1    1    2    0  503  0.93763956005E+02  0.45850696533E+03 -0.79088946109E+03  0.10022606729E+04  0.40000000000E+03 0. -1.
<mgrwt>
<rscale>  2 0.61623447E+03</rscale>
<asrwt>0</asrwt>
<pdfrwt beam="1">  1       21 0.19403344E+00 0.61643067E+03</pdfrwt>
<pdfrwt beam="2">  1       21 0.15058238E+00 0.61643067E+03</pdfrwt>
<totfact> 0.30720322E+01</totfact>
</mgrwt>
</event>
<event>
 6    1  0.9094387E-004  0.6524174E+03  0.7818608E-02  0.9802304E-01
         21   -1    0    0  501  502  0.00000000000E+00  0.00000000000E+00  0.38419567607E+03  0.38419567607E+03  0.00000000000E+00 0.  1.
         21   -1    0    0  502  503 -0.00000000000E+00 -0.00000000000E+00 -0.11146397367E+04  0.11146397367E+04  0.00000000000E+00 0.  1.
    9000007    2    1    2  501    0 -0.59040912089E+00 -0.51541061004E+03 -0.30610884350E+03  0.72056243880E+03  0.39982390951E+03 0.  0.
    9000005    1    3    3    0    0  0.17059287596E+03 -0.33194727747E+03 -0.77638131649E+02  0.38120808468E+03  0.99999687468E+00 0.  0.
          4    1    3    3  501    0 -0.17118328508E+03 -0.18346333257E+03 -0.22847071185E+03  0.33935435412E+03  0.00000000000E+00 0.  1.
   -9000007    1    1    2    0  503  0.59040912089E+00  0.51541061004E+03 -0.42433521714E+03  0.77827297398E+03  0.40000000000E+03 0.  1.
<mgrwt>
<rscale>  2 0.65239040E+03</rscale>
<asrwt>0</asrwt>
<pdfrwt beam="1">  1       21 0.59107028E-01 0.65241739E+03</pdfrwt>
<pdfrwt beam="2">  1       21 0.17148303E+00 0.65241739E+03</pdfrwt>
<totfact> 0.42655335E+02</totfact>
</mgrwt>
</event>
<event>
 6    1  0.9094387E-004  0.4801636E+03  0.7818608E-02  0.1019214E+00
         21   -1    0    0  501  502  0.00000000000E+00  0.00000000000E+00  0.12013375749E+04  0.12013375749E+04  0.00000000000E+00 0.  1.
         21   -1    0    0  502  503 -0.00000000000E+00 -0.00000000000E+00 -0.20918702704E+03  0.20918702704E+03  0.00000000000E+00 0. -1.
    9000007    2    1    2  501    0  0.92074716725E+02  0.24915731921E+03  0.70203429714E+03  0.84952142718E+03  0.39784089497E+03 0.  0.
    9000005    1    3    3    0    0  0.24420231130E+03  0.19169106820E+03  0.39836389375E+03  0.50504952857E+03  0.99999687468E+00 0.  0.
          4    1    3    3  501    0 -0.15212759458E+03  0.57466251008E+02  0.30367040339E+03  0.34447189861E+03  0.00000000000E+00 0.  1.
   -9000007    1    1    2    0  503 -0.92074716725E+02 -0.24915731921E+03  0.29011625076E+03  0.56100317479E+03  0.40000000000E+03 0. -1.
<mgrwt>
<rscale>  2 0.47971372E+03</rscale>
<asrwt>0</asrwt>
<pdfrwt beam="1">  1       21 0.18482116E+00 0.48016364E+03</pdfrwt>
<pdfrwt beam="2">  1       21 0.32182620E-01 0.48016364E+03</pdfrwt>
<totfact> 0.13041645E+03</totfact>
</mgrwt>
</event>
<event>
 6    1  0.9094387E-004  0.5255274E+03  0.7818608E-02  0.1007336E+00
         21   -1    0    0  501  502  0.00000000000E+00  0.00000000000E+00  0.27947212936E+03  0.27947212936E+03  0.00000000000E+00 0.  1.
         21   -1    0    0  502  503 -0.00000000000E+00 -0.00000000000E+00 -0.14106546405E+04  0.14106546405E+04  0.00000000000E+00 0. -1.
    9000007    2    1    2  501    0 -0.30986156345E+03 -0.14119061270E+03 -0.10300319708E+03  0.53552654490E+03  0.40028745179E+03 0.  0.
    9000005    1    3    3    0    0  0.36333896176E+02 -0.64610402637E+02 -0.16006632955E+03  0.17639979022E+03  0.99999687468E+00 0.  0.
          4    1    3    3  501    0 -0.34619545963E+03 -0.76580210061E+02  0.57063132464E+02  0.35912675468E+03  0.00000000000E+00 0.  1.
   -9000007    1    1    2    0  503  0.30986156345E+03  0.14119061270E+03 -0.10281793141E+04  0.11546002250E+04  0.40000000000E+03 0. -1.
<mgrwt>
<rscale>  2 0.52547264E+03</rscale>
<asrwt>0</asrwt>
<pdfrwt beam="1">  1       21 0.42995713E-01 0.52552737E+03</pdfrwt>
<pdfrwt beam="2">  1       21 0.21702379E+00 0.52552737E+03</pdfrwt>
<totfact> 0.43068063E+02</totfact>
</mgrwt>
</event>
<event>
 6    1  0.9094387E-004  0.5817330E+03  0.7818608E-02  0.9944935E-01
         21   -1    0    0  501  502  0.00000000000E+00  0.00000000000E+00  0.56232193747E+03  0.56232193747E+03  0.00000000000E+00 0. -1.
         21   -1    0    0  502  503 -0.00000000000E+00 -0.00000000000E+00 -0.13693449522E+04  0.13693449522E+04  0.00000000000E+00 0. -1.
    9000007    2    1    2  501    0  0.75149059580E+01 -0.42005207695E+03  0.32013122191E+03  0.66400096589E+03  0.40238422224E+03 0.  0.
    9000005    1    3    3    0    0 -0.87199833424E+02 -0.26678525697E+03  0.38153484150E+03  0.47365390272E+03  0.99999687468E+00 0.  0.
          4    1    3    3  501    0  0.94714739382E+02 -0.15326681997E+03 -0.61403619588E+02  0.19034706317E+03  0.00000000000E+00 0.  1.
   -9000007    1    1    2    0  503 -0.75149059580E+01  0.42005207695E+03 -0.11271542367E+04  0.12676659238E+04  0.40000000000E+03 0. -1.
<mgrwt>
<rscale>  2 0.58132091E+03</rscale>
<asrwt>0</asrwt>
<pdfrwt beam="1">  1       21 0.86511068E-01 0.58173300E+03</pdfrwt>
<pdfrwt beam="2">  1       21 0.21066845E+00 0.58173300E+03</pdfrwt>
<totfact> 0.98399880E+01</totfact>
</mgrwt>
</event>
<event>
 6    1  0.9094387E-004  0.4627224E+03  0.7818608E-02  0.1024058E+00
         21   -1    0    0  501  502  0.00000000000E+00  0.00000000000E+00  0.11662965291E+04  0.11662965291E+04  0.00000000000E+00 0. -1.
         21   -1    0    0  502  503 -0.00000000000E+00 -0.00000000000E+00 -0.19859035172E+03  0.19859035172E+03  0.00000000000E+00 0.  1.
    9000007    2    1    2  501    0  0.23218599656E+03 -0.14200338925E+02  0.67318905645E+03  0.81638681599E+03  0.39898864767E+03 0.  0.
    9000005    1    3    3    0    0  0.13314554783E+03 -0.20533611195E+03  0.39439093324E+03  0.46415069104E+03  0.99999687468E+00 0.  0.
          4    1    3    3  501    0  0.99040448730E+02  0.19113577302E+03  0.27879812321E+03  0.35223612495E+03  0.00000000000E+00 0.  1.
   -9000007    1    1    2    0  503 -0.23218599656E+03  0.14200338925E+02  0.29451712098E+03  0.54850006488E+03  0.40000000000E+03 0.  1.
<mgrwt>
<rscale>  2 0.46250371E+03</rscale>
<asrwt>0</asrwt>
<pdfrwt beam="1">  1       21 0.17943023E+00 0.46272236E+03</pdfrwt>
<pdfrwt beam="2">  1       21 0.30552362E-01 0.46272236E+03</pdfrwt>
<totfact> 0.15900785E+03</totfact>
</mgrwt>
</event>
<event>
 6    1  0.9094387E-004  0.4993622E+03  0.7818608E-02  0.1014149E+00
         21   -1    0    0  501  502  0.00000000000E+00  0.00000000000E+00  0.69825793222E+03  0.69825793222E+03  0.00000000000E+00 0. -1.
         21   -1    0    0  502  503 -0.00000000000E+00 -0.00000000000E+00 -0.36054450908E+03  0.36054450908E+03  0.00000000000E+00 0. -1.
    9000007    2    1    2  501    0  0.32651137254E+01 -0.29371532088E+03  0.23555581692E+03  0.55213141667E+03  0.40383561966E+03 0.  0.
    9000005    1    3    3    0    0  0.15650601649E+03 -0.21444399009E+03  0.26726428877E+03  0.37671150517E+03  0.99999687468E+00 0.  0.
          4    1    3    3  501    0 -0.15324090276E+03 -0.79271330785E+02 -0.31708471845E+02  0.17541991150E+03  0.00000000000E+00 0.  1.
   -9000007    1    1    2    0  503 -0.32651137254E+01  0.29371532088E+03  0.10215760622E+03  0.50667102462E+03  0.40000000000E+03 0. -1.
<mgrwt>
<rscale>  2 0.49858616E+03</rscale>
<asrwt>0</asrwt>
<pdfrwt beam="1">  1       21 0.10742430E+00 0.49936215E+03</pdfrwt>
<pdfrwt beam="2">  1       21 0.55468386E-01 0.49936215E+03</pdfrwt>
<totfact> 0.17900847E+03</totfact>
</mgrwt>
</event>
<event>
 6    1  0.9094387E-004  0.4633384E+03  0.7818608E-02  0.1024101E+00
         21   -1    0    0  501  502  0.00000000000E+00  0.00000000000E+00  0.62657802355E+03  0.62657802355E+03  0.00000000000E+00 0.  1.
         21   -1    0    0  502  503 -0.00000000000E+00 -0.00000000000E+00 -0.49809893729E+03  0.49809893729E+03  0.00000000000E+00 0.  1.
    9000007    2    1    2  501    0 -0.85976789268E+02  0.20895558477E+03  0.38151317163E+03  0.60019560458E+03  0.40450960302E+03 0.  0.
    9000005    1    3    3    0    0 -0.18059015720E+03  0.13059414848E+03  0.26387736056E+02  0.22442136507E+03  0.99999687468E+00 0.  0.
          4    1    3    3  501    0  0.94613367930E+02  0.78361436294E+02  0.35512543557E+03  0.37577423951E+03  0.00000000000E+00 0.  1.
   -9000007    1    1    2    0  503  0.85976789268E+02 -0.20895558477E+03 -0.25303408537E+03  0.52448135626E+03  0.40000000000E+03 0.  1.
<mgrwt>
<rscale>  2 0.46235230E+03</rscale>
<asrwt>0</asrwt>
<pdfrwt beam="1">  1       21 0.96396619E-01 0.46333839E+03</pdfrwt>
<pdfrwt beam="2">  1       21 0.76630606E-01 0.46333839E+03</pdfrwt>
<totfact> 0.11508319E+03</totfact>
</mgrwt>
</event>
<event>
 6    1  0.9094387E-004  0.4455479E+03  0.7818608E-02  0.1029097E+00
         21   -1    0    0  501  502  0.00000000000E+00  0.00000000000E+00  0.16916621832E+03  0.16916621832E+03  0.00000000000E+00 0.  1.
         21   -1    0    0  502  503 -0.00000000000E+00 -0.00000000000E+00 -0.18733565262E+04  0.18733565262E+04  0.00000000000E+00 0.  1.
    9000007    2    1    2  501    0 -0.13166231102E+03 -0.14552665159E+03 -0.22696035122E+03  0.49956412054E+03  0.39942501053E+03 0.  0.
    9000005    1    3    3    0    0 -0.53399110879E+02 -0.23833219288E+03 -0.27607218735E+03  0.36860622868E+03  0.99999687468E+00 0.  0.
          4    1    3    3  501    0 -0.78263200146E+02  0.92805541292E+02  0.49111836124E+02  0.13095789185E+03  0.00000000000E+00 0.  1.
   -9000007    1    1    2    0  503  0.13166231102E+03  0.14552665159E+03 -0.14772299567E+04  0.15429586240E+04  0.40000000000E+03 0.  1.
<mgrwt>
<rscale>  2 0.44541885E+03</rscale>
<asrwt>0</asrwt>
<pdfrwt beam="1">  1       21 0.26025571E-01 0.44554794E+03</pdfrwt>
<pdfrwt beam="2">  1       21 0.28820871E+00 0.44554794E+03</pdfrwt>
<totfact> 0.44815915E+02</totfact>
</mgrwt>
</event>
<event>
 6    1  0.9094387E-004  0.4261669E+03  0.7818608E-02  0.1035104E+00
         21   -1    0    0  501  502  0.00000000000E+00  0.00000000000E+00  0.67738352411E+03  0.67738352411E+03  0.00000000000E+00 0.  1.
         21   -1    0    0  502  503 -0.00000000000E+00 -0.00000000000E+00 -0.27154138788E+03  0.27154138788E+03  0.00000000000E+00 0.  1.
    9000007    2    1    2  501    0  0.96208001415E+02 -0.11118568241E+03  0.25772497651E+03  0.49775207536E+03  0.39964575502E+03 0.  0.
    9000005    1    3    3    0    0 -0.96151014683E+02  0.81525529743E+02  0.17008293752E+03  0.21170884548E+03  0.99999687468E+00 0.  0.
          4    1    3    3  501    0  0.19235901610E+03 -0.19271121215E+03  0.87642038983E+02  0.28604322988E+03  0.00000000000E+00 0.  1.
   -9000007    1    1    2    0  503 -0.96208001415E+02  0.11118568241E+03  0.14811715972E+03  0.45117283663E+03  0.40000000000E+03 0.  1.
<mgrwt>
<rscale>  2 0.42608377E+03</rscale>
<asrwt>0</asrwt>
<pdfrwt beam="1">  1       21 0.10421285E+00 0.42616691E+03</pdfrwt>
<pdfrwt beam="2">  1       21 0.41775598E-01 0.42616691E+03</pdfrwt>
<totfact> 0.36094117E+03</totfact>
</mgrwt>
</event>
<event>
 6    1  0.9094387E-004  0.4581630E+03  0.7818608E-02  0.1025402E+00
         21   -1    0    0  501  502  0.00000000000E+00  0.00000000000E+00  0.17088441381E+04  0.17088441381E+04  0.00000000000E+00 0.  1.
         21   -1    0    0  502  503 -0.00000000000E+00 -0.00000000000E+00 -0.14028754446E+03  0.14028754446E+03  0.00000000000E+00 0.  1.
    9000007    2    1    2  501    0 -0.21315093164E+03 -0.66933199295E+02  0.11124016752E+04  0.12026096934E+04  0.39864672951E+03 0.  0.
    9000005    1    3    3    0    0 -0.46464583360E+02 -0.14707012328E+03  0.12640994560E+03  0.19942179673E+03  0.99999687468E+00 0.  0.
          4    1    3    3  501    0 -0.16668634828E+03  0.80136923984E+02  0.98599172957E+03  0.10031878967E+04  0.00000000000E+00 0.  1.
   -9000007    1    1    2    0  503  0.21315093164E+03  0.66933199295E+02  0.45615491850E+03  0.64652198918E+03  0.40000000000E+03 0.  1.
<mgrwt>
<rscale>  2 0.45786751E+03</rscale>
<asrwt>0</asrwt>
<pdfrwt beam="1">  1       21 0.26289908E+00 0.45816304E+03</pdfrwt>
<pdfrwt beam="2">  1       21 0.21582700E-01 0.45816304E+03</pdfrwt>
<totfact> 0.90940682E+02</totfact>
</mgrwt>
</event>
<event>
 6    1  0.9094387E-004  0.5026703E+03  0.7818608E-02  0.1013176E+00
         21   -1    0    0  501  502  0.00000000000E+00  0.00000000000E+00  0.10887016832E+03  0.10887016832E+03  0.00000000000E+00 0.  1.
         21   -1    0    0  502  503 -0.00000000000E+00 -0.00000000000E+00 -0.25397485372E+04  0.25397485372E+04  0.00000000000E+00 0.  1.
    9000007    2    1    2  501    0 -0.14518332064E+03  0.26491353107E+03 -0.16114938650E+04  0.16880728499E+04  0.40177119619E+03 0.  0.
    9000005    1    3    3    0    0 -0.15527226376E+03 -0.40296625553E+02 -0.89426334309E+03  0.90853795777E+03  0.99999687468E+00 0.  0.
          4    1    3    3  501    0  0.10088943117E+02  0.30521015663E+03 -0.71723052191E+03  0.77953489213E+03  0.00000000000E+00 0.  1.
   -9000007    1    1    2    0  503  0.14518332064E+03 -0.26491353107E+03 -0.81938450384E+03  0.96054585558E+03  0.40000000000E+03 0.  1.
<mgrwt>
<rscale>  2 0.50231633E+03</rscale>
<asrwt>0</asrwt>
<pdfrwt beam="1">  1       21 0.16749259E-01 0.50267034E+03</pdfrwt>
<pdfrwt beam="2">  1       21 0.39073050E+00 0.50267034E+03</pdfrwt>
<totfact> 0.23659521E+02</totfact>
</mgrwt>
</event>
<event>
 6    1  0.9094387E-004  0.4462380E+03  0.7818608E-02  0.1029087E+00
         21   -1    0    0  501  502  0.00000000000E+00  0.00000000000E+00  0.41653013331E+03  0.41653013331E+03  0.00000000000E+00 0. -1.
         21   -1    0    0  502  503 -0.00000000000E+00 -0.00000000000E+00 -0.50821693413E+03  0.50821693413E+03  0.00000000000E+00 0. -1.
    9000007    2    1    2  501    0  0.14374157086E+03 -0.12522226410E+03  0.72720568910E+02  0.45212455650E+03  0.40346756850E+03 0.  0.
    9000005    1    3    3    0    0  0.22686255814E+03  0.63581903991E+02  0.70111224377E+02  0.24581672559E+03  0.99999687468E+00 0.  0.
          4    1    3    3  501    0 -0.83120987286E+02 -0.18880416809E+03  0.26093445337E+01  0.20630783091E+03  0.00000000000E+00 0.  1.
   -9000007    1    1    2    0  503 -0.14374157086E+03  0.12522226410E+03 -0.16440736973E+03  0.47262251093E+03  0.40000000000E+03 0.  1.
<mgrwt>
<rscale>  2 0.44545272E+03</rscale>
<asrwt>0</asrwt>
<pdfrwt beam="1">  1       21 0.64081559E-01 0.44623798E+03</pdfrwt>
<pdfrwt beam="2">  1       21 0.78187220E-01 0.44623798E+03</pdfrwt>
<totfact> 0.28355705E+03</totfact>
</mgrwt>
</event>
<event>
 6    1  0.9094387E-004  0.4014146E+03  0.7818608E-02  0.1043387E+00
         21   -1    0    0  501  502  0.00000000000E+00  0.00000000000E+00  0.10903380467E+04  0.10903380467E+04  0.00000000000E+00 0.  1.
         21   -1    0    0  502  503 -0.00000000000E+00 -0.00000000000E+00 -0.16130485600E+03  0.16130485600E+03  0.00000000000E+00 0.  1.
    9000007    2    1    2  501    0 -0.31315800487E+02  0.12370653737E+02  0.28001091979E+03  0.48851537693E+03  0.39888274701E+03 0.  0.
    9000005    1    3    3    0    0 -0.98943254595E+02 -0.53535879789E+02  0.35214901421E+03  0.36968335946E+03  0.99999687468E+00 0.  0.
          4    1    3    3  501    0  0.67627454108E+02  0.65906533526E+02 -0.72138094423E+02  0.11883201748E+03  0.00000000000E+00 0.  1.
   -9000007    1    1    2    0  503  0.31315800487E+02 -0.12370653737E+02  0.64902227090E+03  0.76312752575E+03  0.40000000000E+03 0.  1.
<mgrwt>
<rscale>  2 0.40113602E+03</rscale>
<asrwt>0</asrwt>
<pdfrwt beam="1">  1       21 0.16774431E+00 0.40141464E+03</pdfrwt>
<pdfrwt beam="2">  1       21 0.24816132E-01 0.40141464E+03</pdfrwt>
<totfact> 0.29795843E+03</totfact>
</mgrwt>
</event>
<event>
 6    1  0.9094387E-004  0.4721045E+03  0.7818608E-02  0.1021358E+00
         21   -1    0    0  501  502  0.00000000000E+00  0.00000000000E+00  0.82858976495E+03  0.82858976495E+03  0.00000000000E+00 0.  1.
         21   -1    0    0  502  503 -0.00000000000E+00 -0.00000000000E+00 -0.57443914711E+03  0.57443914711E+03  0.00000000000E+00 0.  1.
    9000007    2    1    2  501    0  0.20201794270E+03 -0.14717564128E+03  0.63885522737E+03  0.79436680945E+03  0.40051305580E+03 0.  0.
    9000005    1    3    3    0    0  0.27409771465E+03 -0.16963240688E+03  0.27789351894E+03  0.42559431211E+03  0.99999687468E+00 0.  0.
          4    1    3    3  501    0 -0.72079771942E+02  0.22456765606E+02  0.36096170842E+03  0.36877249734E+03  0.00000000000E+00 0.  1.
   -9000007    1    1    2    0  503 -0.20201794270E+03  0.14717564128E+03 -0.38470460952E+03  0.60866210261E+03  0.40000000000E+03 0.  1.
<mgrwt>
<rscale>  2 0.47199563E+03</rscale>
<asrwt>0</asrwt>
<pdfrwt beam="1">  1       21 0.12747535E+00 0.47210447E+03</pdfrwt>
<pdfrwt beam="2">  1       21 0.88375254E-01 0.47210447E+03</pdfrwt>
<totfact> 0.40992863E+02</totfact>
</mgrwt>
</event>
<event>
 6    1  0.9094387E-004  0.4093762E+03  0.7818608E-02  0.1040654E+00
         21   -1    0    0  501  502  0.00000000000E+00  0.00000000000E+00  0.44356880187E+03  0.44356880187E+03  0.00000000000E+00 0. -1.
         21   -1    0    0  502  503 -0.00000000000E+00 -0.00000000000E+00 -0.42343163565E+03  0.42343163565E+03  0.00000000000E+00 0.  1.
    9000007    2    1    2  501    0  0.78279420037E+02  0.27362232339E+02  0.15360414797E+03  0.43724493194E+03  0.40088968167E+03 0.  0.
    9000005    1    3    3    0    0  0.17917823637E+03  0.10567135058E+03  0.21181770929E+03  0.29688215960E+03  0.99999687468E+00 0.  0.
          4    1    3    3  501    0 -0.10089881633E+03 -0.78309118245E+02 -0.58213561323E+02  0.14036277234E+03  0.00000000000E+00 0.  1.
   -9000007    1    1    2    0  503 -0.78279420037E+02 -0.27362232339E+02 -0.13346698174E+03  0.42975550558E+03  0.40000000000E+03 0.  1.
<mgrwt>
<rscale>  2 0.40915825E+03</rscale>
<asrwt>0</asrwt>
<pdfrwt beam="1">  1       21 0.68241354E-01 0.40937623E+03</pdfrwt>
<pdfrwt beam="2">  1       21 0.65143328E-01 0.40937623E+03</pdfrwt>
<totfact> 0.37727646E+03</totfact>
</mgrwt>
</event>
<event>
 6    1  0.9094387E-004  0.4238115E+03  0.7818608E-02  0.1035887E+00
         21   -1    0    0  501  502  0.00000000000E+00  0.00000000000E+00  0.25953523288E+03  0.25953523288E+03  0.00000000000E+00 0. -1.
         21   -1    0    0  502  503 -0.00000000000E+00 -0.00000000000E+00 -0.85343929206E+03  0.85343929206E+03  0.00000000000E+00 0. -1.
    9000007    2    1    2  501    0 -0.32477544932E+02 -0.13413746412E+03 -0.54341478899E+02  0.42728113265E+03  0.40071001957E+03 0.  0.
    9000005    1    3    3    0    0 -0.18719912503E+02 -0.26594608717E+03  0.32885273073E+02  0.26862650201E+03  0.99999687468E+00 0.  0.
          4    1    3    3  501    0 -0.13757632430E+02  0.13180862306E+03 -0.87226751972E+02  0.15865463063E+03  0.00000000000E+00 0.  1.
   -9000007    1    1    2    0  503  0.32477544932E+02  0.13413746412E+03 -0.53956258028E+03  0.68569339230E+03  0.40000000000E+03 0. -1.
<mgrwt>
<rscale>  2 0.42364357E+03</rscale>
<asrwt>0</asrwt>
<pdfrwt beam="1">  1       21 0.39928497E-01 0.42381148E+03</pdfrwt>
<pdfrwt beam="2">  1       21 0.13129835E+00 0.42381148E+03</pdfrwt>
<totfact> 0.22160186E+03</totfact>
</mgrwt>
</event>
<event>
 6    1  0.9094387E-004  0.6341105E+03  0.7818608E-02  0.9837128E-01
         21   -1    0    0  501  502  0.00000000000E+00  0.00000000000E+00  0.43870939643E+03  0.43870939643E+03  0.00000000000E+00 0. -1.
         21   -1    0    0  502  503 -0.00000000000E+00 -0.00000000000E+00 -0.16202606574E+04  0.16202606574E+04  0.00000000000E+00 0.  1.
    9000007    2    1    2  501    0  0.32521841494E+03  0.36922769908E+03 -0.12693004633E+04  0.14188169208E+04  0.39977703447E+03 0.  0.
    9000005    1    3    3    0    0 -0.30426876911E+02  0.20695662587E+02  0.16217220939E+02  0.40225657697E+02  0.99999687468E+00 0.  0.
          4    1    3    3  501    0  0.35564529185E+03  0.34853203650E+03 -0.12855176843E+04  0.13785912631E+04  0.00000000000E+00 0.  1.
   -9000007    1    1    2    0  503 -0.32521841494E+03 -0.36922769908E+03  0.87749202387E+02  0.64015313301E+03  0.40000000000E+03 0. -1.
<mgrwt>
<rscale>  2 0.63407533E+03</rscale>
<asrwt>0</asrwt>
<pdfrwt beam="1">  1       21 0.67493752E-01 0.63411049E+03</pdfrwt>
<pdfrwt beam="2">  1       21 0.24927087E+00 0.63411049E+03</pdfrwt>
<totfact> 0.96697990E+01</totfact>
</mgrwt>
</event>
<event>
 6    1  0.9094387E-004  0.5822180E+03  0.7818608E-02  0.9944012E-01
         21   -1    0    0  501  502  0.00000000000E+00  0.00000000000E+00  0.73632708145E+03  0.73632708145E+03  0.00000000000E+00 0. -1.
         21   -1    0    0  502  503 -0.00000000000E+00 -0.00000000000E+00 -0.68673817742E+03  0.68673817742E+03  0.00000000000E+00 0.  1.
    9000007    2    1    2  501    0  0.22816806424E+03 -0.35625429355E+03  0.43462222990E+03  0.72504774530E+03  0.39726560767E+03 0.  0.
    9000005    1    3    3    0    0  0.17754323862E+03 -0.15342753473E+03 -0.87991333750E+01  0.23481915325E+03  0.99999687468E+00 0.  0.
          4    1    3    3  501    0  0.50624825623E+02 -0.20282675882E+03  0.44342136327E+03  0.49022859206E+03  0.00000000000E+00 0.  1.
   -9000007    1    1    2    0  503 -0.22816806424E+03  0.35625429355E+03 -0.38503332587E+03  0.69801751356E+03  0.40000000000E+03 0.  1.
<mgrwt>
<rscale>  2 0.58174862E+03</rscale>
<asrwt>0</asrwt>
<pdfrwt beam="1">  1       21 0.11328109E+00 0.58221799E+03</pdfrwt>
<pdfrwt beam="2">  1       21 0.10565203E+00 0.58221799E+03</pdfrwt>
<totfact> 0.34425018E+02</totfact>
</mgrwt>
</event>
<event>
 6    1  0.9094387E-004  0.6704608E+03  0.7818608E-02  0.9769313E-01
         21   -1    0    0  501  502  0.00000000000E+00  0.00000000000E+00  0.77190778163E+03  0.77190778163E+03  0.00000000000E+00 0. -1.
         21   -1    0    0  502  503 -0.00000000000E+00 -0.00000000000E+00 -0.10530348681E+04  0.10530348681E+04  0.00000000000E+00 0. -1.
    9000007    2    1    2  501    0 -0.51010708634E+03  0.16956886566E+03  0.46969425020E+03  0.81861491020E+03  0.40069295327E+03 0.  0.
    9000005    1    3    3    0    0 -0.48901258198E+03 -0.81383987868E+01  0.37391830750E+03  0.61564229837E+03  0.99999687468E+00 0.  0.
          4    1    3    3  501    0 -0.21094504357E+02  0.17770726445E+03  0.95775942701E+02  0.20297261183E+03  0.00000000000E+00 0.  1.
   -9000007    1    1    2    0  503  0.51010708634E+03 -0.16956886566E+03 -0.75082133666E+03  0.10063277395E+04  0.40000000000E+03 0. -1.
<mgrwt>
<rscale>  2 0.67035730E+03</rscale>
<asrwt>0</asrwt>
<pdfrwt beam="1">  1       21 0.11875504E+00 0.67046080E+03</pdfrwt>
<pdfrwt beam="2">  1       21 0.16200536E+00 0.67046080E+03</pdfrwt>
<totfact> 0.95918651E+01</totfact>
</mgrwt>
</event>
<event>
 6    1  0.9094387E-004  0.8274568E+03  0.7818608E-02  0.9521196E-01
         21   -1    0    0  501  502  0.00000000000E+00  0.00000000000E+00  0.14606807500E+04  0.14606807500E+04  0.00000000000E+00 0.  1.
         21   -1    0    0  502  503 -0.00000000000E+00 -0.00000000000E+00 -0.54641795386E+03  0.54641795386E+03  0.00000000000E+00 0. -1.
    9000007    2    1    2  501    0 -0.29229099534E+03  0.66242802875E+03  0.78459290261E+02  0.83116825537E+03  0.40054948418E+03 0.  0.
    9000005    1    3    3    0    0 -0.38352180075E+03  0.60548108053E+03  0.43348258533E+02  0.71803647682E+03  0.99999687468E+00 0.  0.
          4    1    3    3  501    0  0.91230805418E+02  0.56946948219E+02  0.35111031728E+02  0.11313177855E+03  0.00000000000E+00 0.  1.
   -9000007    1    1    2    0  503  0.29229099534E+03 -0.66242802875E+03  0.83580350588E+03  0.11759304485E+04  0.40000000000E+03 0.  1.
<mgrwt>
<rscale>  2 0.82739036E+03</rscale>
<asrwt>0</asrwt>
<pdfrwt beam="1">  1       21 0.22472011E+00 0.82745683E+03</pdfrwt>
<pdfrwt beam="2">  1       21 0.84064301E-01 0.82745683E+03</pdfrwt>
<totfact> 0.77924184E+01</totfact>
</mgrwt>
</event>
<event>
 6    1  0.9094387E-004  0.4211550E+03  0.7818608E-02  0.1036757E+00
         21   -1    0    0  501  502  0.00000000000E+00  0.00000000000E+00  0.36045218743E+03  0.36045218743E+03  0.00000000000E+00 0.  1.
         21   -1    0    0  502  503 -0.00000000000E+00 -0.00000000000E+00 -0.70138547118E+03  0.70138547118E+03  0.00000000000E+00 0.  1.
    9000007    2    1    2  501    0 -0.98603254822E+02 -0.83487350886E+02  0.12009842748E+03  0.43794425554E+03  0.40084760079E+03 0.  0.
    9000005    1    3    3    0    0 -0.20022830987E+03  0.70670166525E+02  0.13673877465E+03  0.25255522366E+03  0.99999687468E+00 0.  0.
          4    1    3    3  501    0  0.10162505505E+03 -0.15415751741E+03 -0.16640347166E+02  0.18538903188E+03  0.00000000000E+00 0.  1.
   -9000007    1    1    2    0  503  0.98603254822E+02  0.83487350886E+02 -0.46103171124E+03  0.62389340307E+03  0.40000000000E+03 0.  1.
<mgrwt>
<rscale>  2 0.42095320E+03</rscale>
<asrwt>0</asrwt>
<pdfrwt beam="1">  1       21 0.55454183E-01 0.42115501E+03</pdfrwt>
<pdfrwt beam="2">  1       21 0.10790546E+00 0.42115501E+03</pdfrwt>
<totfact> 0.18243863E+03</totfact>
</mgrwt>
</event>
<event>
 6    1  0.9094387E-004  0.5842357E+03  0.7818608E-02  0.9938731E-01
         21   -1    0    0  501  502  0.00000000000E+00  0.00000000000E+00  0.72344425953E+03  0.72344425953E+03  0.00000000000E+00 0. -1.
         21   -1    0    0  502  503 -0.00000000000E+00 -0.00000000000E+00 -0.10540714945E+04  0.10540714945E+04  0.00000000000E+00 0.  1.
    9000007    2    1    2  501    0 -0.33279129165E+03  0.26567137465E+03  0.49530348885E+03  0.76583750297E+03  0.39981272090E+03 0.  0.
    9000005    1    3    3    0    0 -0.28321936911E+03  0.31828244990E+03  0.53456502368E+03  0.68357713061E+03  0.99999687468E+00 0.  0.
          4    1    3    3  501    0 -0.49571922541E+02 -0.52611075256E+02 -0.39261534834E+02  0.82260372364E+02  0.00000000000E+00 0.  1.
   -9000007    1    1    2    0  503  0.33279129165E+03 -0.26567137465E+03 -0.82593072379E+03  0.10116782510E+04  0.40000000000E+03 0.  1.
<mgrwt>
<rscale>  2 0.58420362E+03</rscale>
<asrwt>0</asrwt>
<pdfrwt beam="1">  1       21 0.11129912E+00 0.58423567E+03</pdfrwt>
<pdfrwt beam="2">  1       21 0.16216485E+00 0.58423567E+03</pdfrwt>
<totfact> 0.11646025E+02</totfact>
</mgrwt>
</event>
<event>
 6    1  0.9094387E-004  0.5061343E+03  0.7818608E-02  0.1012215E+00
         21   -1    0    0  501  502  0.00000000000E+00  0.00000000000E+00  0.14333808129E+03  0.14333808129E+03  0.00000000000E+00 0. -1.
         21   -1    0    0  502  503 -0.00000000000E+00 -0.00000000000E+00 -0.18098129227E+04  0.18098129227E+04  0.00000000000E+00 0. -1.
    9000007    2    1    2  501    0  0.30165010234E+03 -0.69167705496E+02 -0.72108571151E+03  0.88098610870E+03  0.40049340152E+03 0.  0.
    9000005    1    3    3    0    0  0.31115525579E+03  0.72898931588E+02 -0.30717945263E+03  0.44327425320E+03  0.99999687468E+00 0.  0.
          4    1    3    3  501    0 -0.95051534541E+01 -0.14206663708E+03 -0.41390625887E+03  0.43771185550E+03  0.00000000000E+00 0.  1.
   -9000007    1    1    2    0  503 -0.30165010234E+03  0.69167705496E+02 -0.94538912986E+03  0.10721648952E+04  0.40000000000E+03 0. -1.
<mgrwt>
<rscale>  2 0.50603668E+03</rscale>
<asrwt>0</asrwt>
<pdfrwt beam="1">  1       21 0.22052012E-01 0.50613429E+03</pdfrwt>
<pdfrwt beam="2">  1       21 0.27843277E+00 0.50613429E+03</pdfrwt>
<totfact> 0.68590086E+02</totfact>
</mgrwt>
</event>
<event>
 6    1  0.9094387E-004  0.4598019E+03  0.7818608E-02  0.1024900E+00
         21   -1    0    0  501  502  0.00000000000E+00  0.00000000000E+00  0.11320060144E+04  0.11320060144E+04  0.00000000000E+00 0.  1.
         21   -1    0    0  502  503 -0.00000000000E+00 -0.00000000000E+00 -0.19672431295E+03  0.19672431295E+03  0.00000000000E+00 0.  1.
    9000007    2    1    2  501    0 -0.22266270329E+03  0.32653131749E+02  0.62007997710E+03  0.77195655508E+03  0.40096488434E+03 0.  0.
    9000005    1    3    3    0    0 -0.98397422535E+02 -0.15981118296E+03  0.12235683902E+03  0.22403986924E+03  0.99999687468E+00 0.  0.
          4    1    3    3  501    0 -0.12426528076E+03  0.19246431471E+03  0.49772313808E+03  0.54791668584E+03  0.00000000000E+00 0.  1.
   -9000007    1    1    2    0  503  0.22266270329E+03 -0.32653131749E+02  0.31520172431E+03  0.55677377225E+03  0.40000000000E+03 0.  1.
<mgrwt>
<rscale>  2 0.45959142E+03</rscale>
<asrwt>0</asrwt>
<pdfrwt beam="1">  1       21 0.17415477E+00 0.45980185E+03</pdfrwt>
<pdfrwt beam="2">  1       21 0.30265280E-01 0.45980185E+03</pdfrwt>
<totfact> 0.17690451E+03</totfact>
</mgrwt>
</event>
<event>
 6    1  0.9094387E-004  0.4915335E+03  0.7818608E-02  0.1016021E+00
         21   -1    0    0  501  502  0.00000000000E+00  0.00000000000E+00  0.16955636161E+03  0.16955636161E+03  0.00000000000E+00 0.  1.
         21   -1    0    0  502  503 -0.00000000000E+00 -0.00000000000E+00 -0.14306250633E+04  0.14306250633E+04  0.00000000000E+00 0.  1.
    9000007    2    1    2  501    0  0.10727285872E+03 -0.26475965305E+03 -0.68255676196E+03  0.84104954934E+03  0.39984430852E+03 0.  0.
    9000005    1    3    3    0    0  0.12913637797E+03 -0.85535736626E+02 -0.22232522835E+02  0.15648594640E+03  0.99999687468E+00 0.  0.
          4    1    3    3  501    0 -0.21863519258E+02 -0.17922391642E+03 -0.66032423912E+03  0.68456360294E+03  0.00000000000E+00 0.  1.
   -9000007    1    1    2    0  503 -0.10727285872E+03  0.26475965305E+03 -0.57851193979E+03  0.75913187561E+03  0.40000000000E+03 0.  1.
<mgrwt>
<rscale>  2 0.49150178E+03</rscale>
<asrwt>0</asrwt>
<pdfrwt beam="1">  1       21 0.26085594E-01 0.49153346E+03</pdfrwt>
<pdfrwt beam="2">  1       21 0.22009616E+00 0.49153346E+03</pdfrwt>
<totfact> 0.11453937E+03</totfact>
</mgrwt>
</event>
<event>
 6    1  0.9094387E-004  0.4433452E+03  0.7818608E-02  0.1029767E+00
         21   -1    0    0  501  502  0.00000000000E+00  0.00000000000E+00  0.14611058246E+03  0.14611058246E+03  0.00000000000E+00 0.  1.
         21   -1    0    0  502  503 -0.00000000000E+00 -0.00000000000E+00 -0.17691637142E+04  0.17691637142E+04  0.00000000000E+00 0.  1.
    9000007    2    1    2  501    0 -0.15569488408E+03 -0.10878176500E+03 -0.34222837412E+03  0.56006714310E+03  0.40060026884E+03 0.  0.
    9000005    1    3    3    0    0 -0.13464182209E+03 -0.14409533130E+03 -0.42451166262E+03  0.46808443304E+03  0.99999687468E+00 0.  0.
          4    1    3    3  501    0 -0.21053061990E+02  0.35313566298E+02  0.82283288498E+02  0.91982710059E+02  0.00000000000E+00 0.  1.
   -9000007    1    1    2    0  503  0.15569488408E+03  0.10878176500E+03 -0.12808247576E+04  0.13552071536E+04  0.40000000000E+03 0.  1.
<mgrwt>
<rscale>  2 0.44320953E+03</rscale>
<asrwt>0</asrwt>
<pdfrwt beam="1">  1       21 0.22478550E-01 0.44334518E+03</pdfrwt>
<pdfrwt beam="2">  1       21 0.27217905E+00 0.44334518E+03</pdfrwt>
<totfact> 0.74458300E+02</totfact>
</mgrwt>
</event>
<event>
 6    1  0.9094387E-004  0.4736699E+03  0.7818608E-02  0.1020909E+00
         21   -1    0    0  501  502  0.00000000000E+00  0.00000000000E+00  0.39007445285E+03  0.39007445285E+03  0.00000000000E+00 0.  1.
         21   -1    0    0  502  503 -0.00000000000E+00 -0.00000000000E+00 -0.70566723618E+03  0.70566723618E+03  0.00000000000E+00 0.  1.
    9000007    2    1    2  501    0  0.49241963794E+02  0.24887431133E+03  0.78133516801E+02  0.47980046353E+03  0.39967542396E+03 0.  0.
    9000005    1    3    3    0    0  0.96783553632E+02  0.10951728826E+03 -0.14925621360E+03  0.20890071799E+03  0.99999687468E+00 0.  0.
          4    1    3    3  501    0 -0.47541589838E+02  0.13935702307E+03  0.22738973041E+03  0.27089974555E+03  0.00000000000E+00 0.  1.
   -9000007    1    1    2    0  503 -0.49241963794E+02 -0.24887431133E+03 -0.39372630013E+03  0.61594122549E+03  0.40000000000E+03 0.  1.
<mgrwt>
<rscale>  2 0.47360139E+03</rscale>
<asrwt>0</asrwt>
<pdfrwt beam="1">  1       21 0.60011455E-01 0.47366992E+03</pdfrwt>
<pdfrwt beam="2">  1       21 0.10856419E+00 0.47366992E+03</pdfrwt>
<totfact> 0.14824621E+03</totfact>
</mgrwt>
</event>
<event>
 6    1  0.9094387E-004  0.4365147E+03  0.7818608E-02  0.1031832E+00
         21   -1    0    0  501  502  0.00000000000E+00  0.00000000000E+00  0.84373411892E+03  0.84373411892E+03  0.00000000000E+00 0. -1.
         21   -1    0    0  502  503 -0.00000000000E+00 -0.00000000000E+00 -0.26913192856E+03  0.26913192856E+03  0.00000000000E+00 0.  1.
    9000007    2    1    2  501    0  0.53371704481E+02 -0.16642288672E+03  0.51061919390E+03  0.67168701364E+03  0.39985793358E+03 0.  0.
    9000005    1    3    3    0    0  0.14781250171E+03 -0.75133141297E+02  0.51421412703E+03  0.54028760213E+03  0.99999687468E+00 0.  0.
          4    1    3    3  501    0 -0.94440797227E+02 -0.91289745421E+02 -0.35949331302E+01  0.13139941151E+03  0.00000000000E+00 0.  1.
   -9000007    1    1    2    0  503 -0.53371704481E+02  0.16642288672E+03  0.63982996461E+02  0.44117903384E+03  0.40000000000E+03 0.  1.
<mgrwt>
<rscale>  2 0.43648219E+03</rscale>
<asrwt>0</asrwt>
<pdfrwt beam="1">  1       21 0.12980525E+00 0.43651474E+03</pdfrwt>
<pdfrwt beam="2">  1       21 0.41404912E-01 0.43651474E+03</pdfrwt>
<totfact> 0.21072131E+03</totfact>
</mgrwt>
</event>
<event>
 6    1  0.9094387E-004  0.4728340E+03  0.7818608E-02  0.1021125E+00
         21   -1    0    0  501  502  0.00000000000E+00  0.00000000000E+00  0.11565039413E+04  0.11565039413E+04  0.00000000000E+00 0.  1.
         21   -1    0    0  502  503 -0.00000000000E+00 -0.00000000000E+00 -0.10203630058E+04  0.10203630058E+04  0.00000000000E+00 0.  1.
    9000007    2    1    2  501    0  0.15487731124E+03 -0.19891742478E+03  0.10479921445E+04  0.11497215091E+04  0.40002111202E+03 0.  0.
    9000005    1    3    3    0    0  0.12776975142E+03 -0.54716565520E+01  0.57623375153E+02  0.14027295449E+03  0.99999687468E+00 0.  0.
          4    1    3    3  501    0  0.27107559820E+02 -0.19344576823E+03  0.99036876934E+03  0.10094485546E+04  0.00000000000E+00 0.  1.
   -9000007    1    1    2    0  503 -0.15487731124E+03  0.19891742478E+03 -0.91185120904E+03  0.10271454380E+04  0.40000000000E+03 0.  1.
<mgrwt>
<rscale>  2 0.47282956E+03</rscale>
<asrwt>0</asrwt>
<pdfrwt beam="1">  1       21 0.17792368E+00 0.47283402E+03</pdfrwt>
<pdfrwt beam="2">  1       21 0.15697892E+00 0.47283402E+03</pdfrwt>
<totfact> 0.38237670E+01</totfact>
</mgrwt>
</event>
<event>
 6    1  0.9094387E-004  0.4050487E+03  0.7818608E-02  0.1042402E+00
         21   -1    0    0  501  502  0.00000000000E+00  0.00000000000E+00  0.11945273593E+04  0.11945273593E+04  0.00000000000E+00 0.  1.
         21   -1    0    0  502  503 -0.00000000000E+00 -0.00000000000E+00 -0.13692560329E+03  0.13692560329E+03  0.00000000000E+00 0.  1.
    9000007    2    1    2  501    0 -0.20170325872E+02  0.17500916281E+02  0.47503912619E+03  0.62428088892E+03  0.40416745632E+03 0.  0.
    9000005    1    3    3    0    0 -0.31601774630E+02  0.20991837423E+03  0.25064891011E+03  0.32846654645E+03  0.99999687468E+00 0.  0.
          4    1    3    3  501    0  0.11431448758E+02 -0.19241745795E+03  0.22439021608E+03  0.29581434248E+03  0.00000000000E+00 0.  1.
   -9000007    1    1    2    0  503  0.20170325872E+02 -0.17500916281E+02  0.58256262984E+03  0.70717207368E+03  0.40000000000E+03 0. -1.
<mgrwt>
<rscale>  2 0.40400511E+03</rscale>
<asrwt>0</asrwt>
<pdfrwt beam="1">  1       21 0.18377343E+00 0.40504871E+03</pdfrwt>
<pdfrwt beam="2">  1       21 0.21065478E-01 0.40504871E+03</pdfrwt>
<totfact> 0.31354305E+03</totfact>
</mgrwt>
</event>
<event>
 6    1  0.9094387E-004  0.4094182E+03  0.7818608E-02  0.1040608E+00
         21   -1    0    0  501  502  0.00000000000E+00  0.00000000000E+00  0.65541212502E+03  0.65541212502E+03  0.00000000000E+00 0.  1.
         21   -1    0    0  502  503 -0.00000000000E+00 -0.00000000000E+00 -0.26056225830E+03  0.26056225830E+03  0.00000000000E+00 0.  1.
    9000007    2    1    2  501    0  0.85820801612E+02  0.16064594971E+02  0.13312318538E+03  0.43004832215E+03  0.39949530122E+03 0.  0.
    9000005    1    3    3    0    0  0.83991505446E+02 -0.16703254943E+03 -0.24347952234E+02  0.18854248414E+03  0.99999687468E+00 0.  0.
          4    1    3    3  501    0  0.18292961660E+01  0.18309714440E+03  0.15747113761E+03  0.24150583801E+03  0.00000000000E+00 0.  1.
   -9000007    1    1    2    0  503 -0.85820801612E+02 -0.16064594971E+02  0.26172668134E+03  0.48592606117E+03  0.40000000000E+03 0.  1.
<mgrwt>
<rscale>  2 0.40929490E+03</rscale>
<asrwt>0</asrwt>
<pdfrwt beam="1">  1       21 0.10083263E+00 0.40941822E+03</pdfrwt>
<pdfrwt beam="2">  1       21 0.40086501E-01 0.40941822E+03</pdfrwt>
<totfact> 0.42868213E+03</totfact>
</mgrwt>
</event>
<event>
 6    1  0.9094387E-004  0.4569993E+03  0.7818608E-02  0.1025668E+00
         21   -1    0    0  501  502  0.00000000000E+00  0.00000000000E+00  0.38285584911E+03  0.38285584911E+03  0.00000000000E+00 0.  1.
         21   -1    0    0  502  503 -0.00000000000E+00 -0.00000000000E+00 -0.11312750433E+04  0.11312750433E+04  0.00000000000E+00 0. -1.
    9000007    2    1    2  501    0  0.74890168432E+02  0.20794176937E+03  0.17069300580E+03  0.48767312272E+03  0.39980076991E+03 0.  0.
    9000005    1    3    3    0    0 -0.40499034775E+02  0.22487725004E+03 -0.53753718760E+02  0.23473476879E+03  0.99999687468E+00 0.  0.
          4    1    3    3  501    0  0.11538920321E+03 -0.16935480674E+02  0.22444672456E+03  0.25293835393E+03  0.00000000000E+00 0.  1.
   -9000007    1    1    2    0  503 -0.74890168432E+02 -0.20794176937E+03 -0.91911220004E+03  0.10264577697E+04  0.40000000000E+03 0. -1.
<mgrwt>
<rscale>  2 0.45695565E+03</rscale>
<asrwt>0</asrwt>
<pdfrwt beam="1">  1       21 0.58900901E-01 0.45699925E+03</pdfrwt>
<pdfrwt beam="2">  1       21 0.17404231E+00 0.45699925E+03</pdfrwt>
<totfact> 0.44428433E+02</totfact>
</mgrwt>
</event>
<event>
 6    1  0.9094387E-004  0.4490894E+03  0.7818608E-02  0.1028033E+00
         21   -1    0    0  501  502  0.00000000000E+00  0.00000000000E+00  0.14248082611E+04  0.14248082611E+04  0.00000000000E+00 0. -1.
         21   -1    0    0  502  503 -0.00000000000E+00 -0.00000000000E+00 -0.14144857935E+03  0.14144857935E+03  0.00000000000E+00 0. -1.
    9000007    2    1    2  501    0 -0.44243330521E+02 -0.19812081447E+03  0.65877569572E+03  0.79728708485E+03  0.40058950182E+03 0.  0.
    9000005    1    3    3    0    0  0.11034027594E+03 -0.25263244911E+03  0.33064860706E+03  0.43049695955E+03  0.99999687468E+00 0.  0.
          4    1    3    3  501    0 -0.15458360646E+03  0.54511634644E+02  0.32812708867E+03  0.36679012530E+03  0.00000000000E+00 0.  1.
   -9000007    1    1    2    0  503  0.44243330521E+02  0.19812081447E+03  0.62458398599E+03  0.76896975557E+03  0.40000000000E+03 0. -1.
<mgrwt>
<rscale>  2 0.44895789E+03</rscale>
<asrwt>0</asrwt>
<pdfrwt beam="1">  1       21 0.21920126E+00 0.44908939E+03</pdfrwt>
<pdfrwt beam="2">  1       21 0.21761321E-01 0.44908939E+03</pdfrwt>
<totfact> 0.16803608E+03</totfact>
</mgrwt>
</event>
<event>
 6    1  0.9094387E-004  0.4223893E+03  0.7818608E-02  0.1036325E+00
         21   -1    0    0  501  502  0.00000000000E+00  0.00000000000E+00  0.58490158396E+03  0.58490158396E+03  0.00000000000E+00 0.  1.
         21   -1    0    0  502  503 -0.00000000000E+00 -0.00000000000E+00 -0.46300193642E+03  0.46300193642E+03  0.00000000000E+00 0.  1.
    9000007    2    1    2  501    0 -0.11263616192E+03 -0.73350701251E+02  0.36730316387E+03  0.55975383415E+03  0.40043165498E+03 0.  0.
    9000005    1    3    3    0    0 -0.25108813579E+03  0.25093842440E+02  0.21181213588E+03  0.32945460046E+03  0.99999687468E+00 0.  0.
          4    1    3    3  501    0  0.13845197387E+03 -0.98444543691E+02  0.15549102799E+03  0.23029923369E+03  0.00000000000E+00 0.  1.
   -9000007    1    1    2    0  503  0.11263616192E+03  0.73350701251E+02 -0.24540351632E+03  0.48814968623E+03  0.40000000000E+03 0.  1.
<mgrwt>
<rscale>  2 0.42228699E+03</rscale>
<asrwt>0</asrwt>
<pdfrwt beam="1">  1       21 0.89984859E-01 0.42238932E+03</pdfrwt>
<pdfrwt beam="2">  1       21 0.71231067E-01 0.42238932E+03</pdfrwt>
<totfact> 0.16278839E+03</totfact>
</mgrwt>
</event>
<event>
 6    1  0.9094387E-004  0.4019930E+03  0.7818608E-02  0.1043125E+00
         21   -1    0    0  501  502  0.00000000000E+00  0.00000000000E+00  0.60157815821E+03  0.60157815821E+03  0.00000000000E+00 0. -1.
         21   -1    0    0  502  503 -0.00000000000E+00 -0.00000000000E+00 -0.73742160381E+03  0.73742160381E+03  0.00000000000E+00 0. -1.
    9000007    2    1    2  501    0 -0.11117114645E+02 -0.38402688789E+02  0.46604596826E+03  0.61521165542E+03  0.39961003452E+03 0.  0.
    9000005    1    3    3    0    0 -0.16215752832E+02 -0.21264100047E+03  0.17461255601E+03  0.27562599738E+03  0.99999687468E+00 0.  0.
          4    1    3    3  501    0  0.50986381866E+01  0.17423831168E+03  0.29143341225E+03  0.33958565804E+03  0.00000000000E+00 0.  1.
   -9000007    1    1    2    0  503  0.11117114645E+02  0.38402688789E+02 -0.60188941385E+03  0.72378810660E+03  0.40000000000E+03 0. -1.
<mgrwt>
<rscale>  2 0.40189594E+03</rscale>
<asrwt>0</asrwt>
<pdfrwt beam="1">  1       21 0.92550485E-01 0.40199298E+03</pdfrwt>
<pdfrwt beam="2">  1       21 0.11344948E+00 0.40199298E+03</pdfrwt>
<totfact> 0.51070733E+02</totfact>
</mgrwt>
</event>
<event>
 6    1  0.9094387E-004  0.4133640E+03  0.7818608E-02  0.1039756E+00
         21   -1    0    0  501  502  0.00000000000E+00  0.00000000000E+00  0.90283886171E+03  0.90283886171E+03  0.00000000000E+00 0. -1.
         21   -1    0    0  502  503 -0.00000000000E+00 -0.00000000000E+00 -0.53691265847E+03  0.53691265847E+03  0.00000000000E+00 0. -1.
    9000007    2    1    2  501    0 -0.39081008600E+01  0.76641616633E+02  0.76499742139E+03  0.86953485276E+03  0.40617803334E+03 0.  0.
    9000005    1    3    3    0    0  0.15438524825E+03  0.83003905044E+02  0.65145938104E+03  0.67462936362E+03  0.99999687468E+00 0.  0.
          4    1    3    3  501    0 -0.15829334911E+03 -0.63622884103E+01  0.11353804035E+03  0.19490548913E+03  0.00000000000E+00 0.  1.
   -9000007    1    1    2    0  503  0.39081008600E+01 -0.76641616633E+02 -0.39907121815E+03  0.57021666742E+03  0.40000000000E+03 0. -1.
<mgrwt>
<rscale>  2 0.41183833E+03</rscale>
<asrwt>0</asrwt>
<pdfrwt beam="1">  1       21 0.13889829E+00 0.41336401E+03</pdfrwt>
<pdfrwt beam="2">  1       21 0.82601947E-01 0.41336401E+03</pdfrwt>
<totfact> 0.39470280E+02</totfact>
</mgrwt>
</event>
<event>
 6    1  0.9094387E-004  0.5047551E+03  0.7818608E-02  0.1012555E+00
         21   -1    0    0  501  502  0.00000000000E+00  0.00000000000E+00  0.14914817371E+03  0.14914817371E+03  0.00000000000E+00 0. -1.
         21   -1    0    0  502  503 -0.00000000000E+00 -0.00000000000E+00 -0.17246945661E+04  0.17246945661E+04  0.00000000000E+00 0. -1.
    9000007    2    1    2  501    0  0.28209049808E+03  0.12268940653E+03 -0.69492787990E+03  0.85889608894E+03  0.40018744828E+03 0.  0.
    9000005    1    3    3    0    0  0.33412248136E+03  0.20747672383E+03 -0.62053606975E+03  0.73467709733E+03  0.99999687468E+00 0.  0.
          4    1    3    3  501    0 -0.52031983285E+02 -0.84787317305E+02 -0.74391810150E+02  0.12421899161E+03  0.00000000000E+00 0.  1.
   -9000007    1    1    2    0  503 -0.28209049808E+03 -0.12268940653E+03 -0.88061851246E+03  0.10149466508E+04  0.40000000000E+03 0. -1.
<mgrwt>
<rscale>  2 0.50471797E+03</rscale>
<asrwt>0</asrwt>
<pdfrwt beam="1">  1       21 0.22945871E-01 0.50475512E+03</pdfrwt>
<pdfrwt beam="2">  1       21 0.26533764E+00 0.50475512E+03</pdfrwt>
<totfact> 0.76362963E+02</totfact>
</mgrwt>
</event>
<event>
 6    1  0.9094387E-004  0.4200030E+03  0.7818608E-02  0.1037090E+00
         21   -1    0    0  501  502  0.00000000000E+00  0.00000000000E+00  0.22714832349E+03  0.22714832349E+03  0.00000000000E+00 0. -1.
         21   -1    0    0  502  503 -0.00000000000E+00 -0.00000000000E+00 -0.82956574709E+03  0.82956574709E+03  0.00000000000E+00 0. -1.
    9000007    2    1    2  501    0 -0.21395926755E+02 -0.12527068695E+03 -0.43551717414E+03  0.60504358897E+03  0.40031488217E+03 0.  0.
    9000005    1    3    3    0    0  0.76380793294E+02  0.17509916027E+02  0.47720873352E+02  0.91754588390E+02  0.99999687468E+00 0.  0.
          4    1    3    3  501    0 -0.97776720048E+02 -0.14278060298E+03 -0.48323804749E+03  0.51328900058E+03  0.00000000000E+00 0.  1.
   -9000007    1    1    2    0  503  0.21395926755E+02  0.12527068695E+03 -0.16690024945E+03  0.45167048161E+03  0.40000000000E+03 0.  1.
<mgrwt>
<rscale>  2 0.41992797E+03</rscale>
<asrwt>0</asrwt>
<pdfrwt beam="1">  1       21 0.34945895E-01 0.42000302E+03</pdfrwt>
<pdfrwt beam="2">  1       21 0.12762550E+00 0.42000302E+03</pdfrwt>
<totfact> 0.31338190E+03</totfact>
</mgrwt>
</event>
<event>
 6    1  0.9094387E-004  0.6281583E+03  0.7818608E-02  0.9848707E-01
         21   -1    0    0  501  502  0.00000000000E+00  0.00000000000E+00  0.18764205993E+04  0.18764205993E+04  0.00000000000E+00 0.  1.
         21   -1    0    0  502  503 -0.00000000000E+00 -0.00000000000E+00 -0.85672491967E+03  0.85672491967E+03  0.00000000000E+00 0. -1.
    9000007    2    1    2  501    0 -0.44654958281E+02 -0.48227465028E+03  0.16969420371E+04  0.18094326133E+04  0.39981395807E+03 0.  0.
    9000005    1    3    3    0    0 -0.21935589225E+03 -0.25015196320E+03  0.79348278741E+03  0.86041207921E+03  0.99999687468E+00 0.  0.
          4    1    3    3  501    0  0.17470093397E+03 -0.23212268708E+03  0.90345924970E+03  0.94902053405E+03  0.00000000000E+00 0.  1.
   -9000007    1    1    2    0  503  0.44654958281E+02  0.48227465028E+03 -0.67724635743E+03  0.92371290575E+03  0.40000000000E+03 0. -1.
<mgrwt>
<rscale>  2 0.62812873E+03</rscale>
<asrwt>0</asrwt>
<pdfrwt beam="1">  1       21 0.28868009E+00 0.62815834E+03</pdfrwt>
<pdfrwt beam="2">  1       21 0.13180383E+00 0.62815834E+03</pdfrwt>
<totfact> 0.10948917E+01</totfact>
</mgrwt>
</event>
<event>
 6    1  0.9094387E-004  0.5410282E+03  0.7818608E-02  0.1003596E+00
         21   -1    0    0  501  502  0.00000000000E+00  0.00000000000E+00  0.84170287425E+03  0.84170287425E+03  0.00000000000E+00 0.  1.
         21   -1    0    0  502  503 -0.00000000000E+00 -0.00000000000E+00 -0.38642626354E+03  0.38642626354E+03  0.00000000000E+00 0. -1.
    9000007    2    1    2  501    0  0.24648690575E+03  0.26811094659E+03  0.42199959190E+03  0.68614515799E+03  0.40009029965E+03 0.  0.
    9000005    1    3    3    0    0  0.18410372296E+03  0.18865396887E+02 -0.79867212767E+01  0.18524273729E+03  0.99999687468E+00 0.  0.
          4    1    3    3  501    0  0.62383182790E+02  0.24924554970E+03  0.42998631318E+03  0.50090242070E+03  0.00000000000E+00 0.  1.
   -9000007    1    1    2    0  503 -0.24648690575E+03 -0.26811094659E+03  0.33277018812E+02  0.54198397981E+03  0.40000000000E+03 0. -1.
<mgrwt>
<rscale>  2 0.54101151E+03</rscale>
<asrwt>0</asrwt>
<pdfrwt beam="1">  1       21 0.12949275E+00 0.54102821E+03</pdfrwt>
<pdfrwt beam="2">  1       21 0.59450194E-01 0.54102821E+03</pdfrwt>
<totfact> 0.94408439E+02</totfact>
</mgrwt>
</event>
<event>
 6    1  0.9094387E-004  0.4056715E+03  0.7818608E-02  0.1041834E+00
         21   -1    0    0  501  502  0.00000000000E+00  0.00000000000E+00  0.16830172422E+03  0.16830172422E+03  0.00000000000E+00 0.  1.
         21   -1    0    0  502  503 -0.00000000000E+00 -0.00000000000E+00 -0.15507941073E+04  0.15507941073E+04  0.00000000000E+00 0.  1.
    9000007    2    1    2  501    0 -0.58219066241E+02  0.34306901936E+02 -0.16877672123E+03  0.43938018693E+03  0.40000367979E+03 0.  0.
    9000005    1    3    3    0    0  0.39924647143E+02  0.13425390097E+03 -0.24328100757E+03  0.28072181250E+03  0.99999687468E+00 0.  0.
          4    1    3    3  501    0 -0.98143713384E+02 -0.99946999038E+02  0.74504286341E+02  0.15865837443E+03  0.00000000000E+00 0.  1.
   -9000007    1    1    2    0  503  0.58219066241E+02 -0.34306901936E+02 -0.12137156618E+04  0.12797156445E+04  0.40000000000E+03 0.  1.
<mgrwt>
<rscale>  2 0.40567059E+03</rscale>
<asrwt>0</asrwt>
<pdfrwt beam="1">  1       21 0.25892573E-01 0.40567150E+03</pdfrwt>
<pdfrwt beam="2">  1       21 0.23858371E+00 0.40567150E+03</pdfrwt>
<totfact> 0.92650529E+02</totfact>
</mgrwt>
</event>
<event>
 6    1  0.9094387E-004  0.8687592E+03  0.7818608E-02  0.9465623E-01
         21   -1    0    0  501  502  0.00000000000E+00  0.00000000000E+00  0.14034447780E+04  0.14034447780E+04  0.00000000000E+00 0. -1.
         21   -1    0    0  502  503 -0.00000000000E+00 -0.00000000000E+00 -0.54131345035E+03  0.54131345035E+03  0.00000000000E+00 0.  1.
    9000007    2    1    2  501    0  0.49338596533E+03 -0.59216063258E+03  0.51230313382E+03  0.10085618329E+04  0.40082233519E+03 0.  0.
    9000005    1    3    3    0    0  0.44820278678E+02 -0.30472634023E+03  0.69356188844E+02  0.31571867340E+03  0.99999687468E+00 0.  0.
          4    1    3    3  501    0  0.44856568665E+03 -0.28743429235E+03  0.44294694498E+03  0.69284315954E+03  0.00000000000E+00 0.  1.
   -9000007    1    1    2    0  503 -0.49338596533E+03  0.59216063258E+03  0.34982819383E+03  0.93619639540E+03  0.40000000000E+03 0.  1.
<mgrwt>
<rscale>  2 0.86866437E+03</rscale>
<asrwt>0</asrwt>
<pdfrwt beam="1">  1       21 0.21591458E+00 0.86875916E+03</pdfrwt>
<pdfrwt beam="2">  1       21 0.83278993E-01 0.86875916E+03</pdfrwt>
<totfact> 0.89894644E+01</totfact>
</mgrwt>
</event>
<event>
 6    1  0.9094387E-004  0.4368335E+03  0.7818608E-02  0.1031785E+00
         21   -1    0    0  501  502  0.00000000000E+00  0.00000000000E+00  0.13552411695E+04  0.13552411695E+04  0.00000000000E+00 0. -1.
         21   -1    0    0  502  503 -0.00000000000E+00 -0.00000000000E+00 -0.38277911559E+03  0.38277911559E+03  0.00000000000E+00 0. -1.
    9000007    2    1    2  501    0  0.14402473185E+03  0.10040123590E+03  0.11773691566E+04  0.12555159304E+04  0.39912227304E+03 0.  0.
    9000005    1    3    3    0    0  0.16061151743E+03  0.15494174988E+03  0.11775479466E+04  0.11985087283E+04  0.99999687468E+00 0.  0.
          4    1    3    3  501    0 -0.16586785574E+02 -0.54540513978E+02 -0.17878991900E+00  0.57007202058E+02  0.00000000000E+00 0.  1.
   -9000007    1    1    2    0  503 -0.14402473185E+03 -0.10040123590E+03 -0.20490710274E+03  0.48250435471E+03  0.40000000000E+03 0. -1.
<mgrwt>
<rscale>  2 0.43663250E+03</rscale>
<asrwt>0</asrwt>
<pdfrwt beam="1">  1       21 0.20849864E+00 0.43683353E+03</pdfrwt>
<pdfrwt beam="2">  1       21 0.58889095E-01 0.43683353E+03</pdfrwt>
<totfact> 0.26114429E+02</totfact>
</mgrwt>
</event>
<event>
 6    1  0.9094387E-004  0.5013114E+03  0.7818608E-02  0.1013493E+00
         21   -1    0    0  501  502  0.00000000000E+00  0.00000000000E+00  0.11779534077E+04  0.11779534077E+04  0.00000000000E+00 0.  1.
         21   -1    0    0  502  503 -0.00000000000E+00 -0.00000000000E+00 -0.26840990229E+03  0.26840990229E+03  0.00000000000E+00 0.  1.
    9000007    2    1    2  501    0  0.19828875520E+01 -0.30075176815E+03  0.78371069312E+03  0.93033089379E+03  0.40107052192E+03 0.  0.
    9000005    1    3    3    0    0 -0.48791773017E+02  0.54350675413E+02  0.52929057809E+01  0.73236929737E+02  0.99999687468E+00 0.  0.
          4    1    3    3  501    0  0.50774660569E+02 -0.35510244356E+03  0.77841778734E+03  0.85709396406E+03  0.00000000000E+00 0.  1.
   -9000007    1    1    2    0  503 -0.19828875520E+01  0.30075176815E+03  0.12583281225E+03  0.51603241616E+03  0.40000000000E+03 0.  1.
<mgrwt>
<rscale>  2 0.50109725E+03</rscale>
<asrwt>0</asrwt>
<pdfrwt beam="1">  1       21 0.18122360E+00 0.50131140E+03</pdfrwt>
<pdfrwt beam="2">  1       21 0.41293832E-01 0.50131140E+03</pdfrwt>
<totfact> 0.82428086E+02</totfact>
</mgrwt>
</event>
<event>
 6    1  0.9094387E-004  0.7258398E+03  0.7818608E-02  0.9674628E-01
         21   -1    0    0  501  502  0.00000000000E+00  0.00000000000E+00  0.38211683533E+03  0.38211683533E+03  0.00000000000E+00 0.  1.
         21   -1    0    0  502  503 -0.00000000000E+00 -0.00000000000E+00 -0.16449493255E+04  0.16449493255E+04  0.00000000000E+00 0. -1.
    9000007    2    1    2  501    0  0.69580453074E+02  0.60166602085E+03 -0.22106320514E+03  0.75737065272E+03  0.39736371856E+03 0.  0.
    9000005    1    3    3    0    0 -0.14513745115E+03  0.23299087131E+03 -0.18110143752E+03  0.32885917428E+03  0.99999687468E+00 0.  0.
          4    1    3    3  501    0  0.21471790422E+03  0.36867514954E+03 -0.39961767620E+02  0.42851147844E+03  0.00000000000E+00 0.  1.
   -9000007    1    1    2    0  503 -0.69580453074E+02 -0.60166602085E+03 -0.10417692850E+04  0.12696955081E+04  0.40000000000E+03 0. -1.
<mgrwt>
<rscale>  2 0.72547718E+03</rscale>
<asrwt>0</asrwt>
<pdfrwt beam="1">  1       21 0.58787205E-01 0.72583982E+03</pdfrwt>
<pdfrwt beam="2">  1       21 0.25306913E+00 0.72583982E+03</pdfrwt>
<totfact> 0.12026078E+02</totfact>
</mgrwt>
</event>
<event>
 6    1  0.9094387E-004  0.4022215E+03  0.7818608E-02  0.1043020E+00
         21   -1    0    0  501  502  0.00000000000E+00  0.00000000000E+00  0.14768899646E+04  0.14768899646E+04  0.00000000000E+00 0.  1.
         21   -1    0    0  502  503 -0.00000000000E+00 -0.00000000000E+00 -0.17375783499E+03  0.17375783499E+03  0.00000000000E+00 0.  1.
    9000007    2    1    2  501    0  0.28675806331E+02 -0.30981095794E+02  0.11533452308E+04  0.12214412698E+04  0.39991427066E+03 0.  0.
    9000005    1    3    3    0    0 -0.34068733082E+01 -0.17764660403E+03  0.25597829986E+03  0.31160201011E+03  0.99999687468E+00 0.  0.
          4    1    3    3  501    0  0.32082679639E+02  0.14666550824E+03  0.89736693098E+03  0.90983925968E+03  0.00000000000E+00 0.  1.
   -9000007    1    1    2    0  503 -0.28675806331E+02  0.30981095794E+02  0.14978689873E+03  0.42920652977E+03  0.40000000000E+03 0.  1.
<mgrwt>
<rscale>  2 0.40220018E+03</rscale>
<asrwt>0</asrwt>
<pdfrwt beam="1">  1       21 0.22721383E+00 0.40222149E+03</pdfrwt>
<pdfrwt beam="2">  1       21 0.26731976E-01 0.40222149E+03</pdfrwt>
<totfact> 0.10269897E+03</totfact>
</mgrwt>
</event>
<event>
 6    1  0.9094387E-004  0.5505495E+03  0.7818608E-02  0.1001372E+00
         21   -1    0    0  501  502  0.00000000000E+00  0.00000000000E+00  0.13408622323E+04  0.13408622323E+04  0.00000000000E+00 0. -1.
         21   -1    0    0  502  503 -0.00000000000E+00 -0.00000000000E+00 -0.23498399418E+03  0.23498399418E+03  0.00000000000E+00 0. -1.
    9000007    2    1    2  501    0 -0.19387042087E+03  0.32467273388E+03  0.70694342282E+03  0.89603219967E+03  0.40013319728E+03 0.  0.
    9000005    1    3    3    0    0 -0.16937530732E+03  0.33185262179E+03  0.27436180359E+03  0.46269812684E+03  0.99999687468E+00 0.  0.
          4    1    3    3  501    0 -0.24495113550E+02 -0.71798879155E+01  0.43258161923E+03  0.43333407283E+03  0.00000000000E+00 0.  1.
   -9000007    1    1    2    0  503  0.19387042087E+03 -0.32467273388E+03  0.39893481535E+03  0.67981402685E+03  0.40000000000E+03 0. -1.
<mgrwt>
<rscale>  2 0.55052525E+03</rscale>
<asrwt>0</asrwt>
<pdfrwt beam="1">  1       21 0.20628649E+00 0.55054945E+03</pdfrwt>
<pdfrwt beam="2">  1       21 0.36151385E-01 0.55054945E+03</pdfrwt>
<totfact> 0.71691511E+02</totfact>
</mgrwt>
</event>
<event>
 6    1  0.9094387E-004  0.4483990E+03  0.7818608E-02  0.1028215E+00
         21   -1    0    0  501  502  0.00000000000E+00  0.00000000000E+00  0.68782532494E+03  0.68782532494E+03  0.00000000000E+00 0. -1.
         21   -1    0    0  502  503 -0.00000000000E+00 -0.00000000000E+00 -0.46155475208E+03  0.46155475208E+03  0.00000000000E+00 0.  1.
    9000007    2    1    2  501    0 -0.18320429411E+03 -0.86590220954E+02  0.46124231117E+03  0.64314554882E+03  0.39978750305E+03 0.  0.
    9000005    1    3    3    0    0 -0.22695809667E+02 -0.80624969707E+02  0.47463414758E+03  0.48196894045E+03  0.99999687468E+00 0.  0.
          4    1    3    3  501    0 -0.16050848444E+03 -0.59652512465E+01 -0.13391836409E+02  0.16117660836E+03  0.00000000000E+00 0.  1.
   -9000007    1    1    2    0  503  0.18320429411E+03  0.86590220954E+02 -0.23497173831E+03  0.50623452821E+03  0.40000000000E+03 0.  1.
<mgrwt>
<rscale>  2 0.44835162E+03</rscale>
<asrwt>0</asrwt>
<pdfrwt beam="1">  1       21 0.10581928E+00 0.44839902E+03</pdfrwt>
<pdfrwt beam="2">  1       21 0.71008423E-01 0.44839902E+03</pdfrwt>
<totfact> 0.10968988E+03</totfact>
</mgrwt>
</event>
<event>
 6    1  0.9094387E-004  0.4427970E+03  0.7818608E-02  0.1030084E+00
         21   -1    0    0  501  502  0.00000000000E+00  0.00000000000E+00  0.43454046075E+03  0.43454046075E+03  0.00000000000E+00 0. -1.
         21   -1    0    0  502  503 -0.00000000000E+00 -0.00000000000E+00 -0.44884994341E+03  0.44884994341E+03  0.00000000000E+00 0. -1.
    9000007    2    1    2  501    0  0.30948784513E+02 -0.18738028421E+03  0.21145725347E+01  0.44028889461E+03  0.39721611388E+03 0.  0.
    9000005    1    3    3    0    0  0.14608664990E+01  0.56669300291E+02  0.14518413085E+03  0.15586204018E+03  0.99999687468E+00 0.  0.
          4    1    3    3  501    0  0.29487918014E+02 -0.24404958450E+03 -0.14306955831E+03  0.28442685443E+03  0.00000000000E+00 0.  1.
   -9000007    1    1    2    0  503 -0.30948784513E+02  0.18738028421E+03 -0.16424055190E+02  0.44310150955E+03  0.40000000000E+03 0. -1.
<mgrwt>
<rscale>  2 0.44216738E+03</rscale>
<asrwt>0</asrwt>
<pdfrwt beam="1">  1       21 0.66852378E-01 0.44279702E+03</pdfrwt>
<pdfrwt beam="2">  1       21 0.69053838E-01 0.44279702E+03</pdfrwt>
<totfact> 0.34264508E+03</totfact>
</mgrwt>
</event>
<event>
 6    1  0.9094387E-004  0.4761690E+03  0.7818608E-02  0.1020218E+00
         21   -1    0    0  501  502  0.00000000000E+00  0.00000000000E+00  0.78041855939E+03  0.78041855939E+03  0.00000000000E+00 0.  1.
         21   -1    0    0  502  503 -0.00000000000E+00 -0.00000000000E+00 -0.43065008774E+03  0.43065008774E+03  0.00000000000E+00 0.  1.
    9000007    2    1    2  501    0 -0.91269281445E+02  0.24098093595E+03  0.52059278210E+03  0.70551663371E+03  0.40041850911E+03 0.  0.
    9000005    1    3    3    0    0  0.59858980033E+02 -0.66792112557E+02  0.25945385120E+03  0.27452064528E+03  0.99999687468E+00 0.  0.
          4    1    3    3  501    0 -0.15112826148E+03  0.30777304851E+03  0.26113893090E+03  0.43099598842E+03  0.00000000000E+00 0.  1.
   -9000007    1    1    2    0  503  0.91269281445E+02 -0.24098093595E+03 -0.17082431045E+03  0.50555201342E+03  0.40000000000E+03 0.  1.
<mgrwt>
<rscale>  2 0.47608096E+03</rscale>
<asrwt>0</asrwt>
<pdfrwt beam="1">  1       21 0.12006439E+00 0.47616896E+03</pdfrwt>
<pdfrwt beam="2">  1       21 0.66253860E-01 0.47616896E+03</pdfrwt>
<totfact> 0.92444873E+02</totfact>
</mgrwt>
</event>
<event>
 6    1  0.9094387E-004  0.4283329E+03  0.7818608E-02  0.1034397E+00
         21   -1    0    0  501  502  0.00000000000E+00  0.00000000000E+00  0.13678567716E+04  0.13678567716E+04  0.00000000000E+00 0. -1.
         21   -1    0    0  502  503 -0.00000000000E+00 -0.00000000000E+00 -0.14828967669E+03  0.14828967669E+03  0.00000000000E+00 0.  1.
    9000007    2    1    2  501    0  0.14210704808E+03 -0.56372285621E+02  0.84440974600E+03  0.94683521167E+03  0.40012104571E+03 0.  0.
    9000005    1    3    3    0    0  0.25724936211E+03  0.31064582495E+02  0.68108686699E+03  0.72871294964E+03  0.99999687468E+00 0.  0.
          4    1    3    3  501    0 -0.11514231403E+03 -0.87436868116E+02  0.16332287901E+03  0.21812226203E+03  0.00000000000E+00 0.  1.
   -9000007    1    1    2    0  503 -0.14210704808E+03  0.56372285621E+02  0.37515734889E+03  0.56931123660E+03  0.40000000000E+03 0. -1.
<mgrwt>
<rscale>  2 0.42830466E+03</rscale>
<asrwt>0</asrwt>
<pdfrwt beam="1">  1       21 0.21043949E+00 0.42833293E+03</pdfrwt>
<pdfrwt beam="2">  1       21 0.22813797E-01 0.42833293E+03</pdfrwt>
<totfact> 0.17645338E+03</totfact>
</mgrwt>
</event>
<event>
 6    1  0.9094387E-004  0.6027110E+03  0.7818608E-02  0.9900037E-01
         21   -1    0    0  501  502  0.00000000000E+00  0.00000000000E+00  0.13266878221E+04  0.13266878221E+04  0.00000000000E+00 0.  1.
         21   -1    0    0  502  503 -0.00000000000E+00 -0.00000000000E+00 -0.27588288589E+03  0.27588288589E+03  0.00000000000E+00 0.  1.
    9000007    2    1    2  501    0  0.40547457715E+03  0.19568399762E+03  0.45270563528E+03  0.75379238980E+03  0.40069778520E+03 0.  0.
    9000005    1    3    3    0    0 -0.84808606294E+01 -0.95953065310E+02  0.70937945739E+02  0.11963322230E+03  0.99999687468E+00 0.  0.
          4    1    3    3  501    0  0.41395543778E+03  0.29163706293E+03  0.38176768954E+03  0.63415916750E+03  0.00000000000E+00 0.  1.
   -9000007    1    1    2    0  503 -0.40547457715E+03 -0.19568399762E+03  0.59809930094E+03  0.84877831819E+03  0.40000000000E+03 0.  1.
<mgrwt>
<rscale>  2 0.60259507E+03</rscale>
<asrwt>0</asrwt>
<pdfrwt beam="1">  1       21 0.20410582E+00 0.60271102E+03</pdfrwt>
<pdfrwt beam="2">  1       21 0.42443522E-01 0.60271102E+03</pdfrwt>
<totfact> 0.52193239E+02</totfact>
</mgrwt>
</event>
<event>
 6    1  0.9094387E-004  0.5285709E+03  0.7818608E-02  0.1006594E+00
         21   -1    0    0  501  502  0.00000000000E+00  0.00000000000E+00  0.73684566306E+03  0.73684566306E+03  0.00000000000E+00 0.  1.
         21   -1    0    0  502  503 -0.00000000000E+00 -0.00000000000E+00 -0.61839428299E+03  0.61839428299E+03  0.00000000000E+00 0. -1.
    9000007    2    1    2  501    0  0.24588839509E+03  0.24220918668E+03 -0.36238450448E+03  0.64086641573E+03  0.40032591819E+03 0.  0.
    9000005    1    3    3    0    0  0.35585326076E+03  0.16264454952E+03 -0.24686395049E+03  0.46263117354E+03  0.99999687468E+00 0.  0.
          4    1    3    3  501    0 -0.10996486566E+03  0.79564637161E+02 -0.11552055398E+03  0.17823524219E+03  0.00000000000E+00 0.  1.
   -9000007    1    1    2    0  503 -0.24588839509E+03 -0.24220918668E+03  0.48083588454E+03  0.71437353032E+03  0.40000000000E+03 0.  1.
<mgrwt>
<rscale>  2 0.52850922E+03</rscale>
<asrwt>0</asrwt>
<pdfrwt beam="1">  1       21 0.11336087E+00 0.52857094E+03</pdfrwt>
<pdfrwt beam="2">  1       21 0.95137582E-01 0.52857094E+03</pdfrwt>
<totfact> 0.45300947E+02</totfact>
</mgrwt>
</event>
<event>
 6    1  0.9094387E-004  0.4609300E+03  0.7818608E-02  0.1024548E+00
         21   -1    0    0  501  502  0.00000000000E+00  0.00000000000E+00  0.74469831093E+03  0.74469831093E+03  0.00000000000E+00 0.  1.
         21   -1    0    0  502  503 -0.00000000000E+00 -0.00000000000E+00 -0.29845500195E+03  0.29845500195E+03  0.00000000000E+00 0. -1.
    9000007    2    1    2  501    0  0.22420802419E+03  0.46767364800E+02  0.11218406616E+03  0.47389765657E+03  0.39942120586E+03 0.  0.
    9000005    1    3    3    0    0  0.32717315344E+03  0.42237250937E+02  0.15223845034E+03  0.36332327679E+03  0.99999687468E+00 0.  0.
          4    1    3    3  501    0 -0.10296512925E+03  0.45301138624E+01 -0.40054384180E+02  0.11057437979E+03  0.00000000000E+00 0.  1.
   -9000007    1    1    2    0  503 -0.22420802419E+03 -0.46767364800E+02  0.33405924282E+03  0.56925565630E+03  0.40000000000E+03 0.  1.
<mgrwt>
<rscale>  2 0.46080436E+03</rscale>
<asrwt>0</asrwt>
<pdfrwt beam="1">  1       21 0.11456897E+00 0.46092996E+03</pdfrwt>
<pdfrwt beam="2">  1       21 0.45916154E-01 0.46092996E+03</pdfrwt>
<totfact> 0.23138021E+03</totfact>
</mgrwt>
</event>
<event>
 6    1  0.9094387E-004  0.4282102E+03  0.7818608E-02  0.1034480E+00
         21   -1    0    0  501  502  0.00000000000E+00  0.00000000000E+00  0.91066764269E+03  0.91066764269E+03  0.00000000000E+00 0. -1.
         21   -1    0    0  502  503 -0.00000000000E+00 -0.00000000000E+00 -0.20984889505E+03  0.20984889505E+03  0.00000000000E+00 0. -1.
    9000007    2    1    2  501    0 -0.10080283582E+03  0.11239151340E+03  0.23586765549E+03  0.48887377314E+03  0.40071305339E+03 0.  0.
    9000005    1    3    3    0    0 -0.26145551266E+02  0.26049237096E+03  0.13222146434E+03  0.29329742720E+03  0.99999687468E+00 0.  0.
          4    1    3    3  501    0 -0.74657284556E+02 -0.14810085756E+03  0.10364619115E+03  0.19557634593E+03  0.00000000000E+00 0.  1.
   -9000007    1    1    2    0  503  0.10080283582E+03 -0.11239151340E+03  0.46495109214E+03  0.63164276460E+03  0.40000000000E+03 0. -1.
<mgrwt>
<rscale>  2 0.42804335E+03</rscale>
<asrwt>0</asrwt>
<pdfrwt beam="1">  1       21 0.14010271E+00 0.42821025E+03</pdfrwt>
<pdfrwt beam="2">  1       21 0.32284446E-01 0.42821025E+03</pdfrwt>
<totfact> 0.28710869E+03</totfact>
</mgrwt>
</event>
<event>
 6    1  0.9094387E-004  0.4031293E+03  0.7818608E-02  0.1042989E+00
         21   -1    0    0  501  502  0.00000000000E+00  0.00000000000E+00  0.17969560111E+03  0.17969560111E+03  0.00000000000E+00 0.  1.
         21   -1    0    0  502  503 -0.00000000000E+00 -0.00000000000E+00 -0.97431413781E+03  0.97431413781E+03  0.00000000000E+00 0.  1.
    9000007    2    1    2  501    0 -0.35020145250E+02  0.35872556436E+02 -0.23314734369E+03  0.46280560738E+03  0.39663345228E+03 0.  0.
    9000005    1    3    3    0    0 -0.21028600200E+03  0.61032991243E+02 -0.97188721620E+02  0.23956601650E+03  0.99999687468E+00 0.  0.
          4    1    3    3  501    0  0.17526585675E+03 -0.25160434807E+02 -0.13595862207E+03  0.22323959088E+03  0.00000000000E+00 0.  1.
   -9000007    1    1    2    0  503  0.35020145250E+02 -0.35872556436E+02 -0.56147119301E+03  0.69120413154E+03  0.40000000000E+03 0.  1.
<mgrwt>
<rscale>  2 0.40229167E+03</rscale>
<asrwt>0</asrwt>
<pdfrwt beam="1">  1       21 0.27645477E-01 0.40312932E+03</pdfrwt>
<pdfrwt beam="2">  1       21 0.14989448E+00 0.40312932E+03</pdfrwt>
<totfact> 0.32913599E+03</totfact>
</mgrwt>
</event>
<event>
 6    1  0.9094387E-004  0.5118727E+03  0.7818608E-02  0.1010730E+00
         21   -1    0    0  501  502  0.00000000000E+00  0.00000000000E+00  0.35519636306E+03  0.35519636306E+03  0.00000000000E+00 0.  1.
         21   -1    0    0  502  503 -0.00000000000E+00 -0.00000000000E+00 -0.74064886581E+03  0.74064886581E+03  0.00000000000E+00 0.  1.
    9000007    2    1    2  501    0 -0.31762921057E+03 -0.33545833560E+02 -0.22806944442E+03  0.56032392640E+03  0.39991698222E+03 0.  0.
    9000005    1    3    3    0    0  0.28576379247E+02 -0.35075960891E+02 -0.20872550073E+03  0.21357496842E+03  0.99999687468E+00 0.  0.
          4    1    3    3  501    0 -0.34620558981E+03  0.15301273312E+01 -0.19343943684E+02  0.34674895799E+03  0.00000000000E+00 0.  1.
   -9000007    1    1    2    0  503  0.31762921057E+03  0.33545833560E+02 -0.15738305833E+03  0.53552130247E+03  0.40000000000E+03 0.  1.
<mgrwt>
<rscale>  2 0.51185646E+03</rscale>
<asrwt>0</asrwt>
<pdfrwt beam="1">  1       21 0.54645594E-01 0.51187268E+03</pdfrwt>
<pdfrwt beam="2">  1       21 0.11394598E+00 0.51187268E+03</pdfrwt>
<totfact> 0.15896288E+03</totfact>
</mgrwt>
</event>
<event>
 6    1  0.9094387E-004  0.6575665E+03  0.7818608E-02  0.9792803E-01
         21   -1    0    0  501  502  0.00000000000E+00  0.00000000000E+00  0.19750958198E+04  0.19750958198E+04  0.00000000000E+00 0.  1.
         21   -1    0    0  502  503 -0.00000000000E+00 -0.00000000000E+00 -0.22898331485E+03  0.22898331485E+03  0.00000000000E+00 0.  1.
    9000007    2    1    2  501    0 -0.29187983542E+03 -0.43266604055E+03  0.11048710450E+04  0.12856106535E+04  0.39957600685E+03 0.  0.
    9000005    1    3    3    0    0  0.72369135361E+02 -0.22861660318E+03  0.40235995760E+03  0.46839873876E+03  0.99999687468E+00 0.  0.
          4    1    3    3  501    0 -0.36424897078E+03 -0.20404943737E+03  0.70251108740E+03  0.81721191469E+03  0.00000000000E+00 0.  1.
   -9000007    1    1    2    0  503  0.29187983542E+03  0.43266604055E+03  0.64124145994E+03  0.91846848118E+03  0.40000000000E+03 0.  1.
<mgrwt>
<rscale>  2 0.65750206E+03</rscale>
<asrwt>0</asrwt>
<pdfrwt beam="1">  1       21 0.30386088E+00 0.65756653E+03</pdfrwt>
<pdfrwt beam="2">  1       21 0.35228204E-01 0.65756653E+03</pdfrwt>
<totfact> 0.17775347E+02</totfact>
</mgrwt>
</event>
<event>
 6    1  0.9094387E-004  0.4720354E+03  0.7818608E-02  0.1021375E+00
         21   -1    0    0  501  502  0.00000000000E+00  0.00000000000E+00  0.69755253272E+03  0.69755253272E+03  0.00000000000E+00 0. -1.
         21   -1    0    0  502  503 -0.00000000000E+00 -0.00000000000E+00 -0.91705915601E+03  0.91705915601E+03  0.00000000000E+00 0. -1.
    9000007    2    1    2  501    0  0.16179081604E+03  0.19141890585E+03  0.54212078863E+03  0.71856828562E+03  0.39953468681E+03 0.  0.
    9000005    1    3    3    0    0  0.65631060615E+02  0.46413143882E+02  0.53857296988E+03  0.54453967709E+03  0.99999687468E+00 0.  0.
          4    1    3    3  501    0  0.96159755425E+02  0.14500576197E+03  0.35478187448E+01  0.17402860853E+03  0.00000000000E+00 0.  1.
   -9000007    1    1    2    0  503 -0.16179081604E+03 -0.19141890585E+03 -0.76162741192E+03  0.89604340311E+03  0.40000000000E+03 0. -1.
<mgrwt>
<rscale>  2 0.47193686E+03</rscale>
<asrwt>0</asrwt>
<pdfrwt beam="1">  1       21 0.10731577E+00 0.47203545E+03</pdfrwt>
<pdfrwt beam="2">  1       21 0.14108602E+00 0.47203545E+03</pdfrwt>
<totfact> 0.19644424E+02</totfact>
</mgrwt>
</event>
<event>
 6    1  0.9094387E-004  0.5952369E+03  0.7818608E-02  0.9915979E-01
         21   -1    0    0  501  502  0.00000000000E+00  0.00000000000E+00  0.35886072012E+03  0.35886072012E+03  0.00000000000E+00 0.  1.
         21   -1    0    0  502  503 -0.00000000000E+00 -0.00000000000E+00 -0.10777361279E+04  0.10777361279E+04  0.00000000000E+00 0. -1.
    9000007    2    1    2  501    0 -0.29250681813E+03 -0.32755439395E+03 -0.57015865782E+03  0.82424989457E+03  0.40181447705E+03 0.  0.
    9000005    1    3    3    0    0 -0.23783124119E+03 -0.29649284379E+02 -0.42604022983E+03  0.48882927160E+03  0.99999687468E+00 0.  0.
          4    1    3    3  501    0 -0.54675576934E+02 -0.29790510958E+03 -0.14411842799E+03  0.33542062297E+03  0.00000000000E+00 0.  1.
   -9000007    1    1    2    0  503  0.29250681813E+03  0.32755439395E+03 -0.14871674993E+03  0.61234695342E+03  0.40000000000E+03 0. -1.
<mgrwt>
<rscale>  2 0.59493085E+03</rscale>
<asrwt>0</asrwt>
<pdfrwt beam="1">  1       21 0.55209343E-01 0.59523692E+03</pdfrwt>
<pdfrwt beam="2">  1       21 0.16580555E+00 0.59523692E+03</pdfrwt>
<totfact> 0.55585677E+02</totfact>
</mgrwt>
</event>
<event>
 6    1  0.9094387E-004  0.4264899E+03  0.7818608E-02  0.1035075E+00
         21   -1    0    0  501  502  0.00000000000E+00  0.00000000000E+00  0.40518864062E+03  0.40518864062E+03  0.00000000000E+00 0. -1.
         21   -1    0    0  502  503 -0.00000000000E+00 -0.00000000000E+00 -0.46069734913E+03  0.46069734913E+03  0.00000000000E+00 0. -1.
    9000007    2    1    2  501    0 -0.10307339419E+03 -0.10615788268E+03  0.45327435919E+02  0.42763771689E+03  0.39865501354E+03 0.  0.
    9000005    1    3    3    0    0 -0.21079675168E+03 -0.11418432867E+03  0.14540066266E+03  0.28038488570E+03  0.99999687468E+00 0.  0.
          4    1    3    3  501    0  0.10772335749E+03  0.80264459927E+01 -0.10007322674E+03  0.14725283119E+03  0.00000000000E+00 0.  1.
   -9000007    1    1    2    0  503  0.10307339419E+03  0.10615788268E+03 -0.10083614443E+03  0.43824827286E+03  0.40000000000E+03 0. -1.
<mgrwt>
<rscale>  2 0.42617424E+03</rscale>
<asrwt>0</asrwt>
<pdfrwt beam="1">  1       21 0.62336714E-01 0.42648988E+03</pdfrwt>
<pdfrwt beam="2">  1       21 0.70876515E-01 0.42648988E+03</pdfrwt>
<totfact> 0.37955168E+03</totfact>
</mgrwt>
</event>
<event>
 6    1  0.9094387E-004  0.5055881E+03  0.7818608E-02  0.1012349E+00
         21   -1    0    0  501  502  0.00000000000E+00  0.00000000000E+00  0.88403020489E+03  0.88403020489E+03  0.00000000000E+00 0.  1.
         21   -1    0    0  502  503 -0.00000000000E+00 -0.00000000000E+00 -0.33750143911E+03  0.33750143911E+03  0.00000000000E+00 0.  1.
    9000007    2    1    2  501    0  0.30301632940E+03 -0.59203551464E+02  0.41762894008E+02  0.50731001055E+03  0.40036901866E+03 0.  0.
    9000005    1    3    3    0    0  0.30951329173E+02 -0.19734589889E+03  0.29585386746E+02  0.20193980214E+03  0.99999687468E+00 0.  0.
          4    1    3    3  501    0  0.27206500022E+03  0.13814234743E+03  0.12177507262E+02  0.30537020841E+03  0.00000000000E+00 0.  1.
   -9000007    1    1    2    0  503 -0.30301632940E+03  0.59203551464E+02  0.50476587177E+03  0.71422163345E+03  0.40000000000E+03 0.  1.
<mgrwt>
<rscale>  2 0.50551502E+03</rscale>
<asrwt>0</asrwt>
<pdfrwt beam="1">  1       21 0.13600465E+00 0.50558808E+03</pdfrwt>
<pdfrwt beam="2">  1       21 0.51923299E-01 0.50558808E+03</pdfrwt>
<totfact> 0.11278374E+03</totfact>
</mgrwt>
</event>
<event>
 6    1  0.9094387E-004  0.4315443E+03  0.7818608E-02  0.1033389E+00
         21   -1    0    0  501  502  0.00000000000E+00  0.00000000000E+00  0.78210355697E+03  0.78210355697E+03  0.00000000000E+00 0.  1.
         21   -1    0    0  502  503 -0.00000000000E+00 -0.00000000000E+00 -0.33008669786E+03  0.33008669786E+03  0.00000000000E+00 0.  1.
    9000007    2    1    2  501    0 -0.59649512792E+02  0.15057353513E+03  0.51967955253E+03  0.67537370988E+03  0.39979039112E+03 0.  0.
    9000005    1    3    3    0    0  0.74909463577E+02  0.22960054329E+03  0.17887428159E+03  0.30054092204E+03  0.99999687468E+00 0.  0.
          4    1    3    3  501    0 -0.13455897637E+03 -0.79027008167E+02  0.34080527094E+03  0.37483278784E+03  0.00000000000E+00 0.  1.
   -9000007    1    1    2    0  503  0.59649512792E+02 -0.15057353513E+03 -0.67662693421E+02  0.43681654494E+03  0.40000000000E+03 0.  1.
<mgrwt>
<rscale>  2 0.43149569E+03</rscale>
<asrwt>0</asrwt>
<pdfrwt beam="1">  1       21 0.12032362E+00 0.43154427E+03</pdfrwt>
<pdfrwt beam="2">  1       21 0.50782569E-01 0.43154427E+03</pdfrwt>
<totfact> 0.16714111E+03</totfact>
</mgrwt>
</event>
<event>
 6    1  0.9094387E-004  0.4750310E+03  0.7818608E-02  0.1020519E+00
         21   -1    0    0  501  502  0.00000000000E+00  0.00000000000E+00  0.63057953491E+03  0.63057953491E+03  0.00000000000E+00 0. -1.
         21   -1    0    0  502  503 -0.00000000000E+00 -0.00000000000E+00 -0.72736545083E+03  0.72736545083E+03  0.00000000000E+00 0. -1.
    9000007    2    1    2  501    0  0.96558511097E+01 -0.25604923641E+03  0.43561353795E+03  0.64443000663E+03  0.39984551026E+03 0.  0.
    9000005    1    3    3    0    0  0.11949195783E+03 -0.27730340957E+03  0.14891687707E+03  0.33667899432E+03  0.99999687468E+00 0.  0.
          4    1    3    3  501    0 -0.10983610672E+03  0.21254173162E+02  0.28669666088E+03  0.30775101231E+03  0.00000000000E+00 0.  1.
   -9000007    1    1    2    0  503 -0.96558511097E+01  0.25604923641E+03 -0.53239945387E+03  0.71351497911E+03  0.40000000000E+03 0. -1.
<mgrwt>
<rscale>  2 0.47499847E+03</rscale>
<asrwt>0</asrwt>
<pdfrwt beam="1">  1       21 0.97012236E-01 0.47503100E+03</pdfrwt>
<pdfrwt beam="2">  1       21 0.11190238E+00 0.47503100E+03</pdfrwt>
<totfact> 0.45624139E+02</totfact>
</mgrwt>
</event>
<event>
 6    1  0.9094387E-004  0.4436956E+03  0.7818608E-02  0.1029685E+00
         21   -1    0    0  501  502  0.00000000000E+00  0.00000000000E+00  0.94570286281E+03  0.94570286281E+03  0.00000000000E+00 0. -1.
         21   -1    0    0  502  503 -0.00000000000E+00 -0.00000000000E+00 -0.25301474980E+03  0.25301474980E+03  0.00000000000E+00 0.  1.
    9000007    2    1    2  501    0  0.10223068033E+03 -0.16015325285E+03  0.60009180685E+03  0.74630822685E+03  0.40095587840E+03 0.  0.
    9000005    1    3    3    0    0 -0.25114338402E+02  0.22484661783E+01  0.52664961690E+03  0.52725383314E+03  0.99999687468E+00 0.  0.
          4    1    3    3  501    0  0.12734501873E+03 -0.16240171903E+03  0.73442189955E+02  0.21905439371E+03  0.00000000000E+00 0.  1.
   -9000007    1    1    2    0  503 -0.10223068033E+03  0.16015325285E+03  0.92596306160E+02  0.45240938575E+03  0.40000000000E+03 0.  1.
<mgrwt>
<rscale>  2 0.44347955E+03</rscale>
<asrwt>0</asrwt>
<pdfrwt beam="1">  1       21 0.14549275E+00 0.44369561E+03</pdfrwt>
<pdfrwt beam="2">  1       21 0.38925347E-01 0.44369561E+03</pdfrwt>
<totfact> 0.17658061E+03</totfact>
</mgrwt>
</event>
<event>
 6    1  0.9094387E-004  0.4229406E+03  0.7818608E-02  0.1036139E+00
         21   -1    0    0  501  502  0.00000000000E+00  0.00000000000E+00  0.53539956532E+03  0.53539956532E+03  0.00000000000E+00 0. -1.
         21   -1    0    0  502  503 -0.00000000000E+00 -0.00000000000E+00 -0.66794080007E+03  0.66794080007E+03  0.00000000000E+00 0. -1.
    9000007    2    1    2  501    0  0.38161986265E+02 -0.13199393456E+03 -0.49177991073E+03  0.64842491032E+03  0.39966066578E+03 0.  0.
    9000005    1    3    3    0    0 -0.38207435384E+00 -0.19361998148E+03 -0.49011390050E+02  0.19972971626E+03  0.99999687468E+00 0.  0.
          4    1    3    3  501    0  0.38544060619E+02  0.61626046920E+02 -0.44276852068E+03  0.44869519406E+03  0.00000000000E+00 0.  1.
   -9000007    1    1    2    0  503 -0.38161986265E+02  0.13199393456E+03  0.35923867598E+03  0.55491545507E+03  0.40000000000E+03 0. -1.
<mgrwt>
<rscale>  2 0.42286033E+03</rscale>
<asrwt>0</asrwt>
<pdfrwt beam="1">  1       21 0.82369164E-01 0.42294058E+03</pdfrwt>
<pdfrwt beam="2">  1       21 0.10276012E+00 0.42294058E+03</pdfrwt>
<totfact> 0.84859168E+02</totfact>
</mgrwt>
</event>
<event>
 6    1  0.9094387E-004  0.5108512E+03  0.7818608E-02  0.1011020E+00
         21   -1    0    0  501  502  0.00000000000E+00  0.00000000000E+00  0.15654874120E+03  0.15654874120E+03  0.00000000000E+00 0. -1.
         21   -1    0    0  502  503 -0.00000000000E+00 -0.00000000000E+00 -0.18652056148E+04  0.18652056148E+04  0.00000000000E+00 0.  1.
    9000007    2    1    2  501    0  0.12592437300E+03  0.29076088379E+03 -0.52371805999E+03  0.73160753054E+03  0.40071203266E+03 0.  0.
    9000005    1    3    3    0    0 -0.42574099696E+02  0.26136763770E+03 -0.11531268158E+03  0.28883145696E+03  0.99999687468E+00 0.  0.
          4    1    3    3  501    0  0.16849847269E+03  0.29393246083E+02 -0.40840537841E+03  0.44277607358E+03  0.00000000000E+00 0.  1.
   -9000007    1    1    2    0  503 -0.12592437300E+03 -0.29076088379E+03 -0.11849388136E+04  0.12901468255E+04  0.40000000000E+03 0.  1.
<mgrwt>
<rscale>  2 0.51071158E+03</rscale>
<asrwt>0</asrwt>
<pdfrwt beam="1">  1       21 0.24084422E-01 0.51085122E+03</pdfrwt>
<pdfrwt beam="2">  1       21 0.28695471E+00 0.51085122E+03</pdfrwt>
<totfact> 0.51239286E+02</totfact>
</mgrwt>
</event>
<event>
 6    1  0.9094387E-004  0.4564711E+03  0.7818608E-02  0.1025820E+00
         21   -1    0    0  501  502  0.00000000000E+00  0.00000000000E+00  0.44790836030E+03  0.44790836030E+03  0.00000000000E+00 0.  1.
         21   -1    0    0  502  503 -0.00000000000E+00 -0.00000000000E+00 -0.85226661292E+03  0.85226661292E+03  0.00000000000E+00 0.  1.
    9000007    2    1    2  501    0  0.21694654608E+03  0.36056307449E+02  0.23602823981E+03  0.51375223649E+03  0.39983267669E+03 0.  0.
    9000005    1    3    3    0    0 -0.34417101998E+02 -0.67874916472E+02 -0.70638307891E+02  0.10383791086E+03  0.99999687468E+00 0.  0.
          4    1    3    3  501    0  0.25136364808E+03  0.10393122392E+03  0.30666654770E+03  0.40991432563E+03  0.00000000000E+00 0.  1.
   -9000007    1    1    2    0  503 -0.21694654608E+03 -0.36056307449E+02 -0.64038649243E+03  0.78642273673E+03  0.40000000000E+03 0.  1.
<mgrwt>
<rscale>  2 0.45643444E+03</rscale>
<asrwt>0</asrwt>
<pdfrwt beam="1">  1       21 0.68908979E-01 0.45647110E+03</pdfrwt>
<pdfrwt beam="2">  1       21 0.13111794E+00 0.45647110E+03</pdfrwt>
<totfact> 0.68028340E+02</totfact>
</mgrwt>
</event>
<event>
 6    1  0.9094387E-004  0.5157232E+03  0.7818608E-02  0.1010292E+00
         21   -1    0    0  501  502  0.00000000000E+00  0.00000000000E+00  0.37900212483E+03  0.37900212483E+03  0.00000000000E+00 0. -1.
         21   -1    0    0  502  503 -0.00000000000E+00 -0.00000000000E+00 -0.73940049688E+03  0.73940049688E+03  0.00000000000E+00 0.  1.
    9000007    2    1    2  501    0 -0.14932517143E+02  0.31153973411E+03 -0.37428767100E+02  0.51707962056E+03  0.41071941200E+03 0.  0.
    9000005    1    3    3    0    0 -0.11138322947E+03  0.34680342493E+03 -0.12189851577E+03  0.38410817160E+03  0.99999687468E+00 0.  0.
          4    1    3    3  501    0  0.96450712326E+02 -0.35263690825E+02  0.84469748666E+02  0.13297144896E+03  0.00000000000E+00 0.  1.
   -9000007    1    1    2    0  503  0.14932517143E+02 -0.31153973411E+03 -0.32296960494E+03  0.60132300115E+03  0.40000000000E+03 0.  1.
<mgrwt>
<rscale>  2 0.51358609E+03</rscale>
<asrwt>0</asrwt>
<pdfrwt beam="1">  1       21 0.58308020E-01 0.51572320E+03</pdfrwt>
<pdfrwt beam="2">  1       21 0.11375392E+00 0.51572320E+03</pdfrwt>
<totfact> 0.13845065E+03</totfact>
</mgrwt>
</event>
<event>
 6    1  0.9094387E-004  0.8476512E+03  0.7818608E-02  0.9493738E-01
         21   -1    0    0  501  502  0.00000000000E+00  0.00000000000E+00  0.22238239450E+04  0.22238239450E+04  0.00000000000E+00 0. -1.
         21   -1    0    0  502  503 -0.00000000000E+00 -0.00000000000E+00 -0.32824518888E+03  0.32824518888E+03  0.00000000000E+00 0. -1.
    9000007    2    1    2  501    0  0.21948751448E+03  0.71352340284E+03  0.11121896895E+04  0.13983842354E+04  0.40152477981E+03 0.  0.
    9000005    1    3    3    0    0  0.33384836735E+03  0.52473739201E+03  0.75101359078E+03  0.97510331580E+03  0.99999687468E+00 0.  0.
          4    1    3    3  501    0 -0.11436085287E+03  0.18878601083E+03  0.36117609876E+03  0.42328091957E+03  0.00000000000E+00 0.  1.
   -9000007    1    1    2    0  503 -0.21948751448E+03 -0.71352340284E+03  0.78338906660E+03  0.11536848985E+04  0.40000000000E+03 0. -1.
<mgrwt>
<rscale>  2 0.84747084E+03</rscale>
<asrwt>0</asrwt>
<pdfrwt beam="1">  1       21 0.34212675E+00 0.84765120E+03</pdfrwt>
<pdfrwt beam="2">  1       21 0.50499261E-01 0.84765120E+03</pdfrwt>
<totfact> 0.45110654E+01</totfact>
</mgrwt>
</event>
<event>
 6    1  0.9094387E-004  0.4706056E+03  0.7818608E-02  0.1021756E+00
         21   -1    0    0  501  502  0.00000000000E+00  0.00000000000E+00  0.65487077217E+03  0.65487077217E+03  0.00000000000E+00 0. -1.
         21   -1    0    0  502  503 -0.00000000000E+00 -0.00000000000E+00 -0.34551245973E+03  0.34551245973E+03  0.00000000000E+00 0.  1.
    9000007    2    1    2  501    0 -0.24573423181E+03  0.32928689605E+02  0.81491379020E+02  0.47751331440E+03  0.39988562026E+03 0.  0.
    9000005    1    3    3    0    0  0.88162781181E+02  0.16868921357E+02  0.11004320776E+03  0.14201318270E+03  0.99999687468E+00 0.  0.
          4    1    3    3  501    0 -0.33389701300E+03  0.16059768248E+02 -0.28551828742E+02  0.33550013170E+03  0.00000000000E+00 0.  1.
   -9000007    1    1    2    0  503  0.24573423181E+03 -0.32928689605E+02  0.22786693342E+03  0.52286991751E+03  0.40000000000E+03 0.  1.
<mgrwt>
<rscale>  2 0.47058127E+03</rscale>
<asrwt>0</asrwt>
<pdfrwt beam="1">  1       21 0.10074935E+00 0.47060558E+03</pdfrwt>
<pdfrwt beam="2">  1       21 0.53155763E-01 0.47060558E+03</pdfrwt>
<totfact> 0.23213612E+03</totfact>
</mgrwt>
</event>
<event>
 6    1  0.9094387E-004  0.4895407E+03  0.7818608E-02  0.1016570E+00
         21   -1    0    0  501  502  0.00000000000E+00  0.00000000000E+00  0.19615345169E+04  0.19615345169E+04  0.00000000000E+00 0.  1.
         21   -1    0    0  502  503 -0.00000000000E+00 -0.00000000000E+00 -0.13006065275E+03  0.13006065275E+03  0.00000000000E+00 0.  1.
    9000007    2    1    2  501    0 -0.21449585183E+03 -0.18341642348E+03  0.11743892032E+04  0.12721988635E+04  0.39956212641E+03 0.  0.
    9000005    1    3    3    0    0  0.91632392017E+02 -0.14507852340E+03  0.30885266700E+03  0.35332031236E+03  0.99999687468E+00 0.  0.
          4    1    3    3  501    0 -0.30612824385E+03 -0.38337900088E+02  0.86553653619E+03  0.91887855114E+03  0.00000000000E+00 0.  1.
   -9000007    1    1    2    0  503  0.21449585183E+03  0.18341642348E+03  0.65708466094E+03  0.81939630613E+03  0.40000000000E+03 0. -1.
<mgrwt>
<rscale>  2 0.48945120E+03</rscale>
<asrwt>0</asrwt>
<pdfrwt beam="1">  1       21 0.30177452E+00 0.48954066E+03</pdfrwt>
<pdfrwt beam="2">  1       21 0.20009333E-01 0.48954066E+03</pdfrwt>
<totfact> 0.60197023E+02</totfact>
</mgrwt>
</event>
<event>
 6    1  0.9094387E-004  0.4924492E+03  0.7818608E-02  0.1015772E+00
         21   -1    0    0  501  502  0.00000000000E+00  0.00000000000E+00  0.71640688385E+03  0.71640688385E+03  0.00000000000E+00 0. -1.
         21   -1    0    0  502  503 -0.00000000000E+00 -0.00000000000E+00 -0.35167536775E+03  0.35167536775E+03  0.00000000000E+00 0.  1.
    9000007    2    1    2  501    0 -0.21685268517E+03  0.18824283049E+03  0.78894712696E+02  0.49872899705E+03  0.40005722904E+03 0.  0.
    9000005    1    3    3    0    0 -0.14022680927E+03  0.28374488633E+03  0.15719397486E+03  0.35339165848E+03  0.99999687468E+00 0.  0.
          4    1    3    3  501    0 -0.76625875896E+02 -0.95502055842E+02 -0.78299262162E+02  0.14533733857E+03  0.00000000000E+00 0.  1.
   -9000007    1    1    2    0  503  0.21685268517E+03 -0.18824283049E+03  0.28583680341E+03  0.56935325456E+03  0.40000000000E+03 0. -1.
<mgrwt>
<rscale>  2 0.49243760E+03</rscale>
<asrwt>0</asrwt>
<pdfrwt beam="1">  1       21 0.11021644E+00 0.49244922E+03</pdfrwt>
<pdfrwt beam="2">  1       21 0.54103903E-01 0.49244922E+03</pdfrwt>
<totfact> 0.17767198E+03</totfact>
</mgrwt>
</event>
<event>
 6    1  0.9094387E-004  0.5090729E+03  0.7818608E-02  0.1011521E+00
         21   -1    0    0  501  502  0.00000000000E+00  0.00000000000E+00  0.32574766732E+03  0.32574766732E+03  0.00000000000E+00 0.  1.
         21   -1    0    0  502  503 -0.00000000000E+00 -0.00000000000E+00 -0.16018627546E+04  0.16018627546E+04  0.00000000000E+00 0.  1.
    9000007    2    1    2  501    0  0.70443584398E+02  0.30474031171E+03  0.46190165651E+02  0.51116411581E+03  0.40165441081E+03 0.  0.
    9000005    1    3    3    0    0  0.12441970641E+03  0.35735989164E+03 -0.57733971648E+02  0.38278005039E+03  0.99999687468E+00 0.  0.
          4    1    3    3  501    0 -0.53976122016E+02 -0.52619579933E+02  0.10392413730E+03  0.12838406542E+03  0.00000000000E+00 0.  1.
   -9000007    1    1    2    0  503 -0.70443584398E+02 -0.30474031171E+03 -0.13223052529E+04  0.14164463061E+04  0.40000000000E+03 0.  1.
<mgrwt>
<rscale>  2 0.50874652E+03</rscale>
<asrwt>0</asrwt>
<pdfrwt beam="1">  1       21 0.50115027E-01 0.50907290E+03</pdfrwt>
<pdfrwt beam="2">  1       21 0.24644042E+00 0.50907290E+03</pdfrwt>
<totfact> 0.20465393E+02</totfact>
</mgrwt>
</event>
<event>
 6    1  0.9094387E-004  0.5125219E+03  0.7818608E-02  0.1010614E+00
         21   -1    0    0  501  502  0.00000000000E+00  0.00000000000E+00  0.49856371525E+03  0.49856371525E+03  0.00000000000E+00 0.  1.
         21   -1    0    0  502  503 -0.00000000000E+00 -0.00000000000E+00 -0.11792896729E+04  0.11792896729E+04  0.00000000000E+00 0. -1.
    9000007    2    1    2  501    0  0.69241013805E+02 -0.31286471511E+03  0.28415667089E+03  0.58529806469E+03  0.39893628935E+03 0.  0.
    9000005    1    3    3    0    0 -0.49117918297E+02  0.34226092060E+02  0.20037965733E+03  0.20913393398E+03  0.99999687468E+00 0.  0.
          4    1    3    3  501    0  0.11835893210E+03 -0.34709080717E+03  0.83777013556E+02  0.37616413071E+03  0.00000000000E+00 0.  1.
   -9000007    1    1    2    0  503 -0.69241013805E+02  0.31286471511E+03 -0.96488262854E+03  0.10925553235E+04  0.40000000000E+03 0. -1.
<mgrwt>
<rscale>  2 0.51231429E+03</rscale>
<asrwt>0</asrwt>
<pdfrwt beam="1">  1       21 0.76702111E-01 0.51252185E+03</pdfrwt>
<pdfrwt beam="2">  1       21 0.18142918E+00 0.51252185E+03</pdfrwt>
<totfact> 0.21227862E+02</totfact>
</mgrwt>
</event>
<event>
 6    1  0.9094387E-004  0.5662243E+03  0.7818608E-02  0.9978099E-01
         21   -1    0    0  501  502  0.00000000000E+00  0.00000000000E+00  0.27933571882E+03  0.27933571882E+03  0.00000000000E+00 0.  1.
         21   -1    0    0  502  503 -0.00000000000E+00 -0.00000000000E+00 -0.11495611703E+04  0.11495611703E+04  0.00000000000E+00 0.  1.
    9000007    2    1    2  501    0  0.39991099145E+03 -0.26098070844E+02 -0.40596085479E+03  0.69667320327E+03  0.39992427552E+03 0.  0.
    9000005    1    3    3    0    0  0.24864887148E+02 -0.56729162937E+02 -0.29917302116E+03  0.30551916000E+03  0.99999687468E+00 0.  0.
          4    1    3    3  501    0  0.37504610430E+03  0.30631092093E+02 -0.10678783362E+03  0.39115404327E+03  0.00000000000E+00 0.  1.
   -9000007    1    1    2    0  503 -0.39991099145E+03  0.26098070844E+02 -0.46426459668E+03  0.73222368584E+03  0.40000000000E+03 0.  1.
<mgrwt>
<rscale>  2 0.56621088E+03</rscale>
<asrwt>0</asrwt>
<pdfrwt beam="1">  1       21 0.42974726E-01 0.56622426E+03</pdfrwt>
<pdfrwt beam="2">  1       21 0.17685557E+00 0.56622426E+03</pdfrwt>
<totfact> 0.79514075E+02</totfact>
</mgrwt>
</event>
<event>
 6    1  0.9094387E-004  0.4073343E+03  0.7818608E-02  0.1041289E+00
         21   -1    0    0  501  502  0.00000000000E+00  0.00000000000E+00  0.15091768847E+03  0.15091768847E+03  0.00000000000E+00 0. -1.
         21   -1    0    0  502  503 -0.00000000000E+00 -0.00000000000E+00 -0.11870719373E+04  0.11870719373E+04  0.00000000000E+00 0. -1.
    9000007    2    1    2  501    0  0.43104766231E+02  0.63743297102E+02 -0.33549949178E+03  0.52753400245E+03  0.39976366263E+03 0.  0.
    9000005    1    3    3    0    0  0.11667057982E+03  0.21068278568E+03 -0.22440812678E+03  0.32917968913E+03  0.99999687468E+00 0.  0.
          4    1    3    3  501    0 -0.73565813593E+02 -0.14693948858E+03 -0.11109136500E+03  0.19835431332E+03  0.00000000000E+00 0.  1.
   -9000007    1    1    2    0  503 -0.43104766231E+02 -0.63743297102E+02 -0.70065475708E+03  0.81045562335E+03  0.40000000000E+03 0. -1.
<mgrwt>
<rscale>  2 0.40727626E+03</rscale>
<asrwt>0</asrwt>
<pdfrwt beam="1">  1       21 0.23218107E-01 0.40733430E+03</pdfrwt>
<pdfrwt beam="2">  1       21 0.18262644E+00 0.40733430E+03</pdfrwt>
<totfact> 0.26471321E+03</totfact>
</mgrwt>
</event>
<event>
 6    1  0.9094387E-004  0.4773586E+03  0.7818608E-02  0.1019882E+00
         21   -1    0    0  501  502  0.00000000000E+00  0.00000000000E+00  0.25627959730E+04  0.25627959730E+04  0.00000000000E+00 0. -1.
         21   -1    0    0  502  503 -0.00000000000E+00 -0.00000000000E+00 -0.94821491306E+02  0.94821491306E+02  0.00000000000E+00 0. -1.
    9000007    2    1    2  501    0  0.25331912424E+03  0.60832758313E+02  0.90066792118E+03  0.10192276884E+04  0.39968884567E+03 0.  0.
    9000005    1    3    3    0    0  0.32658190508E+03  0.12559539056E+03  0.82319746650E+03  0.89447471272E+03  0.99999687468E+00 0.  0.
          4    1    3    3  501    0 -0.73262780833E+02 -0.64762632245E+02  0.77470454685E+02  0.12475297568E+03  0.00000000000E+00 0.  1.
   -9000007    1    1    2    0  503 -0.25331912424E+03 -0.60832758313E+02  0.15673065605E+04  0.16383897759E+04  0.40000000000E+03 0. -1.
<mgrwt>
<rscale>  2 0.47729338E+03</rscale>
<asrwt>0</asrwt>
<pdfrwt beam="1">  1       21 0.39427625E+00 0.47735857E+03</pdfrwt>
<pdfrwt beam="2">  1       21 0.14587924E-01 0.47735857E+03</pdfrwt>
<totfact> 0.29503424E+02</totfact>
</mgrwt>
</event>
<event>
 6    1  0.9094387E-004  0.4366191E+03  0.7818608E-02  0.1031955E+00
         21   -1    0    0  501  502  0.00000000000E+00  0.00000000000E+00  0.27132601024E+03  0.27132601024E+03  0.00000000000E+00 0. -1.
         21   -1    0    0  502  503 -0.00000000000E+00 -0.00000000000E+00 -0.71612569560E+03  0.71612569560E+03  0.00000000000E+00 0. -1.
    9000007    2    1    2  501    0 -0.12365341480E+03  0.11613528615E+03 -0.14698363878E+03  0.46069562446E+03  0.40231666215E+03 0.  0.
    9000005    1    3    3    0    0 -0.16581424773E+03  0.24750593119E+03 -0.11277401653E+03  0.31854753103E+03  0.99999687468E+00 0.  0.
          4    1    3    3  501    0  0.42160832934E+02 -0.13137064504E+03 -0.34209622255E+02  0.14214809343E+03  0.00000000000E+00 0.  1.
   -9000007    1    1    2    0  503  0.12365341480E+03 -0.11613528615E+03 -0.29781604658E+03  0.52675608139E+03  0.40000000000E+03 0. -1.
<mgrwt>
<rscale>  2 0.43608472E+03</rscale>
<asrwt>0</asrwt>
<pdfrwt beam="1">  1       21 0.41742463E-01 0.43661913E+03</pdfrwt>
<pdfrwt beam="2">  1       21 0.11017318E+00 0.43661913E+03</pdfrwt>
<totfact> 0.31396491E+03</totfact>
</mgrwt>
</event>
<event>
 6    1  0.9094387E-004  0.4311802E+03  0.7818608E-02  0.1033559E+00
         21   -1    0    0  501  502  0.00000000000E+00  0.00000000000E+00  0.96606669853E+03  0.96606669853E+03  0.00000000000E+00 0. -1.
         21   -1    0    0  502  503 -0.00000000000E+00 -0.00000000000E+00 -0.20229328112E+03  0.20229328112E+03  0.00000000000E+00 0.  1.
    9000007    2    1    2  501    0  0.12792688417E+03  0.93687701795E+02  0.25078499025E+03  0.49880804025E+03  0.40096592938E+03 0.  0.
    9000005    1    3    3    0    0  0.17405246901E+03 -0.90838373948E+02  0.23749475249E+03  0.30814060038E+03  0.99999687468E+00 0.  0.
          4    1    3    3  501    0 -0.46125584831E+02  0.18452607574E+03  0.13290237755E+02  0.19066743987E+03  0.00000000000E+00 0.  1.
   -9000007    1    1    2    0  503 -0.12792688417E+03 -0.93687701795E+02  0.51298842715E+03  0.66955193940E+03  0.40000000000E+03 0.  1.
<mgrwt>
<rscale>  2 0.43095548E+03</rscale>
<asrwt>0</asrwt>
<pdfrwt beam="1">  1       21 0.14862564E+00 0.43118018E+03</pdfrwt>
<pdfrwt beam="2">  1       21 0.31122044E-01 0.43118018E+03</pdfrwt>
<totfact> 0.26338417E+03</totfact>
</mgrwt>
</event>
<event>
 6    1  0.9094387E-004  0.4838741E+03  0.7818608E-02  0.1018078E+00
         21   -1    0    0  501  502  0.00000000000E+00  0.00000000000E+00  0.64575711556E+03  0.64575711556E+03  0.00000000000E+00 0.  1.
         21   -1    0    0  502  503 -0.00000000000E+00 -0.00000000000E+00 -0.37097099308E+03  0.37097099308E+03  0.00000000000E+00 0.  1.
    9000007    2    1    2  501    0 -0.22180368424E+03  0.15783437894E+03  0.60818967562E+02  0.48768131590E+03  0.40003194066E+03 0.  0.
    9000005    1    3    3    0    0 -0.19359824359E+03 -0.34897687208E+02 -0.11278663076E+03  0.22675968021E+03  0.99999687468E+00 0.  0.
          4    1    3    3  501    0 -0.28205440651E+02  0.19273206615E+03  0.17360559833E+03  0.26092163570E+03  0.00000000000E+00 0.  1.
   -9000007    1    1    2    0  503  0.22180368424E+03 -0.15783437894E+03  0.21396715492E+03  0.52904679274E+03  0.40000000000E+03 0.  1.
<mgrwt>
<rscale>  2 0.48386747E+03</rscale>
<asrwt>0</asrwt>
<pdfrwt beam="1">  1       21 0.99347249E-01 0.48387407E+03</pdfrwt>
<pdfrwt beam="2">  1       21 0.57072460E-01 0.48387407E+03</pdfrwt>
<totfact> 0.20500869E+03</totfact>
</mgrwt>
</event>
<event>
 6    1  0.9094387E-004  0.4088918E+03  0.7818608E-02  0.1040756E+00
         21   -1    0    0  501  502  0.00000000000E+00  0.00000000000E+00  0.15241039116E+03  0.15241039116E+03  0.00000000000E+00 0.  1.
         21   -1    0    0  502  503 -0.00000000000E+00 -0.00000000000E+00 -0.13881857861E+04  0.13881857861E+04  0.00000000000E+00 0. -1.
    9000007    2    1    2  501    0 -0.66803619793E+02 -0.52247433556E+02 -0.26475650285E+03  0.48699748386E+03  0.39984750288E+03 0.  0.
    9000005    1    3    3    0    0 -0.19757531858E+03  0.54394588862E+01 -0.28056507215E+03  0.34319579533E+03  0.99999687468E+00 0.  0.
          4    1    3    3  501    0  0.13077169878E+03 -0.57686892442E+02  0.15808569304E+02  0.14380168854E+03  0.00000000000E+00 0.  1.
   -9000007    1    1    2    0  503  0.66803619793E+02  0.52247433556E+02 -0.97101889208E+03  0.10535986934E+04  0.40000000000E+03 0. -1.
<mgrwt>
<rscale>  2 0.40885452E+03</rscale>
<asrwt>0</asrwt>
<pdfrwt beam="1">  1       21 0.23447752E-01 0.40889182E+03</pdfrwt>
<pdfrwt beam="2">  1       21 0.21356705E+00 0.40889182E+03</pdfrwt>
<totfact> 0.16122094E+03</totfact>
</mgrwt>
</event>
<event>
 6    1  0.9094387E-004  0.5651390E+03  0.7818608E-02  0.9980867E-01
         21   -1    0    0  501  502  0.00000000000E+00  0.00000000000E+00  0.15424910199E+04  0.15424910199E+04  0.00000000000E+00 0.  1.
         21   -1    0    0  502  503 -0.00000000000E+00 -0.00000000000E+00 -0.30180267599E+03  0.30180267599E+03  0.00000000000E+00 0.  1.
    9000007    2    1    2  501    0 -0.34759831384E+03  0.19636065084E+03  0.11374374300E+04  0.12698001413E+04  0.39905688668E+03 0.  0.
    9000005    1    3    3    0    0  0.76272660435E+02 -0.61983288769E+01  0.29984560209E+03  0.30945811202E+03  0.99999687468E+00 0.  0.
          4    1    3    3  501    0 -0.42387097427E+03  0.20255897972E+03  0.83759182790E+03  0.96034202931E+03  0.00000000000E+00 0.  1.
   -9000007    1    1    2    0  503  0.34759831384E+03 -0.19636065084E+03  0.10325091391E+03  0.57449355454E+03  0.40000000000E+03 0.  1.
<mgrwt>
<rscale>  2 0.56497215E+03</rscale>
<asrwt>0</asrwt>
<pdfrwt beam="1">  1       21 0.23730631E+00 0.56513900E+03</pdfrwt>
<pdfrwt beam="2">  1       21 0.46431182E-01 0.56513900E+03</pdfrwt>
<totfact> 0.26747470E+02</totfact>
</mgrwt>
</event>
<event>
 6    1  0.9094387E-004  0.5350069E+03  0.7818608E-02  0.1005035E+00
         21   -1    0    0  501  502  0.00000000000E+00  0.00000000000E+00  0.50454670278E+03  0.50454670278E+03  0.00000000000E+00 0. -1.
         21   -1    0    0  502  503 -0.00000000000E+00 -0.00000000000E+00 -0.56800117953E+03  0.56800117953E+03  0.00000000000E+00 0.  1.
    9000007    2    1    2  501    0 -0.26453359683E+03  0.23717990457E+03 -0.10640045134E+02  0.53494050219E+03  0.39976968286E+03 0.  0.
    9000005    1    3    3    0    0 -0.34517630891E+03  0.23305404850E+03 -0.85110182560E+02  0.42509483286E+03  0.99999687468E+00 0.  0.
          4    1    3    3  501    0  0.80642712083E+02  0.41258560633E+01  0.74470137426E+02  0.10984566932E+03  0.00000000000E+00 0.  1.
   -9000007    1    1    2    0  503  0.26453359683E+03 -0.23717990457E+03 -0.52814431614E+02  0.53760738013E+03  0.40000000000E+03 0. -1.
<mgrwt>
<rscale>  2 0.53496380E+03</rscale>
<asrwt>0</asrwt>
<pdfrwt beam="1">  1       21 0.77622570E-01 0.53500685E+03</pdfrwt>
<pdfrwt beam="2">  1       21 0.87384797E-01 0.53500685E+03</pdfrwt>
<totfact> 0.13762182E+03</totfact>
</mgrwt>
</event>
<event>
 6    1  0.9094387E-004  0.4104573E+03  0.7818608E-02  0.1040220E+00
         21   -1    0    0  501  502  0.00000000000E+00  0.00000000000E+00  0.60206720073E+03  0.60206720073E+03  0.00000000000E+00 0. -1.
         21   -1    0    0  502  503 -0.00000000000E+00 -0.00000000000E+00 -0.55467606565E+03  0.55467606565E+03  0.00000000000E+00 0. -1.
    9000007    2    1    2  501    0 -0.33625026749E+02  0.85700579944E+02  0.43084132195E+03  0.59504114102E+03  0.39996810245E+03 0.  0.
    9000005    1    3    3    0    0  0.13921427057E+00 -0.42926679472E+02  0.45741600393E+03  0.45942694722E+03  0.99999687468E+00 0.  0.
          4    1    3    3  501    0 -0.33764241020E+02  0.12862725942E+03 -0.26574681979E+02  0.13561419380E+03  0.00000000000E+00 0.  1.
   -9000007    1    1    2    0  503  0.33625026749E+02 -0.85700579944E+02 -0.38345018687E+03  0.56170212537E+03  0.40000000000E+03 0. -1.
<mgrwt>
<rscale>  2 0.41044957E+03</rscale>
<asrwt>0</asrwt>
<pdfrwt beam="1">  1       21 0.92625723E-01 0.41045734E+03</pdfrwt>
<pdfrwt beam="2">  1       21 0.85334780E-01 0.41045734E+03</pdfrwt>
<totfact> 0.10092887E+03</totfact>
</mgrwt>
</event>
<event>
 6    1  0.9094387E-004  0.4264286E+03  0.7818608E-02  0.1035160E+00
         21   -1    0    0  501  502  0.00000000000E+00  0.00000000000E+00  0.58328908300E+03  0.58328908300E+03  0.00000000000E+00 0.  1.
         21   -1    0    0  502  503 -0.00000000000E+00 -0.00000000000E+00 -0.32073749336E+03  0.32073749336E+03  0.00000000000E+00 0.  1.
    9000007    2    1    2  501    0 -0.40342161089E+02  0.13582759151E+03  0.21337108599E+03  0.47683183562E+03  0.40219989377E+03 0.  0.
    9000005    1    3    3    0    0 -0.16152514509E+03  0.19783349455E+03  0.22478112209E+03  0.34022935926E+03  0.99999687468E+00 0.  0.
          4    1    3    3  501    0  0.12118298400E+03 -0.62005903043E+02 -0.11410036101E+02  0.13660247636E+03  0.00000000000E+00 0.  1.
   -9000007    1    1    2    0  503  0.40342161089E+02 -0.13582759151E+03  0.49180503658E+02  0.42719474074E+03  0.40000000000E+03 0. -1.
<mgrwt>
<rscale>  2 0.42590912E+03</rscale>
<asrwt>0</asrwt>
<pdfrwt beam="1">  1       21 0.89736782E-01 0.42642863E+03</pdfrwt>
<pdfrwt beam="2">  1       21 0.49344230E-01 0.42642863E+03</pdfrwt>
<totfact> 0.36491070E+03</totfact>
</mgrwt>
</event>
<event>
 6    1  0.9094387E-004  0.4115792E+03  0.7818608E-02  0.1039843E+00
         21   -1    0    0  501  502  0.00000000000E+00  0.00000000000E+00  0.54135057192E+03  0.54135057192E+03  0.00000000000E+00 0.  1.
         21   -1    0    0  502  503 -0.00000000000E+00 -0.00000000000E+00 -0.35142798380E+03  0.35142798380E+03  0.00000000000E+00 0.  1.
    9000007    2    1    2  501    0  0.96254150747E+02  0.11196464774E+02  0.24274686038E+03  0.47783202169E+03  0.40000897537E+03 0.  0.
    9000005    1    3    3    0    0 -0.63108354001E+02  0.15964528029E+03  0.18528242071E+03  0.25258633234E+03  0.99999687468E+00 0.  0.
          4    1    3    3  501    0  0.15936250475E+03 -0.14844881552E+03  0.57464439663E+02  0.22524568936E+03  0.00000000000E+00 0.  1.
   -9000007    1    1    2    0  503 -0.96254150747E+02 -0.11196464774E+02 -0.52824272263E+02  0.41494653403E+03  0.40000000000E+03 0.  1.
<mgrwt>
<rscale>  2 0.41157698E+03</rscale>
<asrwt>0</asrwt>
<pdfrwt beam="1">  1       21 0.83284704E-01 0.41157916E+03</pdfrwt>
<pdfrwt beam="2">  1       21 0.54065843E-01 0.41157916E+03</pdfrwt>
<totfact> 0.35960639E+03</totfact>
</mgrwt>
</event>
<event>
 6    1  0.9094387E-004  0.5346853E+03  0.7818608E-02  0.1005135E+00
         21   -1    0    0  501  502  0.00000000000E+00  0.00000000000E+00  0.48513485792E+03  0.48513485792E+03  0.00000000000E+00 0. -1.
         21   -1    0    0  502  503 -0.00000000000E+00 -0.00000000000E+00 -0.74587164983E+03  0.74587164983E+03  0.00000000000E+00 0. -1.
    9000007    2    1    2  501    0 -0.92665131820E+01 -0.35468642881E+03  0.15223299499E+03  0.55540871621E+03  0.39926886458E+03 0.  0.
    9000005    1    3    3    0    0 -0.28568869780E+02 -0.66925573974E+02  0.24251628556E+03  0.25320023998E+03  0.99999687468E+00 0.  0.
          4    1    3    3  501    0  0.19302356598E+02 -0.28776085483E+03 -0.90283290566E+02  0.30220847622E+03  0.00000000000E+00 0.  1.
   -9000007    1    1    2    0  503  0.92665131820E+01  0.35468642881E+03 -0.41296978690E+03  0.67559779154E+03  0.40000000000E+03 0. -1.
<mgrwt>
<rscale>  2 0.53454852E+03</rscale>
<asrwt>0</asrwt>
<pdfrwt beam="1">  1       21 0.74636133E-01 0.53468526E+03</pdfrwt>
<pdfrwt beam="2">  1       21 0.11474948E+00 0.53468526E+03</pdfrwt>
<totfact> 0.77468522E+02</totfact>
</mgrwt>
</event>
<event>
 6    1  0.9094387E-004  0.8051544E+03  0.7818608E-02  0.9552670E-01
         21   -1    0    0  501  502  0.00000000000E+00  0.00000000000E+00  0.12544918939E+04  0.12544918939E+04  0.00000000000E+00 0. -1.
         21   -1    0    0  502  503 -0.00000000000E+00 -0.00000000000E+00 -0.51667296719E+03  0.51667296719E+03  0.00000000000E+00 0.  1.
    9000007    2    1    2  501    0  0.24025436422E+03 -0.65587737095E+03  0.35933611401E+03  0.88170068264E+03  0.40047018077E+03 0.  0.
    9000005    1    3    3    0    0  0.18249549526E+03 -0.62286544395E+03  0.43470095576E+03  0.78117340456E+03  0.99999687468E+00 0.  0.
          4    1    3    3  501    0  0.57758868964E+02 -0.33011926997E+02 -0.75364841745E+02  0.10052727809E+03  0.00000000000E+00 0.  1.
   -9000007    1    1    2    0  503 -0.24025436422E+03  0.65587737095E+03  0.37848281271E+03  0.88946417846E+03  0.40000000000E+03 0.  1.
<mgrwt>
<rscale>  2 0.80509598E+03</rscale>
<asrwt>0</asrwt>
<pdfrwt beam="1">  1       21 0.19299875E+00 0.80515443E+03</pdfrwt>
<pdfrwt beam="2">  1       21 0.79488149E-01 0.80515443E+03</pdfrwt>
<totfact> 0.14604949E+02</totfact>
</mgrwt>
</event>
<event>
 6    1  0.9094387E-004  0.4326376E+03  0.7818608E-02  0.1033036E+00
         21   -1    0    0  501  502  0.00000000000E+00  0.00000000000E+00  0.17777716341E+04  0.17777716341E+04  0.00000000000E+00 0. -1.
         21   -1    0    0  502  503 -0.00000000000E+00 -0.00000000000E+00 -0.12086065152E+03  0.12086065152E+03  0.00000000000E+00 0. -1.
    9000007    2    1    2  501    0 -0.13921021029E+03  0.87944296421E+02  0.11694819481E+04  0.12469416032E+04  0.40007705872E+03 0.  0.
    9000005    1    3    3    0    0 -0.24182772140E+03  0.15415612458E+03  0.98340001094E+03  0.10243638705E+04  0.99999687468E+00 0.  0.
          4    1    3    3  501    0  0.10261751110E+03 -0.66211828164E+02  0.18608193720E+03  0.22257773278E+03  0.00000000000E+00 0.  1.
   -9000007    1    1    2    0  503  0.13921021029E+03 -0.87944296421E+02  0.48742903447E+03  0.65169068243E+03  0.40000000000E+03 0. -1.
<mgrwt>
<rscale>  2 0.43261983E+03</rscale>
<asrwt>0</asrwt>
<pdfrwt beam="1">  1       21 0.27350331E+00 0.43263765E+03</pdfrwt>
<pdfrwt beam="2">  1       21 0.18593948E-01 0.43263765E+03</pdfrwt>
<totfact> 0.10555837E+03</totfact>
</mgrwt>
</event>
<event>
 6    1  0.9094387E-004  0.4216585E+03  0.7818608E-02  0.1036579E+00
         21   -1    0    0  501  502  0.00000000000E+00  0.00000000000E+00  0.92217112714E+02  0.92217112714E+02  0.00000000000E+00 0. -1.
         21   -1    0    0  502  503 -0.00000000000E+00 -0.00000000000E+00 -0.19646793952E+04  0.19646793952E+04  0.00000000000E+00 0.  1.
    9000007    2    1    2  501    0 -0.88722625893E+02  0.99620414768E+02 -0.78959217886E+03  0.89482783838E+03  0.39933084033E+03 0.  0.
    9000005    1    3    3    0    0 -0.23585513855E+03  0.52039461288E+01 -0.54794640385E+03  0.59657437836E+03  0.99999687468E+00 0.  0.
          4    1    3    3  501    0  0.14713251266E+03  0.94416468640E+02 -0.24164577501E+03  0.29825346002E+03  0.00000000000E+00 0.  1.
   -9000007    1    1    2    0  503  0.88722625893E+02 -0.99620414768E+02 -0.10828701036E+04  0.11620686695E+04  0.40000000000E+03 0.  1.
<mgrwt>
<rscale>  2 0.42149977E+03</rscale>
<asrwt>0</asrwt>
<pdfrwt beam="1">  1       21 0.14187249E-01 0.42165855E+03</pdfrwt>
<pdfrwt beam="2">  1       21 0.30225834E+00 0.42165855E+03</pdfrwt>
<totfact> 0.11818480E+03</totfact>
</mgrwt>
</event>
<event>
 6    1  0.9094387E-004  0.4299408E+03  0.7818608E-02  0.1033928E+00
         21   -1    0    0  501  502  0.00000000000E+00  0.00000000000E+00  0.19054036916E+03  0.19054036916E+03  0.00000000000E+00 0. -1.
         21   -1    0    0  502  503 -0.00000000000E+00 -0.00000000000E+00 -0.96961621368E+03  0.96961621368E+03  0.00000000000E+00 0. -1.
    9000007    2    1    2  501    0  0.10915482881E+03  0.11372929622E+03 -0.40696497625E+03  0.59154808154E+03  0.39932381773E+03 0.  0.
    9000005    1    3    3    0    0  0.22531489975E+03  0.16173111350E+03 -0.17566010437E+03  0.32830051688E+03  0.99999687468E+00 0.  0.
          4    1    3    3  501    0 -0.11616007094E+03 -0.48001817278E+02 -0.23130487188E+03  0.26324756465E+03  0.00000000000E+00 0.  1.
   -9000007    1    1    2    0  503 -0.10915482881E+03 -0.11372929622E+03 -0.37211086826E+03  0.56860850130E+03  0.40000000000E+03 0. -1.
<mgrwt>
<rscale>  2 0.42978350E+03</rscale>
<asrwt>0</asrwt>
<pdfrwt beam="1">  1       21 0.29313903E-01 0.42994084E+03</pdfrwt>
<pdfrwt beam="2">  1       21 0.14917173E+00 0.42994084E+03</pdfrwt>
<totfact> 0.29385780E+03</totfact>
</mgrwt>
</event>
<event>
 6    1  0.9094387E-004  0.4531322E+03  0.7818608E-02  0.1026796E+00
         21   -1    0    0  501  502  0.00000000000E+00  0.00000000000E+00  0.62420770085E+03  0.62420770085E+03  0.00000000000E+00 0. -1.
         21   -1    0    0  502  503 -0.00000000000E+00 -0.00000000000E+00 -0.82231644634E+03  0.82231644634E+03  0.00000000000E+00 0. -1.
    9000007    2    1    2  501    0 -0.13273529520E+03 -0.16646373857E+03  0.46119384337E+03  0.64651868564E+03  0.39994726510E+03 0.  0.
    9000005    1    3    3    0    0 -0.73539382840E+02  0.41433303355E+02  0.41754863223E+03  0.42599603252E+03  0.99999687468E+00 0.  0.
          4    1    3    3  501    0 -0.59195912363E+02 -0.20789704192E+03  0.43645211144E+02  0.22052265312E+03  0.00000000000E+00 0.  1.
   -9000007    1    1    2    0  503  0.13273529520E+03  0.16646373857E+03 -0.65930258886E+03  0.80000546156E+03  0.40000000000E+03 0. -1.
<mgrwt>
<rscale>  2 0.45312061E+03</rscale>
<asrwt>0</asrwt>
<pdfrwt beam="1">  1       21 0.96031954E-01 0.45313225E+03</pdfrwt>
<pdfrwt beam="2">  1       21 0.12651022E+00 0.45313225E+03</pdfrwt>
<totfact> 0.34598340E+02</totfact>
</mgrwt>
</event>
<event>
 6    1  0.9094387E-004  0.5163626E+03  0.7818608E-02  0.1009662E+00
         21   -1    0    0  501  502  0.00000000000E+00  0.00000000000E+00  0.21456918796E+04  0.21456918796E+04  0.00000000000E+00 0. -1.
         21   -1    0    0  502  503 -0.00000000000E+00 -0.00000000000E+00 -0.12568968996E+03  0.12568968996E+03  0.00000000000E+00 0.  1.
    9000007    2    1    2  501    0  0.28461700976E+03 -0.16007340462E+03  0.11405199471E+04  0.12515191514E+04  0.39860268357E+03 0.  0.
    9000005    1    3    3    0    0  0.16200604005E+02 -0.13527367622E+03  0.82657006362E+03  0.83772340131E+03  0.99999687468E+00 0.  0.
          4    1    3    3  501    0  0.26841640576E+03 -0.24799728407E+02  0.31394988349E+03  0.41379575004E+03  0.00000000000E+00 0.  1.
   -9000007    1    1    2    0  503 -0.28461700976E+03  0.16007340462E+03  0.87948224249E+03  0.10198624182E+04  0.40000000000E+03 0.  1.
<mgrwt>
<rscale>  2 0.51609197E+03</rscale>
<asrwt>0</asrwt>
<pdfrwt beam="1">  1       21 0.33010642E+00 0.51636260E+03</pdfrwt>
<pdfrwt beam="2">  1       21 0.19336877E-01 0.51636260E+03</pdfrwt>
<totfact> 0.42678378E+02</totfact>
</mgrwt>
</event>
<event>
 6    1  0.9094387E-004  0.5231892E+03  0.7818608E-02  0.1007909E+00
         21   -1    0    0  501  502  0.00000000000E+00  0.00000000000E+00  0.63689811067E+03  0.63689811067E+03  0.00000000000E+00 0. -1.
         21   -1    0    0  502  503 -0.00000000000E+00 -0.00000000000E+00 -0.54872175973E+03  0.54872175973E+03  0.00000000000E+00 0. -1.
    9000007    2    1    2  501    0  0.23022827832E+03 -0.24641804450E+03  0.32025838214E+03  0.61326597463E+03  0.39975343840E+03 0.  0.
    9000005    1    3    3    0    0  0.16327012519E+03 -0.11211435370E+03  0.39777653850E+03  0.44435789253E+03  0.99999687468E+00 0.  0.
          4    1    3    3  501    0  0.66958153128E+02 -0.13430369080E+03 -0.77518156353E+02  0.16890808209E+03  0.00000000000E+00 0.  1.
   -9000007    1    1    2    0  503 -0.23022827832E+03  0.24641804450E+03 -0.23208203120E+03  0.57235389577E+03  0.40000000000E+03 0. -1.
<mgrwt>
<rscale>  2 0.52314205E+03</rscale>
<asrwt>0</asrwt>
<pdfrwt beam="1">  1       21 0.97984325E-01 0.52318917E+03</pdfrwt>
<pdfrwt beam="2">  1       21 0.84418732E-01 0.52318917E+03</pdfrwt>
<totfact> 0.86438419E+02</totfact>
</mgrwt>
</event>
<event>
 6    1  0.9094387E-004  0.4181213E+03  0.7818608E-02  0.1037772E+00
         21   -1    0    0  501  502  0.00000000000E+00  0.00000000000E+00  0.12673927600E+04  0.12673927600E+04  0.00000000000E+00 0.  1.
         21   -1    0    0  502  503 -0.00000000000E+00 -0.00000000000E+00 -0.25212827230E+03  0.25212827230E+03  0.00000000000E+00 0.  1.
    9000007    2    1    2  501    0 -0.10012512244E+03  0.69284585363E+02  0.10193902339E+04  0.11013794107E+04  0.39881670410E+03 0.  0.
    9000005    1    3    3    0    0  0.69253788496E+02  0.17065943615E+03  0.71688050330E+03  0.74016172988E+03  0.99999687468E+00 0.  0.
          4    1    3    3  501    0 -0.16937891094E+03 -0.10137485078E+03  0.30250973056E+03  0.36121768080E+03  0.00000000000E+00 0.  1.
   -9000007    1    1    2    0  503  0.10012512244E+03 -0.69284585363E+02 -0.41257462036E+01  0.41814162158E+03  0.40000000000E+03 0.  1.
<mgrwt>
<rscale>  2 0.41783801E+03</rscale>
<asrwt>0</asrwt>
<pdfrwt beam="1">  1       21 0.19498350E+00 0.41812127E+03</pdfrwt>
<pdfrwt beam="2">  1       21 0.38788966E-01 0.41812127E+03</pdfrwt>
<totfact> 0.78292760E+02</totfact>
</mgrwt>
</event>
<event>
 6    1  0.9094387E-004  0.4508843E+03  0.7818608E-02  0.1027494E+00
         21   -1    0    0  501  502  0.00000000000E+00  0.00000000000E+00  0.14154946679E+04  0.14154946679E+04  0.00000000000E+00 0.  1.
         21   -1    0    0  502  503 -0.00000000000E+00 -0.00000000000E+00 -0.16210443150E+03  0.16210443150E+03  0.00000000000E+00 0.  1.
    9000007    2    1    2  501    0 -0.10561204246E+03  0.17928391599E+03  0.89382470702E+03  0.10008981405E+04  0.39947196998E+03 0.  0.
    9000005    1    3    3    0    0 -0.76962292916E+02 -0.11442080424E+02 -0.84210441293E+01  0.78268957533E+02  0.99999687468E+00 0.  0.
          4    1    3    3  501    0 -0.28649749549E+02  0.19072599642E+03  0.90224575115E+03  0.92262918300E+03  0.00000000000E+00 0.  1.
   -9000007    1    1    2    0  503  0.10561204246E+03 -0.17928391599E+03  0.35956552937E+03  0.57670095887E+03  0.40000000000E+03 0.  1.
<mgrwt>
<rscale>  2 0.45076713E+03</rscale>
<asrwt>0</asrwt>
<pdfrwt beam="1">  1       21 0.21776840E+00 0.45088427E+03</pdfrwt>
<pdfrwt beam="2">  1       21 0.24939144E-01 0.45088427E+03</pdfrwt>
<totfact> 0.13178723E+03</totfact>
</mgrwt>
</event>
<event>
 6    1  0.9094387E-004  0.4048370E+03  0.7818608E-02  0.1042124E+00
         21   -1    0    0  501  502  0.00000000000E+00  0.00000000000E+00  0.97342933193E+03  0.97342933193E+03  0.00000000000E+00 0.  1.
         21   -1    0    0  502  503 -0.00000000000E+00 -0.00000000000E+00 -0.29630503187E+03  0.29630503187E+03  0.00000000000E+00 0.  1.
    9000007    2    1    2  501    0 -0.45755925399E+02 -0.41649820267E+02  0.75580606078E+03  0.85740060128E+03  0.40008083850E+03 0.  0.
    9000005    1    3    3    0    0  0.10037190311E+03 -0.51813887669E+02  0.68581761166E+03  0.69505826688E+03  0.99999687468E+00 0.  0.
          4    1    3    3  501    0 -0.14612782851E+03  0.10164067402E+02  0.69988449114E+02  0.16234233441E+03  0.00000000000E+00 0.  1.
   -9000007    1    1    2    0  503  0.45755925399E+02  0.41649820267E+02 -0.78681760724E+02  0.41233376251E+03  0.40000000000E+03 0.  1.
<mgrwt>
<rscale>  2 0.40481702E+03</rscale>
<asrwt>0</asrwt>
<pdfrwt beam="1">  1       21 0.14975836E+00 0.40483699E+03</pdfrwt>
<pdfrwt beam="2">  1       21 0.45585390E-01 0.40483699E+03</pdfrwt>
<totfact> 0.11974690E+03</totfact>
</mgrwt>
</event>
<event>
 6    1  0.9094387E-004  0.4274440E+03  0.7818608E-02  0.1034686E+00
         21   -1    0    0  501  502  0.00000000000E+00  0.00000000000E+00  0.30506416369E+03  0.30506416369E+03  0.00000000000E+00 0. -1.
         21   -1    0    0  502  503 -0.00000000000E+00 -0.00000000000E+00 -0.94970145187E+03  0.94970145187E+03  0.00000000000E+00 0. -1.
    9000007    2    1    2  501    0 -0.14987210007E+03 -0.90154656275E+01  0.59075546066E+02  0.43150704253E+03  0.40020679981E+03 0.  0.
    9000005    1    3    3    0    0  0.25175186992E+01 -0.82878725305E+02  0.19658725281E+03  0.21336065469E+03  0.99999687468E+00 0.  0.
          4    1    3    3  501    0 -0.15238961877E+03  0.73863259677E+02 -0.13751170674E+03  0.21814638784E+03  0.00000000000E+00 0.  1.
   -9000007    1    1    2    0  503  0.14987210007E+03  0.90154656275E+01 -0.70371283424E+03  0.82325857304E+03  0.40000000000E+03 0. -1.
<mgrwt>
<rscale>  2 0.42739563E+03</rscale>
<asrwt>0</asrwt>
<pdfrwt beam="1">  1       21 0.46932949E-01 0.42744404E+03</pdfrwt>
<pdfrwt beam="2">  1       21 0.14610791E+00 0.42744404E+03</pdfrwt>
<totfact> 0.11916303E+03</totfact>
</mgrwt>
</event>
<event>
 6    1  0.9094387E-004  0.5267225E+03  0.7818608E-02  0.1007039E+00
         21   -1    0    0  501  502  0.00000000000E+00  0.00000000000E+00  0.80144171876E+03  0.80144171876E+03  0.00000000000E+00 0.  1.
         21   -1    0    0  502  503 -0.00000000000E+00 -0.00000000000E+00 -0.36501080239E+03  0.36501080239E+03  0.00000000000E+00 0.  1.
    9000007    2    1    2  501    0 -0.21137765378E+03 -0.26973327447E+03  0.85335928263E+02  0.53344048134E+03  0.39979991822E+03 0.  0.
    9000005    1    3    3    0    0 -0.14562912428E+03 -0.22709483375E+03 -0.13349509774E+03  0.30100140609E+03  0.99999687468E+00 0.  0.
          4    1    3    3  501    0 -0.65748529492E+02 -0.42638440721E+02  0.21883102601E+03  0.23243907525E+03  0.00000000000E+00 0.  1.
   -9000007    1    1    2    0  503  0.21137765378E+03  0.26973327447E+03  0.35109498811E+03  0.63301203981E+03  0.40000000000E+03 0.  1.
<mgrwt>
<rscale>  2 0.52668448E+03</rscale>
<asrwt>0</asrwt>
<pdfrwt beam="1">  1       21 0.12329873E+00 0.52672246E+03</pdfrwt>
<pdfrwt beam="2">  1       21 0.56155508E-01 0.52672246E+03</pdfrwt>
<totfact> 0.12201903E+03</totfact>
</mgrwt>
</event>
<event>
 6    1  0.9094387E-004  0.4285497E+03  0.7818608E-02  0.1034343E+00
         21   -1    0    0  501  502  0.00000000000E+00  0.00000000000E+00  0.83792125279E+03  0.83792125279E+03  0.00000000000E+00 0.  1.
         21   -1    0    0  502  503 -0.00000000000E+00 -0.00000000000E+00 -0.10273865412E+04  0.10273865412E+04  0.00000000000E+00 0.  1.
    9000007    2    1    2  501    0 -0.25851607768E+02  0.15074704903E+03  0.73254863022E+03  0.84869447293E+03  0.40032715913E+03 0.  0.
    9000005    1    3    3    0    0 -0.13499656528E+02  0.10809392985E+03 -0.57231298370E+01  0.10908846229E+03  0.99999687468E+00 0.  0.
          4    1    3    3  501    0 -0.12351951241E+02  0.42653119179E+02  0.73827176005E+03  0.73960601064E+03  0.00000000000E+00 0.  1.
   -9000007    1    1    2    0  503  0.25851607768E+02 -0.15074704903E+03 -0.92201391861E+03  0.10166133210E+04  0.40000000000E+03 0.  1.
<mgrwt>
<rscale>  2 0.42847324E+03</rscale>
<asrwt>0</asrwt>
<pdfrwt beam="1">  1       21 0.12891096E+00 0.42854966E+03</pdfrwt>
<pdfrwt beam="2">  1       21 0.15805947E+00 0.42854966E+03</pdfrwt>
<totfact> 0.92971623E+01</totfact>
</mgrwt>
</event>
<event>
 6    1  0.9094387E-004  0.5183770E+03  0.7818608E-02  0.1009133E+00
         21   -1    0    0  501  502  0.00000000000E+00  0.00000000000E+00  0.15350269798E+03  0.15350269798E+03  0.00000000000E+00 0. -1.
         21   -1    0    0  502  503 -0.00000000000E+00 -0.00000000000E+00 -0.18780080213E+04  0.18780080213E+04  0.00000000000E+00 0.  1.
    9000007    2    1    2  501    0  0.17576923883E+03 -0.27769101899E+03 -0.59578237776E+03  0.78972868720E+03  0.40088356213E+03 0.  0.
    9000005    1    3    3    0    0  0.19978499293E+03 -0.34938411847E+03 -0.58959503898E+03  0.71386736557E+03  0.99999687468E+00 0.  0.
          4    1    3    3  501    0 -0.24015754100E+02  0.71693099479E+02 -0.61873387804E+01  0.75861321628E+02  0.00000000000E+00 0.  1.
   -9000007    1    1    2    0  503 -0.17576923883E+03  0.27769101899E+03 -0.11287229455E+04  0.12417820321E+04  0.40000000000E+03 0.  1.
<mgrwt>
<rscale>  2 0.51820621E+03</rscale>
<asrwt>0</asrwt>
<pdfrwt beam="1">  1       21 0.23615798E-01 0.51837704E+03</pdfrwt>
<pdfrwt beam="2">  1       21 0.28892433E+00 0.51837704E+03</pdfrwt>
<totfact> 0.51605378E+02</totfact>
</mgrwt>
</event>
<event>
 6    1  0.9094387E-004  0.4454151E+03  0.7818608E-02  0.1029109E+00
         21   -1    0    0  501  502  0.00000000000E+00  0.00000000000E+00  0.62035847520E+03  0.62035847520E+03  0.00000000000E+00 0.  1.
         21   -1    0    0  502  503 -0.00000000000E+00 -0.00000000000E+00 -0.11017417789E+04  0.11017417789E+04  0.00000000000E+00 0.  1.
    9000007    2    1    2  501    0 -0.17723780611E+03 -0.82770599659E+02  0.48473963493E+03  0.65830622111E+03  0.40016291057E+03 0.  0.
    9000005    1    3    3    0    0 -0.21401243395E+03  0.71643488204E+02  0.10944861164E+03  0.25082685237E+03  0.99999687468E+00 0.  0.
          4    1    3    3  501    0  0.36774627836E+02 -0.15441408786E+03  0.37529102330E+03  0.40747936874E+03  0.00000000000E+00 0.  1.
   -9000007    1    1    2    0  503  0.17723780611E+03  0.82770599659E+02 -0.96612293864E+03  0.10637940330E+04  0.40000000000E+03 0.  1.
<mgrwt>
<rscale>  2 0.44537846E+03</rscale>
<asrwt>0</asrwt>
<pdfrwt beam="1">  1       21 0.95439765E-01 0.44541505E+03</pdfrwt>
<pdfrwt beam="2">  1       21 0.16949874E+00 0.44541505E+03</pdfrwt>
<totfact> 0.15999021E+02</totfact>
</mgrwt>
</event>
<event>
 6    1  0.9094387E-004  0.4734039E+03  0.7818608E-02  0.1020975E+00
         21   -1    0    0  501  502  0.00000000000E+00  0.00000000000E+00  0.53784502158E+03  0.53784502158E+03  0.00000000000E+00 0. -1.
         21   -1    0    0  502  503 -0.00000000000E+00 -0.00000000000E+00 -0.41722923697E+03  0.41722923697E+03  0.00000000000E+00 0. -1.
    9000007    2    1    2  501    0  0.24904127393E+03 -0.43968054814E+02  0.79753257318E+02  0.48007479318E+03  0.40019555099E+03 0.  0.
    9000005    1    3    3    0    0  0.21482896664E+02 -0.32585718449E+02 -0.15089640091E+03  0.15586554365E+03  0.99999687468E+00 0.  0.
          4    1    3    3  501    0  0.22755837727E+03 -0.11382336364E+02  0.23064965823E+03  0.32420924954E+03  0.00000000000E+00 0.  1.
   -9000007    1    1    2    0  503 -0.24904127393E+03  0.43968054814E+02  0.40862527291E+02  0.47499946537E+03  0.40000000000E+03 0.  1.
<mgrwt>
<rscale>  2 0.47336254E+03</rscale>
<asrwt>0</asrwt>
<pdfrwt beam="1">  1       21 0.82745388E-01 0.47340387E+03</pdfrwt>
<pdfrwt beam="2">  1       21 0.64189113E-01 0.47340387E+03</pdfrwt>
<totfact> 0.24542146E+03</totfact>
</mgrwt>
</event>
<event>
 6    1  0.9094387E-004  0.4240857E+03  0.7818608E-02  0.1035790E+00
         21   -1    0    0  501  502  0.00000000000E+00  0.00000000000E+00  0.71060042723E+03  0.71060042723E+03  0.00000000000E+00 0.  1.
         21   -1    0    0  502  503 -0.00000000000E+00 -0.00000000000E+00 -0.33991243494E+03  0.33991243494E+03  0.00000000000E+00 0.  1.
    9000007    2    1    2  501    0  0.13861233618E+03 -0.12678270351E+02  0.45140202552E+03  0.61936454263E+03  0.40059272303E+03 0.  0.
    9000005    1    3    3    0    0  0.13692872054E+03  0.84265110047E+02  0.32202992342E+01  0.16081496697E+03  0.99999687468E+00 0.  0.
          4    1    3    3  501    0  0.16836156474E+01 -0.96943380398E+02  0.44818172629E+03  0.45854957566E+03  0.00000000000E+00 0.  1.
   -9000007    1    1    2    0  503 -0.13861233618E+03  0.12678270351E+02 -0.80714033224E+02  0.43114831954E+03  0.40000000000E+03 0. -1.
<mgrwt>
<rscale>  2 0.42394563E+03</rscale>
<asrwt>0</asrwt>
<pdfrwt beam="1">  1       21 0.10932314E+00 0.42408566E+03</pdfrwt>
<pdfrwt beam="2">  1       21 0.52294221E-01 0.42408566E+03</pdfrwt>
<totfact> 0.20014117E+03</totfact>
</mgrwt>
</event>
<event>
 6    1  0.9094387E-004  0.8360822E+03  0.7818608E-02  0.9509210E-01
         21   -1    0    0  501  502  0.00000000000E+00  0.00000000000E+00  0.72097737535E+03  0.72097737535E+03  0.00000000000E+00 0.  1.
         21   -1    0    0  502  503 -0.00000000000E+00 -0.00000000000E+00 -0.18528682923E+04  0.18528682923E+04  0.00000000000E+00 0. -1.
    9000007    2    1    2  501    0  0.73369137865E+03  0.27024544234E+02  0.32261346665E+03  0.89616382445E+03  0.39999598283E+03 0.  0.
    9000005    1    3    3    0    0  0.40879750342E+03  0.20538891977E+03  0.11658820711E+03  0.47211631744E+03  0.99999687468E+00 0.  0.
          4    1    3    3  501    0  0.32489387523E+03 -0.17836437554E+03  0.20602525954E+03  0.42404750700E+03  0.00000000000E+00 0.  1.
   -9000007    1    1    2    0  503 -0.73369137865E+03 -0.27024544234E+02 -0.14545043836E+04  0.16776818432E+04  0.40000000000E+03 0.  1.
<mgrwt>
<rscale>  2 0.83608167E+03</rscale>
<asrwt>0</asrwt>
<pdfrwt beam="1">  1       21 0.11091960E+00 0.83608215E+03</pdfrwt>
<pdfrwt beam="2">  1       21 0.28505666E+00 0.83608215E+03</pdfrwt>
<totfact> 0.16425160E+01</totfact>
</mgrwt>
</event>
<event>
 6    1  0.9094387E-004  0.6101605E+03  0.7818608E-02  0.9884824E-01
         21   -1    0    0  501  502  0.00000000000E+00  0.00000000000E+00  0.71540368336E+03  0.71540368336E+03  0.00000000000E+00 0.  1.
         21   -1    0    0  502  503 -0.00000000000E+00 -0.00000000000E+00 -0.60165142713E+03  0.60165142713E+03  0.00000000000E+00 0. -1.
    9000007    2    1    2  501    0 -0.41209832112E+03  0.20608449518E+03  0.29954449862E+03  0.67923491424E+03  0.39917078631E+03 0.  0.
    9000005    1    3    3    0    0 -0.19394659559E+03 -0.27504378538E+02 -0.53441789144E+02  0.20304875671E+03  0.99999687468E+00 0.  0.
          4    1    3    3  501    0 -0.21815172553E+03  0.23358887372E+03  0.35298628777E+03  0.47618615753E+03  0.00000000000E+00 0.  1.
   -9000007    1    1    2    0  503  0.41209832112E+03 -0.20608449518E+03 -0.18579224239E+03  0.63782019626E+03  0.40000000000E+03 0.  1.
<mgrwt>
<rscale>  2 0.61002464E+03</rscale>
<asrwt>0</asrwt>
<pdfrwt beam="1">  1       21 0.11006211E+00 0.61016051E+03</pdfrwt>
<pdfrwt beam="2">  1       21 0.92561758E-01 0.61016051E+03</pdfrwt>
<totfact> 0.50624722E+02</totfact>
</mgrwt>
</event>
<event>
 6    1  0.9094387E-004  0.5128769E+03  0.7818608E-02  0.1010491E+00
         21   -1    0    0  501  502  0.00000000000E+00  0.00000000000E+00  0.20900494147E+04  0.20900494147E+04  0.00000000000E+00 0.  1.
         21   -1    0    0  502  503 -0.00000000000E+00 -0.00000000000E+00 -0.12612833686E+03  0.12612833686E+03  0.00000000000E+00 0.  1.
    9000007    2    1    2  501    0  0.76164688089E+02 -0.31183592379E+03  0.10400049435E+04  0.11594546438E+04  0.39960240936E+03 0.  0.
    9000005    1    3    3    0    0  0.11541098284E+03 -0.10165439026E+03  0.75122180110E+02  0.17116556885E+03  0.99999687468E+00 0.  0.
          4    1    3    3  501    0 -0.39246294755E+02 -0.21018153352E+03  0.96488276335E+03  0.98828907497E+03  0.00000000000E+00 0.  1.
   -9000007    1    1    2    0  503 -0.76164688089E+02  0.31183592379E+03  0.92391613442E+03  0.10567231078E+04  0.40000000000E+03 0.  1.
<mgrwt>
<rscale>  2 0.51279936E+03</rscale>
<asrwt>0</asrwt>
<pdfrwt beam="1">  1       21 0.32154604E+00 0.51287689E+03</pdfrwt>
<pdfrwt beam="2">  1       21 0.19404361E-01 0.51287689E+03</pdfrwt>
<totfact> 0.47884605E+02</totfact>
</mgrwt>
</event>
<event>
 6    1  0.9094387E-004  0.5240515E+03  0.7818608E-02  0.1007710E+00
         21   -1    0    0  501  502  0.00000000000E+00  0.00000000000E+00  0.31185203229E+03  0.31185203229E+03  0.00000000000E+00 0.  1.
         21   -1    0    0  502  503 -0.00000000000E+00 -0.00000000000E+00 -0.14012577348E+04  0.14012577348E+04  0.00000000000E+00 0. -1.
    9000007    2    1    2  501    0  0.33360767597E+02  0.33628678285E+03 -0.22390682227E+02  0.52452960797E+03  0.40053492464E+03 0.  0.
    9000005    1    3    3    0    0 -0.18329574588E+03  0.13238035372E+03  0.83060623165E+00  0.22610523746E+03  0.99999687468E+00 0.  0.
          4    1    3    3  501    0  0.21665651348E+03  0.20390642913E+03 -0.23221288459E+02  0.29842437051E+03  0.00000000000E+00 0.  1.
   -9000007    1    1    2    0  503 -0.33360767597E+02 -0.33628678285E+03 -0.10670150203E+04  0.11885801591E+04  0.40000000000E+03 0. -1.
<mgrwt>
<rscale>  2 0.52394928E+03</rscale>
<asrwt>0</asrwt>
<pdfrwt beam="1">  1       21 0.47977236E-01 0.52405149E+03</pdfrwt>
<pdfrwt beam="2">  1       21 0.21557811E+00 0.52405149E+03</pdfrwt>
<totfact> 0.34962999E+02</totfact>
</mgrwt>
</event>
<event>
 6    1  0.9094387E-004  0.5211317E+03  0.7818608E-02  0.1008430E+00
         21   -1    0    0  501  502  0.00000000000E+00  0.00000000000E+00  0.62193134877E+03  0.62193134877E+03  0.00000000000E+00 0.  1.
         21   -1    0    0  502  503 -0.00000000000E+00 -0.00000000000E+00 -0.43755484123E+03  0.43755484123E+03  0.00000000000E+00 0. -1.
    9000007    2    1    2  501    0  0.30791035073E+03 -0.12949694957E+03  0.12002006486E+03  0.53439572565E+03  0.39949434488E+03 0.  0.
    9000005    1    3    3    0    0  0.14456260117E+03 -0.95098533084E+02 -0.14191373656E+03  0.22379138784E+03  0.99999687468E+00 0.  0.
          4    1    3    3  501    0  0.16334774957E+03 -0.34398416487E+02  0.26193380142E+03  0.31060433782E+03  0.00000000000E+00 0.  1.
   -9000007    1    1    2    0  503 -0.30791035073E+03  0.12949694957E+03  0.64356442685E+02  0.52509046435E+03  0.40000000000E+03 0. -1.
<mgrwt>
<rscale>  2 0.52103466E+03</rscale>
<asrwt>0</asrwt>
<pdfrwt beam="1">  1       21 0.95681746E-01 0.52113170E+03</pdfrwt>
<pdfrwt beam="2">  1       21 0.67316130E-01 0.52113170E+03</pdfrwt>
<totfact> 0.15393836E+03</totfact>
</mgrwt>
</event>
<event>
 6    1  0.9094387E-004  0.5074283E+03  0.7818608E-02  0.1012208E+00
         21   -1    0    0  501  502  0.00000000000E+00  0.00000000000E+00  0.46715006800E+03  0.46715006800E+03  0.00000000000E+00 0.  1.
         21   -1    0    0  502  503 -0.00000000000E+00 -0.00000000000E+00 -0.54561722787E+03  0.54561722787E+03  0.00000000000E+00 0.  1.
    9000007    2    1    2  501    0 -0.30238167498E+03  0.23895897066E+02 -0.27245452357E+02  0.50815917606E+03  0.40678955527E+03 0.  0.
    9000005    1    3    3    0    0 -0.19682803696E+03  0.21270274913E+03  0.25174881997E+01  0.28981213460E+03  0.99999687468E+00 0.  0.
          4    1    3    3  501    0 -0.10555363802E+03 -0.18880685206E+03 -0.29762940556E+02  0.21834704146E+03  0.00000000000E+00 0.  1.
   -9000007    1    1    2    0  503  0.30238167498E+03 -0.23895897066E+02 -0.51221707504E+02  0.50460811981E+03  0.40000000000E+03 0.  1.
<mgrwt>
<rscale>  2 0.50606614E+03</rscale>
<asrwt>0</asrwt>
<pdfrwt beam="1">  1       21 0.71869241E-01 0.50742825E+03</pdfrwt>
<pdfrwt beam="2">  1       21 0.83941112E-01 0.50742825E+03</pdfrwt>
<totfact> 0.18204924E+03</totfact>
</mgrwt>
</event>
<event>
 6    1  0.9094387E-004  0.4835323E+03  0.7818608E-02  0.1018180E+00
         21   -1    0    0  501  502  0.00000000000E+00  0.00000000000E+00  0.31767112729E+03  0.31767112729E+03  0.00000000000E+00 0.  1.
         21   -1    0    0  502  503 -0.00000000000E+00 -0.00000000000E+00 -0.92582784977E+03  0.92582784977E+03  0.00000000000E+00 0.  1.
    9000007    2    1    2  501    0 -0.13443880568E+03 -0.23572843646E+03 -0.22392015995E+02  0.48405050640E+03  0.40020220157E+03 0.  0.
    9000005    1    3    3    0    0  0.11566554574E+03  0.14220853778E+02  0.43457783060E+02  0.12437978154E+03  0.99999687468E+00 0.  0.
          4    1    3    3  501    0 -0.25010435141E+03 -0.24994929024E+03 -0.65849799055E+02  0.35967072486E+03  0.00000000000E+00 0.  1.
   -9000007    1    1    2    0  503  0.13443880568E+03  0.23572843646E+03 -0.58576470649E+03  0.75944847066E+03  0.40000000000E+03 0.  1.
<mgrwt>
<rscale>  2 0.48349046E+03</rscale>
<asrwt>0</asrwt>
<pdfrwt beam="1">  1       21 0.48872482E-01 0.48353231E+03</pdfrwt>
<pdfrwt beam="2">  1       21 0.14243505E+00 0.48353231E+03</pdfrwt>
<totfact> 0.11443002E+03</totfact>
</mgrwt>
</event>
<event>
 6    1  0.9094387E-004  0.4237225E+03  0.7818608E-02  0.1035873E+00
         21   -1    0    0  501  502  0.00000000000E+00  0.00000000000E+00  0.30039981565E+03  0.30039981565E+03  0.00000000000E+00 0. -1.
         21   -1    0    0  502  503 -0.00000000000E+00 -0.00000000000E+00 -0.60116988347E+03  0.60116988347E+03  0.00000000000E+00 0. -1.
    9000007    2    1    2  501    0  0.17092701471E+02  0.13829681676E+03 -0.18578122402E+03  0.46266127568E+03  0.40015324920E+03 0.  0.
    9000005    1    3    3    0    0 -0.18845517356E+03  0.62673523611E+02 -0.49418152491E+02  0.20466185965E+03  0.99999687468E+00 0.  0.
          4    1    3    3  501    0  0.20554787503E+03  0.75623293152E+02 -0.13636307153E+03  0.25799941604E+03  0.00000000000E+00 0.  1.
   -9000007    1    1    2    0  503 -0.17092701471E+02 -0.13829681676E+03 -0.11498884379E+03  0.43890842344E+03  0.40000000000E+03 0. -1.
<mgrwt>
<rscale>  2 0.42368636E+03</rscale>
<asrwt>0</asrwt>
<pdfrwt beam="1">  1       21 0.46215357E-01 0.42372254E+03</pdfrwt>
<pdfrwt beam="2">  1       21 0.92487673E-01 0.42372254E+03</pdfrwt>
<totfact> 0.39043987E+03</totfact>
</mgrwt>
</event>
<event>
 6    1  0.9094387E-004  0.4842476E+03  0.7818608E-02  0.1018577E+00
         21   -1    0    0  501  502  0.00000000000E+00  0.00000000000E+00  0.46337704489E+03  0.46337704489E+03  0.00000000000E+00 0. -1.
         21   -1    0    0  502  503 -0.00000000000E+00 -0.00000000000E+00 -0.58152304443E+03  0.58152304443E+03  0.00000000000E+00 0. -1.
    9000007    2    1    2  501    0 -0.68326791189E+01  0.27285349815E+03  0.14064959127E+03  0.49583645477E+03  0.38932732424E+03 0.  0.
    9000005    1    3    3    0    0 -0.19184347202E+03  0.80725523386E+02  0.49246343131E+02  0.21388485264E+03  0.99999687468E+00 0.  0.
          4    1    3    3  501    0  0.18501079290E+03  0.19212797476E+03  0.91403248140E+02  0.28195160213E+03  0.00000000000E+00 0.  1.
   -9000007    1    1    2    0  503  0.68326791189E+01 -0.27285349815E+03 -0.25879559081E+03  0.54906363454E+03  0.40000000000E+03 0. -1.
<mgrwt>
<rscale>  2 0.48203804E+03</rscale>
<asrwt>0</asrwt>
<pdfrwt beam="1">  1       21 0.71288776E-01 0.48424758E+03</pdfrwt>
<pdfrwt beam="2">  1       21 0.89465084E-01 0.48424758E+03</pdfrwt>
<totfact> 0.16086097E+03</totfact>
</mgrwt>
</event>
<event>
 6    1  0.9094387E-004  0.4484428E+03  0.7818608E-02  0.1028254E+00
         21   -1    0    0  501  502  0.00000000000E+00  0.00000000000E+00  0.92153244090E+02  0.92153244090E+02  0.00000000000E+00 0. -1.
         21   -1    0    0  502  503 -0.00000000000E+00 -0.00000000000E+00 -0.23348645666E+04  0.23348645666E+04  0.00000000000E+00 0.  1.
    9000007    2    1    2  501    0  0.55123109738E+02 -0.19509589784E+03 -0.14349316741E+04  0.15031082226E+04  0.39900432696E+03 0.  0.
    9000005    1    3    3    0    0  0.34866290117E+02 -0.29581864230E+03 -0.69589581033E+03  0.75696519480E+03  0.99999687468E+00 0.  0.
          4    1    3    3  501    0  0.20256819621E+02  0.10072274445E+03 -0.73903586375E+03  0.74614302778E+03  0.00000000000E+00 0.  1.
   -9000007    1    1    2    0  503 -0.55123109738E+02  0.19509589784E+03 -0.80777964843E+03  0.92390958811E+03  0.40000000000E+03 0.  1.
<mgrwt>
<rscale>  2 0.44822069E+03</rscale>
<asrwt>0</asrwt>
<pdfrwt beam="1">  1       21 0.14177423E-01 0.44844282E+03</pdfrwt>
<pdfrwt beam="2">  1       21 0.35920991E+00 0.44844282E+03</pdfrwt>
<totfact> 0.52578984E+02</totfact>
</mgrwt>
</event>
<event>
 6    1  0.9094387E-004  0.4202162E+03  0.7818608E-02  0.1037426E+00
         21   -1    0    0  501  502  0.00000000000E+00  0.00000000000E+00  0.56456044272E+03  0.56456044272E+03  0.00000000000E+00 0. -1.
         21   -1    0    0  502  503 -0.00000000000E+00 -0.00000000000E+00 -0.37549706699E+03  0.37549706699E+03  0.00000000000E+00 0. -1.
    9000007    2    1    2  501    0 -0.72696374929E+02  0.10628678917E+03  0.29201373606E+03  0.50741398304E+03  0.39448103080E+03 0.  0.
    9000005    1    3    3    0    0  0.54042067487E+01  0.24425454507E+03  0.23483779311E+03  0.33887944361E+03  0.99999687468E+00 0.  0.
          4    1    3    3  501    0 -0.78100581678E+02 -0.13796775590E+03  0.57175942957E+02  0.16853453943E+03  0.00000000000E+00 0.  1.
   -9000007    1    1    2    0  503  0.72696374929E+02 -0.10628678917E+03 -0.10295036033E+03  0.43264352667E+03  0.40000000000E+03 0. -1.
<mgrwt>
<rscale>  2 0.41889749E+03</rscale>
<asrwt>0</asrwt>
<pdfrwt beam="1">  1       21 0.86855453E-01 0.42021619E+03</pdfrwt>
<pdfrwt beam="2">  1       21 0.57768779E-01 0.42021619E+03</pdfrwt>
<totfact> 0.28161415E+03</totfact>
</mgrwt>
</event>
<event>
 6    1  0.9094387E-004  0.4427158E+03  0.7818608E-02  0.1030580E+00
         21   -1    0    0  501  502  0.00000000000E+00  0.00000000000E+00  0.24977288934E+03  0.24977288934E+03  0.00000000000E+00 0.  1.
         21   -1    0    0  502  503 -0.00000000000E+00 -0.00000000000E+00 -0.10959070284E+04  0.10959070284E+04  0.00000000000E+00 0.  1.
    9000007    2    1    2  501    0  0.65027419334E+02 -0.17823778276E+03 -0.52954953899E+02  0.43731298074E+03  0.39043711852E+03 0.  0.
    9000005    1    3    3    0    0  0.14263004323E+03 -0.91476896114E+02  0.13471614597E+03  0.21647353587E+03  0.99999687468E+00 0.  0.
          4    1    3    3  501    0 -0.77602623896E+02 -0.86760886643E+02 -0.18767109987E+03  0.22083944487E+03  0.00000000000E+00 0.  1.
   -9000007    1    1    2    0  503 -0.65027419334E+02  0.17823778276E+03 -0.79317918520E+03  0.90836693704E+03  0.40000000000E+03 0.  1.
<mgrwt>
<rscale>  2 0.44054466E+03</rscale>
<asrwt>0</asrwt>
<pdfrwt beam="1">  1       21 0.38426599E-01 0.44271579E+03</pdfrwt>
<pdfrwt beam="2">  1       21 0.16860108E+00 0.44271579E+03</pdfrwt>
<totfact> 0.12074337E+03</totfact>
</mgrwt>
</event>
<event>
 6    1  0.9094387E-004  0.4852910E+03  0.7818608E-02  0.1017707E+00
         21   -1    0    0  501  502  0.00000000000E+00  0.00000000000E+00  0.25160041722E+04  0.25160041722E+04  0.00000000000E+00 0.  1.
         21   -1    0    0  502  503 -0.00000000000E+00 -0.00000000000E+00 -0.12154196550E+03  0.12154196550E+03  0.00000000000E+00 0.  1.
    9000007    2    1    2  501    0  0.37882096638E+02  0.27216219527E+03  0.18297936383E+04  0.18929939865E+04  0.39971760067E+03 0.  0.
    9000005    1    3    3    0    0 -0.74989428900E+02  0.17427758867E+03  0.29370356465E+03  0.34965536781E+03  0.99999687468E+00 0.  0.
          4    1    3    3  501    0  0.11287152554E+03  0.97884606599E+02  0.15360900737E+04  0.15433386187E+04  0.00000000000E+00 0.  1.
   -9000007    1    1    2    0  503 -0.37882096638E+02 -0.27216219527E+03  0.56466856842E+03  0.74455215126E+03  0.40000000000E+03 0.  1.
<mgrwt>
<rscale>  2 0.48523276E+03</rscale>
<asrwt>0</asrwt>
<pdfrwt beam="1">  1       21 0.38707753E+00 0.48529096E+03</pdfrwt>
<pdfrwt beam="2">  1       21 0.18698766E-01 0.48529096E+03</pdfrwt>
<totfact> 0.20495059E+02</totfact>
</mgrwt>
</event>
<event>
 6    1  0.9094387E-004  0.4433006E+03  0.7818608E-02  0.1029828E+00
         21   -1    0    0  501  502  0.00000000000E+00  0.00000000000E+00  0.12518694702E+04  0.12518694702E+04  0.00000000000E+00 0. -1.
         21   -1    0    0  502  503 -0.00000000000E+00 -0.00000000000E+00 -0.18645455654E+03  0.18645455654E+03  0.00000000000E+00 0.  1.
    9000007    2    1    2  501    0 -0.17445755323E+03 -0.70998505502E+02  0.82125216002E+03  0.93325801527E+03  0.40129688145E+03 0.  0.
    9000005    1    3    3    0    0  0.94253834298E+02  0.44603343752E+02  0.44290360268E+03  0.45501411496E+03  0.99999687468E+00 0.  0.
          4    1    3    3  501    0 -0.26871138753E+03 -0.11560184925E+03  0.37834855734E+03  0.47824390030E+03  0.00000000000E+00 0.  1.
   -9000007    1    1    2    0  503  0.17445755323E+03  0.70998505502E+02  0.24416275362E+03  0.50506601145E+03  0.40000000000E+03 0.  1.
<mgrwt>
<rscale>  2 0.44300688E+03</rscale>
<asrwt>0</asrwt>
<pdfrwt beam="1">  1       21 0.19259530E+00 0.44330059E+03</pdfrwt>
<pdfrwt beam="2">  1       21 0.28685317E-01 0.44330059E+03</pdfrwt>
<totfact> 0.14730967E+03</totfact>
</mgrwt>
</event>
<event>
 6    1  0.9094387E-004  0.7109190E+03  0.7818608E-02  0.9699142E-01
         21   -1    0    0  501  502  0.00000000000E+00  0.00000000000E+00  0.37868778056E+03  0.37868778056E+03  0.00000000000E+00 0.  1.
         21   -1    0    0  502  503 -0.00000000000E+00 -0.00000000000E+00 -0.18110490130E+04  0.18110490130E+04  0.00000000000E+00 0. -1.
    9000007    2    1    2  501    0 -0.11188747391E+03  0.57696359234E+03 -0.15320613625E+03  0.72630126241E+03  0.39829086092E+03 0.  0.
    9000005    1    3    3    0    0 -0.55862515158E+02 -0.51606719915E+02 -0.37188103261E+02  0.84663033008E+02  0.99999687468E+00 0.  0.
          4    1    3    3  501    0 -0.56024958747E+02  0.62857031226E+03 -0.11601803299E+03  0.64163822940E+03  0.00000000000E+00 0.  1.
   -9000007    1    1    2    0  503  0.11188747391E+03 -0.57696359234E+03 -0.12791550962E+04  0.14634355312E+04  0.40000000000E+03 0. -1.
<mgrwt>
<rscale>  2 0.71067880E+03</rscale>
<asrwt>0</asrwt>
<pdfrwt beam="1">  1       21 0.58259657E-01 0.71091898E+03</pdfrwt>
<pdfrwt beam="2">  1       21 0.27862293E+00 0.71091898E+03</pdfrwt>
<totfact> 0.85656961E+01</totfact>
</mgrwt>
</event>
<event>
 6    1  0.9094387E-004  0.4968600E+03  0.7818608E-02  0.1014650E+00
         21   -1    0    0  501  502  0.00000000000E+00  0.00000000000E+00  0.26509786158E+03  0.26509786158E+03  0.00000000000E+00 0. -1.
         21   -1    0    0  502  503 -0.00000000000E+00 -0.00000000000E+00 -0.14663133874E+04  0.14663133874E+04  0.00000000000E+00 0.  1.
    9000007    2    1    2  501    0  0.30593322474E+02  0.29189527100E+03 -0.11245174835E+04  0.12293939282E+04  0.40091278303E+03 0.  0.
    9000005    1    3    3    0    0 -0.12667507769E+03 -0.37144483410E+02 -0.31260881991E+03  0.33933989190E+03  0.99999687468E+00 0.  0.
          4    1    3    3  501    0  0.15726840016E+03  0.32903975441E+03 -0.81190866355E+03  0.89005403635E+03  0.00000000000E+00 0.  1.
   -9000007    1    1    2    0  503 -0.30593322474E+02 -0.29189527100E+03 -0.76698042372E+02  0.50201732074E+03  0.40000000000E+03 0. -1.
<mgrwt>
<rscale>  2 0.49667584E+03</rscale>
<asrwt>0</asrwt>
<pdfrwt beam="1">  1       21 0.40784287E-01 0.49686000E+03</pdfrwt>
<pdfrwt beam="2">  1       21 0.22558667E+00 0.49686000E+03</pdfrwt>
<totfact> 0.42894366E+02</totfact>
</mgrwt>
</event>
<event>
 6    1  0.9094387E-004  0.4625578E+03  0.7818608E-02  0.1024047E+00
         21   -1    0    0  501  502  0.00000000000E+00  0.00000000000E+00  0.18139504141E+03  0.18139504141E+03  0.00000000000E+00 0. -1.
         21   -1    0    0  502  503 -0.00000000000E+00 -0.00000000000E+00 -0.11862794909E+04  0.11862794909E+04  0.00000000000E+00 0. -1.
    9000007    2    1    2  501    0 -0.19916190497E+03 -0.11928246794E+03 -0.45018461751E+03  0.64546564621E+03  0.40008241532E+03 0.  0.
    9000005    1    3    3    0    0 -0.69633412956E+02 -0.16461994972E+03 -0.41456157073E+01  0.17879241083E+03  0.99999687468E+00 0.  0.
          4    1    3    3  501    0 -0.12952849201E+03  0.45337481778E+02 -0.44603900180E+03  0.46667323539E+03  0.00000000000E+00 0.  1.
   -9000007    1    1    2    0  503  0.19916190497E+03  0.11928246794E+03 -0.55469983197E+03  0.72220888608E+03  0.40000000000E+03 0. -1.
<mgrwt>
<rscale>  2 0.46253997E+03</rscale>
<asrwt>0</asrwt>
<pdfrwt beam="1">  1       21 0.27906929E-01 0.46255779E+03</pdfrwt>
<pdfrwt beam="2">  1       21 0.18250454E+00 0.46255779E+03</pdfrwt>
<totfact> 0.18103926E+03</totfact>
</mgrwt>
</event>
<event>
 6    1  0.9094387E-004  0.4992036E+03  0.7818608E-02  0.1013991E+00
         21   -1    0    0  501  502  0.00000000000E+00  0.00000000000E+00  0.15849001201E+04  0.15849001201E+04  0.00000000000E+00 0.  1.
         21   -1    0    0  502  503 -0.00000000000E+00 -0.00000000000E+00 -0.15948781055E+03  0.15948781055E+03  0.00000000000E+00 0. -1.
    9000007    2    1    2  501    0 -0.27537534021E+03 -0.11564024020E+03  0.81670202142E+03  0.95715705089E+03  0.39992897512E+03 0.  0.
    9000005    1    3    3    0    0 -0.48027238430E+00  0.63036609029E+02 -0.13574768813E+02  0.64491232594E+02  0.99999687468E+00 0.  0.
          4    1    3    3  501    0 -0.27489506782E+03 -0.17867684923E+03  0.83027679023E+03  0.89266581830E+03  0.00000000000E+00 0.  1.
   -9000007    1    1    2    0  503  0.27537534021E+03  0.11564024020E+03  0.60871028812E+03  0.78723087974E+03  0.40000000000E+03 0.  1.
<mgrwt>
<rscale>  2 0.49918938E+03</rscale>
<asrwt>0</asrwt>
<pdfrwt beam="1">  1       21 0.24383078E+00 0.49920361E+03</pdfrwt>
<pdfrwt beam="2">  1       21 0.24536587E-01 0.49920361E+03</pdfrwt>
<totfact> 0.91149252E+02</totfact>
</mgrwt>
</event>
<event>
 6    1  0.9094387E-004  0.4234435E+03  0.7818608E-02  0.1035965E+00
         21   -1    0    0  501  502  0.00000000000E+00  0.00000000000E+00  0.82053625625E+03  0.82053625625E+03  0.00000000000E+00 0.  1.
         21   -1    0    0  502  503 -0.00000000000E+00 -0.00000000000E+00 -0.49560774266E+03  0.49560774266E+03  0.00000000000E+00 0.  1.
    9000007    2    1    2  501    0 -0.89771813334E+02 -0.10537807719E+03  0.65460795056E+03  0.77962554742E+03  0.40017609578E+03 0.  0.
    9000005    1    3    3    0    0 -0.93908317882E+02  0.65433294833E+02  0.12462332474E+02  0.11513730049E+03  0.99999687468E+00 0.  0.
          4    1    3    3  501    0  0.41365045480E+01 -0.17081137203E+03  0.64214561808E+03  0.66448824693E+03  0.00000000000E+00 0.  1.
   -9000007    1    1    2    0  503  0.89771813334E+02  0.10537807719E+03 -0.32967943697E+03  0.53651845148E+03  0.40000000000E+03 0.  1.
<mgrwt>
<rscale>  2 0.42340192E+03</rscale>
<asrwt>0</asrwt>
<pdfrwt beam="1">  1       21 0.12623635E+00 0.42344353E+03</pdfrwt>
<pdfrwt beam="2">  1       21 0.76247345E-01 0.42344353E+03</pdfrwt>
<totfact> 0.60567774E+02</totfact>
</mgrwt>
</event>
<event>
 6    1  0.9094387E-004  0.4550994E+03  0.7818608E-02  0.1026217E+00
         21   -1    0    0  501  502  0.00000000000E+00  0.00000000000E+00  0.37970367130E+03  0.37970367130E+03  0.00000000000E+00 0.  1.
         21   -1    0    0  502  503 -0.00000000000E+00 -0.00000000000E+00 -0.72944115164E+03  0.72944115164E+03  0.00000000000E+00 0.  1.
    9000007    2    1    2  501    0 -0.16968150410E+03 -0.13536488461E+03  0.10370548130E+03  0.46670728957E+03  0.39993174726E+03 0.  0.
    9000005    1    3    3    0    0 -0.19768822215E+03  0.94408095521E+02  0.17767993472E+02  0.21979586725E+03  0.99999687468E+00 0.  0.
          4    1    3    3  501    0  0.28006718045E+02 -0.22977298014E+03  0.85937487823E+02  0.24691142231E+03  0.00000000000E+00 0.  1.
   -9000007    1    1    2    0  503  0.16968150410E+03  0.13536488461E+03 -0.45344296164E+03  0.64243753337E+03  0.40000000000E+03 0.  1.
<mgrwt>
<rscale>  2 0.45508440E+03</rscale>
<asrwt>0</asrwt>
<pdfrwt beam="1">  1       21 0.58415950E-01 0.45509940E+03</pdfrwt>
<pdfrwt beam="2">  1       21 0.11222172E+00 0.45509940E+03</pdfrwt>
<totfact> 0.14585933E+03</totfact>
</mgrwt>
</event>
<event>
 6    1  0.9094387E-004  0.4743430E+03  0.7818608E-02  0.1020769E+00
         21   -1    0    0  501  502  0.00000000000E+00  0.00000000000E+00  0.47795768104E+03  0.47795768104E+03  0.00000000000E+00 0.  1.
         21   -1    0    0  502  503 -0.00000000000E+00 -0.00000000000E+00 -0.46986605151E+03  0.46986605151E+03  0.00000000000E+00 0.  1.
    9000007    2    1    2  501    0 -0.25145334670E+03  0.42100671261E+02 -0.16169755131E+01  0.47338141877E+03  0.39885599022E+03 0.  0.
    9000005    1    3    3    0    0  0.21496979433E+01  0.12026320568E+03  0.13004056239E+03  0.17714233740E+03  0.99999687468E+00 0.  0.
          4    1    3    3  501    0 -0.25360304465E+03 -0.78162534418E+02 -0.13165753790E+03  0.29623908136E+03  0.00000000000E+00 0.  1.
   -9000007    1    1    2    0  503  0.25145334670E+03 -0.42100671261E+02  0.97086050402E+01  0.47444231378E+03  0.40000000000E+03 0.  1.
<mgrwt>
<rscale>  2 0.47410171E+03</rscale>
<asrwt>0</asrwt>
<pdfrwt beam="1">  1       21 0.73531951E-01 0.47434297E+03</pdfrwt>
<pdfrwt beam="2">  1       21 0.72287085E-01 0.47434297E+03</pdfrwt>
<totfact> 0.24660468E+03</totfact>
</mgrwt>
</event>
<event>
 6    1  0.9094387E-004  0.4270093E+03  0.7818608E-02  0.1034813E+00
         21   -1    0    0  501  502  0.00000000000E+00  0.00000000000E+00  0.13680600197E+03  0.13680600197E+03  0.00000000000E+00 0. -1.
         21   -1    0    0  502  503 -0.00000000000E+00 -0.00000000000E+00 -0.13400416823E+04  0.13400416823E+04  0.00000000000E+00 0.  1.
    9000007    2    1    2  501    0  0.96164978006E+02 -0.11440810145E+03 -0.65645796129E+03  0.78308779014E+03  0.39994063991E+03 0.  0.
    9000005    1    3    3    0    0 -0.56419411371E+02  0.10769195090E+03 -0.37154941813E+03  0.39093564224E+03  0.99999687468E+00 0.  0.
          4    1    3    3  501    0  0.15258438938E+03 -0.22210005235E+03 -0.28490854316E+03  0.39215214790E+03  0.00000000000E+00 0.  1.
   -9000007    1    1    2    0  503 -0.96164978006E+02  0.11440810145E+03 -0.54677771902E+03  0.69375989412E+03  0.40000000000E+03 0. -1.
<mgrwt>
<rscale>  2 0.42699537E+03</rscale>
<asrwt>0</asrwt>
<pdfrwt beam="1">  1       21 0.21047077E-01 0.42700927E+03</pdfrwt>
<pdfrwt beam="2">  1       21 0.20616026E+00 0.42700927E+03</pdfrwt>
<totfact> 0.21976528E+03</totfact>
</mgrwt>
</event>
<event>
 6    1  0.9094387E-004  0.6471803E+03  0.7818608E-02  0.9816250E-01
         21   -1    0    0  501  502  0.00000000000E+00  0.00000000000E+00  0.17585798694E+04  0.17585798694E+04  0.00000000000E+00 0. -1.
         21   -1    0    0  502  503 -0.00000000000E+00 -0.00000000000E+00 -0.23496047971E+03  0.23496047971E+03  0.00000000000E+00 0.  1.
    9000007    2    1    2  501    0  0.49677499725E+03  0.28050444510E+02  0.76242853122E+03  0.10000697918E+04  0.41384791631E+03 0.  0.
    9000005    1    3    3    0    0 -0.69728699983E+02  0.39865268157E+02  0.86127038057E+02  0.11777180429E+03  0.99999687468E+00 0.  0.
          4    1    3    3  501    0  0.56650369723E+03 -0.11814823646E+02  0.67630149316E+03  0.88229798747E+03  0.00000000000E+00 0.  1.
   -9000007    1    1    2    0  503 -0.49677499725E+03 -0.28050444510E+02  0.76119085848E+03  0.99347055737E+03  0.40000000000E+03 0. -1.
<mgrwt>
<rscale>  2 0.64497745E+03</rscale>
<asrwt>0</asrwt>
<pdfrwt beam="1">  1       21 0.27055074E+00 0.64718029E+03</pdfrwt>
<pdfrwt beam="2">  1       21 0.36147767E-01 0.64718029E+03</pdfrwt>
<totfact> 0.27080582E+02</totfact>
</mgrwt>
</event>
<event>
 6    1  0.9094387E-004  0.4134577E+03  0.7818608E-02  0.1039250E+00
         21   -1    0    0  501  502  0.00000000000E+00  0.00000000000E+00  0.12134853551E+04  0.12134853551E+04  0.00000000000E+00 0.  1.
         21   -1    0    0  502  503 -0.00000000000E+00 -0.00000000000E+00 -0.17834573453E+03  0.17834573453E+03  0.00000000000E+00 0.  1.
    9000007    2    1    2  501    0 -0.92215483775E+02 -0.45946164263E+02  0.83734584328E+03  0.93386043138E+03  0.40041540754E+03 0.  0.
    9000005    1    3    3    0    0 -0.13327969932E+03 -0.14455747352E+03  0.17582975826E+03  0.26377536899E+03  0.99999687468E+00 0.  0.
          4    1    3    3  501    0  0.41064215546E+02  0.98611309256E+02  0.66151608501E+03  0.67008506239E+03  0.00000000000E+00 0.  1.
   -9000007    1    1    2    0  503  0.92215483775E+02  0.45946164263E+02  0.19779377725E+03  0.45797065820E+03  0.40000000000E+03 0.  1.
<mgrwt>
<rscale>  2 0.41335706E+03</rscale>
<asrwt>0</asrwt>
<pdfrwt beam="1">  1       21 0.18669005E+00 0.41345767E+03</pdfrwt>
<pdfrwt beam="2">  1       21 0.27437806E-01 0.41345767E+03</pdfrwt>
<totfact> 0.17882791E+03</totfact>
</mgrwt>
</event>
<event>
 6    1  0.9094387E-004  0.4162748E+03  0.7818608E-02  0.1038603E+00
         21   -1    0    0  501  502  0.00000000000E+00  0.00000000000E+00  0.70800130804E+03  0.70800130804E+03  0.00000000000E+00 0. -1.
         21   -1    0    0  502  503 -0.00000000000E+00 -0.00000000000E+00 -0.39047553463E+03  0.39047553463E+03  0.00000000000E+00 0. -1.
    9000007    2    1    2  501    0  0.36310577247E+02 -0.93720998563E+02  0.49732929242E+03  0.64855308353E+03  0.40395865316E+03 0.  0.
    9000005    1    3    3    0    0  0.44881699761E+02  0.15552161944E+03  0.24606907003E+03  0.29453748201E+03  0.99999687468E+00 0.  0.
          4    1    3    3  501    0 -0.85711225142E+01 -0.24924261800E+03  0.25126022239E+03  0.35401560153E+03  0.00000000000E+00 0.  1.
   -9000007    1    1    2    0  503 -0.36310577247E+02  0.93720998563E+02 -0.17980351902E+03  0.44992375914E+03  0.40000000000E+03 0. -1.
<mgrwt>
<rscale>  2 0.41531132E+03</rscale>
<asrwt>0</asrwt>
<pdfrwt beam="1">  1       21 0.10892328E+00 0.41627476E+03</pdfrwt>
<pdfrwt beam="2">  1       21 0.60073159E-01 0.41627476E+03</pdfrwt>
<totfact> 0.15010915E+03</totfact>
</mgrwt>
</event>
<event>
 6    1  0.9094387E-004  0.5078213E+03  0.7818608E-02  0.1011772E+00
         21   -1    0    0  501  502  0.00000000000E+00  0.00000000000E+00  0.62823930269E+03  0.62823930269E+03  0.00000000000E+00 0. -1.
         21   -1    0    0  502  503 -0.00000000000E+00 -0.00000000000E+00 -0.15594327636E+04  0.15594327636E+04  0.00000000000E+00 0. -1.
    9000007    2    1    2  501    0  0.26819246504E+03 -0.16110637603E+03  0.47340539449E+03  0.69409233714E+03  0.39971119855E+03 0.  0.
    9000005    1    3    3    0    0  0.80538159787E+01  0.10732881639E+03  0.25344733523E+02  0.11057890527E+03  0.99999687468E+00 0.  0.
          4    1    3    3  501    0  0.26013864906E+03 -0.26843519243E+03  0.44806066097E+03  0.58351343187E+03  0.00000000000E+00 0.  1.
   -9000007    1    1    2    0  503 -0.26819246504E+03  0.16110637603E+03 -0.14045988554E+04  0.14935797291E+04  0.40000000000E+03 0. -1.
<mgrwt>
<rscale>  2 0.50776442E+03</rscale>
<asrwt>0</asrwt>
<pdfrwt beam="1">  1       21 0.96652203E-01 0.50782129E+03</pdfrwt>
<pdfrwt beam="2">  1       21 0.23991273E+00 0.50782129E+03</pdfrwt>
<totfact> 0.50902306E+01</totfact>
</mgrwt>
</event>
<event>
 6    1  0.9094387E-004  0.4760988E+03  0.7818608E-02  0.1020309E+00
         21   -1    0    0  501  502  0.00000000000E+00  0.00000000000E+00  0.19101936829E+03  0.19101936829E+03  0.00000000000E+00 0.  1.
         21   -1    0    0  502  503 -0.00000000000E+00 -0.00000000000E+00 -0.12688053996E+04  0.12688053996E+04  0.00000000000E+00 0.  1.
    9000007    2    1    2  501    0 -0.24975649821E+03 -0.54567536299E+02 -0.35002087194E+03  0.59091852921E+03  0.40163935683E+03 0.  0.
    9000005    1    3    3    0    0  0.48762288803E+02  0.54371444383E+02 -0.24590218642E+03  0.25652075950E+03  0.99999687468E+00 0.  0.
          4    1    3    3  501    0 -0.29851878702E+03 -0.10893898068E+03 -0.10411868552E+03  0.33439776971E+03  0.00000000000E+00 0.  1.
   -9000007    1    1    2    0  503  0.24975649821E+03  0.54567536299E+02 -0.72776515939E+03  0.86890623869E+03  0.40000000000E+03 0.  1.
<mgrwt>
<rscale>  2 0.47575292E+03</rscale>
<asrwt>0</asrwt>
<pdfrwt beam="1">  1       21 0.29387597E-01 0.47609883E+03</pdfrwt>
<pdfrwt beam="2">  1       21 0.19520082E+00 0.47609883E+03</pdfrwt>
<totfact> 0.13292259E+03</totfact>
</mgrwt>
</event>
<event>
 6    1  0.9094387E-004  0.4351891E+03  0.7818608E-02  0.1032336E+00
         21   -1    0    0  501  502  0.00000000000E+00  0.00000000000E+00  0.10843032539E+04  0.10843032539E+04  0.00000000000E+00 0.  1.
         21   -1    0    0  502  503 -0.00000000000E+00 -0.00000000000E+00 -0.19173112382E+03  0.19173112382E+03  0.00000000000E+00 0.  1.
    9000007    2    1    2  501    0 -0.16338745420E+02  0.16725923404E+03  0.64018232776E+03  0.77409492091E+03  0.40143109972E+03 0.  0.
    9000005    1    3    3    0    0 -0.11600373068E+03  0.37811392638E+02  0.92613694364E+01  0.12236559935E+03  0.99999687468E+00 0.  0.
          4    1    3    3  501    0  0.99664985263E+02  0.12944784141E+03  0.63092095832E+03  0.65172932156E+03  0.00000000000E+00 0.  1.
   -9000007    1    1    2    0  503  0.16338745420E+02 -0.16725923404E+03  0.25238980230E+03  0.50193945679E+03  0.40000000000E+03 0.  1.
<mgrwt>
<rscale>  2 0.43485877E+03</rscale>
<asrwt>0</asrwt>
<pdfrwt beam="1">  1       21 0.16681588E+00 0.43518908E+03</pdfrwt>
<pdfrwt beam="2">  1       21 0.29497096E-01 0.43518908E+03</pdfrwt>
<totfact> 0.21261796E+03</totfact>
</mgrwt>
</event>
<event>
 6    1  0.9094387E-004  0.5174912E+03  0.7818608E-02  0.1009323E+00
         21   -1    0    0  501  502  0.00000000000E+00  0.00000000000E+00  0.89213622851E+03  0.89213622851E+03  0.00000000000E+00 0.  1.
         21   -1    0    0  502  503 -0.00000000000E+00 -0.00000000000E+00 -0.37587639954E+03  0.37587639954E+03  0.00000000000E+00 0.  1.
    9000007    2    1    2  501    0  0.26420751301E+03 -0.19443529091E+03 -0.26556847280E+02  0.51817222083E+03  0.40023304714E+03 0.  0.
    9000005    1    3    3    0    0  0.67447353352E+02  0.98642255721E+02  0.86486157100E+02  0.14751371276E+03  0.99999687468E+00 0.  0.
          4    1    3    3  501    0  0.19676015966E+03 -0.29307754663E+03 -0.11304300438E+03  0.37065850807E+03  0.00000000000E+00 0.  1.
   -9000007    1    1    2    0  503 -0.26420751301E+03  0.19443529091E+03  0.54281667625E+03  0.74984040721E+03  0.40000000000E+03 0.  1.
<mgrwt>
<rscale>  2 0.51744618E+03</rscale>
<asrwt>0</asrwt>
<pdfrwt beam="1">  1       21 0.13725173E+00 0.51749124E+03</pdfrwt>
<pdfrwt beam="2">  1       21 0.57827139E-01 0.51749124E+03</pdfrwt>
<totfact> 0.86831721E+02</totfact>
</mgrwt>
</event>
<event>
 6    1  0.9094387E-004  0.6119693E+03  0.7818608E-02  0.9880949E-01
         21   -1    0    0  501  502  0.00000000000E+00  0.00000000000E+00  0.77209428943E+03  0.77209428943E+03  0.00000000000E+00 0.  1.
         21   -1    0    0  502  503 -0.00000000000E+00 -0.00000000000E+00 -0.57317302634E+03  0.57317302634E+03  0.00000000000E+00 0.  1.
    9000007    2    1    2  501    0 -0.38396712101E+02  0.46155398538E+03  0.36335218337E+03  0.71159238612E+03  0.39979060257E+03 0.  0.
    9000005    1    3    3    0    0  0.14095027983E+03  0.39372233298E+03  0.22272315364E+03  0.47380466443E+03  0.99999687468E+00 0.  0.
          4    1    3    3  501    0 -0.17934699194E+03  0.67831652403E+02  0.14062902973E+03  0.23778772169E+03  0.00000000000E+00 0.  1.
   -9000007    1    1    2    0  503  0.38396712101E+02 -0.46155398538E+03 -0.16443092028E+03  0.63367492965E+03  0.40000000000E+03 0.  1.
<mgrwt>
<rscale>  2 0.61193506E+03</rscale>
<asrwt>0</asrwt>
<pdfrwt beam="1">  1       21 0.11878374E+00 0.61196927E+03</pdfrwt>
<pdfrwt beam="2">  1       21 0.88180465E-01 0.61196927E+03</pdfrwt>
<totfact> 0.46873594E+02</totfact>
</mgrwt>
</event>
<event>
 6    1  0.9094387E-004  0.4095903E+03  0.7818608E-02  0.1040666E+00
         21   -1    0    0  501  502  0.00000000000E+00  0.00000000000E+00  0.47773013358E+03  0.47773013358E+03  0.00000000000E+00 0. -1.
         21   -1    0    0  502  503 -0.00000000000E+00 -0.00000000000E+00 -0.44562942214E+03  0.44562942214E+03  0.00000000000E+00 0. -1.
    9000007    2    1    2  501    0  0.39022555698E+02 -0.68652908891E+02  0.23043099714E+03  0.46996030123E+03  0.40190578315E+03 0.  0.
    9000005    1    3    3    0    0  0.17569167718E+03 -0.12472508763E+03  0.23925189948E+03  0.32197264528E+03  0.99999687468E+00 0.  0.
          4    1    3    3  501    0 -0.13666912148E+03  0.56072178734E+02 -0.88209023326E+01  0.14798765594E+03  0.00000000000E+00 0.  1.
   -9000007    1    1    2    0  503 -0.39022555698E+02  0.68652908891E+02 -0.19833028571E+03  0.45339925450E+03  0.40000000000E+03 0. -1.
<mgrwt>
<rscale>  2 0.40912206E+03</rscale>
<asrwt>0</asrwt>
<pdfrwt beam="1">  1       21 0.73496944E-01 0.40959033E+03</pdfrwt>
<pdfrwt beam="2">  1       21 0.68558372E-01 0.40959033E+03</pdfrwt>
<totfact> 0.28484880E+03</totfact>
</mgrwt>
</event>
<event>
 6    1  0.9094387E-004  0.4782779E+03  0.7818608E-02  0.1019640E+00
         21   -1    0    0  501  502  0.00000000000E+00  0.00000000000E+00  0.21193587839E+03  0.21193587839E+03  0.00000000000E+00 0.  1.
         21   -1    0    0  502  503 -0.00000000000E+00 -0.00000000000E+00 -0.12367417943E+04  0.12367417943E+04  0.00000000000E+00 0.  1.
    9000007    2    1    2  501    0 -0.25931031614E+03  0.33022953359E+02 -0.25338684668E+03  0.54125289021E+03  0.40052146208E+03 0.  0.
    9000005    1    3    3    0    0  0.75186154985E+02 -0.47902081652E+02 -0.16243063304E+03  0.18528971334E+03  0.99999687468E+00 0.  0.
          4    1    3    3  501    0 -0.33449647113E+03  0.80925035011E+02 -0.90956213643E+02  0.35596317687E+03  0.00000000000E+00 0.  1.
   -9000007    1    1    2    0  503  0.25931031614E+03 -0.33022953359E+02 -0.77141906926E+03  0.90742478252E+03  0.40000000000E+03 0.  1.
<mgrwt>
<rscale>  2 0.47816876E+03</rscale>
<asrwt>0</asrwt>
<pdfrwt beam="1">  1       21 0.32605520E-01 0.47827795E+03</pdfrwt>
<pdfrwt beam="2">  1       21 0.19026797E+00 0.47827795E+03</pdfrwt>
<totfact> 0.11659910E+03</totfact>
</mgrwt>
</event>
<event>
 6    1  0.9094387E-004  0.4305698E+03  0.7818608E-02  0.1033723E+00
         21   -1    0    0  501  502  0.00000000000E+00  0.00000000000E+00  0.75531729582E+03  0.75531729582E+03  0.00000000000E+00 0.  1.
         21   -1    0    0  502  503 -0.00000000000E+00 -0.00000000000E+00 -0.25612072552E+03  0.25612072552E+03  0.00000000000E+00 0.  1.
    9000007    2    1    2  501    0  0.33032098634E+02  0.15436970832E+03  0.14501835672E+03  0.45433539761E+03  0.40058607483E+03 0.  0.
    9000005    1    3    3    0    0  0.15481995928E+03  0.80095372356E+02 -0.76900223050E+02  0.19052331291E+03  0.99999687468E+00 0.  0.
          4    1    3    3  501    0 -0.12178786065E+03  0.74274335964E+02  0.22191857977E+03  0.26381208469E+03  0.00000000000E+00 0.  1.
   -9000007    1    1    2    0  503 -0.33032098634E+02 -0.15436970832E+03  0.35417821359E+03  0.55710262373E+03  0.40000000000E+03 0.  1.
<mgrwt>
<rscale>  2 0.43043341E+03</rscale>
<asrwt>0</asrwt>
<pdfrwt beam="1">  1       21 0.11620266E+00 0.43056977E+03</pdfrwt>
<pdfrwt beam="2">  1       21 0.39403189E-01 0.43056977E+03</pdfrwt>
<totfact> 0.31037577E+03</totfact>
</mgrwt>
</event>
<event>
 6    1  0.9094387E-004  0.4470751E+03  0.7818608E-02  0.1028648E+00
         21   -1    0    0  501  502  0.00000000000E+00  0.00000000000E+00  0.15382896583E+04  0.15382896583E+04  0.00000000000E+00 0.  1.
         21   -1    0    0  502  503 -0.00000000000E+00 -0.00000000000E+00 -0.46153037702E+03  0.46153037702E+03  0.00000000000E+00 0.  1.
    9000007    2    1    2  501    0 -0.99743215093E+02 -0.17299556579E+03  0.13860635928E+04  0.14561792239E+04  0.39926116028E+03 0.  0.
    9000005    1    3    3    0    0 -0.16260248208E+03 -0.31005090171E+01  0.11349564290E+04  0.11465497268E+04  0.99999687468E+00 0.  0.
          4    1    3    3  501    0  0.62859266985E+02 -0.16989505678E+03  0.25110716386E+03  0.30962949715E+03  0.00000000000E+00 0.  1.
   -9000007    1    1    2    0  503  0.99743215093E+02  0.17299556579E+03 -0.30930431150E+03  0.54364081143E+03  0.40000000000E+03 0.  1.
<mgrwt>
<rscale>  2 0.44690981E+03</rscale>
<asrwt>0</asrwt>
<pdfrwt beam="1">  1       21 0.23665995E+00 0.44707513E+03</pdfrwt>
<pdfrwt beam="2">  1       21 0.71004674E-01 0.44707513E+03</pdfrwt>
<totfact> 0.11340249E+02</totfact>
</mgrwt>
</event>
<event>
 6    1  0.9094387E-004  0.5502088E+03  0.7818608E-02  0.1001448E+00
         21   -1    0    0  501  502  0.00000000000E+00  0.00000000000E+00  0.62208807565E+03  0.62208807565E+03  0.00000000000E+00 0. -1.
         21   -1    0    0  502  503 -0.00000000000E+00 -0.00000000000E+00 -0.53036510836E+03  0.53036510836E+03  0.00000000000E+00 0. -1.
    9000007    2    1    2  501    0 -0.14212739493E+03 -0.34997353019E+03 -0.11967134844E+03  0.56307281028E+03  0.40006010775E+03 0.  0.
    9000005    1    3    3    0    0 -0.14883471712E+03 -0.12113832459E+03 -0.23770608926E+03  0.30550196656E+03  0.99999687468E+00 0.  0.
          4    1    3    3  501    0  0.67073221912E+01 -0.22883520560E+03  0.11803474082E+03  0.25757084372E+03  0.00000000000E+00 0.  1.
   -9000007    1    1    2    0  503  0.14212739493E+03  0.34997353019E+03  0.21139431573E+03  0.58938037374E+03  0.40000000000E+03 0. -1.
<mgrwt>
<rscale>  2 0.55019791E+03</rscale>
<asrwt>0</asrwt>
<pdfrwt beam="1">  1       21 0.95705858E-01 0.55020883E+03</pdfrwt>
<pdfrwt beam="2">  1       21 0.81594632E-01 0.55020883E+03</pdfrwt>
<totfact> 0.98159590E+02</totfact>
</mgrwt>
</event>
<event>
 6    1  0.9094387E-004  0.4715583E+03  0.7818608E-02  0.1021557E+00
         21   -1    0    0  501  502  0.00000000000E+00  0.00000000000E+00  0.48318467928E+03  0.48318467928E+03  0.00000000000E+00 0. -1.
         21   -1    0    0  502  503 -0.00000000000E+00 -0.00000000000E+00 -0.50558729291E+03  0.50558729291E+03  0.00000000000E+00 0.  1.
    9000007    2    1    2  501    0 -0.22771987296E+03 -0.10252276892E+03  0.13861390971E+03  0.49048131457E+03  0.39873656127E+03 0.  0.
    9000005    1    3    3    0    0 -0.30318527134E+03 -0.16127959296E+03  0.17828833471E+03  0.38693687618E+03  0.99999687468E+00 0.  0.
          4    1    3    3  501    0  0.75465398377E+02  0.58756824036E+02 -0.39674425001E+02  0.10354443839E+03  0.00000000000E+00 0.  1.
   -9000007    1    1    2    0  503  0.22771987296E+03  0.10252276892E+03 -0.16101652334E+03  0.49829065763E+03  0.40000000000E+03 0. -1.
<mgrwt>
<rscale>  2 0.47129029E+03</rscale>
<asrwt>0</asrwt>
<pdfrwt beam="1">  1       21 0.74336105E-01 0.47155833E+03</pdfrwt>
<pdfrwt beam="2">  1       21 0.77782660E-01 0.47155833E+03</pdfrwt>
<totfact> 0.20370003E+03</totfact>
</mgrwt>
</event>
<event>
 6    1  0.9094387E-004  0.4108855E+03  0.7818608E-02  0.1040175E+00
         21   -1    0    0  501  502  0.00000000000E+00  0.00000000000E+00  0.30776011101E+03  0.30776011101E+03  0.00000000000E+00 0.  1.
         21   -1    0    0  502  503 -0.00000000000E+00 -0.00000000000E+00 -0.57479091574E+03  0.57479091574E+03  0.00000000000E+00 0.  1.
    9000007    2    1    2  501    0  0.42623823939E+02  0.77589542042E+02 -0.36597227950E+02  0.41251213398E+03  0.40123556197E+03 0.  0.
    9000005    1    3    3    0    0 -0.96284470435E+02 -0.41565177650E+02 -0.16033864894E+03  0.19159291630E+03  0.99999687468E+00 0.  0.
          4    1    3    3  501    0  0.13890829437E+03  0.11915471969E+03  0.12374142099E+03  0.22091921768E+03  0.00000000000E+00 0.  1.
   -9000007    1    1    2    0  503 -0.42623823939E+02 -0.77589542042E+02 -0.23043357678E+03  0.47003889276E+03  0.40000000000E+03 0.  1.
<mgrwt>
<rscale>  2 0.41058356E+03</rscale>
<asrwt>0</asrwt>
<pdfrwt beam="1">  1       21 0.47347710E-01 0.41088551E+03</pdfrwt>
<pdfrwt beam="2">  1       21 0.88429371E-01 0.41088551E+03</pdfrwt>
<totfact> 0.41457838E+03</totfact>
</mgrwt>
</event>
<event>
 6    1  0.9094387E-004  0.4150533E+03  0.7818608E-02  0.1038814E+00
         21   -1    0    0  501  502  0.00000000000E+00  0.00000000000E+00  0.41160607928E+03  0.41160607928E+03  0.00000000000E+00 0. -1.
         21   -1    0    0  502  503 -0.00000000000E+00 -0.00000000000E+00 -0.44774954275E+03  0.44774954275E+03  0.00000000000E+00 0. -1.
    9000007    2    1    2  501    0  0.98667106510E+02 -0.50339403456E+02 -0.13065201772E+03  0.43367837309E+03  0.39841903581E+03 0.  0.
    9000005    1    3    3    0    0  0.76212965420E+02 -0.12216267695E+03 -0.25238117911E+03  0.29056736792E+03  0.99999687468E+00 0.  0.
          4    1    3    3  501    0  0.22454141090E+02  0.71823273499E+02  0.12172916138E+03  0.14311100516E+03  0.00000000000E+00 0.  1.
   -9000007    1    1    2    0  503 -0.98667106510E+02  0.50339403456E+02  0.94508554257E+02  0.42567724895E+03  0.40000000000E+03 0. -1.
<mgrwt>
<rscale>  2 0.41467194E+03</rscale>
<asrwt>0</asrwt>
<pdfrwt beam="1">  1       21 0.63324012E-01 0.41505331E+03</pdfrwt>
<pdfrwt beam="2">  1       21 0.68884545E-01 0.41505331E+03</pdfrwt>
<totfact> 0.39250894E+03</totfact>
</mgrwt>
</event>
<event>
 6    1  0.9094387E-004  0.4257706E+03  0.7818608E-02  0.1035416E+00
         21   -1    0    0  501  502  0.00000000000E+00  0.00000000000E+00  0.46859793101E+03  0.46859793101E+03  0.00000000000E+00 0.  1.
         21   -1    0    0  502  503 -0.00000000000E+00 -0.00000000000E+00 -0.13288762125E+04  0.13288762125E+04  0.00000000000E+00 0.  1.
    9000007    2    1    2  501    0  0.97981368698E+02 -0.97174645646E+02  0.32712692513E+03  0.53692887059E+03  0.40278694934E+03 0.  0.
    9000005    1    3    3    0    0  0.23126375689E+03 -0.26047312457E+02  0.77771572000E+02  0.24537890118E+03  0.99999687468E+00 0.  0.
          4    1    3    3  501    0 -0.13328238820E+03 -0.71127333190E+02  0.24935535313E+03  0.29154996942E+03  0.00000000000E+00 0.  1.
   -9000007    1    1    2    0  503 -0.97981368698E+02  0.97174645646E+02 -0.11874052067E+04  0.12605452730E+04  0.40000000000E+03 0.  1.
<mgrwt>
<rscale>  2 0.42511016E+03</rscale>
<asrwt>0</asrwt>
<pdfrwt beam="1">  1       21 0.72091991E-01 0.42577058E+03</pdfrwt>
<pdfrwt beam="2">  1       21 0.20444249E+00 0.42577058E+03</pdfrwt>
<totfact> 0.17823212E+02</totfact>
</mgrwt>
</event>
<event>
 6    1  0.9094387E-004  0.4403327E+03  0.7818608E-02  0.1030665E+00
         21   -1    0    0  501  502  0.00000000000E+00  0.00000000000E+00  0.13766804621E+04  0.13766804621E+04  0.00000000000E+00 0. -1.
         21   -1    0    0  502  503 -0.00000000000E+00 -0.00000000000E+00 -0.25388192166E+03  0.25388192166E+03  0.00000000000E+00 0. -1.
    9000007    2    1    2  501    0  0.18354231820E+03 -0.14321570738E+02  0.11055237146E+04  0.11898909534E+04  0.39970602609E+03 0.  0.
    9000005    1    3    3    0    0  0.38306839003E+02 -0.17648483646E+03  0.76269713586E+03  0.78378710915E+03  0.99999687468E+00 0.  0.
          4    1    3    3  501    0  0.14523547920E+03  0.16216326572E+03  0.34282657877E+03  0.40610384421E+03  0.00000000000E+00 0.  1.
   -9000007    1    1    2    0  503 -0.18354231820E+03  0.14321570738E+02  0.17274825791E+02  0.44067143039E+03  0.40000000000E+03 0. -1.
<mgrwt>
<rscale>  2 0.44026593E+03</rscale>
<asrwt>0</asrwt>
<pdfrwt beam="1">  1       21 0.21179699E+00 0.44033270E+03</pdfrwt>
<pdfrwt beam="2">  1       21 0.39058758E-01 0.44033270E+03</pdfrwt>
<totfact> 0.59110027E+02</totfact>
</mgrwt>
</event>
<event>
 6    1  0.9094387E-004  0.9618048E+03  0.7818608E-02  0.9351460E-01
         21   -1    0    0  501  502  0.00000000000E+00  0.00000000000E+00  0.12135951364E+04  0.12135951364E+04  0.00000000000E+00 0. -1.
         21   -1    0    0  502  503 -0.00000000000E+00 -0.00000000000E+00 -0.87381950210E+03  0.87381950210E+03  0.00000000000E+00 0. -1.
    9000007    2    1    2  501    0 -0.61045718755E+03  0.62641723139E+03  0.54283021778E+03  0.11044153051E+04  0.40001499385E+03 0.  0.
    9000005    1    3    3    0    0 -0.25509841827E+03  0.39395459921E+02  0.24665046278E+03  0.35702192656E+03  0.99999687468E+00 0.  0.
          4    1    3    3  501    0 -0.35535876928E+03  0.58702177146E+03  0.29617975500E+03  0.74739337858E+03  0.00000000000E+00 0.  1.
   -9000007    1    1    2    0  503  0.61045718755E+03 -0.62641723139E+03 -0.20305458344E+03  0.98299933340E+03  0.40000000000E+03 0. -1.
<mgrwt>
<rscale>  2 0.96180327E+03</rscale>
<asrwt>0</asrwt>
<pdfrwt beam="1">  1       21 0.18670694E+00 0.96180482E+03</pdfrwt>
<pdfrwt beam="2">  1       21 0.13443377E+00 0.96180482E+03</pdfrwt>
<totfact> 0.41723622E+01</totfact>
</mgrwt>
</event>
<event>
 6    1  0.9094387E-004  0.4051178E+03  0.7818608E-02  0.1042028E+00
         21   -1    0    0  501  502  0.00000000000E+00  0.00000000000E+00  0.28037917384E+03  0.28037917384E+03  0.00000000000E+00 0. -1.
         21   -1    0    0  502  503 -0.00000000000E+00 -0.00000000000E+00 -0.63989043501E+03  0.63989043501E+03  0.00000000000E+00 0. -1.
    9000007    2    1    2  501    0  0.22981947949E+02  0.59935246161E+02 -0.45281183033E+02  0.40756994465E+03  0.39992808176E+03 0.  0.
    9000005    1    3    3    0    0  0.18957473445E+03  0.18404319085E+02  0.67583624103E+02  0.20210355054E+03  0.99999687468E+00 0.  0.
          4    1    3    3  501    0 -0.16659278650E+03  0.41530927076E+02 -0.11286480714E+03  0.20546639411E+03  0.00000000000E+00 0.  1.
   -9000007    1    1    2    0  503 -0.22981947949E+02 -0.59935246161E+02 -0.31423007814E+03  0.51269966420E+03  0.40000000000E+03 0. -1.
<mgrwt>
<rscale>  2 0.40510001E+03</rscale>
<asrwt>0</asrwt>
<pdfrwt beam="1">  1       21 0.43135257E-01 0.40511777E+03</pdfrwt>
<pdfrwt beam="2">  1       21 0.98444682E-01 0.40511777E+03</pdfrwt>
<totfact> 0.39105771E+03</totfact>
</mgrwt>
</event>
<event>
 6    1  0.9094387E-004  0.5135828E+03  0.7818608E-02  0.1010343E+00
         21   -1    0    0  501  502  0.00000000000E+00  0.00000000000E+00  0.90834922091E+03  0.90834922091E+03  0.00000000000E+00 0.  1.
         21   -1    0    0  502  503 -0.00000000000E+00 -0.00000000000E+00 -0.30724802772E+03  0.30724802772E+03  0.00000000000E+00 0.  1.
    9000007    2    1    2  501    0 -0.11456609305E+03  0.30106797573E+03  0.44460980311E+03  0.67870166208E+03  0.39898715945E+03 0.  0.
    9000005    1    3    3    0    0  0.27692510975E+02  0.34714462951E+03  0.38106762540E+03  0.51622650463E+03  0.99999687468E+00 0.  0.
          4    1    3    3  501    0 -0.14225860402E+03 -0.46076653780E+02  0.63542177710E+02  0.16247515746E+03  0.00000000000E+00 0.  1.
   -9000007    1    1    2    0  503  0.11456609305E+03 -0.30106797573E+03  0.15649139008E+03  0.53689558655E+03  0.40000000000E+03 0. -1.
<mgrwt>
<rscale>  2 0.51338560E+03</rscale>
<asrwt>0</asrwt>
<pdfrwt beam="1">  1       21 0.13974603E+00 0.51358282E+03</pdfrwt>
<pdfrwt beam="2">  1       21 0.47268928E-01 0.51358282E+03</pdfrwt>
<totfact> 0.12780889E+03</totfact>
</mgrwt>
</event>
<event>
 6    1  0.9094387E-004  0.4278990E+03  0.7818608E-02  0.1034551E+00
         21   -1    0    0  501  502  0.00000000000E+00  0.00000000000E+00  0.15980235851E+04  0.15980235851E+04  0.00000000000E+00 0.  1.
         21   -1    0    0  502  503 -0.00000000000E+00 -0.00000000000E+00 -0.11450213899E+03  0.11450213899E+03  0.00000000000E+00 0.  1.
    9000007    2    1    2  501    0 -0.15197689694E+03 -0.75134433842E+00  0.73413624558E+03  0.84957976954E+03  0.39966512984E+03 0.  0.
    9000005    1    3    3    0    0  0.10728809414E+03  0.92061909852E+02  0.16472068782E+03  0.21707149831E+03  0.99999687468E+00 0.  0.
          4    1    3    3  501    0 -0.25926499108E+03 -0.92813254190E+02  0.56941555776E+03  0.63250827123E+03  0.00000000000E+00 0.  1.
   -9000007    1    1    2    0  503  0.15197689694E+03  0.75134433842E+00  0.74938520057E+03  0.86294595459E+03  0.40000000000E+03 0.  1.
<mgrwt>
<rscale>  2 0.42782071E+03</rscale>
<asrwt>0</asrwt>
<pdfrwt beam="1">  1       21 0.24584977E+00 0.42789899E+03</pdfrwt>
<pdfrwt beam="2">  1       21 0.17615715E-01 0.42789899E+03</pdfrwt>
<totfact> 0.17258095E+03</totfact>
</mgrwt>
</event>
<event>
 6    1  0.9094387E-004  0.4023250E+03  0.7818608E-02  0.1043046E+00
         21   -1    0    0  501  502  0.00000000000E+00  0.00000000000E+00  0.62282718640E+03  0.62282718640E+03  0.00000000000E+00 0.  1.
         21   -1    0    0  502  503 -0.00000000000E+00 -0.00000000000E+00 -0.26223931528E+03  0.26223931528E+03  0.00000000000E+00 0.  1.
    9000007    2    1    2  501    0 -0.12196648655E+00 -0.43190355663E+02  0.13388903940E+03  0.42326808028E+03  0.39920442284E+03 0.  0.
    9000005    1    3    3    0    0 -0.47882117410E+02 -0.12134528205E+03  0.24602957387E+03  0.27847607771E+03  0.99999687468E+00 0.  0.
          4    1    3    3  501    0  0.47760150924E+02  0.78154926390E+02 -0.11214053447E+03  0.14479200257E+03  0.00000000000E+00 0.  1.
   -9000007    1    1    2    0  503  0.12196648655E+00  0.43190355663E+02  0.22669883173E+03  0.46179842140E+03  0.40000000000E+03 0.  1.
<mgrwt>
<rscale>  2 0.40212713E+03</rscale>
<asrwt>0</asrwt>
<pdfrwt beam="1">  1       21 0.95819567E-01 0.40232502E+03</pdfrwt>
<pdfrwt beam="2">  1       21 0.40344510E-01 0.40232502E+03</pdfrwt>
<totfact> 0.47970302E+03</totfact>
</mgrwt>
</event>
<event>
 6    1  0.9094387E-004  0.4268284E+03  0.7818608E-02  0.1034875E+00
         21   -1    0    0  501  502  0.00000000000E+00  0.00000000000E+00  0.88677014436E+03  0.88677014436E+03  0.00000000000E+00 0. -1.
         21   -1    0    0  502  503 -0.00000000000E+00 -0.00000000000E+00 -0.22646533961E+03  0.22646533961E+03  0.00000000000E+00 0. -1.
    9000007    2    1    2  501    0  0.56367611533E+02  0.13754437828E+03  0.49996582004E+03  0.65737985591E+03  0.40010834797E+03 0.  0.
    9000005    1    3    3    0    0 -0.68729959764E+02 -0.11761368907E+03  0.11133621530E+03  0.17593618178E+03  0.99999687468E+00 0.  0.
          4    1    3    3  501    0  0.12509757130E+03  0.25515806735E+03  0.38862960474E+03  0.48144367413E+03  0.00000000000E+00 0.  1.
   -9000007    1    1    2    0  503 -0.56367611533E+02 -0.13754437828E+03  0.16033898470E+03  0.45585562807E+03  0.40000000000E+03 0.  1.
<mgrwt>
<rscale>  2 0.42680297E+03</rscale>
<asrwt>0</asrwt>
<pdfrwt beam="1">  1       21 0.13642617E+00 0.42682837E+03</pdfrwt>
<pdfrwt beam="2">  1       21 0.34840822E-01 0.42682837E+03</pdfrwt>
<totfact> 0.26441899E+03</totfact>
</mgrwt>
</event>
<event>
 6    1  0.9094387E-004  0.4049515E+03  0.7818608E-02  0.1042116E+00
         21   -1    0    0  501  502  0.00000000000E+00  0.00000000000E+00  0.13834206032E+03  0.13834206032E+03  0.00000000000E+00 0.  1.
         21   -1    0    0  502  503 -0.00000000000E+00 -0.00000000000E+00 -0.14503959364E+04  0.14503959364E+04  0.00000000000E+00 0. -1.
    9000007    2    1    2  501    0  0.45420675920E+02 -0.39601562726E+02 -0.99670531587E+03  0.10758286129E+04  0.40044275007E+03 0.  0.
    9000005    1    3    3    0    0  0.17196279014E+03  0.11368584859E+03 -0.50054048205E+03  0.54132933370E+03  0.99999687468E+00 0.  0.
          4    1    3    3  501    0 -0.12654211422E+03 -0.15328741132E+03 -0.49616483383E+03  0.53449927920E+03  0.00000000000E+00 0.  1.
   -9000007    1    1    2    0  503 -0.45420675920E+02  0.39601562726E+02 -0.31534856020E+03  0.51290938380E+03  0.40000000000E+03 0.  1.
<mgrwt>
<rscale>  2 0.40484200E+03</rscale>
<asrwt>0</asrwt>
<pdfrwt beam="1">  1       21 0.21283394E-01 0.40495150E+03</pdfrwt>
<pdfrwt beam="2">  1       21 0.22313783E+00 0.40495150E+03</pdfrwt>
<totfact> 0.16900931E+03</totfact>
</mgrwt>
</event>
<event>
 6    1  0.9094387E-004  0.4257567E+03  0.7818608E-02  0.1035247E+00
         21   -1    0    0  501  502  0.00000000000E+00  0.00000000000E+00  0.28885529160E+03  0.28885529160E+03  0.00000000000E+00 0. -1.
         21   -1    0    0  502  503 -0.00000000000E+00 -0.00000000000E+00 -0.64376581903E+03  0.64376581903E+03  0.00000000000E+00 0. -1.
    9000007    2    1    2  501    0 -0.85084762420E+02  0.11844539452E+03 -0.10173514477E+03  0.43727627855E+03  0.39948939388E+03 0.  0.
    9000005    1    3    3    0    0  0.13634964239E+03  0.13131888870E+03  0.86803470276E+01  0.18950520818E+03  0.99999687468E+00 0.  0.
          4    1    3    3  501    0 -0.22143440481E+03 -0.12873494181E+02 -0.11041549179E+03  0.24777107037E+03  0.00000000000E+00 0.  1.
   -9000007    1    1    2    0  503  0.85084762420E+02 -0.11844539452E+03 -0.25317538267E+03  0.49534483208E+03  0.40000000000E+03 0. -1.
<mgrwt>
<rscale>  2 0.42563668E+03</rscale>
<asrwt>0</asrwt>
<pdfrwt beam="1">  1       21 0.44439276E-01 0.42575665E+03</pdfrwt>
<pdfrwt beam="2">  1       21 0.99040895E-01 0.42575665E+03</pdfrwt>
<totfact> 0.35941642E+03</totfact>
</mgrwt>
</event>
<event>
 6    1  0.9094387E-004  0.4220286E+03  0.7818608E-02  0.1036535E+00
         21   -1    0    0  501  502  0.00000000000E+00  0.00000000000E+00  0.14233967807E+04  0.14233967807E+04  0.00000000000E+00 0.  1.
         21   -1    0    0  502  503 -0.00000000000E+00 -0.00000000000E+00 -0.13243188463E+03  0.13243188463E+03  0.00000000000E+00 0.  1.
    9000007    2    1    2  501    0  0.12530983298E+03  0.49046842905E+02  0.83272672284E+03  0.93285966897E+03  0.39835313481E+03 0.  0.
    9000005    1    3    3    0    0 -0.66370380041E+02  0.11810069719E+03  0.63377828109E+03  0.64809622095E+03  0.99999687468E+00 0.  0.
          4    1    3    3  501    0  0.19168021302E+03 -0.69053854285E+02  0.19894844175E+03  0.28476344802E+03  0.00000000000E+00 0.  1.
   -9000007    1    1    2    0  503 -0.12530983298E+03 -0.49046842905E+02  0.45823817324E+03  0.62296899638E+03  0.40000000000E+03 0.  1.
<mgrwt>
<rscale>  2 0.42163792E+03</rscale>
<asrwt>0</asrwt>
<pdfrwt beam="1">  1       21 0.21898411E+00 0.42202861E+03</pdfrwt>
<pdfrwt beam="2">  1       21 0.20374137E-01 0.42202861E+03</pdfrwt>
<totfact> 0.19358617E+03</totfact>
</mgrwt>
</event>
<event>
 6    1  0.9094387E-004  0.5481984E+03  0.7818608E-02  0.1001922E+00
         21   -1    0    0  501  502  0.00000000000E+00  0.00000000000E+00  0.11367925858E+04  0.11367925858E+04  0.00000000000E+00 0.  1.
         21   -1    0    0  502  503 -0.00000000000E+00 -0.00000000000E+00 -0.27903246470E+03  0.27903246470E+03  0.00000000000E+00 0.  1.
    9000007    2    1    2  501    0  0.25479510666E+03  0.27495618479E+03  0.59163081604E+03  0.80644318587E+03  0.39975259801E+03 0.  0.
    9000005    1    3    3    0    0  0.28816940630E+03  0.19846071059E+02  0.34611557192E+03  0.45081311248E+03  0.99999687468E+00 0.  0.
          4    1    3    3  501    0 -0.33374299642E+02  0.25511011373E+03  0.24551524412E+03  0.35563007339E+03  0.00000000000E+00 0.  1.
   -9000007    1    1    2    0  503 -0.25479510666E+03 -0.27495618479E+03  0.26612930506E+03  0.60938186463E+03  0.40000000000E+03 0.  1.
<mgrwt>
<rscale>  2 0.54815324E+03</rscale>
<asrwt>0</asrwt>
<pdfrwt beam="1">  1       21 0.17489116E+00 0.54819837E+03</pdfrwt>
<pdfrwt beam="2">  1       21 0.42928072E-01 0.54819837E+03</pdfrwt>
<totfact> 0.82872926E+02</totfact>
</mgrwt>
</event>
<event>
 6    1  0.9094387E-004  0.6161535E+03  0.7818608E-02  0.9872475E-01
         21   -1    0    0  501  502  0.00000000000E+00  0.00000000000E+00  0.10108904517E+04  0.10108904517E+04  0.00000000000E+00 0.  1.
         21   -1    0    0  502  503 -0.00000000000E+00 -0.00000000000E+00 -0.43562628470E+03  0.43562628470E+03  0.00000000000E+00 0.  1.
    9000007    2    1    2  501    0 -0.26245865976E+02  0.46792761130E+03  0.55627180306E+03  0.83007062781E+03  0.39991728315E+03 0.  0.
    9000005    1    3    3    0    0  0.59052525284E+02  0.34311068263E+03  0.11985353958E+03  0.36820919628E+03  0.99999687468E+00 0.  0.
          4    1    3    3  501    0 -0.85298391260E+02  0.12481692867E+03  0.43641826348E+03  0.46186143153E+03  0.00000000000E+00 0.  1.
   -9000007    1    1    2    0  503  0.26245865976E+02 -0.46792761130E+03  0.18992363920E+02  0.61644610858E+03  0.40000000000E+03 0.  1.
<mgrwt>
<rscale>  2 0.61614004E+03</rscale>
<asrwt>0</asrwt>
<pdfrwt beam="1">  1       21 0.15552161E+00 0.61615347E+03</pdfrwt>
<pdfrwt beam="2">  1       21 0.67019429E-01 0.61615347E+03</pdfrwt>
<totfact> 0.43067175E+02</totfact>
</mgrwt>
</event>
<event>
 6    1  0.9094387E-004  0.5202879E+03  0.7818608E-02  0.1008619E+00
         21   -1    0    0  501  502  0.00000000000E+00  0.00000000000E+00  0.19039463651E+04  0.19039463651E+04  0.00000000000E+00 0. -1.
         21   -1    0    0  502  503 -0.00000000000E+00 -0.00000000000E+00 -0.14447817996E+03  0.14447817996E+03  0.00000000000E+00 0.  1.
    9000007    2    1    2  501    0  0.24422130987E+03  0.22595457140E+03  0.75001809191E+03  0.91277979108E+03  0.39992535839E+03 0.  0.
    9000005    1    3    3    0    0  0.34765789917E+03  0.11737004727E+03  0.57725522868E+03  0.68400755981E+03  0.99999687468E+00 0.  0.
          4    1    3    3  501    0 -0.10343658930E+03  0.10858452413E+03  0.17276286323E+03  0.22877223127E+03  0.00000000000E+00 0.  1.
   -9000007    1    1    2    0  503 -0.24422130987E+03 -0.22595457140E+03  0.10094500932E+04  0.11356447540E+04  0.40000000000E+03 0. -1.
<mgrwt>
<rscale>  2 0.52027357E+03</rscale>
<asrwt>0</asrwt>
<pdfrwt beam="1">  1       21 0.29291481E+00 0.52028792E+03</pdfrwt>
<pdfrwt beam="2">  1       21 0.22227414E-01 0.52028792E+03</pdfrwt>
<totfact> 0.54832961E+02</totfact>
</mgrwt>
</event>
<event>
 6    1  0.9094387E-004  0.5614200E+03  0.7818608E-02  0.9988953E-01
         21   -1    0    0  501  502  0.00000000000E+00  0.00000000000E+00  0.38173604498E+03  0.38173604498E+03  0.00000000000E+00 0.  1.
         21   -1    0    0  502  503 -0.00000000000E+00 -0.00000000000E+00 -0.83114146088E+03  0.83114146088E+03  0.00000000000E+00 0.  1.
    9000007    2    1    2  501    0 -0.23467853762E+03  0.31641491162E+03 -0.17428325773E+03  0.58766984898E+03  0.39973589426E+03 0.  0.
    9000005    1    3    3    0    0 -0.11634620372E+03  0.32543276890E+03 -0.26727723230E+03  0.43689935351E+03  0.99999687468E+00 0.  0.
          4    1    3    3  501    0 -0.11833233390E+03 -0.90178572803E+01  0.92993974576E+02  0.15077049547E+03  0.00000000000E+00 0.  1.
   -9000007    1    1    2    0  503  0.23467853762E+03 -0.31641491162E+03 -0.27512215817E+03  0.62520765689E+03  0.40000000000E+03 0.  1.
<mgrwt>
<rscale>  2 0.56137296E+03</rscale>
<asrwt>0</asrwt>
<pdfrwt beam="1">  1       21 0.58728623E-01 0.56142000E+03</pdfrwt>
<pdfrwt beam="2">  1       21 0.12786792E+00 0.56142000E+03</pdfrwt>
<totfact> 0.99525836E+02</totfact>
</mgrwt>
</event>
<event>
 6    1  0.9094387E-004  0.4547545E+03  0.7818608E-02  0.1026354E+00
         21   -1    0    0  501  502  0.00000000000E+00  0.00000000000E+00  0.11043130378E+04  0.11043130378E+04  0.00000000000E+00 0. -1.
         21   -1    0    0  502  503 -0.00000000000E+00 -0.00000000000E+00 -0.18707091269E+03  0.18707091269E+03  0.00000000000E+00 0. -1.
    9000007    2    1    2  501    0  0.18163073143E+03 -0.11752403195E+03  0.46658724347E+03  0.65115630112E+03  0.39937357453E+03 0.  0.
    9000005    1    3    3    0    0  0.28620965301E+03 -0.17314649345E+03  0.36513803893E+03  0.49519941552E+03  0.99999687468E+00 0.  0.
          4    1    3    3  501    0 -0.10457892158E+03  0.55622461501E+02  0.10144920454E+03  0.15595688559E+03  0.00000000000E+00 0.  1.
   -9000007    1    1    2    0  503 -0.18163073143E+03  0.11752403195E+03  0.45065488165E+03  0.64022764939E+03  0.40000000000E+03 0. -1.
<mgrwt>
<rscale>  2 0.45461667E+03</rscale>
<asrwt>0</asrwt>
<pdfrwt beam="1">  1       21 0.16989431E+00 0.45475446E+03</pdfrwt>
<pdfrwt beam="2">  1       21 0.28780141E-01 0.45475446E+03</pdfrwt>
<totfact> 0.21026672E+03</totfact>
</mgrwt>
</event>
<event>
 6    1  0.9094387E-004  0.4585554E+03  0.7818608E-02  0.1025306E+00
         21   -1    0    0  501  502  0.00000000000E+00  0.00000000000E+00  0.16549749850E+03  0.16549749850E+03  0.00000000000E+00 0.  1.
         21   -1    0    0  502  503 -0.00000000000E+00 -0.00000000000E+00 -0.12697743075E+04  0.12697743075E+04  0.00000000000E+00 0.  1.
    9000007    2    1    2  501    0 -0.16875168097E+03  0.14763427549E+03 -0.51526188746E+03  0.68880574050E+03  0.39835351932E+03 0.  0.
    9000005    1    3    3    0    0  0.64789418225E+02  0.50292101012E+02 -0.40428481879E+03  0.41252173135E+03  0.99999687468E+00 0.  0.
          4    1    3    3  501    0 -0.23354109919E+03  0.97342174478E+02 -0.11097706867E+03  0.27628400915E+03  0.00000000000E+00 0.  1.
   -9000007    1    1    2    0  503  0.16875168097E+03 -0.14763427549E+03 -0.58901492150E+03  0.74646606545E+03  0.40000000000E+03 0.  1.
<mgrwt>
<rscale>  2 0.45819605E+03</rscale>
<asrwt>0</asrwt>
<pdfrwt beam="1">  1       21 0.25461154E-01 0.45855535E+03</pdfrwt>
<pdfrwt beam="2">  1       21 0.19534989E+00 0.45855535E+03</pdfrwt>
<totfact> 0.17714891E+03</totfact>
</mgrwt>
</event>
<event>
 6    1  0.9094387E-004  0.5335964E+03  0.7818608E-02  0.1005377E+00
         21   -1    0    0  501  502  0.00000000000E+00  0.00000000000E+00  0.24990799867E+03  0.24990799867E+03  0.00000000000E+00 0.  1.
         21   -1    0    0  502  503 -0.00000000000E+00 -0.00000000000E+00 -0.11641009371E+04  0.11641009371E+04  0.00000000000E+00 0. -1.
    9000007    2    1    2  501    0  0.34985600146E+03  0.45701837870E+02 -0.56132742688E+03  0.77447633377E+03  0.40029642974E+03 0.  0.
    9000005    1    3    3    0    0  0.11891147362E+03  0.17360972067E+03 -0.43194586570E+03  0.48047737154E+03  0.99999687468E+00 0.  0.
          4    1    3    3  501    0  0.23094452785E+03 -0.12790788280E+03 -0.12938156118E+03  0.29399896224E+03  0.00000000000E+00 0.  1.
   -9000007    1    1    2    0  503 -0.34985600146E+03 -0.45701837870E+02 -0.35286551150E+03  0.63953260195E+03  0.40000000000E+03 0.  1.
<mgrwt>
<rscale>  2 0.53354080E+03</rscale>
<asrwt>0</asrwt>
<pdfrwt beam="1">  1       21 0.38447386E-01 0.53359639E+03</pdfrwt>
<pdfrwt beam="2">  1       21 0.17909245E+00 0.53359639E+03</pdfrwt>
<totfact> 0.97689635E+02</totfact>
</mgrwt>
</event>
<event>
 6    1  0.9094387E-004  0.4459656E+03  0.7818608E-02  0.1028999E+00
         21   -1    0    0  501  502  0.00000000000E+00  0.00000000000E+00  0.10421737741E+04  0.10421737741E+04  0.00000000000E+00 0.  1.
         21   -1    0    0  502  503 -0.00000000000E+00 -0.00000000000E+00 -0.19058603594E+03  0.19058603594E+03  0.00000000000E+00 0.  1.
    9000007    2    1    2  501    0  0.46433399919E+02  0.18957999623E+03  0.44216545552E+03  0.62800924894E+03  0.40098465196E+03 0.  0.
    9000005    1    3    3    0    0 -0.17048134676E+03  0.91183260572E+02  0.12071359100E+03  0.22792772461E+03  0.99999687468E+00 0.  0.
          4    1    3    3  501    0  0.21691474667E+03  0.98396735658E+02  0.32145186452E+03  0.40008152434E+03  0.00000000000E+00 0.  1.
   -9000007    1    1    2    0  503 -0.46433399919E+02 -0.18957999623E+03  0.40942228262E+03  0.60475056106E+03  0.40000000000E+03 0.  1.
<mgrwt>
<rscale>  2 0.44574416E+03</rscale>
<asrwt>0</asrwt>
<pdfrwt beam="1">  1       21 0.16033442E+00 0.44596561E+03</pdfrwt>
<pdfrwt beam="2">  1       21 0.29320929E-01 0.44596561E+03</pdfrwt>
<totfact> 0.23941023E+03</totfact>
</mgrwt>
</event>
<event>
 6    1  0.9094387E-004  0.6435164E+03  0.7818608E-02  0.9819335E-01
         21   -1    0    0  501  502  0.00000000000E+00  0.00000000000E+00  0.10854803321E+04  0.10854803321E+04  0.00000000000E+00 0.  1.
         21   -1    0    0  502  503 -0.00000000000E+00 -0.00000000000E+00 -0.42614236673E+03  0.42614236673E+03  0.00000000000E+00 0. -1.
    9000007    2    1    2  501    0 -0.50407198924E+03 -0.49747368354E+01  0.57520765769E+03  0.86263022811E+03  0.39894077585E+03 0.  0.
    9000005    1    3    3    0    0 -0.17735657204E+03  0.10428663479E+03  0.45223562251E+03  0.49683912296E+03  0.99999687468E+00 0.  0.
          4    1    3    3  501    0 -0.32671541721E+03 -0.10926137163E+03  0.12297203518E+03  0.36579110515E+03  0.00000000000E+00 0.  1.
   -9000007    1    1    2    0  503  0.50407198924E+03  0.49747368354E+01  0.84130307647E+02  0.64899247069E+03  0.40000000000E+03 0. -1.
<mgrwt>
<rscale>  2 0.64335184E+03</rscale>
<asrwt>0</asrwt>
<pdfrwt beam="1">  1       21 0.16699697E+00 0.64351637E+03</pdfrwt>
<pdfrwt beam="2">  1       21 0.65560364E-01 0.64351637E+03</pdfrwt>
<totfact> 0.36669910E+02</totfact>
</mgrwt>
</event>
<event>
 6    1  0.9094387E-004  0.4515458E+03  0.7818608E-02  0.1027286E+00
         21   -1    0    0  501  502  0.00000000000E+00  0.00000000000E+00  0.25987336834E+03  0.25987336834E+03  0.00000000000E+00 0. -1.
         21   -1    0    0  502  503 -0.00000000000E+00 -0.00000000000E+00 -0.84097937221E+03  0.84097937221E+03  0.00000000000E+00 0. -1.
    9000007    2    1    2  501    0  0.18288151958E+02  0.20799648838E+03 -0.43390285296E+03  0.62623103506E+03  0.40037061304E+03 0.  0.
    9000005    1    3    3    0    0  0.79816791083E+02 -0.39667659527E+02 -0.34447842894E+03  0.35582387687E+03  0.99999687468E+00 0.  0.
          4    1    3    3  501    0 -0.61528639125E+02  0.24766414790E+03 -0.89424424024E+02  0.27040715819E+03  0.00000000000E+00 0.  1.
   -9000007    1    1    2    0  503 -0.18288151958E+02 -0.20799648838E+03 -0.14720315090E+03  0.47462170548E+03  0.40000000000E+03 0. -1.
<mgrwt>
<rscale>  2 0.45146365E+03</rscale>
<asrwt>0</asrwt>
<pdfrwt beam="1">  1       21 0.39980518E-01 0.45154582E+03</pdfrwt>
<pdfrwt beam="2">  1       21 0.12938144E+00 0.45154582E+03</pdfrwt>
<totfact> 0.22711921E+03</totfact>
</mgrwt>
</event>
<event>
 6    1  0.9094387E-004  0.4060829E+03  0.7818608E-02  0.1041705E+00
         21   -1    0    0  501  502  0.00000000000E+00  0.00000000000E+00  0.41130282948E+03  0.41130282948E+03  0.00000000000E+00 0. -1.
         21   -1    0    0  502  503 -0.00000000000E+00 -0.00000000000E+00 -0.40105315863E+03  0.40105315863E+03  0.00000000000E+00 0. -1.
    9000007    2    1    2  501    0  0.68764130503E+02 -0.13220831199E+02  0.15522843897E+02  0.40623888385E+03  0.39985719457E+03 0.  0.
    9000005    1    3    3    0    0 -0.40808058558E+02  0.11519314819E+03  0.14779663859E+03  0.19178009648E+03  0.99999687468E+00 0.  0.
          4    1    3    3  501    0  0.10957218906E+03 -0.12841397939E+03 -0.13227379469E+03  0.21445878737E+03  0.00000000000E+00 0.  1.
   -9000007    1    1    2    0  503 -0.68764130503E+02  0.13220831199E+02 -0.52731730440E+01  0.40611710426E+03  0.40000000000E+03 0.  1.
<mgrwt>
<rscale>  2 0.40604770E+03</rscale>
<asrwt>0</asrwt>
<pdfrwt beam="1">  1       21 0.63277358E-01 0.40608287E+03</pdfrwt>
<pdfrwt beam="2">  1       21 0.61700486E-01 0.40608287E+03</pdfrwt>
<totfact> 0.50364404E+03</totfact>
</mgrwt>
</event>
<event>
 6    1  0.9094387E-004  0.4948884E+03  0.7818608E-02  0.1015164E+00
         21   -1    0    0  501  502  0.00000000000E+00  0.00000000000E+00  0.50830775072E+03  0.50830775072E+03  0.00000000000E+00 0.  1.
         21   -1    0    0  502  503 -0.00000000000E+00 -0.00000000000E+00 -0.23223679440E+04  0.23223679440E+04  0.00000000000E+00 0.  1.
    9000007    2    1    2  501    0 -0.63975203636E+02  0.28316960822E+03  0.35305396877E+03  0.60791577851E+03  0.40079500396E+03 0.  0.
    9000005    1    3    3    0    0 -0.21575605186E+03  0.62608535579E+02  0.13090059972E+03  0.26001244132E+03  0.99999687468E+00 0.  0.
          4    1    3    3  501    0  0.15178084822E+03  0.22056107264E+03  0.22215336905E+03  0.34790333720E+03  0.00000000000E+00 0.  1.
   -9000007    1    1    2    0  503  0.63975203636E+02 -0.28316960822E+03 -0.21671141621E+04  0.22227599162E+04  0.40000000000E+03 0.  1.
<mgrwt>
<rscale>  2 0.49472737E+03</rscale>
<asrwt>0</asrwt>
<pdfrwt beam="1">  1       21 0.78201192E-01 0.49488836E+03</pdfrwt>
<pdfrwt beam="2">  1       21 0.35728738E+00 0.49488836E+03</pdfrwt>
<totfact> 0.16258434E+01</totfact>
</mgrwt>
</event>
<event>
 6    1  0.9094387E-004  0.4045693E+03  0.7818608E-02  0.1042250E+00
         21   -1    0    0  501  502  0.00000000000E+00  0.00000000000E+00  0.42604850791E+03  0.42604850791E+03  0.00000000000E+00 0.  1.
         21   -1    0    0  502  503 -0.00000000000E+00 -0.00000000000E+00 -0.38859067307E+03  0.38859067307E+03  0.00000000000E+00 0.  1.
    9000007    2    1    2  501    0  0.18126587321E+01 -0.57316197720E+02  0.64353143952E+02  0.40965549007E+03  0.40048453298E+03 0.  0.
    9000005    1    3    3    0    0 -0.39307558698E+02  0.52722339263E+02 -0.15080212391E+03  0.16452054521E+03  0.99999687468E+00 0.  0.
          4    1    3    3  501    0  0.41120217430E+02 -0.11003853698E+03  0.21515526786E+03  0.24513494486E+03  0.00000000000E+00 0.  1.
   -9000007    1    1    2    0  503 -0.18126587321E+01  0.57316197720E+02 -0.26895309106E+02  0.40498369091E+03  0.40000000000E+03 0.  1.
<mgrwt>
<rscale>  2 0.40444931E+03</rscale>
<asrwt>0</asrwt>
<pdfrwt beam="1">  1       21 0.65545925E-01 0.40456927E+03</pdfrwt>
<pdfrwt beam="2">  1       21 0.59783180E-01 0.40456927E+03</pdfrwt>
<totfact> 0.49951551E+03</totfact>
</mgrwt>
</event>
<event>
 6    1  0.9094387E-004  0.4128549E+03  0.7818608E-02  0.1039515E+00
         21   -1    0    0  501  502  0.00000000000E+00  0.00000000000E+00  0.43629095761E+03  0.43629095761E+03  0.00000000000E+00 0.  1.
         21   -1    0    0  502  503 -0.00000000000E+00 -0.00000000000E+00 -0.49721438292E+03  0.49721438292E+03  0.00000000000E+00 0.  1.
    9000007    2    1    2  501    0  0.80625913464E+02  0.54602307527E+02  0.18668110539E+03  0.45309931066E+03  0.40120717877E+03 0.  0.
    9000005    1    3    3    0    0  0.20597101172E+03 -0.74234242212E+02  0.16045971656E+03  0.27144631333E+03  0.99999687468E+00 0.  0.
          4    1    3    3  501    0 -0.12534509826E+03  0.12883654974E+03  0.26221388828E+02  0.18165299733E+03  0.00000000000E+00 0.  1.
   -9000007    1    1    2    0  503 -0.80625913464E+02 -0.54602307527E+02 -0.24760453070E+03  0.48040602987E+03  0.40000000000E+03 0.  1.
<mgrwt>
<rscale>  2 0.41256131E+03</rscale>
<asrwt>0</asrwt>
<pdfrwt beam="1">  1       21 0.67121686E-01 0.41285488E+03</pdfrwt>
<pdfrwt beam="2">  1       21 0.76494521E-01 0.41285488E+03</pdfrwt>
<totfact> 0.27233056E+03</totfact>
</mgrwt>
</event>
<event>
 6    1  0.9094387E-004  0.4594182E+03  0.7818608E-02  0.1024962E+00
         21   -1    0    0  501  502  0.00000000000E+00  0.00000000000E+00  0.35325802162E+03  0.35325802162E+03  0.00000000000E+00 0.  1.
         21   -1    0    0  502  503 -0.00000000000E+00 -0.00000000000E+00 -0.69899872115E+03  0.69899872115E+03  0.00000000000E+00 0.  1.
    9000007    2    1    2  501    0  0.19535062570E+03  0.11291232538E+03  0.27822194702E+02  0.46025987105E+03  0.40019247144E+03 0.  0.
    9000005    1    3    3    0    0 -0.10570980670E+03  0.85492899567E+02  0.73449179736E+02  0.15452954768E+03  0.99999687468E+00 0.  0.
          4    1    3    3  501    0  0.30106043240E+03  0.27419425815E+02 -0.45626985034E+02  0.30573032337E+03  0.00000000000E+00 0.  1.
   -9000007    1    1    2    0  503 -0.19535062570E+03 -0.11291232538E+03 -0.37356289423E+03  0.59199687172E+03  0.40000000000E+03 0.  1.
<mgrwt>
<rscale>  2 0.45937627E+03</rscale>
<asrwt>0</asrwt>
<pdfrwt beam="1">  1       21 0.54347388E-01 0.45941819E+03</pdfrwt>
<pdfrwt beam="2">  1       21 0.10753826E+00 0.45941819E+03</pdfrwt>
<totfact> 0.18930140E+03</totfact>
</mgrwt>
</event>
<event>
 6    1  0.9094387E-004  0.4270855E+03  0.7818608E-02  0.1034816E+00
         21   -1    0    0  501  502  0.00000000000E+00  0.00000000000E+00  0.75415414980E+02  0.75415414980E+02  0.00000000000E+00 0. -1.
         21   -1    0    0  502  503 -0.00000000000E+00 -0.00000000000E+00 -0.24232061961E+04  0.24232061961E+04  0.00000000000E+00 0. -1.
    9000007    2    1    2  501    0  0.25365473027E+02 -0.14634549095E+03 -0.12408239096E+04  0.13122675052E+04  0.40042679801E+03 0.  0.
    9000005    1    3    3    0    0  0.83700742366E+02 -0.23125219948E+03 -0.11465368500E+04  0.11726172191E+04  0.99999687468E+00 0.  0.
          4    1    3    3  501    0 -0.58335269339E+02  0.84906708537E+02 -0.94287059591E+02  0.13965028611E+03  0.00000000000E+00 0.  1.
   -9000007    1    1    2    0  503 -0.25365473027E+02  0.14634549095E+03 -0.11069668715E+04  0.11863541059E+04  0.40000000000E+03 0. -1.
<mgrwt>
<rscale>  2 0.42698544E+03</rscale>
<asrwt>0</asrwt>
<pdfrwt beam="1">  1       21 0.11602370E-01 0.42708551E+03</pdfrwt>
<pdfrwt beam="2">  1       21 0.37280099E+00 0.42708551E+03</pdfrwt>
<totfact> 0.63327678E+02</totfact>
</mgrwt>
</event>
<event>
 6    1  0.9094387E-004  0.4346602E+03  0.7818608E-02  0.1032666E+00
         21   -1    0    0  501  502  0.00000000000E+00  0.00000000000E+00  0.10847544971E+04  0.10847544971E+04  0.00000000000E+00 0.  1.
         21   -1    0    0  502  503 -0.00000000000E+00 -0.00000000000E+00 -0.17452276640E+03  0.17452276640E+03  0.00000000000E+00 0.  1.
    9000007    2    1    2  501    0 -0.16223669247E+02 -0.16931111818E+03  0.51594282707E+03  0.67242702561E+03  0.39627218144E+03 0.  0.
    9000005    1    3    3    0    0  0.98904782462E+02 -0.20229873931E+03  0.50406604625E+03  0.55207835938E+03  0.99999687468E+00 0.  0.
          4    1    3    3  501    0 -0.11512845171E+03  0.32987621132E+02  0.11876780824E+02  0.12034866623E+03  0.00000000000E+00 0.  1.
   -9000007    1    1    2    0  503  0.16223669247E+02  0.16931111818E+03  0.39428890365E+03  0.58685023790E+03  0.40000000000E+03 0. -1.
<mgrwt>
<rscale>  2 0.43380060E+03</rscale>
<asrwt>0</asrwt>
<pdfrwt beam="1">  1       21 0.16688530E+00 0.43466017E+03</pdfrwt>
<pdfrwt beam="2">  1       21 0.26849657E-01 0.43466017E+03</pdfrwt>
<totfact> 0.25567035E+03</totfact>
</mgrwt>
</event>
<event>
 6    1  0.9094387E-004  0.5065329E+03  0.7818608E-02  0.1012179E+00
         21   -1    0    0  501  502  0.00000000000E+00  0.00000000000E+00  0.21486297028E+03  0.21486297028E+03  0.00000000000E+00 0. -1.
         21   -1    0    0  502  503 -0.00000000000E+00 -0.00000000000E+00 -0.16917638780E+04  0.16917638780E+04  0.00000000000E+00 0. -1.
    9000007    2    1    2  501    0  0.22643642277E+03 -0.21284304706E+03 -0.21893958889E+03  0.55051391201E+03  0.39819016499E+03 0.  0.
    9000005    1    3    3    0    0  0.11169129683E+03 -0.26820493773E+03  0.75710086941E+01  0.29063233574E+03  0.99999687468E+00 0.  0.
          4    1    3    3  501    0  0.11474512594E+03  0.55361890674E+02 -0.22651059759E+03  0.25988157627E+03  0.00000000000E+00 0.  1.
   -9000007    1    1    2    0  503 -0.22643642277E+03  0.21284304706E+03 -0.12579613188E+04  0.13561129362E+04  0.40000000000E+03 0. -1.
<mgrwt>
<rscale>  2 0.50617557E+03</rscale>
<asrwt>0</asrwt>
<pdfrwt beam="1">  1       21 0.33055843E-01 0.50653294E+03</pdfrwt>
<pdfrwt beam="2">  1       21 0.26027136E+00 0.50653294E+03</pdfrwt>
<totfact> 0.39877567E+02</totfact>
</mgrwt>
</event>
<event>
 6    1  0.9094387E-004  0.4197655E+03  0.7818608E-02  0.1037151E+00
         21   -1    0    0  501  502  0.00000000000E+00  0.00000000000E+00  0.15724422731E+04  0.15724422731E+04  0.00000000000E+00 0.  1.
         21   -1    0    0  502  503 -0.00000000000E+00 -0.00000000000E+00 -0.17698766185E+03  0.17698766185E+03  0.00000000000E+00 0.  1.
    9000007    2    1    2  501    0 -0.11919611704E+03  0.43699708280E+02  0.12277021970E+04  0.12974805447E+04  0.40010711128E+03 0.  0.
    9000005    1    3    3    0    0 -0.51177343291E+02  0.14265801711E+03  0.15045247353E+03  0.21355883755E+03  0.99999687468E+00 0.  0.
          4    1    3    3  501    0 -0.68018773751E+02 -0.98958308830E+02  0.10772497235E+04  0.10839217072E+04  0.00000000000E+00 0.  1.
   -9000007    1    1    2    0  503  0.11919611704E+03 -0.43699708280E+02  0.16775241417E+03  0.45194939018E+03  0.40000000000E+03 0.  1.
<mgrwt>
<rscale>  2 0.41973998E+03</rscale>
<asrwt>0</asrwt>
<pdfrwt beam="1">  1       21 0.24191419E+00 0.41976551E+03</pdfrwt>
<pdfrwt beam="2">  1       21 0.27228872E-01 0.41976551E+03</pdfrwt>
<totfact> 0.79473248E+02</totfact>
</mgrwt>
</event>
<event>
 6    1  0.9094387E-004  0.4004421E+03  0.7818608E-02  0.1043649E+00
         21   -1    0    0  501  502  0.00000000000E+00  0.00000000000E+00  0.23239002950E+03  0.23239002950E+03  0.00000000000E+00 0. -1.
         21   -1    0    0  502  503 -0.00000000000E+00 -0.00000000000E+00 -0.71511953679E+03  0.71511953679E+03  0.00000000000E+00 0. -1.
    9000007    2    1    2  501    0  0.11574100173E+02  0.14828274337E+02 -0.33081713781E+03  0.51922087216E+03  0.39974554144E+03 0.  0.
    9000005    1    3    3    0    0  0.11739935412E+03 -0.15788798858E+03 -0.18017397153E+03  0.26678621646E+03  0.99999687468E+00 0.  0.
          4    1    3    3  501    0 -0.10582525395E+03  0.17271626291E+03 -0.15064316628E+03  0.25243465570E+03  0.00000000000E+00 0.  1.
   -9000007    1    1    2    0  503 -0.11574100173E+02 -0.14828274337E+02 -0.15191236948E+03  0.42828869413E+03  0.40000000000E+03 0. -1.
<mgrwt>
<rscale>  2 0.40037849E+03</rscale>
<asrwt>0</asrwt>
<pdfrwt beam="1">  1       21 0.35752312E-01 0.40044205E+03</pdfrwt>
<pdfrwt beam="2">  1       21 0.11001839E+00 0.40044205E+03</pdfrwt>
<totfact> 0.43857988E+03</totfact>
</mgrwt>
</event>
<event>
 6    1  0.9094387E-004  0.4074051E+03  0.7818608E-02  0.1041671E+00
         21   -1    0    0  501  502  0.00000000000E+00  0.00000000000E+00  0.38869763548E+03  0.38869763548E+03  0.00000000000E+00 0.  1.
         21   -1    0    0  502  503 -0.00000000000E+00 -0.00000000000E+00 -0.45582049100E+03  0.45582049100E+03  0.00000000000E+00 0.  1.
    9000007    2    1    2  501    0  0.13398675038E+02 -0.76153700951E+02 -0.14874895036E+03  0.42901634547E+03  0.39490487942E+03 0.  0.
    9000005    1    3    3    0    0  0.14827320056E+03  0.82561481693E+02  0.55549681386E+01  0.16980340965E+03  0.99999687468E+00 0.  0.
          4    1    3    3  501    0 -0.13487452552E+03 -0.15871518264E+03 -0.15430391850E+03  0.25921293583E+03  0.00000000000E+00 0.  1.
   -9000007    1    1    2    0  503 -0.13398675038E+02  0.76153700951E+02  0.81626094839E+02  0.41550178101E+03  0.40000000000E+03 0.  1.
<mgrwt>
<rscale>  2 0.40614896E+03</rscale>
<asrwt>0</asrwt>
<pdfrwt beam="1">  1       21 0.59799636E-01 0.40740509E+03</pdfrwt>
<pdfrwt beam="2">  1       21 0.70126229E-01 0.40740509E+03</pdfrwt>
<totfact> 0.42884656E+03</totfact>
</mgrwt>
</event>
<event>
 6    1  0.9094387E-004  0.4114895E+03  0.7818608E-02  0.1040047E+00
         21   -1    0    0  501  502  0.00000000000E+00  0.00000000000E+00  0.12017301888E+04  0.12017301888E+04  0.00000000000E+00 0. -1.
         21   -1    0    0  502  503 -0.00000000000E+00 -0.00000000000E+00 -0.22646066151E+03  0.22646066151E+03  0.00000000000E+00 0. -1.
    9000007    2    1    2  501    0  0.55887844379E+02 -0.66993155222E+02  0.92915857855E+03  0.10161984309E+04  0.40213437176E+03 0.  0.
    9000005    1    3    3    0    0  0.96619551910E+02 -0.35727471529E+02  0.95372753613E+03  0.95927524892E+03  0.99999687468E+00 0.  0.
          4    1    3    3  501    0 -0.40731707530E+02 -0.31265683692E+02 -0.24568957573E+02  0.56923182020E+02  0.00000000000E+00 0.  1.
   -9000007    1    1    2    0  503 -0.55887844379E+02  0.66993155222E+02  0.46110948702E+02  0.41199241933E+03  0.40000000000E+03 0. -1.
<mgrwt>
<rscale>  2 0.41096708E+03</rscale>
<asrwt>0</asrwt>
<pdfrwt beam="1">  1       21 0.18488156E+00 0.41148947E+03</pdfrwt>
<pdfrwt beam="2">  1       21 0.34840102E-01 0.41148947E+03</pdfrwt>
<totfact> 0.11450679E+03</totfact>
</mgrwt>
</event>
<event>
 6    1  0.9094387E-004  0.4282990E+03  0.7818608E-02  0.1034469E+00
         21   -1    0    0  501  502  0.00000000000E+00  0.00000000000E+00  0.55635770175E+03  0.55635770175E+03  0.00000000000E+00 0.  1.
         21   -1    0    0  502  503 -0.00000000000E+00 -0.00000000000E+00 -0.35224080102E+03  0.35224080102E+03  0.00000000000E+00 0. -1.
    9000007    2    1    2  501    0  0.12673811494E+03 -0.85892061403E+02 -0.14659006944E+02  0.42765890805E+03  0.39904543495E+03 0.  0.
    9000005    1    3    3    0    0  0.90323142678E+02 -0.24600673668E+03 -0.24183796497E+02  0.26317948362E+03  0.99999687468E+00 0.  0.
          4    1    3    3  501    0  0.36414972261E+02  0.16011467527E+03  0.95247895531E+01  0.16447942442E+03  0.00000000000E+00 0.  1.
   -9000007    1    1    2    0  503 -0.12673811494E+03  0.85892061403E+02  0.21877590767E+03  0.48093959472E+03  0.40000000000E+03 0.  1.
<mgrwt>
<rscale>  2 0.42807594E+03</rscale>
<asrwt>0</asrwt>
<pdfrwt beam="1">  1       21 0.85593493E-01 0.42829896E+03</pdfrwt>
<pdfrwt beam="2">  1       21 0.54190892E-01 0.42829896E+03</pdfrwt>
<totfact> 0.33363627E+03</totfact>
</mgrwt>
</event>
<event>
 6    1  0.9094387E-004  0.4297187E+03  0.7818608E-02  0.1033980E+00
         21   -1    0    0  501  502  0.00000000000E+00  0.00000000000E+00  0.12622687152E+03  0.12622687152E+03  0.00000000000E+00 0. -1.
         21   -1    0    0  502  503 -0.00000000000E+00 -0.00000000000E+00 -0.16529476194E+04  0.16529476194E+04  0.00000000000E+00 0. -1.
    9000007    2    1    2  501    0 -0.89366260830E+02 -0.12778289798E+03 -0.46096121789E+03  0.63019312756E+03  0.40042894006E+03 0.  0.
    9000005    1    3    3    0    0 -0.12527072670E+03  0.56793282777E+02 -0.57420526401E+01  0.13766700076E+03  0.99999687468E+00 0.  0.
          4    1    3    3  501    0  0.35904465867E+02 -0.18457618075E+03 -0.45521916525E+03  0.49252612680E+03  0.00000000000E+00 0.  1.
   -9000007    1    1    2    0  503  0.89366260830E+02  0.12778289798E+03 -0.10657595300E+04  0.11489813633E+04  0.40000000000E+03 0. -1.
<mgrwt>
<rscale>  2 0.42961871E+03</rscale>
<asrwt>0</asrwt>
<pdfrwt beam="1">  1       21 0.19419518E-01 0.42971867E+03</pdfrwt>
<pdfrwt beam="2">  1       21 0.25429965E+00 0.42971867E+03</pdfrwt>
<totfact> 0.12732119E+03</totfact>
</mgrwt>
</event>
<event>
 6    1  0.9094387E-004  0.5199916E+03  0.7818608E-02  0.1008714E+00
         21   -1    0    0  501  502  0.00000000000E+00  0.00000000000E+00  0.47823832126E+03  0.47823832126E+03  0.00000000000E+00 0. -1.
         21   -1    0    0  502  503 -0.00000000000E+00 -0.00000000000E+00 -0.57806869168E+03  0.57806869168E+03  0.00000000000E+00 0. -1.
    9000007    2    1    2  501    0  0.32825429327E+03 -0.51384834797E+02 -0.12944890167E+03  0.53547254817E+03  0.39947784594E+03 0.  0.
    9000005    1    3    3    0    0  0.15199111443E+03 -0.11434628191E+03 -0.24903393056E+03  0.31336124460E+03  0.99999687468E+00 0.  0.
          4    1    3    3  501    0  0.17626317884E+03  0.62961447112E+02  0.11958502889E+03  0.22211130357E+03  0.00000000000E+00 0.  1.
   -9000007    1    1    2    0  503 -0.32825429327E+03  0.51384834797E+02  0.29618531250E+02  0.52083446477E+03  0.40000000000E+03 0. -1.
<mgrwt>
<rscale>  2 0.51989120E+03</rscale>
<asrwt>0</asrwt>
<pdfrwt beam="1">  1       21 0.73575127E-01 0.51999162E+03</pdfrwt>
<pdfrwt beam="2">  1       21 0.88933645E-01 0.51999162E+03</pdfrwt>
<totfact> 0.15000220E+03</totfact>
</mgrwt>
</event>
<event>
 6    1  0.9094387E-004  0.4113021E+03  0.7818608E-02  0.1039964E+00
         21   -1    0    0  501  502  0.00000000000E+00  0.00000000000E+00  0.87188290468E+03  0.87188290468E+03  0.00000000000E+00 0.  1.
         21   -1    0    0  502  503 -0.00000000000E+00 -0.00000000000E+00 -0.19752639056E+03  0.19752639056E+03  0.00000000000E+00 0.  1.
    9000007    2    1    2  501    0 -0.31106195336E+02  0.88943496554E+02  0.41016067161E+03  0.58086248667E+03  0.40036347350E+03 0.  0.
    9000005    1    3    3    0    0 -0.17485439334E+03  0.13044678469E+03  0.10742045990E+03  0.24316779743E+03  0.99999687468E+00 0.  0.
          4    1    3    3  501    0  0.14374819800E+03 -0.41503288138E+02  0.30274021171E+03  0.33769468924E+03  0.00000000000E+00 0.  1.
   -9000007    1    1    2    0  503  0.31106195336E+02 -0.88943496554E+02  0.26419584251E+03  0.48854680857E+03  0.40000000000E+03 0.  1.
<mgrwt>
<rscale>  2 0.41121366E+03</rscale>
<asrwt>0</asrwt>
<pdfrwt beam="1">  1       21 0.13413583E+00 0.41130214E+03</pdfrwt>
<pdfrwt beam="2">  1       21 0.30388676E-01 0.41130214E+03</pdfrwt>
<totfact> 0.36567519E+03</totfact>
</mgrwt>
</event>
<event>
 6    1  0.9094387E-004  0.4359667E+03  0.7818608E-02  0.1031999E+00
         21   -1    0    0  501  502  0.00000000000E+00  0.00000000000E+00  0.49163517821E+03  0.49163517821E+03  0.00000000000E+00 0.  1.
         21   -1    0    0  502  503 -0.00000000000E+00 -0.00000000000E+00 -0.38671498770E+03  0.38671498770E+03  0.00000000000E+00 0.  1.
    9000007    2    1    2  501    0  0.51410712813E+02  0.16560154386E+03  0.62446614008E+02  0.44031941651E+03  0.39989333107E+03 0.  0.
    9000005    1    3    3    0    0 -0.15500392815E+03 -0.13562547470E+02 -0.14762947005E+02  0.15629812869E+03  0.99999687468E+00 0.  0.
          4    1    3    3  501    0  0.20641464096E+03  0.17916409133E+03  0.77209561013E+02  0.28402128782E+03  0.00000000000E+00 0.  1.
   -9000007    1    1    2    0  503 -0.51410712813E+02 -0.16560154386E+03  0.42473576509E+02  0.43803074940E+03  0.40000000000E+03 0.  1.
<mgrwt>
<rscale>  2 0.43594220E+03</rscale>
<asrwt>0</asrwt>
<pdfrwt beam="1">  1       21 0.75636181E-01 0.43596666E+03</pdfrwt>
<pdfrwt beam="2">  1       21 0.59494614E-01 0.43596666E+03</pdfrwt>
<totfact> 0.36162216E+03</totfact>
</mgrwt>
</event>
<event>
 6    1  0.9094387E-004  0.6453699E+03  0.7818608E-02  0.9815662E-01
         21   -1    0    0  501  502  0.00000000000E+00  0.00000000000E+00  0.92788414083E+03  0.92788414083E+03  0.00000000000E+00 0. -1.
         21   -1    0    0  502  503 -0.00000000000E+00 -0.00000000000E+00 -0.50655978277E+03  0.50655978277E+03  0.00000000000E+00 0. -1.
    9000007    2    1    2  501    0  0.34506492059E+03  0.37014482609E+03  0.45322387867E+03  0.78861533093E+03  0.40053122759E+03 0.  0.
    9000005    1    3    3    0    0  0.31406043313E+02  0.27945117607E+03  0.34401671684E+03  0.44432848302E+03  0.99999687468E+00 0.  0.
          4    1    3    3  501    0  0.31365887728E+03  0.90693650022E+02  0.10920716183E+03  0.34428684791E+03  0.00000000000E+00 0.  1.
   -9000007    1    1    2    0  503 -0.34506492059E+03 -0.37014482609E+03 -0.31899520602E+02  0.64582859268E+03  0.40000000000E+03 0. -1.
<mgrwt>
<rscale>  2 0.64528745E+03</rscale>
<asrwt>0</asrwt>
<pdfrwt beam="1">  1       21 0.14275141E+00 0.64536986E+03</pdfrwt>
<pdfrwt beam="2">  1       21 0.77932274E-01 0.64536986E+03</pdfrwt>
<totfact> 0.38232295E+02</totfact>
</mgrwt>
</event>
<event>
 6    1  0.9094387E-004  0.4322722E+03  0.7818608E-02  0.1033146E+00
         21   -1    0    0  501  502  0.00000000000E+00  0.00000000000E+00  0.10743139787E+04  0.10743139787E+04  0.00000000000E+00 0.  1.
         21   -1    0    0  502  503 -0.00000000000E+00 -0.00000000000E+00 -0.64007234404E+03  0.64007234404E+03  0.00000000000E+00 0.  1.
    9000007    2    1    2  501    0 -0.60073830227E+02 -0.15242843315E+03  0.94864045529E+03  0.10424864500E+04  0.40001999046E+03 0.  0.
    9000005    1    3    3    0    0 -0.28389637105E+02  0.13528107621E+03  0.38114185657E+03  0.40543440395E+03  0.99999687468E+00 0.  0.
          4    1    3    3  501    0 -0.31684193122E+02 -0.28770950936E+03  0.56749859871E+03  0.63705204608E+03  0.00000000000E+00 0.  1.
   -9000007    1    1    2    0  503  0.60073830227E+02  0.15242843315E+03 -0.51439882061E+03  0.67189987272E+03  0.40000000000E+03 0.  1.
<mgrwt>
<rscale>  2 0.43226761E+03</rscale>
<asrwt>0</asrwt>
<pdfrwt beam="1">  1       21 0.16527907E+00 0.43227223E+03</pdfrwt>
<pdfrwt beam="2">  1       21 0.98472668E-01 0.43227223E+03</pdfrwt>
<totfact> 0.16050093E+02</totfact>
</mgrwt>
</event>
<event>
 6    1  0.9094387E-004  0.4108962E+03  0.7818608E-02  0.1040109E+00
         21   -1    0    0  501  502  0.00000000000E+00  0.00000000000E+00  0.60351429916E+03  0.60351429916E+03  0.00000000000E+00 0. -1.
         21   -1    0    0  502  503 -0.00000000000E+00 -0.00000000000E+00 -0.28030611331E+03  0.28030611331E+03  0.00000000000E+00 0. -1.
    9000007    2    1    2  501    0  0.71195335256E+02  0.61375467508E+02  0.13701501266E+03  0.43270665573E+03  0.39953249236E+03 0.  0.
    9000005    1    3    3    0    0 -0.61681622308E+02 -0.13220107713E+03  0.13370675533E+03  0.19788947355E+03  0.99999687468E+00 0.  0.
          4    1    3    3  501    0  0.13287695756E+03  0.19357654464E+03  0.33082573232E+01  0.23481718219E+03  0.00000000000E+00 0.  1.
   -9000007    1    1    2    0  503 -0.71195335256E+02 -0.61375467508E+02  0.18619317319E+03  0.45111375673E+03  0.40000000000E+03 0.  1.
<mgrwt>
<rscale>  2 0.41078242E+03</rscale>
<asrwt>0</asrwt>
<pdfrwt beam="1">  1       21 0.92848353E-01 0.41089624E+03</pdfrwt>
<pdfrwt beam="2">  1       21 0.43124018E-01 0.41089624E+03</pdfrwt>
<totfact> 0.44913643E+03</totfact>
</mgrwt>
</event>
<event>
 6    1  0.9094387E-004  0.4602115E+03  0.7818608E-02  0.1024773E+00
         21   -1    0    0  501  502  0.00000000000E+00  0.00000000000E+00  0.56885034041E+03  0.56885034041E+03  0.00000000000E+00 0.  1.
         21   -1    0    0  502  503 -0.00000000000E+00 -0.00000000000E+00 -0.43030254047E+03  0.43030254047E+03  0.00000000000E+00 0. -1.
    9000007    2    1    2  501    0 -0.28625085359E+02  0.22577702826E+03 -0.11509697772E+03  0.47367182962E+03  0.39915288537E+03 0.  0.
    9000005    1    3    3    0    0 -0.13392174912E+03  0.24092922322E+03 -0.19750683463E+03  0.33910451960E+03  0.99999687468E+00 0.  0.
          4    1    3    3  501    0  0.10529666376E+03 -0.15152194966E+02  0.82409856914E+02  0.13456731003E+03  0.00000000000E+00 0.  1.
   -9000007    1    1    2    0  503  0.28625085359E+02 -0.22577702826E+03  0.25364477766E+03  0.52548105126E+03  0.40000000000E+03 0.  1.
<mgrwt>
<rscale>  2 0.46002741E+03</rscale>
<asrwt>0</asrwt>
<pdfrwt beam="1">  1       21 0.87515437E-01 0.46021154E+03</pdfrwt>
<pdfrwt beam="2">  1       21 0.66200391E-01 0.46021154E+03</pdfrwt>
<totfact> 0.20189308E+03</totfact>
</mgrwt>
</event>
<event>
 6    1  0.9094387E-004  0.4216514E+03  0.7818608E-02  0.1036618E+00
         21   -1    0    0  501  502  0.00000000000E+00  0.00000000000E+00  0.68390831887E+03  0.68390831887E+03  0.00000000000E+00 0. -1.
         21   -1    0    0  502  503 -0.00000000000E+00 -0.00000000000E+00 -0.30564803119E+03  0.30564803119E+03  0.00000000000E+00 0. -1.
    9000007    2    1    2  501    0  0.38527814698E+02  0.12406801523E+03  0.38201963370E+03  0.56897175976E+03  0.40113912545E+03 0.  0.
    9000005    1    3    3    0    0 -0.13423951023E+03 -0.19111506338E+02  0.11862505029E+02  0.13611471192E+03  0.99999687468E+00 0.  0.
          4    1    3    3  501    0  0.17276732493E+03  0.14317952157E+03  0.37015712868E+03  0.43285704784E+03  0.00000000000E+00 0.  1.
   -9000007    1    1    2    0  503 -0.38527814698E+02 -0.12406801523E+03 -0.37593460258E+01  0.42058459029E+03  0.40000000000E+03 0.  1.
<mgrwt>
<rscale>  2 0.42138020E+03</rscale>
<asrwt>0</asrwt>
<pdfrwt beam="1">  1       21 0.10521666E+00 0.42165135E+03</pdfrwt>
<pdfrwt beam="2">  1       21 0.47022774E-01 0.42165135E+03</pdfrwt>
<totfact> 0.27585151E+03</totfact>
</mgrwt>
</event>
<event>
 6    1  0.9094387E-004  0.4782415E+03  0.7818608E-02  0.1019765E+00
         21   -1    0    0  501  502  0.00000000000E+00  0.00000000000E+00  0.59051653321E+03  0.59051653321E+03  0.00000000000E+00 0.  1.
         21   -1    0    0  502  503 -0.00000000000E+00 -0.00000000000E+00 -0.39096116354E+03  0.39096116354E+03  0.00000000000E+00 0. -1.
    9000007    2    1    2  501    0  0.57312085704E-03  0.26213536229E+03  0.15692781344E+03  0.50134015737E+03  0.39749297679E+03 0.  0.
    9000005    1    3    3    0    0  0.18075693724E+03  0.22708088156E+03  0.74765850221E+02  0.29971608146E+03  0.99999687468E+00 0.  0.
          4    1    3    3  501    0 -0.18075636412E+03  0.35054480733E+02  0.82161963219E+02  0.20162407592E+03  0.00000000000E+00 0.  1.
   -9000007    1    1    2    0  503 -0.57312085706E-03 -0.26213536229E+03  0.42627556228E+02  0.48013753937E+03  0.40000000000E+03 0. -1.
<mgrwt>
<rscale>  2 0.47771693E+03</rscale>
<asrwt>0</asrwt>
<pdfrwt beam="1">  1       21 0.90848698E-01 0.47824152E+03</pdfrwt>
<pdfrwt beam="2">  1       21 0.60147871E-01 0.47824152E+03</pdfrwt>
<totfact> 0.22701393E+03</totfact>
</mgrwt>
</event>
<event>
 6    1  0.9094387E-004  0.5262330E+03  0.7818608E-02  0.1007284E+00
         21   -1    0    0  501  502  0.00000000000E+00  0.00000000000E+00  0.10349872877E+04  0.10349872877E+04  0.00000000000E+00 0.  1.
         21   -1    0    0  502  503 -0.00000000000E+00 -0.00000000000E+00 -0.31493796375E+03  0.31493796375E+03  0.00000000000E+00 0. -1.
    9000007    2    1    2  501    0 -0.33832621631E+03 -0.12605239446E+02  0.95816073579E+02  0.53488496313E+03  0.40286186605E+03 0.  0.
    9000005    1    3    3    0    0 -0.21048796033E+03  0.95056108278E+02 -0.12131266503E+03  0.26088044744E+03  0.99999687468E+00 0.  0.
          4    1    3    3  501    0 -0.12783825598E+03 -0.10766134772E+03  0.21712873861E+03  0.27400451569E+03  0.00000000000E+00 0.  1.
   -9000007    1    1    2    0  503  0.33832621631E+03  0.12605239446E+02  0.62423325033E+03  0.81504028829E+03  0.40000000000E+03 0.  1.
<mgrwt>
<rscale>  2 0.52568525E+03</rscale>
<asrwt>0</asrwt>
<pdfrwt beam="1">  1       21 0.15922881E+00 0.52623303E+03</pdfrwt>
<pdfrwt beam="2">  1       21 0.48451995E-01 0.52623303E+03</pdfrwt>
<totfact> 0.84564077E+02</totfact>
</mgrwt>
</event>
<event>
 6    1  0.9094387E-004  0.5273966E+03  0.7818608E-02  0.1006896E+00
         21   -1    0    0  501  502  0.00000000000E+00  0.00000000000E+00  0.40391428667E+03  0.40391428667E+03  0.00000000000E+00 0. -1.
         21   -1    0    0  502  503 -0.00000000000E+00 -0.00000000000E+00 -0.19467828310E+04  0.19467828310E+04  0.00000000000E+00 0.  1.
    9000007    2    1    2  501    0 -0.15721525422E+03 -0.30481287904E+03  0.17355566531E+03  0.55521957817E+03  0.40064907792E+03 0.  0.
    9000005    1    3    3    0    0 -0.22333142501E+02  0.54173857580E+02  0.16120863836E+03  0.17153075868E+03  0.99999687468E+00 0.  0.
          4    1    3    3  501    0 -0.13488211172E+03 -0.35898673662E+03  0.12347026950E+02  0.38368881949E+03  0.00000000000E+00 0.  1.
   -9000007    1    1    2    0  503  0.15721525422E+03  0.30481287904E+03 -0.17164242097E+04  0.17954775395E+04  0.40000000000E+03 0.  1.
<mgrwt>
<rscale>  2 0.52727336E+03</rscale>
<asrwt>0</asrwt>
<pdfrwt beam="1">  1       21 0.62140658E-01 0.52739664E+03</pdfrwt>
<pdfrwt beam="2">  1       21 0.29950506E+00 0.52739664E+03</pdfrwt>
<totfact> 0.60308406E+01</totfact>
</mgrwt>
</event>
<event>
 6    1  0.9094387E-004  0.5482679E+03  0.7818608E-02  0.1001908E+00
         21   -1    0    0  501  502  0.00000000000E+00  0.00000000000E+00  0.68170196851E+03  0.68170196851E+03  0.00000000000E+00 0. -1.
         21   -1    0    0  502  503 -0.00000000000E+00 -0.00000000000E+00 -0.57038052415E+03  0.57038052415E+03  0.00000000000E+00 0. -1.
    9000007    2    1    2  501    0  0.30128180813E+03  0.22321946424E+03  0.35406173982E+03  0.65248220233E+03  0.39971946616E+03 0.  0.
    9000005    1    3    3    0    0  0.54839753289E+02  0.28100989523E+03  0.24512036575E+03  0.37690708862E+03  0.99999687468E+00 0.  0.
          4    1    3    3  501    0  0.24644205484E+03 -0.57790430990E+02  0.10894137407E+03  0.27557511370E+03  0.00000000000E+00 0.  1.
   -9000007    1    1    2    0  503 -0.30128180813E+03 -0.22321946424E+03 -0.24274029546E+03  0.59960029033E+03  0.40000000000E+03 0. -1.
<mgrwt>
<rscale>  2 0.54821670E+03</rscale>
<asrwt>0</asrwt>
<pdfrwt beam="1">  1       21 0.10487723E+00 0.54826787E+03</pdfrwt>
<pdfrwt beam="2">  1       21 0.87750849E-01 0.54826787E+03</pdfrwt>
<totfact> 0.66201374E+02</totfact>
</mgrwt>
</event>
<event>
 6    1  0.9094387E-004  0.4020230E+03  0.7818608E-02  0.1043084E+00
         21   -1    0    0  501  502  0.00000000000E+00  0.00000000000E+00  0.34292478882E+03  0.34292478882E+03  0.00000000000E+00 0.  1.
         21   -1    0    0  502  503 -0.00000000000E+00 -0.00000000000E+00 -0.76517987120E+03  0.76517987120E+03  0.00000000000E+00 0.  1.
    9000007    2    1    2  501    0 -0.18813983300E+02  0.35616551313E+02  0.13226089819E+03  0.42318825825E+03  0.39996606361E+03 0.  0.
    9000005    1    3    3    0    0 -0.18488407284E+02 -0.16059809029E+03  0.15708250409E+03  0.22540958474E+03  0.99999687468E+00 0.  0.
          4    1    3    3  501    0 -0.32557601616E+00  0.19621464160E+03 -0.24821605898E+02  0.19777867351E+03  0.00000000000E+00 0.  1.
   -9000007    1    1    2    0  503  0.18813983300E+02 -0.35616551313E+02 -0.55451598057E+03  0.68491640176E+03  0.40000000000E+03 0.  1.
<mgrwt>
<rscale>  2 0.40201457E+03</rscale>
<asrwt>0</asrwt>
<pdfrwt beam="1">  1       21 0.52757661E-01 0.40202302E+03</pdfrwt>
<pdfrwt beam="2">  1       21 0.11771998E+00 0.40202302E+03</pdfrwt>
<totfact> 0.16489096E+03</totfact>
</mgrwt>
</event>
<event>
 6    1  0.9094387E-004  0.4729932E+03  0.7818608E-02  0.1021091E+00
         21   -1    0    0  501  502  0.00000000000E+00  0.00000000000E+00  0.34205517326E+03  0.34205517326E+03  0.00000000000E+00 0. -1.
         21   -1    0    0  502  503 -0.00000000000E+00 -0.00000000000E+00 -0.65405061998E+03  0.65405061998E+03  0.00000000000E+00 0. -1.
    9000007    2    1    2  501    0 -0.20610446314E+03  0.14520104583E+03 -0.16538146505E+03  0.50107240744E+03  0.40020011880E+03 0.  0.
    9000005    1    3    3    0    0 -0.29214611284E+03  0.41518888519E+01 -0.16561510549E+03  0.33585108692E+03  0.99999687468E+00 0.  0.
          4    1    3    3  501    0  0.86041649700E+02  0.14104915697E+03  0.23364044229E+00  0.16522132052E+03  0.00000000000E+00 0.  1.
   -9000007    1    1    2    0  503  0.20610446314E+03 -0.14520104583E+03 -0.14661398167E+03  0.49503338580E+03  0.40000000000E+03 0. -1.
<mgrwt>
<rscale>  2 0.47295083E+03</rscale>
<asrwt>0</asrwt>
<pdfrwt beam="1">  1       21 0.52623874E-01 0.47299316E+03</pdfrwt>
<pdfrwt beam="2">  1       21 0.10062317E+00 0.47299316E+03</pdfrwt>
<totfact> 0.23773099E+03</totfact>
</mgrwt>
</event>
<event>
 6    1  0.9094387E-004  0.4085321E+03  0.7818608E-02  0.1040915E+00
         21   -1    0    0  501  502  0.00000000000E+00  0.00000000000E+00  0.15114911059E+04  0.15114911059E+04  0.00000000000E+00 0.  1.
         21   -1    0    0  502  503 -0.00000000000E+00 -0.00000000000E+00 -0.13301264650E+03  0.13301264650E+03  0.00000000000E+00 0.  1.
    9000007    2    1    2  501    0 -0.78662501278E+02 -0.14935332739E+02  0.10297438999E+04  0.11078226122E+04  0.40060902066E+03 0.  0.
    9000005    1    3    3    0    0 -0.47916490209E+01  0.18913382318E+03  0.42134886280E+03  0.46187706931E+03  0.99999687468E+00 0.  0.
          4    1    3    3  501    0 -0.73870852257E+02 -0.20406915592E+03  0.60839503708E+03  0.64594554287E+03  0.00000000000E+00 0.  1.
   -9000007    1    1    2    0  503  0.78662501278E+02  0.14935332739E+02  0.34873455951E+03  0.53668114022E+03  0.40000000000E+03 0.  1.
<mgrwt>
<rscale>  2 0.40838268E+03</rscale>
<asrwt>0</asrwt>
<pdfrwt beam="1">  1       21 0.23253708E+00 0.40853206E+03</pdfrwt>
<pdfrwt beam="2">  1       21 0.20463485E-01 0.40853206E+03</pdfrwt>
<totfact> 0.15869908E+03</totfact>
</mgrwt>
</event>
<event>
 6    1  0.9094387E-004  0.6304892E+03  0.7818608E-02  0.9845312E-01
         21   -1    0    0  501  502  0.00000000000E+00  0.00000000000E+00  0.92232860232E+03  0.92232860232E+03  0.00000000000E+00 0. -1.
         21   -1    0    0  502  503 -0.00000000000E+00 -0.00000000000E+00 -0.51244741029E+03  0.51244741029E+03  0.00000000000E+00 0. -1.
    9000007    2    1    2  501    0  0.46199719859E+03 -0.14470516554E+03 -0.83705560396E+02  0.63602143290E+03  0.40390053953E+03 0.  0.
    9000005    1    3    3    0    0  0.49643316479E+03 -0.21893781345E+03 -0.10224047380E+03  0.55211753073E+03  0.99999687468E+00 0.  0.
          4    1    3    3  501    0 -0.34435966202E+02  0.74232647915E+02  0.18534913406E+02  0.83903902172E+02  0.00000000000E+00 0.  1.
   -9000007    1    1    2    0  503 -0.46199719859E+03  0.14470516554E+03  0.49358675243E+03  0.79875457971E+03  0.40000000000E+03 0. -1.
<mgrwt>
<rscale>  2 0.62986538E+03</rscale>
<asrwt>0</asrwt>
<pdfrwt beam="1">  1       21 0.14189671E+00 0.63048921E+03</pdfrwt>
<pdfrwt beam="2">  1       21 0.78838063E-01 0.63048921E+03</pdfrwt>
<totfact> 0.38012371E+02</totfact>
</mgrwt>
</event>
<event>
 6    1  0.9094387E-004  0.4370389E+03  0.7818608E-02  0.1031665E+00
         21   -1    0    0  501  502  0.00000000000E+00  0.00000000000E+00  0.55968598141E+03  0.55968598141E+03  0.00000000000E+00 0. -1.
         21   -1    0    0  502  503 -0.00000000000E+00 -0.00000000000E+00 -0.52821739404E+03  0.52821739404E+03  0.00000000000E+00 0. -1.
    9000007    2    1    2  501    0  0.16705669290E+03 -0.55090095372E+02  0.33938703036E+03  0.55334128852E+03  0.40007520287E+03 0.  0.
    9000005    1    3    3    0    0  0.66527403359E+02  0.47774236293E+02  0.39179090920E+03  0.40026165140E+03  0.99999687468E+00 0.  0.
          4    1    3    3  501    0  0.10052928954E+03 -0.10286433167E+03 -0.52403878840E+02  0.15307963712E+03  0.00000000000E+00 0.  1.
   -9000007    1    1    2    0  503 -0.16705669290E+03  0.55090095372E+02 -0.30791844299E+03  0.53456208693E+03  0.40000000000E+03 0. -1.
<mgrwt>
<rscale>  2 0.43702172E+03</rscale>
<asrwt>0</asrwt>
<pdfrwt beam="1">  1       21 0.86105535E-01 0.43703893E+03</pdfrwt>
<pdfrwt beam="2">  1       21 0.81264215E-01 0.43703893E+03</pdfrwt>
<totfact> 0.13283089E+03</totfact>
</mgrwt>
</event>
<event>
 6    1  0.9094387E-004  0.4360103E+03  0.7818608E-02  0.1031987E+00
         21   -1    0    0  501  502  0.00000000000E+00  0.00000000000E+00  0.33081307313E+03  0.33081307313E+03  0.00000000000E+00 0.  1.
         21   -1    0    0  502  503 -0.00000000000E+00 -0.00000000000E+00 -0.59863000422E+03  0.59863000422E+03  0.00000000000E+00 0.  1.
    9000007    2    1    2  501    0 -0.17059366406E+03 -0.30094256058E+02 -0.40647732193E+02  0.43790090480E+03  0.40012135887E+03 0.  0.
    9000005    1    3    3    0    0 -0.42448353505E+02  0.16678778747E+03 -0.95277409321E+02  0.19672014001E+03  0.99999687468E+00 0.  0.
          4    1    3    3  501    0 -0.12814531056E+03 -0.19688204353E+03  0.54629677127E+02  0.24118076479E+03  0.00000000000E+00 0.  1.
   -9000007    1    1    2    0  503  0.17059366406E+03  0.30094256058E+02 -0.22716919890E+03  0.49154217255E+03  0.40000000000E+03 0.  1.
<mgrwt>
<rscale>  2 0.43598244E+03</rscale>
<asrwt>0</asrwt>
<pdfrwt beam="1">  1       21 0.50894319E-01 0.43601028E+03</pdfrwt>
<pdfrwt beam="2">  1       21 0.92096923E-01 0.43601028E+03</pdfrwt>
<totfact> 0.32017027E+03</totfact>
</mgrwt>
</event>
<event>
 6    1  0.9094387E-004  0.4877622E+03  0.7818608E-02  0.1017096E+00
         21   -1    0    0  501  502  0.00000000000E+00  0.00000000000E+00  0.22137546136E+04  0.22137546136E+04  0.00000000000E+00 0. -1.
         21   -1    0    0  502  503 -0.00000000000E+00 -0.00000000000E+00 -0.10893962057E+03  0.10893962057E+03  0.00000000000E+00 0.  1.
    9000007    2    1    2  501    0  0.71631035603E+02 -0.26977954241E+03  0.11966254826E+04  0.12918110237E+04  0.39868680510E+03 0.  0.
    9000005    1    3    3    0    0 -0.95301713646E+02  0.50902674620E+02  0.44255437033E+03  0.45555336636E+03  0.99999687468E+00 0.  0.
          4    1    3    3  501    0  0.16693274925E+03 -0.32068221703E+03  0.75407111227E+03  0.83625765734E+03  0.00000000000E+00 0.  1.
   -9000007    1    1    2    0  503 -0.71631035603E+02  0.26977954241E+03  0.90818951038E+03  0.10308832104E+04  0.40000000000E+03 0.  1.
<mgrwt>
<rscale>  2 0.48749294E+03</rscale>
<asrwt>0</asrwt>
<pdfrwt beam="1">  1       21 0.34057760E+00 0.48776224E+03</pdfrwt>
<pdfrwt beam="2">  1       21 0.16759943E-01 0.48776224E+03</pdfrwt>
<totfact> 0.48986908E+02</totfact>
</mgrwt>
</event>
<event>
 6    1  0.9094387E-004  0.6980017E+03  0.7818608E-02  0.9720932E-01
         21   -1    0    0  501  502  0.00000000000E+00  0.00000000000E+00  0.43249501964E+03  0.43249501964E+03  0.00000000000E+00 0. -1.
         21   -1    0    0  502  503 -0.00000000000E+00 -0.00000000000E+00 -0.11798148660E+04  0.11798148660E+04  0.00000000000E+00 0. -1.
    9000007    2    1    2  501    0 -0.55524097307E+03  0.13422692538E+03 -0.54685066537E+03  0.88670855004E+03  0.40111967891E+03 0.  0.
    9000005    1    3    3    0    0 -0.35261930059E+03 -0.24463171693E+02 -0.51886731023E+03  0.62782410239E+03  0.99999687468E+00 0.  0.
          4    1    3    3  501    0 -0.20262167249E+03  0.15869009707E+03 -0.27983355141E+02  0.25888444765E+03  0.00000000000E+00 0.  1.
   -9000007    1    1    2    0  503  0.55524097307E+03 -0.13422692538E+03 -0.20046918097E+03  0.72560133558E+03  0.40000000000E+03 0. -1.
<mgrwt>
<rscale>  2 0.69784095E+03</rscale>
<asrwt>0</asrwt>
<pdfrwt beam="1">  1       21 0.66537697E-01 0.69800172E+03</pdfrwt>
<pdfrwt beam="2">  1       21 0.18150998E+00 0.69800172E+03</pdfrwt>
<totfact> 0.27319665E+02</totfact>
</mgrwt>
</event>
<event>
 6    1  0.9094387E-004  0.4318728E+03  0.7818608E-02  0.1033307E+00
         21   -1    0    0  501  502  0.00000000000E+00  0.00000000000E+00  0.82758338596E+03  0.82758338596E+03  0.00000000000E+00 0.  1.
         21   -1    0    0  502  503 -0.00000000000E+00 -0.00000000000E+00 -0.24492855840E+03  0.24492855840E+03  0.00000000000E+00 0.  1.
    9000007    2    1    2  501    0  0.16064394581E+03  0.17252502706E+02  0.13898778238E+03  0.45368678880E+03  0.40051213777E+03 0.  0.
    9000005    1    3    3    0    0 -0.10755291565E+03  0.39734998703E+01 -0.56481839612E+02  0.12155088057E+03  0.99999687468E+00 0.  0.
          4    1    3    3  501    0  0.26819686146E+03  0.13279002835E+02  0.19546962200E+03  0.33213590823E+03  0.00000000000E+00 0.  1.
   -9000007    1    1    2    0  503 -0.16064394581E+03 -0.17252502706E+02  0.44366704518E+03  0.61882515556E+03  0.40000000000E+03 0.  1.
<mgrwt>
<rscale>  2 0.43175401E+03</rscale>
<asrwt>0</asrwt>
<pdfrwt beam="1">  1       21 0.12732052E+00 0.43187278E+03</pdfrwt>
<pdfrwt beam="2">  1       21 0.37681317E-01 0.43187278E+03</pdfrwt>
<totfact> 0.26933599E+03</totfact>
</mgrwt>
</event>
<event>
 6    1  0.9094387E-004  0.4304171E+03  0.7818608E-02  0.1033738E+00
         21   -1    0    0  501  502  0.00000000000E+00  0.00000000000E+00  0.18846588529E+03  0.18846588529E+03  0.00000000000E+00 0. -1.
         21   -1    0    0  502  503 -0.00000000000E+00 -0.00000000000E+00 -0.99944592136E+03  0.99944592136E+03  0.00000000000E+00 0. -1.
    9000007    2    1    2  501    0 -0.12216100157E+03  0.10166419743E+03 -0.48233364995E+03  0.64637014947E+03  0.39986210236E+03 0.  0.
    9000005    1    3    3    0    0 -0.16994125615E+03  0.23051436773E+03 -0.37581206915E+03  0.47249615404E+03  0.99999687468E+00 0.  0.
          4    1    3    3  501    0  0.47780254579E+02 -0.12885017029E+03 -0.10652158081E+03  0.17387399544E+03  0.00000000000E+00 0.  1.
   -9000007    1    1    2    0  503  0.12216100157E+03 -0.10166419743E+03 -0.32864638612E+03  0.54154165717E+03  0.40000000000E+03 0. -1.
<mgrwt>
<rscale>  2 0.43038510E+03</rscale>
<asrwt>0</asrwt>
<pdfrwt beam="1">  1       21 0.28994752E-01 0.43041715E+03</pdfrwt>
<pdfrwt beam="2">  1       21 0.15376091E+00 0.43041715E+03</pdfrwt>
<totfact> 0.27649432E+03</totfact>
</mgrwt>
</event>
<event>
 6    1  0.9094387E-004  0.4052641E+03  0.7818608E-02  0.1042037E+00
         21   -1    0    0  501  502  0.00000000000E+00  0.00000000000E+00  0.16728008683E+03  0.16728008683E+03  0.00000000000E+00 0.  1.
         21   -1    0    0  502  503 -0.00000000000E+00 -0.00000000000E+00 -0.14850954644E+04  0.14850954644E+04  0.00000000000E+00 0.  1.
    9000007    2    1    2  501    0  0.30981224637E+02 -0.57263675490E+02 -0.17665616071E+03  0.44139110747E+03  0.39922392943E+03 0.  0.
    9000005    1    3    3    0    0  0.19334236063E+02 -0.85226887454E+02 -0.30098912783E+03  0.31342126618E+03  0.99999687468E+00 0.  0.
          4    1    3    3  501    0  0.11646988574E+02  0.27963211964E+02  0.12433296712E+03  0.12796984129E+03  0.00000000000E+00 0.  1.
   -9000007    1    1    2    0  503 -0.30981224637E+02  0.57263675490E+02 -0.11411592169E+04  0.12109844438E+04  0.40000000000E+03 0.  1.
<mgrwt>
<rscale>  2 0.40507244E+03</rscale>
<asrwt>0</asrwt>
<pdfrwt beam="1">  1       21 0.25735398E-01 0.40526407E+03</pdfrwt>
<pdfrwt beam="2">  1       21 0.22847622E+00 0.40526407E+03</pdfrwt>
<totfact> 0.10842130E+03</totfact>
</mgrwt>
</event>
<event>
 6    1  0.9094387E-004  0.6920602E+03  0.7818608E-02  0.9731170E-01
         21   -1    0    0  501  502  0.00000000000E+00  0.00000000000E+00  0.17346778049E+04  0.17346778049E+04  0.00000000000E+00 0.  1.
         21   -1    0    0  502  503 -0.00000000000E+00 -0.00000000000E+00 -0.48603029904E+03  0.48603029904E+03  0.00000000000E+00 0. -1.
    9000007    2    1    2  501    0  0.49127162501E+03  0.27705829733E+03  0.13546346902E+04  0.15211779809E+04  0.40104637652E+03 0.  0.
    9000005    1    3    3    0    0  0.12192751872E+03  0.27629995005E+03  0.42960053554E+03  0.52513388993E+03  0.99999687468E+00 0.  0.
          4    1    3    3  501    0  0.36934410628E+03  0.75834728083E+00  0.92503415467E+03  0.99604409102E+03  0.00000000000E+00 0.  1.
   -9000007    1    1    2    0  503 -0.49127162501E+03 -0.27705829733E+03 -0.10598718440E+03  0.69953012295E+03  0.40000000000E+03 0. -1.
<mgrwt>
<rscale>  2 0.69190868E+03</rscale>
<asrwt>0</asrwt>
<pdfrwt beam="1">  1       21 0.26687351E+00 0.69206019E+03</pdfrwt>
<pdfrwt beam="2">  1       21 0.74773893E-01 0.69206019E+03</pdfrwt>
<totfact> 0.58144916E+01</totfact>
</mgrwt>
</event>
<event>
 6    1  0.9094387E-004  0.4167788E+03  0.7818608E-02  0.1038202E+00
         21   -1    0    0  501  502  0.00000000000E+00  0.00000000000E+00  0.13855917494E+03  0.13855917494E+03  0.00000000000E+00 0. -1.
         21   -1    0    0  502  503 -0.00000000000E+00 -0.00000000000E+00 -0.12508192405E+04  0.12508192405E+04  0.00000000000E+00 0. -1.
    9000007    2    1    2  501    0 -0.12805911342E+02  0.11636413409E+03 -0.56393652205E+03  0.70063803515E+03  0.39895444895E+03 0.  0.
    9000005    1    3    3    0    0  0.13904589992E+03  0.16900021354E+03 -0.17638121790E+03  0.28108035948E+03  0.99999687468E+00 0.  0.
          4    1    3    3  501    0 -0.15185181126E+03 -0.52636079454E+02 -0.38755530415E+03  0.41955767567E+03  0.00000000000E+00 0.  1.
   -9000007    1    1    2    0  503  0.12805911342E+02 -0.11636413409E+03 -0.54832354354E+03  0.68874038031E+03  0.40000000000E+03 0. -1.
<mgrwt>
<rscale>  2 0.41652778E+03</rscale>
<asrwt>0</asrwt>
<pdfrwt beam="1">  1       21 0.21316796E-01 0.41677884E+03</pdfrwt>
<pdfrwt beam="2">  1       21 0.19243373E+00 0.41677884E+03</pdfrwt>
<totfact> 0.26599335E+03</totfact>
</mgrwt>
</event>
<event>
 6    1  0.9094387E-004  0.4664828E+03  0.7818608E-02  0.1022940E+00
         21   -1    0    0  501  502  0.00000000000E+00  0.00000000000E+00  0.27598039015E+03  0.27598039015E+03  0.00000000000E+00 0.  1.
         21   -1    0    0  502  503 -0.00000000000E+00 -0.00000000000E+00 -0.89926623312E+03  0.89926623312E+03  0.00000000000E+00 0.  1.
    9000007    2    1    2  501    0 -0.17361849609E+03  0.16571918741E+03 -0.10480127162E+03  0.47779950556E+03  0.39962836451E+03 0.  0.
    9000005    1    3    3    0    0 -0.28244454425E+03  0.19859045767E+02 -0.79287673782E+02  0.29403543576E+03  0.99999687468E+00 0.  0.
          4    1    3    3  501    0  0.10882604815E+03  0.14586014164E+03 -0.25513597838E+02  0.18376406981E+03  0.00000000000E+00 0.  1.
   -9000007    1    1    2    0  503  0.17361849609E+03 -0.16571918741E+03 -0.51848457135E+03  0.69744711770E+03  0.40000000000E+03 0.  1.
<mgrwt>
<rscale>  2 0.46640315E+03</rscale>
<asrwt>0</asrwt>
<pdfrwt beam="1">  1       21 0.42458522E-01 0.46648283E+03</pdfrwt>
<pdfrwt beam="2">  1       21 0.13834865E+00 0.46648283E+03</pdfrwt>
<totfact> 0.16731716E+03</totfact>
</mgrwt>
</event>
<event>
 6    1  0.9094387E-004  0.4170402E+03  0.7818608E-02  0.1038103E+00
         21   -1    0    0  501  502  0.00000000000E+00  0.00000000000E+00  0.51886788578E+03  0.51886788578E+03  0.00000000000E+00 0. -1.
         21   -1    0    0  502  503 -0.00000000000E+00 -0.00000000000E+00 -0.50602329375E+03  0.50602329375E+03  0.00000000000E+00 0. -1.
    9000007    2    1    2  501    0 -0.64189470805E+02 -0.95423395636E+02  0.30475372257E+03  0.51652433060E+03  0.40086985429E+03 0.  0.
    9000005    1    3    3    0    0 -0.53649434463E+02  0.30831234504E+02  0.36922122228E+03  0.37437165733E+03  0.99999687468E+00 0.  0.
          4    1    3    3  501    0 -0.10540036342E+02 -0.12625463014E+03 -0.64467499706E+02  0.14215267326E+03  0.00000000000E+00 0.  1.
   -9000007    1    1    2    0  503  0.64189470805E+02  0.95423395636E+02 -0.29190913055E+03  0.50836684893E+03  0.40000000000E+03 0. -1.
<mgrwt>
<rscale>  2 0.41683106E+03</rscale>
<asrwt>0</asrwt>
<pdfrwt beam="1">  1       21 0.79825828E-01 0.41704023E+03</pdfrwt>
<pdfrwt beam="2">  1       21 0.77849738E-01 0.41704023E+03</pdfrwt>
<totfact> 0.17630364E+03</totfact>
</mgrwt>
</event>
<event>
 6    1  0.9094387E-004  0.4392503E+03  0.7818608E-02  0.1030997E+00
         21   -1    0    0  501  502  0.00000000000E+00  0.00000000000E+00  0.28579935002E+03  0.28579935002E+03  0.00000000000E+00 0. -1.
         21   -1    0    0  502  503 -0.00000000000E+00 -0.00000000000E+00 -0.75424012427E+03  0.75424012427E+03  0.00000000000E+00 0. -1.
    9000007    2    1    2  501    0 -0.13198163179E+03  0.12458589461E+03 -0.65268938397E+02  0.44381105707E+03  0.39970917402E+03 0.  0.
    9000005    1    3    3    0    0  0.35342318924E+02 -0.68528048836E+02  0.10972613719E+03  0.13411188672E+03  0.99999687468E+00 0.  0.
          4    1    3    3  501    0 -0.16732395072E+03  0.19311394344E+03 -0.17499507559E+03  0.30969917035E+03  0.00000000000E+00 0.  1.
   -9000007    1    1    2    0  503  0.13198163179E+03 -0.12458589461E+03 -0.40317183586E+03  0.59622841722E+03  0.40000000000E+03 0. -1.
<mgrwt>
<rscale>  2 0.43918405E+03</rscale>
<asrwt>0</asrwt>
<pdfrwt beam="1">  1       21 0.43969132E-01 0.43925027E+03</pdfrwt>
<pdfrwt beam="2">  1       21 0.11603694E+00 0.43925027E+03</pdfrwt>
<totfact> 0.24741031E+03</totfact>
</mgrwt>
</event>
<event>
 6    1  0.9094387E-004  0.4752376E+03  0.7818608E-02  0.1020471E+00
         21   -1    0    0  501  502  0.00000000000E+00  0.00000000000E+00  0.61673628849E+03  0.61673628849E+03  0.00000000000E+00 0. -1.
         21   -1    0    0  502  503 -0.00000000000E+00 -0.00000000000E+00 -0.48272087778E+03  0.48272087778E+03  0.00000000000E+00 0.  1.
    9000007    2    1    2  501    0  0.61290475336E+02  0.24918712317E+03  0.33731112056E+03  0.58256269893E+03  0.39968707936E+03 0.  0.
    9000005    1    3    3    0    0  0.16240240425E+03 -0.27897887072E+02  0.53540740715E+02  0.17326408721E+03  0.99999687468E+00 0.  0.
          4    1    3    3  501    0 -0.10111192891E+03  0.27708501025E+03  0.28377037985E+03  0.40929861171E+03  0.00000000000E+00 0.  1.
   -9000007    1    1    2    0  503 -0.61290475336E+02 -0.24918712317E+03 -0.20329570986E+03  0.51689446734E+03  0.40000000000E+03 0.  1.
<mgrwt>
<rscale>  2 0.47517172E+03</rscale>
<asrwt>0</asrwt>
<pdfrwt beam="1">  1       21 0.94882506E-01 0.47523757E+03</pdfrwt>
<pdfrwt beam="2">  1       21 0.74264750E-01 0.47523757E+03</pdfrwt>
<totfact> 0.12784056E+03</totfact>
</mgrwt>
</event>
<event>
 6    1  0.9094387E-004  0.4405877E+03  0.7818608E-02  0.1030574E+00
         21   -1    0    0  501  502  0.00000000000E+00  0.00000000000E+00  0.23673798362E+03  0.23673798362E+03  0.00000000000E+00 0.  1.
         21   -1    0    0  502  503 -0.00000000000E+00 -0.00000000000E+00 -0.16541353598E+04  0.16541353598E+04  0.00000000000E+00 0.  1.
    9000007    2    1    2  501    0  0.11756619094E+03 -0.14246306303E+03 -0.37206063123E+02  0.44206500749E+03  0.39989954506E+03 0.  0.
    9000005    1    3    3    0    0  0.79655139778E+02  0.20947717191E+02 -0.19504939020E+03  0.21172863000E+03  0.99999687468E+00 0.  0.
          4    1    3    3  501    0  0.37911051160E+02 -0.16341078022E+03  0.15784332708E+03  0.23033637749E+03  0.00000000000E+00 0.  1.
   -9000007    1    1    2    0  503 -0.11756619094E+03  0.14246306303E+03 -0.13801913130E+04  0.14488083359E+04  0.40000000000E+03 0.  1.
<mgrwt>
<rscale>  2 0.44056491E+03</rscale>
<asrwt>0</asrwt>
<pdfrwt beam="1">  1       21 0.36421228E-01 0.44058771E+03</pdfrwt>
<pdfrwt beam="2">  1       21 0.25448236E+00 0.44058771E+03</pdfrwt>
<totfact> 0.36801441E+02</totfact>
</mgrwt>
</event>
<event>
 6    1  0.9094387E-004  0.5070222E+03  0.7818608E-02  0.1011965E+00
         21   -1    0    0  501  502  0.00000000000E+00  0.00000000000E+00  0.19585907167E+03  0.19585907167E+03  0.00000000000E+00 0.  1.
         21   -1    0    0  502  503 -0.00000000000E+00 -0.00000000000E+00 -0.13125696067E+04  0.13125696067E+04  0.00000000000E+00 0. -1.
    9000007    2    1    2  501    0  0.28055609080E+03 -0.13549812117E+03 -0.55067513801E+03  0.74851583362E+03  0.39995172789E+03 0.  0.
    9000005    1    3    3    0    0  0.11010639780E+03  0.14285173055E+03 -0.20682473821E+03  0.27442213483E+03  0.99999687468E+00 0.  0.
          4    1    3    3  501    0  0.17044969300E+03 -0.27834985172E+03 -0.34385039980E+03  0.47409369879E+03  0.00000000000E+00 0.  1.
   -9000007    1    1    2    0  503 -0.28055609080E+03  0.13549812117E+03 -0.56603539705E+03  0.75991284476E+03  0.40000000000E+03 0.  1.
<mgrwt>
<rscale>  2 0.50701263E+03</rscale>
<asrwt>0</asrwt>
<pdfrwt beam="1">  1       21 0.30132166E-01 0.50702215E+03</pdfrwt>
<pdfrwt beam="2">  1       21 0.20193378E+00 0.50702215E+03</pdfrwt>
<totfact> 0.11252354E+03</totfact>
</mgrwt>
</event>
<event>
 6    1  0.9094387E-004  0.4099103E+03  0.7818608E-02  0.1040440E+00
         21   -1    0    0  501  502  0.00000000000E+00  0.00000000000E+00  0.37007262303E+03  0.37007262303E+03  0.00000000000E+00 0.  1.
         21   -1    0    0  502  503 -0.00000000000E+00 -0.00000000000E+00 -0.54139587434E+03  0.54139587434E+03  0.00000000000E+00 0.  1.
    9000007    2    1    2  501    0 -0.69617863029E+02  0.56389983971E+02  0.97979712784E+02  0.42100895407E+03  0.39952726834E+03 0.  0.
    9000005    1    3    3    0    0  0.79178660841E+01 -0.97827678005E+02  0.19837130997E+03  0.22132583175E+03  0.99999687468E+00 0.  0.
          4    1    3    3  501    0 -0.77535729113E+02  0.15421766198E+03 -0.10039159718E+03  0.19968312232E+03  0.00000000000E+00 0.  1.
   -9000007    1    1    2    0  503  0.69617863029E+02 -0.56389983971E+02 -0.26930296410E+03  0.49045954330E+03  0.40000000000E+03 0.  1.
<mgrwt>
<rscale>  2 0.40979496E+03</rscale>
<asrwt>0</asrwt>
<pdfrwt beam="1">  1       21 0.56934250E-01 0.40991033E+03</pdfrwt>
<pdfrwt beam="2">  1       21 0.83291673E-01 0.40991033E+03</pdfrwt>
<totfact> 0.32179829E+03</totfact>
</mgrwt>
</event>
<event>
 6    1  0.9094387E-004  0.4683234E+03  0.7818608E-02  0.1022407E+00
         21   -1    0    0  501  502  0.00000000000E+00  0.00000000000E+00  0.13221372917E+03  0.13221372917E+03  0.00000000000E+00 0.  1.
         21   -1    0    0  502  503 -0.00000000000E+00 -0.00000000000E+00 -0.18552243682E+04  0.18552243682E+04  0.00000000000E+00 0.  1.
    9000007    2    1    2  501    0 -0.23092228396E+03 -0.76355310581E+02 -0.53784612748E+03  0.71316569553E+03  0.40021446468E+03 0.  0.
    9000005    1    3    3    0    0 -0.29763667344E+03 -0.11197630898E+03 -0.22059920802E+03  0.38702880219E+03  0.99999687468E+00 0.  0.
          4    1    3    3  501    0  0.66714389474E+02  0.35620998402E+02 -0.31724691946E+03  0.32613689334E+03  0.00000000000E+00 0.  1.
   -9000007    1    1    2    0  503  0.23092228396E+03  0.76355310581E+02 -0.11851645115E+04  0.12742724018E+04  0.40000000000E+03 0. -1.
<mgrwt>
<rscale>  2 0.46827763E+03</rscale>
<asrwt>0</asrwt>
<pdfrwt beam="1">  1       21 0.20340575E-01 0.46832345E+03</pdfrwt>
<pdfrwt beam="2">  1       21 0.28541911E+00 0.46832345E+03</pdfrwt>
<totfact> 0.74037720E+02</totfact>
</mgrwt>
</event>
<event>
 6    1  0.9094387E-004  0.6482164E+03  0.7818608E-02  0.9810261E-01
         21   -1    0    0  501  502  0.00000000000E+00  0.00000000000E+00  0.98967269947E+03  0.98967269947E+03  0.00000000000E+00 0. -1.
         21   -1    0    0  502  503 -0.00000000000E+00 -0.00000000000E+00 -0.42467310000E+03  0.42467310000E+03  0.00000000000E+00 0.  1.
    9000007    2    1    2  501    0  0.42910781352E+03  0.27512632481E+03  0.30085049509E+03  0.71462960016E+03  0.40044529565E+03 0.  0.
    9000005    1    3    3    0    0  0.26944841505E+03  0.36790374634E+03  0.16333176597E+03  0.48439021534E+03  0.99999687468E+00 0.  0.
          4    1    3    3  501    0  0.15965939847E+03 -0.92777421532E+02  0.13751872912E+03  0.23023938483E+03  0.00000000000E+00 0.  1.
   -9000007    1    1    2    0  503 -0.42910781352E+03 -0.27512632481E+03  0.26414910437E+03  0.69971619930E+03  0.40000000000E+03 0.  1.
<mgrwt>
<rscale>  2 0.64814760E+03</rscale>
<asrwt>0</asrwt>
<pdfrwt beam="1">  1       21 0.15225734E+00 0.64821636E+03</pdfrwt>
<pdfrwt beam="2">  1       21 0.65334323E-01 0.64821636E+03</pdfrwt>
<totfact> 0.47865001E+02</totfact>
</mgrwt>
</event>
<event>
 6    1  0.9094387E-004  0.4968898E+03  0.7818608E-02  0.1014606E+00
         21   -1    0    0  501  502  0.00000000000E+00  0.00000000000E+00  0.11464673299E+04  0.11464673299E+04  0.00000000000E+00 0.  1.
         21   -1    0    0  502  503 -0.00000000000E+00 -0.00000000000E+00 -0.21960753740E+03  0.21960753740E+03  0.00000000000E+00 0.  1.
    9000007    2    1    2  501    0 -0.26544750675E+03  0.12820721508E+03  0.55923421182E+03  0.74797452238E+03  0.39977933115E+03 0.  0.
    9000005    1    3    3    0    0 -0.47897479277E+02  0.20771857700E+03  0.43666125498E+03  0.48591689345E+03  0.99999687468E+00 0.  0.
          4    1    3    3  501    0 -0.21755002748E+03 -0.79511361920E+02  0.12257295685E+03  0.26205762893E+03  0.00000000000E+00 0.  1.
   -9000007    1    1    2    0  503  0.26544750675E+03 -0.12820721508E+03  0.36762558072E+03  0.61810034496E+03  0.40000000000E+03 0.  1.
<mgrwt>
<rscale>  2 0.49684538E+03</rscale>
<asrwt>0</asrwt>
<pdfrwt beam="1">  1       21 0.17637959E+00 0.49688980E+03</pdfrwt>
<pdfrwt beam="2">  1       21 0.33785776E-01 0.49688980E+03</pdfrwt>
<totfact> 0.13475244E+03</totfact>
</mgrwt>
</event>
<event>
 6    1  0.9094387E-004  0.4097766E+03  0.7818608E-02  0.1040462E+00
         21   -1    0    0  501  502  0.00000000000E+00  0.00000000000E+00  0.46408726853E+03  0.46408726853E+03  0.00000000000E+00 0.  1.
         21   -1    0    0  502  503 -0.00000000000E+00 -0.00000000000E+00 -0.66125066079E+03  0.66125066079E+03  0.00000000000E+00 0.  1.
    9000007    2    1    2  501    0 -0.83350968951E+02 -0.31135802581E+02  0.28016621338E+03  0.49624304407E+03  0.39980899120E+03 0.  0.
    9000005    1    3    3    0    0  0.25382944361E+02  0.74141551690E+02 -0.76051275814E+02  0.10920650209E+03  0.99999687468E+00 0.  0.
          4    1    3    3  501    0 -0.10873391331E+03 -0.10527735427E+03  0.35621748919E+03  0.38703654199E+03  0.00000000000E+00 0.  1.
   -9000007    1    1    2    0  503  0.83350968951E+02  0.31135802581E+02 -0.47732960564E+03  0.62909488525E+03  0.40000000000E+03 0.  1.
<mgrwt>
<rscale>  2 0.40972993E+03</rscale>
<asrwt>0</asrwt>
<pdfrwt beam="1">  1       21 0.71398042E-01 0.40977655E+03</pdfrwt>
<pdfrwt beam="2">  1       21 0.10173087E+00 0.40977655E+03</pdfrwt>
<totfact> 0.12131049E+03</totfact>
</mgrwt>
</event>
<event>
 6    1  0.9094387E-004  0.4196697E+03  0.7818608E-02  0.1037188E+00
         21   -1    0    0  501  502  0.00000000000E+00  0.00000000000E+00  0.62198903090E+03  0.62198903090E+03  0.00000000000E+00 0. -1.
         21   -1    0    0  502  503 -0.00000000000E+00 -0.00000000000E+00 -0.29320794941E+03  0.29320794941E+03  0.00000000000E+00 0.  1.
    9000007    2    1    2  501    0  0.93336653819E+02 -0.85232592845E+02  0.24962651831E+03  0.48829913456E+03  0.40018285863E+03 0.  0.
    9000005    1    3    3    0    0 -0.66405480119E+02 -0.15036533100E+03  0.26843527709E+03  0.31476645078E+03  0.99999687468E+00 0.  0.
          4    1    3    3  501    0  0.15974213394E+03  0.65132738156E+02 -0.18808758776E+02  0.17353268378E+03  0.00000000000E+00 0.  1.
   -9000007    1    1    2    0  503 -0.93336653819E+02  0.85232592845E+02  0.79154563180E+02  0.42689784574E+03  0.40000000000E+03 0.  1.
<mgrwt>
<rscale>  2 0.41962609E+03</rscale>
<asrwt>0</asrwt>
<pdfrwt beam="1">  1       21 0.95690620E-01 0.41966969E+03</pdfrwt>
<pdfrwt beam="2">  1       21 0.45108915E-01 0.41966969E+03</pdfrwt>
<totfact> 0.37927660E+03</totfact>
</mgrwt>
</event>
<event>
 6    1  0.9094387E-004  0.4535209E+03  0.7818608E-02  0.1026693E+00
         21   -1    0    0  501  502  0.00000000000E+00  0.00000000000E+00  0.28742803534E+03  0.28742803534E+03  0.00000000000E+00 0.  1.
         21   -1    0    0  502  503 -0.00000000000E+00 -0.00000000000E+00 -0.13976186021E+04  0.13976186021E+04  0.00000000000E+00 0.  1.
    9000007    2    1    2  501    0  0.67289759862E+02  0.20238138353E+03  0.33540303132E+02  0.45475950066E+03  0.40024381985E+03 0.  0.
    9000005    1    3    3    0    0 -0.13451325065E+03  0.48218781772E+02 -0.93536622178E+02  0.17078924205E+03  0.99999687468E+00 0.  0.
          4    1    3    3  501    0  0.20180301051E+03  0.15416260176E+03  0.12707692531E+03  0.28397025862E+03  0.00000000000E+00 0.  1.
   -9000007    1    1    2    0  503 -0.67289759862E+02 -0.20238138353E+03 -0.11437308699E+04  0.12302871367E+04  0.40000000000E+03 0.  1.
<mgrwt>
<rscale>  2 0.45346715E+03</rscale>
<asrwt>0</asrwt>
<pdfrwt beam="1">  1       21 0.44219699E-01 0.45352095E+03</pdfrwt>
<pdfrwt beam="2">  1       21 0.21501824E+00 0.45352095E+03</pdfrwt>
<totfact> 0.43278003E+02</totfact>
</mgrwt>
</event>
<event>
 6    1  0.9094387E-004  0.4620295E+03  0.7818608E-02  0.1024198E+00
         21   -1    0    0  501  502  0.00000000000E+00  0.00000000000E+00  0.98148444995E+03  0.98148444995E+03  0.00000000000E+00 0. -1.
         21   -1    0    0  502  503 -0.00000000000E+00 -0.00000000000E+00 -0.22379237847E+03  0.22379237847E+03  0.00000000000E+00 0.  1.
    9000007    2    1    2  501    0 -0.18709637113E+03  0.13589039538E+03  0.48008716537E+03  0.66626315926E+03  0.39993956967E+03 0.  0.
    9000005    1    3    3    0    0 -0.25131115821E+03  0.43044690113E+02  0.49058468983E+03  0.55288740398E+03  0.99999687468E+00 0.  0.
          4    1    3    3  501    0  0.64214787087E+02  0.92845705263E+02 -0.10497524457E+02  0.11337575528E+03  0.00000000000E+00 0.  1.
   -9000007    1    1    2    0  503  0.18709637113E+03 -0.13589039538E+03  0.27760490611E+03  0.53901366916E+03  0.40000000000E+03 0.  1.
<mgrwt>
<rscale>  2 0.46201641E+03</rscale>
<asrwt>0</asrwt>
<pdfrwt beam="1">  1       21 0.15099761E+00 0.46202949E+03</pdfrwt>
<pdfrwt beam="2">  1       21 0.34429597E-01 0.46202949E+03</pdfrwt>
<totfact> 0.20353375E+03</totfact>
</mgrwt>
</event>
<event>
 6    1  0.9094387E-004  0.4816238E+03  0.7818608E-02  0.1018717E+00
         21   -1    0    0  501  502  0.00000000000E+00  0.00000000000E+00  0.90711751213E+03  0.90711751213E+03  0.00000000000E+00 0. -1.
         21   -1    0    0  502  503 -0.00000000000E+00 -0.00000000000E+00 -0.42931101489E+03  0.42931101489E+03  0.00000000000E+00 0. -1.
    9000007    2    1    2  501    0 -0.26729039416E+03  0.11428950539E+02  0.66413876000E+03  0.82039123392E+03  0.40048309382E+03 0.  0.
    9000005    1    3    3    0    0 -0.16032541983E+03 -0.18013413954E+02  0.68820882610E+03  0.70686711031E+03  0.99999687468E+00 0.  0.
          4    1    3    3  501    0 -0.10696497432E+03  0.29442364494E+02 -0.24070066095E+02  0.11352412361E+03  0.00000000000E+00 0.  1.
   -9000007    1    1    2    0  503  0.26729039416E+03 -0.11428950539E+02 -0.18633226277E+03  0.51603729310E+03  0.40000000000E+03 0. -1.
<mgrwt>
<rscale>  2 0.48152336E+03</rscale>
<asrwt>0</asrwt>
<pdfrwt beam="1">  1       21 0.13955654E+00 0.48162380E+03</pdfrwt>
<pdfrwt beam="2">  1       21 0.66047849E-01 0.48162380E+03</pdfrwt>
<totfact> 0.62811685E+02</totfact>
</mgrwt>
</event>
<event>
 6    1  0.9094387E-004  0.5952887E+03  0.7818608E-02  0.9915521E-01
         21   -1    0    0  501  502  0.00000000000E+00  0.00000000000E+00  0.11240143622E+04  0.11240143622E+04  0.00000000000E+00 0. -1.
         21   -1    0    0  502  503 -0.00000000000E+00 -0.00000000000E+00 -0.32585986040E+03  0.32585986040E+03  0.00000000000E+00 0. -1.
    9000007    2    1    2  501    0 -0.29777997588E+03 -0.32510883411E+03  0.26640870846E+03  0.65167483848E+03  0.39917142572E+03 0.  0.
    9000005    1    3    3    0    0 -0.31874723913E+03 -0.36985577595E+03  0.12806719559E+03  0.50477252702E+03  0.99999687468E+00 0.  0.
          4    1    3    3  501    0  0.20967263244E+02  0.44746941832E+02  0.13834151287E+03  0.14690231147E+03  0.00000000000E+00 0.  1.
   -9000007    1    1    2    0  503  0.29777997588E+03  0.32510883411E+03  0.53174579330E+03  0.79819938408E+03  0.40000000000E+03 0. -1.
<mgrwt>
<rscale>  2 0.59514957E+03</rscale>
<asrwt>0</asrwt>
<pdfrwt beam="1">  1       21 0.17292528E+00 0.59528873E+03</pdfrwt>
<pdfrwt beam="2">  1       21 0.50132287E-01 0.59528873E+03</pdfrwt>
<totfact> 0.60656832E+02</totfact>
</mgrwt>
</event>
<event>
 6    1  0.9094387E-004  0.4067698E+03  0.7818608E-02  0.1041561E+00
         21   -1    0    0  501  502  0.00000000000E+00  0.00000000000E+00  0.11744558495E+04  0.11744558495E+04  0.00000000000E+00 0.  1.
         21   -1    0    0  502  503 -0.00000000000E+00 -0.00000000000E+00 -0.21297412402E+03  0.21297412402E+03  0.00000000000E+00 0.  1.
    9000007    2    1    2  501    0 -0.47433041109E+02 -0.47392631378E+02  0.88595963781E+03  0.97487750338E+03  0.40120532383E+03 0.  0.
    9000005    1    3    3    0    0  0.47415134830E+02 -0.20684922748E+03  0.57325547516E+03  0.61127541887E+03  0.99999687468E+00 0.  0.
          4    1    3    3  501    0 -0.94848175940E+02  0.15945659610E+03  0.31270416265E+03  0.36360208451E+03  0.00000000000E+00 0.  1.
   -9000007    1    1    2    0  503  0.47433041109E+02  0.47392631378E+02  0.75522087675E+02  0.41255247015E+03  0.40000000000E+03 0.  1.
<mgrwt>
<rscale>  2 0.40647227E+03</rscale>
<asrwt>0</asrwt>
<pdfrwt beam="1">  1       21 0.18068551E+00 0.40676980E+03</pdfrwt>
<pdfrwt beam="2">  1       21 0.32765251E-01 0.40676980E+03</pdfrwt>
<totfact> 0.13888938E+03</totfact>
</mgrwt>
</event>
<event>
 6    1  0.9094387E-004  0.4000870E+03  0.7818608E-02  0.1043881E+00
         21   -1    0    0  501  502  0.00000000000E+00  0.00000000000E+00  0.34806160807E+03  0.34806160807E+03  0.00000000000E+00 0. -1.
         21   -1    0    0  502  503 -0.00000000000E+00 -0.00000000000E+00 -0.73377822080E+03  0.73377822080E+03  0.00000000000E+00 0. -1.
    9000007    2    1    2  501    0  0.82632624938E+01  0.11651705248E+01  0.13888870724E+03  0.42208200901E+03  0.39848903398E+03 0.  0.
    9000005    1    3    3    0    0  0.13511092465E+03 -0.47930681299E+01  0.22930468503E+03  0.26619461683E+03  0.99999687468E+00 0.  0.
          4    1    3    3  501    0 -0.12684766215E+03  0.59582386547E+01 -0.90415977788E+02  0.15588739218E+03  0.00000000000E+00 0.  1.
   -9000007    1    1    2    0  503 -0.82632624938E+01 -0.11651705248E+01 -0.52460531997E+03  0.65975781986E+03  0.40000000000E+03 0. -1.
<mgrwt>
<rscale>  2 0.39970884E+03</rscale>
<asrwt>0</asrwt>
<pdfrwt beam="1">  1       21 0.53547941E-01 0.40008704E+03</pdfrwt>
<pdfrwt beam="2">  1       21 0.11288896E+00 0.40008704E+03</pdfrwt>
<totfact> 0.17747271E+03</totfact>
</mgrwt>
</event>
<event>
 6    1  0.9094387E-004  0.5881540E+03  0.7818608E-02  0.9930823E-01
         21   -1    0    0  501  502  0.00000000000E+00  0.00000000000E+00  0.38251748283E+03  0.38251748283E+03  0.00000000000E+00 0.  1.
         21   -1    0    0  502  503 -0.00000000000E+00 -0.00000000000E+00 -0.92009658034E+03  0.92009658034E+03  0.00000000000E+00 0.  1.
    9000007    2    1    2  501    0  0.90364984340E+02 -0.42161512619E+03 -0.35785379914E+03  0.68761298358E+03  0.39853121410E+03 0.  0.
    9000005    1    3    3    0    0  0.14074870893E+03 -0.44542134846E+02  0.22878301710E+02  0.14939416831E+03  0.99999687468E+00 0.  0.
          4    1    3    3  501    0 -0.50383724586E+02 -0.37707299134E+03 -0.38073210085E+03  0.53821881528E+03  0.00000000000E+00 0.  1.
   -9000007    1    1    2    0  503 -0.90364984340E+02  0.42161512619E+03 -0.17972529837E+03  0.61500107959E+03  0.40000000000E+03 0.  1.
<mgrwt>
<rscale>  2 0.58790437E+03</rscale>
<asrwt>0</asrwt>
<pdfrwt beam="1">  1       21 0.58848844E-01 0.58815401E+03</pdfrwt>
<pdfrwt beam="2">  1       21 0.14155332E+00 0.58815401E+03</pdfrwt>
<totfact> 0.75063476E+02</totfact>
</mgrwt>
</event>
<event>
 6    1  0.9094387E-004  0.4355780E+03  0.7818608E-02  0.1032116E+00
         21   -1    0    0  501  502  0.00000000000E+00  0.00000000000E+00  0.54443979015E+03  0.54443979015E+03  0.00000000000E+00 0. -1.
         21   -1    0    0  502  503 -0.00000000000E+00 -0.00000000000E+00 -0.55314844733E+03  0.55314844733E+03  0.00000000000E+00 0.  1.
    9000007    2    1    2  501    0  0.64546739099E+02  0.15988090441E+03  0.32949806597E+03  0.54612475482E+03  0.39994385510E+03 0.  0.
    9000005    1    3    3    0    0 -0.14402605418E+02 -0.77350869272E+02  0.28052242052E+03  0.29134930999E+03  0.99999687468E+00 0.  0.
          4    1    3    3  501    0  0.78949344516E+02  0.23723177368E+03  0.48975645443E+02  0.25477544483E+03  0.00000000000E+00 0.  1.
   -9000007    1    1    2    0  503 -0.64546739099E+02 -0.15988090441E+03 -0.33820672315E+03  0.55146348266E+03  0.40000000000E+03 0.  1.
<mgrwt>
<rscale>  2 0.43556510E+03</rscale>
<asrwt>0</asrwt>
<pdfrwt beam="1">  1       21 0.83759967E-01 0.43557799E+03</pdfrwt>
<pdfrwt beam="2">  1       21 0.85099762E-01 0.43557799E+03</pdfrwt>
<totfact> 0.12734666E+03</totfact>
</mgrwt>
</event>
<event>
 6    1  0.9094387E-004  0.5755431E+03  0.7818608E-02  0.9957817E-01
         21   -1    0    0  501  502  0.00000000000E+00  0.00000000000E+00  0.28105508468E+03  0.28105508468E+03  0.00000000000E+00 0. -1.
         21   -1    0    0  502  503 -0.00000000000E+00 -0.00000000000E+00 -0.16524650704E+04  0.16524650704E+04  0.00000000000E+00 0. -1.
    9000007    2    1    2  501    0 -0.75936234168E+02  0.40679673683E+03 -0.16706986381E+03  0.59872240786E+03  0.39913191493E+03 0.  0.
    9000005    1    3    3    0    0 -0.12731100320E+03  0.34303096679E+03 -0.27893325248E+03  0.46009031183E+03  0.99999687468E+00 0.  0.
          4    1    3    3  501    0  0.51374769036E+02  0.63765770047E+02  0.11186338867E+03  0.13863209602E+03  0.00000000000E+00 0.  1.
   -9000007    1    1    2    0  503  0.75936234168E+02 -0.40679673683E+03 -0.12043401219E+04  0.13347977473E+04  0.40000000000E+03 0. -1.
<mgrwt>
<rscale>  2 0.57539233E+03</rscale>
<asrwt>0</asrwt>
<pdfrwt beam="1">  1       21 0.43239244E-01 0.57554313E+03</pdfrwt>
<pdfrwt beam="2">  1       21 0.25422539E+00 0.57554313E+03</pdfrwt>
<totfact> 0.24260123E+02</totfact>
</mgrwt>
</event>
<event>
 6    1  0.9094387E-004  0.4366400E+03  0.7818608E-02  0.1031785E+00
         21   -1    0    0  501  502  0.00000000000E+00  0.00000000000E+00  0.16827900093E+04  0.16827900093E+04  0.00000000000E+00 0.  1.
         21   -1    0    0  502  503 -0.00000000000E+00 -0.00000000000E+00 -0.12603732502E+03  0.12603732502E+03  0.00000000000E+00 0. -1.
    9000007    2    1    2  501    0 -0.15987904424E+03  0.71366596511E+02  0.10659887378E+04  0.11519378832E+04  0.39996799578E+03 0.  0.
    9000005    1    3    3    0    0 -0.15882744223E+03 -0.89620542070E+02  0.19817788577E+03  0.26932038981E+03  0.99999687468E+00 0.  0.
          4    1    3    3  501    0 -0.10516020165E+01  0.16098713858E+03  0.86781085203E+03  0.88261749335E+03  0.00000000000E+00 0.  1.
   -9000007    1    1    2    0  503  0.15987904424E+03 -0.71366596511E+02  0.49076394651E+03  0.65688945119E+03  0.40000000000E+03 0. -1.
<mgrwt>
<rscale>  2 0.43663268E+03</rscale>
<asrwt>0</asrwt>
<pdfrwt beam="1">  1       21 0.25889075E+00 0.43664001E+03</pdfrwt>
<pdfrwt beam="2">  1       21 0.19390359E-01 0.43664001E+03</pdfrwt>
<totfact> 0.11929411E+03</totfact>
</mgrwt>
</event>
<event>
 6    1  0.9094387E-004  0.4872539E+03  0.7818608E-02  0.1017192E+00
         21   -1    0    0  501  502  0.00000000000E+00  0.00000000000E+00  0.76745582907E+03  0.76745582907E+03  0.00000000000E+00 0.  1.
         21   -1    0    0  502  503 -0.00000000000E+00 -0.00000000000E+00 -0.13973639399E+04  0.13973639399E+04  0.00000000000E+00 0. -1.
    9000007    2    1    2  501    0  0.67722346660E+01  0.27815559116E+03  0.64032168296E+03  0.80434186576E+03  0.39942156087E+03 0.  0.
    9000005    1    3    3    0    0 -0.81427191035E+01  0.14108508474E+02 -0.56611151243E+02  0.58916689694E+02  0.99999687468E+00 0.  0.
          4    1    3    3  501    0  0.14914953770E+02  0.26404708268E+03  0.69693283421E+03  0.74542517607E+03  0.00000000000E+00 0.  1.
   -9000007    1    1    2    0  503 -0.67722346660E+01 -0.27815559116E+03 -0.12702297938E+04  0.13604779032E+04  0.40000000000E+03 0. -1.
<mgrwt>
<rscale>  2 0.48713520E+03</rscale>
<asrwt>0</asrwt>
<pdfrwt beam="1">  1       21 0.11807013E+00 0.48725393E+03</pdfrwt>
<pdfrwt beam="2">  1       21 0.21497906E+00 0.48725393E+03</pdfrwt>
<totfact> 0.45206898E+01</totfact>
</mgrwt>
</event>
<event>
 6    1  0.9094387E-004  0.4242027E+03  0.7818608E-02  0.1035713E+00
         21   -1    0    0  501  502  0.00000000000E+00  0.00000000000E+00  0.59747691652E+03  0.59747691652E+03  0.00000000000E+00 0.  1.
         21   -1    0    0  502  503 -0.00000000000E+00 -0.00000000000E+00 -0.37083536687E+03  0.37083536687E+03  0.00000000000E+00 0.  1.
    9000007    2    1    2  501    0 -0.78367716972E+02 -0.11723433139E+03  0.32324027575E+03  0.53332182211E+03  0.40007812056E+03 0.  0.
    9000005    1    3    3    0    0 -0.10819286669E+03 -0.43911511263E+02 -0.67344404025E+02  0.13479683220E+03  0.99999687468E+00 0.  0.
          4    1    3    3  501    0  0.29825149715E+02 -0.73322820130E+02  0.39058467978E+03  0.39852498991E+03  0.00000000000E+00 0.  1.
   -9000007    1    1    2    0  503  0.78367716972E+02  0.11723433139E+03 -0.96598726101E+02  0.43499046128E+03  0.40000000000E+03 0.  1.
<mgrwt>
<rscale>  2 0.42418423E+03</rscale>
<asrwt>0</asrwt>
<pdfrwt beam="1">  1       21 0.91919526E-01 0.42420265E+03</pdfrwt>
<pdfrwt beam="2">  1       21 0.57051595E-01 0.42420265E+03</pdfrwt>
<totfact> 0.25273634E+03</totfact>
</mgrwt>
</event>
<event>
 6    1  0.9094387E-004  0.4706878E+03  0.7818608E-02  0.1021749E+00
         21   -1    0    0  501  502  0.00000000000E+00  0.00000000000E+00  0.19062623006E+03  0.19062623006E+03  0.00000000000E+00 0. -1.
         21   -1    0    0  502  503 -0.00000000000E+00 -0.00000000000E+00 -0.12936770341E+04  0.12936770341E+04  0.00000000000E+00 0.  1.
    9000007    2    1    2  501    0 -0.24695322763E+03 -0.16200397438E+02 -0.31439974027E+03  0.56603377762E+03  0.40037318993E+03 0.  0.
    9000005    1    3    3    0    0  0.33224496375E+02 -0.50024331211E+02  0.68029657561E+02  0.90748747508E+02  0.99999687468E+00 0.  0.
          4    1    3    3  501    0 -0.28017772400E+03  0.33823933773E+02 -0.38242939783E+03  0.47528503011E+03  0.00000000000E+00 0.  1.
   -9000007    1    1    2    0  503  0.24695322763E+03  0.16200397438E+02 -0.78865106374E+03  0.91826948651E+03  0.40000000000E+03 0. -1.
<mgrwt>
<rscale>  2 0.47060847E+03</rscale>
<asrwt>0</asrwt>
<pdfrwt beam="1">  1       21 0.29327111E-01 0.47068784E+03</pdfrwt>
<pdfrwt beam="2">  1       21 0.19902724E+00 0.47068784E+03</pdfrwt>
<totfact> 0.12606717E+03</totfact>
</mgrwt>
</event>
<event>
 6    1  0.9094387E-004  0.4093076E+03  0.7818608E-02  0.1040638E+00
         21   -1    0    0  501  502  0.00000000000E+00  0.00000000000E+00  0.26506493805E+03  0.26506493805E+03  0.00000000000E+00 0.  1.
         21   -1    0    0  502  503 -0.00000000000E+00 -0.00000000000E+00 -0.86866479134E+03  0.86866479134E+03  0.00000000000E+00 0.  1.
    9000007    2    1    2  501    0  0.78192180834E+02  0.32897023669E+02 -0.56579073674E+01  0.40934668016E+03  0.40042035579E+03 0.  0.
    9000005    1    3    3    0    0 -0.14006135451E+03  0.91736006746E+02  0.53348822478E+02  0.17572642036E+03  0.99999687468E+00 0.  0.
          4    1    3    3  501    0  0.21825353534E+03 -0.58838983077E+02 -0.59006729845E+02  0.23362025979E+03  0.00000000000E+00 0.  1.
   -9000007    1    1    2    0  503 -0.78192180834E+02 -0.32897023669E+02 -0.59794194593E+03  0.72438304923E+03  0.40000000000E+03 0.  1.
<mgrwt>
<rscale>  2 0.40920473E+03</rscale>
<asrwt>0</asrwt>
<pdfrwt beam="1">  1       21 0.40779221E-01 0.40930758E+03</pdfrwt>
<pdfrwt beam="2">  1       21 0.13364074E+00 0.40930758E+03</pdfrwt>
<totfact> 0.20387254E+03</totfact>
</mgrwt>
</event>
<event>
 6    1  0.9094387E-004  0.5194264E+03  0.7818608E-02  0.1008906E+00
         21   -1    0    0  501  502  0.00000000000E+00  0.00000000000E+00  0.78399365067E+03  0.78399365067E+03  0.00000000000E+00 0. -1.
         21   -1    0    0  502  503 -0.00000000000E+00 -0.00000000000E+00 -0.52917164956E+03  0.52917164956E+03  0.00000000000E+00 0.  1.
    9000007    2    1    2  501    0 -0.30147855150E+03 -0.13753000114E+03  0.51642148524E+03  0.73158288275E+03  0.39839496193E+03 0.  0.
    9000005    1    3    3    0    0  0.16662540896E+02  0.47401889169E+02  0.30102674591E+03  0.30519285889E+03  0.99999687468E+00 0.  0.
          4    1    3    3  501    0 -0.31814109239E+03 -0.18493189031E+03  0.21539473933E+03  0.42639002387E+03  0.00000000000E+00 0.  1.
   -9000007    1    1    2    0  503  0.30147855150E+03  0.13753000114E+03 -0.26159948413E+03  0.58158241748E+03  0.40000000000E+03 0.  1.
<mgrwt>
<rscale>  2 0.51911741E+03</rscale>
<asrwt>0</asrwt>
<pdfrwt beam="1">  1       21 0.12061441E+00 0.51942643E+03</pdfrwt>
<pdfrwt beam="2">  1       21 0.81411023E-01 0.51942643E+03</pdfrwt>
<totfact> 0.56192110E+02</totfact>
</mgrwt>
</event>
<event>
 6    1  0.9094387E-004  0.4094082E+03  0.7818608E-02  0.1040594E+00
         21   -1    0    0  501  502  0.00000000000E+00  0.00000000000E+00  0.15895239850E+03  0.15895239850E+03  0.00000000000E+00 0. -1.
         21   -1    0    0  502  503 -0.00000000000E+00 -0.00000000000E+00 -0.17050380414E+04  0.17050380414E+04  0.00000000000E+00 0.  1.
    9000007    2    1    2  501    0 -0.78153244435E+02  0.38821537057E+02 -0.19685443696E+03  0.45401175621E+03  0.39969984247E+03 0.  0.
    9000005    1    3    3    0    0 -0.13424663115E+03 -0.47048538172E+02  0.76873723105E+02  0.16169815156E+03  0.99999687468E+00 0.  0.
          4    1    3    3  501    0  0.56093386715E+02  0.85870075229E+02 -0.27372816006E+03  0.29231360465E+03  0.00000000000E+00 0.  1.
   -9000007    1    1    2    0  503  0.78153244435E+02 -0.38821537057E+02 -0.13492312060E+04  0.14099786837E+04  0.40000000000E+03 0.  1.
<mgrwt>
<rscale>  2 0.40933483E+03</rscale>
<asrwt>0</asrwt>
<pdfrwt beam="1">  1       21 0.24454215E-01 0.40940816E+03</pdfrwt>
<pdfrwt beam="2">  1       21 0.26231354E+00 0.40940816E+03</pdfrwt>
<totfact> 0.73968330E+02</totfact>
</mgrwt>
</event>
<event>
 6    1  0.9094387E-004  0.7548146E+03  0.7818608E-02  0.9627889E-01
         21   -1    0    0  501  502  0.00000000000E+00  0.00000000000E+00  0.51322726596E+03  0.51322726596E+03  0.00000000000E+00 0. -1.
         21   -1    0    0  502  503 -0.00000000000E+00 -0.00000000000E+00 -0.11207130641E+04  0.11207130641E+04  0.00000000000E+00 0.  1.
    9000007    2    1    2  501    0 -0.63962156141E+03 -0.19779658160E+02 -0.38405794438E+03  0.84690349319E+03  0.40029744622E+03 0.  0.
    9000005    1    3    3    0    0 -0.32351441609E+03  0.18924123829E+03 -0.21331093350E+03  0.43124978612E+03  0.99999687468E+00 0.  0.
          4    1    3    3  501    0 -0.31610714532E+03 -0.20902089645E+03 -0.17074701087E+03  0.41565370707E+03  0.00000000000E+00 0.  1.
   -9000007    1    1    2    0  503  0.63962156141E+03  0.19779658160E+02 -0.22342785371E+03  0.78703683682E+03  0.40000000000E+03 0.  1.
<mgrwt>
<rscale>  2 0.75477513E+03</rscale>
<asrwt>0</asrwt>
<pdfrwt beam="1">  1       21 0.78958041E-01 0.75481456E+03</pdfrwt>
<pdfrwt beam="2">  1       21 0.17241740E+00 0.75481456E+03</pdfrwt>
<totfact> 0.21113467E+02</totfact>
</mgrwt>
</event>
<event>
 6    1  0.9094387E-004  0.5534476E+03  0.7818608E-02  0.1001035E+00
         21   -1    0    0  501  502  0.00000000000E+00  0.00000000000E+00  0.61015350213E+03  0.61015350213E+03  0.00000000000E+00 0.  1.
         21   -1    0    0  502  503 -0.00000000000E+00 -0.00000000000E+00 -0.60749861072E+03  0.60749861072E+03  0.00000000000E+00 0.  1.
    9000007    2    1    2  501    0  0.37217228263E+03  0.37109998530E+02 -0.25862425827E+03  0.61089338485E+03  0.40793977588E+03 0.  0.
    9000005    1    3    3    0    0 -0.71651768916E+02 -0.28104743297E+02 -0.11780041854E+03  0.14071883736E+03  0.99999687468E+00 0.  0.
          4    1    3    3  501    0  0.44382405154E+03  0.65214741826E+02 -0.14082383973E+03  0.47017454750E+03  0.00000000000E+00 0.  1.
   -9000007    1    1    2    0  503 -0.37217228263E+03 -0.37109998530E+02  0.26127914968E+03  0.60675872800E+03  0.40000000000E+03 0.  1.
<mgrwt>
<rscale>  2 0.55198528E+03</rscale>
<asrwt>0</asrwt>
<pdfrwt beam="1">  1       21 0.93869769E-01 0.55344758E+03</pdfrwt>
<pdfrwt beam="2">  1       21 0.93461325E-01 0.55344758E+03</pdfrwt>
<totfact> 0.74512544E+02</totfact>
</mgrwt>
</event>
<event>
 6    1  0.9094387E-004  0.4541289E+03  0.7818608E-02  0.1026508E+00
         21   -1    0    0  501  502  0.00000000000E+00  0.00000000000E+00  0.35915595588E+03  0.35915595588E+03  0.00000000000E+00 0. -1.
         21   -1    0    0  502  503 -0.00000000000E+00 -0.00000000000E+00 -0.62334715855E+03  0.62334715855E+03  0.00000000000E+00 0.  1.
    9000007    2    1    2  501    0 -0.72954255145E+02 -0.20196786096E+03 -0.27026406194E+03  0.52846542897E+03  0.40014960481E+03 0.  0.
    9000005    1    3    3    0    0 -0.23872298147E+03 -0.95587298067E+02 -0.15484032700E+03  0.30017015224E+03  0.99999687468E+00 0.  0.
          4    1    3    3  501    0  0.16576872633E+03 -0.10638056289E+03 -0.11542373495E+03  0.22829527673E+03  0.00000000000E+00 0.  1.
   -9000007    1    1    2    0  503  0.72954255145E+02  0.20196786096E+03  0.60728592755E+01  0.45403768547E+03  0.40000000000E+03 0. -1.
<mgrwt>
<rscale>  2 0.45409593E+03</rscale>
<asrwt>0</asrwt>
<pdfrwt beam="1">  1       21 0.55254763E-01 0.45412889E+03</pdfrwt>
<pdfrwt beam="2">  1       21 0.95899562E-01 0.45412889E+03</pdfrwt>
<totfact> 0.24204874E+03</totfact>
</mgrwt>
</event>
<event>
 6    1  0.9094387E-004  0.5269157E+03  0.7818608E-02  0.1006990E+00
         21   -1    0    0  501  502  0.00000000000E+00  0.00000000000E+00  0.10754884817E+04  0.10754884817E+04  0.00000000000E+00 0. -1.
         21   -1    0    0  502  503 -0.00000000000E+00 -0.00000000000E+00 -0.27179987617E+03  0.27179987617E+03  0.00000000000E+00 0. -1.
    9000007    2    1    2  501    0 -0.11671390545E+02 -0.34278846569E+03  0.55304805614E+03  0.76379813640E+03  0.39985658329E+03 0.  0.
    9000005    1    3    3    0    0  0.11008799477E+02 -0.23560244602E+03  0.59993032434E+03  0.64462942866E+03  0.99999687468E+00 0.  0.
          4    1    3    3  501    0 -0.22680190022E+02 -0.10718601968E+03 -0.46882268200E+02  0.11916870774E+03  0.00000000000E+00 0.  1.
   -9000007    1    1    2    0  503  0.11671390545E+02  0.34278846569E+03  0.25064054941E+03  0.58349022149E+03  0.40000000000E+03 0. -1.
<mgrwt>
<rscale>  2 0.52688848E+03</rscale>
<asrwt>0</asrwt>
<pdfrwt beam="1">  1       21 0.16545976E+00 0.52691570E+03</pdfrwt>
<pdfrwt beam="2">  1       21 0.41815366E-01 0.52691570E+03</pdfrwt>
<totfact> 0.10342147E+03</totfact>
</mgrwt>
</event>
<event>
 6    1  0.9094387E-004  0.6476754E+03  0.7818608E-02  0.9812160E-01
         21   -1    0    0  501  502  0.00000000000E+00  0.00000000000E+00  0.94886718735E+03  0.94886718735E+03  0.00000000000E+00 0. -1.
         21   -1    0    0  502  503 -0.00000000000E+00 -0.00000000000E+00 -0.44102816369E+03  0.44102816369E+03  0.00000000000E+00 0.  1.
    9000007    2    1    2  501    0  0.42510139419E+03 -0.28066397195E+03  0.23262022911E+03  0.68617037255E+03  0.39652761402E+03 0.  0.
    9000005    1    3    3    0    0  0.35423717609E+03 -0.30723804240E+03  0.32216935941E+03  0.56892291900E+03  0.99999687468E+00 0.  0.
          4    1    3    3  501    0  0.70864218094E+02  0.26574070455E+02 -0.89549130298E+02  0.11724745355E+03  0.00000000000E+00 0.  1.
   -9000007    1    1    2    0  503 -0.42510139419E+03  0.28066397195E+03  0.27521879455E+03  0.70372497850E+03  0.40000000000E+03 0.  1.
<mgrwt>
<rscale>  2 0.64714008E+03</rscale>
<asrwt>0</asrwt>
<pdfrwt beam="1">  1       21 0.14597957E+00 0.64767543E+03</pdfrwt>
<pdfrwt beam="2">  1       21 0.67850487E-01 0.64767543E+03</pdfrwt>
<totfact> 0.49353967E+02</totfact>
</mgrwt>
</event>
<event>
 6    1  0.9094387E-004  0.7821912E+03  0.7818608E-02  0.9586281E-01
         21   -1    0    0  501  502  0.00000000000E+00  0.00000000000E+00  0.13914535761E+04  0.13914535761E+04  0.00000000000E+00 0. -1.
         21   -1    0    0  502  503 -0.00000000000E+00 -0.00000000000E+00 -0.50572897614E+03  0.50572897614E+03  0.00000000000E+00 0.  1.
    9000007    2    1    2  501    0  0.40212034873E+03 -0.53815069030E+03  0.78618080691E+03  0.11090100413E+04  0.40064456846E+03 0.  0.
    9000005    1    3    3    0    0  0.50836250441E+02  0.66007701231E+02  0.85358043936E+02  0.11928259152E+03  0.99999687468E+00 0.  0.
          4    1    3    3  501    0  0.35128409829E+03 -0.60415839153E+03  0.70082276297E+03  0.98972744979E+03  0.00000000000E+00 0.  1.
   -9000007    1    1    2    0  503 -0.40212034873E+03  0.53815069030E+03  0.99543793097E+02  0.78817251098E+03  0.40000000000E+03 0. -1.
<mgrwt>
<rscale>  2 0.78210866E+03</rscale>
<asrwt>0</asrwt>
<pdfrwt beam="1">  1       21 0.21406978E+00 0.78219116E+03</pdfrwt>
<pdfrwt beam="2">  1       21 0.77804458E-01 0.78219116E+03</pdfrwt>
<totfact> 0.11130666E+02</totfact>
</mgrwt>
</event>
<event>
 6    1  0.9094387E-004  0.4529763E+03  0.7818608E-02  0.1026887E+00
         21   -1    0    0  501  502  0.00000000000E+00  0.00000000000E+00  0.19080061797E+03  0.19080061797E+03  0.00000000000E+00 0.  1.
         21   -1    0    0  502  503 -0.00000000000E+00 -0.00000000000E+00 -0.11163243717E+04  0.11163243717E+04  0.00000000000E+00 0.  1.
    9000007    2    1    2  501    0 -0.11396275208E+03  0.17777526305E+03 -0.33558737949E+03  0.56374320439E+03  0.40074425538E+03 0.  0.
    9000005    1    3    3    0    0 -0.99316592458E+01 -0.12882283716E+03 -0.95304314753E+02  0.16055489290E+03  0.99999687468E+00 0.  0.
          4    1    3    3  501    0 -0.10403109283E+03  0.30659810021E+03 -0.24028306473E+03  0.40318831149E+03  0.00000000000E+00 0.  1.
   -9000007    1    1    2    0  503  0.11396275208E+03 -0.17777526305E+03 -0.58993637421E+03  0.74338178524E+03  0.40000000000E+03 0.  1.
<mgrwt>
<rscale>  2 0.45281162E+03</rscale>
<asrwt>0</asrwt>
<pdfrwt beam="1">  1       21 0.29353941E-01 0.45297628E+03</pdfrwt>
<pdfrwt beam="2">  1       21 0.17174221E+00 0.45297628E+03</pdfrwt>
<totfact> 0.19620234E+03</totfact>
</mgrwt>
</event>
<event>
 6    1  0.9094387E-004  0.4380389E+03  0.7818608E-02  0.1031420E+00
         21   -1    0    0  501  502  0.00000000000E+00  0.00000000000E+00  0.99041373485E+02  0.99041373485E+02  0.00000000000E+00 0.  1.
         21   -1    0    0  502  503 -0.00000000000E+00 -0.00000000000E+00 -0.20559185485E+04  0.20559185485E+04  0.00000000000E+00 0.  1.
    9000007    2    1    2  501    0 -0.27231320623E+02  0.17645541825E+03 -0.12405745150E+04  0.13153364587E+04  0.39900728400E+03 0.  0.
    9000005    1    3    3    0    0 -0.15959511190E+03 -0.74901515107E+01 -0.23251842483E+03  0.28212146319E+03  0.99999687468E+00 0.  0.
          4    1    3    3  501    0  0.13236379128E+03  0.18394556976E+03 -0.10080560902E+04  0.10332149955E+04  0.00000000000E+00 0.  1.
   -9000007    1    1    2    0  503  0.27231320623E+02 -0.17645541825E+03 -0.71630265995E+03  0.83962346329E+03  0.40000000000E+03 0.  1.
<mgrwt>
<rscale>  2 0.43781212E+03</rscale>
<asrwt>0</asrwt>
<pdfrwt beam="1">  1       21 0.15237135E-01 0.43803888E+03</pdfrwt>
<pdfrwt beam="2">  1       21 0.31629515E+00 0.43803888E+03</pdfrwt>
<totfact> 0.84494451E+02</totfact>
</mgrwt>
</event>
<event>
 6    1  0.9094387E-004  0.4366408E+03  0.7818608E-02  0.1031804E+00
         21   -1    0    0  501  502  0.00000000000E+00  0.00000000000E+00  0.24491144570E+03  0.24491144570E+03  0.00000000000E+00 0. -1.
         21   -1    0    0  502  503 -0.00000000000E+00 -0.00000000000E+00 -0.10312083628E+04  0.10312083628E+04  0.00000000000E+00 0. -1.
    9000007    2    1    2  501    0  0.12008885624E+03  0.12647837539E+03 -0.77054579999E+02  0.44338767535E+03  0.40029627717E+03 0.  0.
    9000005    1    3    3    0    0  0.41608596823E+02 -0.14321139625E+03 -0.63765275110E+02  0.16219676214E+03  0.99999687468E+00 0.  0.
          4    1    3    3  501    0  0.78480259416E+02  0.26968977164E+03 -0.13289304890E+02  0.28119091321E+03  0.00000000000E+00 0.  1.
   -9000007    1    1    2    0  503 -0.12008885624E+03 -0.12647837539E+03 -0.70924233708E+03  0.83273213313E+03  0.40000000000E+03 0. -1.
<mgrwt>
<rscale>  2 0.43657292E+03</rscale>
<asrwt>0</asrwt>
<pdfrwt beam="1">  1       21 0.37678683E-01 0.43664084E+03</pdfrwt>
<pdfrwt beam="2">  1       21 0.15864744E+00 0.43664084E+03</pdfrwt>
<totfact> 0.14948522E+03</totfact>
</mgrwt>
</event>
<event>
 6    1  0.9094387E-004  0.5191641E+03  0.7818608E-02  0.1008899E+00
         21   -1    0    0  501  502  0.00000000000E+00  0.00000000000E+00  0.56845395968E+03  0.56845395968E+03  0.00000000000E+00 0.  1.
         21   -1    0    0  502  503 -0.00000000000E+00 -0.00000000000E+00 -0.51801581635E+03  0.51801581635E+03  0.00000000000E+00 0. -1.
    9000007    2    1    2  501    0 -0.29254459075E+03 -0.15450008255E+03 -0.13298833208E+03  0.53592651254E+03  0.40009838451E+03 0.  0.
    9000005    1    3    3    0    0 -0.17938168324E+03 -0.23203245971E+03 -0.22593944188E+03  0.37022490737E+03  0.99999687468E+00 0.  0.
          4    1    3    3  501    0 -0.11316290751E+03  0.77532377160E+02  0.92951109802E+02  0.16570160517E+03  0.00000000000E+00 0.  1.
   -9000007    1    1    2    0  503  0.29254459075E+03  0.15450008255E+03  0.18342647542E+03  0.55054326349E+03  0.40000000000E+03 0.  1.
<mgrwt>
<rscale>  2 0.51914511E+03</rscale>
<asrwt>0</asrwt>
<pdfrwt beam="1">  1       21 0.87454456E-01 0.51916407E+03</pdfrwt>
<pdfrwt beam="2">  1       21 0.79694740E-01 0.51916407E+03</pdfrwt>
<totfact> 0.12993122E+03</totfact>
</mgrwt>
</event>
<event>
 6    1  0.9094387E-004  0.4822739E+03  0.7818608E-02  0.1018531E+00
         21   -1    0    0  501  502  0.00000000000E+00  0.00000000000E+00  0.27822743657E+03  0.27822743657E+03  0.00000000000E+00 0.  1.
         21   -1    0    0  502  503 -0.00000000000E+00 -0.00000000000E+00 -0.84117191335E+03  0.84117191335E+03  0.00000000000E+00 0. -1.
    9000007    2    1    2  501    0  0.15500901532E+03  0.21974817450E+03 -0.23549986658E+03  0.53670129108E+03  0.40033864872E+03 0.  0.
    9000005    1    3    3    0    0 -0.55079138629E+02  0.13183020641E+03 -0.27085663149E+03  0.30623068045E+03  0.99999687468E+00 0.  0.
          4    1    3    3  501    0  0.21008815394E+03  0.87917968089E+02  0.35356764902E+02  0.23047061063E+03  0.00000000000E+00 0.  1.
   -9000007    1    1    2    0  503 -0.15500901532E+03 -0.21974817450E+03 -0.32744461020E+03  0.58269805883E+03  0.40000000000E+03 0. -1.
<mgrwt>
<rscale>  2 0.48220359E+03</rscale>
<asrwt>0</asrwt>
<pdfrwt beam="1">  1       21 0.42804222E-01 0.48227387E+03</pdfrwt>
<pdfrwt beam="2">  1       21 0.12941106E+00 0.48227387E+03</pdfrwt>
<totfact> 0.19481518E+03</totfact>
</mgrwt>
</event>
<event>
 6    1  0.9094387E-004  0.6823203E+03  0.7818608E-02  0.9748062E-01
         21   -1    0    0  501  502  0.00000000000E+00  0.00000000000E+00  0.41898081363E+03  0.41898081363E+03  0.00000000000E+00 0. -1.
         21   -1    0    0  502  503 -0.00000000000E+00 -0.00000000000E+00 -0.11825502983E+04  0.11825502983E+04  0.00000000000E+00 0.  1.
    9000007    2    1    2  501    0 -0.23723772817E+03  0.49894481451E+03 -0.18457201356E+03  0.70684360271E+03  0.40041651178E+03 0.  0.
    9000005    1    3    3    0    0 -0.13811909726E+03  0.15389334588E+03  0.11734349722E+03  0.23776152605E+03  0.99999687468E+00 0.  0.
          4    1    3    3  501    0 -0.99118630906E+02  0.34505146863E+03 -0.30191551078E+03  0.46908207666E+03  0.00000000000E+00 0.  1.
   -9000007    1    1    2    0  503  0.23723772817E+03 -0.49894481451E+03 -0.57899747106E+03  0.89468750919E+03  0.40000000000E+03 0.  1.
<mgrwt>
<rscale>  2 0.68225925E+03</rscale>
<asrwt>0</asrwt>
<pdfrwt beam="1">  1       21 0.64458588E-01 0.68232034E+03</pdfrwt>
<pdfrwt beam="2">  1       21 0.18193081E+00 0.68232034E+03</pdfrwt>
<totfact> 0.29284241E+02</totfact>
</mgrwt>
</event>
<event>
 6    1  0.9094387E-004  0.4407636E+03  0.7818608E-02  0.1030567E+00
         21   -1    0    0  501  502  0.00000000000E+00  0.00000000000E+00  0.33870876254E+03  0.33870876254E+03  0.00000000000E+00 0. -1.
         21   -1    0    0  502  503 -0.00000000000E+00 -0.00000000000E+00 -0.77493281745E+03  0.77493281745E+03  0.00000000000E+00 0.  1.
    9000007    2    1    2  501    0  0.33290336597E+02  0.18037808488E+03  0.66251302184E+02  0.44571494892E+03  0.40078433182E+03 0.  0.
    9000005    1    3    3    0    0  0.91879623278E+02  0.29171395216E+03  0.87520088328E+02  0.31811894146E+03  0.99999687468E+00 0.  0.
          4    1    3    3  501    0 -0.58589286681E+02 -0.11133586728E+03 -0.21268786144E+02  0.12759600746E+03  0.00000000000E+00 0.  1.
   -9000007    1    1    2    0  503 -0.33290336597E+02 -0.18037808488E+03 -0.50247535709E+03  0.66792663108E+03  0.40000000000E+03 0.  1.
<mgrwt>
<rscale>  2 0.44058526E+03</rscale>
<asrwt>0</asrwt>
<pdfrwt beam="1">  1       21 0.52109041E-01 0.44076363E+03</pdfrwt>
<pdfrwt beam="2">  1       21 0.11922043E+00 0.44076363E+03</pdfrwt>
<totfact> 0.16133619E+03</totfact>
</mgrwt>
</event>
<event>
 6    1  0.9094387E-004  0.5389861E+03  0.7818608E-02  0.1004082E+00
         21   -1    0    0  501  502  0.00000000000E+00  0.00000000000E+00  0.25870475374E+04  0.25870475374E+04  0.00000000000E+00 0.  1.
         21   -1    0    0  502  503 -0.00000000000E+00 -0.00000000000E+00 -0.11229387082E+03  0.11229387082E+03  0.00000000000E+00 0. -1.
    9000007    2    1    2  501    0  0.26480307614E+03 -0.24548898332E+03  0.12575086496E+04  0.13681498587E+04  0.40015062420E+03 0.  0.
    9000005    1    3    3    0    0  0.59167617862E+02 -0.14764336570E+03  0.98740480175E+02  0.18721659344E+03  0.99999687468E+00 0.  0.
          4    1    3    3  501    0  0.20563545828E+03 -0.97845617618E+02  0.11587681694E+04  0.11809332653E+04  0.00000000000E+00 0.  1.
   -9000007    1    1    2    0  503 -0.26480307614E+03  0.24548898332E+03  0.12172450170E+04  0.13311915495E+04  0.40000000000E+03 0. -1.
<mgrwt>
<rscale>  2 0.53895816E+03</rscale>
<asrwt>0</asrwt>
<pdfrwt beam="1">  1       21 0.39800727E+00 0.53898611E+03</pdfrwt>
<pdfrwt beam="2">  1       21 0.17275982E-01 0.53898611E+03</pdfrwt>
<totfact> 0.19648144E+02</totfact>
</mgrwt>
</event>
<event>
 6    1  0.9094387E-004  0.7467997E+03  0.7818608E-02  0.9640635E-01
         21   -1    0    0  501  502  0.00000000000E+00  0.00000000000E+00  0.87992237480E+03  0.87992237480E+03  0.00000000000E+00 0.  1.
         21   -1    0    0  502  503 -0.00000000000E+00 -0.00000000000E+00 -0.66214208631E+03  0.66214208631E+03  0.00000000000E+00 0. -1.
    9000007    2    1    2  501    0  0.34026862311E+03 -0.53096808277E+03 -0.52133921334E+02  0.74798416199E+03  0.39881389147E+03 0.  0.
    9000005    1    3    3    0    0  0.23442177905E+03 -0.32990657709E+03 -0.22447571246E+03  0.46279829902E+03  0.99999687468E+00 0.  0.
          4    1    3    3  501    0  0.10584684406E+03 -0.20106150569E+03  0.17234179113E+03  0.28518586297E+03  0.00000000000E+00 0.  1.
   -9000007    1    1    2    0  503 -0.34026862311E+03  0.53096808277E+03  0.26991420982E+03  0.79408029913E+03  0.40000000000E+03 0.  1.
<mgrwt>
<rscale>  2 0.74664102E+03</rscale>
<asrwt>0</asrwt>
<pdfrwt beam="1">  1       21 0.13537267E+00 0.74679973E+03</pdfrwt>
<pdfrwt beam="2">  1       21 0.10186801E+00 0.74679973E+03</pdfrwt>
<totfact> 0.22541493E+02</totfact>
</mgrwt>
</event>
<event>
 6    1  0.9094387E-004  0.6385820E+03  0.7818608E-02  0.9828549E-01
         21   -1    0    0  501  502  0.00000000000E+00  0.00000000000E+00  0.19685385933E+04  0.19685385933E+04  0.00000000000E+00 0.  1.
         21   -1    0    0  502  503 -0.00000000000E+00 -0.00000000000E+00 -0.28972478784E+03  0.28972478784E+03  0.00000000000E+00 0. -1.
    9000007    2    1    2  501    0  0.39177234830E+03 -0.30708537220E+03  0.14423593727E+04  0.15773098603E+04  0.39964839147E+03 0.  0.
    9000005    1    3    3    0    0 -0.13808607396E+02  0.55323469044E+02  0.31305534990E+02  0.65056901095E+02  0.99999687468E+00 0.  0.
          4    1    3    3  501    0  0.40558095569E+03 -0.36240884125E+03  0.14110538377E+04  0.15122529592E+04  0.00000000000E+00 0.  1.
   -9000007    1    1    2    0  503 -0.39177234830E+03  0.30708537220E+03  0.23645443275E+03  0.68095352079E+03  0.40000000000E+03 0. -1.
<mgrwt>
<rscale>  2 0.63852697E+03</rscale>
<asrwt>0</asrwt>
<pdfrwt beam="1">  1       21 0.30285208E+00 0.63858202E+03</pdfrwt>
<pdfrwt beam="2">  1       21 0.44573045E-01 0.63858202E+03</pdfrwt>
<totfact> 0.11157524E+02</totfact>
</mgrwt>
</event>
<event>
 6    1  0.9094387E-004  0.8028052E+03  0.7818608E-02  0.9555986E-01
         21   -1    0    0  501  502  0.00000000000E+00  0.00000000000E+00  0.70761472123E+03  0.70761472123E+03  0.00000000000E+00 0.  1.
         21   -1    0    0  502  503 -0.00000000000E+00 -0.00000000000E+00 -0.11438475360E+04  0.11438475360E+04  0.00000000000E+00 0.  1.
    9000007    2    1    2  501    0  0.36027722467E+03 -0.59548634807E+03  0.19978766476E+03  0.82729150986E+03  0.40011556073E+03 0.  0.
    9000005    1    3    3    0    0  0.45022965943E+02 -0.97612675259E+02 -0.11647162891E+03  0.15849902892E+03  0.99999687468E+00 0.  0.
          4    1    3    3  501    0  0.31525425873E+03 -0.49787367281E+03  0.31625929368E+03  0.66879248094E+03  0.00000000000E+00 0.  1.
   -9000007    1    1    2    0  503 -0.36027722467E+03  0.59548634807E+03 -0.63602047953E+03  0.10241707474E+04  0.40000000000E+03 0.  1.
<mgrwt>
<rscale>  2 0.80279077E+03</rscale>
<asrwt>0</asrwt>
<pdfrwt beam="1">  1       21 0.10886380E+00 0.80280516E+03</pdfrwt>
<pdfrwt beam="2">  1       21 0.17597654E+00 0.80280516E+03</pdfrwt>
<totfact> 0.90091229E+01</totfact>
</mgrwt>
</event>
<event>
 6    1  0.9094387E-004  0.5027373E+03  0.7818608E-02  0.1013105E+00
         21   -1    0    0  501  502  0.00000000000E+00  0.00000000000E+00  0.14656982972E+03  0.14656982972E+03  0.00000000000E+00 0. -1.
         21   -1    0    0  502  503 -0.00000000000E+00 -0.00000000000E+00 -0.17254474800E+04  0.17254474800E+04  0.00000000000E+00 0. -1.
    9000007    2    1    2  501    0  0.27446215122E+03  0.13196715493E+03 -0.74946616571E+03  0.90213679482E+03  0.39925738641E+03 0.  0.
    9000005    1    3    3    0    0  0.29264222407E+03  0.10239698253E+03 -0.79006505459E+03  0.84872162916E+03  0.99999687468E+00 0.  0.
          4    1    3    3  501    0 -0.18180072847E+02  0.29570172393E+02  0.40598888879E+02  0.53415165658E+02  0.00000000000E+00 0.  1.
   -9000007    1    1    2    0  503 -0.27446215122E+03 -0.13196715493E+03 -0.82941148454E+03  0.96988051487E+03  0.40000000000E+03 0. -1.
<mgrwt>
<rscale>  2 0.50258958E+03</rscale>
<asrwt>0</asrwt>
<pdfrwt beam="1">  1       21 0.22549204E-01 0.50273731E+03</pdfrwt>
<pdfrwt beam="2">  1       21 0.26545346E+00 0.50273731E+03</pdfrwt>
<totfact> 0.78922663E+02</totfact>
</mgrwt>
</event>
<event>
 6    1  0.9094387E-004  0.4574070E+03  0.7818608E-02  0.1025542E+00
         21   -1    0    0  501  502  0.00000000000E+00  0.00000000000E+00  0.17005925780E+03  0.17005925780E+03  0.00000000000E+00 0. -1.
         21   -1    0    0  502  503 -0.00000000000E+00 -0.00000000000E+00 -0.17212269116E+04  0.17212269116E+04  0.00000000000E+00 0. -1.
    9000007    2    1    2  501    0 -0.22080980502E+03 -0.21545772249E+02 -0.27036869282E+03  0.53126147523E+03  0.39989790535E+03 0.  0.
    9000005    1    3    3    0    0 -0.15868846478E+03 -0.20705170891E+03 -0.17013524638E+03  0.31144733274E+03  0.99999687468E+00 0.  0.
          4    1    3    3  501    0 -0.62121340240E+02  0.18550593666E+03 -0.10023344645E+03  0.21981414249E+03  0.00000000000E+00 0.  1.
   -9000007    1    1    2    0  503  0.22080980502E+03  0.21545772249E+02 -0.12807989610E+04  0.13600246941E+04  0.40000000000E+03 0. -1.
<mgrwt>
<rscale>  2 0.45738471E+03</rscale>
<asrwt>0</asrwt>
<pdfrwt beam="1">  1       21 0.26162962E-01 0.45740703E+03</pdfrwt>
<pdfrwt beam="2">  1       21 0.26480414E+00 0.45740703E+03</pdfrwt>
<totfact> 0.61022511E+02</totfact>
</mgrwt>
</event>
<event>
 6    1  0.9094387E-004  0.4999901E+03  0.7818608E-02  0.1013784E+00
         21   -1    0    0  501  502  0.00000000000E+00  0.00000000000E+00  0.26097580524E+03  0.26097580524E+03  0.00000000000E+00 0.  1.
         21   -1    0    0  502  503 -0.00000000000E+00 -0.00000000000E+00 -0.18987191014E+04  0.18987191014E+04  0.00000000000E+00 0.  1.
    9000007    2    1    2  501    0 -0.19313113871E+03  0.22945770568E+03 -0.58734345284E+02  0.50342809770E+03  0.40004956043E+03 0.  0.
    9000005    1    3    3    0    0 -0.87272244540E+02  0.24287836387E+00  0.15152499911E+03  0.17486374412E+03  0.99999687468E+00 0.  0.
          4    1    3    3  501    0 -0.10585889417E+03  0.22921482732E+03 -0.21025934440E+03  0.32856435358E+03  0.00000000000E+00 0.  1.
   -9000007    1    1    2    0  503  0.19313113871E+03 -0.22945770568E+03 -0.15790089509E+04  0.16562668090E+04  0.40000000000E+03 0.  1.
<mgrwt>
<rscale>  2 0.49998021E+03</rscale>
<asrwt>0</asrwt>
<pdfrwt beam="1">  1       21 0.40150124E-01 0.49999013E+03</pdfrwt>
<pdfrwt beam="2">  1       21 0.29211063E+00 0.49999013E+03</pdfrwt>
<totfact> 0.17243066E+02</totfact>
</mgrwt>
</event>
<event>
 6    1  0.9094387E-004  0.4090831E+03  0.7818608E-02  0.1040786E+00
         21   -1    0    0  501  502  0.00000000000E+00  0.00000000000E+00  0.14127365425E+04  0.14127365425E+04  0.00000000000E+00 0. -1.
         21   -1    0    0  502  503 -0.00000000000E+00 -0.00000000000E+00 -0.41863322503E+03  0.41863322503E+03  0.00000000000E+00 0. -1.
    9000007    2    1    2  501    0  0.51901955094E+02 -0.68228508939E+02  0.12726919396E+04  0.13364348599E+04  0.39870342260E+03 0.  0.
    9000005    1    3    3    0    0  0.10225455021E+03  0.12958521566E+03  0.86372247668E+03  0.87935535358E+03  0.99999687468E+00 0.  0.
          4    1    3    3  501    0 -0.50352595112E+02 -0.19781372460E+03  0.40896946294E+03  0.45707950631E+03  0.00000000000E+00 0.  1.
   -9000007    1    1    2    0  503 -0.51901955094E+02  0.68228508939E+02 -0.27858862217E+03  0.49493490761E+03  0.40000000000E+03 0. -1.
<mgrwt>
<rscale>  2 0.40876576E+03</rscale>
<asrwt>0</asrwt>
<pdfrwt beam="1">  1       21 0.21734408E+00 0.40908305E+03</pdfrwt>
<pdfrwt beam="2">  1       21 0.64405112E-01 0.40908305E+03</pdfrwt>
<totfact> 0.19102017E+02</totfact>
</mgrwt>
</event>
<event>
 6    1  0.9094387E-004  0.4580053E+03  0.7818608E-02  0.1025837E+00
         21   -1    0    0  501  502  0.00000000000E+00  0.00000000000E+00  0.63418725043E+03  0.63418725043E+03  0.00000000000E+00 0.  1.
         21   -1    0    0  502  503 -0.00000000000E+00 -0.00000000000E+00 -0.47056061797E+03  0.47056061797E+03  0.00000000000E+00 0.  1.
    9000007    2    1    2  501    0 -0.17132778745E+03 -0.14288320058E+03 -0.22462731695E+03  0.50432306129E+03  0.39257546900E+03 0.  0.
    9000005    1    3    3    0    0 -0.10801529091E+03  0.40040279300E+02 -0.28017949128E+03  0.30293906048E+03  0.99999687468E+00 0.  0.
          4    1    3    3  501    0 -0.63312496545E+02 -0.18292347988E+03  0.55552174327E+02  0.20138400081E+03  0.00000000000E+00 0.  1.
   -9000007    1    1    2    0  503  0.17132778745E+03  0.14288320058E+03  0.38825394941E+03  0.60042480711E+03  0.40000000000E+03 0.  1.
<mgrwt>
<rscale>  2 0.45637919E+03</rscale>
<asrwt>0</asrwt>
<pdfrwt beam="1">  1       21 0.97567269E-01 0.45800526E+03</pdfrwt>
<pdfrwt beam="2">  1       21 0.72393941E-01 0.45800526E+03</pdfrwt>
<totfact> 0.12752513E+03</totfact>
</mgrwt>
</event>
<event>
 6    1  0.9094387E-004  0.4990442E+03  0.7818608E-02  0.1014075E+00
         21   -1    0    0  501  502  0.00000000000E+00  0.00000000000E+00  0.43808084536E+03  0.43808084536E+03  0.00000000000E+00 0.  1.
         21   -1    0    0  502  503 -0.00000000000E+00 -0.00000000000E+00 -0.11043706776E+04  0.11043706776E+04  0.00000000000E+00 0.  1.
    9000007    2    1    2  501    0 -0.16475288928E+03  0.24880025585E+03  0.20460863830E+03  0.53870393127E+03  0.39911420529E+03 0.  0.
    9000005    1    3    3    0    0  0.45039983975E+02  0.27668878483E+03  0.73728567799E+02  0.28986580604E+03  0.99999687468E+00 0.  0.
          4    1    3    3  501    0 -0.20979287325E+03 -0.27888528977E+02  0.13088007050E+03  0.24883812523E+03  0.00000000000E+00 0.  1.
   -9000007    1    1    2    0  503  0.16475288928E+03 -0.24880025585E+03 -0.87089847059E+03  0.10037475917E+04  0.40000000000E+03 0.  1.
<mgrwt>
<rscale>  2 0.49886665E+03</rscale>
<asrwt>0</asrwt>
<pdfrwt beam="1">  1       21 0.67397054E-01 0.49904417E+03</pdfrwt>
<pdfrwt beam="2">  1       21 0.16990318E+00 0.49904417E+03</pdfrwt>
<totfact> 0.34650023E+02</totfact>
</mgrwt>
</event>
<event>
 6    1  0.9094387E-004  0.5771429E+03  0.7818608E-02  0.9954231E-01
         21   -1    0    0  501  502  0.00000000000E+00  0.00000000000E+00  0.40657484669E+03  0.40657484669E+03  0.00000000000E+00 0.  1.
         21   -1    0    0  502  503 -0.00000000000E+00 -0.00000000000E+00 -0.11062449339E+04  0.11062449339E+04  0.00000000000E+00 0.  1.
    9000007    2    1    2  501    0  0.31484218152E+03 -0.27197129237E+03  0.35933399836E+02  0.57782968797E+03  0.39937695969E+03 0.  0.
    9000005    1    3    3    0    0  0.59446185585E+02 -0.26399709082E+03 -0.99885699956E+02  0.28845531021E+03  0.99999687468E+00 0.  0.
          4    1    3    3  501    0  0.25539599593E+03 -0.79742015519E+01  0.13581909979E+03  0.28937437775E+03  0.00000000000E+00 0.  1.
   -9000007    1    1    2    0  503 -0.31484218152E+03  0.27197129237E+03 -0.73560348705E+03  0.93499009262E+03  0.40000000000E+03 0.  1.
<mgrwt>
<rscale>  2 0.57703501E+03</rscale>
<asrwt>0</asrwt>
<pdfrwt beam="1">  1       21 0.62549977E-01 0.57714295E+03</pdfrwt>
<pdfrwt beam="2">  1       21 0.17019153E+00 0.57714295E+03</pdfrwt>
<totfact> 0.39470596E+02</totfact>
</mgrwt>
</event>
<event>
 6    1  0.9094387E-004  0.4497682E+03  0.7818608E-02  0.1027846E+00
         21   -1    0    0  501  502  0.00000000000E+00  0.00000000000E+00  0.31802607594E+03  0.31802607594E+03  0.00000000000E+00 0. -1.
         21   -1    0    0  502  503 -0.00000000000E+00 -0.00000000000E+00 -0.90849208154E+03  0.90849208154E+03  0.00000000000E+00 0.  1.
    9000007    2    1    2  501    0  0.19214834109E+03  0.73283414714E+02  0.41388456229E+02  0.45093353619E+03  0.39916989603E+03 0.  0.
    9000005    1    3    3    0    0  0.48676485458E+02 -0.20728003530E+02  0.20630578497E+03  0.21298386623E+03  0.99999687468E+00 0.  0.
          4    1    3    3  501    0  0.14347185563E+03  0.94011418244E+02 -0.16491732874E+03  0.23794966997E+03  0.00000000000E+00 0.  1.
   -9000007    1    1    2    0  503 -0.19214834109E+03 -0.73283414714E+02 -0.63185446182E+03  0.77558462129E+03  0.40000000000E+03 0.  1.
<mgrwt>
<rscale>  2 0.44958358E+03</rscale>
<asrwt>0</asrwt>
<pdfrwt beam="1">  1       21 0.48927089E-01 0.44976821E+03</pdfrwt>
<pdfrwt beam="2">  1       21 0.13976801E+00 0.44976821E+03</pdfrwt>
<totfact> 0.12172057E+03</totfact>
</mgrwt>
</event>
<event>
 6    1  0.9094387E-004  0.4346278E+03  0.7818608E-02  0.1032502E+00
         21   -1    0    0  501  502  0.00000000000E+00  0.00000000000E+00  0.11141485163E+03  0.11141485163E+03  0.00000000000E+00 0. -1.
         21   -1    0    0  502  503 -0.00000000000E+00 -0.00000000000E+00 -0.21888909616E+04  0.21888909616E+04  0.00000000000E+00 0. -1.
    9000007    2    1    2  501    0  0.15393785833E+03 -0.72141740452E+02 -0.15862937551E+04  0.16444389055E+04  0.39868551697E+03 0.  0.
    9000005    1    3    3    0    0  0.14527230505E+03  0.11966645338E+03 -0.39239838081E+03  0.43520293190E+03  0.99999687468E+00 0.  0.
          4    1    3    3  501    0  0.86655532782E+01 -0.19180819384E+03 -0.11938953743E+04  0.12092359736E+04  0.00000000000E+00 0.  1.
   -9000007    1    1    2    0  503 -0.15393785833E+03  0.72141740452E+02 -0.49118235481E+03  0.65586690770E+03  0.40000000000E+03 0. -1.
<mgrwt>
<rscale>  2 0.43432509E+03</rscale>
<asrwt>0</asrwt>
<pdfrwt beam="1">  1       21 0.17140747E-01 0.43462777E+03</pdfrwt>
<pdfrwt beam="2">  1       21 0.33675245E+00 0.43462777E+03</pdfrwt>
<totfact> 0.51128498E+02</totfact>
</mgrwt>
</event>
<event>
 6    1  0.9094387E-004  0.4395302E+03  0.7818608E-02  0.1030923E+00
         21   -1    0    0  501  502  0.00000000000E+00  0.00000000000E+00  0.12465528378E+03  0.12465528378E+03  0.00000000000E+00 0. -1.
         21   -1    0    0  502  503 -0.00000000000E+00 -0.00000000000E+00 -0.19721985321E+04  0.19721985321E+04  0.00000000000E+00 0. -1.
    9000007    2    1    2  501    0 -0.15200628209E+03 -0.98559678014E+02 -0.14101827385E+04  0.14770924622E+04  0.40045832013E+03 0.  0.
    9000005    1    3    3    0    0 -0.19065731405E+03 -0.23216290534E+03 -0.95576573043E+03  0.10018677345E+04  0.99999687468E+00 0.  0.
          4    1    3    3  501    0  0.38651031963E+02  0.13360322733E+03 -0.45441700802E+03  0.47522472769E+03  0.00000000000E+00 0.  1.
   -9000007    1    1    2    0  503  0.15200628209E+03  0.98559678014E+02 -0.43736050988E+03  0.61976135369E+03  0.40000000000E+03 0. -1.
<mgrwt>
<rscale>  2 0.43942577E+03</rscale>
<asrwt>0</asrwt>
<pdfrwt beam="1">  1       21 0.19177737E-01 0.43953019E+03</pdfrwt>
<pdfrwt beam="2">  1       21 0.30341514E+00 0.43953019E+03</pdfrwt>
<totfact> 0.65559754E+02</totfact>
</mgrwt>
</event>
<event>
 6    1  0.9094387E-004  0.4048650E+03  0.7818608E-02  0.1042367E+00
         21   -1    0    0  501  502  0.00000000000E+00  0.00000000000E+00  0.95773958426E+02  0.95773958426E+02  0.00000000000E+00 0.  1.
         21   -1    0    0  502  503 -0.00000000000E+00 -0.00000000000E+00 -0.23889324832E+04  0.23889324832E+04  0.00000000000E+00 0.  1.
    9000007    2    1    2  501    0 -0.55193206530E+02  0.29485136257E+02 -0.47573919196E+03  0.62273740467E+03  0.39693630862E+03 0.  0.
    9000005    1    3    3    0    0  0.37673322078E+00 -0.17185132802E+03 -0.11792223273E+03  0.20842186506E+03  0.99999687468E+00 0.  0.
          4    1    3    3  501    0 -0.55569939750E+02  0.20133646427E+03 -0.35781695923E+03  0.41431553961E+03  0.00000000000E+00 0.  1.
   -9000007    1    1    2    0  503  0.55193206530E+02 -0.29485136257E+02 -0.18174193329E+04  0.18619690370E+04  0.40000000000E+03 0.  1.
<mgrwt>
<rscale>  2 0.40410621E+03</rscale>
<asrwt>0</asrwt>
<pdfrwt beam="1">  1       21 0.14734458E-01 0.40486499E+03</pdfrwt>
<pdfrwt beam="2">  1       21 0.36752801E+00 0.40486499E+03</pdfrwt>
<totfact> 0.44735402E+02</totfact>
</mgrwt>
</event>
<event>
 6    1  0.9094387E-004  0.4303957E+03  0.7818608E-02  0.1033753E+00
         21   -1    0    0  501  502  0.00000000000E+00  0.00000000000E+00  0.12030066810E+03  0.12030066810E+03  0.00000000000E+00 0. -1.
         21   -1    0    0  502  503 -0.00000000000E+00 -0.00000000000E+00 -0.15507372857E+04  0.15507372857E+04  0.00000000000E+00 0. -1.
    9000007    2    1    2  501    0  0.10159506846E+03 -0.12131587290E+03 -0.64264620015E+03  0.77345629134E+03  0.40025166720E+03 0.  0.
    9000005    1    3    3    0    0  0.66015227016E+02  0.14604333267E+03 -0.22345628229E+03  0.27499159133E+03  0.99999687468E+00 0.  0.
          4    1    3    3  501    0  0.35579841447E+02 -0.26735920557E+03 -0.41918991786E+03  0.49846470001E+03  0.00000000000E+00 0.  1.
   -9000007    1    1    2    0  503 -0.10159506846E+03  0.12131587290E+03 -0.78779041741E+03  0.89758166242E+03  0.40000000000E+03 0.  1.
<mgrwt>
<rscale>  2 0.43033722E+03</rscale>
<asrwt>0</asrwt>
<pdfrwt beam="1">  1       21 0.18507796E-01 0.43039574E+03</pdfrwt>
<pdfrwt beam="2">  1       21 0.23857496E+00 0.43039574E+03</pdfrwt>
<totfact> 0.17418419E+03</totfact>
</mgrwt>
</event>
<event>
 6    1  0.9094387E-004  0.4017309E+03  0.7818608E-02  0.1043239E+00
         21   -1    0    0  501  502  0.00000000000E+00  0.00000000000E+00  0.20146781115E+03  0.20146781115E+03  0.00000000000E+00 0.  1.
         21   -1    0    0  502  503 -0.00000000000E+00 -0.00000000000E+00 -0.84352019666E+03  0.84352019666E+03  0.00000000000E+00 0.  1.
    9000007    2    1    2  501    0  0.77665812169E+01 -0.28204559491E+02 -0.20224160657E+03  0.44976591629E+03  0.40066431719E+03 0.  0.
    9000005    1    3    3    0    0 -0.13507663383E+03 -0.11934192300E+03 -0.21414695856E+03  0.27990732653E+03  0.99999687468E+00 0.  0.
          4    1    3    3  501    0  0.14284321504E+03  0.91137363506E+02  0.11905351985E+02  0.16985858976E+03  0.00000000000E+00 0.  1.
   -9000007    1    1    2    0  503 -0.77665812169E+01  0.28204559491E+02 -0.43981077893E+03  0.59522209151E+03  0.40000000000E+03 0.  1.
<mgrwt>
<rscale>  2 0.40156515E+03</rscale>
<asrwt>0</asrwt>
<pdfrwt beam="1">  1       21 0.30995047E-01 0.40173090E+03</pdfrwt>
<pdfrwt beam="2">  1       21 0.12977234E+00 0.40173090E+03</pdfrwt>
<totfact> 0.38458085E+03</totfact>
</mgrwt>
</event>
<event>
 6    1  0.9094387E-004  0.4801821E+03  0.7818608E-02  0.1019139E+00
         21   -1    0    0  501  502  0.00000000000E+00  0.00000000000E+00  0.50838286466E+03  0.50838286466E+03  0.00000000000E+00 0.  1.
         21   -1    0    0  502  503 -0.00000000000E+00 -0.00000000000E+00 -0.45655207523E+03  0.45655207523E+03  0.00000000000E+00 0.  1.
    9000007    2    1    2  501    0  0.19965616118E+03  0.17307423022E+03 -0.17799609076E+02  0.48051191787E+03  0.40094588821E+03 0.  0.
    9000005    1    3    3    0    0 -0.10804687324E+03 -0.28713812590E+02  0.42771604667E+01  0.11188343910E+03  0.99999687468E+00 0.  0.
          4    1    3    3  501    0  0.30770303442E+03  0.20178804281E+03 -0.22076769542E+02  0.36862847877E+03  0.00000000000E+00 0.  1.
   -9000007    1    1    2    0  503 -0.19965616118E+03 -0.17307423022E+03  0.69630398510E+02  0.48442302202E+03  0.40000000000E+03 0.  1.
<mgrwt>
<rscale>  2 0.47998463E+03</rscale>
<asrwt>0</asrwt>
<pdfrwt beam="1">  1       21 0.78212749E-01 0.48018213E+03</pdfrwt>
<pdfrwt beam="2">  1       21 0.70238781E-01 0.48018213E+03</pdfrwt>
<totfact> 0.22803967E+03</totfact>
</mgrwt>
</event>
<event>
 6    1  0.9094387E-004  0.7057343E+03  0.7818608E-02  0.9707825E-01
         21   -1    0    0  501  502  0.00000000000E+00  0.00000000000E+00  0.12286719707E+04  0.12286719707E+04  0.00000000000E+00 0.  1.
         21   -1    0    0  502  503 -0.00000000000E+00 -0.00000000000E+00 -0.74903410340E+03  0.74903410340E+03  0.00000000000E+00 0. -1.
    9000007    2    1    2  501    0  0.55191893782E+03 -0.17966989325E+03  0.91016591237E+03  0.11517217025E+04  0.40145374263E+03 0.  0.
    9000005    1    3    3    0    0  0.17280608136E+03  0.10853742592E+03  0.14453529435E+03  0.25006752265E+03  0.99999687468E+00 0.  0.
          4    1    3    3  501    0  0.37911285646E+03 -0.28820731917E+03  0.76563061802E+03  0.90165417983E+03  0.00000000000E+00 0.  1.
   -9000007    1    1    2    0  503 -0.55191893782E+03  0.17966989325E+03 -0.43052804511E+03  0.82598437158E+03  0.40000000000E+03 0. -1.
<mgrwt>
<rscale>  2 0.70552772E+03</rscale>
<asrwt>0</asrwt>
<pdfrwt beam="1">  1       21 0.18902646E+00 0.70573429E+03</pdfrwt>
<pdfrwt beam="2">  1       21 0.11523602E+00 0.70573429E+03</pdfrwt>
<totfact> 0.65024513E+01</totfact>
</mgrwt>
</event>
<event>
 6    1  0.9094387E-004  0.4811948E+03  0.7818608E-02  0.1019631E+00
         21   -1    0    0  501  502  0.00000000000E+00  0.00000000000E+00  0.88337445761E+03  0.88337445761E+03  0.00000000000E+00 0. -1.
         21   -1    0    0  502  503 -0.00000000000E+00 -0.00000000000E+00 -0.28310254215E+03  0.28310254215E+03  0.00000000000E+00 0. -1.
    9000007    2    1    2  501    0  0.23241383247E+03  0.79044857940E+02  0.48499313246E+03  0.68320329170E+03  0.41386485737E+03 0.  0.
    9000005    1    3    3    0    0  0.31735019791E+03  0.50580306122E+02  0.18649160116E+03  0.37155030989E+03  0.99999687468E+00 0.  0.
          4    1    3    3  501    0 -0.84936365443E+02  0.28464551818E+02  0.29850153130E+03  0.31165298181E+03  0.00000000000E+00 0.  1.
   -9000007    1    1    2    0  503 -0.23241383247E+03 -0.79044857940E+02  0.11527878300E+03  0.48327370806E+03  0.40000000000E+03 0. -1.
<mgrwt>
<rscale>  2 0.47819902E+03</rscale>
<asrwt>0</asrwt>
<pdfrwt beam="1">  1       21 0.13590376E+00 0.48119476E+03</pdfrwt>
<pdfrwt beam="2">  1       21 0.43554237E-01 0.48119476E+03</pdfrwt>
<totfact> 0.16539739E+03</totfact>
</mgrwt>
</event>
<event>
 6    1  0.9094387E-004  0.4076249E+03  0.7818608E-02  0.1041197E+00
         21   -1    0    0  501  502  0.00000000000E+00  0.00000000000E+00  0.30156636418E+03  0.30156636418E+03  0.00000000000E+00 0. -1.
         21   -1    0    0  502  503 -0.00000000000E+00 -0.00000000000E+00 -0.56449382388E+03  0.56449382388E+03  0.00000000000E+00 0. -1.
    9000007    2    1    2  501    0 -0.73321836555E+02  0.23122457373E+02 -0.63510117536E+02  0.41254280570E+03  0.40030899535E+03 0.  0.
    9000005    1    3    3    0    0 -0.22393054071E+03 -0.51641986358E+02 -0.80592999462E+02  0.24353236617E+03  0.99999687468E+00 0.  0.
          4    1    3    3  501    0  0.15060870416E+03  0.74764443731E+02  0.17082881926E+02  0.16901043953E+03  0.00000000000E+00 0.  1.
   -9000007    1    1    2    0  503  0.73321836555E+02 -0.23122457373E+02 -0.19941734216E+03  0.45351738236E+03  0.40000000000E+03 0. -1.
<mgrwt>
<rscale>  2 0.40754898E+03</rscale>
<asrwt>0</asrwt>
<pdfrwt beam="1">  1       21 0.46394826E-01 0.40762487E+03</pdfrwt>
<pdfrwt beam="2">  1       21 0.86845202E-01 0.40762487E+03</pdfrwt>
<totfact> 0.45200943E+03</totfact>
</mgrwt>
</event>
<event>
 6    1  0.9094387E-004  0.4202774E+03  0.7818608E-02  0.1036989E+00
         21   -1    0    0  501  502  0.00000000000E+00  0.00000000000E+00  0.19397580015E+03  0.19397580015E+03  0.00000000000E+00 0. -1.
         21   -1    0    0  502  503 -0.00000000000E+00 -0.00000000000E+00 -0.10226447344E+04  0.10226447344E+04  0.00000000000E+00 0. -1.
    9000007    2    1    2  501    0  0.12848660922E+03  0.11147261264E+02 -0.21258432710E+03  0.47083684382E+03  0.39982767187E+03 0.  0.
    9000005    1    3    3    0    0  0.20415446198E+03 -0.41883411632E+02  0.30642978793E+02  0.21064960636E+03  0.99999687468E+00 0.  0.
          4    1    3    3  501    0 -0.75667852755E+02  0.53030672895E+02 -0.24322730589E+03  0.26018723747E+03  0.00000000000E+00 0.  1.
   -9000007    1    1    2    0  503 -0.12848660922E+03 -0.11147261264E+02 -0.61608460713E+03  0.74578369071E+03  0.40000000000E+03 0. -1.
<mgrwt>
<rscale>  2 0.42023636E+03</rscale>
<asrwt>0</asrwt>
<pdfrwt beam="1">  1       21 0.29842431E-01 0.42027737E+03</pdfrwt>
<pdfrwt beam="2">  1       21 0.15732996E+00 0.42027737E+03</pdfrwt>
<totfact> 0.24620859E+03</totfact>
</mgrwt>
</event>
<event>
 6    1  0.9094387E-004  0.4119151E+03  0.7818608E-02  0.1039813E+00
         21   -1    0    0  501  502  0.00000000000E+00  0.00000000000E+00  0.42921339834E+03  0.42921339834E+03  0.00000000000E+00 0. -1.
         21   -1    0    0  502  503 -0.00000000000E+00 -0.00000000000E+00 -0.71123540169E+03  0.71123540169E+03  0.00000000000E+00 0. -1.
    9000007    2    1    2  501    0  0.54454182664E+02 -0.81907453080E+02  0.23969068181E+03  0.47572463563E+03  0.39898398103E+03 0.  0.
    9000005    1    3    3    0    0  0.11029845227E+03  0.12652790929E+03  0.19144198454E+03  0.25460968922E+03  0.99999687468E+00 0.  0.
          4    1    3    3  501    0 -0.55844269609E+02 -0.20843536238E+03  0.48248697268E+02  0.22111494641E+03  0.00000000000E+00 0.  1.
   -9000007    1    1    2    0  503 -0.54454182664E+02  0.81907453080E+02 -0.52171268517E+03  0.66472416441E+03  0.40000000000E+03 0. -1.
<mgrwt>
<rscale>  2 0.41166829E+03</rscale>
<asrwt>0</asrwt>
<pdfrwt beam="1">  1       21 0.66032831E-01 0.41191515E+03</pdfrwt>
<pdfrwt beam="2">  1       21 0.10942083E+00 0.41191515E+03</pdfrwt>
<totfact> 0.12070060E+03</totfact>
</mgrwt>
</event>
<event>
 6    1  0.9094387E-004  0.4991782E+03  0.7818608E-02  0.1014009E+00
         21   -1    0    0  501  502  0.00000000000E+00  0.00000000000E+00  0.82796749321E+03  0.82796749321E+03  0.00000000000E+00 0. -1.
         21   -1    0    0  502  503 -0.00000000000E+00 -0.00000000000E+00 -0.35922778893E+03  0.35922778893E+03  0.00000000000E+00 0. -1.
    9000007    2    1    2  501    0  0.36361219496E+02  0.29602185538E+03  0.47378023462E+03  0.68821984778E+03  0.40028461252E+03 0.  0.
    9000005    1    3    3    0    0  0.74751936603E+02  0.38373376261E+03  0.31180645944E+03  0.50006371667E+03  0.99999687468E+00 0.  0.
          4    1    3    3  501    0 -0.38390717107E+02 -0.87711907221E+02  0.16197377518E+03  0.18815613111E+03  0.00000000000E+00 0.  1.
   -9000007    1    1    2    0  503 -0.36361219496E+02 -0.29602185538E+03 -0.50405303393E+01  0.49897543436E+03  0.40000000000E+03 0. -1.
<mgrwt>
<rscale>  2 0.49912111E+03</rscale>
<asrwt>0</asrwt>
<pdfrwt beam="1">  1       21 0.12737961E+00 0.49917817E+03</pdfrwt>
<pdfrwt beam="2">  1       21 0.55265814E-01 0.49917817E+03</pdfrwt>
<totfact> 0.11726265E+03</totfact>
</mgrwt>
</event>
<event>
 6    1  0.9094387E-004  0.6468940E+03  0.7818608E-02  0.9812784E-01
         21   -1    0    0  501  502  0.00000000000E+00  0.00000000000E+00  0.34022148149E+03  0.34022148149E+03  0.00000000000E+00 0. -1.
         21   -1    0    0  502  503 -0.00000000000E+00 -0.00000000000E+00 -0.21148319966E+04  0.21148319966E+04  0.00000000000E+00 0.  1.
    9000007    2    1    2  501    0 -0.20471330999E+03 -0.46536475297E+03 -0.92876908005E+02  0.65319337868E+03  0.39945409913E+03 0.  0.
    9000005    1    3    3    0    0 -0.13451464004E+03 -0.48108854653E+03 -0.18816044288E+03  0.53380308190E+03  0.99999687468E+00 0.  0.
          4    1    3    3  501    0 -0.70198669955E+02  0.15723793562E+02  0.95283534872E+02  0.11939029678E+03  0.00000000000E+00 0.  1.
   -9000007    1    1    2    0  503  0.20471330999E+03  0.46536475297E+03 -0.16817336071E+04  0.18018600994E+04  0.40000000000E+03 0. -1.
<mgrwt>
<rscale>  2 0.64680967E+03</rscale>
<asrwt>0</asrwt>
<pdfrwt beam="1">  1       21 0.52341766E-01 0.64689404E+03</pdfrwt>
<pdfrwt beam="2">  1       21 0.32535877E+00 0.64689404E+03</pdfrwt>
<totfact> 0.57465593E+01</totfact>
</mgrwt>
</event>
<event>
 6    1  0.9094387E-004  0.5464519E+03  0.7818608E-02  0.1002328E+00
         21   -1    0    0  501  502  0.00000000000E+00  0.00000000000E+00  0.37454692004E+03  0.37454692004E+03  0.00000000000E+00 0.  1.
         21   -1    0    0  502  503 -0.00000000000E+00 -0.00000000000E+00 -0.82079598892E+03  0.82079598892E+03  0.00000000000E+00 0.  1.
    9000007    2    1    2  501    0  0.25527198037E+03 -0.27100908425E+03 -0.12136167033E+03  0.55960591189E+03  0.39977545433E+03 0.  0.
    9000005    1    3    3    0    0 -0.57502016842E+02 -0.20979932823E+03  0.28275280069E+01  0.21755742914E+03  0.99999687468E+00 0.  0.
          4    1    3    3  501    0  0.31277399721E+03 -0.61209756022E+02 -0.12418919834E+03  0.34204848275E+03  0.00000000000E+00 0.  1.
   -9000007    1    1    2    0  503 -0.25527198037E+03  0.27100908425E+03 -0.32488739855E+03  0.63573699707E+03  0.40000000000E+03 0.  1.
<mgrwt>
<rscale>  2 0.54641084E+03</rscale>
<asrwt>0</asrwt>
<pdfrwt beam="1">  1       21 0.57622603E-01 0.54645193E+03</pdfrwt>
<pdfrwt beam="2">  1       21 0.12627631E+00 0.54645193E+03</pdfrwt>
<totfact> 0.10772743E+03</totfact>
</mgrwt>
</event>
<event>
 6    1  0.9094387E-004  0.4050381E+03  0.7818608E-02  0.1042318E+00
         21   -1    0    0  501  502  0.00000000000E+00  0.00000000000E+00  0.65789467724E+03  0.65789467724E+03  0.00000000000E+00 0.  1.
         21   -1    0    0  502  503 -0.00000000000E+00 -0.00000000000E+00 -0.38669447884E+03  0.38669447884E+03  0.00000000000E+00 0.  1.
    9000007    2    1    2  501    0  0.38872683209E+02 -0.24857842622E+01  0.44937284969E+03  0.60497255233E+03  0.40316072033E+03 0.  0.
    9000005    1    3    3    0    0  0.74671767649E+02 -0.18519811282E+03  0.32371298116E+03  0.38034892933E+03  0.99999687468E+00 0.  0.
          4    1    3    3  501    0 -0.35799084441E+02  0.18271232856E+03  0.12565986853E+03  0.22462362301E+03  0.00000000000E+00 0.  1.
   -9000007    1    1    2    0  503 -0.38872683209E+02  0.24857842622E+01 -0.17817265129E+03  0.43961660375E+03  0.40000000000E+03 0.  1.
<mgrwt>
<rscale>  2 0.40424927E+03</rscale>
<asrwt>0</asrwt>
<pdfrwt beam="1">  1       21 0.10121457E+00 0.40503806E+03</pdfrwt>
<pdfrwt beam="2">  1       21 0.59491458E-01 0.40503806E+03</pdfrwt>
<totfact> 0.18449404E+03</totfact>
</mgrwt>
</event>
<event>
 6    1  0.9094387E-004  0.4318926E+03  0.7818608E-02  0.1033272E+00
         21   -1    0    0  501  502  0.00000000000E+00  0.00000000000E+00  0.13917035168E+03  0.13917035168E+03  0.00000000000E+00 0. -1.
         21   -1    0    0  502  503 -0.00000000000E+00 -0.00000000000E+00 -0.13410643300E+04  0.13410643300E+04  0.00000000000E+00 0. -1.
    9000007    2    1    2  501    0 -0.15646895592E+03  0.44275221897E+02 -0.62195576134E+03  0.75720552254E+03  0.40011049081E+03 0.  0.
    9000005    1    3    3    0    0 -0.26587773400E+03  0.12701645934E+03 -0.43017080570E+03  0.52141353305E+03  0.99999687468E+00 0.  0.
          4    1    3    3  501    0  0.10940877809E+03 -0.82741237438E+02 -0.19178495564E+03  0.23579198949E+03  0.00000000000E+00 0.  1.
   -9000007    1    1    2    0  503  0.15646895592E+03 -0.44275221897E+02 -0.57993821694E+03  0.72302915910E+03  0.40000000000E+03 0. -1.
<mgrwt>
<rscale>  2 0.43186703E+03</rscale>
<asrwt>0</asrwt>
<pdfrwt beam="1">  1       21 0.21410823E-01 0.43189262E+03</pdfrwt>
<pdfrwt beam="2">  1       21 0.20631759E+00 0.43189262E+03</pdfrwt>
<totfact> 0.21171349E+03</totfact>
</mgrwt>
</event>
<event>
 6    1  0.9094387E-004  0.4479631E+03  0.7818608E-02  0.1028380E+00
         21   -1    0    0  501  502  0.00000000000E+00  0.00000000000E+00  0.29156071689E+03  0.29156071689E+03  0.00000000000E+00 0. -1.
         21   -1    0    0  502  503 -0.00000000000E+00 -0.00000000000E+00 -0.10205405639E+04  0.10205405639E+04  0.00000000000E+00 0.  1.
    9000007    2    1    2  501    0  0.80012824893E+02  0.18354064614E+03  0.10238239600E+02  0.44808010020E+03  0.40072650737E+03 0.  0.
    9000005    1    3    3    0    0  0.22322122633E+03  0.20474983352E+03 -0.59116562918E+00  0.30290519917E+03  0.99999687468E+00 0.  0.
          4    1    3    3  501    0 -0.14320840144E+03 -0.21209187390E+02  0.10829405229E+02  0.14517490103E+03  0.00000000000E+00 0.  1.
   -9000007    1    1    2    0  503 -0.80012824893E+02 -0.18354064614E+03 -0.73921808658E+03  0.86402118056E+03  0.40000000000E+03 0.  1.
<mgrwt>
<rscale>  2 0.44780058E+03</rscale>
<asrwt>0</asrwt>
<pdfrwt beam="1">  1       21 0.44855496E-01 0.44796312E+03</pdfrwt>
<pdfrwt beam="2">  1       21 0.15700624E+00 0.44796312E+03</pdfrwt>
<totfact> 0.10677214E+03</totfact>
</mgrwt>
</event>
<event>
 6    1  0.9094387E-004  0.6483925E+03  0.7818608E-02  0.9809819E-01
         21   -1    0    0  501  502  0.00000000000E+00  0.00000000000E+00  0.14126409264E+04  0.14126409264E+04  0.00000000000E+00 0.  1.
         21   -1    0    0  502  503 -0.00000000000E+00 -0.00000000000E+00 -0.31324850001E+03  0.31324850001E+03  0.00000000000E+00 0.  1.
    9000007    2    1    2  501    0 -0.12750001054E+02  0.51009565621E+03  0.35677069988E+03  0.74006633393E+03  0.40006587620E+03 0.  0.
    9000005    1    3    3    0    0 -0.18972430314E+03  0.33602616579E+03  0.29086871951E+03  0.48323338800E+03  0.99999687468E+00 0.  0.
          4    1    3    3  501    0  0.17697430208E+03  0.17406949042E+03  0.65901980374E+02  0.25683294592E+03  0.00000000000E+00 0.  1.
   -9000007    1    1    2    0  503  0.12750001054E+02 -0.51009565621E+03  0.74262172656E+03  0.98582309253E+03  0.40000000000E+03 0.  1.
<mgrwt>
<rscale>  2 0.64838235E+03</rscale>
<asrwt>0</asrwt>
<pdfrwt beam="1">  1       21 0.21732937E+00 0.64839251E+03</pdfrwt>
<pdfrwt beam="2">  1       21 0.48192078E-01 0.64839251E+03</pdfrwt>
<totfact> 0.32128612E+02</totfact>
</mgrwt>
</event>
<event>
 6    1  0.9094387E-004  0.4175624E+03  0.7818608E-02  0.1037964E+00
         21   -1    0    0  501  502  0.00000000000E+00  0.00000000000E+00  0.83175524049E+02  0.83175524049E+02  0.00000000000E+00 0. -1.
         21   -1    0    0  502  503 -0.00000000000E+00 -0.00000000000E+00 -0.21864418444E+04  0.21864418444E+04  0.00000000000E+00 0. -1.
    9000007    2    1    2  501    0 -0.47730635022E+02 -0.10512841962E+03 -0.12913485237E+04  0.13571806821E+04  0.40128318677E+03 0.  0.
    9000005    1    3    3    0    0 -0.13232710360E+03 -0.21905181880E+03 -0.10120104627E+04  0.10438679698E+04  0.99999687468E+00 0.  0.
          4    1    3    3  501    0  0.84596468577E+02  0.11392339918E+03 -0.27933806101E+03  0.31331271232E+03  0.00000000000E+00 0.  1.
   -9000007    1    1    2    0  503  0.47730635022E+02  0.10512841962E+03 -0.81191779663E+03  0.91243668636E+03  0.40000000000E+03 0. -1.
<mgrwt>
<rscale>  2 0.41725385E+03</rscale>
<asrwt>0</asrwt>
<pdfrwt beam="1">  1       21 0.12796236E-01 0.41756244E+03</pdfrwt>
<pdfrwt beam="2">  1       21 0.33637563E+00 0.41756244E+03</pdfrwt>
<totfact> 0.89225719E+02</totfact>
</mgrwt>
</event>
<event>
 6    1  0.9094387E-004  0.4558278E+03  0.7818608E-02  0.1026295E+00
         21   -1    0    0  501  502  0.00000000000E+00  0.00000000000E+00  0.18361089930E+03  0.18361089930E+03  0.00000000000E+00 0.  1.
         21   -1    0    0  502  503 -0.00000000000E+00 -0.00000000000E+00 -0.17898261850E+04  0.17898261850E+04  0.00000000000E+00 0.  1.
    9000007    2    1    2  501    0  0.10891494556E+03  0.18951663733E+03 -0.19800623473E+03  0.49329122918E+03  0.39541212248E+03 0.  0.
    9000005    1    3    3    0    0  0.13584279408E+03  0.58383426595E+01  0.80924517669E+02  0.15823125008E+03  0.99999687468E+00 0.  0.
          4    1    3    3  501    0 -0.26927848525E+02  0.18367829467E+03 -0.27893075240E+03  0.33505997910E+03  0.00000000000E+00 0.  1.
   -9000007    1    1    2    0  503 -0.10891494556E+03 -0.18951663733E+03 -0.14082090510E+04  0.14801458551E+04  0.40000000000E+03 0.  1.
<mgrwt>
<rscale>  2 0.45481935E+03</rscale>
<asrwt>0</asrwt>
<pdfrwt beam="1">  1       21 0.28247830E-01 0.45582784E+03</pdfrwt>
<pdfrwt beam="2">  1       21 0.27535788E+00 0.45582784E+03</pdfrwt>
<totfact> 0.45341008E+02</totfact>
</mgrwt>
</event>
<event>
 6    1  0.9094387E-004  0.5285862E+03  0.7818608E-02  0.1006639E+00
         21   -1    0    0  501  502  0.00000000000E+00  0.00000000000E+00  0.10261230605E+04  0.10261230605E+04  0.00000000000E+00 0. -1.
         21   -1    0    0  502  503 -0.00000000000E+00 -0.00000000000E+00 -0.42533628734E+03  0.42533628734E+03  0.00000000000E+00 0.  1.
    9000007    2    1    2  501    0 -0.16179283195E+03  0.30351912457E+03  0.73667779021E+03  0.90669596068E+03  0.40137590743E+03 0.  0.
    9000005    1    3    3    0    0 -0.16826352283E+03  0.11719152645E+03  0.68236024485E+03  0.71250471629E+03  0.99999687468E+00 0.  0.
          4    1    3    3  501    0  0.64706908758E+01  0.18632759813E+03  0.54317545359E+02  0.19419124439E+03  0.00000000000E+00 0.  1.
   -9000007    1    1    2    0  503  0.16179283195E+03 -0.30351912457E+03 -0.13589101706E+03  0.54476338714E+03  0.40000000000E+03 0.  1.
<mgrwt>
<rscale>  2 0.52832503E+03</rscale>
<asrwt>0</asrwt>
<pdfrwt beam="1">  1       21 0.15786509E+00 0.52858623E+03</pdfrwt>
<pdfrwt beam="2">  1       21 0.65436352E-01 0.52858623E+03</pdfrwt>
<totfact> 0.44997139E+02</totfact>
</mgrwt>
</event>
<event>
 6    1  0.9094387E-004  0.4576059E+03  0.7818608E-02  0.1025520E+00
         21   -1    0    0  501  502  0.00000000000E+00  0.00000000000E+00  0.16681307496E+04  0.16681307496E+04  0.00000000000E+00 0. -1.
         21   -1    0    0  502  503 -0.00000000000E+00 -0.00000000000E+00 -0.18626218780E+03  0.18626218780E+03  0.00000000000E+00 0. -1.
    9000007    2    1    2  501    0 -0.13282901297E+03  0.17821229435E+03  0.12707464364E+04  0.13504328989E+04  0.39933612467E+03 0.  0.
    9000005    1    3    3    0    0 -0.11771117334E+02  0.18176303890E+03  0.11923079050E+04  0.12061407471E+04  0.99999687468E+00 0.  0.
          4    1    3    3  501    0 -0.12105789564E+03 -0.35507445550E+01  0.78438531397E+02  0.14429215187E+03  0.00000000000E+00 0.  1.
   -9000007    1    1    2    0  503  0.13282901297E+03 -0.17821229435E+03  0.21112212547E+03  0.50396003850E+03  0.40000000000E+03 0. -1.
<mgrwt>
<rscale>  2 0.45746079E+03</rscale>
<asrwt>0</asrwt>
<pdfrwt beam="1">  1       21 0.25663549E+00 0.45760591E+03</pdfrwt>
<pdfrwt beam="2">  1       21 0.28655722E-01 0.45760591E+03</pdfrwt>
<totfact> 0.57209268E+02</totfact>
</mgrwt>
</event>
<event>
 6    1  0.9094387E-004  0.4623297E+03  0.7818608E-02  0.1024150E+00
         21   -1    0    0  501  502  0.00000000000E+00  0.00000000000E+00  0.42469048439E+03  0.42469048439E+03  0.00000000000E+00 0. -1.
         21   -1    0    0  502  503 -0.00000000000E+00 -0.00000000000E+00 -0.52719434725E+03  0.52719434725E+03  0.00000000000E+00 0.  1.
    9000007    2    1    2  501    0  0.12507185140E+03  0.19520693845E+03 -0.15387315303E+03  0.48671011091E+03  0.39932576677E+03 0.  0.
    9000005    1    3    3    0    0 -0.24934098251E+02  0.27150977244E+03 -0.16388201597E+03  0.31811567226E+03  0.99999687468E+00 0.  0.
          4    1    3    3  501    0  0.15000594965E+03 -0.76302833990E+02  0.10008862939E+02  0.16859443865E+03  0.00000000000E+00 0.  1.
   -9000007    1    1    2    0  503 -0.12507185140E+03 -0.19520693845E+03  0.51369290178E+02  0.46517472073E+03  0.40000000000E+03 0. -1.
<mgrwt>
<rscale>  2 0.46218379E+03</rscale>
<asrwt>0</asrwt>
<pdfrwt beam="1">  1       21 0.65336998E-01 0.46232966E+03</pdfrwt>
<pdfrwt beam="2">  1       21 0.81106822E-01 0.46232966E+03</pdfrwt>
<totfact> 0.24812681E+03</totfact>
</mgrwt>
</event>
<event>
 6    1  0.9094387E-004  0.4597573E+03  0.7818608E-02  0.1024866E+00
         21   -1    0    0  501  502  0.00000000000E+00  0.00000000000E+00  0.13745094095E+03  0.13745094095E+03  0.00000000000E+00 0.  1.
         21   -1    0    0  502  503 -0.00000000000E+00 -0.00000000000E+00 -0.26828678029E+04  0.26828678029E+04  0.00000000000E+00 0.  1.
    9000007    2    1    2  501    0  0.14080404409E+03 -0.17712726058E+03 -0.35135189381E+03  0.57864059351E+03  0.40022111127E+03 0.  0.
    9000005    1    3    3    0    0 -0.68553068921E+01  0.87329580062E+02 -0.24074679258E+03  0.25619029825E+03  0.99999687468E+00 0.  0.
          4    1    3    3  501    0  0.14765935098E+03 -0.26445684064E+03 -0.11060510123E+03  0.32245029526E+03  0.00000000000E+00 0.  1.
   -9000007    1    1    2    0  503 -0.14080404409E+03  0.17712726058E+03 -0.21940649681E+04  0.22416781503E+04  0.40000000000E+03 0.  1.
<mgrwt>
<rscale>  2 0.45970919E+03</rscale>
<asrwt>0</asrwt>
<pdfrwt beam="1">  1       21 0.21146298E-01 0.45975731E+03</pdfrwt>
<pdfrwt beam="2">  1       21 0.41274890E+00 0.45975731E+03</pdfrwt>
<totfact> 0.11279475E+02</totfact>
</mgrwt>
</event>
<event>
 6    1  0.9094387E-004  0.4935657E+03  0.7818608E-02  0.1015505E+00
         21   -1    0    0  501  502  0.00000000000E+00  0.00000000000E+00  0.39976803817E+03  0.39976803817E+03  0.00000000000E+00 0.  1.
         21   -1    0    0  502  503 -0.00000000000E+00 -0.00000000000E+00 -0.62932210455E+03  0.62932210455E+03  0.00000000000E+00 0.  1.
    9000007    2    1    2  501    0 -0.28620991915E+03  0.34643909804E+02 -0.20784759053E+03  0.53554430959E+03  0.40061299072E+03 0.  0.
    9000005    1    3    3    0    0  0.12503062307E+01 -0.14966084256E+03 -0.39302348149E+02  0.15474367717E+03  0.99999687468E+00 0.  0.
          4    1    3    3  501    0 -0.28746022538E+03  0.18430475236E+03 -0.16854524238E+03  0.38080063242E+03  0.00000000000E+00 0.  1.
   -9000007    1    1    2    0  503  0.28620991915E+03 -0.34643909804E+02 -0.21706475842E+02  0.49354583313E+03  0.40000000000E+03 0.  1.
<mgrwt>
<rscale>  2 0.49344129E+03</rscale>
<asrwt>0</asrwt>
<pdfrwt beam="1">  1       21 0.61502775E-01 0.49356569E+03</pdfrwt>
<pdfrwt beam="2">  1       21 0.96818785E-01 0.49356569E+03</pdfrwt>
<totfact> 0.18460368E+03</totfact>
</mgrwt>
</event>
<event>
 6    1  0.9094387E-004  0.5247557E+03  0.7818608E-02  0.1007524E+00
         21   -1    0    0  501  502  0.00000000000E+00  0.00000000000E+00  0.69512264078E+03  0.69512264078E+03  0.00000000000E+00 0. -1.
         21   -1    0    0  502  503 -0.00000000000E+00 -0.00000000000E+00 -0.81109654237E+03  0.81109654237E+03  0.00000000000E+00 0.  1.
    9000007    2    1    2  501    0 -0.28376377484E+03 -0.18609967666E+03 -0.59676020850E+03  0.79466423623E+03  0.40026682640E+03 0.  0.
    9000005    1    3    3    0    0 -0.10342909838E+03 -0.27204100784E+03 -0.20847338125E+03  0.35800284778E+03  0.99999687468E+00 0.  0.
          4    1    3    3  501    0 -0.18033467646E+03  0.85941331176E+02 -0.38828682726E+03  0.43666138845E+03  0.00000000000E+00 0.  1.
   -9000007    1    1    2    0  503  0.28376377484E+03  0.18609967666E+03  0.48078630691E+03  0.71155494692E+03  0.40000000000E+03 0. -1.
<mgrwt>
<rscale>  2 0.52470478E+03</rscale>
<asrwt>0</asrwt>
<pdfrwt beam="1">  1       21 0.10694195E+00 0.52475566E+03</pdfrwt>
<pdfrwt beam="2">  1       21 0.12478408E+00 0.52475566E+03</pdfrwt>
<totfact> 0.26697447E+02</totfact>
</mgrwt>
</event>
<event>
 6    1  0.9094387E-004  0.5153266E+03  0.7818608E-02  0.1009863E+00
         21   -1    0    0  501  502  0.00000000000E+00  0.00000000000E+00  0.30291299744E+04  0.30291299744E+04  0.00000000000E+00 0. -1.
         21   -1    0    0  502  503 -0.00000000000E+00 -0.00000000000E+00 -0.40199568965E+03  0.40199568965E+03  0.00000000000E+00 0. -1.
    9000007    2    1    2  501    0  0.25381056720E+03  0.20246404473E+03  0.28306702002E+04  0.28771957387E+04  0.40018750978E+03 0.  0.
    9000005    1    3    3    0    0 -0.10628193789E+03  0.55194735904E+02  0.87960872289E+03  0.88772451502E+03  0.99999687468E+00 0.  0.
          4    1    3    3  501    0  0.36009250509E+03  0.14726930883E+03  0.19510614773E+04  0.19894712236E+04  0.00000000000E+00 0.  1.
   -9000007    1    1    2    0  503 -0.25381056720E+03 -0.20246404473E+03 -0.20353591539E+03  0.55392992543E+03  0.40000000000E+03 0. -1.
<mgrwt>
<rscale>  2 0.51529023E+03</rscale>
<asrwt>0</asrwt>
<pdfrwt beam="1">  1       21 0.46601998E+00 0.51532663E+03</pdfrwt>
<pdfrwt beam="2">  1       21 0.61845493E-01 0.51532663E+03</pdfrwt>
<totfact> 0.53105572E+00</totfact>
</mgrwt>
</event>
<event>
 6    1  0.9094387E-004  0.5151855E+03  0.7818608E-02  0.1009901E+00
         21   -1    0    0  501  502  0.00000000000E+00  0.00000000000E+00  0.15710816007E+04  0.15710816007E+04  0.00000000000E+00 0.  1.
         21   -1    0    0  502  503 -0.00000000000E+00 -0.00000000000E+00 -0.18345656679E+03  0.18345656679E+03  0.00000000000E+00 0. -1.
    9000007    2    1    2  501    0  0.21841419389E+03 -0.24023177142E+03  0.94098529543E+03  0.10727001221E+04  0.39977013608E+03 0.  0.
    9000005    1    3    3    0    0 -0.41396604979E+01 -0.14892549490E+03  0.61965361404E+02  0.16135874885E+03  0.99999687468E+00 0.  0.
          4    1    3    3  501    0  0.22255385439E+03 -0.91306276519E+02  0.87901993403E+03  0.91134137328E+03  0.00000000000E+00 0.  1.
   -9000007    1    1    2    0  503 -0.21841419389E+03  0.24023177142E+03  0.44663973845E+03  0.68183804532E+03  0.40000000000E+03 0. -1.
<mgrwt>
<rscale>  2 0.51514085E+03</rscale>
<asrwt>0</asrwt>
<pdfrwt beam="1">  1       21 0.24170485E+00 0.51518547E+03</pdfrwt>
<pdfrwt beam="2">  1       21 0.28224088E-01 0.51518547E+03</pdfrwt>
<totfact> 0.70905647E+02</totfact>
</mgrwt>
</event>
<event>
 6    1  0.9094387E-004  0.6576331E+03  0.7818608E-02  0.9796788E-01
         21   -1    0    0  501  502  0.00000000000E+00  0.00000000000E+00  0.46414496170E+03  0.46414496170E+03  0.00000000000E+00 0. -1.
         21   -1    0    0  502  503 -0.00000000000E+00 -0.00000000000E+00 -0.96459193412E+03  0.96459193412E+03  0.00000000000E+00 0.  1.
    9000007    2    1    2  501    0  0.22096387252E+03 -0.46021788909E+03 -0.96515199485E+02  0.66467772561E+03  0.41455488997E+03 0.  0.
    9000005    1    3    3    0    0  0.22291900907E+03 -0.48889497506E+02 -0.10952312730E+03  0.25313905857E+03  0.99999687468E+00 0.  0.
          4    1    3    3  501    0 -0.19551365458E+01 -0.41132839158E+03  0.13007927810E+02  0.41153866704E+03  0.00000000000E+00 0.  1.
   -9000007    1    1    2    0  503 -0.22096387252E+03  0.46021788909E+03 -0.40393177294E+03  0.76405917021E+03  0.40000000000E+03 0.  1.
<mgrwt>
<rscale>  2 0.65535211E+03</rscale>
<asrwt>0</asrwt>
<pdfrwt beam="1">  1       21 0.71406918E-01 0.65763310E+03</pdfrwt>
<pdfrwt beam="2">  1       21 0.14839876E+00 0.65763310E+03</pdfrwt>
<totfact> 0.41892543E+02</totfact>
</mgrwt>
</event>
<event>
 6    1  0.9094387E-004  0.4412617E+03  0.7818608E-02  0.1030444E+00
         21   -1    0    0  501  502  0.00000000000E+00  0.00000000000E+00  0.15710925791E+03  0.15710925791E+03  0.00000000000E+00 0.  1.
         21   -1    0    0  502  503 -0.00000000000E+00 -0.00000000000E+00 -0.12371217489E+04  0.12371217489E+04  0.00000000000E+00 0.  1.
    9000007    2    1    2  501    0  0.17980533971E+03 -0.37655997213E+02 -0.55895587544E+03  0.71214015441E+03  0.40120318359E+03 0.  0.
    9000005    1    3    3    0    0  0.31142912608E+02  0.92850362162E+02  0.20314431160E+02  0.10002373152E+03  0.99999687468E+00 0.  0.
          4    1    3    3  501    0  0.14866242710E+03 -0.13050635938E+03 -0.57927030660E+03  0.61211642290E+03  0.00000000000E+00 0.  1.
   -9000007    1    1    2    0  503 -0.17980533971E+03  0.37655997213E+02 -0.52105661553E+03  0.68209085238E+03  0.40000000000E+03 0.  1.
<mgrwt>
<rscale>  2 0.44098807E+03</rscale>
<asrwt>0</asrwt>
<pdfrwt beam="1">  1       21 0.24170656E-01 0.44126175E+03</pdfrwt>
<pdfrwt beam="2">  1       21 0.19032642E+00 0.44126175E+03</pdfrwt>
<totfact> 0.21358480E+03</totfact>
</mgrwt>
</event>
<event>
 6    1  0.9094387E-004  0.4835487E+03  0.7818608E-02  0.1018230E+00
         21   -1    0    0  501  502  0.00000000000E+00  0.00000000000E+00  0.57156624548E+03  0.57156624548E+03  0.00000000000E+00 0. -1.
         21   -1    0    0  502  503 -0.00000000000E+00 -0.00000000000E+00 -0.57427040308E+03  0.57427040308E+03  0.00000000000E+00 0. -1.
    9000007    2    1    2  501    0  0.23324839210E+03 -0.13933611844E+03  0.30667910372E+03  0.57178319399E+03  0.39882901342E+03 0.  0.
    9000005    1    3    3    0    0  0.96785929601E+02 -0.26765626708E+03  0.12509120947E+03  0.31089580916E+03  0.99999687468E+00 0.  0.
          4    1    3    3  501    0  0.13646246250E+03  0.12832014864E+03  0.18158789426E+03  0.26088738482E+03  0.00000000000E+00 0.  1.
   -9000007    1    1    2    0  503 -0.23324839210E+03  0.13933611844E+03 -0.30938326132E+03  0.57405345457E+03  0.40000000000E+03 0. -1.
<mgrwt>
<rscale>  2 0.48330649E+03</rscale>
<asrwt>0</asrwt>
<pdfrwt beam="1">  1       21 0.87933269E-01 0.48354872E+03</pdfrwt>
<pdfrwt beam="2">  1       21 0.88349292E-01 0.48354872E+03</pdfrwt>
<totfact> 0.10207143E+03</totfact>
</mgrwt>
</event>
<event>
 6    1  0.9094387E-004  0.5179763E+03  0.7818608E-02  0.1009212E+00
         21   -1    0    0  501  502  0.00000000000E+00  0.00000000000E+00  0.76742287148E+03  0.76742287148E+03  0.00000000000E+00 0.  1.
         21   -1    0    0  502  503 -0.00000000000E+00 -0.00000000000E+00 -0.37203852196E+03  0.37203852196E+03  0.00000000000E+00 0. -1.
    9000007    2    1    2  501    0  0.29839253333E+03 -0.13878541664E+03  0.57014453841E+02  0.52075816723E+03  0.39954840129E+03 0.  0.
    9000005    1    3    3    0    0  0.26564027437E+03  0.92794566480E+02  0.63817625448E+01  0.28145570490E+03  0.99999687468E+00 0.  0.
          4    1    3    3  501    0  0.32752258964E+02 -0.23157998312E+03  0.50632691296E+02  0.23930246233E+03  0.00000000000E+00 0.  1.
   -9000007    1    1    2    0  503 -0.29839253333E+03  0.13878541664E+03  0.33836989568E+03  0.61870322621E+03  0.40000000000E+03 0.  1.
<mgrwt>
<rscale>  2 0.51788916E+03</rscale>
<asrwt>0</asrwt>
<pdfrwt beam="1">  1       21 0.11806506E+00 0.51797635E+03</pdfrwt>
<pdfrwt beam="2">  1       21 0.57236696E-01 0.51797635E+03</pdfrwt>
<totfact> 0.13120096E+03</totfact>
</mgrwt>
</event>
<event>
 6    1  0.9094387E-004  0.4519306E+03  0.7818608E-02  0.1027213E+00
         21   -1    0    0  501  502  0.00000000000E+00  0.00000000000E+00  0.39460016236E+03  0.39460016236E+03  0.00000000000E+00 0.  1.
         21   -1    0    0  502  503 -0.00000000000E+00 -0.00000000000E+00 -0.73046485999E+03  0.73046485999E+03  0.00000000000E+00 0.  1.
    9000007    2    1    2  501    0 -0.34402049833E+02  0.20557919049E+03  0.13634522149E+03  0.47205008202E+03  0.40099246366E+03 0.  0.
    9000005    1    3    3    0    0 -0.12934631529E+03  0.65642172313E+02  0.23508036837E+03  0.27623023667E+03  0.99999687468E+00 0.  0.
          4    1    3    3  501    0  0.94944265462E+02  0.13993701818E+03 -0.98735146883E+02  0.19581984534E+03  0.00000000000E+00 0.  1.
   -9000007    1    1    2    0  503  0.34402049833E+02 -0.20557919049E+03 -0.47220991912E+03  0.65301494034E+03  0.40000000000E+03 0.  1.
<mgrwt>
<rscale>  2 0.45171034E+03</rscale>
<asrwt>0</asrwt>
<pdfrwt beam="1">  1       21 0.60707718E-01 0.45193059E+03</pdfrwt>
<pdfrwt beam="2">  1       21 0.11237921E+00 0.45193059E+03</pdfrwt>
<totfact> 0.13377357E+03</totfact>
</mgrwt>
</event>
<event>
 6    1  0.9094387E-004  0.4430108E+03  0.7818608E-02  0.1029992E+00
         21   -1    0    0  501  502  0.00000000000E+00  0.00000000000E+00  0.10359909547E+03  0.10359909547E+03  0.00000000000E+00 0.  1.
         21   -1    0    0  502  503 -0.00000000000E+00 -0.00000000000E+00 -0.18870285634E+04  0.18870285634E+04  0.00000000000E+00 0.  1.
    9000007    2    1    2  501    0  0.14123320225E+03 -0.12771747848E+03 -0.85832413735E+03  0.96491890664E+03  0.39760482884E+03 0.  0.
    9000005    1    3    3    0    0  0.93301701255E+02  0.11128821720E+03 -0.56580102923E+03  0.58414217398E+03  0.99999687468E+00 0.  0.
          4    1    3    3  501    0  0.47931500991E+02 -0.23900569569E+03 -0.29252310811E+03  0.38077673266E+03  0.00000000000E+00 0.  1.
   -9000007    1    1    2    0  503 -0.14123320225E+03  0.12771747848E+03 -0.92510533059E+03  0.10257087522E+04  0.40000000000E+03 0.  1.
<mgrwt>
<rscale>  2 0.44246945E+03</rscale>
<asrwt>0</asrwt>
<pdfrwt beam="1">  1       21 0.15938324E-01 0.44301080E+03</pdfrwt>
<pdfrwt beam="2">  1       21 0.29031206E+00 0.44301080E+03</pdfrwt>
<totfact> 0.11103665E+03</totfact>
</mgrwt>
</event>
<event>
 6    1  0.9094387E-004  0.4920942E+03  0.7818608E-02  0.1015911E+00
         21   -1    0    0  501  502  0.00000000000E+00  0.00000000000E+00  0.50753838215E+03  0.50753838215E+03  0.00000000000E+00 0. -1.
         21   -1    0    0  502  503 -0.00000000000E+00 -0.00000000000E+00 -0.51641509178E+03  0.51641509178E+03  0.00000000000E+00 0.  1.
    9000007    2    1    2  501    0 -0.27084271099E+03  0.93813214571E+02  0.13803983198E+03  0.51039611246E+03  0.39911464904E+03 0.  0.
    9000005    1    3    3    0    0 -0.22458525615E+03 -0.85451825569E+02  0.20261984333E+03  0.31431887102E+03  0.99999687468E+00 0.  0.
          4    1    3    3  501    0 -0.46257454841E+02  0.17926504014E+03 -0.64580011352E+02  0.19607724144E+03  0.00000000000E+00 0.  1.
   -9000007    1    1    2    0  503  0.27084271099E+03 -0.93813214571E+02 -0.14691654160E+03  0.51355736147E+03  0.40000000000E+03 0.  1.
<mgrwt>
<rscale>  2 0.49191425E+03</rscale>
<asrwt>0</asrwt>
<pdfrwt beam="1">  1       21 0.78082828E-01 0.49209419E+03</pdfrwt>
<pdfrwt beam="2">  1       21 0.79448475E-01 0.49209419E+03</pdfrwt>
<totfact> 0.17205270E+03</totfact>
</mgrwt>
</event>
<event>
 6    1  0.9094387E-004  0.4395509E+03  0.7818608E-02  0.1030903E+00
         21   -1    0    0  501  502  0.00000000000E+00  0.00000000000E+00  0.21253810014E+03  0.21253810014E+03  0.00000000000E+00 0. -1.
         21   -1    0    0  502  503 -0.00000000000E+00 -0.00000000000E+00 -0.13680719045E+04  0.13680719045E+04  0.00000000000E+00 0. -1.
    9000007    2    1    2  501    0  0.17718152763E+03 -0.39976438280E+02 -0.11983589225E+03  0.45559374944E+03  0.40026692856E+03 0.  0.
    9000005    1    3    3    0    0  0.72417808505E+02 -0.65691061350E+02 -0.26054745755E+03  0.27829055349E+03  0.99999687468E+00 0.  0.
          4    1    3    3  501    0  0.10476371912E+03  0.25714623070E+02  0.14071156530E+03  0.17730319595E+03  0.00000000000E+00 0.  1.
   -9000007    1    1    2    0  503 -0.17718152763E+03  0.39976438280E+02 -0.10356979121E+04  0.11250162552E+04  0.40000000000E+03 0. -1.
<mgrwt>
<rscale>  2 0.43949016E+03</rscale>
<asrwt>0</asrwt>
<pdfrwt beam="1">  1       21 0.32698168E-01 0.43955093E+03</pdfrwt>
<pdfrwt beam="2">  1       21 0.21047261E+00 0.43955093E+03</pdfrwt>
<totfact> 0.86499441E+02</totfact>
</mgrwt>
</event>
<event>
 6    1  0.9094387E-004  0.4090153E+03  0.7818608E-02  0.1040949E+00
         21   -1    0    0  501  502  0.00000000000E+00  0.00000000000E+00  0.18031237575E+04  0.18031237575E+04  0.00000000000E+00 0.  1.
         21   -1    0    0  502  503 -0.00000000000E+00 -0.00000000000E+00 -0.10378843527E+03  0.10378843527E+03  0.00000000000E+00 0.  1.
    9000007    2    1    2  501    0  0.65923008578E+02 -0.54292135770E+02  0.11666862950E+04  0.12353405545E+04  0.39700868466E+03 0.  0.
    9000005    1    3    3    0    0 -0.10286612261E+03  0.12110894970E+03  0.38098499613E+03  0.41279460286E+03  0.99999687468E+00 0.  0.
          4    1    3    3  501    0  0.16878913119E+03 -0.17540108547E+03  0.78570129885E+03  0.82254595167E+03  0.00000000000E+00 0.  1.
   -9000007    1    1    2    0  503 -0.65923008578E+02  0.54292135770E+02  0.53264902724E+03  0.67157163824E+03  0.40000000000E+03 0.  1.
<mgrwt>
<rscale>  2 0.40828206E+03</rscale>
<asrwt>0</asrwt>
<pdfrwt beam="1">  1       21 0.27740363E+00 0.40901526E+03</pdfrwt>
<pdfrwt beam="2">  1       21 0.15967453E-01 0.40901526E+03</pdfrwt>
<totfact> 0.13474596E+03</totfact>
</mgrwt>
</event>
<event>
 6    1  0.9094387E-004  0.4307552E+03  0.7818608E-02  0.1033625E+00
         21   -1    0    0  501  502  0.00000000000E+00  0.00000000000E+00  0.24007036019E+04  0.24007036019E+04  0.00000000000E+00 0.  1.
         21   -1    0    0  502  503 -0.00000000000E+00 -0.00000000000E+00 -0.91569538880E+02  0.91569538880E+02  0.00000000000E+00 0.  1.
    9000007    2    1    2  501    0 -0.14036293119E+03 -0.76259663673E+02  0.16468230151E+04  0.17022268048E+04  0.40004095194E+03 0.  0.
    9000005    1    3    3    0    0 -0.38053622699E+01 -0.11765382338E+03  0.14713793801E+04  0.14760810218E+04  0.99999687468E+00 0.  0.
          4    1    3    3  501    0 -0.13655756892E+03  0.41394159706E+02  0.17544363502E+03  0.22614578297E+03  0.00000000000E+00 0.  1.
   -9000007    1    1    2    0  503  0.14036293119E+03  0.76259663673E+02  0.66231104788E+03  0.79004633592E+03  0.40000000000E+03 0.  1.
<mgrwt>
<rscale>  2 0.43074570E+03</rscale>
<asrwt>0</asrwt>
<pdfrwt beam="1">  1       21 0.36933897E+00 0.43075521E+03</pdfrwt>
<pdfrwt beam="2">  1       21 0.14087623E-01 0.43075521E+03</pdfrwt>
<totfact> 0.46549422E+02</totfact>
</mgrwt>
</event>
<event>
 6    1  0.9094387E-004  0.4285078E+03  0.7818608E-02  0.1034451E+00
         21   -1    0    0  501  502  0.00000000000E+00  0.00000000000E+00  0.15662371539E+04  0.15662371539E+04  0.00000000000E+00 0.  1.
         21   -1    0    0  502  503 -0.00000000000E+00 -0.00000000000E+00 -0.11821408128E+03  0.11821408128E+03  0.00000000000E+00 0.  1.
    9000007    2    1    2  501    0 -0.12554948856E+03  0.81111487280E+02  0.81647025401E+03  0.92208602733E+03  0.40159334988E+03 0.  0.
    9000005    1    3    3    0    0  0.13646325291E+02  0.47705378680E+02  0.76997978237E+03  0.77157753375E+03  0.99999687468E+00 0.  0.
          4    1    3    3  501    0 -0.13919581385E+03  0.33406108600E+02  0.46490471648E+02  0.15050849358E+03  0.00000000000E+00 0.  1.
   -9000007    1    1    2    0  503  0.12554948856E+03 -0.81111487280E+02  0.63155281866E+03  0.76236520789E+03  0.40000000000E+03 0.  1.
<mgrwt>
<rscale>  2 0.42813412E+03</rscale>
<asrwt>0</asrwt>
<pdfrwt beam="1">  1       21 0.24095955E+00 0.42850784E+03</pdfrwt>
<pdfrwt beam="2">  1       21 0.18186783E-01 0.42850784E+03</pdfrwt>
<totfact> 0.17416310E+03</totfact>
</mgrwt>
</event>
<event>
 6    1  0.9094387E-004  0.4918734E+03  0.7818608E-02  0.1015928E+00
         21   -1    0    0  501  502  0.00000000000E+00  0.00000000000E+00  0.54880861111E+03  0.54880861111E+03  0.00000000000E+00 0.  1.
         21   -1    0    0  502  503 -0.00000000000E+00 -0.00000000000E+00 -0.56615331108E+03  0.56615331108E+03  0.00000000000E+00 0.  1.
    9000007    2    1    2  501    0 -0.20795767601E+02 -0.28549430109E+03  0.25367784563E+03  0.55336359586E+03  0.39989918725E+03 0.  0.
    9000005    1    3    3    0    0 -0.60594902478E+02 -0.58289849726E+02 -0.10028755155E+03  0.13087414480E+03  0.99999687468E+00 0.  0.
          4    1    3    3  501    0  0.39799134877E+02 -0.22720445137E+03  0.35396539718E+03  0.42248945106E+03  0.00000000000E+00 0.  1.
   -9000007    1    1    2    0  503  0.20795767601E+02  0.28549430109E+03 -0.27102254560E+03  0.56159832633E+03  0.40000000000E+03 0.  1.
<mgrwt>
<rscale>  2 0.49185292E+03</rscale>
<asrwt>0</asrwt>
<pdfrwt beam="1">  1       21 0.84432094E-01 0.49187342E+03</pdfrwt>
<pdfrwt beam="2">  1       21 0.87100510E-01 0.49187342E+03</pdfrwt>
<totfact> 0.11577669E+03</totfact>
</mgrwt>
</event>
<event>
 6    1  0.9094387E-004  0.4544309E+03  0.7818608E-02  0.1026448E+00
         21   -1    0    0  501  502  0.00000000000E+00  0.00000000000E+00  0.21859591089E+03  0.21859591089E+03  0.00000000000E+00 0. -1.
         21   -1    0    0  502  503 -0.00000000000E+00 -0.00000000000E+00 -0.16230488153E+04  0.16230488153E+04  0.00000000000E+00 0. -1.
    9000007    2    1    2  501    0 -0.18768407835E+03 -0.10621751161E+03 -0.10620743736E+03  0.46616344105E+03  0.39940062717E+03 0.  0.
    9000005    1    3    3    0    0  0.70686953070E+02  0.10059610615E+03 -0.28155438859E+02  0.12613465280E+03  0.99999687468E+00 0.  0.
          4    1    3    3  501    0 -0.25837103142E+03 -0.20681361776E+03 -0.78051998501E+02  0.34002878825E+03  0.00000000000E+00 0.  1.
   -9000007    1    1    2    0  503  0.18768407835E+03  0.10621751161E+03 -0.12982454671E+04  0.13754812851E+04  0.40000000000E+03 0. -1.
<mgrwt>
<rscale>  2 0.45429900E+03</rscale>
<asrwt>0</asrwt>
<pdfrwt beam="1">  1       21 0.33630140E-01 0.45443093E+03</pdfrwt>
<pdfrwt beam="2">  1       21 0.24969982E+00 0.45443093E+03</pdfrwt>
<totfact> 0.45917997E+02</totfact>
</mgrwt>
</event>
<event>
 6    1  0.9094387E-004  0.4537909E+03  0.7818608E-02  0.1026627E+00
         21   -1    0    0  501  502  0.00000000000E+00  0.00000000000E+00  0.73707559321E+03  0.73707559321E+03  0.00000000000E+00 0. -1.
         21   -1    0    0  502  503 -0.00000000000E+00 -0.00000000000E+00 -0.56230996635E+03  0.56230996635E+03  0.00000000000E+00 0. -1.
    9000007    2    1    2  501    0 -0.91707394924E+02 -0.19369021263E+03  0.54841406606E+03  0.71155964921E+03  0.39954098886E+03 0.  0.
    9000005    1    3    3    0    0  0.11694176292E+03 -0.15506595450E+03  0.42203782657E+03  0.46458341899E+03  0.99999687468E+00 0.  0.
          4    1    3    3  501    0 -0.20864915784E+03 -0.38624258138E+02  0.12637623949E+03  0.24697623022E+03  0.00000000000E+00 0.  1.
   -9000007    1    1    2    0  503  0.91707394924E+02  0.19369021263E+03 -0.37364843920E+03  0.58782591034E+03  0.40000000000E+03 0. -1.
<mgrwt>
<rscale>  2 0.45368969E+03</rscale>
<asrwt>0</asrwt>
<pdfrwt beam="1">  1       21 0.11339625E+00 0.45379086E+03</pdfrwt>
<pdfrwt beam="2">  1       21 0.86509225E-01 0.45379086E+03</pdfrwt>
<totfact> 0.58520408E+02</totfact>
</mgrwt>
</event>
<event>
 6    1  0.9094387E-004  0.4267034E+03  0.7818608E-02  0.1034919E+00
         21   -1    0    0  501  502  0.00000000000E+00  0.00000000000E+00  0.87587694653E+03  0.87587694653E+03  0.00000000000E+00 0.  1.
         21   -1    0    0  502  503 -0.00000000000E+00 -0.00000000000E+00 -0.43373107204E+03  0.43373107204E+03  0.00000000000E+00 0.  1.
    9000007    2    1    2  501    0 -0.34176279365E+02 -0.14412009561E+03  0.69368783095E+03  0.81441919005E+03  0.40017145112E+03 0.  0.
    9000005    1    3    3    0    0  0.61297428255E+02  0.53662632815E+02 -0.53928116914E+01  0.81652527720E+02  0.99999687468E+00 0.  0.
          4    1    3    3  501    0 -0.95473707620E+02 -0.19778272842E+03  0.69908064264E+03  0.73276666233E+03  0.00000000000E+00 0.  1.
   -9000007    1    1    2    0  503  0.34176279365E+02  0.14412009561E+03 -0.25154195646E+03  0.49518882852E+03  0.40000000000E+03 0.  1.
<mgrwt>
<rscale>  2 0.42666322E+03</rscale>
<asrwt>0</asrwt>
<pdfrwt beam="1">  1       21 0.13475030E+00 0.42670342E+03</pdfrwt>
<pdfrwt beam="2">  1       21 0.66727857E-01 0.42670342E+03</pdfrwt>
<totfact> 0.68996624E+02</totfact>
</mgrwt>
</event>
<event>
 6    1  0.9094387E-004  0.4615138E+03  0.7818608E-02  0.1024397E+00
         21   -1    0    0  501  502  0.00000000000E+00  0.00000000000E+00  0.46588607319E+03  0.46588607319E+03  0.00000000000E+00 0.  1.
         21   -1    0    0  502  503 -0.00000000000E+00 -0.00000000000E+00 -0.50943857656E+03  0.50943857656E+03  0.00000000000E+00 0.  1.
    9000007    2    1    2  501    0 -0.50652945948E+01  0.22864596779E+03  0.13549746107E+03  0.48099325731E+03  0.40086196605E+03 0.  0.
    9000005    1    3    3    0    0 -0.11721149895E+03  0.19550776280E+01  0.18907208904E+03  0.22246710467E+03  0.99999687468E+00 0.  0.
          4    1    3    3  501    0  0.11214620436E+03  0.22669089016E+03 -0.53574627970E+02  0.25852615264E+03  0.00000000000E+00 0.  1.
   -9000007    1    1    2    0  503  0.50652945948E+01 -0.22864596779E+03 -0.17904996444E+03  0.49433139245E+03  0.40000000000E+03 0.  1.
<mgrwt>
<rscale>  2 0.46132652E+03</rscale>
<asrwt>0</asrwt>
<pdfrwt beam="1">  1       21 0.71674780E-01 0.46151376E+03</pdfrwt>
<pdfrwt beam="2">  1       21 0.78375166E-01 0.46151376E+03</pdfrwt>
<totfact> 0.21824344E+03</totfact>
</mgrwt>
</event>
<event>
 6    1  0.9094387E-004  0.6008918E+03  0.7818608E-02  0.9903571E-01
         21   -1    0    0  501  502  0.00000000000E+00  0.00000000000E+00  0.36729605318E+03  0.36729605318E+03  0.00000000000E+00 0. -1.
         21   -1    0    0  502  503 -0.00000000000E+00 -0.00000000000E+00 -0.11460398884E+04  0.11460398884E+04  0.00000000000E+00 0. -1.
    9000007    2    1    2  501    0  0.41701979262E+03  0.16472379438E+03 -0.67477059251E+03  0.90354099974E+03  0.40003943534E+03 0.  0.
    9000005    1    3    3    0    0  0.43366746822E+03  0.19484863235E+03 -0.70987701249E+03  0.85437686963E+03  0.99999687468E+00 0.  0.
          4    1    3    3  501    0 -0.16647675595E+02 -0.30124837964E+02  0.35106419980E+02  0.49164130104E+02  0.00000000000E+00 0.  1.
   -9000007    1    1    2    0  503 -0.41701979262E+03 -0.16472379438E+03 -0.10397324269E+03  0.60979494182E+03  0.40000000000E+03 0. -1.
<mgrwt>
<rscale>  2 0.60088526E+03</rscale>
<asrwt>0</asrwt>
<pdfrwt beam="1">  1       21 0.56507086E-01 0.60089183E+03</pdfrwt>
<pdfrwt beam="2">  1       21 0.17631383E+00 0.60089183E+03</pdfrwt>
<totfact> 0.44170469E+02</totfact>
</mgrwt>
</event>
<event>
 6    1  0.9094387E-004  0.4173757E+03  0.7818608E-02  0.1037937E+00
         21   -1    0    0  501  502  0.00000000000E+00  0.00000000000E+00  0.19646870818E+03  0.19646870818E+03  0.00000000000E+00 0.  1.
         21   -1    0    0  502  503 -0.00000000000E+00 -0.00000000000E+00 -0.17800046084E+04  0.17800046084E+04  0.00000000000E+00 0.  1.
    9000007    2    1    2  501    0  0.11861630383E+03 -0.17946618622E+00 -0.91614078920E+02  0.42731206590E+03  0.40016571875E+03 0.  0.
    9000005    1    3    3    0    0  0.14657728722E+03  0.13318219858E+03  0.75265401616E+02  0.21186854373E+03  0.99999687468E+00 0.  0.
          4    1    3    3  501    0 -0.27960983390E+02 -0.13336166477E+03 -0.16687948054E+03  0.21544352217E+03  0.00000000000E+00 0.  1.
   -9000007    1    1    2    0  503 -0.11861630383E+03  0.17946618622E+00 -0.14919218213E+04  0.15491612507E+04  0.40000000000E+03 0.  1.
<mgrwt>
<rscale>  2 0.41733596E+03</rscale>
<asrwt>0</asrwt>
<pdfrwt beam="1">  1       21 0.30225955E-01 0.41737568E+03</pdfrwt>
<pdfrwt beam="2">  1       21 0.27384686E+00 0.41737568E+03</pdfrwt>
<totfact> 0.41395334E+02</totfact>
</mgrwt>
</event>
<event>
 6    1  0.9094387E-004  0.4889702E+03  0.7818608E-02  0.1016710E+00
         21   -1    0    0  501  502  0.00000000000E+00  0.00000000000E+00  0.67932491315E+03  0.67932491315E+03  0.00000000000E+00 0.  1.
         21   -1    0    0  502  503 -0.00000000000E+00 -0.00000000000E+00 -0.35450575680E+03  0.35450575680E+03  0.00000000000E+00 0.  1.
    9000007    2    1    2  501    0  0.17625586517E+03 -0.21914778003E+03  0.11752291709E+03  0.50273405887E+03  0.39979747174E+03 0.  0.
    9000005    1    3    3    0    0 -0.55274705308E+02  0.76762651652E+02 -0.29766061385E+02  0.99170641521E+02  0.99999687468E+00 0.  0.
          4    1    3    3  501    0  0.23153057047E+03 -0.29591043168E+03  0.14728897848E+03  0.40356341735E+03  0.00000000000E+00 0.  1.
   -9000007    1    1    2    0  503 -0.17625586517E+03  0.21914778003E+03  0.20729623926E+03  0.53109661109E+03  0.40000000000E+03 0.  1.
<mgrwt>
<rscale>  2 0.48892880E+03</rscale>
<asrwt>0</asrwt>
<pdfrwt beam="1">  1       21 0.10451153E+00 0.48897022E+03</pdfrwt>
<pdfrwt beam="2">  1       21 0.54539347E-01 0.48897022E+03</pdfrwt>
<totfact> 0.19943707E+03</totfact>
</mgrwt>
</event>
<event>
 6    1  0.9094387E-004  0.4640031E+03  0.7818608E-02  0.1023694E+00
         21   -1    0    0  501  502  0.00000000000E+00  0.00000000000E+00  0.67934630917E+03  0.67934630917E+03  0.00000000000E+00 0. -1.
         21   -1    0    0  502  503 -0.00000000000E+00 -0.00000000000E+00 -0.44509218987E+03  0.44509218987E+03  0.00000000000E+00 0. -1.
    9000007    2    1    2  501    0  0.23313649418E+03  0.88154881743E+01  0.41966370652E+03  0.62563287279E+03  0.40108418966E+03 0.  0.
    9000005    1    3    3    0    0  0.18953992397E+03  0.17799993201E+03  0.35346016121E+03  0.43879886523E+03  0.99999687468E+00 0.  0.
          4    1    3    3  501    0  0.43596570205E+02 -0.16918444383E+03  0.66203545317E+02  0.18683400756E+03  0.00000000000E+00 0.  1.
   -9000007    1    1    2    0  503 -0.23313649418E+03 -0.88154881743E+01 -0.18540958722E+03  0.49880562625E+03  0.40000000000E+03 0. -1.
<mgrwt>
<rscale>  2 0.46376870E+03</rscale>
<asrwt>0</asrwt>
<pdfrwt beam="1">  1       21 0.10451482E+00 0.46400309E+03</pdfrwt>
<pdfrwt beam="2">  1       21 0.68475721E-01 0.46400309E+03</pdfrwt>
<totfact> 0.12196020E+03</totfact>
</mgrwt>
</event>
<event>
 6    1  0.9094387E-004  0.4517272E+03  0.7818608E-02  0.1027233E+00
         21   -1    0    0  501  502  0.00000000000E+00  0.00000000000E+00  0.44999509424E+03  0.44999509424E+03  0.00000000000E+00 0.  1.
         21   -1    0    0  502  503 -0.00000000000E+00 -0.00000000000E+00 -0.60217807780E+03  0.60217807780E+03  0.00000000000E+00 0.  1.
    9000007    2    1    2  501    0  0.12173749729E+03  0.17098947966E+03  0.18565634913E+03  0.48808733185E+03  0.39962925711E+03 0.  0.
    9000005    1    3    3    0    0  0.18491587091E+03  0.22067368545E+03  0.23330279339E+01  0.28791873468E+03  0.99999687468E+00 0.  0.
          4    1    3    3  501    0 -0.63178373622E+02 -0.49684205796E+02  0.18332332119E+03  0.20016859717E+03  0.00000000000E+00 0.  1.
   -9000007    1    1    2    0  503 -0.12173749729E+03 -0.17098947966E+03 -0.33783933269E+03  0.56408584020E+03  0.40000000000E+03 0.  1.
<mgrwt>
<rscale>  2 0.45164507E+03</rscale>
<asrwt>0</asrwt>
<pdfrwt beam="1">  1       21 0.69230014E-01 0.45172715E+03</pdfrwt>
<pdfrwt beam="2">  1       21 0.92642781E-01 0.45172715E+03</pdfrwt>
<totfact> 0.16010465E+03</totfact>
</mgrwt>
</event>
<event>
 6    1  0.9094387E-004  0.4590956E+03  0.7818608E-02  0.1025074E+00
         21   -1    0    0  501  502  0.00000000000E+00  0.00000000000E+00  0.99094554078E+03  0.99094554078E+03  0.00000000000E+00 0. -1.
         21   -1    0    0  502  503 -0.00000000000E+00 -0.00000000000E+00 -0.30644627743E+03  0.30644627743E+03  0.00000000000E+00 0. -1.
    9000007    2    1    2  501    0  0.17705492495E+03  0.13935682346E+03  0.70131352248E+03  0.83798841160E+03  0.39951864847E+03 0.  0.
    9000005    1    3    3    0    0  0.28037392520E+03  0.99743321199E+02  0.65228066071E+03  0.71695838679E+03  0.99999687468E+00 0.  0.
          4    1    3    3  501    0 -0.10331900025E+03  0.39613502262E+02  0.49032861770E+02  0.12103002482E+03  0.00000000000E+00 0.  1.
   -9000007    1    1    2    0  503 -0.17705492495E+03 -0.13935682346E+03 -0.16814259123E+02  0.45940340661E+03  0.40000000000E+03 0. -1.
<mgrwt>
<rscale>  2 0.45899073E+03</rscale>
<asrwt>0</asrwt>
<pdfrwt beam="1">  1       21 0.15245316E+00 0.45909560E+03</pdfrwt>
<pdfrwt beam="2">  1       21 0.47145582E-01 0.45909560E+03</pdfrwt>
<totfact> 0.10376756E+03</totfact>
</mgrwt>
</event>
<event>
 6    1  0.9094387E-004  0.4772889E+03  0.7818608E-02  0.1019927E+00
         21   -1    0    0  501  502  0.00000000000E+00  0.00000000000E+00  0.14481511447E+04  0.14481511447E+04  0.00000000000E+00 0.  1.
         21   -1    0    0  502  503 -0.00000000000E+00 -0.00000000000E+00 -0.16638284061E+03  0.16638284061E+03  0.00000000000E+00 0.  1.
    9000007    2    1    2  501    0 -0.76306207418E+02  0.24896205076E+03  0.44978258583E+03  0.65536508705E+03  0.39924213554E+03 0.  0.
    9000005    1    3    3    0    0  0.12091527408E+03  0.23943377759E+03  0.32663312783E+03  0.42265735241E+03  0.99999687468E+00 0.  0.
          4    1    3    3  501    0 -0.19722148150E+03  0.95282731664E+01  0.12314945800E+03  0.23270773464E+03  0.00000000000E+00 0.  1.
   -9000007    1    1    2    0  503  0.76306207418E+02 -0.24896205076E+03  0.83198571823E+03  0.95916889824E+03  0.40000000000E+03 0.  1.
<mgrwt>
<rscale>  2 0.47713013E+03</rscale>
<asrwt>0</asrwt>
<pdfrwt beam="1">  1       21 0.22279248E+00 0.47728895E+03</pdfrwt>
<pdfrwt beam="2">  1       21 0.25597361E-01 0.47728895E+03</pdfrwt>
<totfact> 0.11493995E+03</totfact>
</mgrwt>
</event>
<event>
 6    1  0.9094387E-004  0.6585214E+03  0.7818608E-02  0.9791598E-01
         21   -1    0    0  501  502  0.00000000000E+00  0.00000000000E+00  0.10231195048E+04  0.10231195048E+04  0.00000000000E+00 0. -1.
         21   -1    0    0  502  503 -0.00000000000E+00 -0.00000000000E+00 -0.91539174450E+03  0.91539174450E+03  0.00000000000E+00 0. -1.
    9000007    2    1    2  501    0  0.48619972659E+03  0.18795528640E+03  0.76482939305E+03  0.10092642856E+04  0.40240903815E+03 0.  0.
    9000005    1    3    3    0    0  0.39493474078E+03  0.19322307625E+03  0.79874543281E+03  0.91175867043E+03  0.99999687468E+00 0.  0.
          4    1    3    3  501    0  0.91264985812E+02 -0.52677898503E+01 -0.33916039766E+02  0.97505615216E+02  0.00000000000E+00 0.  1.
   -9000007    1    1    2    0  503 -0.48619972659E+03 -0.18795528640E+03 -0.65710163271E+03  0.92924696370E+03  0.40000000000E+03 0. -1.
<mgrwt>
<rscale>  2 0.65815373E+03</rscale>
<asrwt>0</asrwt>
<pdfrwt beam="1">  1       21 0.15740300E+00 0.65852137E+03</pdfrwt>
<pdfrwt beam="2">  1       21 0.14082950E+00 0.65852137E+03</pdfrwt>
<totfact> 0.66794878E+01</totfact>
</mgrwt>
</event>
<event>
 6    1  0.9094387E-004  0.5062645E+03  0.7818608E-02  0.1012159E+00
         21   -1    0    0  501  502  0.00000000000E+00  0.00000000000E+00  0.11944757126E+04  0.11944757126E+04  0.00000000000E+00 0.  1.
         21   -1    0    0  502  503 -0.00000000000E+00 -0.00000000000E+00 -0.23401431125E+03  0.23401431125E+03  0.00000000000E+00 0.  1.
    9000007    2    1    2  501    0  0.30887308491E+03  0.30018568042E+02  0.68616286372E+03  0.85269198221E+03  0.39995055191E+03 0.  0.
    9000005    1    3    3    0    0  0.25279399899E+03 -0.15154423268E+03  0.53120240092E+03  0.60749275808E+03  0.99999687468E+00 0.  0.
          4    1    3    3  501    0  0.56079085920E+02  0.18156280072E+03  0.15496046279E+03  0.24519922413E+03  0.00000000000E+00 0.  1.
   -9000007    1    1    2    0  503 -0.30887308491E+03 -0.30018568042E+02  0.27429853762E+03  0.57579804163E+03  0.40000000000E+03 0.  1.
<mgrwt>
<rscale>  2 0.50625469E+03</rscale>
<asrwt>0</asrwt>
<pdfrwt beam="1">  1       21 0.18376549E+00 0.50626445E+03</pdfrwt>
<pdfrwt beam="2">  1       21 0.36002202E-01 0.50626445E+03</pdfrwt>
<totfact> 0.10464843E+03</totfact>
</mgrwt>
</event>
<event>
 6    1  0.9094387E-004  0.4365392E+03  0.7818608E-02  0.1031836E+00
         21   -1    0    0  501  502  0.00000000000E+00  0.00000000000E+00  0.17205208815E+03  0.17205208815E+03  0.00000000000E+00 0. -1.
         21   -1    0    0  502  503 -0.00000000000E+00 -0.00000000000E+00 -0.11081344872E+04  0.11081344872E+04  0.00000000000E+00 0.  1.
    9000007    2    1    2  501    0  0.92783493064E+02 -0.14818124621E+03 -0.44635792238E+03  0.62414044789E+03  0.39968668417E+03 0.  0.
    9000005    1    3    3    0    0 -0.61858587905E+02 -0.10138717185E+03  0.28843097320E+02  0.12222425197E+03  0.99999687468E+00 0.  0.
          4    1    3    3  501    0  0.15464208097E+03 -0.46794074360E+02 -0.47520101970E+03  0.50191619592E+03  0.00000000000E+00 0.  1.
   -9000007    1    1    2    0  503 -0.92783493064E+02  0.14818124621E+03 -0.48972447665E+03  0.65604612745E+03  0.40000000000E+03 0.  1.
<mgrwt>
<rscale>  2 0.43646740E+03</rscale>
<asrwt>0</asrwt>
<pdfrwt beam="1">  1       21 0.26469553E-01 0.43653918E+03</pdfrwt>
<pdfrwt beam="2">  1       21 0.17048223E+00 0.43653918E+03</pdfrwt>
<totfact> 0.24729410E+03</totfact>
</mgrwt>
</event>
<event>
 6    1  0.9094387E-004  0.5691290E+03  0.7818608E-02  0.9971688E-01
         21   -1    0    0  501  502  0.00000000000E+00  0.00000000000E+00  0.23742622528E+03  0.23742622528E+03  0.00000000000E+00 0. -1.
         21   -1    0    0  502  503 -0.00000000000E+00 -0.00000000000E+00 -0.18589054573E+04  0.18589054573E+04  0.00000000000E+00 0. -1.
    9000007    2    1    2  501    0  0.31914132915E+03  0.24877984154E+03 -0.26992771858E+03  0.62989583638E+03  0.40020643911E+03 0.  0.
    9000005    1    3    3    0    0  0.27772830655E+02  0.11017446493E+03  0.91144550051E+02  0.14566424353E+03  0.99999687468E+00 0.  0.
          4    1    3    3  501    0  0.29136849850E+03  0.13860537661E+03 -0.36107226863E+03  0.48423159286E+03  0.00000000000E+00 0.  1.
   -9000007    1    1    2    0  503 -0.31914132915E+03 -0.24877984154E+03 -0.13515515134E+04  0.14664358462E+04  0.40000000000E+03 0. -1.
<mgrwt>
<rscale>  2 0.56909269E+03</rscale>
<asrwt>0</asrwt>
<pdfrwt beam="1">  1       21 0.36527112E-01 0.56912898E+03</pdfrwt>
<pdfrwt beam="2">  1       21 0.28598545E+00 0.56912898E+03</pdfrwt>
<totfact> 0.22039911E+02</totfact>
</mgrwt>
</event>
<event>
 6    1  0.9094387E-004  0.4514432E+03  0.7818608E-02  0.1027465E+00
         21   -1    0    0  501  502  0.00000000000E+00  0.00000000000E+00  0.27063293590E+03  0.27063293590E+03  0.00000000000E+00 0. -1.
         21   -1    0    0  502  503 -0.00000000000E+00 -0.00000000000E+00 -0.78216046078E+03  0.78216046078E+03  0.00000000000E+00 0. -1.
    9000007    2    1    2  501    0 -0.18446583665E+03  0.98860223780E+02 -0.14708056700E+03  0.47260155441E+03  0.39738966683E+03 0.  0.
    9000005    1    3    3    0    0 -0.88315743542E+02 -0.41159782893E+02  0.12092863131E+03  0.15530142353E+03  0.99999687468E+00 0.  0.
          4    1    3    3  501    0 -0.96150093104E+02  0.14002000667E+03 -0.26800919832E+03  0.31730013088E+03  0.00000000000E+00 0.  1.
   -9000007    1    1    2    0  503  0.18446583665E+03 -0.98860223780E+02 -0.36444695788E+03  0.58019184227E+03  0.40000000000E+03 0. -1.
<mgrwt>
<rscale>  2 0.45086430E+03</rscale>
<asrwt>0</asrwt>
<pdfrwt beam="1">  1       21 0.41635837E-01 0.45144323E+03</pdfrwt>
<pdfrwt beam="2">  1       21 0.12033238E+00 0.45144323E+03</pdfrwt>
<totfact> 0.25166131E+03</totfact>
</mgrwt>
</event>
<event>
 6    1  0.9094387E-004  0.8663994E+03  0.7818608E-02  0.9468877E-01
         21   -1    0    0  501  502  0.00000000000E+00  0.00000000000E+00  0.19140801043E+04  0.19140801043E+04  0.00000000000E+00 0.  1.
         21   -1    0    0  502  503 -0.00000000000E+00 -0.00000000000E+00 -0.11480087156E+04  0.11480087156E+04  0.00000000000E+00 0.  1.
    9000007    2    1    2  501    0 -0.50507969269E+03  0.57793549964E+03  0.16257395967E+04  0.18421935927E+04  0.40191175528E+03 0.  0.
    9000005    1    3    3    0    0 -0.13883767111E+03  0.41283359096E+03  0.60696463209E+03  0.74707063745E+03  0.99999687468E+00 0.  0.
          4    1    3    3  501    0 -0.36624202158E+03  0.16510190868E+03  0.10187749646E+04  0.10951229552E+04  0.00000000000E+00 0.  1.
   -9000007    1    1    2    0  503  0.50507969269E+03 -0.57793549964E+03 -0.85966820799E+03  0.12198952273E+04  0.40000000000E+03 0.  1.
<mgrwt>
<rscale>  2 0.86617806E+03</rscale>
<asrwt>0</asrwt>
<pdfrwt beam="1">  1       21 0.29447386E+00 0.86639944E+03</pdfrwt>
<pdfrwt beam="2">  1       21 0.17661673E+00 0.86639944E+03</pdfrwt>
<totfact> 0.40037254E+00</totfact>
</mgrwt>
</event>
<event>
 6    1  0.9094387E-004  0.4857505E+03  0.7818608E-02  0.1017615E+00
         21   -1    0    0  501  502  0.00000000000E+00  0.00000000000E+00  0.42710762338E+03  0.42710762338E+03  0.00000000000E+00 0. -1.
         21   -1    0    0  502  503 -0.00000000000E+00 -0.00000000000E+00 -0.56940370478E+03  0.56940370478E+03  0.00000000000E+00 0. -1.
    9000007    2    1    2  501    0 -0.83074704170E+02 -0.26277780992E+03  0.16917421757E+02  0.48533374312E+03  0.39913538956E+03 0.  0.
    9000005    1    3    3    0    0 -0.16272504962E+03 -0.33171325752E+03  0.54531661607E+02  0.37348069441E+03  0.99999687468E+00 0.  0.
          4    1    3    3  501    0  0.79650345447E+02  0.68935447603E+02 -0.37614239850E+02  0.11185304871E+03  0.00000000000E+00 0.  1.
   -9000007    1    1    2    0  503  0.83074704170E+02  0.26277780992E+03 -0.15921350315E+03  0.51117758504E+03  0.40000000000E+03 0. -1.
<mgrwt>
<rscale>  2 0.48557251E+03</rscale>
<asrwt>0</asrwt>
<pdfrwt beam="1">  1       21 0.65708865E-01 0.48575054E+03</pdfrwt>
<pdfrwt beam="2">  1       21 0.87600570E-01 0.48575054E+03</pdfrwt>
<totfact> 0.20294335E+03</totfact>
</mgrwt>
</event>
<event>
 6    1  0.9094387E-004  0.4109641E+03  0.7818608E-02  0.1040187E+00
         21   -1    0    0  501  502  0.00000000000E+00  0.00000000000E+00  0.72676760386E+03  0.72676760386E+03  0.00000000000E+00 0. -1.
         21   -1    0    0  502  503 -0.00000000000E+00 -0.00000000000E+00 -0.29670573092E+03  0.29670573092E+03  0.00000000000E+00 0.  1.
    9000007    2    1    2  501    0  0.91788986313E+02  0.21593622423E+02  0.45468284930E+03  0.61177235711E+03  0.39829313444E+03 0.  0.
    9000005    1    3    3    0    0 -0.23408367824E+02 -0.13079661312E+03  0.38688198965E+03  0.40906525103E+03  0.99999687468E+00 0.  0.
          4    1    3    3  501    0  0.11519735414E+03  0.15239023554E+03  0.67800859650E+02  0.20270710609E+03  0.00000000000E+00 0.  1.
   -9000007    1    1    2    0  503 -0.91788986313E+02 -0.21593622423E+02 -0.24620976358E+02  0.41170097767E+03  0.40000000000E+03 0.  1.
<mgrwt>
<rscale>  2 0.41054820E+03</rscale>
<asrwt>0</asrwt>
<pdfrwt beam="1">  1       21 0.11181040E+00 0.41096411E+03</pdfrwt>
<pdfrwt beam="2">  1       21 0.45647036E-01 0.41096411E+03</pdfrwt>
<totfact> 0.25373481E+03</totfact>
</mgrwt>
</event>
<event>
 6    1  0.9094387E-004  0.4319874E+03  0.7818608E-02  0.1033309E+00
         21   -1    0    0  501  502  0.00000000000E+00  0.00000000000E+00  0.16963232059E+04  0.16963232059E+04  0.00000000000E+00 0.  1.
         21   -1    0    0  502  503 -0.00000000000E+00 -0.00000000000E+00 -0.15369608866E+03  0.15369608866E+03  0.00000000000E+00 0.  1.
    9000007    2    1    2  501    0 -0.11389611313E+03 -0.11679396000E+03  0.12652301535E+04  0.13366361733E+04  0.39896837572E+03 0.  0.
    9000005    1    3    3    0    0 -0.72806053776E+02 -0.19566590561E+03  0.12183398381E+04  0.12360982279E+04  0.99999687468E+00 0.  0.
          4    1    3    3  501    0 -0.41090059350E+02  0.78871945619E+02  0.46890315455E+02  0.10053794541E+03  0.00000000000E+00 0.  1.
   -9000007    1    1    2    0  503  0.11389611313E+03  0.11679396000E+03  0.27739696373E+03  0.51338312123E+03  0.40000000000E+03 0. -1.
<mgrwt>
<rscale>  2 0.43174848E+03</rscale>
<asrwt>0</asrwt>
<pdfrwt beam="1">  1       21 0.26097279E+00 0.43198745E+03</pdfrwt>
<pdfrwt beam="2">  1       21 0.23645553E-01 0.43198745E+03</pdfrwt>
<totfact> 0.79440142E+02</totfact>
</mgrwt>
</event>
<event>
 6    1  0.9094387E-004  0.5235282E+03  0.7818608E-02  0.1007851E+00
         21   -1    0    0  501  502  0.00000000000E+00  0.00000000000E+00  0.82658901927E+03  0.82658901927E+03  0.00000000000E+00 0. -1.
         21   -1    0    0  502  503 -0.00000000000E+00 -0.00000000000E+00 -0.37982865793E+03  0.37982865793E+03  0.00000000000E+00 0. -1.
    9000007    2    1    2  501    0  0.96910681931E+02  0.32257409984E+03  0.43933441063E+03  0.68344456613E+03  0.40079423705E+03 0.  0.
    9000005    1    3    3    0    0  0.17663754984E+03  0.18458482263E+03  0.45652704083E+03  0.52315420266E+03  0.99999687468E+00 0.  0.
          4    1    3    3  501    0 -0.79726867905E+02  0.13798927720E+03 -0.17192630197E+02  0.16029036347E+03  0.00000000000E+00 0.  1.
   -9000007    1    1    2    0  503 -0.96910681931E+02 -0.32257409984E+03  0.74259507087E+01  0.52297311107E+03  0.40000000000E+03 0. -1.
<mgrwt>
<rscale>  2 0.52337616E+03</rscale>
<asrwt>0</asrwt>
<pdfrwt beam="1">  1       21 0.12716754E+00 0.52352818E+03</pdfrwt>
<pdfrwt beam="2">  1       21 0.58435178E-01 0.52352818E+03</pdfrwt>
<totfact> 0.10340238E+03</totfact>
</mgrwt>
</event>
<event>
 6    1  0.9094387E-004  0.5520650E+03  0.7818608E-02  0.1001047E+00
         21   -1    0    0  501  502  0.00000000000E+00  0.00000000000E+00  0.22395534645E+04  0.22395534645E+04  0.00000000000E+00 0. -1.
         21   -1    0    0  502  503 -0.00000000000E+00 -0.00000000000E+00 -0.28015839500E+03  0.28015839500E+03  0.00000000000E+00 0.  1.
    9000007    2    1    2  501    0  0.30367824875E+03 -0.22799240382E+03  0.18837798413E+04  0.19630084576E+04  0.40071772992E+03 0.  0.
    9000005    1    3    3    0    0 -0.78934510201E+02  0.14285926867E+02  0.13974501227E+03  0.16113476675E+03  0.99999687468E+00 0.  0.
          4    1    3    3  501    0  0.38261275895E+03 -0.24227833069E+03  0.17440348290E+04  0.18018736908E+04  0.00000000000E+00 0.  1.
   -9000007    1    1    2    0  503 -0.30367824875E+03  0.22799240382E+03  0.75615228191E+02  0.55670340191E+03  0.40000000000E+03 0.  1.
<mgrwt>
<rscale>  2 0.55193472E+03</rscale>
<asrwt>0</asrwt>
<pdfrwt beam="1">  1       21 0.34454668E+00 0.55206495E+03</pdfrwt>
<pdfrwt beam="2">  1       21 0.43101293E-01 0.55206495E+03</pdfrwt>
<totfact> 0.69384887E+01</totfact>
</mgrwt>
</event>
<event>
 6    1  0.9094387E-004  0.4238235E+03  0.7818608E-02  0.1035874E+00
         21   -1    0    0  501  502  0.00000000000E+00  0.00000000000E+00  0.34484108948E+04  0.34484108948E+04  0.00000000000E+00 0. -1.
         21   -1    0    0  502  503 -0.00000000000E+00 -0.00000000000E+00 -0.55741076312E+02  0.55741076312E+02  0.00000000000E+00 0. -1.
    9000007    2    1    2  501    0  0.10021024605E+03 -0.97899331050E+02  0.21479488000E+04  0.21892539575E+04  0.39940264195E+03 0.  0.
    9000005    1    3    3    0    0 -0.14712463834E+03 -0.14603198157E+02  0.10697180550E+04  0.10798873227E+04  0.99999687468E+00 0.  0.
          4    1    3    3  501    0  0.24733488439E+03 -0.83296132893E+02  0.10782307450E+04  0.11093666348E+04  0.00000000000E+00 0.  1.
   -9000007    1    1    2    0  503 -0.10021024605E+03  0.97899331050E+02  0.12447210184E+04  0.13148980136E+04  0.40000000000E+03 0.  1.
<mgrwt>
<rscale>  2 0.42368251E+03</rscale>
<asrwt>0</asrwt>
<pdfrwt beam="1">  1       21 0.53052459E+00 0.42382352E+03</pdfrwt>
<pdfrwt beam="2">  1       21 0.85755529E-02 0.42382352E+03</pdfrwt>
<totfact> 0.93152628E+01</totfact>
</mgrwt>
</event>
<event>
 6    1  0.9094387E-004  0.4731985E+03  0.7818608E-02  0.1021048E+00
         21   -1    0    0  501  502  0.00000000000E+00  0.00000000000E+00  0.39661179683E+03  0.39661179683E+03  0.00000000000E+00 0.  1.
         21   -1    0    0  502  503 -0.00000000000E+00 -0.00000000000E+00 -0.60274403509E+03  0.60274403509E+03  0.00000000000E+00 0. -1.
    9000007    2    1    2  501    0 -0.16850935462E+03  0.18751755128E+03  0.23380746345E+02  0.47377572886E+03  0.40044793335E+03 0.  0.
    9000005    1    3    3    0    0 -0.14493132118E+02 -0.10960962311E+03  0.77133364603E+02  0.13481422880E+03  0.99999687468E+00 0.  0.
          4    1    3    3  501    0 -0.15401622251E+03  0.29712717439E+03 -0.53752618258E+02  0.33896150006E+03  0.00000000000E+00 0.  1.
   -9000007    1    1    2    0  503  0.16850935462E+03 -0.18751755128E+03 -0.22951298461E+03  0.52558010306E+03  0.40000000000E+03 0.  1.
<mgrwt>
<rscale>  2 0.47310368E+03</rscale>
<asrwt>0</asrwt>
<pdfrwt beam="1">  1       21 0.61017200E-01 0.47319846E+03</pdfrwt>
<pdfrwt beam="2">  1       21 0.92729851E-01 0.47319846E+03</pdfrwt>
<totfact> 0.20985731E+03</totfact>
</mgrwt>
</event>
<event>
 6    1  0.9094387E-004  0.4751208E+03  0.7818608E-02  0.1020501E+00
         21   -1    0    0  501  502  0.00000000000E+00  0.00000000000E+00  0.10046013155E+03  0.10046013155E+03  0.00000000000E+00 0. -1.
         21   -1    0    0  502  503 -0.00000000000E+00 -0.00000000000E+00 -0.24484306117E+04  0.24484306117E+04  0.00000000000E+00 0.  1.
    9000007    2    1    2  501    0  0.19469169173E+03 -0.16683799558E+03 -0.80726241127E+03  0.93658769323E+03  0.39973007751E+03 0.  0.
    9000005    1    3    3    0    0  0.19241495989E+03 -0.27806754006E+03 -0.45316390188E+03  0.56542337729E+03  0.99999687468E+00 0.  0.
          4    1    3    3  501    0  0.22767318402E+01  0.11122954448E+03 -0.35409850939E+03  0.37116431594E+03  0.00000000000E+00 0.  1.
   -9000007    1    1    2    0  503 -0.19469169173E+03  0.16683799558E+03 -0.15407080688E+04  0.16123030500E+04  0.40000000000E+03 0.  1.
<mgrwt>
<rscale>  2 0.47506398E+03</rscale>
<asrwt>0</asrwt>
<pdfrwt beam="1">  1       21 0.15455406E-01 0.47512080E+03</pdfrwt>
<pdfrwt beam="2">  1       21 0.37668161E+00 0.47512080E+03</pdfrwt>
<totfact> 0.34305928E+02</totfact>
</mgrwt>
</event>
<event>
 6    1  0.9094387E-004  0.5448455E+03  0.7818608E-02  0.1002707E+00
         21   -1    0    0  501  502  0.00000000000E+00  0.00000000000E+00  0.18094496822E+04  0.18094496822E+04  0.00000000000E+00 0. -1.
         21   -1    0    0  502  503 -0.00000000000E+00 -0.00000000000E+00 -0.20011168235E+03  0.20011168235E+03  0.00000000000E+00 0.  1.
    9000007    2    1    2  501    0 -0.16156423047E+03  0.33242191496E+03  0.37791546672E+03  0.66308121794E+03  0.40031146809E+03 0.  0.
    9000005    1    3    3    0    0  0.56705544715E+02 -0.47189099565E+02  0.15512209829E+03  0.17177367462E+03  0.99999687468E+00 0.  0.
          4    1    3    3  501    0 -0.21826977519E+03  0.37961101453E+03  0.22279336843E+03  0.49130754332E+03  0.00000000000E+00 0.  1.
   -9000007    1    1    2    0  503  0.16156423047E+03 -0.33242191496E+03  0.12314225331E+04  0.13464801466E+04  0.40000000000E+03 0. -1.
<mgrwt>
<rscale>  2 0.54478827E+03</rscale>
<asrwt>0</asrwt>
<pdfrwt beam="1">  1       21 0.27837686E+00 0.54484548E+03</pdfrwt>
<pdfrwt beam="2">  1       21 0.30786414E-01 0.54484548E+03</pdfrwt>
<totfact> 0.35037818E+02</totfact>
</mgrwt>
</event>
<event>
 6    1  0.9094387E-004  0.5373099E+03  0.7818608E-02  0.1004501E+00
         21   -1    0    0  501  502  0.00000000000E+00  0.00000000000E+00  0.26697962918E+03  0.26697962918E+03  0.00000000000E+00 0. -1.
         21   -1    0    0  502  503 -0.00000000000E+00 -0.00000000000E+00 -0.19045486242E+04  0.19045486242E+04  0.00000000000E+00 0. -1.
    9000007    2    1    2  501    0  0.24989269771E+03  0.25740150103E+03 -0.10439108621E+03  0.54692479617E+03  0.39940873887E+03 0.  0.
    9000005    1    3    3    0    0  0.58947140087E+02  0.30513160561E+03  0.24367567943E+02  0.31172879307E+03  0.99999687468E+00 0.  0.
          4    1    3    3  501    0  0.19094555762E+03 -0.47730104573E+02 -0.12875865415E+03  0.23519600311E+03  0.00000000000E+00 0.  1.
   -9000007    1    1    2    0  503 -0.24989269771E+03 -0.25740150103E+03 -0.15331779088E+04  0.16246034572E+04  0.40000000000E+03 0. -1.
<mgrwt>
<rscale>  2 0.53719983E+03</rscale>
<asrwt>0</asrwt>
<pdfrwt beam="1">  1       21 0.41073789E-01 0.53730987E+03</pdfrwt>
<pdfrwt beam="2">  1       21 0.29300748E+00 0.53730987E+03</pdfrwt>
<totfact> 0.15933845E+02</totfact>
</mgrwt>
</event>
<event>
 6    1  0.9094387E-004  0.8823234E+03  0.7818608E-02  0.9447966E-01
         21   -1    0    0  501  502  0.00000000000E+00  0.00000000000E+00  0.17267355499E+04  0.17267355499E+04  0.00000000000E+00 0.  1.
         21   -1    0    0  502  503 -0.00000000000E+00 -0.00000000000E+00 -0.45231407952E+03  0.45231407952E+03  0.00000000000E+00 0.  1.
    9000007    2    1    2  501    0 -0.78579242902E+03  0.32014329386E+02  0.69971362771E+03  0.11260616128E+04  0.39990115794E+03 0.  0.
    9000005    1    3    3    0    0 -0.20793406152E+03 -0.17124126564E+03  0.19933619629E+03  0.33510604910E+03  0.99999687468E+00 0.  0.
          4    1    3    3  501    0 -0.57785836750E+03  0.20325559503E+03  0.50037743142E+03  0.79095556365E+03  0.00000000000E+00 0.  1.
   -9000007    1    1    2    0  503  0.78579242902E+03 -0.32014329386E+02  0.57470784265E+03  0.10529880166E+04  0.40000000000E+03 0.  1.
<mgrwt>
<rscale>  2 0.88231224E+03</rscale>
<asrwt>0</asrwt>
<pdfrwt beam="1">  1       21 0.26565162E+00 0.88232344E+03</pdfrwt>
<pdfrwt beam="2">  1       21 0.69586782E-01 0.88232344E+03</pdfrwt>
<totfact> 0.65309966E+01</totfact>
</mgrwt>
</event>
<event>
 6    1  0.9094387E-004  0.4269969E+03  0.7818608E-02  0.1034814E+00
         21   -1    0    0  501  502  0.00000000000E+00  0.00000000000E+00  0.68680789969E+03  0.68680789969E+03  0.00000000000E+00 0. -1.
         21   -1    0    0  502  503 -0.00000000000E+00 -0.00000000000E+00 -0.26635358981E+03  0.26635358981E+03  0.00000000000E+00 0. -1.
    9000007    2    1    2  501    0  0.14003405642E+03 -0.52122698321E+02  0.23787279580E+03  0.48876691382E+03  0.39997914499E+03 0.  0.
    9000005    1    3    3    0    0  0.15141900417E+03  0.14116722533E+03  0.37982993573E+02  0.21047472087E+03  0.99999687468E+00 0.  0.
          4    1    3    3  501    0 -0.11384947752E+02 -0.19328992365E+03  0.19988980222E+03  0.27829219295E+03  0.00000000000E+00 0.  1.
   -9000007    1    1    2    0  503 -0.14003405642E+03  0.52122698321E+02  0.18258151408E+03  0.46439457568E+03  0.40000000000E+03 0. -1.
<mgrwt>
<rscale>  2 0.42699197E+03</rscale>
<asrwt>0</asrwt>
<pdfrwt beam="1">  1       21 0.10566275E+00 0.42699685E+03</pdfrwt>
<pdfrwt beam="2">  1       21 0.40977476E-01 0.42699685E+03</pdfrwt>
<totfact> 0.36298044E+03</totfact>
</mgrwt>
</event>
<event>
 6    1  0.9094387E-004  0.4985244E+03  0.7818608E-02  0.1014255E+00
         21   -1    0    0  501  502  0.00000000000E+00  0.00000000000E+00  0.82817042662E+03  0.82817042662E+03  0.00000000000E+00 0. -1.
         21   -1    0    0  502  503 -0.00000000000E+00 -0.00000000000E+00 -0.31979840905E+03  0.31979840905E+03  0.00000000000E+00 0. -1.
    9000007    2    1    2  501    0 -0.26850941599E+03  0.12817667535E+03  0.39930833911E+03  0.63765378344E+03  0.39828210012E+03 0.  0.
    9000005    1    3    3    0    0 -0.20919764510E+03  0.16712674200E+03  0.39193100068E+02  0.27061430430E+03  0.99999687468E+00 0.  0.
          4    1    3    3  501    0 -0.59311770895E+02 -0.38950066650E+02  0.36011523904E+03  0.36703947914E+03  0.00000000000E+00 0.  1.
   -9000007    1    1    2    0  503  0.26850941599E+03 -0.12817667535E+03  0.10906367846E+03  0.51031505224E+03  0.40000000000E+03 0. -1.
<mgrwt>
<rscale>  2 0.49817970E+03</rscale>
<asrwt>0</asrwt>
<pdfrwt beam="1">  1       21 0.12741083E+00 0.49852439E+03</pdfrwt>
<pdfrwt beam="2">  1       21 0.49199756E-01 0.49852439E+03</pdfrwt>
<totfact> 0.15043023E+03</totfact>
</mgrwt>
</event>
<event>
 6    1  0.9094387E-004  0.5575585E+03  0.7818608E-02  0.9997700E-01
         21   -1    0    0  501  502  0.00000000000E+00  0.00000000000E+00  0.22419552888E+03  0.22419552888E+03  0.00000000000E+00 0.  1.
         21   -1    0    0  502  503 -0.00000000000E+00 -0.00000000000E+00 -0.21222945081E+04  0.21222945081E+04  0.00000000000E+00 0.  1.
    9000007    2    1    2  501    0  0.18623571743E+03  0.34055960433E+03 -0.25816834986E+03  0.61442853240E+03  0.40025858892E+03 0.  0.
    9000005    1    3    3    0    0  0.10680431230E+02  0.25085407320E+03 -0.32097974474E+03  0.40751789431E+03  0.99999687468E+00 0.  0.
          4    1    3    3  501    0  0.17555528620E+03  0.89705531130E+02  0.62811394880E+02  0.20691063809E+03  0.00000000000E+00 0.  1.
   -9000007    1    1    2    0  503 -0.18623571743E+03 -0.34055960433E+03 -0.16399306294E+04  0.17320615046E+04  0.40000000000E+03 0.  1.
<mgrwt>
<rscale>  2 0.55751213E+03</rscale>
<asrwt>0</asrwt>
<pdfrwt beam="1">  1       21 0.34491619E-01 0.55755854E+03</pdfrwt>
<pdfrwt beam="2">  1       21 0.32650685E+00 0.55755854E+03</pdfrwt>
<totfact> 0.14122421E+02</totfact>
</mgrwt>
</event>
<event>
 6    1  0.9094387E-004  0.5599368E+03  0.7818608E-02  0.9992888E-01
         21   -1    0    0  501  502  0.00000000000E+00  0.00000000000E+00  0.14951116632E+04  0.14951116632E+04  0.00000000000E+00 0. -1.
         21   -1    0    0  502  503 -0.00000000000E+00 -0.00000000000E+00 -0.21784688550E+03  0.21784688550E+03  0.00000000000E+00 0. -1.
    9000007    2    1    2  501    0  0.23234739013E+03 -0.31550587220E+03  0.80814051448E+03  0.98247457253E+03  0.39829126205E+03 0.  0.
    9000005    1    3    3    0    0  0.28546303858E+03 -0.36071595131E+03  0.78338768313E+03  0.90846156000E+03  0.99999687468E+00 0.  0.
          4    1    3    3  501    0 -0.53115648452E+02  0.45210079108E+02  0.24752831348E+02  0.74013012526E+02  0.00000000000E+00 0.  1.
   -9000007    1    1    2    0  503 -0.23234739013E+03  0.31550587220E+03  0.46912426320E+03  0.73048397615E+03  0.40000000000E+03 0. -1.
<mgrwt>
<rscale>  2 0.55963174E+03</rscale>
<asrwt>0</asrwt>
<pdfrwt beam="1">  1       21 0.23001717E+00 0.55993684E+03</pdfrwt>
<pdfrwt beam="2">  1       21 0.33514906E-01 0.55993684E+03</pdfrwt>
<totfact> 0.58465539E+02</totfact>
</mgrwt>
</event>
<event>
 6    1  0.9094387E-004  0.4595435E+03  0.7818608E-02  0.1025091E+00
         21   -1    0    0  501  502  0.00000000000E+00  0.00000000000E+00  0.40401911808E+03  0.40401911808E+03  0.00000000000E+00 0. -1.
         21   -1    0    0  502  503 -0.00000000000E+00 -0.00000000000E+00 -0.57786678330E+03  0.57786678330E+03  0.00000000000E+00 0. -1.
    9000007    2    1    2  501    0 -0.16430677774E+03  0.14817524784E+03  0.68308693961E+02  0.46459263488E+03  0.40277489672E+03 0.  0.
    9000005    1    3    3    0    0 -0.16978729213E+03  0.25977413096E+03  0.13056277591E+03  0.33668674185E+03  0.99999687468E+00 0.  0.
          4    1    3    3  501    0  0.54805143911E+01 -0.11159888313E+03 -0.62254081950E+02  0.12790589303E+03  0.00000000000E+00 0.  1.
   -9000007    1    1    2    0  503  0.16430677774E+03 -0.14817524784E+03 -0.24215635918E+03  0.51729326651E+03  0.40000000000E+03 0. -1.
<mgrwt>
<rscale>  2 0.45893476E+03</rscale>
<asrwt>0</asrwt>
<pdfrwt beam="1">  1       21 0.62156788E-01 0.45954351E+03</pdfrwt>
<pdfrwt beam="2">  1       21 0.88902581E-01 0.45954351E+03</pdfrwt>
<totfact> 0.22378442E+03</totfact>
</mgrwt>
</event>
<event>
 6    1  0.9094387E-004  0.4047645E+03  0.7818608E-02  0.1042391E+00
         21   -1    0    0  501  502  0.00000000000E+00  0.00000000000E+00  0.14332399761E+03  0.14332399761E+03  0.00000000000E+00 0.  1.
         21   -1    0    0  502  503 -0.00000000000E+00 -0.00000000000E+00 -0.11355135660E+04  0.11355135660E+04  0.00000000000E+00 0.  1.
    9000007    2    1    2  501    0 -0.38213546149E+02  0.58111294074E+01 -0.51242920807E+03  0.65300687751E+03  0.40291468632E+03 0.  0.
    9000005    1    3    3    0    0 -0.86273274385E+02 -0.15165616518E+03 -0.83233314464E+02  0.19331698048E+03  0.99999687468E+00 0.  0.
          4    1    3    3  501    0  0.48059728236E+02  0.15746729459E+03 -0.42919589361E+03  0.45968989703E+03  0.00000000000E+00 0.  1.
   -9000007    1    1    2    0  503  0.38213546149E+02 -0.58111294074E+01 -0.47976036029E+03  0.62583068608E+03  0.40000000000E+03 0.  1.
<mgrwt>
<rscale>  2 0.40403721E+03</rscale>
<asrwt>0</asrwt>
<pdfrwt beam="1">  1       21 0.22049846E-01 0.40476449E+03</pdfrwt>
<pdfrwt beam="2">  1       21 0.17469440E+00 0.40476449E+03</pdfrwt>
<totfact> 0.33291995E+03</totfact>
</mgrwt>
</event>
<event>
 6    1  0.9094387E-004  0.4577024E+03  0.7818608E-02  0.1025510E+00
         21   -1    0    0  501  502  0.00000000000E+00  0.00000000000E+00  0.19547497375E+03  0.19547497375E+03  0.00000000000E+00 0. -1.
         21   -1    0    0  502  503 -0.00000000000E+00 -0.00000000000E+00 -0.15684798400E+04  0.15684798400E+04  0.00000000000E+00 0. -1.
    9000007    2    1    2  501    0  0.22231764021E+03 -0.81477225835E+01 -0.18875695111E+03  0.49433493243E+03  0.39905678831E+03 0.  0.
    9000005    1    3    3    0    0  0.15478877100E+03  0.16495061272E+03  0.44938563309E+01  0.22625088509E+03  0.99999687468E+00 0.  0.
          4    1    3    3  501    0  0.67528869207E+02 -0.17309833530E+03 -0.19325080744E+03  0.26808404734E+03  0.00000000000E+00 0.  1.
   -9000007    1    1    2    0  503 -0.22231764021E+03  0.81477225835E+01 -0.11842479151E+04  0.12696198813E+04  0.40000000000E+03 0. -1.
<mgrwt>
<rscale>  2 0.45749628E+03</rscale>
<asrwt>0</asrwt>
<pdfrwt beam="1">  1       21 0.30073072E-01 0.45770243E+03</pdfrwt>
<pdfrwt beam="2">  1       21 0.24130460E+00 0.45770243E+03</pdfrwt>
<totfact> 0.64598930E+02</totfact>
</mgrwt>
</event>
<event>
 6    1  0.9094387E-004  0.4162710E+03  0.7818608E-02  0.1038293E+00
         21   -1    0    0  501  502  0.00000000000E+00  0.00000000000E+00  0.11141432689E+04  0.11141432689E+04  0.00000000000E+00 0. -1.
         21   -1    0    0  502  503 -0.00000000000E+00 -0.00000000000E+00 -0.17594088822E+03  0.17594088822E+03  0.00000000000E+00 0.  1.
    9000007    2    1    2  501    0 -0.85062147353E+02 -0.77755826337E+02  0.68891909494E+03  0.80487936121E+03  0.39992465452E+03 0.  0.
    9000005    1    3    3    0    0  0.14930851575E+03 -0.83256574284E+02  0.38333752059E+03  0.41973008556E+03  0.99999687468E+00 0.  0.
          4    1    3    3  501    0 -0.23437066311E+03  0.55007479473E+01  0.30558157435E+03  0.38514927565E+03  0.00000000000E+00 0.  1.
   -9000007    1    1    2    0  503  0.85062147353E+02  0.77755826337E+02  0.24928328578E+03  0.48520479595E+03  0.40000000000E+03 0.  1.
<mgrwt>
<rscale>  2 0.41625289E+03</rscale>
<asrwt>0</asrwt>
<pdfrwt beam="1">  1       21 0.17140665E+00 0.41627099E+03</pdfrwt>
<pdfrwt beam="2">  1       21 0.27067830E-01 0.41627099E+03</pdfrwt>
<totfact> 0.23508113E+03</totfact>
</mgrwt>
</event>
<event>
 6    1  0.9094387E-004  0.4555679E+03  0.7818608E-02  0.1026122E+00
         21   -1    0    0  501  502  0.00000000000E+00  0.00000000000E+00  0.21772274738E+03  0.21772274738E+03  0.00000000000E+00 0. -1.
         21   -1    0    0  502  503 -0.00000000000E+00 -0.00000000000E+00 -0.10368251033E+04  0.10368251033E+04  0.00000000000E+00 0. -1.
    9000007    2    1    2  501    0 -0.30585251404E+02  0.21588580433E+03 -0.58882277676E+03  0.74408646849E+03  0.39926215955E+03 0.  0.
    9000005    1    3    3    0    0  0.14337843903E+03  0.79900284383E+02 -0.66667776207E+02  0.17716383548E+03  0.99999687468E+00 0.  0.
          4    1    3    3  501    0 -0.17396369043E+03  0.13598551995E+03 -0.52215500055E+03  0.56692263302E+03  0.00000000000E+00 0.  1.
   -9000007    1    1    2    0  503  0.30585251404E+02 -0.21588580433E+03 -0.23027957915E+03  0.51046138217E+03  0.40000000000E+03 0. -1.
<mgrwt>
<rscale>  2 0.45540592E+03</rscale>
<asrwt>0</asrwt>
<pdfrwt beam="1">  1       21 0.33495807E-01 0.45556793E+03</pdfrwt>
<pdfrwt beam="2">  1       21 0.15951155E+00 0.45556793E+03</pdfrwt>
<totfact> 0.18545620E+03</totfact>
</mgrwt>
</event>
<event>
 6    1  0.9094387E-004  0.4124554E+03  0.7818608E-02  0.1039595E+00
         21   -1    0    0  501  502  0.00000000000E+00  0.00000000000E+00  0.50874920060E+03  0.50874920060E+03  0.00000000000E+00 0.  1.
         21   -1    0    0  502  503 -0.00000000000E+00 -0.00000000000E+00 -0.46135203827E+03  0.46135203827E+03  0.00000000000E+00 0.  1.
    9000007    2    1    2  501    0 -0.99549916780E+01  0.10010172149E+03  0.27858064532E+03  0.49727435795E+03  0.39944355624E+03 0.  0.
    9000005    1    3    3    0    0  0.65484010229E+02 -0.59767390365E+02 -0.65638901571E+02  0.11031664398E+03  0.99999687468E+00 0.  0.
          4    1    3    3  501    0 -0.75439001907E+02  0.15986911186E+03  0.34421954690E+03  0.38695771397E+03  0.00000000000E+00 0.  1.
   -9000007    1    1    2    0  503  0.99549916780E+01 -0.10010172149E+03 -0.23118348300E+03  0.47282688091E+03  0.40000000000E+03 0.  1.
<mgrwt>
<rscale>  2 0.41232043E+03</rscale>
<asrwt>0</asrwt>
<pdfrwt beam="1">  1       21 0.78269108E-01 0.41245540E+03</pdfrwt>
<pdfrwt beam="2">  1       21 0.70977237E-01 0.41245540E+03</pdfrwt>
<totfact> 0.22802237E+03</totfact>
</mgrwt>
</event>
<event>
 6    1  0.9094387E-004  0.4453423E+03  0.7818608E-02  0.1029140E+00
         21   -1    0    0  501  502  0.00000000000E+00  0.00000000000E+00  0.50061916840E+03  0.50061916840E+03  0.00000000000E+00 0. -1.
         21   -1    0    0  502  503 -0.00000000000E+00 -0.00000000000E+00 -0.39640809067E+03  0.39640809067E+03  0.00000000000E+00 0. -1.
    9000007    2    1    2  501    0  0.12386604267E+03  0.15083248061E+03  0.36588792027E+02  0.44684284435E+03  0.40029558343E+03 0.  0.
    9000005    1    3    3    0    0  0.20955740980E+03  0.11848042036E+03 -0.11727419410E+03  0.26778004893E+03  0.99999687468E+00 0.  0.
          4    1    3    3  501    0 -0.85691367133E+02  0.32352060252E+02  0.15386298613E+03  0.17906279542E+03  0.00000000000E+00 0.  1.
   -9000007    1    1    2    0  503 -0.12386604267E+03 -0.15083248061E+03  0.67622285708E+02  0.45018441472E+03  0.40000000000E+03 0. -1.
<mgrwt>
<rscale>  2 0.44527590E+03</rscale>
<asrwt>0</asrwt>
<pdfrwt beam="1">  1       21 0.77018334E-01 0.44534233E+03</pdfrwt>
<pdfrwt beam="2">  1       21 0.60985860E-01 0.44534233E+03</pdfrwt>
<totfact> 0.32753042E+03</totfact>
</mgrwt>
</event>
<event>
 6    1  0.9094387E-004  0.4722224E+03  0.7818608E-02  0.1021337E+00
         21   -1    0    0  501  502  0.00000000000E+00  0.00000000000E+00  0.18891033021E+03  0.18891033021E+03  0.00000000000E+00 0. -1.
         21   -1    0    0  502  503 -0.00000000000E+00 -0.00000000000E+00 -0.15729320050E+04  0.15729320050E+04  0.00000000000E+00 0. -1.
    9000007    2    1    2  501    0  0.23025546072E+03 -0.96966910751E+02 -0.25143900903E+03  0.53499122210E+03  0.40071669978E+03 0.  0.
    9000005    1    3    3    0    0  0.10103580790E+03  0.12846165311E+03  0.13382905543E+02  0.16398394115E+03  0.99999687468E+00 0.  0.
          4    1    3    3  501    0  0.12921965281E+03 -0.22542856386E+03 -0.26482191458E+03  0.37100728095E+03  0.00000000000E+00 0.  1.
   -9000007    1    1    2    0  503 -0.23025546072E+03  0.96966910751E+02 -0.11325826658E+04  0.12268511131E+04  0.40000000000E+03 0.  1.
<mgrwt>
<rscale>  2 0.47207036E+03</rscale>
<asrwt>0</asrwt>
<pdfrwt beam="1">  1       21 0.29063128E-01 0.47222244E+03</pdfrwt>
<pdfrwt beam="2">  1       21 0.24198953E+00 0.47222244E+03</pdfrwt>
<totfact> 0.67966408E+02</totfact>
</mgrwt>
</event>
<event>
 6    1  0.9094387E-004  0.4497846E+03  0.7818608E-02  0.1027865E+00
         21   -1    0    0  501  502  0.00000000000E+00  0.00000000000E+00  0.47847294328E+03  0.47847294328E+03  0.00000000000E+00 0. -1.
         21   -1    0    0  502  503 -0.00000000000E+00 -0.00000000000E+00 -0.60397343465E+03  0.60397343465E+03  0.00000000000E+00 0. -1.
    9000007    2    1    2  501    0 -0.14511455676E+03  0.14246526595E+03  0.23442242579E+03  0.50720808567E+03  0.40118771401E+03 0.  0.
    9000005    1    3    3    0    0 -0.26827359424E+03  0.17440561237E+03  0.14270188444E+03  0.35036105208E+03  0.99999687468E+00 0.  0.
          4    1    3    3  501    0  0.12315903748E+03 -0.31940346418E+02  0.91720541347E+02  0.15684703360E+03  0.00000000000E+00 0.  1.
   -9000007    1    1    2    0  503  0.14511455676E+03 -0.14246526595E+03 -0.35992291716E+03  0.57523829226E+03  0.40000000000E+03 0. -1.
<mgrwt>
<rscale>  2 0.44951958E+03</rscale>
<asrwt>0</asrwt>
<pdfrwt beam="1">  1       21 0.73611222E-01 0.44978458E+03</pdfrwt>
<pdfrwt beam="2">  1       21 0.92918989E-01 0.44978458E+03</pdfrwt>
<totfact> 0.13848955E+03</totfact>
</mgrwt>
</event>
<event>
 6    1  0.9094387E-004  0.4094164E+03  0.7818608E-02  0.1040820E+00
         21   -1    0    0  501  502  0.00000000000E+00  0.00000000000E+00  0.51211651087E+03  0.51211651087E+03  0.00000000000E+00 0. -1.
         21   -1    0    0  502  503 -0.00000000000E+00 -0.00000000000E+00 -0.52600859764E+03  0.52600859764E+03  0.00000000000E+00 0. -1.
    9000007    2    1    2  501    0 -0.69098833948E+02 -0.20015728034E+02  0.31397273172E+03  0.51594638679E+03  0.40304654763E+03 0.  0.
    9000005    1    3    3    0    0  0.33501741450E+02  0.18073775735E+03  0.14785008143E+03  0.23590072103E+03  0.99999687468E+00 0.  0.
          4    1    3    3  501    0 -0.10260057540E+03 -0.20075348539E+03  0.16612265029E+03  0.28004566575E+03  0.00000000000E+00 0.  1.
   -9000007    1    1    2    0  503  0.69098833948E+02  0.20015728034E+02 -0.32786481849E+03  0.52217872173E+03  0.40000000000E+03 0. -1.
<mgrwt>
<rscale>  2 0.40866464E+03</rscale>
<asrwt>0</asrwt>
<pdfrwt beam="1">  1       21 0.78787156E-01 0.40941641E+03</pdfrwt>
<pdfrwt beam="2">  1       21 0.80924399E-01 0.40941641E+03</pdfrwt>
<totfact> 0.16672603E+03</totfact>
</mgrwt>
</event>
<event>
 6    1  0.9094387E-004  0.5479754E+03  0.7818608E-02  0.1001978E+00
         21   -1    0    0  501  502  0.00000000000E+00  0.00000000000E+00  0.73381539677E+03  0.73381539677E+03  0.00000000000E+00 0. -1.
         21   -1    0    0  502  503 -0.00000000000E+00 -0.00000000000E+00 -0.65264120322E+03  0.65264120322E+03  0.00000000000E+00 0. -1.
    9000007    2    1    2  501    0  0.36646049014E+03 -0.77354619893E+02  0.46413178814E+03  0.71792571267E+03  0.39965232903E+03 0.  0.
    9000005    1    3    3    0    0  0.34994869476E+03 -0.24308061966E+02  0.52760071864E+03  0.63357595373E+03  0.99999687468E+00 0.  0.
          4    1    3    3  501    0  0.16511795377E+02 -0.53046557927E+02 -0.63468930501E+02  0.84349758941E+02  0.00000000000E+00 0.  1.
   -9000007    1    1    2    0  503 -0.36646049014E+03  0.77354619893E+02 -0.38295759459E+03  0.66853088732E+03  0.40000000000E+03 0. -1.
<mgrwt>
<rscale>  2 0.54791195E+03</rscale>
<asrwt>0</asrwt>
<pdfrwt beam="1">  1       21 0.11289468E+00 0.54797539E+03</pdfrwt>
<pdfrwt beam="2">  1       21 0.10040634E+00 0.54797539E+03</pdfrwt>
<totfact> 0.39869365E+02</totfact>
</mgrwt>
</event>
<event>
 6    1  0.9094387E-004  0.4065050E+03  0.7818608E-02  0.1041571E+00
         21   -1    0    0  501  502  0.00000000000E+00  0.00000000000E+00  0.72914839730E+03  0.72914839730E+03  0.00000000000E+00 0.  1.
         21   -1    0    0  502  503 -0.00000000000E+00 -0.00000000000E+00 -0.24260184618E+03  0.24260184618E+03  0.00000000000E+00 0.  1.
    9000007    2    1    2  501    0 -0.72342608785E+02 -0.35907056081E+01  0.36840830424E+03  0.54842650024E+03  0.39975067394E+03 0.  0.
    9000005    1    3    3    0    0 -0.91943781532E+02  0.15909708678E+03  0.50177171911E+02  0.19048435778E+03  0.99999687468E+00 0.  0.
          4    1    3    3  501    0  0.19601172747E+02 -0.16268779239E+03  0.31823113233E+03  0.35794214246E+03  0.00000000000E+00 0.  1.
   -9000007    1    1    2    0  503  0.72342608785E+02  0.35907056081E+01  0.11813824687E+03  0.42332374324E+03  0.40000000000E+03 0.  1.
<mgrwt>
<rscale>  2 0.40644369E+03</rscale>
<asrwt>0</asrwt>
<pdfrwt beam="1">  1       21 0.11217668E+00 0.40650504E+03</pdfrwt>
<pdfrwt beam="2">  1       21 0.37323361E-01 0.40650504E+03</pdfrwt>
<totfact> 0.38211193E+03</totfact>
</mgrwt>
</event>
<event>
 6    1  0.9094387E-004  0.4293702E+03  0.7818608E-02  0.1034359E+00
         21   -1    0    0  501  502  0.00000000000E+00  0.00000000000E+00  0.43271992117E+03  0.43271992117E+03  0.00000000000E+00 0. -1.
         21   -1    0    0  502  503 -0.00000000000E+00 -0.00000000000E+00 -0.76450815225E+03  0.76450815225E+03  0.00000000000E+00 0. -1.
    9000007    2    1    2  501    0 -0.13497961781E+03 -0.53990201966E+02  0.23419076032E+03  0.48908496793E+03  0.40401033959E+03 0.  0.
    9000005    1    3    3    0    0 -0.81586306853E+02 -0.20052361601E+03  0.25187616214E+03  0.33212745609E+03  0.99999687468E+00 0.  0.
          4    1    3    3  501    0 -0.53393310960E+02  0.14653341404E+03 -0.17685401812E+02  0.15695751184E+03  0.00000000000E+00 0.  1.
   -9000007    1    1    2    0  503  0.13497961781E+03  0.53990201966E+02 -0.56597899141E+03  0.70814310549E+03  0.40000000000E+03 0. -1.
<mgrwt>
<rscale>  2 0.42842428E+03</rscale>
<asrwt>0</asrwt>
<pdfrwt beam="1">  1       21 0.66572296E-01 0.42937023E+03</pdfrwt>
<pdfrwt beam="2">  1       21 0.11761664E+00 0.42937023E+03</pdfrwt>
<totfact> 0.98265443E+02</totfact>
</mgrwt>
</event>
<event>
 6    1  0.9094387E-004  0.5959872E+03  0.7818608E-02  0.9913840E-01
         21   -1    0    0  501  502  0.00000000000E+00  0.00000000000E+00  0.18914114112E+03  0.18914114112E+03  0.00000000000E+00 0.  1.
         21   -1    0    0  502  503 -0.00000000000E+00 -0.00000000000E+00 -0.22529341800E+04  0.22529341800E+04  0.00000000000E+00 0. -1.
    9000007    2    1    2  501    0 -0.41908030120E+03 -0.13930516382E+03 -0.15304299388E+04  0.16423813646E+04  0.40020809815E+03 0.  0.
    9000005    1    3    3    0    0 -0.38979798817E+03 -0.97038948435E+02 -0.15387284945E+04  0.15902972706E+04  0.99999687468E+00 0.  0.
          4    1    3    3  501    0 -0.29282313032E+02 -0.42266215388E+02  0.82985557519E+01  0.52084093995E+02  0.00000000000E+00 0.  1.
   -9000007    1    1    2    0  503  0.41908030120E+03  0.13930516382E+03 -0.53336310012E+03  0.79969395651E+03  0.40000000000E+03 0.  1.
<mgrwt>
<rscale>  2 0.59595227E+03</rscale>
<asrwt>0</asrwt>
<pdfrwt beam="1">  1       21 0.29098637E-01 0.59598721E+03</pdfrwt>
<pdfrwt beam="2">  1       21 0.34660526E+00 0.59598721E+03</pdfrwt>
<totfact> 0.14668103E+02</totfact>
</mgrwt>
</event>
<event>
 6    1  0.9094387E-004  0.4469662E+03  0.7818608E-02  0.1028662E+00
         21   -1    0    0  501  502  0.00000000000E+00  0.00000000000E+00  0.50785522199E+03  0.50785522199E+03  0.00000000000E+00 0.  1.
         21   -1    0    0  502  503 -0.00000000000E+00 -0.00000000000E+00 -0.46922251843E+03  0.46922251843E+03  0.00000000000E+00 0. -1.
    9000007    2    1    2  501    0  0.19800853500E+03  0.14243437566E+02  0.21620764906E+03  0.49651232685E+03  0.40046034480E+03 0.  0.
    9000005    1    3    3    0    0 -0.87101613289E+02 -0.10549348779E+03  0.81216515646E+02  0.15909962103E+03  0.99999687468E+00 0.  0.
          4    1    3    3  501    0  0.28511014829E+03  0.11973692536E+03  0.13499113341E+03  0.33741270583E+03  0.00000000000E+00 0.  1.
   -9000007    1    1    2    0  503 -0.19800853500E+03 -0.14243437566E+02 -0.17757494550E+03  0.48056541357E+03  0.40000000000E+03 0. -1.
<mgrwt>
<rscale>  2 0.44686302E+03</rscale>
<asrwt>0</asrwt>
<pdfrwt beam="1">  1       21 0.78131573E-01 0.44696615E+03</pdfrwt>
<pdfrwt beam="2">  1       21 0.72188079E-01 0.44696615E+03</pdfrwt>
<totfact> 0.21744808E+03</totfact>
</mgrwt>
</event>
<event>
 6    1  0.9094387E-004  0.4708947E+03  0.7818608E-02  0.1021670E+00
         21   -1    0    0  501  502  0.00000000000E+00  0.00000000000E+00  0.29051965301E+03  0.29051965301E+03  0.00000000000E+00 0. -1.
         21   -1    0    0  502  503 -0.00000000000E+00 -0.00000000000E+00 -0.76821500536E+03  0.76821500536E+03  0.00000000000E+00 0. -1.
    9000007    2    1    2  501    0 -0.17909271625E+03  0.17216194118E+03 -0.28157848465E+03  0.54866038849E+03  0.40003480333E+03 0.  0.
    9000005    1    3    3    0    0 -0.10180929587E+03  0.28699084396E+03 -0.27464514516E+03  0.41007296058E+03  0.99999687468E+00 0.  0.
          4    1    3    3  501    0 -0.77283420374E+02 -0.11482890278E+03 -0.69333394930E+01  0.13858742791E+03  0.00000000000E+00 0.  1.
   -9000007    1    1    2    0  503  0.17909271625E+03 -0.17216194118E+03 -0.19611686770E+03  0.51007426989E+03  0.40000000000E+03 0. -1.
<mgrwt>
<rscale>  2 0.47088727E+03</rscale>
<asrwt>0</asrwt>
<pdfrwt beam="1">  1       21 0.44695331E-01 0.47089466E+03</pdfrwt>
<pdfrwt beam="2">  1       21 0.11818692E+00 0.47089466E+03</pdfrwt>
<totfact> 0.22564797E+03</totfact>
</mgrwt>
</event>
<event>
 6    1  0.9094387E-004  0.5448927E+03  0.7818608E-02  0.1002686E+00
         21   -1    0    0  501  502  0.00000000000E+00  0.00000000000E+00  0.52581358619E+03  0.52581358619E+03  0.00000000000E+00 0.  1.
         21   -1    0    0  502  503 -0.00000000000E+00 -0.00000000000E+00 -0.59193791549E+03  0.59193791549E+03  0.00000000000E+00 0.  1.
    9000007    2    1    2  501    0 -0.10687240433E+03  0.35415071558E+03  0.87032864929E+02  0.55179959003E+03  0.40007952688E+03 0.  0.
    9000005    1    3    3    0    0 -0.17329179302E+03  0.91471169327E+02  0.17926760745E+03  0.26558406470E+03  0.99999687468E+00 0.  0.
          4    1    3    3  501    0  0.66419388695E+02  0.26267954625E+03 -0.92234742523E+02  0.28621552533E+03  0.00000000000E+00 0.  1.
   -9000007    1    1    2    0  503  0.10687240433E+03 -0.35415071558E+03 -0.15315719423E+03  0.56595191165E+03  0.40000000000E+03 0.  1.
<mgrwt>
<rscale>  2 0.54487811E+03</rscale>
<asrwt>0</asrwt>
<pdfrwt beam="1">  1       21 0.80894398E-01 0.54489271E+03</pdfrwt>
<pdfrwt beam="2">  1       21 0.91067372E-01 0.54489271E+03</pdfrwt>
<totfact> 0.11302746E+03</totfact>
</mgrwt>
</event>
<event>
 6    1  0.9094387E-004  0.5443982E+03  0.7818608E-02  0.1002861E+00
         21   -1    0    0  501  502  0.00000000000E+00  0.00000000000E+00  0.16213182987E+04  0.16213182987E+04  0.00000000000E+00 0.  1.
         21   -1    0    0  502  503 -0.00000000000E+00 -0.00000000000E+00 -0.18512838194E+03  0.18512838194E+03  0.00000000000E+00 0. -1.
    9000007    2    1    2  501    0  0.29667503672E+03 -0.21989396882E+03  0.60862733157E+03  0.81587650780E+03  0.39856970822E+03 0.  0.
    9000005    1    3    3    0    0  0.38341518431E+03 -0.11742818009E+03  0.39033644114E+03  0.55960711067E+03  0.99999687468E+00 0.  0.
          4    1    3    3  501    0 -0.86740147584E+02 -0.10246578872E+03  0.21829089044E+03  0.25626939714E+03  0.00000000000E+00 0.  1.
   -9000007    1    1    2    0  503 -0.29667503672E+03  0.21989396882E+03  0.82756258521E+03  0.99057017287E+03  0.40000000000E+03 0.  1.
<mgrwt>
<rscale>  2 0.54413553E+03</rscale>
<asrwt>0</asrwt>
<pdfrwt beam="1">  1       21 0.24943357E+00 0.54439823E+03</pdfrwt>
<pdfrwt beam="2">  1       21 0.28481291E-01 0.54439823E+03</pdfrwt>
<totfact> 0.61580160E+02</totfact>
</mgrwt>
</event>
<event>
 6    1  0.9094387E-004  0.4238557E+03  0.7818608E-02  0.1035867E+00
         21   -1    0    0  501  502  0.00000000000E+00  0.00000000000E+00  0.44250606902E+03  0.44250606902E+03  0.00000000000E+00 0.  1.
         21   -1    0    0  502  503 -0.00000000000E+00 -0.00000000000E+00 -0.73935303138E+03  0.73935303138E+03  0.00000000000E+00 0.  1.
    9000007    2    1    2  501    0  0.10597258816E+03 -0.91779663444E+02  0.24877089213E+03  0.49095205947E+03  0.39936608752E+03 0.  0.
    9000005    1    3    3    0    0  0.24028554218E+02  0.15401419447E+03  0.14151573392E+03  0.21053609300E+03  0.99999687468E+00 0.  0.
          4    1    3    3  501    0  0.81944033943E+02 -0.24579385791E+03  0.10725515821E+03  0.28041596647E+03  0.00000000000E+00 0.  1.
   -9000007    1    1    2    0  503 -0.10597258816E+03  0.91779663444E+02 -0.54561785449E+03  0.69090704093E+03  0.40000000000E+03 0.  1.
<mgrwt>
<rscale>  2 0.42370612E+03</rscale>
<asrwt>0</asrwt>
<pdfrwt beam="1">  1       21 0.68077857E-01 0.42385575E+03</pdfrwt>
<pdfrwt beam="2">  1       21 0.11374662E+00 0.42385575E+03</pdfrwt>
<totfact> 0.10187844E+03</totfact>
</mgrwt>
</event>
<event>
 6    1  0.9094387E-004  0.5675820E+03  0.7818608E-02  0.9975317E-01
         21   -1    0    0  501  502  0.00000000000E+00  0.00000000000E+00  0.76150537873E+03  0.76150537873E+03  0.00000000000E+00 0.  1.
         21   -1    0    0  502  503 -0.00000000000E+00 -0.00000000000E+00 -0.43427063242E+03  0.43427063242E+03  0.00000000000E+00 0. -1.
    9000007    2    1    2  501    0 -0.28465744796E+03 -0.28383545151E+03  0.65996618076E+02  0.57140610007E+03  0.40069558444E+03 0.  0.
    9000005    1    3    3    0    0  0.90994688796E+02 -0.16291675672E+02  0.59940428682E+02  0.11017852363E+03  0.99999687468E+00 0.  0.
          4    1    3    3  501    0 -0.37565213676E+03 -0.26754377584E+03  0.60561893939E+01  0.46122757644E+03  0.00000000000E+00 0.  1.
   -9000007    1    1    2    0  503  0.28465744796E+03  0.28383545151E+03  0.26123812824E+03  0.62436991108E+03  0.40000000000E+03 0. -1.
<mgrwt>
<rscale>  2 0.56745929E+03</rscale>
<asrwt>0</asrwt>
<pdfrwt beam="1">  1       21 0.11715467E+00 0.56758204E+03</pdfrwt>
<pdfrwt beam="2">  1       21 0.66810866E-01 0.56758204E+03</pdfrwt>
<totfact> 0.93446973E+02</totfact>
</mgrwt>
</event>
<event>
 6    1  0.9094387E-004  0.5627052E+03  0.7818608E-02  0.9985991E-01
         21   -1    0    0  501  502  0.00000000000E+00  0.00000000000E+00  0.12109088973E+04  0.12109088973E+04  0.00000000000E+00 0. -1.
         21   -1    0    0  502  503 -0.00000000000E+00 -0.00000000000E+00 -0.27542934286E+03  0.27542934286E+03  0.00000000000E+00 0.  1.
    9000007    2    1    2  501    0  0.38941278224E+03 -0.70114550245E+02  0.30036810805E+03  0.63785434845E+03  0.40009849334E+03 0.  0.
    9000005    1    3    3    0    0  0.42558949512E+03  0.52310092213E+02  0.26971823419E+03  0.50656854418E+03  0.99999687468E+00 0.  0.
          4    1    3    3  501    0 -0.36176712872E+02 -0.12242464246E+03  0.30649873857E+02  0.13128580427E+03  0.00000000000E+00 0.  1.
   -9000007    1    1    2    0  503 -0.38941278224E+03  0.70114550245E+02  0.63511144636E+03  0.84848389167E+03  0.40000000000E+03 0. -1.
<mgrwt>
<rscale>  2 0.56268772E+03</rscale>
<asrwt>0</asrwt>
<pdfrwt beam="1">  1       21 0.18629367E+00 0.56270522E+03</pdfrwt>
<pdfrwt beam="2">  1       21 0.42373746E-01 0.56270522E+03</pdfrwt>
<totfact> 0.70304129E+02</totfact>
</mgrwt>
</event>
<event>
 6    1  0.9094387E-004  0.4919598E+03  0.7818608E-02  0.1015902E+00
         21   -1    0    0  501  502  0.00000000000E+00  0.00000000000E+00  0.10843283374E+04  0.10843283374E+04  0.00000000000E+00 0.  1.
         21   -1    0    0  502  503 -0.00000000000E+00 -0.00000000000E+00 -0.53923701202E+03  0.53923701202E+03  0.00000000000E+00 0. -1.
    9000007    2    1    2  501    0  0.28603961873E+03  0.12938554576E+02  0.89403357360E+03  0.10204511295E+04  0.40004800614E+03 0.  0.
    9000005    1    3    3    0    0  0.33012077348E+03  0.13281622501E+03  0.73391463507E+03  0.81562955211E+03  0.99999687468E+00 0.  0.
          4    1    3    3  501    0 -0.44081154749E+02 -0.11987767044E+03  0.16011893853E+03  0.20482157736E+03  0.00000000000E+00 0.  1.
   -9000007    1    1    2    0  503 -0.28603961873E+03 -0.12938554576E+02 -0.34894224825E+03  0.60311421994E+03  0.40000000000E+03 0. -1.
<mgrwt>
<rscale>  2 0.49195007E+03</rscale>
<asrwt>0</asrwt>
<pdfrwt beam="1">  1       21 0.16681974E+00 0.49195983E+03</pdfrwt>
<pdfrwt beam="2">  1       21 0.82959540E-01 0.49195983E+03</pdfrwt>
<totfact> 0.22776948E+02</totfact>
</mgrwt>
</event>
<event>
 6    1  0.9094387E-004  0.5001803E+03  0.7818608E-02  0.1013815E+00
         21   -1    0    0  501  502  0.00000000000E+00  0.00000000000E+00  0.12091546955E+04  0.12091546955E+04  0.00000000000E+00 0.  1.
         21   -1    0    0  502  503 -0.00000000000E+00 -0.00000000000E+00 -0.22787690091E+03  0.22787690091E+03  0.00000000000E+00 0. -1.
    9000007    2    1    2  501    0 -0.19928267492E+03 -0.22464806156E+03  0.71075843705E+03  0.86838314712E+03  0.39841109207E+03 0.  0.
    9000005    1    3    3    0    0 -0.42901290083E+02  0.14767157090E+02 -0.42805294750E+02  0.62384957094E+02  0.99999687468E+00 0.  0.
          4    1    3    3  501    0 -0.15638138484E+03 -0.23941521865E+03  0.75356373180E+03  0.80599819002E+03  0.00000000000E+00 0.  1.
   -9000007    1    1    2    0  503  0.19928267492E+03  0.22464806156E+03  0.27051935757E+03  0.56864844932E+03  0.40000000000E+03 0. -1.
<mgrwt>
<rscale>  2 0.49986256E+03</rscale>
<asrwt>0</asrwt>
<pdfrwt beam="1">  1       21 0.18602379E+00 0.50018030E+03</pdfrwt>
<pdfrwt beam="2">  1       21 0.35057986E-01 0.50018030E+03</pdfrwt>
<totfact> 0.10677612E+03</totfact>
</mgrwt>
</event>
<event>
 6    1  0.9094387E-004  0.4983964E+03  0.7818608E-02  0.1014256E+00
         21   -1    0    0  501  502  0.00000000000E+00  0.00000000000E+00  0.29073787267E+03  0.29073787267E+03  0.00000000000E+00 0. -1.
         21   -1    0    0  502  503 -0.00000000000E+00 -0.00000000000E+00 -0.11988095438E+04  0.11988095438E+04  0.00000000000E+00 0.  1.
    9000007    2    1    2  501    0 -0.27882104870E+03  0.10323663632E+03 -0.53671491637E+02  0.50040705888E+03  0.39890802860E+03 0.  0.
    9000005    1    3    3    0    0 -0.28931371330E+03  0.36801099031E+02  0.11908287106E+03  0.31502138938E+03  0.99999687468E+00 0.  0.
          4    1    3    3  501    0  0.10492664600E+02  0.66435537286E+02 -0.17275436269E+03  0.18538566949E+03  0.00000000000E+00 0.  1.
   -9000007    1    1    2    0  503  0.27882104870E+03 -0.10323663632E+03 -0.85440017947E+03  0.98914035756E+03  0.40000000000E+03 0.  1.
<mgrwt>
<rscale>  2 0.49817727E+03</rscale>
<asrwt>0</asrwt>
<pdfrwt beam="1">  1       21 0.44728904E-01 0.49839641E+03</pdfrwt>
<pdfrwt beam="2">  1       21 0.18443224E+00 0.49839641E+03</pdfrwt>
<totfact> 0.66326148E+02</totfact>
</mgrwt>
</event>
<event>
 6    1  0.9094387E-004  0.4689313E+03  0.7818608E-02  0.1022273E+00
         21   -1    0    0  501  502  0.00000000000E+00  0.00000000000E+00  0.87182836370E+03  0.87182836370E+03  0.00000000000E+00 0. -1.
         21   -1    0    0  502  503 -0.00000000000E+00 -0.00000000000E+00 -0.25184915458E+03  0.25184915458E+03  0.00000000000E+00 0. -1.
    9000007    2    1    2  501    0 -0.12839433878E+03 -0.20835417111E+03  0.31340439426E+03  0.56342339384E+03  0.39915791303E+03 0.  0.
    9000005    1    3    3    0    0  0.74816009804E+02 -0.14354924030E+03  0.31043786057E+03  0.35010924721E+03  0.99999687468E+00 0.  0.
          4    1    3    3  501    0 -0.20321034858E+03 -0.64804930816E+02  0.29665336901E+01  0.21331414663E+03  0.00000000000E+00 0.  1.
   -9000007    1    1    2    0  503  0.12839433878E+03  0.20835417111E+03  0.30657481486E+03  0.56025412444E+03  0.40000000000E+03 0. -1.
<mgrwt>
<rscale>  2 0.46875168E+03</rscale>
<asrwt>0</asrwt>
<pdfrwt beam="1">  1       21 0.13412744E+00 0.46893130E+03</pdfrwt>
<pdfrwt beam="2">  1       21 0.38746024E-01 0.46893130E+03</pdfrwt>
<totfact> 0.21912226E+03</totfact>
</mgrwt>
</event>
<event>
 6    1  0.9094387E-004  0.8040135E+03  0.7818608E-02  0.9554233E-01
         21   -1    0    0  501  502  0.00000000000E+00  0.00000000000E+00  0.16164126166E+04  0.16164126166E+04  0.00000000000E+00 0.  1.
         21   -1    0    0  502  503 -0.00000000000E+00 -0.00000000000E+00 -0.98668379699E+03  0.98668379699E+03  0.00000000000E+00 0. -1.
    9000007    2    1    2  501    0  0.94789947859E+02 -0.69097937758E+03  0.13185683380E+04  0.15443530469E+04  0.39995779410E+03 0.  0.
    9000005    1    3    3    0    0  0.29523173344E+02 -0.56661364964E+03  0.12777998026E+04  0.13981044243E+04  0.99999687468E+00 0.  0.
          4    1    3    3  501    0  0.65266774515E+02 -0.12436572793E+03  0.40768535423E+02  0.14624862263E+03  0.00000000000E+00 0.  1.
   -9000007    1    1    2    0  503 -0.94789947859E+02  0.69097937758E+03 -0.68883951837E+03  0.10587433667E+04  0.40000000000E+03 0. -1.
<mgrwt>
<rscale>  2 0.80400820E+03</rscale>
<asrwt>0</asrwt>
<pdfrwt beam="1">  1       21 0.24867886E+00 0.80401345E+03</pdfrwt>
<pdfrwt beam="2">  1       21 0.15179751E+00 0.80401345E+03</pdfrwt>
<totfact> 0.12218751E+01</totfact>
</mgrwt>
</event>
<event>
 6    1  0.9094387E-004  0.4628965E+03  0.7818608E-02  0.1023961E+00
         21   -1    0    0  501  502  0.00000000000E+00  0.00000000000E+00  0.13710342921E+04  0.13710342921E+04  0.00000000000E+00 0.  1.
         21   -1    0    0  502  503 -0.00000000000E+00 -0.00000000000E+00 -0.37752862504E+03  0.37752862504E+03  0.00000000000E+00 0. -1.
    9000007    2    1    2  501    0 -0.14816808269E+03 -0.17919628683E+03  0.11662022951E+04  0.12547115070E+04  0.40026001887E+03 0.  0.
    9000005    1    3    3    0    0  0.47441943182E+01 -0.27700709821E+03  0.61856783225E+03  0.67777769432E+03  0.99999687468E+00 0.  0.
          4    1    3    3  501    0 -0.15291227701E+03  0.97810811378E+02  0.54763446287E+03  0.57693381267E+03  0.00000000000E+00 0.  1.
   -9000007    1    1    2    0  503  0.14816808269E+03  0.17919628683E+03 -0.17269662807E+03  0.49385141013E+03  0.40000000000E+03 0. -1.
<mgrwt>
<rscale>  2 0.46284029E+03</rscale>
<asrwt>0</asrwt>
<pdfrwt beam="1">  1       21 0.21092835E+00 0.46289650E+03</pdfrwt>
<pdfrwt beam="2">  1       21 0.58081328E-01 0.46289650E+03</pdfrwt>
<totfact> 0.25592241E+02</totfact>
</mgrwt>
</event>
<event>
 6    1  0.9094387E-004  0.5224533E+03  0.7818608E-02  0.1008099E+00
         21   -1    0    0  501  502  0.00000000000E+00  0.00000000000E+00  0.43725909660E+03  0.43725909660E+03  0.00000000000E+00 0. -1.
         21   -1    0    0  502  503 -0.00000000000E+00 -0.00000000000E+00 -0.73214001252E+03  0.73214001252E+03  0.00000000000E+00 0. -1.
    9000007    2    1    2  501    0  0.16655452047E+03  0.29134660546E+03  0.77375442490E+02  0.52815184856E+03  0.40041748618E+03 0.  0.
    9000005    1    3    3    0    0  0.23083205328E+03  0.33177114295E+03 -0.20002109085E+02  0.40466852173E+03  0.99999687468E+00 0.  0.
          4    1    3    3  501    0 -0.64277532816E+02 -0.40424537485E+02  0.97377551575E+02  0.12348332684E+03  0.00000000000E+00 0.  1.
   -9000007    1    1    2    0  503 -0.16655452047E+03 -0.29134660546E+03 -0.37225635840E+03  0.64124726056E+03  0.40000000000E+03 0. -1.
<mgrwt>
<rscale>  2 0.52237327E+03</rscale>
<asrwt>0</asrwt>
<pdfrwt beam="1">  1       21 0.67270631E-01 0.52245327E+03</pdfrwt>
<pdfrwt beam="2">  1       21 0.11263692E+00 0.52245327E+03</pdfrwt>
<totfact> 0.10314612E+03</totfact>
</mgrwt>
</event>
<event>
 6    1  0.9094387E-004  0.4185327E+03  0.7818608E-02  0.1037621E+00
         21   -1    0    0  501  502  0.00000000000E+00  0.00000000000E+00  0.79035704012E+03  0.79035704012E+03  0.00000000000E+00 0. -1.
         21   -1    0    0  502  503 -0.00000000000E+00 -0.00000000000E+00 -0.32464686889E+03  0.32464686889E+03  0.00000000000E+00 0. -1.
    9000007    2    1    2  501    0 -0.76862641314E+02 -0.92086521977E+02  0.54782758430E+03  0.68940895757E+03  0.40097612834E+03 0.  0.
    9000005    1    3    3    0    0  0.49873502554E+02  0.26130728158E+00  0.52914072832E+03  0.53148691884E+03  0.99999687468E+00 0.  0.
          4    1    3    3  501    0 -0.12673614387E+03 -0.92347829259E+02  0.18686855983E+02  0.15792203873E+03  0.00000000000E+00 0.  1.
   -9000007    1    1    2    0  503  0.76862641314E+02  0.92086521977E+02 -0.82117413063E+02  0.42559495144E+03  0.40000000000E+03 0. -1.
<mgrwt>
<rscale>  2 0.41829876E+03</rscale>
<asrwt>0</asrwt>
<pdfrwt beam="1">  1       21 0.12159339E+00 0.41853273E+03</pdfrwt>
<pdfrwt beam="2">  1       21 0.49945672E-01 0.41853273E+03</pdfrwt>
<totfact> 0.16949346E+03</totfact>
</mgrwt>
</event>
<event>
 6    1  0.9094387E-004  0.4880787E+03  0.7818608E-02  0.1016953E+00
         21   -1    0    0  501  502  0.00000000000E+00  0.00000000000E+00  0.53229349610E+03  0.53229349610E+03  0.00000000000E+00 0.  1.
         21   -1    0    0  502  503 -0.00000000000E+00 -0.00000000000E+00 -0.85592870885E+03  0.85592870885E+03  0.00000000000E+00 0. -1.
    9000007    2    1    2  501    0 -0.65573262330E+02  0.27188418318E+03  0.31777722646E+03  0.58222544381E+03  0.39972895814E+03 0.  0.
    9000005    1    3    3    0    0 -0.31758100498E+02 -0.10094804829E+03  0.29895026917E+02  0.10997180560E+03  0.99999687468E+00 0.  0.
          4    1    3    3  501    0 -0.33815161831E+02  0.37283223146E+03  0.28788219955E+03  0.47225363821E+03  0.00000000000E+00 0.  1.
   -9000007    1    1    2    0  503  0.65573262330E+02 -0.27188418318E+03 -0.64141243920E+03  0.80599676113E+03  0.40000000000E+03 0. -1.
<mgrwt>
<rscale>  2 0.48802321E+03</rscale>
<asrwt>0</asrwt>
<pdfrwt beam="1">  1       21 0.81891307E-01 0.48807875E+03</pdfrwt>
<pdfrwt beam="2">  1       21 0.13168134E+00 0.48807875E+03</pdfrwt>
<totfact> 0.44731966E+02</totfact>
</mgrwt>
</event>
<event>
 6    1  0.9094387E-004  0.4607083E+03  0.7818608E-02  0.1024601E+00
         21   -1    0    0  501  502  0.00000000000E+00  0.00000000000E+00  0.18574590737E+03  0.18574590737E+03  0.00000000000E+00 0.  1.
         21   -1    0    0  502  503 -0.00000000000E+00 -0.00000000000E+00 -0.11476230827E+04  0.11476230827E+04  0.00000000000E+00 0.  1.
    9000007    2    1    2  501    0 -0.22579815033E+03 -0.35599723248E+02 -0.52807272530E+03  0.70056693108E+03  0.39960114705E+03 0.  0.
    9000005    1    3    3    0    0 -0.29493641546E+03  0.61976964387E+02 -0.22912399597E+03  0.37858610487E+03  0.99999687468E+00 0.  0.
          4    1    3    3  501    0  0.69138265131E+02 -0.97576687635E+02 -0.29894872933E+03  0.32198082621E+03  0.00000000000E+00 0.  1.
   -9000007    1    1    2    0  503  0.22579815033E+03  0.35599723248E+02 -0.43380445003E+03  0.63280205898E+03  0.40000000000E+03 0.  1.
<mgrwt>
<rscale>  2 0.46062172E+03</rscale>
<asrwt>0</asrwt>
<pdfrwt beam="1">  1       21 0.28576294E-01 0.46070831E+03</pdfrwt>
<pdfrwt beam="2">  1       21 0.17655739E+00 0.46070831E+03</pdfrwt>
<totfact> 0.19046740E+03</totfact>
</mgrwt>
</event>
<event>
 6    1  0.9094387E-004  0.4475865E+03  0.7818608E-02  0.1028475E+00
         21   -1    0    0  501  502  0.00000000000E+00  0.00000000000E+00  0.36091870477E+03  0.36091870477E+03  0.00000000000E+00 0. -1.
         21   -1    0    0  502  503 -0.00000000000E+00 -0.00000000000E+00 -0.91956311410E+03  0.91956311410E+03  0.00000000000E+00 0. -1.
    9000007    2    1    2  501    0  0.82246856488E+02 -0.18321884168E+03  0.12412543051E+03  0.46408219641E+03  0.39953907590E+03 0.  0.
    9000005    1    3    3    0    0  0.12999221641E+03 -0.25875907459E+03  0.19577025261E+03  0.34954431308E+03  0.99999687468E+00 0.  0.
          4    1    3    3  501    0 -0.47745359919E+02  0.75540232910E+02 -0.71644822100E+02  0.11453788332E+03  0.00000000000E+00 0.  1.
   -9000007    1    1    2    0  503 -0.82246856488E+02  0.18321884168E+03 -0.68276983985E+03  0.81639962246E+03  0.40000000000E+03 0. -1.
<mgrwt>
<rscale>  2 0.44748351E+03</rscale>
<asrwt>0</asrwt>
<pdfrwt beam="1">  1       21 0.55525954E-01 0.44758652E+03</pdfrwt>
<pdfrwt beam="2">  1       21 0.14147125E+00 0.44758652E+03</pdfrwt>
<totfact> 0.89974851E+02</totfact>
</mgrwt>
</event>
<event>
 6    1  0.9094387E-004  0.4081253E+03  0.7818608E-02  0.1041100E+00
         21   -1    0    0  501  502  0.00000000000E+00  0.00000000000E+00  0.48299905742E+03  0.48299905742E+03  0.00000000000E+00 0. -1.
         21   -1    0    0  502  503 -0.00000000000E+00 -0.00000000000E+00 -0.46290825552E+03  0.46290825552E+03  0.00000000000E+00 0. -1.
    9000007    2    1    2  501    0 -0.39568321503E+01 -0.80935601446E+02  0.24985876922E+03  0.47754895985E+03  0.39881997994E+03 0.  0.
    9000005    1    3    3    0    0  0.13253229123E+03  0.10127393659E+03  0.16490209933E+03  0.23455259711E+03  0.99999687468E+00 0.  0.
          4    1    3    3  501    0 -0.13648912338E+03 -0.18220953803E+03  0.84956669886E+02  0.24299636275E+03  0.00000000000E+00 0.  1.
   -9000007    1    1    2    0  503  0.39568321503E+01  0.80935601446E+02 -0.22976796732E+03  0.46835835309E+03  0.40000000000E+03 0. -1.
<mgrwt>
<rscale>  2 0.40783584E+03</rscale>
<asrwt>0</asrwt>
<pdfrwt beam="1">  1       21 0.74307547E-01 0.40812526E+03</pdfrwt>
<pdfrwt beam="2">  1       21 0.71216655E-01 0.40812526E+03</pdfrwt>
<totfact> 0.25523998E+03</totfact>
</mgrwt>
</event>
<event>
 6    1  0.9094387E-004  0.4974346E+03  0.7818608E-02  0.1014462E+00
         21   -1    0    0  501  502  0.00000000000E+00  0.00000000000E+00  0.70696350102E+03  0.70696350102E+03  0.00000000000E+00 0. -1.
         21   -1    0    0  502  503 -0.00000000000E+00 -0.00000000000E+00 -0.35143672400E+03  0.35143672400E+03  0.00000000000E+00 0.  1.
    9000007    2    1    2  501    0  0.29564037500E+03  0.61583135332E+01  0.14260286879E+03  0.51731081758E+03  0.39979213054E+03 0.  0.
    9000005    1    3    3    0    0 -0.86671311312E+02  0.66864968068E+02  0.20204980328E+02  0.11131972594E+03  0.99999687468E+00 0.  0.
          4    1    3    3  501    0  0.38231168631E+03 -0.60706654535E+02  0.12239788846E+03  0.40599109164E+03  0.00000000000E+00 0.  1.
   -9000007    1    1    2    0  503 -0.29564037500E+03 -0.61583135332E+01  0.21292390823E+03  0.54108940744E+03  0.40000000000E+03 0. -1.
<mgrwt>
<rscale>  2 0.49739279E+03</rscale>
<asrwt>0</asrwt>
<pdfrwt beam="1">  1       21 0.10876361E+00 0.49743457E+03</pdfrwt>
<pdfrwt beam="2">  1       21 0.54067189E-01 0.49743457E+03</pdfrwt>
<totfact> 0.18358291E+03</totfact>
</mgrwt>
</event>
<event>
 6    1  0.9094387E-004  0.4392817E+03  0.7818608E-02  0.1031025E+00
         21   -1    0    0  501  502  0.00000000000E+00  0.00000000000E+00  0.36692560867E+03  0.36692560867E+03  0.00000000000E+00 0.  1.
         21   -1    0    0  502  503 -0.00000000000E+00 -0.00000000000E+00 -0.59983208910E+03  0.59983208910E+03  0.00000000000E+00 0.  1.
    9000007    2    1    2  501    0 -0.18143541931E+03  0.70449781212E+01  0.54356203697E+02  0.44188791127E+03  0.39917651002E+03 0.  0.
    9000005    1    3    3    0    0  0.12566053448E+03  0.32459002740E+02  0.26671436377E+02  0.13250102754E+03  0.99999687468E+00 0.  0.
          4    1    3    3  501    0 -0.30709595380E+03 -0.25414024619E+02  0.27684767320E+02  0.30938688373E+03  0.00000000000E+00 0.  1.
   -9000007    1    1    2    0  503  0.18143541931E+03 -0.70449781212E+01 -0.28726268412E+03  0.52486978651E+03  0.40000000000E+03 0.  1.
<mgrwt>
<rscale>  2 0.43909419E+03</rscale>
<asrwt>0</asrwt>
<pdfrwt beam="1">  1       21 0.56450094E-01 0.43928174E+03</pdfrwt>
<pdfrwt beam="2">  1       21 0.92281859E-01 0.43928174E+03</pdfrwt>
<totfact> 0.25474249E+03</totfact>
</mgrwt>
</event>
<event>
 6    1  0.9094387E-004  0.4170391E+03  0.7818608E-02  0.1038054E+00
         21   -1    0    0  501  502  0.00000000000E+00  0.00000000000E+00  0.10877641824E+03  0.10877641824E+03  0.00000000000E+00 0. -1.
         21   -1    0    0  502  503 -0.00000000000E+00 -0.00000000000E+00 -0.20952675089E+04  0.20952675089E+04  0.00000000000E+00 0. -1.
    9000007    2    1    2  501    0  0.11566785884E+03 -0.18387712730E+02 -0.45657606519E+03  0.61837146830E+03  0.40025542839E+03 0.  0.
    9000005    1    3    3    0    0  0.12116897631E+03 -0.65035626660E+02  0.20452928779E+02  0.13903552008E+03  0.99999687468E+00 0.  0.
          4    1    3    3  501    0 -0.55011174691E+01  0.46647913930E+02 -0.47702899397E+03  0.47933594821E+03  0.00000000000E+00 0.  1.
   -9000007    1    1    2    0  503 -0.11566785884E+03  0.18387712730E+02 -0.15299150255E+04  0.15856724589E+04  0.40000000000E+03 0. -1.
<mgrwt>
<rscale>  2 0.41697775E+03</rscale>
<asrwt>0</asrwt>
<pdfrwt beam="1">  1       21 0.16734836E-01 0.41703905E+03</pdfrwt>
<pdfrwt beam="2">  1       21 0.32234881E+00 0.41703905E+03</pdfrwt>
<totfact> 0.66056565E+02</totfact>
</mgrwt>
</event>
<event>
 6    1  0.9094387E-004  0.5826598E+03  0.7818608E-02  0.9942510E-01
         21   -1    0    0  501  502  0.00000000000E+00  0.00000000000E+00  0.58495001352E+03  0.58495001352E+03  0.00000000000E+00 0. -1.
         21   -1    0    0  502  503 -0.00000000000E+00 -0.00000000000E+00 -0.12686361056E+04  0.12686361056E+04  0.00000000000E+00 0.  1.
    9000007    2    1    2  501    0  0.33879690536E+03 -0.25241240809E+03  0.34110160924E+03  0.67516123836E+03  0.40124434340E+03 0.  0.
    9000005    1    3    3    0    0  0.38282020187E+03 -0.24575099881E+03  0.39694011171E+03  0.60374441004E+03  0.99999687468E+00 0.  0.
          4    1    3    3  501    0 -0.44023296511E+02 -0.66614092861E+01 -0.55838502465E+02  0.71416828317E+02  0.00000000000E+00 0.  1.
   -9000007    1    1    2    0  503 -0.33879690536E+03  0.25241240809E+03 -0.10247877014E+04  0.11784248808E+04  0.40000000000E+03 0.  1.
<mgrwt>
<rscale>  2 0.58244558E+03</rscale>
<asrwt>0</asrwt>
<pdfrwt beam="1">  1       21 0.89992311E-01 0.58265975E+03</pdfrwt>
<pdfrwt beam="2">  1       21 0.19517478E+00 0.58265975E+03</pdfrwt>
<totfact> 0.11373231E+02</totfact>
</mgrwt>
</event>
<event>
 6    1  0.9094387E-004  0.4072596E+03  0.7818608E-02  0.1041298E+00
         21   -1    0    0  501  502  0.00000000000E+00  0.00000000000E+00  0.98516343476E+03  0.98516343476E+03  0.00000000000E+00 0. -1.
         21   -1    0    0  502  503 -0.00000000000E+00 -0.00000000000E+00 -0.16837434071E+03  0.16837434071E+03  0.00000000000E+00 0.  1.
    9000007    2    1    2  501    0 -0.59075329049E+02 -0.48687802223E+02  0.40042439161E+03  0.57111184711E+03  0.39996081300E+03 0.  0.
    9000005    1    3    3    0    0  0.24460983578E+02  0.73747599020E+01  0.45563596310E+03  0.45635277764E+03  0.99999687468E+00 0.  0.
          4    1    3    3  501    0 -0.83536312627E+02 -0.56062562125E+02 -0.55211571491E+02  0.11475906947E+03  0.00000000000E+00 0.  1.
   -9000007    1    1    2    0  503  0.59075329049E+02  0.48687802223E+02  0.41636470244E+03  0.58242592836E+03  0.40000000000E+03 0. -1.
<mgrwt>
<rscale>  2 0.40725000E+03</rscale>
<asrwt>0</asrwt>
<pdfrwt beam="1">  1       21 0.15156360E+00 0.40725962E+03</pdfrwt>
<pdfrwt beam="2">  1       21 0.25903745E-01 0.40725962E+03</pdfrwt>
<totfact> 0.36213549E+03</totfact>
</mgrwt>
</event>
<event>
 6    1  0.9094387E-004  0.4496776E+03  0.7818608E-02  0.1027864E+00
         21   -1    0    0  501  502  0.00000000000E+00  0.00000000000E+00  0.37573303787E+03  0.37573303787E+03  0.00000000000E+00 0.  1.
         21   -1    0    0  502  503 -0.00000000000E+00 -0.00000000000E+00 -0.54103633404E+03  0.54103633404E+03  0.00000000000E+00 0.  1.
    9000007    2    1    2  501    0 -0.14833192299E+03 -0.14215337824E+03 -0.11999402050E+03  0.46481486890E+03  0.39930483978E+03 0.  0.
    9000005    1    3    3    0    0  0.13701137346E+03 -0.19212220590E+02 -0.36244583445E+02  0.14302410881E+03  0.99999687468E+00 0.  0.
          4    1    3    3  501    0 -0.28534329645E+03 -0.12294115765E+03 -0.83749437054E+02  0.32179076009E+03  0.00000000000E+00 0.  1.
   -9000007    1    1    2    0  503  0.14833192299E+03  0.14215337824E+03 -0.45309275669E+02  0.45195450300E+03  0.40000000000E+03 0.  1.
<mgrwt>
<rscale>  2 0.44952296E+03</rscale>
<asrwt>0</asrwt>
<pdfrwt beam="1">  1       21 0.57805083E-01 0.44967760E+03</pdfrwt>
<pdfrwt beam="2">  1       21 0.83236358E-01 0.44967760E+03</pdfrwt>
<totfact> 0.30731003E+03</totfact>
</mgrwt>
</event>
<event>
 6    1  0.9094387E-004  0.4445266E+03  0.7818608E-02  0.1029483E+00
         21   -1    0    0  501  502  0.00000000000E+00  0.00000000000E+00  0.81450864354E+03  0.81450864354E+03  0.00000000000E+00 0.  1.
         21   -1    0    0  502  503 -0.00000000000E+00 -0.00000000000E+00 -0.25434368961E+03  0.25434368961E+03  0.00000000000E+00 0.  1.
    9000007    2    1    2  501    0 -0.17104494085E+03  0.91364620337E+02  0.39843160348E+03  0.59581793452E+03  0.39830566504E+03 0.  0.
    9000005    1    3    3    0    0 -0.11693902573E+03  0.24173462530E+03  0.17281477864E+03  0.31933730211E+03  0.99999687468E+00 0.  0.
          4    1    3    3  501    0 -0.54105915120E+02 -0.15037000497E+03  0.22561682484E+03  0.27648063240E+03  0.00000000000E+00 0.  1.
   -9000007    1    1    2    0  503  0.17104494085E+03 -0.91364620337E+02  0.16173335046E+03  0.47303439863E+03  0.40000000000E+03 0. -1.
<mgrwt>
<rscale>  2 0.44414507E+03</rscale>
<asrwt>0</asrwt>
<pdfrwt beam="1">  1       21 0.12530902E+00 0.44452656E+03</pdfrwt>
<pdfrwt beam="2">  1       21 0.39129799E-01 0.44452656E+03</pdfrwt>
<totfact> 0.25851422E+03</totfact>
</mgrwt>
</event>
<event>
 6    1  0.9094387E-004  0.4956049E+03  0.7818608E-02  0.1014963E+00
         21   -1    0    0  501  502  0.00000000000E+00  0.00000000000E+00  0.62231985979E+03  0.62231985979E+03  0.00000000000E+00 0. -1.
         21   -1    0    0  502  503 -0.00000000000E+00 -0.00000000000E+00 -0.11944272652E+04  0.11944272652E+04  0.00000000000E+00 0. -1.
    9000007    2    1    2  501    0  0.29170178737E+03 -0.87639332034E+01  0.45736252322E+03  0.67439206931E+03  0.40057139966E+03 0.  0.
    9000005    1    3    3    0    0  0.17236185373E+03  0.18591648782E+03  0.31870400399E+03  0.40724291426E+03  0.99999687468E+00 0.  0.
          4    1    3    3  501    0  0.11933993364E+03 -0.19468042102E+03  0.13865851922E+03  0.26714915505E+03  0.00000000000E+00 0.  1.
   -9000007    1    1    2    0  503 -0.29170178737E+03  0.87639332034E+01 -0.10294699286E+04  0.11423550557E+04  0.40000000000E+03 0. -1.
<mgrwt>
<rscale>  2 0.49548940E+03</rscale>
<asrwt>0</asrwt>
<pdfrwt beam="1">  1       21 0.95741518E-01 0.49560487E+03</pdfrwt>
<pdfrwt beam="2">  1       21 0.18375804E+00 0.49560487E+03</pdfrwt>
<totfact> 0.12234985E+02</totfact>
</mgrwt>
</event>
<event>
 6    1  0.9094387E-004  0.4438721E+03  0.7818608E-02  0.1029587E+00
         21   -1    0    0  501  502  0.00000000000E+00  0.00000000000E+00  0.22081719811E+03  0.22081719811E+03  0.00000000000E+00 0. -1.
         21   -1    0    0  502  503 -0.00000000000E+00 -0.00000000000E+00 -0.17032492243E+04  0.17032492243E+04  0.00000000000E+00 0. -1.
    9000007    2    1    2  501    0 -0.12499955979E+02  0.19134069392E+03 -0.14054175793E+04  0.14738456598E+04  0.40031855633E+03 0.  0.
    9000005    1    3    3    0    0 -0.38149919882E+01  0.31211413989E+03 -0.11427354495E+04  0.11845991297E+04  0.99999687468E+00 0.  0.
          4    1    3    3  501    0 -0.86849639913E+01 -0.12077344597E+03 -0.26268212980E+03  0.28924653009E+03  0.00000000000E+00 0.  1.
   -9000007    1    1    2    0  503  0.12499955979E+02 -0.19134069392E+03 -0.77014446824E+02  0.45022076259E+03  0.40000000000E+03 0. -1.
<mgrwt>
<rscale>  2 0.44380028E+03</rscale>
<asrwt>0</asrwt>
<pdfrwt beam="1">  1       21 0.33971878E-01 0.44387212E+03</pdfrwt>
<pdfrwt beam="2">  1       21 0.26203833E+00 0.44387212E+03</pdfrwt>
<totfact> 0.38039430E+02</totfact>
</mgrwt>
</event>
<event>
 6    1  0.9094387E-004  0.4751313E+03  0.7818608E-02  0.1021028E+00
         21   -1    0    0  501  502  0.00000000000E+00  0.00000000000E+00  0.16691684285E+03  0.16691684285E+03  0.00000000000E+00 0.  1.
         21   -1    0    0  502  503 -0.00000000000E+00 -0.00000000000E+00 -0.24123921886E+04  0.24123921886E+04  0.00000000000E+00 0.  1.
    9000007    2    1    2  501    0  0.94164850011E+01 -0.24151309133E+03 -0.26417326450E+03  0.54363342355E+03  0.40906300498E+03 0.  0.
    9000005    1    3    3    0    0 -0.77828464001E+02 -0.84279634222E+02 -0.33214434513E+03  0.35139890801E+03  0.99999687468E+00 0.  0.
          4    1    3    3  501    0  0.87244949002E+02 -0.15723345711E+03  0.67971080634E+02  0.19223451553E+03  0.00000000000E+00 0.  1.
   -9000007    1    1    2    0  503 -0.94164850011E+01  0.24151309133E+03 -0.19813020812E+04  0.20356756079E+04  0.40000000000E+03 0.  1.
<mgrwt>
<rscale>  2 0.47317427E+03</rscale>
<asrwt>0</asrwt>
<pdfrwt beam="1">  1       21 0.25679513E-01 0.47513134E+03</pdfrwt>
<pdfrwt beam="2">  1       21 0.37113728E+00 0.47513134E+03</pdfrwt>
<totfact> 0.14123433E+02</totfact>
</mgrwt>
</event>
<event>
 6    1  0.9094387E-004  0.4010985E+03  0.7818608E-02  0.1043424E+00
         21   -1    0    0  501  502  0.00000000000E+00  0.00000000000E+00  0.11154740995E+03  0.11154740995E+03  0.00000000000E+00 0.  1.
         21   -1    0    0  502  503 -0.00000000000E+00 -0.00000000000E+00 -0.15927603679E+04  0.15927603679E+04  0.00000000000E+00 0.  1.
    9000007    2    1    2  501    0 -0.77149604905E+01  0.28643736714E+02 -0.47753926511E+03  0.62345586109E+03  0.39971674564E+03 0.  0.
    9000005    1    3    3    0    0 -0.17064383541E+03  0.12165296130E+03 -0.29357712220E+03  0.36070387886E+03  0.99999687468E+00 0.  0.
          4    1    3    3  501    0  0.16292887492E+03 -0.93009224586E+02 -0.18396214291E+03  0.26275198223E+03  0.00000000000E+00 0.  1.
   -9000007    1    1    2    0  503  0.77149604905E+01 -0.28643736714E+02 -0.10036736928E+04  0.10808519168E+04  0.40000000000E+03 0.  1.
<mgrwt>
<rscale>  2 0.40102783E+03</rscale>
<asrwt>0</asrwt>
<pdfrwt beam="1">  1       21 0.17161142E-01 0.40109847E+03</pdfrwt>
<pdfrwt beam="2">  1       21 0.24504003E+00 0.40109847E+03</pdfrwt>
<totfact> 0.18585980E+03</totfact>
</mgrwt>
</event>
<event>
 6    1  0.9094387E-004  0.5757911E+03  0.7818608E-02  0.9957590E-01
         21   -1    0    0  501  502  0.00000000000E+00  0.00000000000E+00  0.78696024362E+03  0.78696024362E+03  0.00000000000E+00 0. -1.
         21   -1    0    0  502  503 -0.00000000000E+00 -0.00000000000E+00 -0.47100124401E+03  0.47100124401E+03  0.00000000000E+00 0.  1.
    9000007    2    1    2  501    0 -0.40310769483E+03 -0.95076821969E+02  0.36394778046E+03  0.68017403640E+03  0.39830053626E+03 0.  0.
    9000005    1    3    3    0    0 -0.85664673884E+02 -0.42815605453E+02  0.34483793806E+03  0.35789078773E+03  0.99999687468E+00 0.  0.
          4    1    3    3  501    0 -0.31744302095E+03 -0.52261216516E+02  0.19109842406E+02  0.32228324868E+03  0.00000000000E+00 0.  1.
   -9000007    1    1    2    0  503  0.40310769483E+03  0.95076821969E+02 -0.47988780847E+02  0.57778745123E+03  0.40000000000E+03 0.  1.
<mgrwt>
<rscale>  2 0.57549607E+03</rscale>
<asrwt>0</asrwt>
<pdfrwt beam="1">  1       21 0.12107081E+00 0.57579112E+03</pdfrwt>
<pdfrwt beam="2">  1       21 0.72461730E-01 0.57579112E+03</pdfrwt>
<totfact> 0.71313454E+02</totfact>
</mgrwt>
</event>
<event>
 6    1  0.9094387E-004  0.4448495E+03  0.7818608E-02  0.1029293E+00
         21   -1    0    0  501  502  0.00000000000E+00  0.00000000000E+00  0.19684604869E+04  0.19684604869E+04  0.00000000000E+00 0. -1.
         21   -1    0    0  502  503 -0.00000000000E+00 -0.00000000000E+00 -0.12290673207E+03  0.12290673207E+03  0.00000000000E+00 0.  1.
    9000007    2    1    2  501    0 -0.66318917071E+02  0.18225382287E+03  0.13699119529E+04  0.14403297558E+04  0.40034534093E+03 0.  0.
    9000005    1    3    3    0    0 -0.10085988526E+03  0.17441748796E+03  0.13866102935E+04  0.14011721102E+04  0.99999687468E+00 0.  0.
          4    1    3    3  501    0  0.34540968194E+02  0.78363349045E+01 -0.16698340558E+02  0.39157645561E+02  0.00000000000E+00 0.  1.
   -9000007    1    1    2    0  503  0.66318917071E+02 -0.18225382287E+03  0.47564180192E+03  0.65103746316E+03  0.40000000000E+03 0. -1.
<mgrwt>
<rscale>  2 0.44477175E+03</rscale>
<asrwt>0</asrwt>
<pdfrwt beam="1">  1       21 0.30284005E+00 0.44484947E+03</pdfrwt>
<pdfrwt beam="2">  1       21 0.18908729E-01 0.44484947E+03</pdfrwt>
<totfact> 0.67671317E+02</totfact>
</mgrwt>
</event>
<event>
 6    1  0.9094387E-004  0.5143612E+03  0.7818608E-02  0.1010100E+00
         21   -1    0    0  501  502  0.00000000000E+00  0.00000000000E+00  0.10048146659E+04  0.10048146659E+04  0.00000000000E+00 0. -1.
         21   -1    0    0  502  503 -0.00000000000E+00 -0.00000000000E+00 -0.26905032079E+03  0.26905032079E+03  0.00000000000E+00 0. -1.
    9000007    2    1    2  501    0  0.31347404004E+03  0.79078294669E+02  0.46120994717E+03  0.69085600915E+03  0.40006006993E+03 0.  0.
    9000005    1    3    3    0    0  0.19031516304E+02 -0.68566990788E+02 -0.46965943164E+02  0.85266820332E+02  0.99999687468E+00 0.  0.
          4    1    3    3  501    0  0.29444252373E+03  0.14764528546E+03  0.50817589033E+03  0.60558918882E+03  0.00000000000E+00 0.  1.
   -9000007    1    1    2    0  503 -0.31347404004E+03 -0.79078294669E+02  0.27455439794E+03  0.58300897754E+03  0.40000000000E+03 0.  1.
<mgrwt>
<rscale>  2 0.51434949E+03</rscale>
<asrwt>0</asrwt>
<pdfrwt beam="1">  1       21 0.15458687E+00 0.51436117E+03</pdfrwt>
<pdfrwt beam="2">  1       21 0.41392358E-01 0.51436117E+03</pdfrwt>
<totfact> 0.12835735E+03</totfact>
</mgrwt>
</event>
<event>
 6    1  0.9094387E-004  0.4756459E+03  0.7818608E-02  0.1020353E+00
         21   -1    0    0  501  502  0.00000000000E+00  0.00000000000E+00  0.13899372631E+04  0.13899372631E+04  0.00000000000E+00 0. -1.
         21   -1    0    0  502  503 -0.00000000000E+00 -0.00000000000E+00 -0.19104470433E+03  0.19104470433E+03  0.00000000000E+00 0. -1.
    9000007    2    1    2  501    0  0.12435573852E+03 -0.22533233598E+03  0.29483359239E+03  0.55943332638E+03  0.39974965681E+03 0.  0.
    9000005    1    3    3    0    0 -0.77312501814E+02 -0.19226292930E+03  0.81776016058E+01  0.20738883789E+03  0.99999687468E+00 0.  0.
          4    1    3    3  501    0  0.20166824033E+03 -0.33069406679E+02  0.28665599079E+03  0.35204448848E+03  0.00000000000E+00 0.  1.
   -9000007    1    1    2    0  503 -0.12435573852E+03  0.22533233598E+03  0.90405896636E+03  0.10215486410E+04  0.40000000000E+03 0. -1.
<mgrwt>
<rscale>  2 0.47559325E+03</rscale>
<asrwt>0</asrwt>
<pdfrwt beam="1">  1       21 0.21383650E+00 0.47564589E+03</pdfrwt>
<pdfrwt beam="2">  1       21 0.29391494E-01 0.47564589E+03</pdfrwt>
<totfact> 0.10005358E+03</totfact>
</mgrwt>
</event>
<event>
 6    1  0.9094387E-004  0.6561676E+03  0.7818608E-02  0.9795369E-01
         21   -1    0    0  501  502  0.00000000000E+00  0.00000000000E+00  0.10994092490E+04  0.10994092490E+04  0.00000000000E+00 0. -1.
         21   -1    0    0  502  503 -0.00000000000E+00 -0.00000000000E+00 -0.43059099750E+03  0.43059099750E+03  0.00000000000E+00 0.  1.
    9000007    2    1    2  501    0  0.30689786962E+03  0.41964583958E+03  0.56494450398E+03  0.86586269410E+03  0.40033358516E+03 0.  0.
    9000005    1    3    3    0    0  0.31653544374E+03  0.38771134962E+03  0.62285053956E+03  0.79903602697E+03  0.99999687468E+00 0.  0.
          4    1    3    3  501    0 -0.96375741229E+01  0.31934489960E+02 -0.57906035578E+02  0.66826667135E+02  0.00000000000E+00 0.  1.
   -9000007    1    1    2    0  503 -0.30689786962E+03 -0.41964583958E+03  0.10387374749E+03  0.66413755238E+03  0.40000000000E+03 0. -1.
<mgrwt>
<rscale>  2 0.65611672E+03</rscale>
<asrwt>0</asrwt>
<pdfrwt beam="1">  1       21 0.16913988E+00 0.65616759E+03</pdfrwt>
<pdfrwt beam="2">  1       21 0.66244769E-01 0.65616759E+03</pdfrwt>
<totfact> 0.34393920E+02</totfact>
</mgrwt>
</event>
<event>
 6    1  0.9094387E-004  0.4650845E+03  0.7818608E-02  0.1023362E+00
         21   -1    0    0  501  502  0.00000000000E+00  0.00000000000E+00  0.58657817018E+03  0.58657817018E+03  0.00000000000E+00 0. -1.
         21   -1    0    0  502  503 -0.00000000000E+00 -0.00000000000E+00 -0.52380592409E+03  0.52380592409E+03  0.00000000000E+00 0. -1.
    9000007    2    1    2  501    0  0.18972499176E+03  0.14250614603E+03  0.33391966720E+03  0.57203058760E+03  0.39926566951E+03 0.  0.
    9000005    1    3    3    0    0  0.48767866712E+02 -0.11834244188E+03  0.21974955254E+03  0.25431103832E+03  0.99999687468E+00 0.  0.
          4    1    3    3  501    0  0.14095712505E+03  0.26084858791E+03  0.11417011466E+03  0.31771954929E+03  0.00000000000E+00 0.  1.
   -9000007    1    1    2    0  503 -0.18972499176E+03 -0.14250614603E+03 -0.27114742111E+03  0.53835350666E+03  0.40000000000E+03 0. -1.
<mgrwt>
<rscale>  2 0.46492655E+03</rscale>
<asrwt>0</asrwt>
<pdfrwt beam="1">  1       21 0.90242795E-01 0.46508448E+03</pdfrwt>
<pdfrwt beam="2">  1       21 0.80585527E-01 0.46508448E+03</pdfrwt>
<totfact> 0.11989800E+03</totfact>
</mgrwt>
</event>
<event>
 6    1  0.9094387E-004  0.4249983E+03  0.7818608E-02  0.1035660E+00
         21   -1    0    0  501  502  0.00000000000E+00  0.00000000000E+00  0.32324826180E+04  0.32324826180E+04  0.00000000000E+00 0.  1.
         21   -1    0    0  502  503 -0.00000000000E+00 -0.00000000000E+00 -0.12454216122E+03  0.12454216122E+03  0.00000000000E+00 0.  1.
    9000007    2    1    2  501    0  0.13902664191E+03 -0.35987892261E+02  0.28012593729E+04  0.28329285831E+04  0.39724897369E+03 0.  0.
    9000005    1    3    3    0    0  0.10325643041E+03  0.14418364197E+03  0.64742656977E+03  0.67127712330E+03  0.99999687468E+00 0.  0.
          4    1    3    3  501    0  0.35770211502E+02 -0.18017153423E+03  0.21538328032E+04  0.21616514598E+04  0.00000000000E+00 0.  1.
   -9000007    1    1    2    0  503 -0.13902664191E+03  0.35987892261E+02  0.30668108380E+03  0.52409619605E+03  0.40000000000E+03 0.  1.
<mgrwt>
<rscale>  2 0.42434975E+03</rscale>
<asrwt>0</asrwt>
<pdfrwt beam="1">  1       21 0.49730496E+00 0.42499828E+03</pdfrwt>
<pdfrwt beam="2">  1       21 0.19160335E-01 0.42499828E+03</pdfrwt>
<totfact> 0.37119752E+01</totfact>
</mgrwt>
</event>
<event>
 6    1  0.9094387E-004  0.4694183E+03  0.7818608E-02  0.1022100E+00
         21   -1    0    0  501  502  0.00000000000E+00  0.00000000000E+00  0.74929904492E+03  0.74929904492E+03  0.00000000000E+00 0.  1.
         21   -1    0    0  502  503 -0.00000000000E+00 -0.00000000000E+00 -0.40610894341E+03  0.40610894341E+03  0.00000000000E+00 0.  1.
    9000007    2    1    2  501    0  0.18987805239E+02 -0.24493478220E+03  0.47517715298E+03  0.66778706380E+03  0.39974073046E+03 0.  0.
    9000005    1    3    3    0    0 -0.15430188291E+03 -0.41798120219E+02  0.32314922874E+03  0.36053096670E+03  0.99999687468E+00 0.  0.
          4    1    3    3  501    0  0.17328968815E+03 -0.20313666198E+03  0.15202792425E+03  0.30725609711E+03  0.00000000000E+00 0.  1.
   -9000007    1    1    2    0  503 -0.18987805239E+02  0.24493478220E+03 -0.13198705147E+03  0.48762092453E+03  0.40000000000E+03 0.  1.
<mgrwt>
<rscale>  2 0.46936311E+03</rscale>
<asrwt>0</asrwt>
<pdfrwt beam="1">  1       21 0.11527678E+00 0.46941835E+03</pdfrwt>
<pdfrwt beam="2">  1       21 0.62478299E-01 0.46941835E+03</pdfrwt>
<totfact> 0.11701583E+03</totfact>
</mgrwt>
</event>
<event>
 6    1  0.9094387E-004  0.4774277E+03  0.7818608E-02  0.1019862E+00
         21   -1    0    0  501  502  0.00000000000E+00  0.00000000000E+00  0.22106630431E+03  0.22106630431E+03  0.00000000000E+00 0. -1.
         21   -1    0    0  502  503 -0.00000000000E+00 -0.00000000000E+00 -0.11356389734E+04  0.11356389734E+04  0.00000000000E+00 0. -1.
    9000007    2    1    2  501    0 -0.35696262799E+02  0.25819171821E+03 -0.25080531953E+03  0.53907193638E+03  0.39969745778E+03 0.  0.
    9000005    1    3    3    0    0  0.17009030395E+02  0.35620890482E+03 -0.23396877075E+03  0.42651667806E+03  0.99999687468E+00 0.  0.
          4    1    3    3  501    0 -0.52705293194E+02 -0.98017186604E+02 -0.16836548784E+02  0.11255525832E+03  0.00000000000E+00 0.  1.
   -9000007    1    1    2    0  503  0.35696262799E+02 -0.25819171821E+03 -0.66376734960E+03  0.81763334137E+03  0.40000000000E+03 0. -1.
<mgrwt>
<rscale>  2 0.47736430E+03</rscale>
<asrwt>0</asrwt>
<pdfrwt beam="1">  1       21 0.34010201E-01 0.47742768E+03</pdfrwt>
<pdfrwt beam="2">  1       21 0.17471369E+00 0.47742768E+03</pdfrwt>
<totfact> 0.13773739E+03</totfact>
</mgrwt>
</event>
<event>
 6    1  0.9094387E-004  0.4124294E+03  0.7818608E-02  0.1039565E+00
         21   -1    0    0  501  502  0.00000000000E+00  0.00000000000E+00  0.20971099020E+04  0.20971099020E+04  0.00000000000E+00 0. -1.
         21   -1    0    0  502  503 -0.00000000000E+00 -0.00000000000E+00 -0.87370320454E+02  0.87370320454E+02  0.00000000000E+00 0. -1.
    9000007    2    1    2  501    0 -0.76473857449E+02 -0.64725458705E+02  0.12976438769E+04  0.13616084655E+04  0.40007542549E+03 0.  0.
    9000005    1    3    3    0    0 -0.19773993660E+03  0.73332241677E+02  0.49241309833E+03  0.53567747721E+03  0.99999687468E+00 0.  0.
          4    1    3    3  501    0  0.12126607915E+03 -0.13805770038E+03  0.80523077862E+03  0.82593098829E+03  0.00000000000E+00 0.  1.
   -9000007    1    1    2    0  503  0.76473857449E+02  0.64725458705E+02  0.71209570462E+03  0.82287175697E+03  0.40000000000E+03 0. -1.
<mgrwt>
<rscale>  2 0.41241107E+03</rscale>
<asrwt>0</asrwt>
<pdfrwt beam="1">  1       21 0.32263225E+00 0.41242937E+03</pdfrwt>
<pdfrwt beam="2">  1       21 0.13441589E-01 0.41242937E+03</pdfrwt>
<totfact> 0.99012459E+02</totfact>
</mgrwt>
</event>
<event>
 6    1  0.9094387E-004  0.4389852E+03  0.7818608E-02  0.1031061E+00
         21   -1    0    0  501  502  0.00000000000E+00  0.00000000000E+00  0.44217920858E+03  0.44217920858E+03  0.00000000000E+00 0. -1.
         21   -1    0    0  502  503 -0.00000000000E+00 -0.00000000000E+00 -0.43599543786E+03  0.43599543786E+03  0.00000000000E+00 0. -1.
    9000007    2    1    2  501    0 -0.45088920100E+02 -0.17514289991E+03  0.12896195843E+02  0.43913808446E+03  0.39995987205E+03 0.  0.
    9000005    1    3    3    0    0 -0.89059212038E+02 -0.17216855209E+03 -0.16580666777E+03  0.25508117266E+03  0.99999687468E+00 0.  0.
          4    1    3    3  501    0  0.43970291938E+02 -0.29743478134E+01  0.17870286361E+03  0.18405691180E+03  0.00000000000E+00 0.  1.
   -9000007    1    1    2    0  503  0.45088920100E+02  0.17514289991E+03 -0.67124251184E+01  0.43903656198E+03  0.40000000000E+03 0. -1.
<mgrwt>
<rscale>  2 0.43897610E+03</rscale>
<asrwt>0</asrwt>
<pdfrwt beam="1">  1       21 0.68027570E-01 0.43898525E+03</pdfrwt>
<pdfrwt beam="2">  1       21 0.67076221E-01 0.43898525E+03</pdfrwt>
<totfact> 0.35218286E+03</totfact>
</mgrwt>
</event>
<event>
 6    1  0.9094387E-004  0.4587191E+03  0.7818608E-02  0.1025191E+00
         21   -1    0    0  501  502  0.00000000000E+00  0.00000000000E+00  0.11707443613E+04  0.11707443613E+04  0.00000000000E+00 0. -1.
         21   -1    0    0  502  503 -0.00000000000E+00 -0.00000000000E+00 -0.32153000787E+03  0.32153000787E+03  0.00000000000E+00 0.  1.
    9000007    2    1    2  501    0 -0.20734675226E+03  0.83381124495E+02  0.92059350181E+03  0.10285502373E+04  0.40059718860E+03 0.  0.
    9000005    1    3    3    0    0 -0.74311685557E+02  0.22421928564E+03  0.67873398208E+03  0.71866357434E+03  0.99999687468E+00 0.  0.
          4    1    3    3  501    0 -0.13303506670E+03 -0.14083816114E+03  0.24185951973E+03  0.30988666298E+03  0.00000000000E+00 0.  1.
   -9000007    1    1    2    0  503  0.20734675226E+03 -0.83381124495E+02 -0.71379148416E+02  0.46372413181E+03  0.40000000000E+03 0.  1.
<mgrwt>
<rscale>  2 0.45858867E+03</rscale>
<asrwt>0</asrwt>
<pdfrwt beam="1">  1       21 0.18011452E+00 0.45871908E+03</pdfrwt>
<pdfrwt beam="2">  1       21 0.49466156E-01 0.45871908E+03</pdfrwt>
<totfact> 0.58524029E+02</totfact>
</mgrwt>
</event>
<event>
 6    1  0.9094387E-004  0.4653363E+03  0.7818608E-02  0.1023256E+00
         21   -1    0    0  501  502  0.00000000000E+00  0.00000000000E+00  0.38666834760E+03  0.38666834760E+03  0.00000000000E+00 0.  1.
         21   -1    0    0  502  503 -0.00000000000E+00 -0.00000000000E+00 -0.57094988271E+03  0.57094988271E+03  0.00000000000E+00 0. -1.
    9000007    2    1    2  501    0 -0.22745341573E+03 -0.68212163926E+02 -0.15902114224E+03  0.49175768993E+03  0.40018738897E+03 0.  0.
    9000005    1    3    3    0    0 -0.11150037977E+03 -0.92294173131E+02 -0.28450797635E+03  0.31921205755E+03  0.99999687468E+00 0.  0.
          4    1    3    3  501    0 -0.11595303597E+03  0.24082009205E+02  0.12548683411E+03  0.17254563238E+03  0.00000000000E+00 0.  1.
   -9000007    1    1    2    0  503  0.22745341573E+03  0.68212163926E+02 -0.25260392861E+02  0.46586054038E+03  0.40000000000E+03 0.  1.
<mgrwt>
<rscale>  2 0.46529604E+03</rscale>
<asrwt>0</asrwt>
<pdfrwt beam="1">  1       21 0.59487439E-01 0.46533633E+03</pdfrwt>
<pdfrwt beam="2">  1       21 0.87838443E-01 0.46533633E+03</pdfrwt>
<totfact> 0.25303548E+03</totfact>
</mgrwt>
</event>
<event>
 6    1  0.9094387E-004  0.5446861E+03  0.7818608E-02  0.1002782E+00
         21   -1    0    0  501  502  0.00000000000E+00  0.00000000000E+00  0.14819755860E+04  0.14819755860E+04  0.00000000000E+00 0. -1.
         21   -1    0    0  502  503 -0.00000000000E+00 -0.00000000000E+00 -0.50010326623E+03  0.50010326623E+03  0.00000000000E+00 0.  1.
    9000007    2    1    2  501    0  0.34959525880E+03 -0.12027522342E+03  0.12586464850E+04  0.13711067474E+04  0.39882297345E+03 0.  0.
    9000005    1    3    3    0    0  0.30482410304E+03 -0.17770579748E+03  0.12487204592E+04  0.12976135286E+04  0.99999687468E+00 0.  0.
          4    1    3    3  501    0  0.44771155755E+02  0.57430574059E+02  0.99260257947E+01  0.73493218820E+02  0.00000000000E+00 0.  1.
   -9000007    1    1    2    0  503 -0.34959525880E+03  0.12027522342E+03 -0.27677416525E+03  0.61097210484E+03  0.40000000000E+03 0.  1.
<mgrwt>
<rscale>  2 0.54447005E+03</rscale>
<asrwt>0</asrwt>
<pdfrwt beam="1">  1       21 0.22799624E+00 0.54468612E+03</pdfrwt>
<pdfrwt beam="2">  1       21 0.76938964E-01 0.54468612E+03</pdfrwt>
<totfact> 0.10165219E+02</totfact>
</mgrwt>
</event>
<event>
 6    1  0.9094387E-004  0.4413997E+03  0.7818608E-02  0.1030327E+00
         21   -1    0    0  501  502  0.00000000000E+00  0.00000000000E+00  0.27289276775E+03  0.27289276775E+03  0.00000000000E+00 0.  1.
         21   -1    0    0  502  503 -0.00000000000E+00 -0.00000000000E+00 -0.72723771291E+03  0.72723771291E+03  0.00000000000E+00 0.  1.
    9000007    2    1    2  501    0 -0.18954475611E+02  0.18567278839E+03 -0.29520839017E+03  0.53092040017E+03  0.39986850488E+03 0.  0.
    9000005    1    3    3    0    0 -0.14135406606E+03  0.82806053147E+02  0.31831856586E+02  0.16688942902E+03  0.99999687468E+00 0.  0.
          4    1    3    3  501    0  0.12239959045E+03  0.10286673525E+03 -0.32704024675E+03  0.36403097115E+03  0.00000000000E+00 0.  1.
   -9000007    1    1    2    0  503  0.18954475611E+02 -0.18567278839E+03 -0.15913655500E+03  0.46921008049E+03  0.40000000000E+03 0. -1.
<mgrwt>
<rscale>  2 0.44136986E+03</rscale>
<asrwt>0</asrwt>
<pdfrwt beam="1">  1       21 0.41983504E-01 0.44139966E+03</pdfrwt>
<pdfrwt beam="2">  1       21 0.11188272E+00 0.44139966E+03</pdfrwt>
<totfact> 0.29807396E+03</totfact>
</mgrwt>
</event>
<event>
 6    1  0.9094387E-004  0.5344556E+03  0.7818608E-02  0.1005168E+00
         21   -1    0    0  501  502  0.00000000000E+00  0.00000000000E+00  0.16574820925E+03  0.16574820925E+03  0.00000000000E+00 0.  1.
         21   -1    0    0  502  503 -0.00000000000E+00 -0.00000000000E+00 -0.18452551053E+04  0.18452551053E+04  0.00000000000E+00 0. -1.
    9000007    2    1    2  501    0  0.80700616974E+02  0.34515242812E+03 -0.58057987440E+03  0.78900356531E+03  0.39976348921E+03 0.  0.
    9000005    1    3    3    0    0 -0.37207116137E+01 -0.85560344272E+02 -0.45638598895E+02  0.97047915535E+02  0.99999687468E+00 0.  0.
          4    1    3    3  501    0  0.84421328588E+02  0.43071277239E+03 -0.53494127550E+03  0.69195564978E+03  0.00000000000E+00 0.  1.
   -9000007    1    1    2    0  503 -0.80700616974E+02 -0.34515242812E+03 -0.10989270216E+04  0.12219997492E+04  0.40000000000E+03 0. -1.
<mgrwt>
<rscale>  2 0.53441135E+03</rscale>
<asrwt>0</asrwt>
<pdfrwt beam="1">  1       21 0.25499724E-01 0.53445560E+03</pdfrwt>
<pdfrwt beam="2">  1       21 0.28388540E+00 0.53445560E+03</pdfrwt>
<totfact> 0.47321064E+02</totfact>
</mgrwt>
</event>
<event>
 6    1  0.9094387E-004  0.6709338E+03  0.7818608E-02  0.9768331E-01
         21   -1    0    0  501  502  0.00000000000E+00  0.00000000000E+00  0.25569908560E+03  0.25569908560E+03  0.00000000000E+00 0. -1.
         21   -1    0    0  502  503 -0.00000000000E+00 -0.00000000000E+00 -0.17602665845E+04  0.17602665845E+04  0.00000000000E+00 0.  1.
    9000007    2    1    2  501    0 -0.53822651027E+03  0.17025213183E+02 -0.76107084772E+03  0.10145841721E+04  0.40021815642E+03 0.  0.
    9000005    1    3    3    0    0 -0.62877637085E+02  0.15856127176E+03 -0.24782205747E+03  0.30085220011E+03  0.99999687468E+00 0.  0.
          4    1    3    3  501    0 -0.47534887319E+03 -0.14153605857E+03 -0.51324879024E+03  0.71373197196E+03  0.00000000000E+00 0.  1.
   -9000007    1    1    2    0  503  0.53822651027E+03 -0.17025213183E+02 -0.74349665114E+03  0.10013814980E+04  0.40000000000E+03 0. -1.
<mgrwt>
<rscale>  2 0.67090130E+03</rscale>
<asrwt>0</asrwt>
<pdfrwt beam="1">  1       21 0.39338321E-01 0.67093383E+03</pdfrwt>
<pdfrwt beam="2">  1       21 0.27081024E+00 0.67093383E+03</pdfrwt>
<totfact> 0.22465160E+02</totfact>
</mgrwt>
</event>
<event>
 6    1  0.9094387E-004  0.4282310E+03  0.7818608E-02  0.1034440E+00
         21   -1    0    0  501  502  0.00000000000E+00  0.00000000000E+00  0.27220455444E+03  0.27220455444E+03  0.00000000000E+00 0.  1.
         21   -1    0    0  502  503 -0.00000000000E+00 -0.00000000000E+00 -0.83593956626E+03  0.83593956626E+03  0.00000000000E+00 0.  1.
    9000007    2    1    2  501    0  0.61697248028E+02  0.13991162510E+03 -0.37409186661E+02  0.42961579596E+03  0.39973550210E+03 0.  0.
    9000005    1    3    3    0    0 -0.15739898001E+03 -0.14219807212E+02  0.64223995814E+01  0.15817360410E+03  0.99999687468E+00 0.  0.
          4    1    3    3  501    0  0.21909622804E+03  0.15413143231E+03 -0.43831586242E+02  0.27144219185E+03  0.00000000000E+00 0.  1.
   -9000007    1    1    2    0  503 -0.61697248028E+02 -0.13991162510E+03 -0.52632582516E+03  0.67852832475E+03  0.40000000000E+03 0.  1.
<mgrwt>
<rscale>  2 0.42816925E+03</rscale>
<asrwt>0</asrwt>
<pdfrwt beam="1">  1       21 0.41877624E-01 0.42823103E+03</pdfrwt>
<pdfrwt beam="2">  1       21 0.12860609E+00 0.42823103E+03</pdfrwt>
<totfact> 0.21152732E+03</totfact>
</mgrwt>
</event>
<event>
 6    1  0.9094387E-004  0.4132001E+03  0.7818608E-02  0.1039321E+00
         21   -1    0    0  501  502  0.00000000000E+00  0.00000000000E+00  0.39306245588E+03  0.39306245588E+03  0.00000000000E+00 0. -1.
         21   -1    0    0  502  503 -0.00000000000E+00 -0.00000000000E+00 -0.58717864434E+03  0.58717864434E+03  0.00000000000E+00 0. -1.
    9000007    2    1    2  501    0 -0.32868317120E+02  0.97317354280E+02  0.15314356734E+03  0.44066688687E+03  0.40022913344E+03 0.  0.
    9000005    1    3    3    0    0  0.22652367018E+02 -0.46565919335E+02  0.25213973695E+03  0.25740427642E+03  0.99999687468E+00 0.  0.
          4    1    3    3  501    0 -0.55520684139E+02  0.14388327361E+03 -0.98996169610E+02  0.18326261046E+03  0.00000000000E+00 0.  1.
   -9000007    1    1    2    0  503  0.32868317120E+02 -0.97317354280E+02 -0.34725975580E+03  0.53957421335E+03  0.40000000000E+03 0. -1.
<mgrwt>
<rscale>  2 0.41314464E+03</rscale>
<asrwt>0</asrwt>
<pdfrwt beam="1">  1       21 0.60471147E-01 0.41320014E+03</pdfrwt>
<pdfrwt beam="2">  1       21 0.90335176E-01 0.41320014E+03</pdfrwt>
<totfact> 0.23297979E+03</totfact>
</mgrwt>
</event>
<event>
 6    1  0.9094387E-004  0.9095863E+03  0.7818608E-02  0.9413704E-01
         21   -1    0    0  501  502  0.00000000000E+00  0.00000000000E+00  0.87298411552E+03  0.87298411552E+03  0.00000000000E+00 0.  1.
         21   -1    0    0  502  503 -0.00000000000E+00 -0.00000000000E+00 -0.97425654968E+03  0.97425654968E+03  0.00000000000E+00 0.  1.
    9000007    2    1    2  501    0 -0.16080809638E+03  0.80092947778E+03 -0.20332584278E+03  0.93194717650E+03  0.39979603451E+03 0.  0.
    9000005    1    3    3    0    0  0.81096744963E+02  0.98378399505E+02 -0.13514178133E+03  0.18579368285E+03  0.99999687468E+00 0.  0.
          4    1    3    3  501    0 -0.24190484134E+03  0.70255107828E+03 -0.68184061445E+02  0.74615349365E+03  0.00000000000E+00 0.  1.
   -9000007    1    1    2    0  503  0.16080809638E+03 -0.80092947778E+03  0.10205340862E+03  0.91529348870E+03  0.40000000000E+03 0.  1.
<mgrwt>
<rscale>  2 0.90956390E+03</rscale>
<asrwt>0</asrwt>
<pdfrwt beam="1">  1       21 0.13430525E+00 0.90958632E+03</pdfrwt>
<pdfrwt beam="2">  1       21 0.14988562E+00 0.90958632E+03</pdfrwt>
<totfact> 0.80337216E+01</totfact>
</mgrwt>
</event>
<event>
 6    1  0.9094387E-004  0.6021781E+03  0.7818608E-02  0.9900925E-01
         21   -1    0    0  501  502  0.00000000000E+00  0.00000000000E+00  0.33584314728E+03  0.33584314728E+03  0.00000000000E+00 0. -1.
         21   -1    0    0  502  503 -0.00000000000E+00 -0.00000000000E+00 -0.11774005989E+04  0.11774005989E+04  0.00000000000E+00 0.  1.
    9000007    2    1    2  501    0 -0.90755176650E+02 -0.44088763530E+03 -0.20272897245E+03  0.63533701146E+03  0.39991958293E+03 0.  0.
    9000005    1    3    3    0    0  0.79152754750E+02 -0.22627459785E+03 -0.26215211934E+03  0.35523243923E+03  0.99999687468E+00 0.  0.
          4    1    3    3  501    0 -0.16990793140E+03 -0.21461303746E+03  0.59423146883E+02  0.28010457223E+03  0.00000000000E+00 0.  1.
   -9000007    1    1    2    0  503  0.90755176650E+02  0.44088763530E+03 -0.63882847913E+03  0.87790673468E+03  0.40000000000E+03 0.  1.
<mgrwt>
<rscale>  2 0.60216470E+03</rscale>
<asrwt>0</asrwt>
<pdfrwt beam="1">  1       21 0.51668176E-01 0.60217805E+03</pdfrwt>
<pdfrwt beam="2">  1       21 0.18113855E+00 0.60217805E+03</pdfrwt>
<totfact> 0.49501853E+02</totfact>
</mgrwt>
</event>
<event>
 6    1  0.9094387E-004  0.4180700E+03  0.7818608E-02  0.1037716E+00
         21   -1    0    0  501  502  0.00000000000E+00  0.00000000000E+00  0.11375351322E+04  0.11375351322E+04  0.00000000000E+00 0. -1.
         21   -1    0    0  502  503 -0.00000000000E+00 -0.00000000000E+00 -0.32332620150E+03  0.32332620150E+03  0.00000000000E+00 0. -1.
    9000007    2    1    2  501    0 -0.79558506394E+02  0.91939873025E+02  0.93632449863E+03  0.10253217739E+04  0.39974826717E+03 0.  0.
    9000005    1    3    3    0    0 -0.85002894959E+02 -0.12711349850E+03  0.63250665071E+03  0.65072958811E+03  0.99999687468E+00 0.  0.
          4    1    3    3  501    0  0.54443885654E+01  0.21905337152E+03  0.30381784792E+03  0.37459218579E+03  0.00000000000E+00 0.  1.
   -9000007    1    1    2    0  503  0.79558506394E+02 -0.91939873025E+02 -0.12211556796E+03  0.43553955977E+03  0.40000000000E+03 0. -1.
<mgrwt>
<rscale>  2 0.41800974E+03</rscale>
<asrwt>0</asrwt>
<pdfrwt beam="1">  1       21 0.17500540E+00 0.41806997E+03</pdfrwt>
<pdfrwt beam="2">  1       21 0.49742493E-01 0.41806997E+03</pdfrwt>
<totfact> 0.64114144E+02</totfact>
</mgrwt>
</event>
<event>
 6    1  0.9094387E-004  0.4226851E+03  0.7818608E-02  0.1036266E+00
         21   -1    0    0  501  502  0.00000000000E+00  0.00000000000E+00  0.29507649209E+03  0.29507649209E+03  0.00000000000E+00 0.  1.
         21   -1    0    0  502  503 -0.00000000000E+00 -0.00000000000E+00 -0.70486874546E+03  0.70486874546E+03  0.00000000000E+00 0.  1.
    9000007    2    1    2  501    0  0.24015125887E+02 -0.13173237998E+03 -0.16164889650E+02  0.42299407179E+03  0.40091462296E+03 0.  0.
    9000005    1    3    3    0    0 -0.13315780141E+02 -0.23740343270E+03  0.10324830827E+03  0.25922753135E+03  0.99999687468E+00 0.  0.
          4    1    3    3  501    0  0.37330906028E+02  0.10567105272E+03 -0.11941319792E+03  0.16376654043E+03  0.00000000000E+00 0.  1.
   -9000007    1    1    2    0  503 -0.24015125887E+02  0.13173237998E+03 -0.39362736372E+03  0.57695116576E+03  0.40000000000E+03 0.  1.
<mgrwt>
<rscale>  2 0.42246806E+03</rscale>
<asrwt>0</asrwt>
<pdfrwt beam="1">  1       21 0.45396384E-01 0.42268509E+03</pdfrwt>
<pdfrwt beam="2">  1       21 0.10844134E+00 0.42268509E+03</pdfrwt>
<totfact> 0.27560768E+03</totfact>
</mgrwt>
</event>
<event>
 6    1  0.9094387E-004  0.5125230E+03  0.7818608E-02  0.1010703E+00
         21   -1    0    0  501  502  0.00000000000E+00  0.00000000000E+00  0.34388408414E+03  0.34388408414E+03  0.00000000000E+00 0.  1.
         21   -1    0    0  502  503 -0.00000000000E+00 -0.00000000000E+00 -0.87787534040E+03  0.87787534040E+03  0.00000000000E+00 0.  1.
    9000007    2    1    2  501    0  0.22606219657E+03  0.22710281876E+03 -0.43133558262E+02  0.51209676757E+03  0.39711810397E+03 0.  0.
    9000005    1    3    3    0    0  0.12128508730E+02  0.25702283515E+03  0.72161668475E+02  0.26723799300E+03  0.99999687468E+00 0.  0.
          4    1    3    3  501    0  0.21393368784E+03 -0.29920016398E+02 -0.11529522674E+03  0.24485877457E+03  0.00000000000E+00 0.  1.
   -9000007    1    1    2    0  503 -0.22606219657E+03 -0.22710281876E+03 -0.49085769800E+03  0.70966265696E+03  0.40000000000E+03 0.  1.
<mgrwt>
<rscale>  2 0.51196056E+03</rscale>
<asrwt>0</asrwt>
<pdfrwt beam="1">  1       21 0.52905243E-01 0.51252298E+03</pdfrwt>
<pdfrwt beam="2">  1       21 0.13505775E+00 0.51252298E+03</pdfrwt>
<totfact> 0.11006780E+03</totfact>
</mgrwt>
</event>
<event>
 6    1  0.9094387E-004  0.4004402E+03  0.7818608E-02  0.1043667E+00
         21   -1    0    0  501  502  0.00000000000E+00  0.00000000000E+00  0.15586373465E+04  0.15586373465E+04  0.00000000000E+00 0.  1.
         21   -1    0    0  502  503 -0.00000000000E+00 -0.00000000000E+00 -0.15683742394E+03  0.15683742394E+03  0.00000000000E+00 0.  1.
    9000007    2    1    2  501    0  0.68317778877E+01 -0.17483803275E+02  0.12042837532E+04  0.12689716979E+04  0.39954656225E+03 0.  0.
    9000005    1    3    3    0    0  0.52188320650E+02 -0.17406576881E+03  0.30501166627E+03  0.35504313715E+03  0.99999687468E+00 0.  0.
          4    1    3    3  501    0 -0.45356542762E+02  0.15658196554E+03  0.89927208693E+03  0.91392856079E+03  0.00000000000E+00 0.  1.
   -9000007    1    1    2    0  503 -0.68317778877E+01  0.17483803275E+02  0.19751616931E+03  0.44650307245E+03  0.40000000000E+03 0.  1.
<mgrwt>
<rscale>  2 0.40032692E+03</rscale>
<asrwt>0</asrwt>
<pdfrwt beam="1">  1       21 0.23979035E+00 0.40044020E+03</pdfrwt>
<pdfrwt beam="2">  1       21 0.24128835E-01 0.40044020E+03</pdfrwt>
<totfact> 0.10474915E+03</totfact>
</mgrwt>
</event>
<event>
 6    1  0.9094387E-004  0.4756025E+03  0.7818608E-02  0.1020465E+00
         21   -1    0    0  501  502  0.00000000000E+00  0.00000000000E+00  0.32376701850E+03  0.32376701850E+03  0.00000000000E+00 0.  1.
         21   -1    0    0  502  503 -0.00000000000E+00 -0.00000000000E+00 -0.70366596134E+03  0.70366596134E+03  0.00000000000E+00 0.  1.
    9000007    2    1    2  501    0 -0.24656659191E+03  0.73502762196E+02 -0.13681285990E+03  0.49330885193E+03  0.39804286762E+03 0.  0.
    9000005    1    3    3    0    0 -0.14288905330E+02 -0.13328480510E+03  0.34275540366E+02  0.13836482482E+03  0.99999687468E+00 0.  0.
          4    1    3    3  501    0 -0.23227768658E+03  0.20678756730E+03 -0.17108840027E+03  0.35494402711E+03  0.00000000000E+00 0.  1.
   -9000007    1    1    2    0  503  0.24656659191E+03 -0.73502762196E+02 -0.24308608294E+03  0.53412412791E+03  0.40000000000E+03 0.  1.
<mgrwt>
<rscale>  2 0.47519076E+03</rscale>
<asrwt>0</asrwt>
<pdfrwt beam="1">  1       21 0.49810311E-01 0.47560250E+03</pdfrwt>
<pdfrwt beam="2">  1       21 0.10825630E+00 0.47560250E+03</pdfrwt>
<totfact> 0.22311223E+03</totfact>
</mgrwt>
</event>
<event>
 6    1  0.9094387E-004  0.5011347E+03  0.7818608E-02  0.1013485E+00
         21   -1    0    0  501  502  0.00000000000E+00  0.00000000000E+00  0.76264312150E+03  0.76264312150E+03  0.00000000000E+00 0.  1.
         21   -1    0    0  502  503 -0.00000000000E+00 -0.00000000000E+00 -0.37735156424E+03  0.37735156424E+03  0.00000000000E+00 0.  1.
    9000007    2    1    2  501    0 -0.24537912449E+03 -0.17578810162E+03  0.39609031217E+03  0.63876720792E+03  0.40002954780E+03 0.  0.
    9000005    1    3    3    0    0 -0.12357468550E+03  0.11609497689E+03  0.66949934246E+02  0.18229657222E+03  0.99999687468E+00 0.  0.
          4    1    3    3  501    0 -0.12180443900E+03 -0.29188307851E+03  0.32914037792E+03  0.45647063570E+03  0.00000000000E+00 0.  1.
   -9000007    1    1    2    0  503  0.24537912449E+03  0.17578810162E+03 -0.10798754906E+02  0.50122747781E+03  0.40000000000E+03 0.  1.
<mgrwt>
<rscale>  2 0.50112883E+03</rscale>
<asrwt>0</asrwt>
<pdfrwt beam="1">  1       21 0.11732971E+00 0.50113472E+03</pdfrwt>
<pdfrwt beam="2">  1       21 0.58054087E-01 0.50113472E+03</pdfrwt>
<totfact> 0.12998226E+03</totfact>
</mgrwt>
</event>
<event>
 6    1  0.9094387E-004  0.4336579E+03  0.7818608E-02  0.1032715E+00
         21   -1    0    0  501  502  0.00000000000E+00  0.00000000000E+00  0.37209726134E+03  0.37209726134E+03  0.00000000000E+00 0. -1.
         21   -1    0    0  502  503 -0.00000000000E+00 -0.00000000000E+00 -0.79064913243E+03  0.79064913243E+03  0.00000000000E+00 0. -1.
    9000007    2    1    2  501    0 -0.28892895788E+02  0.16499797907E+03  0.13996611351E+03  0.45563857198E+03  0.39994607489E+03 0.  0.
    9000005    1    3    3    0    0 -0.10950520958E+03  0.25135962140E+03  0.18329546394E+03  0.32980490792E+03  0.99999687468E+00 0.  0.
          4    1    3    3  501    0  0.80612313796E+02 -0.86361642325E+02 -0.43329350433E+02  0.12583366405E+03  0.00000000000E+00 0.  1.
   -9000007    1    1    2    0  503  0.28892895788E+02 -0.16499797907E+03 -0.55851798460E+03  0.70710782179E+03  0.40000000000E+03 0. -1.
<mgrwt>
<rscale>  2 0.43364542E+03</rscale>
<asrwt>0</asrwt>
<pdfrwt beam="1">  1       21 0.57245733E-01 0.43365785E+03</pdfrwt>
<pdfrwt beam="2">  1       21 0.12163833E+00 0.43365785E+03</pdfrwt>
<totfact> 0.12554436E+03</totfact>
</mgrwt>
</event>
<event>
 6    1  0.9094387E-004  0.7270333E+03  0.7818608E-02  0.9672228E-01
         21   -1    0    0  501  502  0.00000000000E+00  0.00000000000E+00  0.30604781285E+04  0.30604781285E+04  0.00000000000E+00 0. -1.
         21   -1    0    0  502  503 -0.00000000000E+00 -0.00000000000E+00 -0.23966248859E+03  0.23966248859E+03  0.00000000000E+00 0. -1.
    9000007    2    1    2  501    0 -0.47631208131E+03 -0.37576755434E+03  0.53798026334E+03  0.90443366294E+03  0.40062829808E+03 0.  0.
    9000005    1    3    3    0    0 -0.34589708620E+03 -0.33301365253E+03  0.16615193239E+03  0.50808498467E+03  0.99999687468E+00 0.  0.
          4    1    3    3  501    0 -0.13041499510E+03 -0.42753901804E+02  0.37182833095E+03  0.39634867827E+03  0.00000000000E+00 0.  1.
   -9000007    1    1    2    0  503  0.47631208131E+03  0.37576755434E+03  0.22828353766E+04  0.23957069542E+04  0.40000000000E+03 0. -1.
<mgrwt>
<rscale>  2 0.72694682E+03</rscale>
<asrwt>0</asrwt>
<pdfrwt beam="1">  1       21 0.47084276E+00 0.72703335E+03</pdfrwt>
<pdfrwt beam="2">  1       21 0.36871154E-01 0.72703335E+03</pdfrwt>
<totfact> 0.13081103E+01</totfact>
</mgrwt>
</event>
<event>
 6    1  0.9094387E-004  0.5370445E+03  0.7818608E-02  0.1004542E+00
         21   -1    0    0  501  502  0.00000000000E+00  0.00000000000E+00  0.40710922091E+03  0.40710922091E+03  0.00000000000E+00 0. -1.
         21   -1    0    0  502  503 -0.00000000000E+00 -0.00000000000E+00 -0.85981684731E+03  0.85981684731E+03  0.00000000000E+00 0. -1.
    9000007    2    1    2  501    0 -0.34323453537E+03  0.10298980351E+03 -0.49221113528E+03  0.72843059646E+03  0.39990309610E+03 0.  0.
    9000005    1    3    3    0    0 -0.21159106185E+03 -0.13245768251E+03 -0.32957555475E+03  0.41344511291E+03  0.99999687468E+00 0.  0.
          4    1    3    3  501    0 -0.13164347352E+03  0.23544748601E+03 -0.16263558053E+03  0.31498548354E+03  0.00000000000E+00 0.  1.
   -9000007    1    1    2    0  503  0.34323453537E+03 -0.10298980351E+03  0.39503508873E+02  0.53849547176E+03  0.40000000000E+03 0. -1.
<mgrwt>
<rscale>  2 0.53702650E+03</rscale>
<asrwt>0</asrwt>
<pdfrwt beam="1">  1       21 0.62632189E-01 0.53704455E+03</pdfrwt>
<pdfrwt beam="2">  1       21 0.13227951E+00 0.53704455E+03</pdfrwt>
<totfact> 0.79704471E+02</totfact>
</mgrwt>
</event>
<event>
 6    1  0.9094387E-004  0.5019269E+03  0.7818608E-02  0.1013292E+00
         21   -1    0    0  501  502  0.00000000000E+00  0.00000000000E+00  0.81901252458E+03  0.81901252458E+03  0.00000000000E+00 0.  1.
         21   -1    0    0  502  503 -0.00000000000E+00 -0.00000000000E+00 -0.30834231678E+03  0.30834231678E+03  0.00000000000E+00 0. -1.
    9000007    2    1    2  501    0 -0.15121297211E+03  0.26280271348E+03  0.28544173978E+03  0.57721077663E+03  0.39970572263E+03 0.  0.
    9000005    1    3    3    0    0 -0.28088300086E+03  0.16283724137E+03  0.24979412377E+03  0.40964537299E+03  0.99999687468E+00 0.  0.
          4    1    3    3  501    0  0.12967002874E+03  0.99965472106E+02  0.35647616004E+02  0.16756540363E+03  0.00000000000E+00 0.  1.
   -9000007    1    1    2    0  503  0.15121297211E+03 -0.26280271348E+03  0.22522846802E+03  0.55014406473E+03  0.40000000000E+03 0.  1.
<mgrwt>
<rscale>  2 0.50186828E+03</rscale>
<asrwt>0</asrwt>
<pdfrwt beam="1">  1       21 0.12600193E+00 0.50192692E+03</pdfrwt>
<pdfrwt beam="2">  1       21 0.47437280E-01 0.50192692E+03</pdfrwt>
<totfact> 0.16707997E+03</totfact>
</mgrwt>
</event>
<event>
 6    1  0.9094387E-004  0.4214566E+03  0.7818608E-02  0.1036601E+00
         21   -1    0    0  501  502  0.00000000000E+00  0.00000000000E+00  0.16148928504E+03  0.16148928504E+03  0.00000000000E+00 0. -1.
         21   -1    0    0  502  503 -0.00000000000E+00 -0.00000000000E+00 -0.12541120384E+04  0.12541120384E+04  0.00000000000E+00 0. -1.
    9000007    2    1    2  501    0  0.12403591577E+03  0.47336810296E+02 -0.29786721265E+03  0.51601138825E+03  0.39989647964E+03 0.  0.
    9000005    1    3    3    0    0  0.24269783925E+03  0.88132163269E+02 -0.90445642016E+02  0.27358898650E+03  0.99999687468E+00 0.  0.
          4    1    3    3  501    0 -0.11866192348E+03 -0.40795352974E+02 -0.20742157063E+03  0.24242240175E+03  0.00000000000E+00 0.  1.
   -9000007    1    1    2    0  503 -0.12403591577E+03 -0.47336810296E+02 -0.79475554067E+03  0.89958993516E+03  0.40000000000E+03 0. -1.
<mgrwt>
<rscale>  2 0.42143206E+03</rscale>
<asrwt>0</asrwt>
<pdfrwt beam="1">  1       21 0.24844505E-01 0.42145662E+03</pdfrwt>
<pdfrwt beam="2">  1       21 0.19294032E+00 0.42145662E+03</pdfrwt>
<totfact> 0.19605863E+03</totfact>
</mgrwt>
</event>
<event>
 6    1  0.9094387E-004  0.6787027E+03  0.7818608E-02  0.9754976E-01
         21   -1    0    0  501  502  0.00000000000E+00  0.00000000000E+00  0.47640802171E+03  0.47640802171E+03  0.00000000000E+00 0.  1.
         21   -1    0    0  502  503 -0.00000000000E+00 -0.00000000000E+00 -0.98938354520E+03  0.98938354520E+03  0.00000000000E+00 0. -1.
    9000007    2    1    2  501    0 -0.53614995424E+03 -0.10636027275E+03 -0.37195057461E+03  0.77394092027E+03  0.40232827029E+03 0.  0.
    9000005    1    3    3    0    0  0.37867254249E+02 -0.38387184828E+02 -0.14192329356E+03  0.15182465594E+03  0.99999687468E+00 0.  0.
          4    1    3    3  501    0 -0.57401720849E+03 -0.67973087923E+02 -0.23002728105E+03  0.62211626433E+03  0.00000000000E+00 0.  1.
   -9000007    1    1    2    0  503  0.53614995424E+03  0.10636027275E+03 -0.14102494888E+03  0.69185064664E+03  0.40000000000E+03 0. -1.
<mgrwt>
<rscale>  2 0.67835802E+03</rscale>
<asrwt>0</asrwt>
<pdfrwt beam="1">  1       21 0.73293542E-01 0.67870267E+03</pdfrwt>
<pdfrwt beam="2">  1       21 0.15221285E+00 0.67870267E+03</pdfrwt>
<totfact> 0.36566177E+02</totfact>
</mgrwt>
</event>
<event>
 6    1  0.9094387E-004  0.4444276E+03  0.7818608E-02  0.1029399E+00
         21   -1    0    0  501  502  0.00000000000E+00  0.00000000000E+00  0.26032445970E+03  0.26032445970E+03  0.00000000000E+00 0.  1.
         21   -1    0    0  502  503 -0.00000000000E+00 -0.00000000000E+00 -0.83560804354E+03  0.83560804354E+03  0.00000000000E+00 0.  1.
    9000007    2    1    2  501    0  0.17009835118E+03  0.92497483214E+02 -0.12138619224E+03  0.46070649970E+03  0.40003329577E+03 0.  0.
    9000005    1    3    3    0    0  0.85201127597E+02 -0.11811048728E+03 -0.17471322417E+03  0.22745335795E+03  0.99999687468E+00 0.  0.
          4    1    3    3  501    0  0.84897223582E+02  0.21060797049E+03  0.53327031927E+02  0.23325314176E+03  0.00000000000E+00 0.  1.
   -9000007    1    1    2    0  503 -0.17009835118E+03 -0.92497483214E+02 -0.45389739160E+03  0.63522600354E+03  0.40000000000E+03 0.  1.
<mgrwt>
<rscale>  2 0.44442008E+03</rscale>
<asrwt>0</asrwt>
<pdfrwt beam="1">  1       21 0.40049917E-01 0.44442758E+03</pdfrwt>
<pdfrwt beam="2">  1       21 0.12855508E+00 0.44442758E+03</pdfrwt>
<totfact> 0.23072174E+03</totfact>
</mgrwt>
</event>
<event>
 6    1  0.9094387E-004  0.5999117E+03  0.7818608E-02  0.9905647E-01
         21   -1    0    0  501  502  0.00000000000E+00  0.00000000000E+00  0.41970176135E+03  0.41970176135E+03  0.00000000000E+00 0. -1.
         21   -1    0    0  502  503 -0.00000000000E+00 -0.00000000000E+00 -0.18320350650E+04  0.18320350650E+04  0.00000000000E+00 0. -1.
    9000007    2    1    2  501    0  0.41358265728E+03  0.16943967314E+03  0.11501425358E+03  0.61083738464E+03  0.40016698353E+03 0.  0.
    9000005    1    3    3    0    0  0.70601738091E+02  0.18787451397E+03 -0.79768159189E+02  0.21597545610E+03  0.99999687468E+00 0.  0.
          4    1    3    3  501    0  0.34298091919E+03 -0.18434840830E+02  0.19478241277E+03  0.39486192854E+03  0.00000000000E+00 0.  1.
   -9000007    1    1    2    0  503 -0.41358265728E+03 -0.16943967314E+03 -0.15273475572E+04  0.16408994417E+04  0.40000000000E+03 0. -1.
<mgrwt>
<rscale>  2 0.59988384E+03</rscale>
<asrwt>0</asrwt>
<pdfrwt beam="1">  1       21 0.64569502E-01 0.59991169E+03</pdfrwt>
<pdfrwt beam="2">  1       21 0.28185155E+00 0.59991169E+03</pdfrwt>
<totfact> 0.68285783E+01</totfact>
</mgrwt>
</event>
<event>
 6    1  0.9094387E-004  0.5474203E+03  0.7818608E-02  0.1002135E+00
         21   -1    0    0  501  502  0.00000000000E+00  0.00000000000E+00  0.16540720091E+03  0.16540720091E+03  0.00000000000E+00 0. -1.
         21   -1    0    0  502  503 -0.00000000000E+00 -0.00000000000E+00 -0.18788824682E+04  0.18788824682E+04  0.00000000000E+00 0.  1.
    9000007    2    1    2  501    0 -0.90240027067E+02 -0.36266476054E+03 -0.65950355421E+03  0.85663426328E+03  0.39900918785E+03 0.  0.
    9000005    1    3    3    0    0  0.93256074449E+02 -0.33592512765E+03 -0.51328039517E+03  0.62048380388E+03  0.99999687468E+00 0.  0.
          4    1    3    3  501    0 -0.18349610152E+03 -0.26739632886E+02 -0.14622315903E+03  0.23615045940E+03  0.00000000000E+00 0.  1.
   -9000007    1    1    2    0  503  0.90240027067E+02  0.36266476054E+03 -0.10539717130E+04  0.11876554058E+04  0.40000000000E+03 0. -1.
<mgrwt>
<rscale>  2 0.54723932E+03</rscale>
<asrwt>0</asrwt>
<pdfrwt beam="1">  1       21 0.25447261E-01 0.54742031E+03</pdfrwt>
<pdfrwt beam="2">  1       21 0.28905885E+00 0.54742031E+03</pdfrwt>
<totfact> 0.43935164E+02</totfact>
</mgrwt>
</event>
<event>
 6    1  0.9094387E-004  0.4749234E+03  0.7818608E-02  0.1020549E+00
         21   -1    0    0  501  502  0.00000000000E+00  0.00000000000E+00  0.18418853405E+03  0.18418853405E+03  0.00000000000E+00 0. -1.
         21   -1    0    0  502  503 -0.00000000000E+00 -0.00000000000E+00 -0.18502478493E+04  0.18502478493E+04  0.00000000000E+00 0.  1.
    9000007    2    1    2  501    0 -0.21523201088E+03 -0.13818968554E+03 -0.14248035646E+04  0.15018713217E+04  0.40016379340E+03 0.  0.
    9000005    1    3    3    0    0 -0.15125026441E+03  0.12749793294E+03 -0.50628560945E+03  0.54356092917E+03  0.99999687468E+00 0.  0.
          4    1    3    3  501    0 -0.63981746468E+02 -0.26568761848E+03 -0.91851795512E+03  0.95831039250E+03  0.00000000000E+00 0.  1.
   -9000007    1    1    2    0  503  0.21523201088E+03  0.13818968554E+03 -0.24125575070E+03  0.53256506170E+03  0.40000000000E+03 0. -1.
<mgrwt>
<rscale>  2 0.47488893E+03</rscale>
<asrwt>0</asrwt>
<pdfrwt beam="1">  1       21 0.28336698E-01 0.47492344E+03</pdfrwt>
<pdfrwt beam="2">  1       21 0.28465351E+00 0.47492344E+03</pdfrwt>
<totfact> 0.39187792E+02</totfact>
</mgrwt>
</event>
<event>
 6    1  0.9094387E-004  0.4243344E+03  0.7818608E-02  0.1035757E+00
         21   -1    0    0  501  502  0.00000000000E+00  0.00000000000E+00  0.15491979858E+03  0.15491979858E+03  0.00000000000E+00 0. -1.
         21   -1    0    0  502  503 -0.00000000000E+00 -0.00000000000E+00 -0.13767344591E+04  0.13767344591E+04  0.00000000000E+00 0. -1.
    9000007    2    1    2  501    0  0.46522995266E+02  0.13377335559E+03 -0.30573730266E+03  0.52207146001E+03  0.39877764652E+03 0.  0.
    9000005    1    3    3    0    0 -0.36385322720E+01  0.58416935039E+02  0.94807954026E+02  0.11142407889E+03  0.99999687468E+00 0.  0.
          4    1    3    3  501    0  0.50161527538E+02  0.75356420548E+02 -0.40054525669E+03  0.41064738112E+03  0.00000000000E+00 0.  1.
   -9000007    1    1    2    0  503 -0.46522995266E+02 -0.13377335559E+03 -0.91607735783E+03  0.10095827976E+04  0.40000000000E+03 0. -1.
<mgrwt>
<rscale>  2 0.42404611E+03</rscale>
<asrwt>0</asrwt>
<pdfrwt beam="1">  1       21 0.23833816E-01 0.42433442E+03</pdfrwt>
<pdfrwt beam="2">  1       21 0.21180529E+00 0.42433442E+03</pdfrwt>
<totfact> 0.15918595E+03</totfact>
</mgrwt>
</event>
<event>
 6    1  0.9094387E-004  0.5222071E+03  0.7818608E-02  0.1008153E+00
         21   -1    0    0  501  502  0.00000000000E+00  0.00000000000E+00  0.30061879884E+03  0.30061879884E+03  0.00000000000E+00 0. -1.
         21   -1    0    0  502  503 -0.00000000000E+00 -0.00000000000E+00 -0.18282430706E+04  0.18282430706E+04  0.00000000000E+00 0.  1.
    9000007    2    1    2  501    0 -0.15887635859E+03  0.29573400707E+03 -0.80451693510E+01  0.52205729242E+03  0.39972339380E+03 0.  0.
    9000005    1    3    3    0    0  0.64163283893E+02  0.16309944590E+03  0.13908716060E+03  0.22375118880E+03  0.99999687468E+00 0.  0.
          4    1    3    3  501    0 -0.22303964248E+03  0.13263456117E+03 -0.14713232995E+03  0.29830610361E+03  0.00000000000E+00 0.  1.
   -9000007    1    1    2    0  503  0.15887635859E+03 -0.29573400707E+03 -0.15195791025E+04  0.16068045771E+04  0.40000000000E+03 0.  1.
<mgrwt>
<rscale>  2 0.52215417E+03</rscale>
<asrwt>0</asrwt>
<pdfrwt beam="1">  1       21 0.46249046E-01 0.52220714E+03</pdfrwt>
<pdfrwt beam="2">  1       21 0.28126816E+00 0.52220714E+03</pdfrwt>
<totfact> 0.14756746E+02</totfact>
</mgrwt>
</event>
<event>
 6    1  0.9094387E-004  0.4244244E+03  0.7818608E-02  0.1035654E+00
         21   -1    0    0  501  502  0.00000000000E+00  0.00000000000E+00  0.17109551845E+03  0.17109551845E+03  0.00000000000E+00 0.  1.
         21   -1    0    0  502  503 -0.00000000000E+00 -0.00000000000E+00 -0.10588102699E+04  0.10588102699E+04  0.00000000000E+00 0.  1.
    9000007    2    1    2  501    0 -0.13893127573E+03  0.28882188060E+02 -0.39542439898E+03  0.57991665666E+03  0.39975841855E+03 0.  0.
    9000005    1    3    3    0    0 -0.79627684830E+02  0.19944915626E+03 -0.31733111906E+03  0.38317172813E+03  0.99999687468E+00 0.  0.
          4    1    3    3  501    0 -0.59303590899E+02 -0.17056696820E+03 -0.78093279917E+02  0.19674492853E+03  0.00000000000E+00 0.  1.
   -9000007    1    1    2    0  503  0.13893127573E+03 -0.28882188060E+02 -0.49229035242E+03  0.64998913164E+03  0.40000000000E+03 0. -1.
<mgrwt>
<rscale>  2 0.42436748E+03</rscale>
<asrwt>0</asrwt>
<pdfrwt beam="1">  1       21 0.26322388E-01 0.42442441E+03</pdfrwt>
<pdfrwt beam="2">  1       21 0.16289389E+00 0.42442441E+03</pdfrwt>
<totfact> 0.28569212E+03</totfact>
</mgrwt>
</event>
<event>
 6    1  0.9094387E-004  0.4544838E+03  0.7818608E-02  0.1026396E+00
         21   -1    0    0  501  502  0.00000000000E+00  0.00000000000E+00  0.93994944957E+03  0.93994944957E+03  0.00000000000E+00 0. -1.
         21   -1    0    0  502  503 -0.00000000000E+00 -0.00000000000E+00 -0.38470454323E+03  0.38470454323E+03  0.00000000000E+00 0. -1.
    9000007    2    1    2  501    0 -0.21188688293E+03 -0.40304234973E+02  0.71135292432E+03  0.84414364349E+03  0.40004377934E+03 0.  0.
    9000005    1    3    3    0    0  0.60273567803E+02  0.49234269314E+02  0.44889200753E+03  0.45558967357E+03  0.99999687468E+00 0.  0.
          4    1    3    3  501    0 -0.27216045074E+03 -0.89538504287E+02  0.26246091679E+03  0.38855396992E+03  0.00000000000E+00 0.  1.
   -9000007    1    1    2    0  503  0.21188688293E+03  0.40304234973E+02 -0.15610801798E+03  0.48051034931E+03  0.40000000000E+03 0. -1.
<mgrwt>
<rscale>  2 0.45447415E+03</rscale>
<asrwt>0</asrwt>
<pdfrwt beam="1">  1       21 0.14460761E+00 0.45448378E+03</pdfrwt>
<pdfrwt beam="2">  1       21 0.59185315E-01 0.45448378E+03</pdfrwt>
<totfact> 0.73626909E+02</totfact>
</mgrwt>
</event>
<event>
 6    1  0.9094387E-004  0.4277630E+03  0.7818608E-02  0.1034587E+00
         21   -1    0    0  501  502  0.00000000000E+00  0.00000000000E+00  0.15312756761E+03  0.15312756761E+03  0.00000000000E+00 0. -1.
         21   -1    0    0  502  503 -0.00000000000E+00 -0.00000000000E+00 -0.11951490384E+04  0.11951490384E+04  0.00000000000E+00 0. -1.
    9000007    2    1    2  501    0  0.36458803532E+02 -0.14714590160E+03 -0.50329062478E+03  0.66037248103E+03  0.39976142886E+03 0.  0.
    9000005    1    3    3    0    0  0.20537978201E+03 -0.90503569147E+02 -0.16682995245E+03  0.27965154016E+03  0.99999687468E+00 0.  0.
          4    1    3    3  501    0 -0.16892097848E+03 -0.56642332456E+02 -0.33646067233E+03  0.38072094087E+03  0.00000000000E+00 0.  1.
   -9000007    1    1    2    0  503 -0.36458803532E+02  0.14714590160E+03 -0.53873084602E+03  0.68790412499E+03  0.40000000000E+03 0. -1.
<mgrwt>
<rscale>  2 0.42770719E+03</rscale>
<asrwt>0</asrwt>
<pdfrwt beam="1">  1       21 0.23558087E-01 0.42776297E+03</pdfrwt>
<pdfrwt beam="2">  1       21 0.18386908E+00 0.42776297E+03</pdfrwt>
<totfact> 0.25008972E+03</totfact>
</mgrwt>
</event>
<event>
 6    1  0.9094387E-004  0.4286765E+03  0.7818608E-02  0.1034343E+00
         21   -1    0    0  501  502  0.00000000000E+00  0.00000000000E+00  0.35601769569E+03  0.35601769569E+03  0.00000000000E+00 0. -1.
         21   -1    0    0  502  503 -0.00000000000E+00 -0.00000000000E+00 -0.12282395564E+04  0.12282395564E+04  0.00000000000E+00 0. -1.
    9000007    2    1    2  501    0 -0.10692218326E+03  0.11104584524E+03  0.16761048155E+03  0.45952847010E+03  0.39913607741E+03 0.  0.
    9000005    1    3    3    0    0 -0.17184148108E+01  0.18785931752E+03  0.24444141185E+03  0.30829641572E+03  0.99999687468E+00 0.  0.
          4    1    3    3  501    0 -0.10520376845E+03 -0.76813472284E+02 -0.76830930296E+02  0.15123205438E+03  0.00000000000E+00 0.  1.
   -9000007    1    1    2    0  503  0.10692218326E+03 -0.11104584524E+03 -0.10398323422E+04  0.11247287820E+04  0.40000000000E+03 0. -1.
<mgrwt>
<rscale>  2 0.42847484E+03</rscale>
<asrwt>0</asrwt>
<pdfrwt beam="1">  1       21 0.54771953E-01 0.42867649E+03</pdfrwt>
<pdfrwt beam="2">  1       21 0.18895993E+00 0.42867649E+03</pdfrwt>
<totfact> 0.41457491E+02</totfact>
</mgrwt>
</event>
<event>
 6    1  0.9094387E-004  0.4122075E+03  0.7818608E-02  0.1039651E+00
         21   -1    0    0  501  502  0.00000000000E+00  0.00000000000E+00  0.16023766841E+03  0.16023766841E+03  0.00000000000E+00 0. -1.
         21   -1    0    0  502  503 -0.00000000000E+00 -0.00000000000E+00 -0.15005555471E+04  0.15005555471E+04  0.00000000000E+00 0. -1.
    9000007    2    1    2  501    0 -0.95373194578E+02 -0.25281739098E+02 -0.22025335472E+03  0.46736129437E+03  0.40022472016E+03 0.  0.
    9000005    1    3    3    0    0 -0.45681681180E+02 -0.20028508789E+03 -0.36241980699E+02  0.20860348412E+03  0.99999687468E+00 0.  0.
          4    1    3    3  501    0 -0.49691513398E+02  0.17500334880E+03 -0.18401137402E+03  0.25875781025E+03  0.00000000000E+00 0.  1.
   -9000007    1    1    2    0  503  0.95373194578E+02  0.25281739098E+02 -0.11200645240E+04  0.11934319212E+04  0.40000000000E+03 0. -1.
<mgrwt>
<rscale>  2 0.41215296E+03</rscale>
<asrwt>0</asrwt>
<pdfrwt beam="1">  1       21 0.24651949E-01 0.41220752E+03</pdfrwt>
<pdfrwt beam="2">  1       21 0.23085470E+00 0.41220752E+03</pdfrwt>
<totfact> 0.11347250E+03</totfact>
</mgrwt>
</event>
<event>
 6    1  0.9094387E-004  0.4574661E+03  0.7818608E-02  0.1025571E+00
         21   -1    0    0  501  502  0.00000000000E+00  0.00000000000E+00  0.92306384295E+03  0.92306384295E+03  0.00000000000E+00 0. -1.
         21   -1    0    0  502  503 -0.00000000000E+00 -0.00000000000E+00 -0.41841640738E+03  0.41841640738E+03  0.00000000000E+00 0.  1.
    9000007    2    1    2  501    0  0.20120501712E+03  0.90183510630E+02  0.70685715942E+03  0.84197519838E+03  0.40082248734E+03 0.  0.
    9000005    1    3    3    0    0  0.28995772523E+03  0.14722497680E+03  0.63768912294E+03  0.71582057369E+03  0.99999687468E+00 0.  0.
          4    1    3    3  501    0 -0.88752708113E+02 -0.57041466166E+02  0.69168036484E+02  0.12615462469E+03  0.00000000000E+00 0.  1.
   -9000007    1    1    2    0  503 -0.20120501712E+03 -0.90183510630E+02 -0.20220972385E+03  0.49950505195E+03  0.40000000000E+03 0.  1.
<mgrwt>
<rscale>  2 0.45728583E+03</rscale>
<asrwt>0</asrwt>
<pdfrwt beam="1">  1       21 0.14200982E+00 0.45746605E+03</pdfrwt>
<pdfrwt beam="2">  1       21 0.64371755E-01 0.45746605E+03</pdfrwt>
<totfact> 0.64150526E+02</totfact>
</mgrwt>
</event>
<event>
 6    1  0.9094387E-004  0.5981164E+03  0.7818608E-02  0.9909448E-01
         21   -1    0    0  501  502  0.00000000000E+00  0.00000000000E+00  0.13081453183E+04  0.13081453183E+04  0.00000000000E+00 0.  1.
         21   -1    0    0  502  503 -0.00000000000E+00 -0.00000000000E+00 -0.28454295968E+03  0.28454295968E+03  0.00000000000E+00 0. -1.
    9000007    2    1    2  501    0 -0.42942320030E+03  0.11549455224E+03  0.66955546356E+03  0.89763973258E+03  0.39963645251E+03 0.  0.
    9000005    1    3    3    0    0 -0.38118712330E+03  0.15569069689E+03  0.71155155370E+03  0.82210086342E+03  0.99999687468E+00 0.  0.
          4    1    3    3  501    0 -0.48236076994E+02 -0.40196144651E+02 -0.41996090134E+02  0.75538869168E+02  0.00000000000E+00 0.  1.
   -9000007    1    1    2    0  503  0.42942320030E+03 -0.11549455224E+03  0.35404689505E+03  0.69504854539E+03  0.40000000000E+03 0. -1.
<mgrwt>
<rscale>  2 0.59805566E+03</rscale>
<asrwt>0</asrwt>
<pdfrwt beam="1">  1       21 0.20125312E+00 0.59811644E+03</pdfrwt>
<pdfrwt beam="2">  1       21 0.43775841E-01 0.59811644E+03</pdfrwt>
<totfact> 0.51206302E+02</totfact>
</mgrwt>
</event>
<event>
 6    1  0.9094387E-004  0.5358264E+03  0.7818608E-02  0.1004839E+00
         21   -1    0    0  501  502  0.00000000000E+00  0.00000000000E+00  0.14142183117E+03  0.14142183117E+03  0.00000000000E+00 0. -1.
         21   -1    0    0  502  503 -0.00000000000E+00 -0.00000000000E+00 -0.24288196272E+04  0.24288196272E+04  0.00000000000E+00 0.  1.
    9000007    2    1    2  501    0 -0.32551225647E+03  0.14543628731E+03 -0.62246366544E+03  0.82120869653E+03  0.39976588860E+03 0.  0.
    9000005    1    3    3    0    0 -0.31621363151E+03 -0.66754530729E+02 -0.36897772767E+03  0.49050259086E+03  0.99999687468E+00 0.  0.
          4    1    3    3  501    0 -0.92986249637E+01  0.21219081804E+03 -0.25348593777E+03  0.33070610567E+03  0.00000000000E+00 0.  1.
   -9000007    1    1    2    0  503  0.32551225647E+03 -0.14543628731E+03 -0.16649341306E+04  0.17490327618E+04  0.40000000000E+03 0.  1.
<mgrwt>
<rscale>  2 0.53578272E+03</rscale>
<asrwt>0</asrwt>
<pdfrwt beam="1">  1       21 0.21757208E-01 0.53582641E+03</pdfrwt>
<pdfrwt beam="2">  1       21 0.37366451E+00 0.53582641E+03</pdfrwt>
<totfact> 0.18123221E+02</totfact>
</mgrwt>
</event>
<event>
 6    1  0.9094387E-004  0.4313711E+03  0.7818608E-02  0.1033437E+00
         21   -1    0    0  501  502  0.00000000000E+00  0.00000000000E+00  0.18433897692E+03  0.18433897692E+03  0.00000000000E+00 0. -1.
         21   -1    0    0  502  503 -0.00000000000E+00 -0.00000000000E+00 -0.10274801805E+04  0.10274801805E+04  0.00000000000E+00 0. -1.
    9000007    2    1    2  501    0 -0.82843176358E+02 -0.13862926430E+03 -0.34064975170E+03  0.54956639298E+03  0.39987485813E+03 0.  0.
    9000005    1    3    3    0    0 -0.13874176068E+03 -0.24524239551E+03 -0.13773689221E+03  0.31363284296E+03  0.99999687468E+00 0.  0.
          4    1    3    3  501    0  0.55898584327E+02  0.10661313121E+03 -0.20291285949E+03  0.23593355002E+03  0.00000000000E+00 0.  1.
   -9000007    1    1    2    0  503  0.82843176358E+02  0.13862926430E+03 -0.50249145188E+03  0.66225276443E+03  0.40000000000E+03 0. -1.
<mgrwt>
<rscale>  2 0.43134213E+03</rscale>
<asrwt>0</asrwt>
<pdfrwt beam="1">  1       21 0.28359842E-01 0.43137115E+03</pdfrwt>
<pdfrwt beam="2">  1       21 0.15807388E+00 0.43137115E+03</pdfrwt>
<totfact> 0.26756552E+03</totfact>
</mgrwt>
</event>
<event>
 6    1  0.9094387E-004  0.4806293E+03  0.7818608E-02  0.1018977E+00
         21   -1    0    0  501  502  0.00000000000E+00  0.00000000000E+00  0.39947072923E+03  0.39947072923E+03  0.00000000000E+00 0.  1.
         21   -1    0    0  502  503 -0.00000000000E+00 -0.00000000000E+00 -0.74149696682E+03  0.74149696682E+03  0.00000000000E+00 0.  1.
    9000007    2    1    2  501    0  0.13109987640E+03 -0.23152999922E+03  0.96828526210E+02  0.49028588299E+03  0.40026386976E+03 0.  0.
    9000005    1    3    3    0    0  0.18738902292E+03 -0.12622690679E+03  0.22238131633E+03  0.31702102100E+03  0.99999687468E+00 0.  0.
          4    1    3    3  501    0 -0.56289146518E+02 -0.10530309243E+03 -0.12555279012E+03  0.17326486199E+03  0.00000000000E+00 0.  1.
   -9000007    1    1    2    0  503 -0.13109987640E+03  0.23152999922E+03 -0.43885476380E+03  0.65068181306E+03  0.40000000000E+03 0.  1.
<mgrwt>
<rscale>  2 0.48057432E+03</rscale>
<asrwt>0</asrwt>
<pdfrwt beam="1">  1       21 0.61457036E-01 0.48062926E+03</pdfrwt>
<pdfrwt beam="2">  1       21 0.11407645E+00 0.48062926E+03</pdfrwt>
<totfact> 0.12403216E+03</totfact>
</mgrwt>
</event>
<event>
 6    1  0.9094387E-004  0.4476725E+03  0.7818608E-02  0.1028455E+00
         21   -1    0    0  501  502  0.00000000000E+00  0.00000000000E+00  0.29563075973E+03  0.29563075973E+03  0.00000000000E+00 0.  1.
         21   -1    0    0  502  503 -0.00000000000E+00 -0.00000000000E+00 -0.75016976356E+03  0.75016976356E+03  0.00000000000E+00 0.  1.
    9000007    2    1    2  501    0 -0.15820637705E+03 -0.12402194391E+03 -0.64046864493E+02  0.45175102098E+03  0.39945748684E+03 0.  0.
    9000005    1    3    3    0    0  0.79714655219E+02 -0.12485284487E+02  0.11010789406E+03  0.13651028135E+03  0.99999687468E+00 0.  0.
          4    1    3    3  501    0 -0.23792103227E+03 -0.11153665942E+03 -0.17415475856E+03  0.31524073963E+03  0.00000000000E+00 0.  1.
   -9000007    1    1    2    0  503  0.15820637705E+03  0.12402194391E+03 -0.39049213934E+03  0.59404950231E+03  0.40000000000E+03 0.  1.
<mgrwt>
<rscale>  2 0.44755132E+03</rscale>
<asrwt>0</asrwt>
<pdfrwt beam="1">  1       21 0.45481656E-01 0.44767254E+03</pdfrwt>
<pdfrwt beam="2">  1       21 0.11541073E+00 0.44767254E+03</pdfrwt>
<totfact> 0.23290728E+03</totfact>
</mgrwt>
</event>
<event>
 6    1  0.9094387E-004  0.6095579E+03  0.7818608E-02  0.9886194E-01
         21   -1    0    0  501  502  0.00000000000E+00  0.00000000000E+00  0.18528815678E+04  0.18528815678E+04  0.00000000000E+00 0.  1.
         21   -1    0    0  502  503 -0.00000000000E+00 -0.00000000000E+00 -0.26653768270E+03  0.26653768270E+03  0.00000000000E+00 0. -1.
    9000007    2    1    2  501    0  0.41079973888E+03 -0.20689230589E+03  0.13212058455E+04  0.14546944716E+04  0.39873583695E+03 0.  0.
    9000005    1    3    3    0    0 -0.25134761590E+02 -0.28149810957E+02  0.54763966921E+03  0.54893931849E+03  0.99999687468E+00 0.  0.
          4    1    3    3  501    0  0.43593450047E+03 -0.17874249493E+03  0.77356617633E+03  0.90575515310E+03  0.00000000000E+00 0.  1.
   -9000007    1    1    2    0  503 -0.41079973888E+03  0.20689230589E+03  0.26513803957E+03  0.66472477893E+03  0.40000000000E+03 0. -1.
<mgrwt>
<rscale>  2 0.60935061E+03</rscale>
<asrwt>0</asrwt>
<pdfrwt beam="1">  1       21 0.28505870E+00 0.60955791E+03</pdfrwt>
<pdfrwt beam="2">  1       21 0.41005798E-01 0.60955791E+03</pdfrwt>
<totfact> 0.17274247E+02</totfact>
</mgrwt>
</event>
<event>
 6    1  0.9094387E-004  0.4160649E+03  0.7818608E-02  0.1038420E+00
         21   -1    0    0  501  502  0.00000000000E+00  0.00000000000E+00  0.13025999869E+04  0.13025999869E+04  0.00000000000E+00 0.  1.
         21   -1    0    0  502  503 -0.00000000000E+00 -0.00000000000E+00 -0.15217511234E+03  0.15217511234E+03  0.00000000000E+00 0.  1.
    9000007    2    1    2  501    0  0.77554122131E+02  0.80198472414E+02  0.83630416074E+03  0.93408492294E+03  0.40082858826E+03 0.  0.
    9000005    1    3    3    0    0 -0.14047523055E+03  0.87154646264E+02  0.18944967060E+03  0.25143866140E+03  0.99999687468E+00 0.  0.
          4    1    3    3  501    0  0.21802935268E+03 -0.69561738496E+01  0.64685449014E+03  0.68264626155E+03  0.00000000000E+00 0.  1.
   -9000007    1    1    2    0  503 -0.77554122131E+02 -0.80198472414E+02  0.31412071383E+03  0.52069017630E+03  0.40000000000E+03 0.  1.
<mgrwt>
<rscale>  2 0.41586520E+03</rscale>
<asrwt>0</asrwt>
<pdfrwt beam="1">  1       21 0.20039999E+00 0.41606489E+03</pdfrwt>
<pdfrwt beam="2">  1       21 0.23411557E-01 0.41606489E+03</pdfrwt>
<totfact> 0.19648858E+03</totfact>
</mgrwt>
</event>
<event>
 6    1  0.9094387E-004  0.7800022E+03  0.7818608E-02  0.9589472E-01
         21   -1    0    0  501  502  0.00000000000E+00  0.00000000000E+00  0.77623270902E+03  0.77623270902E+03  0.00000000000E+00 0.  1.
         21   -1    0    0  502  503 -0.00000000000E+00 -0.00000000000E+00 -0.12763939294E+04  0.12763939294E+04  0.00000000000E+00 0. -1.
    9000007    2    1    2  501    0  0.59658309939E+03  0.30378574162E+03  0.38757510280E+03  0.87098669717E+03  0.40025766083E+03 0.  0.
    9000005    1    3    3    0    0 -0.25438252108E+02  0.13463486721E+02  0.13739218919E+03  0.14037800323E+03  0.99999687468E+00 0.  0.
          4    1    3    3  501    0  0.62202135149E+03  0.29032225490E+03  0.25018291361E+03  0.73060869394E+03  0.00000000000E+00 0.  1.
   -9000007    1    1    2    0  503 -0.59658309939E+03 -0.30378574162E+03 -0.88773632323E+03  0.11816399413E+04  0.40000000000E+03 0. -1.
<mgrwt>
<rscale>  2 0.77996911E+03</rscale>
<asrwt>0</asrwt>
<pdfrwt beam="1">  1       21 0.11942042E+00 0.78000216E+03</pdfrwt>
<pdfrwt beam="2">  1       21 0.19636829E+00 0.78000216E+03</pdfrwt>
<totfact> 0.51473368E+01</totfact>
</mgrwt>
</event>
<event>
 6    1  0.9094387E-004  0.5044296E+03  0.7818608E-02  0.1012639E+00
         21   -1    0    0  501  502  0.00000000000E+00  0.00000000000E+00  0.35120079487E+03  0.35120079487E+03  0.00000000000E+00 0. -1.
         21   -1    0    0  502  503 -0.00000000000E+00 -0.00000000000E+00 -0.73228541380E+03  0.73228541380E+03  0.00000000000E+00 0.  1.
    9000007    2    1    2  501    0  0.14999926995E+02 -0.30695965166E+03 -0.24714855635E+03  0.56157808033E+03  0.39979783122E+03 0.  0.
    9000005    1    3    3    0    0  0.18451002406E+03 -0.23079992204E+03 -0.67487009486E+02  0.30309742565E+03  0.99999687468E+00 0.  0.
          4    1    3    3  501    0 -0.16951009707E+03 -0.76159729621E+02 -0.17966154686E+03  0.25848065468E+03  0.00000000000E+00 0.  1.
   -9000007    1    1    2    0  503 -0.14999926995E+02  0.30695965166E+03 -0.13393606258E+03  0.52190812833E+03  0.40000000000E+03 0. -1.
<mgrwt>
<rscale>  2 0.50438952E+03</rscale>
<asrwt>0</asrwt>
<pdfrwt beam="1">  1       21 0.54030892E-01 0.50442960E+03</pdfrwt>
<pdfrwt beam="2">  1       21 0.11265929E+00 0.50442960E+03</pdfrwt>
<totfact> 0.16801531E+03</totfact>
</mgrwt>
</event>
<event>
 6    1  0.9094387E-004  0.6174861E+03  0.7818608E-02  0.9869845E-01
         21   -1    0    0  501  502  0.00000000000E+00  0.00000000000E+00  0.13055138035E+04  0.13055138035E+04  0.00000000000E+00 0.  1.
         21   -1    0    0  502  503 -0.00000000000E+00 -0.00000000000E+00 -0.29205577142E+03  0.29205577142E+03  0.00000000000E+00 0. -1.
    9000007    2    1    2  501    0  0.45154444635E+03 -0.13189673536E+03  0.49529923993E+03  0.79148169528E+03  0.39979094669E+03 0.  0.
    9000005    1    3    3    0    0  0.31777755118E+03  0.43562346555E+01  0.70201122370E+02  0.32547003916E+03  0.99999687468E+00 0.  0.
          4    1    3    3  501    0  0.13376689516E+03 -0.13625297001E+03  0.42509811756E+03  0.46601165612E+03  0.00000000000E+00 0.  1.
   -9000007    1    1    2    0  503 -0.45154444635E+03  0.13189673536E+03  0.51815879214E+03  0.80608787963E+03  0.40000000000E+03 0.  1.
<mgrwt>
<rscale>  2 0.61745229E+03</rscale>
<asrwt>0</asrwt>
<pdfrwt beam="1">  1       21 0.20084827E+00 0.61748614E+03</pdfrwt>
<pdfrwt beam="2">  1       21 0.44931658E-01 0.61748614E+03</pdfrwt>
<totfact> 0.48451120E+02</totfact>
</mgrwt>
</event>
<event>
 6    1  0.9094387E-004  0.4139983E+03  0.7818608E-02  0.1039134E+00
         21   -1    0    0  501  502  0.00000000000E+00  0.00000000000E+00  0.25717185355E+03  0.25717185355E+03  0.00000000000E+00 0.  1.
         21   -1    0    0  502  503 -0.00000000000E+00 -0.00000000000E+00 -0.69572261157E+03  0.69572261157E+03  0.00000000000E+00 0.  1.
    9000007    2    1    2  501    0 -0.10517657305E+03 -0.18233750542E+02 -0.11819568732E+03  0.42942340335E+03  0.39879776537E+03 0.  0.
    9000005    1    3    3    0    0  0.14296618648E+03  0.41158914774E+02 -0.13319475405E+01  0.14878225976E+03  0.99999687468E+00 0.  0.
          4    1    3    3  501    0 -0.24814275953E+03 -0.59392665316E+02 -0.11686373977E+03  0.28064114359E+03  0.00000000000E+00 0.  1.
   -9000007    1    1    2    0  503  0.10517657305E+03  0.18233750542E+02 -0.32035507071E+03  0.52347106176E+03  0.40000000000E+03 0.  1.
<mgrwt>
<rscale>  2 0.41370761E+03</rscale>
<asrwt>0</asrwt>
<pdfrwt beam="1">  1       21 0.39564900E-01 0.41399829E+03</pdfrwt>
<pdfrwt beam="2">  1       21 0.10703425E+00 0.41399829E+03</pdfrwt>
<totfact> 0.37981725E+03</totfact>
</mgrwt>
</event>
<event>
 6    1  0.9094387E-004  0.4939831E+03  0.7818608E-02  0.1015369E+00
         21   -1    0    0  501  502  0.00000000000E+00  0.00000000000E+00  0.75762882772E+03  0.75762882772E+03  0.00000000000E+00 0.  1.
         21   -1    0    0  502  503 -0.00000000000E+00 -0.00000000000E+00 -0.32555150918E+03  0.32555150918E+03  0.00000000000E+00 0.  1.
    9000007    2    1    2  501    0 -0.14838065128E+03 -0.24878742005E+03  0.15959100853E+03  0.51912290438E+03  0.40013410476E+03 0.  0.
    9000005    1    3    3    0    0 -0.10499195675E+03  0.89513658352E+02  0.10572368943E+03  0.17382319901E+03  0.99999687468E+00 0.  0.
          4    1    3    3  501    0 -0.43388694536E+02 -0.33830107840E+03  0.53867319099E+02  0.34529970537E+03  0.00000000000E+00 0.  1.
   -9000007    1    1    2    0  503  0.14838065128E+03  0.24878742005E+03  0.27248631000E+03  0.56405743252E+03  0.40000000000E+03 0.  1.
<mgrwt>
<rscale>  2 0.49395594E+03</rscale>
<asrwt>0</asrwt>
<pdfrwt beam="1">  1       21 0.11655828E+00 0.49398310E+03</pdfrwt>
<pdfrwt beam="2">  1       21 0.50084848E-01 0.49398310E+03</pdfrwt>
<totfact> 0.18218475E+03</totfact>
</mgrwt>
</event>
<event>
 6    1  0.9094387E-004  0.4393287E+03  0.7818608E-02  0.1030966E+00
         21   -1    0    0  501  502  0.00000000000E+00  0.00000000000E+00  0.43345051395E+03  0.43345051395E+03  0.00000000000E+00 0. -1.
         21   -1    0    0  502  503 -0.00000000000E+00 -0.00000000000E+00 -0.51449304987E+03  0.51449304987E+03  0.00000000000E+00 0. -1.
    9000007    2    1    2  501    0  0.17067065087E+03 -0.61133686231E+02  0.13351506932E+03  0.45916880524E+03  0.40017985869E+03 0.  0.
    9000005    1    3    3    0    0 -0.67492718657E+02 -0.14862982138E+03  0.12447122876E+03  0.20528072890E+03  0.99999687468E+00 0.  0.
          4    1    3    3  501    0  0.23816336953E+03  0.87496135148E+02  0.90438405553E+01  0.25388807633E+03  0.00000000000E+00 0.  1.
   -9000007    1    1    2    0  503 -0.17067065087E+03  0.61133686231E+02 -0.21455760524E+03  0.48877475858E+03  0.40000000000E+03 0. -1.
<mgrwt>
<rscale>  2 0.43928775E+03</rscale>
<asrwt>0</asrwt>
<pdfrwt beam="1">  1       21 0.66684694E-01 0.43932871E+03</pdfrwt>
<pdfrwt beam="2">  1       21 0.79152777E-01 0.43932871E+03</pdfrwt>
<totfact> 0.25293847E+03</totfact>
</mgrwt>
</event>
<event>
 6    1  0.9094387E-004  0.5891801E+03  0.7818608E-02  0.9928586E-01
         21   -1    0    0  501  502  0.00000000000E+00  0.00000000000E+00  0.17736454902E+04  0.17736454902E+04  0.00000000000E+00 0. -1.
         21   -1    0    0  502  503 -0.00000000000E+00 -0.00000000000E+00 -0.58177302439E+03  0.58177302439E+03  0.00000000000E+00 0. -1.
    9000007    2    1    2  501    0  0.36732552238E+03 -0.22617254629E+03  0.15558264545E+04  0.16636493581E+04  0.40131181152E+03 0.  0.
    9000005    1    3    3    0    0  0.39949669389E+03 -0.21946973449E+03  0.91758298906E+03  0.10245604495E+04  0.99999687468E+00 0.  0.
          4    1    3    3  501    0 -0.32171171509E+02 -0.67028118048E+01  0.63824346543E+03  0.63908890862E+03  0.00000000000E+00 0.  1.
   -9000007    1    1    2    0  503 -0.36732552238E+03  0.22617254629E+03 -0.36395398864E+03  0.69176915654E+03  0.40000000000E+03 0. -1.
<mgrwt>
<rscale>  2 0.58895682E+03</rscale>
<asrwt>0</asrwt>
<pdfrwt beam="1">  1       21 0.27286853E+00 0.58918013E+03</pdfrwt>
<pdfrwt beam="2">  1       21 0.89503543E-01 0.58918013E+03</pdfrwt>
<totfact> 0.36707546E+01</totfact>
</mgrwt>
</event>
<event>
 6    1  0.9094387E-004  0.5164586E+03  0.7818608E-02  0.1009626E+00
         21   -1    0    0  501  502  0.00000000000E+00  0.00000000000E+00  0.48919319172E+03  0.48919319172E+03  0.00000000000E+00 0.  1.
         21   -1    0    0  502  503 -0.00000000000E+00 -0.00000000000E+00 -0.79640645194E+03  0.79640645194E+03  0.00000000000E+00 0. -1.
    9000007    2    1    2  501    0 -0.17170373627E+03  0.27627672098E+03  0.20795946140E+03  0.55675539919E+03  0.40114640387E+03 0.  0.
    9000005    1    3    3    0    0  0.11280052795E+03  0.18018887435E+03  0.11868783431E+03  0.24347441663E+03  0.99999687468E+00 0.  0.
          4    1    3    3  501    0 -0.28450426422E+03  0.96087846630E+02  0.89271627091E+02  0.31328098256E+03  0.00000000000E+00 0.  1.
   -9000007    1    1    2    0  503  0.17170373627E+03 -0.27627672098E+03 -0.51517272161E+03  0.72884424447E+03  0.40000000000E+03 0. -1.
<mgrwt>
<rscale>  2 0.51623593E+03</rscale>
<asrwt>0</asrwt>
<pdfrwt beam="1">  1       21 0.75260491E-01 0.51645855E+03</pdfrwt>
<pdfrwt beam="2">  1       21 0.12252407E+00 0.51645855E+03</pdfrwt>
<totfact> 0.64773254E+02</totfact>
</mgrwt>
</event>
<event>
 6    1  0.9094387E-004  0.4226747E+03  0.7818608E-02  0.1036223E+00
         21   -1    0    0  501  502  0.00000000000E+00  0.00000000000E+00  0.25286641822E+03  0.25286641822E+03  0.00000000000E+00 0.  1.
         21   -1    0    0  502  503 -0.00000000000E+00 -0.00000000000E+00 -0.91307168576E+03  0.91307168576E+03  0.00000000000E+00 0. -1.
    9000007    2    1    2  501    0 -0.13563026533E+03  0.35916995104E+01 -0.52588486551E+02  0.42593362986E+03  0.40030668111E+03 0.  0.
    9000005    1    3    3    0    0  0.10227976722E+03 -0.68217613708E+02  0.77598701468E+02  0.14538690473E+03  0.99999687468E+00 0.  0.
          4    1    3    3  501    0 -0.23791003256E+03  0.71809313218E+02 -0.13018718802E+03  0.28054672513E+03  0.00000000000E+00 0.  1.
   -9000007    1    1    2    0  503  0.13563026533E+03 -0.35916995104E+01 -0.60761678099E+03  0.74000447412E+03  0.40000000000E+03 0. -1.
<mgrwt>
<rscale>  2 0.42260208E+03</rscale>
<asrwt>0</asrwt>
<pdfrwt beam="1">  1       21 0.38902526E-01 0.42267471E+03</pdfrwt>
<pdfrwt beam="2">  1       21 0.14047257E+00 0.42267471E+03</pdfrwt>
<totfact> 0.19588601E+03</totfact>
</mgrwt>
</event>
<event>
 6    1  0.9094387E-004  0.4057807E+03  0.7818608E-02  0.1041912E+00
         21   -1    0    0  501  502  0.00000000000E+00  0.00000000000E+00  0.27701634226E+03  0.27701634226E+03  0.00000000000E+00 0. -1.
         21   -1    0    0  502  503 -0.00000000000E+00 -0.00000000000E+00 -0.13385350104E+04  0.13385350104E+04  0.00000000000E+00 0. -1.
    9000007    2    1    2  501    0  0.50053284293E+02 -0.32480452533E+02  0.71934815978E+02  0.41210749783E+03  0.40136973099E+03 0.  0.
    9000005    1    3    3    0    0 -0.95239750712E+02 -0.14653505244E+03  0.13074169877E+03  0.21826021969E+03  0.99999687468E+00 0.  0.
          4    1    3    3  501    0  0.14529303501E+03  0.11405459990E+03 -0.58806882788E+02  0.19384727814E+03  0.00000000000E+00 0.  1.
   -9000007    1    1    2    0  503 -0.50053284293E+02  0.32480452533E+02 -0.11334534841E+04  0.12034438548E+04  0.40000000000E+03 0. -1.
<mgrwt>
<rscale>  2 0.40544157E+03</rscale>
<asrwt>0</asrwt>
<pdfrwt beam="1">  1       21 0.42617899E-01 0.40578069E+03</pdfrwt>
<pdfrwt beam="2">  1       21 0.20592846E+00 0.40578069E+03</pdfrwt>
<totfact> 0.54903031E+02</totfact>
</mgrwt>
</event>
<event>
 6    1  0.9094387E-004  0.5371755E+03  0.7818608E-02  0.1004531E+00
         21   -1    0    0  501  502  0.00000000000E+00  0.00000000000E+00  0.45337606158E+03  0.45337606158E+03  0.00000000000E+00 0. -1.
         21   -1    0    0  502  503 -0.00000000000E+00 -0.00000000000E+00 -0.68172196763E+03  0.68172196763E+03  0.00000000000E+00 0.  1.
    9000007    2    1    2  501    0  0.17132219755E+03 -0.31497017561E+03 -0.26113127813E+03  0.59692297635E+03  0.39946212383E+03 0.  0.
    9000005    1    3    3    0    0 -0.10963621593E+03 -0.43466011242E+02  0.14421877483E+02  0.11882080845E+03  0.99999687468E+00 0.  0.
          4    1    3    3  501    0  0.28095841348E+03 -0.27150416437E+03 -0.27555315562E+03  0.47810216790E+03  0.00000000000E+00 0.  1.
   -9000007    1    1    2    0  503 -0.17132219755E+03  0.31497017561E+03  0.32785372083E+02  0.53817505286E+03  0.40000000000E+03 0. -1.
<mgrwt>
<rscale>  2 0.53707536E+03</rscale>
<asrwt>0</asrwt>
<pdfrwt beam="1">  1       21 0.69750163E-01 0.53717549E+03</pdfrwt>
<pdfrwt beam="2">  1       21 0.10488030E+00 0.53717549E+03</pdfrwt>
<totfact> 0.11296485E+03</totfact>
</mgrwt>
</event>
<event>
 6    1  0.9094387E-004  0.4178731E+03  0.7818608E-02  0.1037790E+00
         21   -1    0    0  501  502  0.00000000000E+00  0.00000000000E+00  0.79478921873E+03  0.79478921873E+03  0.00000000000E+00 0.  1.
         21   -1    0    0  502  503 -0.00000000000E+00 -0.00000000000E+00 -0.55045351493E+03  0.55045351493E+03  0.00000000000E+00 0.  1.
    9000007    2    1    2  501    0 -0.10334297271E+02  0.11921141806E+03  0.64372455187E+03  0.76746283451E+03  0.40037450440E+03 0.  0.
    9000005    1    3    3    0    0 -0.11740231565E+03  0.15745176152E+02  0.12730050254E+02  0.11913970146E+03  0.99999687468E+00 0.  0.
          4    1    3    3  501    0  0.10706801838E+03  0.10346624191E+03  0.63099450161E+03  0.64832313305E+03  0.00000000000E+00 0.  1.
   -9000007    1    1    2    0  503  0.10334297271E+02 -0.11921141806E+03 -0.39938884807E+03  0.57777989915E+03  0.40000000000E+03 0.  1.
<mgrwt>
<rscale>  2 0.41778334E+03</rscale>
<asrwt>0</asrwt>
<pdfrwt beam="1">  1       21 0.12227526E+00 0.41787307E+03</pdfrwt>
<pdfrwt beam="2">  1       21 0.84685156E-01 0.41787307E+03</pdfrwt>
<totfact> 0.51718113E+02</totfact>
</mgrwt>
</event>
<event>
 6    1  0.9094387E-004  0.4364495E+03  0.7818608E-02  0.1032023E+00
         21   -1    0    0  501  502  0.00000000000E+00  0.00000000000E+00  0.49064115682E+03  0.49064115682E+03  0.00000000000E+00 0. -1.
         21   -1    0    0  502  503 -0.00000000000E+00 -0.00000000000E+00 -0.45430106361E+03  0.45430106361E+03  0.00000000000E+00 0. -1.
    9000007    2    1    2  501    0  0.13557812070E+03  0.11003067040E+03  0.20109164104E+03  0.47843257663E+03  0.39745654737E+03 0.  0.
    9000005    1    3    3    0    0  0.61012187164E+01  0.23710517248E+03  0.17586020872E+03  0.29526920037E+03  0.99999687468E+00 0.  0.
          4    1    3    3  501    0  0.12947690199E+03 -0.12707450208E+03  0.25231432321E+02  0.18316337626E+03  0.00000000000E+00 0.  1.
   -9000007    1    1    2    0  503 -0.13557812070E+03 -0.11003067040E+03 -0.16475154783E+03  0.46650964380E+03  0.40000000000E+03 0.  1.
<mgrwt>
<rscale>  2 0.43586588E+03</rscale>
<asrwt>0</asrwt>
<pdfrwt beam="1">  1       21 0.75483255E-01 0.43644951E+03</pdfrwt>
<pdfrwt beam="2">  1       21 0.69892471E-01 0.43644951E+03</pdfrwt>
<totfact> 0.25412089E+03</totfact>
</mgrwt>
</event>
<event>
 6    1  0.9094387E-004  0.4101790E+03  0.7818608E-02  0.1040334E+00
         21   -1    0    0  501  502  0.00000000000E+00  0.00000000000E+00  0.70697176943E+03  0.70697176943E+03  0.00000000000E+00 0. -1.
         21   -1    0    0  502  503 -0.00000000000E+00 -0.00000000000E+00 -0.27203684750E+03  0.27203684750E+03  0.00000000000E+00 0. -1.
    9000007    2    1    2  501    0  0.82025002334E+02 -0.35991038503E+02  0.43936577427E+02  0.41252546513E+03  0.40027912847E+03 0.  0.
    9000005    1    3    3    0    0  0.62288080296E+02 -0.21703702869E+03  0.45793753890E+02  0.23039736253E+03  0.99999687468E+00 0.  0.
          4    1    3    3  501    0  0.19736922038E+02  0.18104599019E+03 -0.18571764626E+01  0.18212810261E+03  0.00000000000E+00 0.  1.
   -9000007    1    1    2    0  503 -0.82025002334E+02  0.35991038503E+02  0.39099834451E+03  0.56648315180E+03  0.40000000000E+03 0. -1.
<mgrwt>
<rscale>  2 0.41011092E+03</rscale>
<asrwt>0</asrwt>
<pdfrwt beam="1">  1       21 0.10876489E+00 0.41017903E+03</pdfrwt>
<pdfrwt beam="2">  1       21 0.41851823E-01 0.41017903E+03</pdfrwt>
<totfact> 0.32561660E+03</totfact>
</mgrwt>
</event>
<event>
 6    1  0.9094387E-004  0.4620230E+03  0.7818608E-02  0.1024213E+00
         21   -1    0    0  501  502  0.00000000000E+00  0.00000000000E+00  0.67784288637E+03  0.67784288637E+03  0.00000000000E+00 0.  1.
         21   -1    0    0  502  503 -0.00000000000E+00 -0.00000000000E+00 -0.32447288743E+03  0.32447288743E+03  0.00000000000E+00 0.  1.
    9000007    2    1    2  501    0 -0.22837654507E+03  0.33124319124E+02  0.90028095766E+02  0.47071251495E+03  0.40026509572E+03 0.  0.
    9000005    1    3    3    0    0 -0.75861402328E+02  0.17949475760E+03  0.15561818585E+03  0.24938191620E+03  0.99999687468E+00 0.  0.
          4    1    3    3  501    0 -0.15251514275E+03 -0.14637043847E+03 -0.65590090083E+02  0.22133059875E+03  0.00000000000E+00 0.  1.
   -9000007    1    1    2    0  503  0.22837654507E+03 -0.33124319124E+02  0.26334190317E+03  0.53160325885E+03  0.40000000000E+03 0.  1.
<mgrwt>
<rscale>  2 0.46196554E+03</rscale>
<asrwt>0</asrwt>
<pdfrwt beam="1">  1       21 0.10428352E+00 0.46202296E+03</pdfrwt>
<pdfrwt beam="2">  1       21 0.49918906E-01 0.46202296E+03</pdfrwt>
<totfact> 0.24474535E+03</totfact>
</mgrwt>
</event>
<event>
 6    1  0.9094387E-004  0.4237563E+03  0.7818608E-02  0.1036044E+00
         21   -1    0    0  501  502  0.00000000000E+00  0.00000000000E+00  0.28919912127E+03  0.28919912127E+03  0.00000000000E+00 0.  1.
         21   -1    0    0  502  503 -0.00000000000E+00 -0.00000000000E+00 -0.77520717158E+03  0.77520717158E+03  0.00000000000E+00 0.  1.
    9000007    2    1    2  501    0  0.38766236638E+01 -0.13983688465E+03 -0.48256191140E+03  0.64063600320E+03  0.39746585732E+03 0.  0.
    9000005    1    3    3    0    0  0.14457539640E+03 -0.20362586648E+03 -0.38171298020E+03  0.45614837278E+03  0.99999687468E+00 0.  0.
          4    1    3    3  501    0 -0.14069877274E+03  0.63788981830E+02 -0.10084893120E+03  0.18448763042E+03  0.00000000000E+00 0.  1.
   -9000007    1    1    2    0  503 -0.38766236638E+01  0.13983688465E+03 -0.34461389079E+01  0.42377028965E+03  0.40000000000E+03 0.  1.
<mgrwt>
<rscale>  2 0.42315720E+03</rscale>
<asrwt>0</asrwt>
<pdfrwt beam="1">  1       21 0.44492174E-01 0.42375628E+03</pdfrwt>
<pdfrwt beam="2">  1       21 0.11926264E+00 0.42375628E+03</pdfrwt>
<totfact> 0.22665256E+03</totfact>
</mgrwt>
</event>
<event>
 6    1  0.9094387E-004  0.4791591E+03  0.7818608E-02  0.1019436E+00
         21   -1    0    0  501  502  0.00000000000E+00  0.00000000000E+00  0.35316174682E+03  0.35316174682E+03  0.00000000000E+00 0. -1.
         21   -1    0    0  502  503 -0.00000000000E+00 -0.00000000000E+00 -0.66621737223E+03  0.66621737223E+03  0.00000000000E+00 0. -1.
    9000007    2    1    2  501    0 -0.12447109940E+03  0.23259498026E+03 -0.23893114353E+03  0.53452046105E+03  0.39878634944E+03 0.  0.
    9000005    1    3    3    0    0  0.57705618433E+02  0.99101702223E+02 -0.28215424696E+03  0.30457036109E+03  0.99999687468E+00 0.  0.
          4    1    3    3  501    0 -0.18217671784E+03  0.13349327804E+03  0.43223103424E+02  0.22995009996E+03  0.00000000000E+00 0.  1.
   -9000007    1    1    2    0  503  0.12447109940E+03 -0.23259498026E+03 -0.74124481877E+02  0.48485865801E+03  0.40000000000E+03 0. -1.
<mgrwt>
<rscale>  2 0.47890577E+03</rscale>
<asrwt>0</asrwt>
<pdfrwt beam="1">  1       21 0.54332577E-01 0.47915914E+03</pdfrwt>
<pdfrwt beam="2">  1       21 0.10249498E+00 0.47915914E+03</pdfrwt>
<totfact> 0.21167883E+03</totfact>
</mgrwt>
</event>
<event>
 6    1  0.9094387E-004  0.4359339E+03  0.7818608E-02  0.1032017E+00
         21   -1    0    0  501  502  0.00000000000E+00  0.00000000000E+00  0.27608005312E+03  0.27608005312E+03  0.00000000000E+00 0. -1.
         21   -1    0    0  502  503 -0.00000000000E+00 -0.00000000000E+00 -0.14742709568E+04  0.14742709568E+04  0.00000000000E+00 0. -1.
    9000007    2    1    2  501    0  0.26924476591E+02  0.17121171236E+03  0.40087808419E+02  0.43757816333E+03  0.39978649146E+03 0.  0.
    9000005    1    3    3    0    0  0.17418857425E+03  0.17925930690E+03 -0.62837552386E+02  0.25773070538E+03  0.99999687468E+00 0.  0.
          4    1    3    3  501    0 -0.14726409766E+03 -0.80475945470E+01  0.10292536081E+03  0.17984745796E+03  0.00000000000E+00 0.  1.
   -9000007    1    1    2    0  503 -0.26924476591E+02 -0.17121171236E+03 -0.12382787121E+04  0.13127728466E+04  0.40000000000E+03 0. -1.
<mgrwt>
<rscale>  2 0.43588493E+03</rscale>
<asrwt>0</asrwt>
<pdfrwt beam="1">  1       21 0.42473854E-01 0.43593391E+03</pdfrwt>
<pdfrwt beam="2">  1       21 0.22681092E+00 0.43593391E+03</pdfrwt>
<totfact> 0.39942760E+02</totfact>
</mgrwt>
</event>
<event>
 6    1  0.9094387E-004  0.4510248E+03  0.7818608E-02  0.1027458E+00
         21   -1    0    0  501  502  0.00000000000E+00  0.00000000000E+00  0.44242653876E+03  0.44242653876E+03  0.00000000000E+00 0. -1.
         21   -1    0    0  502  503 -0.00000000000E+00 -0.00000000000E+00 -0.46280110231E+03  0.46280110231E+03  0.00000000000E+00 0. -1.
    9000007    2    1    2  501    0  0.14597366604E+03 -0.14871129181E+03  0.29595918292E+02  0.45144310128E+03  0.39937650886E+03 0.  0.
    9000005    1    3    3    0    0  0.12033828140E+03 -0.10121895113E+01 -0.16598357458E+03  0.20502164159E+03  0.99999687468E+00 0.  0.
          4    1    3    3  501    0  0.25635384643E+02 -0.14769910230E+03  0.19557949287E+03  0.24642145969E+03  0.00000000000E+00 0.  1.
   -9000007    1    1    2    0  503 -0.14597366604E+03  0.14871129181E+03 -0.49970481838E+02  0.45378453978E+03  0.40000000000E+03 0. -1.
<mgrwt>
<rscale>  2 0.45088651E+03</rscale>
<asrwt>0</asrwt>
<pdfrwt beam="1">  1       21 0.68065621E-01 0.45102479E+03</pdfrwt>
<pdfrwt beam="2">  1       21 0.71200170E-01 0.45102479E+03</pdfrwt>
<totfact> 0.30632115E+03</totfact>
</mgrwt>
</event>
<event>
 6    1  0.9094387E-004  0.4282171E+03  0.7818608E-02  0.1034458E+00
         21   -1    0    0  501  502  0.00000000000E+00  0.00000000000E+00  0.71040244301E+03  0.71040244301E+03  0.00000000000E+00 0. -1.
         21   -1    0    0  502  503 -0.00000000000E+00 -0.00000000000E+00 -0.79969057931E+03  0.79969057931E+03  0.00000000000E+00 0. -1.
    9000007    2    1    2  501    0 -0.11371912781E+03 -0.10041059277E+03  0.57684747475E+03  0.71841696516E+03  0.40044425272E+03 0.  0.
    9000005    1    3    3    0    0 -0.28581056946E+02 -0.23139422082E+03  0.48259342426E+03  0.53596415493E+03  0.99999687468E+00 0.  0.
          4    1    3    3  501    0 -0.85138070867E+02  0.13098362804E+03  0.94254050494E+02  0.18245281023E+03  0.00000000000E+00 0.  1.
   -9000007    1    1    2    0  503  0.11371912781E+03  0.10041059277E+03 -0.66613561105E+03  0.79167605716E+03  0.40000000000E+03 0. -1.
<mgrwt>
<rscale>  2 0.42811326E+03</rscale>
<asrwt>0</asrwt>
<pdfrwt beam="1">  1       21 0.10929268E+00 0.42821715E+03</pdfrwt>
<pdfrwt beam="2">  1       21 0.12302932E+00 0.42821715E+03</pdfrwt>
<totfact> 0.27432572E+02</totfact>
</mgrwt>
</event>
<event>
 6    1  0.9094387E-004  0.4195582E+03  0.7818608E-02  0.1037214E+00
         21   -1    0    0  501  502  0.00000000000E+00  0.00000000000E+00  0.98418247261E+03  0.98418247261E+03  0.00000000000E+00 0.  1.
         21   -1    0    0  502  503 -0.00000000000E+00 -0.00000000000E+00 -0.23648499735E+03  0.23648499735E+03  0.00000000000E+00 0.  1.
    9000007    2    1    2  501    0 -0.12116339764E+03 -0.36169428478E+02  0.67520366965E+03  0.79493968329E+03  0.40005038193E+03 0.  0.
    9000005    1    3    3    0    0 -0.42315537740E+02 -0.10049319750E+03 -0.30589501886E+01  0.10908640909E+03  0.99999687468E+00 0.  0.
          4    1    3    3  501    0 -0.78847859904E+02  0.64323769020E+02  0.67826261984E+03  0.68585327421E+03  0.00000000000E+00 0.  1.
   -9000007    1    1    2    0  503  0.12116339764E+03  0.36169428478E+02  0.72493805608E+02  0.42572778666E+03  0.40000000000E+03 0.  1.
<mgrwt>
<rscale>  2 0.41954622E+03</rscale>
<asrwt>0</asrwt>
<pdfrwt beam="1">  1       21 0.15141269E+00 0.41955823E+03</pdfrwt>
<pdfrwt beam="2">  1       21 0.36382308E-01 0.41955823E+03</pdfrwt>
<totfact> 0.18380842E+03</totfact>
</mgrwt>
</event>
<event>
 6    1  0.9094387E-004  0.4300387E+03  0.7818608E-02  0.1033864E+00
         21   -1    0    0  501  502  0.00000000000E+00  0.00000000000E+00  0.30156535056E+03  0.30156535056E+03  0.00000000000E+00 0. -1.
         21   -1    0    0  502  503 -0.00000000000E+00 -0.00000000000E+00 -0.14870211182E+04  0.14870211182E+04  0.00000000000E+00 0. -1.
    9000007    2    1    2  501    0  0.93117391716E+02 -0.12752422590E+03  0.92971550284E+02  0.43976858481E+03  0.39977421401E+03 0.  0.
    9000005    1    3    3    0    0  0.87270407455E+02 -0.16398231832E+03  0.23126397573E+03  0.29663167600E+03  0.99999687468E+00 0.  0.
          4    1    3    3  501    0  0.58469842614E+01  0.36458092417E+02 -0.13829242545E+03  0.14313690881E+03  0.00000000000E+00 0.  1.
   -9000007    1    1    2    0  503 -0.93117391716E+02  0.12752422590E+03 -0.12784273179E+04  0.13488178840E+04  0.40000000000E+03 0. -1.
<mgrwt>
<rscale>  2 0.42998618E+03</rscale>
<asrwt>0</asrwt>
<pdfrwt beam="1">  1       21 0.46394670E-01 0.43003869E+03</pdfrwt>
<pdfrwt beam="2">  1       21 0.22877248E+00 0.43003869E+03</pdfrwt>
<totfact> 0.32387540E+02</totfact>
</mgrwt>
</event>
<event>
 6    1  0.9094387E-004  0.4827911E+03  0.7818608E-02  0.1018401E+00
         21   -1    0    0  501  502  0.00000000000E+00  0.00000000000E+00  0.21783663227E+03  0.21783663227E+03  0.00000000000E+00 0. -1.
         21   -1    0    0  502  503 -0.00000000000E+00 -0.00000000000E+00 -0.10704401683E+04  0.10704401683E+04  0.00000000000E+00 0. -1.
    9000007    2    1    2  501    0  0.87058786698E+02 -0.25511569365E+03 -0.40316552410E+03  0.62899099299E+03  0.40052962432E+03 0.  0.
    9000005    1    3    3    0    0  0.30994309349E+02 -0.34869862939E+03 -0.21307472700E+03  0.40982096168E+03  0.99999687468E+00 0.  0.
          4    1    3    3  501    0  0.56064477349E+02  0.93582935747E+02 -0.19009079710E+03  0.21917003131E+03  0.00000000000E+00 0.  1.
   -9000007    1    1    2    0  503 -0.87058786698E+02  0.25511569365E+03 -0.44943801190E+03  0.65928580754E+03  0.40000000000E+03 0. -1.
<mgrwt>
<rscale>  2 0.48268122E+03</rscale>
<asrwt>0</asrwt>
<pdfrwt beam="1">  1       21 0.33513328E-01 0.48279108E+03</pdfrwt>
<pdfrwt beam="2">  1       21 0.16468310E+00 0.48279108E+03</pdfrwt>
<totfact> 0.16760206E+03</totfact>
</mgrwt>
</event>
<event>
 6    1  0.9094387E-004  0.4770398E+03  0.7818608E-02  0.1019959E+00
         21   -1    0    0  501  502  0.00000000000E+00  0.00000000000E+00  0.20574966327E+03  0.20574966327E+03  0.00000000000E+00 0.  1.
         21   -1    0    0  502  503 -0.00000000000E+00 -0.00000000000E+00 -0.18146316703E+04  0.18146316703E+04  0.00000000000E+00 0.  1.
    9000007    2    1    2  501    0 -0.14984655477E+03  0.21239817271E+03 -0.17303121799E+03  0.50735970050E+03  0.39988384506E+03 0.  0.
    9000005    1    3    3    0    0 -0.22710308816E+03  0.39439706090E+02 -0.21289961681E+03  0.31378105408E+03  0.99999687468E+00 0.  0.
          4    1    3    3  501    0  0.77256533386E+02  0.17295846662E+03  0.39868398812E+02  0.19357864642E+03  0.00000000000E+00 0.  1.
   -9000007    1    1    2    0  503  0.14984655477E+03 -0.21239817271E+03 -0.14358507890E+04  0.15130216330E+04  0.40000000000E+03 0.  1.
<mgrwt>
<rscale>  2 0.47701545E+03</rscale>
<asrwt>0</asrwt>
<pdfrwt beam="1">  1       21 0.31653795E-01 0.47703980E+03</pdfrwt>
<pdfrwt beam="2">  1       21 0.27917409E+00 0.47703980E+03</pdfrwt>
<totfact> 0.33893450E+02</totfact>
</mgrwt>
</event>
<event>
 6    1  0.9094387E-004  0.4106568E+03  0.7818608E-02  0.1040209E+00
         21   -1    0    0  501  502  0.00000000000E+00  0.00000000000E+00  0.30124182432E+03  0.30124182432E+03  0.00000000000E+00 0. -1.
         21   -1    0    0  502  503 -0.00000000000E+00 -0.00000000000E+00 -0.56209678849E+03  0.56209678849E+03  0.00000000000E+00 0. -1.
    9000007    2    1    2  501    0  0.77766772127E+02  0.44937352604E+02 -0.97795979222E+02  0.42214107306E+03  0.40071435650E+03 0.  0.
    9000005    1    3    3    0    0  0.12756116551E+03 -0.11301765775E+03 -0.17067571047E+03  0.24119709793E+03  0.99999687468E+00 0.  0.
          4    1    3    3  501    0 -0.49794393387E+02  0.15795501035E+03  0.72879731253E+02  0.18094397513E+03  0.00000000000E+00 0.  1.
   -9000007    1    1    2    0  503 -0.77766772127E+02 -0.44937352604E+02 -0.16305898495E+03  0.44119753975E+03  0.40000000000E+03 0.  1.
<mgrwt>
<rscale>  2 0.41048246E+03</rscale>
<asrwt>0</asrwt>
<pdfrwt beam="1">  1       21 0.46344896E-01 0.41065683E+03</pdfrwt>
<pdfrwt beam="2">  1       21 0.86476429E-01 0.41065683E+03</pdfrwt>
<totfact> 0.45705778E+03</totfact>
</mgrwt>
</event>
<event>
 6    1  0.9094387E-004  0.5934336E+03  0.7818608E-02  0.9919450E-01
         21   -1    0    0  501  502  0.00000000000E+00  0.00000000000E+00  0.66058950678E+03  0.66058950678E+03  0.00000000000E+00 0.  1.
         21   -1    0    0  502  503 -0.00000000000E+00 -0.00000000000E+00 -0.93381320788E+03  0.93381320788E+03  0.00000000000E+00 0.  1.
    9000007    2    1    2  501    0 -0.26061016153E+03  0.35143883814E+03 -0.65923429910E+03  0.88699116894E+03  0.40091964209E+03 0.  0.
    9000005    1    3    3    0    0 -0.96395804567E+02 -0.81529538304E+02 -0.10090871072E+03  0.16162544554E+03  0.99999687468E+00 0.  0.
          4    1    3    3  501    0 -0.16421435696E+03  0.43296837645E+03 -0.55832558838E+03  0.72536572340E+03  0.00000000000E+00 0.  1.
   -9000007    1    1    2    0  503  0.26061016153E+03 -0.35143883814E+03  0.38601059800E+03  0.70741154572E+03  0.40000000000E+03 0.  1.
<mgrwt>
<rscale>  2 0.59327834E+03</rscale>
<asrwt>0</asrwt>
<pdfrwt beam="1">  1       21 0.10162916E+00 0.59343363E+03</pdfrwt>
<pdfrwt beam="2">  1       21 0.14366357E+00 0.59343363E+03</pdfrwt>
<totfact> 0.20319207E+02</totfact>
</mgrwt>
</event>
<event>
 6    1  0.9094387E-004  0.4138506E+03  0.7818608E-02  0.1039159E+00
         21   -1    0    0  501  502  0.00000000000E+00  0.00000000000E+00  0.75297209494E+03  0.75297209494E+03  0.00000000000E+00 0. -1.
         21   -1    0    0  502  503 -0.00000000000E+00 -0.00000000000E+00 -0.56036793241E+03  0.56036793241E+03  0.00000000000E+00 0. -1.
    9000007    2    1    2  501    0  0.69592989750E+02  0.75514253238E+02  0.60285133800E+03  0.73123322303E+03  0.40090735097E+03 0.  0.
    9000005    1    3    3    0    0  0.12429614664E+02 -0.47838822000E+02  0.59285392932E+03  0.59491161505E+03  0.99999687468E+00 0.  0.
          4    1    3    3  501    0  0.57163375086E+02  0.12335307524E+03  0.99974086828E+01  0.13632160798E+03  0.00000000000E+00 0.  1.
   -9000007    1    1    2    0  503 -0.69592989750E+02 -0.75514253238E+02 -0.41024717547E+03  0.58210680433E+03  0.40000000000E+03 0. -1.
<mgrwt>
<rscale>  2 0.41363066E+03</rscale>
<asrwt>0</asrwt>
<pdfrwt beam="1">  1       21 0.11584186E+00 0.41385057E+03</pdfrwt>
<pdfrwt beam="2">  1       21 0.86210451E-01 0.41385057E+03</pdfrwt>
<totfact> 0.56975930E+02</totfact>
</mgrwt>
</event>
<event>
 6    1  0.9094387E-004  0.5196702E+03  0.7818608E-02  0.1008770E+00
         21   -1    0    0  501  502  0.00000000000E+00  0.00000000000E+00  0.59814314541E+03  0.59814314541E+03  0.00000000000E+00 0. -1.
         21   -1    0    0  502  503 -0.00000000000E+00 -0.00000000000E+00 -0.45252742116E+03  0.45252742116E+03  0.00000000000E+00 0. -1.
    9000007    2    1    2  501    0 -0.18421862812E+03  0.27584163265E+03  0.98256524990E+02  0.52887750126E+03  0.40003994473E+03 0.  0.
    9000005    1    3    3    0    0 -0.21738591004E+03  0.36443473710E+03  0.91051361669E+02  0.43400537087E+03  0.99999687468E+00 0.  0.
          4    1    3    3  501    0  0.33167281920E+02 -0.88593104447E+02  0.72051633207E+01  0.94872130386E+02  0.00000000000E+00 0.  1.
   -9000007    1    1    2    0  503  0.18421862812E+03 -0.27584163265E+03  0.47359199263E+02  0.52179306531E+03  0.40000000000E+03 0. -1.
<mgrwt>
<rscale>  2 0.51966246E+03</rscale>
<asrwt>0</asrwt>
<pdfrwt beam="1">  1       21 0.92022023E-01 0.51967015E+03</pdfrwt>
<pdfrwt beam="2">  1       21 0.69619603E-01 0.51967015E+03</pdfrwt>
<totfact> 0.15678703E+03</totfact>
</mgrwt>
</event>
<event>
 6    1  0.9094387E-004  0.4768004E+03  0.7818608E-02  0.1020057E+00
         21   -1    0    0  501  502  0.00000000000E+00  0.00000000000E+00  0.14704677784E+03  0.14704677784E+03  0.00000000000E+00 0.  1.
         21   -1    0    0  502  503 -0.00000000000E+00 -0.00000000000E+00 -0.16593127249E+04  0.16593127249E+04  0.00000000000E+00 0. -1.
    9000007    2    1    2  501    0  0.16306201707E+03  0.20186475017E+03 -0.51782253983E+03  0.70351940148E+03  0.39932538954E+03 0.  0.
    9000005    1    3    3    0    0 -0.81813554615E+02  0.10667382427E+03 -0.38767461476E+03  0.41032349363E+03  0.99999687468E+00 0.  0.
          4    1    3    3  501    0  0.24487557168E+03  0.95190925898E+02 -0.13014792508E+03  0.29319590785E+03  0.00000000000E+00 0.  1.
   -9000007    1    1    2    0  503 -0.16306201707E+03 -0.20186475017E+03 -0.99444340719E+03  0.11028401012E+04  0.40000000000E+03 0. -1.
<mgrwt>
<rscale>  2 0.47665886E+03</rscale>
<asrwt>0</asrwt>
<pdfrwt beam="1">  1       21 0.22622581E-01 0.47680038E+03</pdfrwt>
<pdfrwt beam="2">  1       21 0.25527888E+00 0.47680038E+03</pdfrwt>
<totfact> 0.91616324E+02</totfact>
</mgrwt>
</event>
<event>
 6    1  0.9094387E-004  0.4111925E+03  0.7818608E-02  0.1040009E+00
         21   -1    0    0  501  502  0.00000000000E+00  0.00000000000E+00  0.20754194402E+03  0.20754194402E+03  0.00000000000E+00 0.  1.
         21   -1    0    0  502  503 -0.00000000000E+00 -0.00000000000E+00 -0.85656135679E+03  0.85656135679E+03  0.00000000000E+00 0.  1.
    9000007    2    1    2  501    0 -0.61601829187E+02 -0.70085564855E+02 -0.44358847195E+03  0.60485539041E+03  0.40046540312E+03 0.  0.
    9000005    1    3    3    0    0  0.52489585988E+02 -0.13486885518E+03 -0.45079415234E+03  0.47345657934E+03  0.99999687468E+00 0.  0.
          4    1    3    3  501    0 -0.11409141517E+03  0.64783290324E+02  0.72056803924E+01  0.13139881107E+03  0.00000000000E+00 0.  1.
   -9000007    1    1    2    0  503  0.61601829187E+02  0.70085564855E+02 -0.20543094082E+03  0.45924791040E+03  0.40000000000E+03 0. -1.
<mgrwt>
<rscale>  2 0.41107919E+03</rscale>
<asrwt>0</asrwt>
<pdfrwt beam="1">  1       21 0.31929530E-01 0.41119255E+03</pdfrwt>
<pdfrwt beam="2">  1       21 0.13177867E+00 0.41119255E+03</pdfrwt>
<totfact> 0.34701794E+03</totfact>
</mgrwt>
</event>
<event>
 6    1  0.9094387E-004  0.4632180E+03  0.7818608E-02  0.1024039E+00
         21   -1    0    0  501  502  0.00000000000E+00  0.00000000000E+00  0.83013935487E+03  0.83013935487E+03  0.00000000000E+00 0.  1.
         21   -1    0    0  502  503 -0.00000000000E+00 -0.00000000000E+00 -0.32858154996E+03  0.32858154996E+03  0.00000000000E+00 0.  1.
    9000007    2    1    2  501    0  0.21621005165E+03  0.88454292691E+02  0.52058759277E+03  0.69511214612E+03  0.39698678266E+03 0.  0.
    9000005    1    3    3    0    0 -0.34713634887E+02  0.60936214138E+02 -0.39694647154E+02  0.80591089129E+02  0.99999687468E+00 0.  0.
          4    1    3    3  501    0  0.25092368654E+03  0.27518078553E+02  0.56028223992E+03  0.61452105699E+03  0.00000000000E+00 0.  1.
   -9000007    1    1    2    0  503 -0.21621005165E+03 -0.88454292691E+02 -0.19029787858E+02  0.46360875871E+03  0.40000000000E+03 0.  1.
<mgrwt>
<rscale>  2 0.46256679E+03</rscale>
<asrwt>0</asrwt>
<pdfrwt beam="1">  1       21 0.12771375E+00 0.46321804E+03</pdfrwt>
<pdfrwt beam="2">  1       21 0.50551008E-01 0.46321804E+03</pdfrwt>
<totfact> 0.14301394E+03</totfact>
</mgrwt>
</event>
<event>
 6    1  0.9094387E-004  0.4543373E+03  0.7818608E-02  0.1026725E+00
         21   -1    0    0  501  502  0.00000000000E+00  0.00000000000E+00  0.15802479995E+04  0.15802479995E+04  0.00000000000E+00 0. -1.
         21   -1    0    0  502  503 -0.00000000000E+00 -0.00000000000E+00 -0.16094253627E+03  0.16094253627E+03  0.00000000000E+00 0.  1.
    9000007    2    1    2  501    0 -0.13642770093E+03  0.15582724963E+03  0.10968660502E+04  0.11872394329E+04  0.40438557041E+03 0.  0.
    9000005    1    3    3    0    0  0.69119655504E+02  0.81784409525E+02  0.85350763629E+03  0.86019910580E+03  0.99999687468E+00 0.  0.
          4    1    3    3  501    0 -0.20554735643E+03  0.74042840109E+02  0.24335841393E+03  0.32704032708E+03  0.00000000000E+00 0.  1.
   -9000007    1    1    2    0  503  0.13642770093E+03 -0.15582724963E+03  0.32243941299E+03  0.55395110286E+03  0.40000000000E+03 0.  1.
<mgrwt>
<rscale>  2 0.45335936E+03</rscale>
<asrwt>0</asrwt>
<pdfrwt beam="1">  1       21 0.24311507E+00 0.45433725E+03</pdfrwt>
<pdfrwt beam="2">  1       21 0.24760391E-01 0.45433725E+03</pdfrwt>
<totfact> 0.92404499E+02</totfact>
</mgrwt>
</event>
<event>
 6    1  0.9094387E-004  0.4266393E+03  0.7818608E-02  0.1034927E+00
         21   -1    0    0  501  502  0.00000000000E+00  0.00000000000E+00  0.67508283923E+03  0.67508283923E+03  0.00000000000E+00 0. -1.
         21   -1    0    0  502  503 -0.00000000000E+00 -0.00000000000E+00 -0.27096777927E+03  0.27096777927E+03  0.00000000000E+00 0. -1.
    9000007    2    1    2  501    0 -0.12252342801E+03  0.83687326997E+02  0.16874425060E+03  0.45879814082E+03  0.40000694094E+03 0.  0.
    9000005    1    3    3    0    0 -0.84468702181E+02 -0.96860272409E+02  0.23076351641E+03  0.26413949822E+03  0.99999687468E+00 0.  0.
          4    1    3    3  501    0 -0.38054725831E+02  0.18054759941E+03 -0.62019265807E+02  0.19465864260E+03  0.00000000000E+00 0.  1.
   -9000007    1    1    2    0  503  0.12252342801E+03 -0.83687326997E+02  0.23537080936E+03  0.48725247768E+03  0.40000000000E+03 0. -1.
<mgrwt>
<rscale>  2 0.42663770E+03</rscale>
<asrwt>0</asrwt>
<pdfrwt beam="1">  1       21 0.10385890E+00 0.42663932E+03</pdfrwt>
<pdfrwt beam="2">  1       21 0.41687351E-01 0.42663932E+03</pdfrwt>
<totfact> 0.36549974E+03</totfact>
</mgrwt>
</event>
<event>
 6    1  0.9094387E-004  0.5432568E+03  0.7818608E-02  0.1003095E+00
         21   -1    0    0  501  502  0.00000000000E+00  0.00000000000E+00  0.75856905651E+03  0.75856905651E+03  0.00000000000E+00 0.  1.
         21   -1    0    0  502  503 -0.00000000000E+00 -0.00000000000E+00 -0.44916720436E+03  0.44916720436E+03  0.00000000000E+00 0.  1.
    9000007    2    1    2  501    0 -0.20550917440E+03  0.30478513690E+03 -0.66896194513E+02  0.54688210119E+03  0.39934562890E+03 0.  0.
    9000005    1    3    3    0    0 -0.31528448816E+02  0.70749595320E+02  0.15975253266E+03  0.17754272727E+03  0.99999687468E+00 0.  0.
          4    1    3    3  501    0 -0.17398072559E+03  0.23403554159E+03 -0.22664872717E+03  0.36933937392E+03  0.00000000000E+00 0.  1.
   -9000007    1    1    2    0  503  0.20550917440E+03 -0.30478513690E+03  0.37629804666E+03  0.66085415967E+03  0.40000000000E+03 0.  1.
<mgrwt>
<rscale>  2 0.54313640E+03</rscale>
<asrwt>0</asrwt>
<pdfrwt beam="1">  1       21 0.11670293E+00 0.54325685E+03</pdfrwt>
<pdfrwt beam="2">  1       21 0.69102647E-01 0.54325685E+03</pdfrwt>
<totfact> 0.88183713E+02</totfact>
</mgrwt>
</event>
<event>
 6    1  0.9094387E-004  0.4968768E+03  0.7818608E-02  0.1014615E+00
         21   -1    0    0  501  502  0.00000000000E+00  0.00000000000E+00  0.40626960195E+03  0.40626960195E+03  0.00000000000E+00 0. -1.
         21   -1    0    0  502  503 -0.00000000000E+00 -0.00000000000E+00 -0.15583480822E+04  0.15583480822E+04  0.00000000000E+00 0. -1.
    9000007    2    1    2  501    0 -0.44425080289E+02 -0.29094141941E+03  0.19126603417E+03  0.53241833291E+03  0.40033247196E+03 0.  0.
    9000005    1    3    3    0    0 -0.16357379463E+03  0.18402700249E+02  0.49597730122E+02  0.17191852865E+03  0.99999687468E+00 0.  0.
          4    1    3    3  501    0  0.11914871434E+03 -0.30934411966E+03  0.14166830405E+03  0.36049980426E+03  0.00000000000E+00 0.  1.
   -9000007    1    1    2    0  503  0.44425080289E+02  0.29094141941E+03 -0.13433445144E+04  0.14321993512E+04  0.40000000000E+03 0. -1.
<mgrwt>
<rscale>  2 0.49680986E+03</rscale>
<asrwt>0</asrwt>
<pdfrwt beam="1">  1       21 0.62503016E-01 0.49687683E+03</pdfrwt>
<pdfrwt beam="2">  1       21 0.23974586E+00 0.49687683E+03</pdfrwt>
<totfact> 0.14026635E+02</totfact>
</mgrwt>
</event>
<event>
 6    1  0.9094387E-004  0.4542920E+03  0.7818608E-02  0.1026483E+00
         21   -1    0    0  501  502  0.00000000000E+00  0.00000000000E+00  0.35533952103E+03  0.35533952103E+03  0.00000000000E+00 0. -1.
         21   -1    0    0  502  503 -0.00000000000E+00 -0.00000000000E+00 -0.58299265858E+03  0.58299265858E+03  0.00000000000E+00 0.  1.
    9000007    2    1    2  501    0 -0.20718436379E+03 -0.55147105949E+02 -0.81507430210E+02  0.46154592596E+03  0.40051793556E+03 0.  0.
    9000005    1    3    3    0    0 -0.18170810630E+03 -0.18634961072E+03  0.59783341392E+02  0.26705628847E+03  0.99999687468E+00 0.  0.
          4    1    3    3  501    0 -0.25476257492E+02  0.13120250477E+03 -0.14129077160E+03  0.19448963750E+03  0.00000000000E+00 0.  1.
   -9000007    1    1    2    0  503  0.20718436379E+03  0.55147105949E+02 -0.14614570734E+03  0.47678625365E+03  0.40000000000E+03 0.  1.
<mgrwt>
<rscale>  2 0.45417777E+03</rscale>
<asrwt>0</asrwt>
<pdfrwt beam="1">  1       21 0.54667619E-01 0.45429196E+03</pdfrwt>
<pdfrwt beam="2">  1       21 0.89691178E-01 0.45429196E+03</pdfrwt>
<totfact> 0.29054316E+03</totfact>
</mgrwt>
</event>
<event>
 6    1  0.9094387E-004  0.4048989E+03  0.7818608E-02  0.1042164E+00
         21   -1    0    0  501  502  0.00000000000E+00  0.00000000000E+00  0.58763992407E+03  0.58763992407E+03  0.00000000000E+00 0. -1.
         21   -1    0    0  502  503 -0.00000000000E+00 -0.00000000000E+00 -0.85365308903E+03  0.85365308903E+03  0.00000000000E+00 0. -1.
    9000007    2    1    2  501    0 -0.33202590801E+02 -0.53298235501E+02  0.45859160616E+03  0.61123567274E+03  0.39919878812E+03 0.  0.
    9000005    1    3    3    0    0 -0.15548833546E+03 -0.14076682191E+03  0.39652311553E+03  0.44857942636E+03  0.99999687468E+00 0.  0.
          4    1    3    3  501    0  0.12228574466E+03  0.87468586410E+02  0.62068490635E+02  0.16265624637E+03  0.00000000000E+00 0.  1.
   -9000007    1    1    2    0  503  0.33202590801E+02  0.53298235501E+02 -0.72460477113E+03  0.83005734036E+03  0.40000000000E+03 0. -1.
<mgrwt>
<rscale>  2 0.40470087E+03</rscale>
<asrwt>0</asrwt>
<pdfrwt beam="1">  1       21 0.90406142E-01 0.40489889E+03</pdfrwt>
<pdfrwt beam="2">  1       21 0.13133124E+00 0.40489889E+03</pdfrwt>
<totfact> 0.37152863E+02</totfact>
</mgrwt>
</event>
<event>
 6    1  0.9094387E-004  0.4339101E+03  0.7818608E-02  0.1032722E+00
         21   -1    0    0  501  502  0.00000000000E+00  0.00000000000E+00  0.65783752961E+03  0.65783752961E+03  0.00000000000E+00 0. -1.
         21   -1    0    0  502  503 -0.00000000000E+00 -0.00000000000E+00 -0.31952165052E+03  0.31952165052E+03  0.00000000000E+00 0. -1.
    9000007    2    1    2  501    0 -0.15296521090E+03  0.69854164694E+02  0.32853264894E+03  0.54333882155E+03  0.39875482883E+03 0.  0.
    9000005    1    3    3    0    0 -0.23970577988E+03  0.30453266053E+02  0.36798144367E+03  0.44022449410E+03  0.99999687468E+00 0.  0.
          4    1    3    3  501    0  0.86740568977E+02  0.39400898641E+02 -0.39448794735E+02  0.10311432745E+03  0.00000000000E+00 0.  1.
   -9000007    1    1    2    0  503  0.15296521090E+03 -0.69854164694E+02  0.97832301446E+01  0.43402035858E+03  0.40000000000E+03 0. -1.
<mgrwt>
<rscale>  2 0.43362290E+03</rscale>
<asrwt>0</asrwt>
<pdfrwt beam="1">  1       21 0.10120577E+00 0.43391008E+03</pdfrwt>
<pdfrwt beam="2">  1       21 0.49157177E-01 0.43391008E+03</pdfrwt>
<totfact> 0.27495704E+03</totfact>
</mgrwt>
</event>
<event>
 6    1  0.9094387E-004  0.4271947E+03  0.7818608E-02  0.1034823E+00
         21   -1    0    0  501  502  0.00000000000E+00  0.00000000000E+00  0.33388325334E+03  0.33388325334E+03  0.00000000000E+00 0. -1.
         21   -1    0    0  502  503 -0.00000000000E+00 -0.00000000000E+00 -0.64131229164E+03  0.64131229164E+03  0.00000000000E+00 0. -1.
    9000007    2    1    2  501    0  0.14956952995E+03 -0.11148238699E+02  0.34986298235E+02  0.42770710656E+03  0.39901629093E+03 0.  0.
    9000005    1    3    3    0    0  0.22987867541E+03 -0.61052320094E+02 -0.10401246232E+03  0.25959811923E+03  0.99999687468E+00 0.  0.
          4    1    3    3  501    0 -0.80309145465E+02  0.49904081395E+02  0.13899876055E+03  0.16810898733E+03  0.00000000000E+00 0.  1.
   -9000007    1    1    2    0  503 -0.14956952995E+03  0.11148238699E+02 -0.34241533653E+03  0.54748843842E+03  0.40000000000E+03 0. -1.
<mgrwt>
<rscale>  2 0.42696430E+03</rscale>
<asrwt>0</asrwt>
<pdfrwt beam="1">  1       21 0.51366655E-01 0.42719472E+03</pdfrwt>
<pdfrwt beam="2">  1       21 0.98663429E-01 0.42719472E+03</pdfrwt>
<totfact> 0.26704105E+03</totfact>
</mgrwt>
</event>
<event>
 6    1  0.9094387E-004  0.4837833E+03  0.7818608E-02  0.1018117E+00
         21   -1    0    0  501  502  0.00000000000E+00  0.00000000000E+00  0.81790557433E+03  0.81790557433E+03  0.00000000000E+00 0.  1.
         21   -1    0    0  502  503 -0.00000000000E+00 -0.00000000000E+00 -0.33244814608E+03  0.33244814608E+03  0.00000000000E+00 0.  1.
    9000007    2    1    2  501    0  0.24314437379E+03 -0.12217663250E+03  0.27716715944E+02  0.48434105106E+03  0.39971454985E+03 0.  0.
    9000005    1    3    3    0    0 -0.21115367939E+02 -0.86061887510E+01  0.16433589258E+03  0.16591326298E+03  0.99999687468E+00 0.  0.
          4    1    3    3  501    0  0.26425974173E+03 -0.11357044375E+03 -0.13661917664E+03  0.31842778808E+03  0.00000000000E+00 0.  1.
   -9000007    1    1    2    0  503 -0.24314437379E+03  0.12217663250E+03  0.45774071230E+03  0.66601266935E+03  0.40000000000E+03 0.  1.
<mgrwt>
<rscale>  2 0.48372433E+03</rscale>
<asrwt>0</asrwt>
<pdfrwt beam="1">  1       21 0.12583163E+00 0.48378334E+03</pdfrwt>
<pdfrwt beam="2">  1       21 0.51145869E-01 0.48378334E+03</pdfrwt>
<totfact> 0.14380165E+03</totfact>
</mgrwt>
</event>
<event>
 6    1  0.9094387E-004  0.6022552E+03  0.7818608E-02  0.9900802E-01
         21   -1    0    0  501  502  0.00000000000E+00  0.00000000000E+00  0.67130798233E+03  0.67130798233E+03  0.00000000000E+00 0.  1.
         21   -1    0    0  502  503 -0.00000000000E+00 -0.00000000000E+00 -0.54780994160E+03  0.54780994160E+03  0.00000000000E+00 0.  1.
    9000007    2    1    2  501    0  0.43659196923E+03  0.10999438236E+03 -0.10127388291E+02  0.60221674301E+03  0.39981386897E+03 0.  0.
    9000005    1    3    3    0    0 -0.28987420605E+02 -0.65151341000E+02 -0.71530316493E+02  0.10100769257E+03  0.99999687468E+00 0.  0.
          4    1    3    3  501    0  0.46557938983E+03  0.17514572336E+03  0.61402928202E+02  0.50120905044E+03  0.00000000000E+00 0.  1.
   -9000007    1    1    2    0  503 -0.43659196923E+03 -0.10999438236E+03  0.13362542902E+03  0.61690118092E+03  0.40000000000E+03 0.  1.
<mgrwt>
<rscale>  2 0.60222428E+03</rscale>
<asrwt>0</asrwt>
<pdfrwt beam="1">  1       21 0.10327815E+00 0.60225519E+03</pdfrwt>
<pdfrwt beam="2">  1       21 0.84278452E-01 0.60225519E+03</pdfrwt>
<totfact> 0.74290716E+02</totfact>
</mgrwt>
</event>
<event>
 6    1  0.9094387E-004  0.4520776E+03  0.7818608E-02  0.1027138E+00
         21   -1    0    0  501  502  0.00000000000E+00  0.00000000000E+00  0.38719619336E+03  0.38719619336E+03  0.00000000000E+00 0.  1.
         21   -1    0    0  502  503 -0.00000000000E+00 -0.00000000000E+00 -0.12934143356E+04  0.12934143356E+04  0.00000000000E+00 0. -1.
    9000007    2    1    2  501    0 -0.19710463176E+03  0.74323372860E+02  0.19370511641E+03  0.49140685653E+03  0.39948069654E+03 0.  0.
    9000005    1    3    3    0    0  0.54459375425E+02 -0.75093578640E+02 -0.54610545507E+02  0.10764841290E+03  0.99999687468E+00 0.  0.
          4    1    3    3  501    0 -0.25156400718E+03  0.14941695150E+03  0.24831566192E+03  0.38375844363E+03  0.00000000000E+00 0.  1.
   -9000007    1    1    2    0  503  0.19710463176E+03 -0.74323372860E+02 -0.10999232587E+04  0.11892036724E+04  0.40000000000E+03 0. -1.
<mgrwt>
<rscale>  2 0.45196275E+03</rscale>
<asrwt>0</asrwt>
<pdfrwt beam="1">  1       21 0.59568645E-01 0.45207765E+03</pdfrwt>
<pdfrwt beam="2">  1       21 0.19898682E+00 0.45207765E+03</pdfrwt>
<totfact> 0.29194980E+02</totfact>
</mgrwt>
</event>
<event>
 6    1  0.9094387E-004  0.4983456E+03  0.7818608E-02  0.1014229E+00
         21   -1    0    0  501  502  0.00000000000E+00  0.00000000000E+00  0.13035471439E+04  0.13035471439E+04  0.00000000000E+00 0. -1.
         21   -1    0    0  502  503 -0.00000000000E+00 -0.00000000000E+00 -0.24373633248E+03  0.24373633248E+03  0.00000000000E+00 0. -1.
    9000007    2    1    2  501    0 -0.24980818829E+02  0.29573605877E+03  0.89186406912E+03  0.10216505569E+04  0.40033046961E+03 0.  0.
    9000005    1    3    3    0    0 -0.20767322422E+03  0.21230307250E+03  0.55467137883E+03  0.62917573152E+03  0.99999687468E+00 0.  0.
          4    1    3    3  501    0  0.18269240539E+03  0.83432986277E+02  0.33719269029E+03  0.39247482539E+03  0.00000000000E+00 0.  1.
   -9000007    1    1    2    0  503  0.24980818829E+02 -0.29573605877E+03  0.16794674228E+03  0.52563291945E+03  0.40000000000E+03 0. -1.
<mgrwt>
<rscale>  2 0.49827923E+03</rscale>
<asrwt>0</asrwt>
<pdfrwt beam="1">  1       21 0.20054571E+00 0.49834561E+03</pdfrwt>
<pdfrwt beam="2">  1       21 0.37497898E-01 0.49834561E+03</pdfrwt>
<totfact> 0.74183524E+02</totfact>
</mgrwt>
</event>
<event>
 6    1  0.9094387E-004  0.4231332E+03  0.7818608E-02  0.1036096E+00
         21   -1    0    0  501  502  0.00000000000E+00  0.00000000000E+00  0.87203443971E+03  0.87203443971E+03  0.00000000000E+00 0.  1.
         21   -1    0    0  502  503 -0.00000000000E+00 -0.00000000000E+00 -0.31042290368E+03  0.31042290368E+03  0.00000000000E+00 0.  1.
    9000007    2    1    2  501    0  0.16749049457E+02 -0.13525064385E+03  0.62539668007E+03  0.75509121006E+03  0.40058514793E+03 0.  0.
    9000005    1    3    3    0    0  0.18042177306E+03 -0.46879134072E+02  0.13374653458E+03  0.22943148195E+03  0.99999687468E+00 0.  0.
          4    1    3    3  501    0 -0.16367272360E+03 -0.88371509777E+02  0.49165014550E+03  0.52565972811E+03  0.00000000000E+00 0.  1.
   -9000007    1    1    2    0  503 -0.16749049457E+02  0.13525064385E+03 -0.63785144040E+02  0.42736613333E+03  0.40000000000E+03 0.  1.
<mgrwt>
<rscale>  2 0.42299468E+03</rscale>
<asrwt>0</asrwt>
<pdfrwt beam="1">  1       21 0.13415914E+00 0.42313323E+03</pdfrwt>
<pdfrwt beam="2">  1       21 0.47757370E-01 0.42313323E+03</pdfrwt>
<totfact> 0.14432406E+03</totfact>
</mgrwt>
</event>
<event>
 6    1  0.9094387E-004  0.4568499E+03  0.7818608E-02  0.1025729E+00
         21   -1    0    0  501  502  0.00000000000E+00  0.00000000000E+00  0.20613531343E+03  0.20613531343E+03  0.00000000000E+00 0.  1.
         21   -1    0    0  502  503 -0.00000000000E+00 -0.00000000000E+00 -0.10341862511E+04  0.10341862511E+04  0.00000000000E+00 0.  1.
    9000007    2    1    2  501    0 -0.18242255229E+03 -0.12271295325E+03 -0.50588015827E+03  0.68163518777E+03  0.40046889791E+03 0.  0.
    9000005    1    3    3    0    0 -0.12022838670E+03 -0.76778440618E+02 -0.56599557251E+03  0.58369665239E+03  0.99999687468E+00 0.  0.
          4    1    3    3  501    0 -0.62194165585E+02 -0.45934512636E+02  0.60115414240E+02  0.97938535384E+02  0.00000000000E+00 0.  1.
   -9000007    1    1    2    0  503  0.18242255229E+03  0.12271295325E+03 -0.32217077942E+03  0.55868637677E+03  0.40000000000E+03 0.  1.
<mgrwt>
<rscale>  2 0.45674708E+03</rscale>
<asrwt>0</asrwt>
<pdfrwt beam="1">  1       21 0.31713125E-01 0.45684986E+03</pdfrwt>
<pdfrwt beam="2">  1       21 0.15910558E+00 0.45684986E+03</pdfrwt>
<totfact> 0.20833791E+03</totfact>
</mgrwt>
</event>
<event>
 6    1  0.9094387E-004  0.6298522E+03  0.7818608E-02  0.9845589E-01
         21   -1    0    0  501  502  0.00000000000E+00  0.00000000000E+00  0.20367765698E+04  0.20367765698E+04  0.00000000000E+00 0. -1.
         21   -1    0    0  502  503 -0.00000000000E+00 -0.00000000000E+00 -0.23605769455E+03  0.23605769455E+03  0.00000000000E+00 0.  1.
    9000007    2    1    2  501    0 -0.44538240494E+03 -0.19582725400E+03  0.13762099901E+04  0.15132807155E+04  0.39918765884E+03 0.  0.
    9000005    1    3    3    0    0 -0.23604711216E+03 -0.26316240086E+03  0.11259167321E+04  0.11801110863E+04  0.99999687468E+00 0.  0.
          4    1    3    3  501    0 -0.20933529277E+03  0.67335146858E+02  0.25029325792E+03  0.33316962912E+03  0.00000000000E+00 0.  1.
   -9000007    1    1    2    0  503  0.44538240494E+03  0.19582725400E+03  0.42450888517E+03  0.75955354889E+03  0.40000000000E+03 0.  1.
<mgrwt>
<rscale>  2 0.62972327E+03</rscale>
<asrwt>0</asrwt>
<pdfrwt beam="1">  1       21 0.31335023E+00 0.62985220E+03</pdfrwt>
<pdfrwt beam="2">  1       21 0.36316570E-01 0.62985220E+03</pdfrwt>
<totfact> 0.14785269E+02</totfact>
</mgrwt>
</event>
<event>
 6    1  0.9094387E-004  0.4466522E+03  0.7818608E-02  0.1028741E+00
         21   -1    0    0  501  502  0.00000000000E+00  0.00000000000E+00  0.15157588295E+04  0.15157588295E+04  0.00000000000E+00 0.  1.
         21   -1    0    0  502  503 -0.00000000000E+00 -0.00000000000E+00 -0.16527979441E+03  0.16527979441E+03  0.00000000000E+00 0.  1.
    9000007    2    1    2  501    0 -0.19574671709E+03 -0.34371060328E+02  0.10547934050E+04  0.11453818879E+04  0.39976542463E+03 0.  0.
    9000005    1    3    3    0    0 -0.23356777172E+03 -0.84859694606E+02  0.30719363468E+03  0.39512529777E+03  0.99999687468E+00 0.  0.
          4    1    3    3  501    0  0.37821054630E+02  0.50488634278E+02  0.74759977036E+03  0.75025659012E+03  0.00000000000E+00 0.  1.
   -9000007    1    1    2    0  503  0.19574671709E+03  0.34371060328E+02  0.29568563005E+03  0.53565673603E+03  0.40000000000E+03 0.  1.
<mgrwt>
<rscale>  2 0.44659963E+03</rscale>
<asrwt>0</asrwt>
<pdfrwt beam="1">  1       21 0.23319366E+00 0.44665215E+03</pdfrwt>
<pdfrwt beam="2">  1       21 0.25427662E-01 0.44665215E+03</pdfrwt>
<totfact> 0.10152951E+03</totfact>
</mgrwt>
</event>
<event>
 6    1  0.9094387E-004  0.4605034E+03  0.7818608E-02  0.1024782E+00
         21   -1    0    0  501  502  0.00000000000E+00  0.00000000000E+00  0.52190649078E+03  0.52190649078E+03  0.00000000000E+00 0. -1.
         21   -1    0    0  502  503 -0.00000000000E+00 -0.00000000000E+00 -0.44435111284E+03  0.44435111284E+03  0.00000000000E+00 0. -1.
    9000007    2    1    2  501    0 -0.17831947948E+03  0.13566251983E+03  0.18346745980E+03  0.49570524188E+03  0.40231980062E+03 0.  0.
    9000005    1    3    3    0    0 -0.28150922597E+03  0.14932646971E+03  0.21793079426E+03  0.38605785829E+03  0.99999687468E+00 0.  0.
          4    1    3    3  501    0  0.10318974649E+03 -0.13663949879E+02 -0.34463334462E+02  0.10964738359E+03  0.00000000000E+00 0.  1.
   -9000007    1    1    2    0  503  0.17831947948E+03 -0.13566251983E+03 -0.10591208186E+03  0.47055236174E+03  0.40000000000E+03 0. -1.
<mgrwt>
<rscale>  2 0.45999623E+03</rscale>
<asrwt>0</asrwt>
<pdfrwt beam="1">  1       21 0.80293306E-01 0.46050340E+03</pdfrwt>
<pdfrwt beam="2">  1       21 0.68361710E-01 0.46050340E+03</pdfrwt>
<totfact> 0.22970942E+03</totfact>
</mgrwt>
</event>
<event>
 6    1  0.9094387E-004  0.4239097E+03  0.7818608E-02  0.1035808E+00
         21   -1    0    0  501  502  0.00000000000E+00  0.00000000000E+00  0.11735857850E+03  0.11735857850E+03  0.00000000000E+00 0. -1.
         21   -1    0    0  502  503 -0.00000000000E+00 -0.00000000000E+00 -0.20338358805E+04  0.20338358805E+04  0.00000000000E+00 0. -1.
    9000007    2    1    2  501    0  0.77203507163E+02 -0.11691174799E+03 -0.42343921254E+03  0.59916627792E+03  0.40008839466E+03 0.  0.
    9000005    1    3    3    0    0  0.11409719183E+03  0.41587072276E+02 -0.41913361979E+03  0.43637328630E+03  0.99999687468E+00 0.  0.
          4    1    3    3  501    0 -0.36893684664E+02 -0.15849882026E+03 -0.43055927571E+01  0.16279299162E+03  0.00000000000E+00 0.  1.
   -9000007    1    1    2    0  503 -0.77203507163E+02  0.11691174799E+03 -0.14930380895E+04  0.15520281811E+04  0.40000000000E+03 0.  1.
<mgrwt>
<rscale>  2 0.42388888E+03</rscale>
<asrwt>0</asrwt>
<pdfrwt beam="1">  1       21 0.18055167E-01 0.42390973E+03</pdfrwt>
<pdfrwt beam="2">  1       21 0.31289781E+00 0.42390973E+03</pdfrwt>
<totfact> 0.65026851E+02</totfact>
</mgrwt>
</event>
<event>
 6    1  0.9094387E-004  0.4071066E+03  0.7818608E-02  0.1041433E+00
         21   -1    0    0  501  502  0.00000000000E+00  0.00000000000E+00  0.24037337762E+03  0.24037337762E+03  0.00000000000E+00 0.  1.
         21   -1    0    0  502  503 -0.00000000000E+00 -0.00000000000E+00 -0.73419545103E+03  0.73419545103E+03  0.00000000000E+00 0.  1.
    9000007    2    1    2  501    0 -0.71815633931E+02 -0.24047803081E+02 -0.12408976507E+03  0.42462541161E+03  0.39896452008E+03 0.  0.
    9000005    1    3    3    0    0 -0.27271916270E+02  0.11578221846E+02  0.14579542918E+03  0.14877876126E+03  0.99999687468E+00 0.  0.
          4    1    3    3  501    0 -0.44543717661E+02 -0.35626024926E+02 -0.26988519425E+03  0.27584665035E+03  0.00000000000E+00 0.  1.
   -9000007    1    1    2    0  503  0.71815633931E+02  0.24047803081E+02 -0.36973230834E+03  0.54994341704E+03  0.40000000000E+03 0. -1.
<mgrwt>
<rscale>  2 0.40685202E+03</rscale>
<asrwt>0</asrwt>
<pdfrwt beam="1">  1       21 0.36980521E-01 0.40710660E+03</pdfrwt>
<pdfrwt beam="2">  1       21 0.11295314E+00 0.40710660E+03</pdfrwt>
<totfact> 0.38264748E+03</totfact>
</mgrwt>
</event>
<event>
 6    1  0.9094387E-004  0.4302274E+03  0.7818608E-02  0.1033826E+00
         21   -1    0    0  501  502  0.00000000000E+00  0.00000000000E+00  0.86608287528E+03  0.86608287528E+03  0.00000000000E+00 0. -1.
         21   -1    0    0  502  503 -0.00000000000E+00 -0.00000000000E+00 -0.23775536215E+03  0.23775536215E+03  0.00000000000E+00 0. -1.
    9000007    2    1    2  501    0  0.76813810960E+02  0.13854689676E+03  0.13763199729E+03  0.45124518397E+03  0.39947971817E+03 0.  0.
    9000005    1    3    3    0    0 -0.51404474209E+02 -0.12569225071E+03  0.50529499033E+02  0.14489717776E+03  0.99999687468E+00 0.  0.
          4    1    3    3  501    0  0.12821828517E+03  0.26423914747E+03  0.87102498260E+02  0.30634800621E+03  0.00000000000E+00 0.  1.
   -9000007    1    1    2    0  503 -0.76813810960E+02 -0.13854689676E+03  0.49069551584E+03  0.65259305346E+03  0.40000000000E+03 0. -1.
<mgrwt>
<rscale>  2 0.43010641E+03</rscale>
<asrwt>0</asrwt>
<pdfrwt beam="1">  1       21 0.13324352E+00 0.43022739E+03</pdfrwt>
<pdfrwt beam="2">  1       21 0.36577748E-01 0.43022739E+03</pdfrwt>
<totfact> 0.25449383E+03</totfact>
</mgrwt>
</event>
<event>
 6    1  0.9094387E-004  0.4159720E+03  0.7818608E-02  0.1038424E+00
         21   -1    0    0  501  502  0.00000000000E+00  0.00000000000E+00  0.97338539765E+03  0.97338539765E+03  0.00000000000E+00 0. -1.
         21   -1    0    0  502  503 -0.00000000000E+00 -0.00000000000E+00 -0.18332753194E+03  0.18332753194E+03  0.00000000000E+00 0. -1.
    9000007    2    1    2  501    0 -0.60691372436E+02  0.94638556722E+02  0.29268090398E+03  0.50862054331E+03  0.40049075696E+03 0.  0.
    9000005    1    3    3    0    0  0.14563321989E+03  0.19581869893E+02  0.53959888333E+01  0.14704625481E+03  0.99999687468E+00 0.  0.
          4    1    3    3  501    0 -0.20632459232E+03  0.75056686829E+02  0.28728491515E+03  0.36157428850E+03  0.00000000000E+00 0.  1.
   -9000007    1    1    2    0  503  0.60691372436E+02 -0.94638556722E+02  0.49737696172E+03  0.64809238628E+03  0.40000000000E+03 0. -1.
<mgrwt>
<rscale>  2 0.41585388E+03</rscale>
<asrwt>0</asrwt>
<pdfrwt beam="1">  1       21 0.14975160E+00 0.41597205E+03</pdfrwt>
<pdfrwt beam="2">  1       21 0.28204236E-01 0.41597205E+03</pdfrwt>
<totfact> 0.31556687E+03</totfact>
</mgrwt>
</event>
<event>
 6    1  0.9094387E-004  0.4075452E+03  0.7818608E-02  0.1041307E+00
         21   -1    0    0  501  502  0.00000000000E+00  0.00000000000E+00  0.11012598054E+04  0.11012598054E+04  0.00000000000E+00 0. -1.
         21   -1    0    0  502  503 -0.00000000000E+00 -0.00000000000E+00 -0.34604578083E+03  0.34604578083E+03  0.00000000000E+00 0. -1.
    9000007    2    1    2  501    0 -0.11273606356E+02  0.70155156094E+02  0.92206481782E+03  0.10081153913E+04  0.40130321936E+03 0.  0.
    9000005    1    3    3    0    0 -0.16373178721E+03  0.15913281886E+03  0.46182440348E+03  0.51518359041E+03  0.99999687468E+00 0.  0.
          4    1    3    3  501    0  0.15245818086E+03 -0.88977662765E+02  0.46024041434E+03  0.49293180093E+03  0.00000000000E+00 0.  1.
   -9000007    1    1    2    0  503  0.11273606356E+02 -0.70155156094E+02 -0.16685079322E+03  0.43919019493E+03  0.40000000000E+03 0. -1.
<mgrwt>
<rscale>  2 0.40722405E+03</rscale>
<asrwt>0</asrwt>
<pdfrwt beam="1">  1       21 0.16942458E+00 0.40754523E+03</pdfrwt>
<pdfrwt beam="2">  1       21 0.53237813E-01 0.40754523E+03</pdfrwt>
<totfact> 0.61170749E+02</totfact>
</mgrwt>
</event>
<event>
 6    1  0.9094387E-004  0.4576394E+03  0.7818608E-02  0.1025473E+00
         21   -1    0    0  501  502  0.00000000000E+00  0.00000000000E+00  0.58719403483E+03  0.58719403483E+03  0.00000000000E+00 0.  1.
         21   -1    0    0  502  503 -0.00000000000E+00 -0.00000000000E+00 -0.43220599896E+03  0.43220599896E+03  0.00000000000E+00 0.  1.
    9000007    2    1    2  501    0  0.21590756333E+03  0.52445204948E+02 -0.13566499533E+03  0.47732461472E+03  0.40008401797E+03 0.  0.
    9000005    1    3    3    0    0  0.51528060925E+02  0.85413388677E+02  0.12958356548E+03  0.16353436478E+03  0.99999687468E+00 0.  0.
          4    1    3    3  501    0  0.16437950240E+03 -0.32968183729E+02 -0.26524856080E+03  0.31379024994E+03  0.00000000000E+00 0.  1.
   -9000007    1    1    2    0  503 -0.21590756333E+03 -0.52445204948E+02  0.29065303120E+03  0.54207541908E+03  0.40000000000E+03 0.  1.
<mgrwt>
<rscale>  2 0.45762101E+03</rscale>
<asrwt>0</asrwt>
<pdfrwt beam="1">  1       21 0.90337544E-01 0.45763937E+03</pdfrwt>
<pdfrwt beam="2">  1       21 0.66493230E-01 0.45763937E+03</pdfrwt>
<totfact> 0.18564381E+03</totfact>
</mgrwt>
</event>
<event>
 6    1  0.9094387E-004  0.4106901E+03  0.7818608E-02  0.1040157E+00
         21   -1    0    0  501  502  0.00000000000E+00  0.00000000000E+00  0.23970541743E+03  0.23970541743E+03  0.00000000000E+00 0. -1.
         21   -1    0    0  502  503 -0.00000000000E+00 -0.00000000000E+00 -0.70342870171E+03  0.70342870171E+03  0.00000000000E+00 0. -1.
    9000007    2    1    2  501    0 -0.26657317702E+02  0.89194923145E+02 -0.22517194662E+03  0.46818876692E+03  0.39978990610E+03 0.  0.
    9000005    1    3    3    0    0 -0.18315589605E+03  0.53148479540E+02 -0.24041211095E+03  0.30687102539E+03  0.99999687468E+00 0.  0.
          4    1    3    3  501    0  0.15649857835E+03  0.36046443605E+02  0.15240164330E+02  0.16131774153E+03  0.00000000000E+00 0.  1.
   -9000007    1    1    2    0  503  0.26657317702E+02 -0.89194923145E+02 -0.23855133765E+03  0.47494535222E+03  0.40000000000E+03 0. -1.
<mgrwt>
<rscale>  2 0.41063892E+03</rscale>
<asrwt>0</asrwt>
<pdfrwt beam="1">  1       21 0.36877757E-01 0.41069009E+03</pdfrwt>
<pdfrwt beam="2">  1       21 0.10821980E+00 0.41069009E+03</pdfrwt>
<totfact> 0.42727601E+03</totfact>
</mgrwt>
</event>
<event>
 6    1  0.9094387E-004  0.4956462E+03  0.7818608E-02  0.1015163E+00
         21   -1    0    0  501  502  0.00000000000E+00  0.00000000000E+00  0.54229813115E+03  0.54229813115E+03  0.00000000000E+00 0.  1.
         21   -1    0    0  502  503 -0.00000000000E+00 -0.00000000000E+00 -0.81687985762E+03  0.81687985762E+03  0.00000000000E+00 0.  1.
    9000007    2    1    2  501    0  0.29264096317E+03 -0.51429802629E+01  0.31862430416E+03  0.58615885682E+03  0.39546880364E+03 0.  0.
    9000005    1    3    3    0    0  0.11833816079E+03 -0.17142891730E+03  0.30395973688E+02  0.21051534195E+03  0.99999687468E+00 0.  0.
          4    1    3    3  501    0  0.17430280238E+03  0.16628593704E+03  0.28822833048E+03  0.37564351487E+03  0.00000000000E+00 0.  1.
   -9000007    1    1    2    0  503 -0.29264096317E+03  0.51429802629E+01 -0.59320603064E+03  0.77301913195E+03  0.40000000000E+03 0.  1.
<mgrwt>
<rscale>  2 0.49473132E+03</rscale>
<asrwt>0</asrwt>
<pdfrwt beam="1">  1       21 0.83430483E-01 0.49564623E+03</pdfrwt>
<pdfrwt beam="2">  1       21 0.12567382E+00 0.49564623E+03</pdfrwt>
<totfact> 0.48196696E+02</totfact>
</mgrwt>
</event>
<event>
 6    1  0.9094387E-004  0.4201633E+03  0.7818608E-02  0.1037521E+00
         21   -1    0    0  501  502  0.00000000000E+00  0.00000000000E+00  0.10943464046E+04  0.10943464046E+04  0.00000000000E+00 0. -1.
         21   -1    0    0  502  503 -0.00000000000E+00 -0.00000000000E+00 -0.26491551939E+03  0.26491551939E+03  0.00000000000E+00 0. -1.
    9000007    2    1    2  501    0 -0.76789524159E+02 -0.74004425838E+02  0.84639135227E+03  0.94494206742E+03  0.40640362145E+03 0.  0.
    9000005    1    3    3    0    0  0.23254335108E+01 -0.16495892316E+03  0.79827680049E+03  0.81514643112E+03  0.99999687468E+00 0.  0.
          4    1    3    3  501    0 -0.79114957669E+02  0.90954497324E+02  0.48114551774E+02  0.12979563630E+03  0.00000000000E+00 0.  1.
   -9000007    1    1    2    0  503  0.76789524159E+02  0.74004425838E+02 -0.16960467100E+02  0.41431985652E+03  0.40000000000E+03 0. -1.
<mgrwt>
<rscale>  2 0.41860698E+03</rscale>
<asrwt>0</asrwt>
<pdfrwt beam="1">  1       21 0.16836098E+00 0.42016329E+03</pdfrwt>
<pdfrwt beam="2">  1       21 0.40756234E-01 0.42016329E+03</pdfrwt>
<totfact> 0.10851520E+03</totfact>
</mgrwt>
</event>
<event>
 6    1  0.9094387E-004  0.4246714E+03  0.7818608E-02  0.1035593E+00
         21   -1    0    0  501  502  0.00000000000E+00  0.00000000000E+00  0.61424201555E+03  0.61424201555E+03  0.00000000000E+00 0. -1.
         21   -1    0    0  502  503 -0.00000000000E+00 -0.00000000000E+00 -0.29358382880E+03  0.29358382880E+03  0.00000000000E+00 0. -1.
    9000007    2    1    2  501    0 -0.37902166319E+02  0.13751086789E+03  0.17447748439E+03  0.45869934686E+03  0.39952081955E+03 0.  0.
    9000005    1    3    3    0    0 -0.68541294715E+02 -0.13345623936E+03  0.43688663102E+02  0.15626316323E+03  0.99999687468E+00 0.  0.
          4    1    3    3  501    0  0.30639128396E+02  0.27096710725E+03  0.13078882129E+03  0.30243618364E+03  0.00000000000E+00 0.  1.
   -9000007    1    1    2    0  503  0.37902166319E+02 -0.13751086789E+03  0.14618070236E+03  0.44912649748E+03  0.40000000000E+03 0.  1.
<mgrwt>
<rscale>  2 0.42455854E+03</rscale>
<asrwt>0</asrwt>
<pdfrwt beam="1">  1       21 0.94498771E-01 0.42467142E+03</pdfrwt>
<pdfrwt beam="2">  1       21 0.45166743E-01 0.42467142E+03</pdfrwt>
<totfact> 0.38906691E+03</totfact>
</mgrwt>
</event>
<event>
 6    1  0.9094387E-004  0.5890701E+03  0.7818608E-02  0.9931920E-01
         21   -1    0    0  501  502  0.00000000000E+00  0.00000000000E+00  0.25254735632E+04  0.25254735632E+04  0.00000000000E+00 0. -1.
         21   -1    0    0  502  503 -0.00000000000E+00 -0.00000000000E+00 -0.15460214709E+03  0.15460214709E+03  0.00000000000E+00 0.  1.
    9000007    2    1    2  501    0  0.40327548495E+03 -0.12857224892E+03  0.16581468464E+04  0.17596745737E+04  0.40968488033E+03 0.  0.
    9000005    1    3    3    0    0  0.47937508922E+03 -0.53806513639E+02  0.13594755265E+04  0.14425222093E+04  0.99999687468E+00 0.  0.
          4    1    3    3  501    0 -0.76099604266E+02 -0.74765735284E+02  0.29867131985E+03  0.31715236440E+03  0.00000000000E+00 0.  1.
   -9000007    1    1    2    0  503 -0.40327548495E+03  0.12857224892E+03  0.71272456971E+03  0.92040113659E+03  0.40000000000E+03 0.  1.
<mgrwt>
<rscale>  2 0.58738946E+03</rscale>
<asrwt>0</asrwt>
<pdfrwt beam="1">  1       21 0.38853436E+00 0.58907015E+03</pdfrwt>
<pdfrwt beam="2">  1       21 0.23784948E-01 0.58907015E+03</pdfrwt>
<totfact> 0.11929160E+02</totfact>
</mgrwt>
</event>
<event>
 6    1  0.9094387E-004  0.5137742E+03  0.7818608E-02  0.1010260E+00
         21   -1    0    0  501  502  0.00000000000E+00  0.00000000000E+00  0.15051327816E+04  0.15051327816E+04  0.00000000000E+00 0.  1.
         21   -1    0    0  502  503 -0.00000000000E+00 -0.00000000000E+00 -0.17533258891E+03  0.17533258891E+03  0.00000000000E+00 0. -1.
    9000007    2    1    2  501    0 -0.13017346515E+03 -0.29498955964E+03  0.65219912602E+03  0.83010828265E+03  0.39968999189E+03 0.  0.
    9000005    1    3    3    0    0 -0.11515234355E+03 -0.36470025677E+03  0.34606831810E+03  0.51578156258E+03  0.99999687468E+00 0.  0.
          4    1    3    3  501    0 -0.15021121593E+02  0.69710697134E+02  0.30613080792E+03  0.31432672007E+03  0.00000000000E+00 0.  1.
   -9000007    1    1    2    0  503  0.13017346515E+03  0.29498955964E+03  0.67760106670E+03  0.85035708789E+03  0.40000000000E+03 0.  1.
<mgrwt>
<rscale>  2 0.51371390E+03</rscale>
<asrwt>0</asrwt>
<pdfrwt beam="1">  1       21 0.23155888E+00 0.51377424E+03</pdfrwt>
<pdfrwt beam="2">  1       21 0.26974245E-01 0.51377424E+03</pdfrwt>
<totfact> 0.89829508E+02</totfact>
</mgrwt>
</event>
<event>
 6    1  0.9094387E-004  0.4112020E+03  0.7818608E-02  0.1039974E+00
         21   -1    0    0  501  502  0.00000000000E+00  0.00000000000E+00  0.34961452704E+03  0.34961452704E+03  0.00000000000E+00 0.  1.
         21   -1    0    0  502  503 -0.00000000000E+00 -0.00000000000E+00 -0.49044506100E+03  0.49044506100E+03  0.00000000000E+00 0.  1.
    9000007    2    1    2  501    0 -0.46627289887E+02 -0.83144260428E+02 -0.12017479690E+03  0.42833913472E+03  0.39993169457E+03 0.  0.
    9000005    1    3    3    0    0  0.96877420866E+02 -0.32324651899E+02  0.11144623889E+03  0.15116673559E+03  0.99999687468E+00 0.  0.
          4    1    3    3  501    0 -0.14350471075E+03 -0.50819608529E+02 -0.23162103579E+03  0.27717239913E+03  0.00000000000E+00 0.  1.
   -9000007    1    1    2    0  503  0.46627289887E+02  0.83144260428E+02 -0.20655737064E+02  0.41172045332E+03  0.40000000000E+03 0.  1.
<mgrwt>
<rscale>  2 0.41118537E+03</rscale>
<asrwt>0</asrwt>
<pdfrwt beam="1">  1       21 0.53786850E-01 0.41120198E+03</pdfrwt>
<pdfrwt beam="2">  1       21 0.75453087E-01 0.41120198E+03</pdfrwt>
<totfact> 0.45646675E+03</totfact>
</mgrwt>
</event>
<event>
 6    1  0.9094387E-004  0.5240819E+03  0.7818608E-02  0.1007743E+00
         21   -1    0    0  501  502  0.00000000000E+00  0.00000000000E+00  0.37508074615E+03  0.37508074615E+03  0.00000000000E+00 0.  1.
         21   -1    0    0  502  503 -0.00000000000E+00 -0.00000000000E+00 -0.83759943388E+03  0.83759943388E+03  0.00000000000E+00 0.  1.
    9000007    2    1    2  501    0 -0.90523805859E+02  0.32629324606E+03 -0.44758254319E+03  0.68838548212E+03  0.39860079927E+03 0.  0.
    9000005    1    3    3    0    0 -0.16984687029E+03  0.74603334337E+02 -0.20893183964E+02  0.18668460561E+03  0.99999687468E+00 0.  0.
          4    1    3    3  501    0  0.79323064435E+02  0.25168991172E+03 -0.42668935922E+03  0.50170087651E+03  0.00000000000E+00 0.  1.
   -9000007    1    1    2    0  503  0.90523805859E+02 -0.32629324606E+03 -0.14936144543E+02  0.52429469792E+03  0.40000000000E+03 0.  1.
<mgrwt>
<rscale>  2 0.52381491E+03</rscale>
<asrwt>0</asrwt>
<pdfrwt beam="1">  1       21 0.57704730E-01 0.52408190E+03</pdfrwt>
<pdfrwt beam="2">  1       21 0.12886145E+00 0.52408190E+03</pdfrwt>
<totfact> 0.10267585E+03</totfact>
</mgrwt>
</event>
<event>
 6    1  0.9094387E-004  0.4118917E+03  0.7818608E-02  0.1039775E+00
         21   -1    0    0  501  502  0.00000000000E+00  0.00000000000E+00  0.21537179074E+03  0.21537179074E+03  0.00000000000E+00 0. -1.
         21   -1    0    0  502  503 -0.00000000000E+00 -0.00000000000E+00 -0.79439448599E+03  0.79439448599E+03  0.00000000000E+00 0. -1.
    9000007    2    1    2  501    0 -0.89624035221E+02  0.35410901555E+02 -0.33879046269E+03  0.53332328414E+03  0.40046017050E+03 0.  0.
    9000005    1    3    3    0    0 -0.12744827139E+03 -0.28196170861E+02 -0.41020960014E+03  0.43047764399E+03  0.99999687468E+00 0.  0.
          4    1    3    3  501    0  0.37824236168E+02  0.63607072416E+02  0.71419137452E+02  0.10284564015E+03  0.00000000000E+00 0.  1.
   -9000007    1    1    2    0  503  0.89624035221E+02 -0.35410901555E+02 -0.24023223256E+03  0.47644299260E+03  0.40000000000E+03 0. -1.
<mgrwt>
<rscale>  2 0.41177978E+03</rscale>
<asrwt>0</asrwt>
<pdfrwt beam="1">  1       21 0.33134122E-01 0.41189167E+03</pdfrwt>
<pdfrwt beam="2">  1       21 0.12221454E+00 0.41189167E+03</pdfrwt>
<totfact> 0.39106542E+03</totfact>
</mgrwt>
</event>
<event>
 6    1  0.9094387E-004  0.4437104E+03  0.7818608E-02  0.1029622E+00
         21   -1    0    0  501  502  0.00000000000E+00  0.00000000000E+00  0.65207404328E+03  0.65207404328E+03  0.00000000000E+00 0.  1.
         21   -1    0    0  502  503 -0.00000000000E+00 -0.00000000000E+00 -0.30277409051E+03  0.30277409051E+03  0.00000000000E+00 0.  1.
    9000007    2    1    2  501    0 -0.10429504717E+03  0.16124975458E+03  0.20085133119E+03  0.48696360374E+03  0.39989167772E+03 0.  0.
    9000005    1    3    3    0    0  0.11699958210E+03  0.36354325332E+02 -0.47727919785E+02  0.13148951860E+03  0.99999687468E+00 0.  0.
          4    1    3    3  501    0 -0.22129462927E+03  0.12489542925E+03  0.24857925098E+03  0.35547408514E+03  0.00000000000E+00 0.  1.
   -9000007    1    1    2    0  503  0.10429504717E+03 -0.16124975458E+03  0.14844862158E+03  0.46788453006E+03  0.40000000000E+03 0.  1.
<mgrwt>
<rscale>  2 0.44368601E+03</rscale>
<asrwt>0</asrwt>
<pdfrwt beam="1">  1       21 0.10031908E+00 0.44371042E+03</pdfrwt>
<pdfrwt beam="2">  1       21 0.46580629E-01 0.44371042E+03</pdfrwt>
<totfact> 0.31362448E+03</totfact>
</mgrwt>
</event>
<event>
 6    1  0.9094387E-004  0.4117665E+03  0.7818608E-02  0.1039794E+00
         21   -1    0    0  501  502  0.00000000000E+00  0.00000000000E+00  0.16304031134E+03  0.16304031134E+03  0.00000000000E+00 0.  1.
         21   -1    0    0  502  503 -0.00000000000E+00 -0.00000000000E+00 -0.13472280965E+04  0.13472280965E+04  0.00000000000E+00 0.  1.
    9000007    2    1    2  501    0  0.89121120923E+02 -0.38272426876E+02 -0.95309459652E+03  0.10382393678E+04  0.40018036184E+03 0.  0.
    9000005    1    3    3    0    0  0.74697485070E+02 -0.13010684958E+03 -0.93057375099E+03  0.94259005544E+03  0.99999687468E+00 0.  0.
          4    1    3    3  501    0  0.14423635853E+02  0.91834422708E+02 -0.22520845534E+02  0.95649312329E+02  0.00000000000E+00 0.  1.
   -9000007    1    1    2    0  503 -0.89121120923E+02  0.38272426876E+02 -0.23109318865E+03  0.47202904010E+03  0.40000000000E+03 0. -1.
<mgrwt>
<rscale>  2 0.41172270E+03</rscale>
<asrwt>0</asrwt>
<pdfrwt beam="1">  1       21 0.25083125E-01 0.41176653E+03</pdfrwt>
<pdfrwt beam="2">  1       21 0.20726586E+00 0.41176653E+03</pdfrwt>
<totfact> 0.15524383E+03</totfact>
</mgrwt>
</event>
<event>
 6    1  0.9094387E-004  0.4254375E+03  0.7818608E-02  0.1035401E+00
         21   -1    0    0  501  502  0.00000000000E+00  0.00000000000E+00  0.20654071328E+04  0.20654071328E+04  0.00000000000E+00 0. -1.
         21   -1    0    0  502  503 -0.00000000000E+00 -0.00000000000E+00 -0.14537876594E+03  0.14537876594E+03  0.00000000000E+00 0. -1.
    9000007    2    1    2  501    0  0.89034954781E+02 -0.11007007669E+03  0.16588408419E+04  0.17125273632E+04  0.40119120912E+03 0.  0.
    9000005    1    3    3    0    0 -0.66861268346E+02 -0.76120336711E+02  0.89776320015E+02  0.13537179357E+03  0.99999687468E+00 0.  0.
          4    1    3    3  501    0  0.15589622313E+03 -0.33949739979E+02  0.15690645218E+04  0.15771555697E+04  0.00000000000E+00 0.  1.
   -9000007    1    1    2    0  503 -0.89034954781E+02  0.11007007669E+03  0.26118752496E+03  0.49825853545E+03  0.40000000000E+03 0. -1.
<mgrwt>
<rscale>  2 0.42515640E+03</rscale>
<asrwt>0</asrwt>
<pdfrwt beam="1">  1       21 0.31775492E+00 0.42543746E+03</pdfrwt>
<pdfrwt beam="2">  1       21 0.22365966E-01 0.42543746E+03</pdfrwt>
<totfact> 0.40422870E+02</totfact>
</mgrwt>
</event>
<event>
 6    1  0.9094387E-004  0.4048700E+03  0.7818608E-02  0.1042207E+00
         21   -1    0    0  501  502  0.00000000000E+00  0.00000000000E+00  0.18514912805E+03  0.18514912805E+03  0.00000000000E+00 0.  1.
         21   -1    0    0  502  503 -0.00000000000E+00 -0.00000000000E+00 -0.11024586456E+04  0.11024586456E+04  0.00000000000E+00 0.  1.
    9000007    2    1    2  501    0 -0.20362041909E+02  0.59204223001E+02 -0.17071034261E+03  0.43829624024E+03  0.39880047689E+03 0.  0.
    9000005    1    3    3    0    0  0.15970586321E+03  0.83051007254E+02  0.12320034996E+02  0.18043341101E+03  0.99999687468E+00 0.  0.
          4    1    3    3  501    0 -0.18006790512E+03 -0.23846784253E+02 -0.18303037761E+03  0.25786282924E+03  0.00000000000E+00 0.  1.
   -9000007    1    1    2    0  503  0.20362041909E+02 -0.59204223001E+02 -0.74659917492E+03  0.84931153340E+03  0.40000000000E+03 0.  1.
<mgrwt>
<rscale>  2 0.40457346E+03</rscale>
<asrwt>0</asrwt>
<pdfrwt beam="1">  1       21 0.28484481E-01 0.40487004E+03</pdfrwt>
<pdfrwt beam="2">  1       21 0.16960903E+00 0.40487004E+03</pdfrwt>
<totfact> 0.22022456E+03</totfact>
</mgrwt>
</event>
<event>
 6    1  0.9094387E-004  0.4544868E+03  0.7818608E-02  0.1026411E+00
         21   -1    0    0  501  502  0.00000000000E+00  0.00000000000E+00  0.12066407560E+04  0.12066407560E+04  0.00000000000E+00 0.  1.
         21   -1    0    0  502  503 -0.00000000000E+00 -0.00000000000E+00 -0.29120185592E+03  0.29120185592E+03  0.00000000000E+00 0. -1.
    9000007    2    1    2  501    0 -0.14720407554E+03  0.15702622953E+03  0.93878374744E+03  0.10430115900E+04  0.40028986474E+03 0.  0.
    9000005    1    3    3    0    0  0.49070191593E+02  0.69144992386E+02  0.75610458656E+03  0.76084430699E+03  0.99999687468E+00 0.  0.
          4    1    3    3  501    0 -0.19627426714E+03  0.87881237142E+02  0.18267916088E+03  0.28216728301E+03  0.00000000000E+00 0.  1.
   -9000007    1    1    2    0  503  0.14720407554E+03 -0.15702622953E+03 -0.23344847332E+02  0.45483102193E+03  0.40000000000E+03 0. -1.
<mgrwt>
<rscale>  2 0.45442297E+03</rscale>
<asrwt>0</asrwt>
<pdfrwt beam="1">  1       21 0.18563704E+00 0.45448680E+03</pdfrwt>
<pdfrwt beam="2">  1       21 0.44800286E-01 0.45448680E+03</pdfrwt>
<totfact> 0.66120541E+02</totfact>
</mgrwt>
</event>
<event>
 6    1  0.9094387E-004  0.5714807E+03  0.7818608E-02  0.9967809E-01
         21   -1    0    0  501  502  0.00000000000E+00  0.00000000000E+00  0.27512628317E+03  0.27512628317E+03  0.00000000000E+00 0. -1.
         21   -1    0    0  502  503 -0.00000000000E+00 -0.00000000000E+00 -0.11902204087E+04  0.11902204087E+04  0.00000000000E+00 0.  1.
    9000007    2    1    2  501    0 -0.22066549269E+03 -0.33912353594E+03 -0.39690851559E+03  0.69579204233E+03  0.40359901405E+03 0.  0.
    9000005    1    3    3    0    0 -0.32983535181E+03 -0.26635180917E+03 -0.36811990767E+03  0.56146942212E+03  0.99999687468E+00 0.  0.
          4    1    3    3  501    0  0.10916985912E+03 -0.72771726763E+02 -0.28788607912E+02  0.13432262022E+03  0.00000000000E+00 0.  1.
   -9000007    1    1    2    0  503  0.22066549269E+03  0.33912353594E+03 -0.51818560999E+03  0.76955464958E+03  0.40000000000E+03 0.  1.
<mgrwt>
<rscale>  2 0.57084564E+03</rscale>
<asrwt>0</asrwt>
<pdfrwt beam="1">  1       21 0.42327120E-01 0.57148071E+03</pdfrwt>
<pdfrwt beam="2">  1       21 0.18311084E+00 0.57148071E+03</pdfrwt>
<totfact> 0.73942883E+02</totfact>
</mgrwt>
</event>
<event>
 6    1  0.9094387E-004  0.4912870E+03  0.7818608E-02  0.1016131E+00
         21   -1    0    0  501  502  0.00000000000E+00  0.00000000000E+00  0.28084158370E+04  0.28084158370E+04  0.00000000000E+00 0.  1.
         21   -1    0    0  502  503 -0.00000000000E+00 -0.00000000000E+00 -0.91405891955E+02  0.91405891955E+02  0.00000000000E+00 0.  1.
    9000007    2    1    2  501    0  0.15890706029E+03 -0.23523401841E+03  0.17184577681E+04  0.17873052359E+04  0.40096933585E+03 0.  0.
    9000005    1    3    3    0    0 -0.97378997399E+02 -0.23749186271E+02  0.87554406112E+03  0.88126335220E+03  0.99999687468E+00 0.  0.
          4    1    3    3  501    0  0.25628605769E+03 -0.21148483214E+03  0.84291370703E+03  0.90604188374E+03  0.00000000000E+00 0.  1.
   -9000007    1    1    2    0  503 -0.15890706029E+03  0.23523401841E+03  0.99855217685E+03  0.11125164930E+04  0.40000000000E+03 0.  1.
<mgrwt>
<rscale>  2 0.49108917E+03</rscale>
<asrwt>0</asrwt>
<pdfrwt beam="1">  1       21 0.43206391E+00 0.49128699E+03</pdfrwt>
<pdfrwt beam="2">  1       21 0.14062447E-01 0.49128699E+03</pdfrwt>
<totfact> 0.17749727E+02</totfact>
</mgrwt>
</event>
<event>
 6    1  0.9094387E-004  0.6226574E+03  0.7818608E-02  0.9859599E-01
         21   -1    0    0  501  502  0.00000000000E+00  0.00000000000E+00  0.19986822366E+04  0.19986822366E+04  0.00000000000E+00 0.  1.
         21   -1    0    0  502  503 -0.00000000000E+00 -0.00000000000E+00 -0.24372475543E+03  0.24372475543E+03  0.00000000000E+00 0. -1.
    9000007    2    1    2  501    0 -0.14822149180E+03  0.45325546602E+03  0.13845213172E+04  0.15180913980E+04  0.40036494215E+03 0.  0.
    9000005    1    3    3    0    0  0.59728734139E+02  0.61958587884E+02  0.68257629244E+03  0.68798094690E+03  0.99999687468E+00 0.  0.
          4    1    3    3  501    0 -0.20795022594E+03  0.39129687813E+03  0.70194502474E+03  0.83011045113E+03  0.00000000000E+00 0.  1.
   -9000007    1    1    2    0  503  0.14822149180E+03 -0.45325546602E+03  0.37043616394E+03  0.72431559397E+03  0.40000000000E+03 0. -1.
<mgrwt>
<rscale>  2 0.62259873E+03</rscale>
<asrwt>0</asrwt>
<pdfrwt beam="1">  1       21 0.30748956E+00 0.62265738E+03</pdfrwt>
<pdfrwt beam="2">  1       21 0.37496118E-01 0.62265738E+03</pdfrwt>
<totfact> 0.15083450E+02</totfact>
</mgrwt>
</event>
<event>
 6    1  0.9094387E-004  0.5801952E+03  0.7818608E-02  0.9949098E-01
         21   -1    0    0  501  502  0.00000000000E+00  0.00000000000E+00  0.11943432268E+04  0.11943432268E+04  0.00000000000E+00 0.  1.
         21   -1    0    0  502  503 -0.00000000000E+00 -0.00000000000E+00 -0.84968119123E+03  0.84968119123E+03  0.00000000000E+00 0. -1.
    9000007    2    1    2  501    0 -0.41313097760E+03  0.47553061218E+02  0.10091058109E+04  0.11640107653E+04  0.40458376867E+03 0.  0.
    9000005    1    3    3    0    0 -0.21820803726E+03 -0.14107531271E+03  0.72975790558E+03  0.77463836216E+03  0.99999687468E+00 0.  0.
          4    1    3    3  501    0 -0.19492294035E+03  0.18862837393E+03  0.27934790532E+03  0.38937240314E+03  0.00000000000E+00 0.  1.
   -9000007    1    1    2    0  503  0.41313097760E+03 -0.47553061218E+02 -0.66444377537E+03  0.88001365269E+03  0.40000000000E+03 0. -1.
<mgrwt>
<rscale>  2 0.57939685E+03</rscale>
<asrwt>0</asrwt>
<pdfrwt beam="1">  1       21 0.18374511E+00 0.58019525E+03</pdfrwt>
<pdfrwt beam="2">  1       21 0.13072018E+00 0.58019525E+03</pdfrwt>
<totfact> 0.53806259E+01</totfact>
</mgrwt>
</event>
<event>
 6    1  0.9094387E-004  0.5332544E+03  0.7818608E-02  0.1005628E+00
         21   -1    0    0  501  502  0.00000000000E+00  0.00000000000E+00  0.98153999322E+02  0.98153999322E+02  0.00000000000E+00 0. -1.
         21   -1    0    0  502  503 -0.00000000000E+00 -0.00000000000E+00 -0.29004781990E+04  0.29004781990E+04  0.00000000000E+00 0.  1.
    9000007    2    1    2  501    0 -0.12733738463E+03 -0.32394328205E+03 -0.12813832927E+04  0.13879133209E+04  0.40398785138E+03 0.  0.
    9000005    1    3    3    0    0 -0.24217885358E+03 -0.21833984240E+03 -0.54427904230E+03  0.63447896717E+03  0.99999687468E+00 0.  0.
          4    1    3    3  501    0  0.11484146894E+03 -0.10560343965E+03 -0.73710425037E+03  0.75343435372E+03  0.00000000000E+00 0.  1.
   -9000007    1    1    2    0  503  0.12733738463E+03  0.32394328205E+03 -0.15209409070E+04  0.16107188774E+04  0.40000000000E+03 0.  1.
<mgrwt>
<rscale>  2 0.53249909E+03</rscale>
<asrwt>0</asrwt>
<pdfrwt beam="1">  1       21 0.15100616E-01 0.53325439E+03</pdfrwt>
<pdfrwt beam="2">  1       21 0.44622741E+00 0.53325439E+03</pdfrwt>
<totfact> 0.12190733E+02</totfact>
</mgrwt>
</event>
<event>
 6    1  0.9094387E-004  0.4059359E+03  0.7818608E-02  0.1041789E+00
         21   -1    0    0  501  502  0.00000000000E+00  0.00000000000E+00  0.63786570679E+03  0.63786570679E+03  0.00000000000E+00 0. -1.
         21   -1    0    0  502  503 -0.00000000000E+00 -0.00000000000E+00 -0.39368246770E+03  0.39368246770E+03  0.00000000000E+00 0. -1.
    9000007    2    1    2  501    0  0.61004086137E+02  0.25089138594E+02  0.42494241861E+03  0.58767336738E+03  0.40054083961E+03 0.  0.
    9000005    1    3    3    0    0  0.59887975900E+02  0.19741423420E+03  0.12347915865E+03  0.24043097167E+03  0.99999687468E+00 0.  0.
          4    1    3    3  501    0  0.11161102371E+01 -0.17232509560E+03  0.30146325996E+03  0.34724239572E+03  0.00000000000E+00 0.  1.
   -9000007    1    1    2    0  503 -0.61004086137E+02 -0.25089138594E+02 -0.18075917952E+03  0.44387480711E+03  0.40000000000E+03 0. -1.
<mgrwt>
<rscale>  2 0.40580239E+03</rscale>
<asrwt>0</asrwt>
<pdfrwt beam="1">  1       21 0.98133186E-01 0.40593587E+03</pdfrwt>
<pdfrwt beam="2">  1       21 0.60566533E-01 0.40593587E+03</pdfrwt>
<totfact> 0.19112255E+03</totfact>
</mgrwt>
</event>
<event>
 6    1  0.9094387E-004  0.4558112E+03  0.7818608E-02  0.1026006E+00
         21   -1    0    0  501  502  0.00000000000E+00  0.00000000000E+00  0.29532504630E+03  0.29532504630E+03  0.00000000000E+00 0.  1.
         21   -1    0    0  502  503 -0.00000000000E+00 -0.00000000000E+00 -0.77760105773E+03  0.77760105773E+03  0.00000000000E+00 0. -1.
    9000007    2    1    2  501    0  0.82552783664E+02 -0.20227964271E+03 -0.75491229951E+02  0.46202032210E+03  0.40003979338E+03 0.  0.
    9000005    1    3    3    0    0  0.18015189671E+03 -0.16328299718E+03 -0.18853011083E+03  0.30766970234E+03  0.99999687468E+00 0.  0.
          4    1    3    3  501    0 -0.97599113046E+02 -0.38996645530E+02  0.11303888088E+03  0.15435061976E+03  0.00000000000E+00 0.  1.
   -9000007    1    1    2    0  503 -0.82552783664E+02  0.20227964271E+03 -0.40678478148E+03  0.61090578192E+03  0.40000000000E+03 0.  1.
<mgrwt>
<rscale>  2 0.45580247E+03</rscale>
<asrwt>0</asrwt>
<pdfrwt beam="1">  1       21 0.45434623E-01 0.45581120E+03</pdfrwt>
<pdfrwt beam="2">  1       21 0.11963093E+00 0.45581120E+03</pdfrwt>
<totfact> 0.21257305E+03</totfact>
</mgrwt>
</event>
<event>
 6    1  0.9094387E-004  0.4414461E+03  0.7818608E-02  0.1030366E+00
         21   -1    0    0  501  502  0.00000000000E+00  0.00000000000E+00  0.45107428940E+03  0.45107428940E+03  0.00000000000E+00 0.  1.
         21   -1    0    0  502  503 -0.00000000000E+00 -0.00000000000E+00 -0.12426723323E+04  0.12426723323E+04  0.00000000000E+00 0. -1.
    9000007    2    1    2  501    0  0.12118962291E+03  0.13954637512E+03  0.28840967197E+03  0.52730897668E+03  0.40089213324E+03 0.  0.
    9000005    1    3    3    0    0 -0.69963611415E+01  0.80043442402E+02 -0.91612598096E+02  0.12185963181E+03  0.99999687468E+00 0.  0.
          4    1    3    3  501    0  0.12818598405E+03  0.59502932716E+02  0.38002227007E+03  0.40544934487E+03  0.00000000000E+00 0.  1.
   -9000007    1    1    2    0  503 -0.12118962291E+03 -0.13954637512E+03 -0.10800077148E+04  0.11664376450E+04  0.40000000000E+03 0. -1.
<mgrwt>
<rscale>  2 0.44124341E+03</rscale>
<asrwt>0</asrwt>
<pdfrwt beam="1">  1       21 0.69396046E-01 0.44144605E+03</pdfrwt>
<pdfrwt beam="2">  1       21 0.19118036E+00 0.44144605E+03</pdfrwt>
<totfact> 0.23625349E+02</totfact>
</mgrwt>
</event>
<event>
 6    1  0.9094387E-004  0.4229250E+03  0.7818608E-02  0.1036134E+00
         21   -1    0    0  501  502  0.00000000000E+00  0.00000000000E+00  0.46249172373E+03  0.46249172373E+03  0.00000000000E+00 0. -1.
         21   -1    0    0  502  503 -0.00000000000E+00 -0.00000000000E+00 -0.39212236401E+03  0.39212236401E+03  0.00000000000E+00 0. -1.
    9000007    2    1    2  501    0  0.13162365973E+03  0.39252714353E+02  0.86018004581E+02  0.43139966990E+03  0.39980121898E+03 0.  0.
    9000005    1    3    3    0    0  0.20085327997E+03 -0.12962201286E+03  0.64657199559E+02  0.24763977819E+03  0.99999687468E+00 0.  0.
          4    1    3    3  501    0 -0.69229620245E+02  0.16887472721E+03  0.21360805022E+02  0.18375989171E+03  0.00000000000E+00 0.  1.
   -9000007    1    1    2    0  503 -0.13162365973E+03 -0.39252714353E+02 -0.15648644857E+02  0.42321441784E+03  0.40000000000E+03 0. -1.
<mgrwt>
<rscale>  2 0.42287800E+03</rscale>
<asrwt>0</asrwt>
<pdfrwt beam="1">  1       21 0.71152573E-01 0.42292501E+03</pdfrwt>
<pdfrwt beam="2">  1       21 0.60326517E-01 0.42292501E+03</pdfrwt>
<totfact> 0.40485335E+03</totfact>
</mgrwt>
</event>
<event>
 6    1  0.9094387E-004  0.4524447E+03  0.7818608E-02  0.1027003E+00
         21   -1    0    0  501  502  0.00000000000E+00  0.00000000000E+00  0.45901718523E+03  0.45901718523E+03  0.00000000000E+00 0. -1.
         21   -1    0    0  502  503 -0.00000000000E+00 -0.00000000000E+00 -0.51709062422E+03  0.51709062422E+03  0.00000000000E+00 0.  1.
    9000007    2    1    2  501    0  0.17067304152E+03  0.12442794588E+03 -0.21017687006E+03  0.49887929546E+03  0.40011827491E+03 0.  0.
    9000005    1    3    3    0    0  0.23106502015E+01  0.23138767638E+03 -0.36228030648E+02  0.23422012314E+03  0.99999687468E+00 0.  0.
          4    1    3    3  501    0  0.16836239132E+03 -0.10695973050E+03 -0.17394883942E+03  0.26465917232E+03  0.00000000000E+00 0.  1.
   -9000007    1    1    2    0  503 -0.17067304152E+03 -0.12442794588E+03  0.15210343107E+03  0.47722851399E+03  0.40000000000E+03 0. -1.
<mgrwt>
<rscale>  2 0.45241858E+03</rscale>
<asrwt>0</asrwt>
<pdfrwt beam="1">  1       21 0.70618028E-01 0.45244473E+03</pdfrwt>
<pdfrwt beam="2">  1       21 0.79552404E-01 0.45244473E+03</pdfrwt>
<totfact> 0.21879103E+03</totfact>
</mgrwt>
</event>
<event>
 6    1  0.9094387E-004  0.4524132E+03  0.7818608E-02  0.1027013E+00
         21   -1    0    0  501  502  0.00000000000E+00  0.00000000000E+00  0.21486018254E+04  0.21486018254E+04  0.00000000000E+00 0.  1.
         21   -1    0    0  502  503 -0.00000000000E+00 -0.00000000000E+00 -0.99410025630E+02  0.99410025630E+02  0.00000000000E+00 0.  1.
    9000007    2    1    2  501    0  0.14598804403E+03 -0.15285675175E+03  0.12547434937E+04  0.13337767573E+04  0.39987686584E+03 0.  0.
    9000005    1    3    3    0    0  0.24896162383E+03 -0.13853170260E+03  0.53102431522E+03  0.60262819890E+03  0.99999687468E+00 0.  0.
          4    1    3    3  501    0 -0.10297357981E+03 -0.14325049146E+02  0.72371917851E+03  0.73114855844E+03  0.00000000000E+00 0.  1.
   -9000007    1    1    2    0  503 -0.14598804403E+03  0.15285675175E+03  0.79444830606E+03  0.91423509370E+03  0.40000000000E+03 0.  1.
<mgrwt>
<rscale>  2 0.45238597E+03</rscale>
<asrwt>0</asrwt>
<pdfrwt beam="1">  1       21 0.33055409E+00 0.45241319E+03</pdfrwt>
<pdfrwt beam="2">  1       21 0.15293852E-01 0.45241319E+03</pdfrwt>
<totfact> 0.68248415E+02</totfact>
</mgrwt>
</event>
<event>
 6    1  0.9094387E-004  0.4676572E+03  0.7818608E-02  0.1022598E+00
         21   -1    0    0  501  502  0.00000000000E+00  0.00000000000E+00  0.36462431305E+04  0.36462431305E+04  0.00000000000E+00 0.  1.
         21   -1    0    0  502  503 -0.00000000000E+00 -0.00000000000E+00 -0.67442109767E+02  0.67442109767E+02  0.00000000000E+00 0. -1.
    9000007    2    1    2  501    0 -0.42158201137E+02 -0.23818228482E+03  0.24084908938E+04  0.24534733898E+04  0.40024389372E+03 0.  0.
    9000005    1    3    3    0    0  0.12511218512E+03  0.36240276932E+02  0.43845222197E+03  0.45739235617E+03  0.99999687468E+00 0.  0.
          4    1    3    3  501    0 -0.16727038626E+03 -0.27442256176E+03  0.19700386718E+04  0.19960810336E+04  0.00000000000E+00 0.  1.
   -9000007    1    1    2    0  503  0.42158201137E+02  0.23818228482E+03  0.11703101270E+04  0.12602118504E+04  0.40000000000E+03 0. -1.
<mgrwt>
<rscale>  2 0.46760505E+03</rscale>
<asrwt>0</asrwt>
<pdfrwt beam="1">  1       21 0.56096033E+00 0.46765723E+03</pdfrwt>
<pdfrwt beam="2">  1       21 0.10375712E-01 0.46765723E+03</pdfrwt>
<totfact> 0.38037992E+01</totfact>
</mgrwt>
</event>
<event>
 6    1  0.9094387E-004  0.4150813E+03  0.7818608E-02  0.1038868E+00
         21   -1    0    0  501  502  0.00000000000E+00  0.00000000000E+00  0.14720151728E+03  0.14720151728E+03  0.00000000000E+00 0.  1.
         21   -1    0    0  502  503 -0.00000000000E+00 -0.00000000000E+00 -0.17364218102E+04  0.17364218102E+04  0.00000000000E+00 0.  1.
    9000007    2    1    2  501    0  0.48911385525E+02 -0.89508230434E+02 -0.25534578387E+03  0.48733351055E+03  0.40235361837E+03 0.  0.
    9000005    1    3    3    0    0 -0.16864366522E+03 -0.87678857171E+02 -0.16520204028E+03  0.25183522772E+03  0.99999687468E+00 0.  0.
          4    1    3    3  501    0  0.21755505074E+03 -0.18293732626E+01 -0.90143743588E+02  0.23549828283E+03  0.00000000000E+00 0.  1.
   -9000007    1    1    2    0  503 -0.48911385525E+02  0.89508230434E+02 -0.13338745091E+04  0.13962898169E+04  0.40000000000E+03 0.  1.
<mgrwt>
<rscale>  2 0.41450985E+03</rscale>
<asrwt>0</asrwt>
<pdfrwt beam="1">  1       21 0.22646388E-01 0.41508129E+03</pdfrwt>
<pdfrwt beam="2">  1       21 0.26714181E+00 0.41508129E+03</pdfrwt>
<totfact> 0.79957040E+02</totfact>
</mgrwt>
</event>
<event>
 6    1  0.9094387E-004  0.4105571E+03  0.7818608E-02  0.1040619E+00
         21   -1    0    0  501  502  0.00000000000E+00  0.00000000000E+00  0.70257330424E+03  0.70257330424E+03  0.00000000000E+00 0. -1.
         21   -1    0    0  502  503 -0.00000000000E+00 -0.00000000000E+00 -0.49304896425E+03  0.49304896425E+03  0.00000000000E+00 0. -1.
    9000007    2    1    2  501    0 -0.90927789845E+02  0.17008966505E+02  0.53532182380E+03  0.67150284663E+03  0.39470172292E+03 0.  0.
    9000005    1    3    3    0    0 -0.16735651829E+03 -0.61431540561E+02  0.53292983352E+03  0.56195840223E+03  0.99999687468E+00 0.  0.
          4    1    3    3  501    0  0.76428728445E+02  0.78440507066E+02  0.23919902872E+01  0.10954444440E+03  0.00000000000E+00 0.  1.
   -9000007    1    1    2    0  503  0.90927789845E+02 -0.17008966505E+02 -0.32579748381E+03  0.52411942186E+03  0.40000000000E+03 0. -1.
<mgrwt>
<rscale>  2 0.40926095E+03</rscale>
<asrwt>0</asrwt>
<pdfrwt beam="1">  1       21 0.10808820E+00 0.41055714E+03</pdfrwt>
<pdfrwt beam="2">  1       21 0.75853687E-01 0.41055714E+03</pdfrwt>
<totfact> 0.91098390E+02</totfact>
</mgrwt>
</event>
<event>
 6    1  0.9094387E-004  0.4422703E+03  0.7818608E-02  0.1030566E+00
         21   -1    0    0  501  502  0.00000000000E+00  0.00000000000E+00  0.37689784273E+03  0.37689784273E+03  0.00000000000E+00 0. -1.
         21   -1    0    0  502  503 -0.00000000000E+00 -0.00000000000E+00 -0.51338631338E+03  0.51338631338E+03  0.00000000000E+00 0. -1.
    9000007    2    1    2  501    0 -0.37534058796E+02  0.18491688584E+03 -0.38421022965E+02  0.43727170094E+03  0.39259050574E+03 0.  0.
    9000005    1    3    3    0    0  0.74660482715E+02  0.25271542599E+03 -0.11269731962E+03  0.28660244251E+03  0.99999687468E+00 0.  0.
          4    1    3    3  501    0 -0.11219454151E+03 -0.67798540148E+02  0.74276296652E+02  0.15066925843E+03  0.00000000000E+00 0.  1.
   -9000007    1    1    2    0  503  0.37534058796E+02 -0.18491688584E+03 -0.98067447686E+02  0.45301245516E+03  0.40000000000E+03 0.  1.
<mgrwt>
<rscale>  2 0.44058831E+03</rscale>
<asrwt>0</asrwt>
<pdfrwt beam="1">  1       21 0.57984284E-01 0.44227035E+03</pdfrwt>
<pdfrwt beam="2">  1       21 0.78982510E-01 0.44227035E+03</pdfrwt>
<totfact> 0.34557970E+03</totfact>
</mgrwt>
</event>
<event>
 6    1  0.9094387E-004  0.5610130E+03  0.7818608E-02  0.9989793E-01
         21   -1    0    0  501  502  0.00000000000E+00  0.00000000000E+00  0.65923140194E+03  0.65923140194E+03  0.00000000000E+00 0. -1.
         21   -1    0    0  502  503 -0.00000000000E+00 -0.00000000000E+00 -0.49464228309E+03  0.49464228309E+03  0.00000000000E+00 0.  1.
    9000007    2    1    2  501    0 -0.15256781571E+03  0.36249613218E+03 -0.25460931940E+02  0.56159047064E+03  0.40006901083E+03 0.  0.
    9000005    1    3    3    0    0 -0.26163753377E+03  0.32762601615E+03  0.53239870197E+02  0.42264463715E+03  0.99999687468E+00 0.  0.
          4    1    3    3  501    0  0.10906971806E+03  0.34870116024E+02 -0.78700802137E+02  0.13894583350E+03  0.00000000000E+00 0.  1.
   -9000007    1    1    2    0  503  0.15256781571E+03 -0.36249613218E+03  0.19005005079E+03  0.59228321438E+03  0.40000000000E+03 0.  1.
<mgrwt>
<rscale>  2 0.56100071E+03</rscale>
<asrwt>0</asrwt>
<pdfrwt beam="1">  1       21 0.10142022E+00 0.56101301E+03</pdfrwt>
<pdfrwt beam="2">  1       21 0.76098813E-01 0.56101301E+03</pdfrwt>
<totfact> 0.99817937E+02</totfact>
</mgrwt>
</event>
<event>
 6    1  0.9094387E-004  0.4248502E+03  0.7818608E-02  0.1035503E+00
         21   -1    0    0  501  502  0.00000000000E+00  0.00000000000E+00  0.11024149334E+04  0.11024149334E+04  0.00000000000E+00 0. -1.
         21   -1    0    0  502  503 -0.00000000000E+00 -0.00000000000E+00 -0.18972356832E+03  0.18972356832E+03  0.00000000000E+00 0. -1.
    9000007    2    1    2  501    0 -0.57485276188E+02 -0.13096476801E+03  0.69559696408E+03  0.81507843594E+03  0.40005173774E+03 0.  0.
    9000005    1    3    3    0    0 -0.19812896009E+03 -0.18761235480E+03  0.43081033985E+03  0.50995296785E+03  0.99999687468E+00 0.  0.
          4    1    3    3  501    0  0.14064368390E+03  0.56647586791E+02  0.26478662423E+03  0.30512546810E+03  0.00000000000E+00 0.  1.
   -9000007    1    1    2    0  503  0.57485276188E+02  0.13096476801E+03  0.21709440105E+03  0.47706006582E+03  0.40000000000E+03 0. -1.
<mgrwt>
<rscale>  2 0.42483805E+03</rscale>
<asrwt>0</asrwt>
<pdfrwt beam="1">  1       21 0.16960229E+00 0.42485023E+03</pdfrwt>
<pdfrwt beam="2">  1       21 0.29188242E-01 0.42485023E+03</pdfrwt>
<totfact> 0.20805417E+03</totfact>
</mgrwt>
</event>
<event>
 6    1  0.9094387E-004  0.4268468E+03  0.7818608E-02  0.1034948E+00
         21   -1    0    0  501  502  0.00000000000E+00  0.00000000000E+00  0.17751343365E+04  0.17751343365E+04  0.00000000000E+00 0. -1.
         21   -1    0    0  502  503 -0.00000000000E+00 -0.00000000000E+00 -0.10469969387E+03  0.10469969387E+03  0.00000000000E+00 0. -1.
    9000007    2    1    2  501    0 -0.86797773252E+02  0.12109629661E+03  0.97416848754E+03  0.10631427024E+04  0.39883580207E+03 0.  0.
    9000005    1    3    3    0    0 -0.45230014429E+02  0.16349924144E+03  0.12211704760E+03  0.20902471018E+03  0.99999687468E+00 0.  0.
          4    1    3    3  501    0 -0.41567758823E+02 -0.42402944827E+02  0.85205143994E+03  0.85411799220E+03  0.00000000000E+00 0.  1.
   -9000007    1    1    2    0  503  0.86797773252E+02 -0.12109629661E+03  0.69626615513E+03  0.81669132803E+03  0.40000000000E+03 0. -1.
<mgrwt>
<rscale>  2 0.42657381E+03</rscale>
<asrwt>0</asrwt>
<pdfrwt beam="1">  1       21 0.27309757E+00 0.42684677E+03</pdfrwt>
<pdfrwt beam="2">  1       21 0.16107647E-01 0.42684677E+03</pdfrwt>
<totfact> 0.13937926E+03</totfact>
</mgrwt>
</event>
<event>
 6    1  0.9094387E-004  0.5433495E+03  0.7818608E-02  0.1003048E+00
         21   -1    0    0  501  502  0.00000000000E+00  0.00000000000E+00  0.17437016769E+03  0.17437016769E+03  0.00000000000E+00 0. -1.
         21   -1    0    0  502  503 -0.00000000000E+00 -0.00000000000E+00 -0.17213682408E+04  0.17213682408E+04  0.00000000000E+00 0.  1.
    9000007    2    1    2  501    0 -0.31733379541E+03 -0.18581686794E+03 -0.89521130628E+03  0.10471780774E+04  0.39993749104E+03 0.  0.
    9000005    1    3    3    0    0 -0.24157949558E+03 -0.27092143799E+03 -0.85061002931E+03  0.92482295614E+03  0.99999687468E+00 0.  0.
          4    1    3    3  501    0 -0.75754299831E+02  0.85104570057E+02 -0.44601276975E+02  0.12235512125E+03  0.00000000000E+00 0.  1.
   -9000007    1    1    2    0  503  0.31733379541E+03  0.18581686794E+03 -0.65178676683E+03  0.84856033111E+03  0.40000000000E+03 0.  1.
<mgrwt>
<rscale>  2 0.54333797E+03</rscale>
<asrwt>0</asrwt>
<pdfrwt beam="1">  1       21 0.26826178E-01 0.54334947E+03</pdfrwt>
<pdfrwt beam="2">  1       21 0.26482590E+00 0.54334947E+03</pdfrwt>
<totfact> 0.55747777E+02</totfact>
</mgrwt>
</event>
<event>
 6    1  0.9094387E-004  0.4527738E+03  0.7818608E-02  0.1026906E+00
         21   -1    0    0  501  502  0.00000000000E+00  0.00000000000E+00  0.13902380303E+04  0.13902380303E+04  0.00000000000E+00 0.  1.
         21   -1    0    0  502  503 -0.00000000000E+00 -0.00000000000E+00 -0.16126064588E+03  0.16126064588E+03  0.00000000000E+00 0.  1.
    9000007    2    1    2  501    0 -0.15917977251E+03  0.13988373294E+03  0.38732509986E+03  0.59583962254E+03  0.40012306118E+03 0.  0.
    9000005    1    3    3    0    0  0.13253933336E+02  0.24674898699E+03  0.24541367856E+03  0.34826656881E+03  0.99999687468E+00 0.  0.
          4    1    3    3  501    0 -0.17243370585E+03 -0.10686525406E+03  0.14191142130E+03  0.24757305373E+03  0.00000000000E+00 0.  1.
   -9000007    1    1    2    0  503  0.15917977251E+03 -0.13988373294E+03  0.84165228459E+03  0.95565905368E+03  0.40000000000E+03 0.  1.
<mgrwt>
<rscale>  2 0.45274662E+03</rscale>
<asrwt>0</asrwt>
<pdfrwt beam="1">  1       21 0.21388277E+00 0.45277381E+03</pdfrwt>
<pdfrwt beam="2">  1       21 0.24809331E-01 0.45277381E+03</pdfrwt>
<totfact> 0.14091845E+03</totfact>
</mgrwt>
</event>
<event>
 6    1  0.9094387E-004  0.4307980E+03  0.7818608E-02  0.1033665E+00
         21   -1    0    0  501  502  0.00000000000E+00  0.00000000000E+00  0.15158851524E+03  0.15158851524E+03  0.00000000000E+00 0.  1.
         21   -1    0    0  502  503 -0.00000000000E+00 -0.00000000000E+00 -0.14528623789E+04  0.14528623789E+04  0.00000000000E+00 0.  1.
    9000007    2    1    2  501    0 -0.15876611598E+03  0.19499844892E+02 -0.33054094598E+03  0.54242014083E+03  0.39921844731E+03 0.  0.
    9000005    1    3    3    0    0 -0.77331358891E+02  0.18367752343E+03 -0.46923676493E+02  0.20474472665E+03  0.99999687468E+00 0.  0.
          4    1    3    3  501    0 -0.81434757090E+02 -0.16417767854E+03 -0.28361726949E+03  0.33767541418E+03  0.00000000000E+00 0.  1.
   -9000007    1    1    2    0  503  0.15876611598E+03 -0.19499844892E+02 -0.97073291772E+03  0.10620307534E+04  0.40000000000E+03 0.  1.
<mgrwt>
<rscale>  2 0.43061650E+03</rscale>
<asrwt>0</asrwt>
<pdfrwt beam="1">  1       21 0.23321310E-01 0.43079801E+03</pdfrwt>
<pdfrwt beam="2">  1       21 0.22351729E+00 0.43079801E+03</pdfrwt>
<totfact> 0.13922753E+03</totfact>
</mgrwt>
</event>
<event>
 6    1  0.9094387E-004  0.4294656E+03  0.7818608E-02  0.1034052E+00
         21   -1    0    0  501  502  0.00000000000E+00  0.00000000000E+00  0.10802942990E+04  0.10802942990E+04  0.00000000000E+00 0.  1.
         21   -1    0    0  502  503 -0.00000000000E+00 -0.00000000000E+00 -0.17867261646E+03  0.17867261646E+03  0.00000000000E+00 0.  1.
    9000007    2    1    2  501    0 -0.12378987198E+02  0.15502686046E+03  0.31727531893E+03  0.53395157807E+03  0.40031749017E+03 0.  0.
    9000005    1    3    3    0    0 -0.16515459175E+03  0.15037476209E+03  0.30847819536E+03  0.38085220920E+03  0.99999687468E+00 0.  0.
          4    1    3    3  501    0  0.15277560455E+03  0.46520983785E+01  0.87971235701E+01  0.15309936887E+03  0.00000000000E+00 0.  1.
   -9000007    1    1    2    0  503  0.12378987198E+02 -0.15502686046E+03  0.58434636363E+03  0.72501533741E+03  0.40000000000E+03 0.  1.
<mgrwt>
<rscale>  2 0.42939155E+03</rscale>
<asrwt>0</asrwt>
<pdfrwt beam="1">  1       21 0.16619912E+00 0.42946555E+03</pdfrwt>
<pdfrwt beam="2">  1       21 0.27488095E-01 0.42946555E+03</pdfrwt>
<totfact> 0.24752948E+03</totfact>
</mgrwt>
</event>
<event>
 6    1  0.9094387E-004  0.4060004E+03  0.7818608E-02  0.1041726E+00
         21   -1    0    0  501  502  0.00000000000E+00  0.00000000000E+00  0.76336013379E+03  0.76336013379E+03  0.00000000000E+00 0. -1.
         21   -1    0    0  502  503 -0.00000000000E+00 -0.00000000000E+00 -0.22153314660E+03  0.22153314660E+03  0.00000000000E+00 0.  1.
    9000007    2    1    2  501    0  0.66448786263E+02  0.19396640971E+02  0.34941637398E+03  0.53565668910E+03  0.40005576523E+03 0.  0.
    9000005    1    3    3    0    0  0.19289052973E+03  0.12089661134E+03  0.12782706257E+03  0.26108141453E+03  0.99999687468E+00 0.  0.
          4    1    3    3  501    0 -0.12644174347E+03 -0.10149997036E+03  0.22158931140E+03  0.27457527457E+03  0.00000000000E+00 0.  1.
   -9000007    1    1    2    0  503 -0.66448786263E+02 -0.19396640971E+02  0.19241061322E+03  0.44923659129E+03  0.40000000000E+03 0.  1.
<mgrwt>
<rscale>  2 0.40598661E+03</rscale>
<asrwt>0</asrwt>
<pdfrwt beam="1">  1       21 0.11744002E+00 0.40600035E+03</pdfrwt>
<pdfrwt beam="2">  1       21 0.34082023E-01 0.40600035E+03</pdfrwt>
<totfact> 0.40972840E+03</totfact>
</mgrwt>
</event>
<event>
 6    1  0.9094387E-004  0.5102200E+03  0.7818608E-02  0.1011276E+00
         21   -1    0    0  501  502  0.00000000000E+00  0.00000000000E+00  0.20120484803E+04  0.20120484803E+04  0.00000000000E+00 0. -1.
         21   -1    0    0  502  503 -0.00000000000E+00 -0.00000000000E+00 -0.35845192688E+03  0.35845192688E+03  0.00000000000E+00 0.  1.
    9000007    2    1    2  501    0  0.19169093355E+03 -0.24795736606E+03  0.17759731660E+04  0.18478109155E+04  0.40261175301E+03 0.  0.
    9000005    1    3    3    0    0  0.25454581806E+03 -0.72391828718E+01  0.10481636303E+04  0.10786537791E+04  0.99999687468E+00 0.  0.
          4    1    3    3  501    0 -0.62854884509E+02 -0.24071818319E+03  0.72780953566E+03  0.76915713637E+03  0.00000000000E+00 0.  1.
   -9000007    1    1    2    0  503 -0.19169093355E+03  0.24795736606E+03 -0.12237661260E+03  0.52268949167E+03  0.40000000000E+03 0.  1.
<mgrwt>
<rscale>  2 0.50970467E+03</rscale>
<asrwt>0</asrwt>
<pdfrwt beam="1">  1       21 0.30954592E+00 0.51022004E+03</pdfrwt>
<pdfrwt beam="2">  1       21 0.55146451E-01 0.51022004E+03</pdfrwt>
<totfact> 0.68758014E+01</totfact>
</mgrwt>
</event>
<event>
 6    1  0.9094387E-004  0.4965544E+03  0.7818608E-02  0.1014692E+00
         21   -1    0    0  501  502  0.00000000000E+00  0.00000000000E+00  0.27799046290E+03  0.27799046290E+03  0.00000000000E+00 0. -1.
         21   -1    0    0  502  503 -0.00000000000E+00 -0.00000000000E+00 -0.10718767607E+04  0.10718767607E+04  0.00000000000E+00 0.  1.
    9000007    2    1    2  501    0  0.20103207884E+03 -0.21448803562E+03 -0.67752789758E+03  0.84000617247E+03  0.40018408720E+03 0.  0.
    9000005    1    3    3    0    0  0.13734662153E+03 -0.67858932171E+02 -0.99141645496E+01  0.15351944428E+03  0.99999687468E+00 0.  0.
          4    1    3    3  501    0  0.63685457311E+02 -0.14662910345E+03 -0.66761373303E+03  0.68648672819E+03  0.00000000000E+00 0.  1.
   -9000007    1    1    2    0  503 -0.20103207884E+03  0.21448803562E+03 -0.11635840022E+03  0.50986105112E+03  0.40000000000E+03 0. -1.
<mgrwt>
<rscale>  2 0.49651735E+03</rscale>
<asrwt>0</asrwt>
<pdfrwt beam="1">  1       21 0.42767764E-01 0.49655445E+03</pdfrwt>
<pdfrwt beam="2">  1       21 0.16490412E+00 0.49655445E+03</pdfrwt>
<totfact> 0.10076960E+03</totfact>
</mgrwt>
</event>
<event>
 6    1  0.9094387E-004  0.4565282E+03  0.7818608E-02  0.1025869E+00
         21   -1    0    0  501  502  0.00000000000E+00  0.00000000000E+00  0.16788635297E+03  0.16788635297E+03  0.00000000000E+00 0.  1.
         21   -1    0    0  502  503 -0.00000000000E+00 -0.00000000000E+00 -0.12745602031E+04  0.12745602031E+04  0.00000000000E+00 0.  1.
    9000007    2    1    2  501    0 -0.21440433335E+03  0.38816953532E+02 -0.43282919571E+03  0.62909386975E+03  0.40117578474E+03 0.  0.
    9000005    1    3    3    0    0  0.44485160168E+02  0.13992697062E+03 -0.48169581463E+02  0.15453088738E+03  0.99999687468E+00 0.  0.
          4    1    3    3  501    0 -0.25888949352E+03 -0.10111001709E+03 -0.38465961425E+03  0.47456298238E+03  0.00000000000E+00 0.  1.
   -9000007    1    1    2    0  503  0.21440433335E+03 -0.38816953532E+02 -0.67384465437E+03  0.81335268627E+03  0.40000000000E+03 0.  1.
<mgrwt>
<rscale>  2 0.45626975E+03</rscale>
<asrwt>0</asrwt>
<pdfrwt beam="1">  1       21 0.25828669E-01 0.45652819E+03</pdfrwt>
<pdfrwt beam="2">  1       21 0.19608619E+00 0.45652819E+03</pdfrwt>
<totfact> 0.17044906E+03</totfact>
</mgrwt>
</event>
<event>
 6    1  0.9094387E-004  0.5089992E+03  0.7818608E-02  0.1011518E+00
         21   -1    0    0  501  502  0.00000000000E+00  0.00000000000E+00  0.56320383480E+03  0.56320383480E+03  0.00000000000E+00 0. -1.
         21   -1    0    0  502  503 -0.00000000000E+00 -0.00000000000E+00 -0.45978530655E+03  0.45978530655E+03  0.00000000000E+00 0.  1.
    9000007    2    1    2  501    0  0.17222267999E+03  0.26161061011E+03  0.70898859425E+02  0.51391322198E+03  0.40122236805E+03 0.  0.
    9000005    1    3    3    0    0  0.24732890603E+03  0.18332610142E+03  0.18280871691E+03  0.35805037941E+03  0.99999687468E+00 0.  0.
          4    1    3    3  501    0 -0.75106226040E+02  0.78284508693E+02 -0.11190985749E+03  0.15586284257E+03  0.00000000000E+00 0.  1.
   -9000007    1    1    2    0  503 -0.17222267999E+03 -0.26161061011E+03  0.32519668826E+02  0.50907591938E+03  0.40000000000E+03 0. -1.
<mgrwt>
<rscale>  2 0.50875825E+03</rscale>
<asrwt>0</asrwt>
<pdfrwt beam="1">  1       21 0.86646743E-01 0.50899917E+03</pdfrwt>
<pdfrwt beam="2">  1       21 0.70736201E-01 0.50899917E+03</pdfrwt>
<totfact> 0.17508229E+03</totfact>
</mgrwt>
</event>
<event>
 6    1  0.9094387E-004  0.4314866E+03  0.7818608E-02  0.1033406E+00
         21   -1    0    0  501  502  0.00000000000E+00  0.00000000000E+00  0.44476306168E+03  0.44476306168E+03  0.00000000000E+00 0. -1.
         21   -1    0    0  502  503 -0.00000000000E+00 -0.00000000000E+00 -0.43925619143E+03  0.43925619143E+03  0.00000000000E+00 0. -1.
    9000007    2    1    2  501    0  0.15156399752E+03  0.55254837898E+02 -0.93488238544E+02  0.44149832251E+03  0.40019492198E+03 0.  0.
    9000005    1    3    3    0    0  0.18278199452E+03  0.20102494826E+03 -0.12835093318E+02  0.27200372600E+03  0.99999687468E+00 0.  0.
          4    1    3    3  501    0 -0.31217997003E+02 -0.14577011036E+03 -0.80653145226E+02  0.16949459651E+03  0.00000000000E+00 0.  1.
   -9000007    1    1    2    0  503 -0.15156399752E+03 -0.55254837898E+02  0.98995108797E+02  0.44252093060E+03  0.40000000000E+03 0.  1.
<mgrwt>
<rscale>  2 0.43144144E+03</rscale>
<asrwt>0</asrwt>
<pdfrwt beam="1">  1       21 0.68425087E-01 0.43148664E+03</pdfrwt>
<pdfrwt beam="2">  1       21 0.67577875E-01 0.43148664E+03</pdfrwt>
<totfact> 0.34279453E+03</totfact>
</mgrwt>
</event>
<event>
 6    1  0.9094387E-004  0.4997099E+03  0.7818608E-02  0.1013967E+00
         21   -1    0    0  501  502  0.00000000000E+00  0.00000000000E+00  0.87686756686E+03  0.87686756686E+03  0.00000000000E+00 0. -1.
         21   -1    0    0  502  503 -0.00000000000E+00 -0.00000000000E+00 -0.28681731931E+03  0.28681731931E+03  0.00000000000E+00 0. -1.
    9000007    2    1    2  501    0 -0.17872857818E+03 -0.24034579593E+03  0.35420471622E+03  0.61111532409E+03  0.39785795464E+03 0.  0.
    9000005    1    3    3    0    0 -0.23811881324E+03 -0.19544229877E+03  0.68117651592E+02  0.31549845613E+03  0.99999687468E+00 0.  0.
          4    1    3    3  501    0  0.59390235066E+02 -0.44903497163E+02  0.28608706463E+03  0.29561686797E+03  0.00000000000E+00 0.  1.
   -9000007    1    1    2    0  503  0.17872857818E+03  0.24034579593E+03  0.23584553133E+03  0.55256956207E+03  0.40000000000E+03 0. -1.
<mgrwt>
<rscale>  2 0.49928113E+03</rscale>
<asrwt>0</asrwt>
<pdfrwt beam="1">  1       21 0.13490270E+00 0.49970992E+03</pdfrwt>
<pdfrwt beam="2">  1       21 0.44125742E-01 0.49970992E+03</pdfrwt>
<totfact> 0.16299970E+03</totfact>
</mgrwt>
</event>
<event>
 6    1  0.9094387E-004  0.6949878E+03  0.7818608E-02  0.9726011E-01
         21   -1    0    0  501  502  0.00000000000E+00  0.00000000000E+00  0.16640044543E+04  0.16640044543E+04  0.00000000000E+00 0.  1.
         21   -1    0    0  502  503 -0.00000000000E+00 -0.00000000000E+00 -0.30758591931E+03  0.30758591931E+03  0.00000000000E+00 0.  1.
    9000007    2    1    2  501    0 -0.24026763213E+03  0.51505289111E+03  0.44301814281E+03  0.82384985760E+03  0.39931879159E+03 0.  0.
    9000005    1    3    3    0    0 -0.27420237810E+03  0.13572624192E+03  0.25908704520E+03  0.40091851277E+03  0.99999687468E+00 0.  0.
          4    1    3    3  501    0  0.33934745964E+02  0.37932664919E+03  0.18393109762E+03  0.42293134483E+03  0.00000000000E+00 0.  1.
   -9000007    1    1    2    0  503  0.24026763213E+03 -0.51505289111E+03  0.91340039221E+03  0.11477405160E+04  0.40000000000E+03 0.  1.
<mgrwt>
<rscale>  2 0.69488980E+03</rscale>
<asrwt>0</asrwt>
<pdfrwt beam="1">  1       21 0.25600068E+00 0.69498778E+03</pdfrwt>
<pdfrwt beam="2">  1       21 0.47320912E-01 0.69498778E+03</pdfrwt>
<totfact> 0.18653690E+02</totfact>
</mgrwt>
</event>
<event>
 6    1  0.9094387E-004  0.5351960E+03  0.7818608E-02  0.1004987E+00
         21   -1    0    0  501  502  0.00000000000E+00  0.00000000000E+00  0.24687337379E+04  0.24687337379E+04  0.00000000000E+00 0. -1.
         21   -1    0    0  502  503 -0.00000000000E+00 -0.00000000000E+00 -0.14316716976E+03  0.14316716976E+03  0.00000000000E+00 0. -1.
    9000007    2    1    2  501    0  0.25029871724E+03 -0.25255747555E+03  0.59377377110E+03  0.79929476782E+03  0.39983760242E+03 0.  0.
    9000005    1    3    3    0    0  0.16501917055E+03 -0.16852736442E+03  0.63122244444E+03  0.67385129930E+03  0.99999687468E+00 0.  0.
          4    1    3    3  501    0  0.85279546684E+02 -0.84030111132E+02 -0.37448673342E+02  0.12544346852E+03  0.00000000000E+00 0.  1.
   -9000007    1    1    2    0  503 -0.25029871724E+03  0.25255747555E+03  0.17317927970E+04  0.18126061398E+04  0.40000000000E+03 0. -1.
<mgrwt>
<rscale>  2 0.53516563E+03</rscale>
<asrwt>0</asrwt>
<pdfrwt beam="1">  1       21 0.37980516E+00 0.53519597E+03</pdfrwt>
<pdfrwt beam="2">  1       21 0.22025720E-01 0.53519597E+03</pdfrwt>
<totfact> 0.16194395E+02</totfact>
</mgrwt>
</event>
<event>
 6    1  0.9094387E-004  0.7884580E+03  0.7818608E-02  0.9577514E-01
         21   -1    0    0  501  502  0.00000000000E+00  0.00000000000E+00  0.36438168560E+04  0.36438168560E+04  0.00000000000E+00 0. -1.
         21   -1    0    0  502  503 -0.00000000000E+00 -0.00000000000E+00 -0.17739717101E+03  0.17739717101E+03  0.00000000000E+00 0.  1.
    9000007    2    1    2  501    0  0.61992544951E+03  0.27318660155E+03  0.13511093534E+04  0.15643409067E+04  0.40339497434E+03 0.  0.
    9000005    1    3    3    0    0  0.20117738947E+03  0.23560684303E+03  0.87982420442E+03  0.93277787130E+03  0.99999687468E+00 0.  0.
          4    1    3    3  501    0  0.41874806004E+03  0.37579758515E+02  0.47128514902E+03  0.63156303544E+03  0.00000000000E+00 0.  1.
   -9000007    1    1    2    0  503 -0.61992544951E+03 -0.27318660155E+03  0.21153103315E+04  0.22568731203E+04  0.40000000000E+03 0. -1.
<mgrwt>
<rscale>  2 0.78802474E+03</rscale>
<asrwt>0</asrwt>
<pdfrwt beam="1">  1       21 0.56058715E+00 0.78845798E+03</pdfrwt>
<pdfrwt beam="2">  1       21 0.27291875E-01 0.78845798E+03</pdfrwt>
<totfact> 0.51976439E+00</totfact>
</mgrwt>
</event>
<event>
 6    1  0.9094387E-004  0.4245568E+03  0.7818608E-02  0.1035625E+00
         21   -1    0    0  501  502  0.00000000000E+00  0.00000000000E+00  0.14769381713E+04  0.14769381713E+04  0.00000000000E+00 0.  1.
         21   -1    0    0  502  503 -0.00000000000E+00 -0.00000000000E+00 -0.27791518647E+03  0.27791518647E+03  0.00000000000E+00 0.  1.
    9000007    2    1    2  501    0  0.13847874879E+03  0.27250171572E+02  0.12569805060E+04  0.13267435471E+04  0.40041167778E+03 0.  0.
    9000005    1    3    3    0    0 -0.88755718291E+02  0.13585355322E+03  0.35634272907E+03  0.39155447387E+03  0.99999687468E+00 0.  0.
          4    1    3    3  501    0  0.22723446709E+03 -0.10860338165E+03  0.90063777689E+03  0.93518907323E+03  0.00000000000E+00 0.  1.
   -9000007    1    1    2    0  503 -0.13847874879E+03 -0.27250171572E+02 -0.57957521142E+02  0.42810981065E+03  0.40000000000E+03 0.  1.
<mgrwt>
<rscale>  2 0.42445967E+03</rscale>
<asrwt>0</asrwt>
<pdfrwt beam="1">  1       21 0.22722125E+00 0.42455677E+03</pdfrwt>
<pdfrwt beam="2">  1       21 0.42756183E-01 0.42455677E+03</pdfrwt>
<totfact> 0.39406299E+02</totfact>
</mgrwt>
</event>
<event>
 6    1  0.9094387E-004  0.4374037E+03  0.7818608E-02  0.1031700E+00
         21   -1    0    0  501  502  0.00000000000E+00  0.00000000000E+00  0.53953053597E+03  0.53953053597E+03  0.00000000000E+00 0.  1.
         21   -1    0    0  502  503 -0.00000000000E+00 -0.00000000000E+00 -0.10085800139E+04  0.10085800139E+04  0.00000000000E+00 0. -1.
    9000007    2    1    2  501    0 -0.30606180147E+02 -0.17431365200E+03  0.38972528468E+03  0.58435950295E+03  0.39782941524E+03 0.  0.
    9000005    1    3    3    0    0 -0.19075983747E+03  0.49947023926E+01  0.21297947645E+03  0.28596419360E+03  0.99999687468E+00 0.  0.
          4    1    3    3  501    0  0.16015365732E+03 -0.17930835439E+03  0.17674580824E+03  0.29839530934E+03  0.00000000000E+00 0.  1.
   -9000007    1    1    2    0  503  0.30606180147E+02  0.17431365200E+03 -0.85877476263E+03  0.96375104693E+03  0.40000000000E+03 0. -1.
<mgrwt>
<rscale>  2 0.43690682E+03</rscale>
<asrwt>0</asrwt>
<pdfrwt beam="1">  1       21 0.83004698E-01 0.43740369E+03</pdfrwt>
<pdfrwt beam="2">  1       21 0.15516616E+00 0.43740369E+03</pdfrwt>
<totfact> 0.28607261E+02</totfact>
</mgrwt>
</event>
<event>
 6    1  0.9094387E-004  0.4099537E+03  0.7818608E-02  0.1040388E+00
         21   -1    0    0  501  502  0.00000000000E+00  0.00000000000E+00  0.80635291755E+03  0.80635291755E+03  0.00000000000E+00 0. -1.
         21   -1    0    0  502  503 -0.00000000000E+00 -0.00000000000E+00 -0.21494010731E+03  0.21494010731E+03  0.00000000000E+00 0. -1.
    9000007    2    1    2  501    0  0.21083266956E+02 -0.87278291452E+02  0.38467975082E+03  0.56216280132E+03  0.39998312489E+03 0.  0.
    9000005    1    3    3    0    0  0.28425989279E+02  0.64573865430E+02  0.40291198281E+03  0.40904386910E+03  0.99999687468E+00 0.  0.
          4    1    3    3  501    0 -0.73427223225E+01 -0.15185215688E+03 -0.18232231990E+02  0.15311893222E+03  0.00000000000E+00 0.  1.
   -9000007    1    1    2    0  503 -0.21083266956E+02  0.87278291452E+02  0.20673305942E+03  0.45913022353E+03  0.40000000000E+03 0. -1.
<mgrwt>
<rscale>  2 0.40994954E+03</rscale>
<asrwt>0</asrwt>
<pdfrwt beam="1">  1       21 0.12405429E+00 0.40995366E+03</pdfrwt>
<pdfrwt beam="2">  1       21 0.33067709E-01 0.40995366E+03</pdfrwt>
<totfact> 0.37821143E+03</totfact>
</mgrwt>
</event>
<event>
 6    1  0.9094387E-004  0.6442162E+03  0.7818608E-02  0.9817710E-01
         21   -1    0    0  501  502  0.00000000000E+00  0.00000000000E+00  0.17727817126E+03  0.17727817126E+03  0.00000000000E+00 0. -1.
         21   -1    0    0  502  503 -0.00000000000E+00 -0.00000000000E+00 -0.29191721679E+04  0.29191721679E+04  0.00000000000E+00 0.  1.
    9000007    2    1    2  501    0  0.44092986891E+03 -0.24616129642E+03 -0.68183956437E+03  0.93801599986E+03  0.39994286003E+03 0.  0.
    9000005    1    3    3    0    0  0.39305997531E+03 -0.23521748857E+03 -0.73474260385E+03  0.86583549536E+03  0.99999687468E+00 0.  0.
          4    1    3    3  501    0  0.47869893602E+02 -0.10943807846E+02  0.52903039477E+02  0.72180504498E+02  0.00000000000E+00 0.  1.
   -9000007    1    1    2    0  503 -0.44092986891E+03  0.24616129642E+03 -0.20600544323E+04  0.21584343393E+04  0.40000000000E+03 0.  1.
<mgrwt>
<rscale>  2 0.64420735E+03</rscale>
<asrwt>0</asrwt>
<pdfrwt beam="1">  1       21 0.27273565E-01 0.64421622E+03</pdfrwt>
<pdfrwt beam="2">  1       21 0.44910341E+00 0.64421622E+03</pdfrwt>
<totfact> 0.35338096E+01</totfact>
</mgrwt>
</event>
<event>
 6    1  0.9094387E-004  0.4020124E+03  0.7818608E-02  0.1043095E+00
         21   -1    0    0  501  502  0.00000000000E+00  0.00000000000E+00  0.75160420276E+03  0.75160420276E+03  0.00000000000E+00 0.  1.
         21   -1    0    0  502  503 -0.00000000000E+00 -0.00000000000E+00 -0.35509284978E+03  0.35509284978E+03  0.00000000000E+00 0.  1.
    9000007    2    1    2  501    0  0.38173697859E+02  0.12519820017E+02  0.54584637365E+03  0.67784401769E+03  0.39988782376E+03 0.  0.
    9000005    1    3    3    0    0  0.89566615931E+02 -0.10946062910E+03  0.29082542471E+02  0.14439737630E+03  0.99999687468E+00 0.  0.
          4    1    3    3  501    0 -0.51392918072E+02  0.12198044912E+03  0.51676383117E+03  0.53344664139E+03  0.00000000000E+00 0.  1.
   -9000007    1    1    2    0  503 -0.38173697859E+02 -0.12519820017E+02 -0.14933502067E+03  0.42885303485E+03  0.40000000000E+03 0.  1.
<mgrwt>
<rscale>  2 0.40198450E+03</rscale>
<asrwt>0</asrwt>
<pdfrwt beam="1">  1       21 0.11563141E+00 0.40201241E+03</pdfrwt>
<pdfrwt beam="2">  1       21 0.54629670E-01 0.40201241E+03</pdfrwt>
<totfact> 0.16001079E+03</totfact>
</mgrwt>
</event>
<event>
 6    1  0.9094387E-004  0.4404781E+03  0.7818608E-02  0.1030619E+00
         21   -1    0    0  501  502  0.00000000000E+00  0.00000000000E+00  0.65426811525E+03  0.65426811525E+03  0.00000000000E+00 0.  1.
         21   -1    0    0  502  503 -0.00000000000E+00 -0.00000000000E+00 -0.32942200449E+03  0.32942200449E+03  0.00000000000E+00 0.  1.
    9000007    2    1    2  501    0 -0.50001455531E+02  0.17691587813E+03  0.66877537082E+01  0.44052889722E+03  0.40027691633E+03 0.  0.
    9000005    1    3    3    0    0  0.10627469926E+02  0.17729757010E+02  0.18951704954E+03  0.19064364521E+03  0.99999687468E+00 0.  0.
          4    1    3    3  501    0 -0.60628925457E+02  0.15918612112E+03 -0.18282929583E+03  0.24988525201E+03  0.00000000000E+00 0.  1.
   -9000007    1    1    2    0  503  0.50001455531E+02 -0.17691587813E+03  0.31815835705E+03  0.54316122252E+03  0.40000000000E+03 0.  1.
<mgrwt>
<rscale>  2 0.44041521E+03</rscale>
<asrwt>0</asrwt>
<pdfrwt beam="1">  1       21 0.10065663E+00 0.44047813E+03</pdfrwt>
<pdfrwt beam="2">  1       21 0.50680308E-01 0.44047813E+03</pdfrwt>
<totfact> 0.26049410E+03</totfact>
</mgrwt>
</event>
<event>
 6    1  0.9094387E-004  0.4912414E+03  0.7818608E-02  0.1016137E+00
         21   -1    0    0  501  502  0.00000000000E+00  0.00000000000E+00  0.31130511543E+03  0.31130511543E+03  0.00000000000E+00 0.  1.
         21   -1    0    0  502  503 -0.00000000000E+00 -0.00000000000E+00 -0.81899369225E+03  0.81899369225E+03  0.00000000000E+00 0.  1.
    9000007    2    1    2  501    0  0.17612172242E+03 -0.22427497755E+03 -0.12134265261E+03  0.50533376881E+03  0.39914915996E+03 0.  0.
    9000005    1    3    3    0    0 -0.71046235419E+02 -0.96592940345E+02 -0.18451182521E+03  0.22005312388E+03  0.99999687468E+00 0.  0.
          4    1    3    3  501    0  0.24716795783E+03 -0.12768203720E+03  0.63169172604E+02  0.28528064493E+03  0.00000000000E+00 0.  1.
   -9000007    1    1    2    0  503 -0.17612172242E+03  0.22427497755E+03 -0.38634592421E+03  0.62496503887E+03  0.40000000000E+03 0.  1.
<mgrwt>
<rscale>  2 0.49106818E+03</rscale>
<asrwt>0</asrwt>
<pdfrwt beam="1">  1       21 0.47893095E-01 0.49124141E+03</pdfrwt>
<pdfrwt beam="2">  1       21 0.12599903E+00 0.49124141E+03</pdfrwt>
<totfact> 0.16435982E+03</totfact>
</mgrwt>
</event>
<event>
 6    1  0.9094387E-004  0.4706266E+03  0.7818608E-02  0.1021766E+00
         21   -1    0    0  501  502  0.00000000000E+00  0.00000000000E+00  0.14782871191E+04  0.14782871191E+04  0.00000000000E+00 0. -1.
         21   -1    0    0  502  503 -0.00000000000E+00 -0.00000000000E+00 -0.15164167499E+03  0.15164167499E+03  0.00000000000E+00 0. -1.
    9000007    2    1    2  501    0  0.23149273341E+03 -0.87205670672E+02  0.75508377891E+03  0.88974202592E+03  0.40036938558E+03 0.  0.
    9000005    1    3    3    0    0  0.32611512156E+03 -0.12699318052E+03  0.67205502587E+03  0.75771848216E+03  0.99999687468E+00 0.  0.
          4    1    3    3  501    0 -0.94622388147E+02  0.39787509848E+02  0.83028753034E+02  0.13202354377E+03  0.00000000000E+00 0.  1.
   -9000007    1    1    2    0  503 -0.23149273341E+03  0.87205670672E+02  0.57156166519E+03  0.74018676814E+03  0.40000000000E+03 0. -1.
<mgrwt>
<rscale>  2 0.47054799E+03</rscale>
<asrwt>0</asrwt>
<pdfrwt beam="1">  1       21 0.22742878E+00 0.47062656E+03</pdfrwt>
<pdfrwt beam="2">  1       21 0.23329489E-01 0.47062656E+03</pdfrwt>
<totfact> 0.12901079E+03</totfact>
</mgrwt>
</event>
<event>
 6    1  0.9094387E-004  0.4103340E+03  0.7818608E-02  0.1040295E+00
         21   -1    0    0  501  502  0.00000000000E+00  0.00000000000E+00  0.86919744436E+03  0.86919744436E+03  0.00000000000E+00 0. -1.
         21   -1    0    0  502  503 -0.00000000000E+00 -0.00000000000E+00 -0.26200323947E+03  0.26200323947E+03  0.00000000000E+00 0. -1.
    9000007    2    1    2  501    0 -0.75091565315E+02  0.48833492748E+02  0.59290116651E+03  0.72104492788E+03  0.40043793724E+03 0.  0.
    9000005    1    3    3    0    0 -0.16084503741E+03  0.17436708271E+03  0.24325638318E+03  0.33977885977E+03  0.99999687468E+00 0.  0.
          4    1    3    3  501    0  0.85753472096E+02 -0.12553358997E+03  0.34964478333E+03  0.38126606812E+03  0.00000000000E+00 0.  1.
   -9000007    1    1    2    0  503  0.75091565315E+02 -0.48833492748E+02  0.14293038380E+02  0.41015575595E+03  0.40000000000E+03 0. -1.
<mgrwt>
<rscale>  2 0.41022712E+03</rscale>
<asrwt>0</asrwt>
<pdfrwt beam="1">  1       21 0.13372268E+00 0.41033400E+03</pdfrwt>
<pdfrwt beam="2">  1       21 0.40308191E-01 0.41033400E+03</pdfrwt>
<totfact> 0.20838798E+03</totfact>
</mgrwt>
</event>
<event>
 6    1  0.9094387E-004  0.4426238E+03  0.7818608E-02  0.1030090E+00
         21   -1    0    0  501  502  0.00000000000E+00  0.00000000000E+00  0.21787480912E+03  0.21787480912E+03  0.00000000000E+00 0. -1.
         21   -1    0    0  502  503 -0.00000000000E+00 -0.00000000000E+00 -0.15152611216E+04  0.15152611216E+04  0.00000000000E+00 0. -1.
    9000007    2    1    2  501    0  0.18931193171E+03  0.87632429908E+01 -0.93600963204E+02  0.45055456136E+03  0.39789756286E+03 0.  0.
    9000005    1    3    3    0    0  0.29456013885E+03 -0.25447238973E+01  0.20036098534E+02  0.29525344410E+03  0.99999687468E+00 0.  0.
          4    1    3    3  501    0 -0.10524820713E+03  0.11307966888E+02 -0.11363706174E+03  0.15530111725E+03  0.00000000000E+00 0.  1.
   -9000007    1    1    2    0  503 -0.18931193171E+03 -0.87632429908E+01 -0.12037853493E+04  0.12825813694E+04  0.40000000000E+03 0. -1.
<mgrwt>
<rscale>  2 0.44214824E+03</rscale>
<asrwt>0</asrwt>
<pdfrwt beam="1">  1       21 0.33519202E-01 0.44262377E+03</pdfrwt>
<pdfrwt beam="2">  1       21 0.23311709E+00 0.44262377E+03</pdfrwt>
<totfact> 0.58931071E+02</totfact>
</mgrwt>
</event>
<event>
 6    1  0.9094387E-004  0.4530133E+03  0.7818608E-02  0.1026964E+00
         21   -1    0    0  501  502  0.00000000000E+00  0.00000000000E+00  0.75481152792E+03  0.75481152792E+03  0.00000000000E+00 0. -1.
         21   -1    0    0  502  503 -0.00000000000E+00 -0.00000000000E+00 -0.29599622591E+03  0.29599622591E+03  0.00000000000E+00 0. -1.
    9000007    2    1    2  501    0 -0.18109538728E+03  0.10372989932E+03  0.38318903616E+03  0.59334216671E+03  0.40207668181E+03 0.  0.
    9000005    1    3    3    0    0 -0.87424305894E+02 -0.14942646787E+03  0.21198463044E+03  0.27369647806E+03  0.99999687468E+00 0.  0.
          4    1    3    3  501    0 -0.93671081388E+02  0.25315636719E+03  0.17120440572E+03  0.31964568866E+03  0.00000000000E+00 0.  1.
   -9000007    1    1    2    0  503  0.18109538728E+03 -0.10372989932E+03  0.75626265854E+02  0.45746558712E+03  0.40000000000E+03 0.  1.
<mgrwt>
<rscale>  2 0.45255210E+03</rscale>
<asrwt>0</asrwt>
<pdfrwt beam="1">  1       21 0.11612485E+00 0.45301334E+03</pdfrwt>
<pdfrwt beam="2">  1       21 0.45537881E-01 0.45301334E+03</pdfrwt>
<totfact> 0.22828596E+03</totfact>
</mgrwt>
</event>
<event>
 6    1  0.9094387E-004  0.5808782E+03  0.7818608E-02  0.9945912E-01
         21   -1    0    0  501  502  0.00000000000E+00  0.00000000000E+00  0.44883880816E+03  0.44883880816E+03  0.00000000000E+00 0. -1.
         21   -1    0    0  502  503 -0.00000000000E+00 -0.00000000000E+00 -0.10961209988E+04  0.10961209988E+04  0.00000000000E+00 0. -1.
    9000007    2    1    2  501    0  0.42066735585E+03  0.21411729177E+02  0.10937360546E+03  0.59104813380E+03  0.39994477677E+03 0.  0.
    9000005    1    3    3    0    0  0.11806831373E+03 -0.55735322569E+02  0.22327230926E+03  0.25864662566E+03  0.99999687468E+00 0.  0.
          4    1    3    3  501    0  0.30259904212E+03  0.77147051746E+02 -0.11389870380E+03  0.33240150814E+03  0.00000000000E+00 0.  1.
   -9000007    1    1    2    0  503 -0.42066735585E+03 -0.21411729177E+02 -0.75665579612E+03  0.95391167318E+03  0.40000000000E+03 0. -1.
<mgrwt>
<rscale>  2 0.58086870E+03</rscale>
<asrwt>0</asrwt>
<pdfrwt beam="1">  1       21 0.69052126E-01 0.58087820E+03</pdfrwt>
<pdfrwt beam="2">  1       21 0.16863400E+00 0.58087820E+03</pdfrwt>
<totfact> 0.32429451E+02</totfact>
</mgrwt>
</event>
<event>
 6    1  0.9094387E-004  0.4429471E+03  0.7818608E-02  0.1030392E+00
         21   -1    0    0  501  502  0.00000000000E+00  0.00000000000E+00  0.13820658991E+04  0.13820658991E+04  0.00000000000E+00 0. -1.
         21   -1    0    0  502  503 -0.00000000000E+00 -0.00000000000E+00 -0.49063358164E+03  0.49063358164E+03  0.00000000000E+00 0. -1.
    9000007    2    1    2  501    0  0.36694757408E+02 -0.16913128087E+03  0.12386471009E+04  0.13154652380E+04  0.40773797528E+03 0.  0.
    9000005    1    3    3    0    0  0.14335065390E+03 -0.24502307973E+03  0.10362190632E+04  0.10744006080E+04  0.99999687468E+00 0.  0.
          4    1    3    3  501    0 -0.10665589649E+03  0.75891798870E+02  0.20242803773E+03  0.24106463003E+03  0.00000000000E+00 0.  1.
   -9000007    1    1    2    0  503 -0.36694757408E+02  0.16913128087E+03 -0.34721478346E+03  0.55723424270E+03  0.40000000000E+03 0. -1.
<mgrwt>
<rscale>  2 0.44115821E+03</rscale>
<asrwt>0</asrwt>
<pdfrwt beam="1">  1       21 0.21262552E+00 0.44294712E+03</pdfrwt>
<pdfrwt beam="2">  1       21 0.75482090E-01 0.44294712E+03</pdfrwt>
<totfact> 0.14058387E+02</totfact>
</mgrwt>
</event>
<event>
 6    1  0.9094387E-004  0.4722095E+03  0.7818608E-02  0.1021328E+00
         21   -1    0    0  501  502  0.00000000000E+00  0.00000000000E+00  0.19144126575E+03  0.19144126575E+03  0.00000000000E+00 0.  1.
         21   -1    0    0  502  503 -0.00000000000E+00 -0.00000000000E+00 -0.12061687034E+04  0.12061687034E+04  0.00000000000E+00 0.  1.
    9000007    2    1    2  501    0  0.12383709753E+03  0.21828007605E+03 -0.63826013850E+03  0.79369818284E+03  0.39949841391E+03 0.  0.
    9000005    1    3    3    0    0 -0.84834601336E+02  0.63956061119E+01  0.47861139376E+01  0.85215727666E+02  0.99999687468E+00 0.  0.
          4    1    3    3  501    0  0.20867169887E+03  0.21188446994E+03 -0.64304625244E+03  0.70848245517E+03  0.00000000000E+00 0.  1.
   -9000007    1    1    2    0  503 -0.12383709753E+03 -0.21828007605E+03 -0.37646729914E+03  0.60391178631E+03  0.40000000000E+03 0.  1.
<mgrwt>
<rscale>  2 0.47210327E+03</rscale>
<asrwt>0</asrwt>
<pdfrwt beam="1">  1       21 0.29452502E-01 0.47220951E+03</pdfrwt>
<pdfrwt beam="2">  1       21 0.18556442E+00 0.47220951E+03</pdfrwt>
<totfact> 0.15431527E+03</totfact>
</mgrwt>
</event>
<event>
 6    1  0.9094387E-004  0.4189126E+03  0.7818608E-02  0.1037466E+00
         21   -1    0    0  501  502  0.00000000000E+00  0.00000000000E+00  0.15283850214E+03  0.15283850214E+03  0.00000000000E+00 0.  1.
         21   -1    0    0  502  503 -0.00000000000E+00 -0.00000000000E+00 -0.12169560909E+04  0.12169560909E+04  0.00000000000E+00 0.  1.
    9000007    2    1    2  501    0 -0.11054627924E+03 -0.57160319052E+02 -0.36714168703E+03  0.55661368480E+03  0.39942207479E+03 0.  0.
    9000005    1    3    3    0    0 -0.67179575303E+02 -0.16614306663E+03 -0.86514930549E+01  0.17942258011E+03  0.99999687468E+00 0.  0.
          4    1    3    3  501    0 -0.43366703934E+02  0.10898274758E+03 -0.35849019398E+03  0.37719110469E+03  0.00000000000E+00 0.  1.
   -9000007    1    1    2    0  503  0.11054627924E+03  0.57160319052E+02 -0.69697590170E+03  0.81318090821E+03  0.40000000000E+03 0. -1.
<mgrwt>
<rscale>  2 0.41877460E+03</rscale>
<asrwt>0</asrwt>
<pdfrwt beam="1">  1       21 0.23513615E-01 0.41891262E+03</pdfrwt>
<pdfrwt beam="2">  1       21 0.18722402E+00 0.41891262E+03</pdfrwt>
<totfact> 0.23886525E+03</totfact>
</mgrwt>
</event>
<event>
 6    1  0.9094387E-004  0.4321319E+03  0.7818608E-02  0.1033203E+00
         21   -1    0    0  501  502  0.00000000000E+00  0.00000000000E+00  0.13804364523E+03  0.13804364523E+03  0.00000000000E+00 0.  1.
         21   -1    0    0  502  503 -0.00000000000E+00 -0.00000000000E+00 -0.14463257071E+04  0.14463257071E+04  0.00000000000E+00 0. -1.
    9000007    2    1    2  501    0  0.14894517477E+03 -0.66324094969E+02 -0.45216170596E+03  0.62545037010E+03  0.40019296154E+03 0.  0.
    9000005    1    3    3    0    0 -0.69449575802E+02  0.12210371954E+03 -0.18498400752E+03  0.23227708655E+03  0.99999687468E+00 0.  0.
          4    1    3    3  501    0  0.21839475058E+03 -0.18842781451E+03 -0.26717769844E+03  0.39317328355E+03  0.00000000000E+00 0.  1.
   -9000007    1    1    2    0  503 -0.14894517477E+03  0.66324094969E+02 -0.85612035597E+03  0.95891898227E+03  0.40000000000E+03 0. -1.
<mgrwt>
<rscale>  2 0.43208719E+03</rscale>
<asrwt>0</asrwt>
<pdfrwt beam="1">  1       21 0.21237486E-01 0.43213187E+03</pdfrwt>
<pdfrwt beam="2">  1       21 0.22251163E+00 0.43213187E+03</pdfrwt>
<totfact> 0.16902208E+03</totfact>
</mgrwt>
</event>
<event>
 6    1  0.9094387E-004  0.4026984E+03  0.7818608E-02  0.1042882E+00
         21   -1    0    0  501  502  0.00000000000E+00  0.00000000000E+00  0.32106983979E+03  0.32106983979E+03  0.00000000000E+00 0.  1.
         21   -1    0    0  502  503 -0.00000000000E+00 -0.00000000000E+00 -0.60981398812E+03  0.60981398812E+03  0.00000000000E+00 0.  1.
    9000007    2    1    2  501    0 -0.44074417864E+02 -0.14948778674E+02  0.49018748540E+02  0.40528912209E+03  0.39961283072E+03 0.  0.
    9000005    1    3    3    0    0  0.72139135466E+02  0.14512409635E+03  0.11279058387E+03  0.19745321980E+03  0.99999687468E+00 0.  0.
          4    1    3    3  501    0 -0.11621355333E+03 -0.16007287502E+03 -0.63771835333E+02  0.20783590228E+03  0.00000000000E+00 0.  1.
   -9000007    1    1    2    0  503  0.44074417864E+02  0.14948778674E+02 -0.33776289686E+03  0.52559470583E+03  0.40000000000E+03 0.  1.
<mgrwt>
<rscale>  2 0.40260225E+03</rscale>
<asrwt>0</asrwt>
<pdfrwt beam="1">  1       21 0.49395360E-01 0.40269842E+03</pdfrwt>
<pdfrwt beam="2">  1       21 0.93817536E-01 0.40269842E+03</pdfrwt>
<totfact> 0.33060451E+03</totfact>
</mgrwt>
</event>
<event>
 6    1  0.9094387E-004  0.4521489E+03  0.7818608E-02  0.1027130E+00
         21   -1    0    0  501  502  0.00000000000E+00  0.00000000000E+00  0.58328077279E+03  0.58328077279E+03  0.00000000000E+00 0. -1.
         21   -1    0    0  502  503 -0.00000000000E+00 -0.00000000000E+00 -0.35410274390E+03  0.35410274390E+03  0.00000000000E+00 0. -1.
    9000007    2    1    2  501    0 -0.55247198704E+02 -0.20343650378E+03  0.16492507066E+03  0.48069203804E+03  0.39928172068E+03 0.  0.
    9000005    1    3    3    0    0 -0.67354768665E+02  0.96011309431E+02  0.13602867278E+03  0.17960967739E+03  0.99999687468E+00 0.  0.
          4    1    3    3  501    0  0.12107569961E+02 -0.29944781321E+03  0.28896397879E+02  0.30108236065E+03  0.00000000000E+00 0.  1.
   -9000007    1    1    2    0  503  0.55247198704E+02  0.20343650378E+03  0.64252958233E+02  0.45669147865E+03  0.40000000000E+03 0.  1.
<mgrwt>
<rscale>  2 0.45199003E+03</rscale>
<asrwt>0</asrwt>
<pdfrwt beam="1">  1       21 0.89735503E-01 0.45214894E+03</pdfrwt>
<pdfrwt beam="2">  1       21 0.54477345E-01 0.45214894E+03</pdfrwt>
<totfact> 0.29261595E+03</totfact>
</mgrwt>
</event>
<event>
 6    1  0.9094387E-004  0.4071121E+03  0.7818608E-02  0.1041422E+00
         21   -1    0    0  501  502  0.00000000000E+00  0.00000000000E+00  0.47685937796E+03  0.47685937796E+03  0.00000000000E+00 0.  1.
         21   -1    0    0  502  503 -0.00000000000E+00 -0.00000000000E+00 -0.10703270072E+04  0.10703270072E+04  0.00000000000E+00 0.  1.
    9000007    2    1    2  501    0 -0.75535050216E+02 -0.58950026098E+01  0.33941859074E+03  0.52933718499E+03  0.39906463237E+03 0.  0.
    9000005    1    3    3    0    0  0.10336767408E+03  0.13143678544E+03  0.79327973996E+02  0.18507952903E+03  0.99999687468E+00 0.  0.
          4    1    3    3  501    0 -0.17890272430E+03 -0.13733178805E+03  0.26009061674E+03  0.34425765596E+03  0.00000000000E+00 0.  1.
   -9000007    1    1    2    0  503  0.75535050216E+02  0.58950026098E+01 -0.93288621993E+03  0.10178492001E+04  0.40000000000E+03 0.  1.
<mgrwt>
<rscale>  2 0.40688220E+03</rscale>
<asrwt>0</asrwt>
<pdfrwt beam="1">  1       21 0.73362982E-01 0.40711214E+03</pdfrwt>
<pdfrwt beam="2">  1       21 0.16466569E+00 0.40711214E+03</pdfrwt>
<totfact> 0.32716064E+02</totfact>
</mgrwt>
</event>
<event>
 6    1  0.9094387E-004  0.6046884E+03  0.7818608E-02  0.9895735E-01
         21   -1    0    0  501  502  0.00000000000E+00  0.00000000000E+00  0.58303477749E+03  0.58303477749E+03  0.00000000000E+00 0. -1.
         21   -1    0    0  502  503 -0.00000000000E+00 -0.00000000000E+00 -0.85868022917E+03  0.85868022917E+03  0.00000000000E+00 0.  1.
    9000007    2    1    2  501    0  0.29388396274E+03 -0.34536978573E+03  0.23651047123E+03  0.64928093254E+03  0.39997556663E+03 0.  0.
    9000005    1    3    3    0    0  0.20600846330E+03 -0.25627202260E+03  0.35008363119E+03  0.48028573302E+03  0.99999687468E+00 0.  0.
          4    1    3    3  501    0  0.87875499444E+02 -0.89097763123E+02 -0.11357315996E+03  0.16899519952E+03  0.00000000000E+00 0.  1.
   -9000007    1    1    2    0  503 -0.29388396274E+03  0.34536978573E+03 -0.51215592292E+03  0.79243407412E+03  0.40000000000E+03 0.  1.
<mgrwt>
<rscale>  2 0.60468437E+03</rscale>
<asrwt>0</asrwt>
<pdfrwt beam="1">  1       21 0.89697659E-01 0.60468841E+03</pdfrwt>
<pdfrwt beam="2">  1       21 0.13210465E+00 0.60468841E+03</pdfrwt>
<totfact> 0.34238679E+02</totfact>
</mgrwt>
</event>
<event>
 6    1  0.9094387E-004  0.4238665E+03  0.7818608E-02  0.1035816E+00
         21   -1    0    0  501  502  0.00000000000E+00  0.00000000000E+00  0.32106958586E+03  0.32106958586E+03  0.00000000000E+00 0.  1.
         21   -1    0    0  502  503 -0.00000000000E+00 -0.00000000000E+00 -0.59297599734E+03  0.59297599734E+03  0.00000000000E+00 0.  1.
    9000007    2    1    2  501    0 -0.27833290441E+02  0.13743398562E+03 -0.27452623042E+02  0.42473949582E+03  0.39998400010E+03 0.  0.
    9000005    1    3    3    0    0  0.47526813375E+02 -0.53801869237E+02  0.14149608347E+03  0.15866814663E+03  0.99999687468E+00 0.  0.
          4    1    3    3  501    0 -0.75360103815E+02  0.19123585485E+03 -0.16894870651E+03  0.26607134919E+03  0.00000000000E+00 0.  1.
   -9000007    1    1    2    0  503  0.27833290441E+02 -0.13743398562E+03 -0.24445378844E+03  0.48930608738E+03  0.40000000000E+03 0.  1.
<mgrwt>
<rscale>  2 0.42386270E+03</rscale>
<asrwt>0</asrwt>
<pdfrwt beam="1">  1       21 0.49395321E-01 0.42386648E+03</pdfrwt>
<pdfrwt beam="2">  1       21 0.91227076E-01 0.42386648E+03</pdfrwt>
<totfact> 0.35051259E+03</totfact>
</mgrwt>
</event>
<event>
 6    1  0.9094387E-004  0.4662714E+03  0.7818608E-02  0.1023005E+00
         21   -1    0    0  501  502  0.00000000000E+00  0.00000000000E+00  0.41541862656E+03  0.41541862656E+03  0.00000000000E+00 0. -1.
         21   -1    0    0  502  503 -0.00000000000E+00 -0.00000000000E+00 -0.14242205320E+04  0.14242205320E+04  0.00000000000E+00 0. -1.
    9000007    2    1    2  501    0  0.13599653051E+03 -0.19726616411E+03  0.22740214318E+03  0.51842401875E+03  0.39955316627E+03 0.  0.
    9000005    1    3    3    0    0  0.15688438245E+03  0.56970441064E+02 -0.13633608798E+02  0.16746705914E+03  0.99999687468E+00 0.  0.
          4    1    3    3  501    0 -0.20887851948E+02 -0.25423660517E+03  0.24103575198E+03  0.35095695961E+03  0.00000000000E+00 0.  1.
   -9000007    1    1    2    0  503 -0.13599653051E+03  0.19726616411E+03 -0.12362040487E+04  0.13212151398E+04  0.40000000000E+03 0. -1.
<mgrwt>
<rscale>  2 0.46617553E+03</rscale>
<asrwt>0</asrwt>
<pdfrwt beam="1">  1       21 0.63910559E-01 0.46627138E+03</pdfrwt>
<pdfrwt beam="2">  1       21 0.21911085E+00 0.46627138E+03</pdfrwt>
<totfact> 0.18325646E+02</totfact>
</mgrwt>
</event>
<event>
 6    1  0.9094387E-004  0.4552662E+03  0.7818608E-02  0.1026190E+00
         21   -1    0    0  501  502  0.00000000000E+00  0.00000000000E+00  0.11382658859E+04  0.11382658859E+04  0.00000000000E+00 0.  1.
         21   -1    0    0  502  503 -0.00000000000E+00 -0.00000000000E+00 -0.26525781097E+03  0.26525781097E+03  0.00000000000E+00 0.  1.
    9000007    2    1    2  501    0  0.85616307142E+02  0.19984287053E+03  0.82967304343E+03  0.94619968708E+03  0.39958624084E+03 0.  0.
    9000005    1    3    3    0    0  0.88510292537E+02  0.22311824521E+03  0.19009310147E+03  0.30618982748E+03  0.99999687468E+00 0.  0.
          4    1    3    3  501    0 -0.28939853945E+01 -0.23275374686E+02  0.63957994196E+03  0.64000985959E+03  0.00000000000E+00 0.  1.
   -9000007    1    1    2    0  503 -0.85616307142E+02 -0.19984287053E+03  0.43335031456E+02  0.45732400976E+03  0.40000000000E+03 0.  1.
<mgrwt>
<rscale>  2 0.45517531E+03</rscale>
<asrwt>0</asrwt>
<pdfrwt beam="1">  1       21 0.17511783E+00 0.45526621E+03</pdfrwt>
<pdfrwt beam="2">  1       21 0.40808895E-01 0.45526621E+03</pdfrwt>
<totfact> 0.95195810E+02</totfact>
</mgrwt>
</event>
<event>
 6    1  0.9094387E-004  0.4530848E+03  0.7818608E-02  0.1026807E+00
         21   -1    0    0  501  502  0.00000000000E+00  0.00000000000E+00  0.30674419414E+03  0.30674419414E+03  0.00000000000E+00 0. -1.
         21   -1    0    0  502  503 -0.00000000000E+00 -0.00000000000E+00 -0.73305759690E+03  0.73305759690E+03  0.00000000000E+00 0.  1.
    9000007    2    1    2  501    0  0.11379083087E+03  0.17982617890E+03 -0.36657996075E+03  0.58279643888E+03  0.39998126674E+03 0.  0.
    9000005    1    3    3    0    0 -0.15531593742E+02 -0.41693173916E+02  0.66166855842E+02  0.79740855031E+02  0.99999687468E+00 0.  0.
          4    1    3    3  501    0  0.12932242461E+03  0.22151935281E+03 -0.43274681659E+03  0.50305558385E+03  0.00000000000E+00 0.  1.
   -9000007    1    1    2    0  503 -0.11379083087E+03 -0.17982617890E+03 -0.59733442014E+02  0.45700535216E+03  0.40000000000E+03 0. -1.
<mgrwt>
<rscale>  2 0.45308063E+03</rscale>
<asrwt>0</asrwt>
<pdfrwt beam="1">  1       21 0.47191415E-01 0.45308477E+03</pdfrwt>
<pdfrwt beam="2">  1       21 0.11277809E+00 0.45308477E+03</pdfrwt>
<totfact> 0.22783254E+03</totfact>
</mgrwt>
</event>
<event>
 6    1  0.9094387E-004  0.4266046E+03  0.7818608E-02  0.1035060E+00
         21   -1    0    0  501  502  0.00000000000E+00  0.00000000000E+00  0.24934167462E+03  0.24934167462E+03  0.00000000000E+00 0.  1.
         21   -1    0    0  502  503 -0.00000000000E+00 -0.00000000000E+00 -0.16375691268E+04  0.16375691268E+04  0.00000000000E+00 0.  1.
    9000007    2    1    2  501    0 -0.14185001434E+03  0.43244538606E+02  0.98550799233E+01  0.42519048506E+03  0.39836956372E+03 0.  0.
    9000005    1    3    3    0    0 -0.97399559360E+01  0.27738759949E+02 -0.18606844396E+03  0.18837932842E+03  0.99999687468E+00 0.  0.
          4    1    3    3  501    0 -0.13211005840E+03  0.15505778657E+02  0.19592352388E+03  0.23681115665E+03  0.00000000000E+00 0.  1.
   -9000007    1    1    2    0  503  0.14185001434E+03 -0.43244538606E+02 -0.13980825321E+04  0.14617203163E+04  0.40000000000E+03 0.  1.
<mgrwt>
<rscale>  2 0.42622203E+03</rscale>
<asrwt>0</asrwt>
<pdfrwt beam="1">  1       21 0.38360260E-01 0.42660464E+03</pdfrwt>
<pdfrwt beam="2">  1       21 0.25193370E+00 0.42660464E+03</pdfrwt>
<totfact> 0.34590707E+02</totfact>
</mgrwt>
</event>
<event>
 6    1  0.9094387E-004  0.4740228E+03  0.7818608E-02  0.1020794E+00
         21   -1    0    0  501  502  0.00000000000E+00  0.00000000000E+00  0.96323242037E+03  0.96323242037E+03  0.00000000000E+00 0.  1.
         21   -1    0    0  502  503 -0.00000000000E+00 -0.00000000000E+00 -0.24288377564E+03  0.24288377564E+03  0.00000000000E+00 0.  1.
    9000007    2    1    2  501    0 -0.10201493542E+03 -0.23300332536E+03  0.24005588973E+03  0.53129864497E+03  0.39994227493E+03 0.  0.
    9000005    1    3    3    0    0  0.28338458042E+01  0.61373352737E+02  0.20832758382E+03  0.21720060148E+03  0.99999687468E+00 0.  0.
          4    1    3    3  501    0 -0.10484878122E+03 -0.29437667809E+03  0.31728305911E+02  0.31409804349E+03  0.00000000000E+00 0.  1.
   -9000007    1    1    2    0  503  0.10201493542E+03  0.23300332536E+03  0.48029275500E+03  0.67481755103E+03  0.40000000000E+03 0.  1.
<mgrwt>
<rscale>  2 0.47401060E+03</rscale>
<asrwt>0</asrwt>
<pdfrwt beam="1">  1       21 0.14818960E+00 0.47402278E+03</pdfrwt>
<pdfrwt beam="2">  1       21 0.37366735E-01 0.47402278E+03</pdfrwt>
<totfact> 0.18052924E+03</totfact>
</mgrwt>
</event>
<event>
 6    1  0.9094387E-004  0.5013472E+03  0.7818608E-02  0.1013430E+00
         21   -1    0    0  501  502  0.00000000000E+00  0.00000000000E+00  0.31928815507E+03  0.31928815507E+03  0.00000000000E+00 0. -1.
         21   -1    0    0  502  503 -0.00000000000E+00 -0.00000000000E+00 -0.94243938285E+03  0.94243938285E+03  0.00000000000E+00 0. -1.
    9000007    2    1    2  501    0 -0.45507527273E+02 -0.29875055897E+03 -0.55521363154E+02  0.50441221738E+03  0.40003278835E+03 0.  0.
    9000005    1    3    3    0    0 -0.17268740432E+03 -0.32335403015E+03 -0.87297765728E+01  0.36668239311E+03  0.99999687468E+00 0.  0.
          4    1    3    3  501    0  0.12717987704E+03  0.24603471181E+02 -0.46791586581E+02  0.13772982427E+03  0.00000000000E+00 0.  1.
   -9000007    1    1    2    0  503  0.45507527273E+02  0.29875055897E+03 -0.56762986463E+03  0.75731532055E+03  0.40000000000E+03 0. -1.
<mgrwt>
<rscale>  2 0.50134071E+03</rscale>
<asrwt>0</asrwt>
<pdfrwt beam="1">  1       21 0.49121255E-01 0.50134725E+03</pdfrwt>
<pdfrwt beam="2">  1       21 0.14499067E+00 0.50134725E+03</pdfrwt>
<totfact> 0.10717955E+03</totfact>
</mgrwt>
</event>
<event>
 6    1  0.9094387E-004  0.4180889E+03  0.7818608E-02  0.1037703E+00
         21   -1    0    0  501  502  0.00000000000E+00  0.00000000000E+00  0.15441533389E+03  0.15441533389E+03  0.00000000000E+00 0. -1.
         21   -1    0    0  502  503 -0.00000000000E+00 -0.00000000000E+00 -0.11751633720E+04  0.11751633720E+04  0.00000000000E+00 0. -1.
    9000007    2    1    2  501    0 -0.40935432814E+01 -0.12102022629E+03 -0.38241765389E+03  0.56660535661E+03  0.40016960888E+03 0.  0.
    9000005    1    3    3    0    0 -0.83089285774E+02 -0.25162198718E+03 -0.22963738182E+03  0.35064480741E+03  0.99999687468E+00 0.  0.
          4    1    3    3  501    0  0.78995742492E+02  0.13060176088E+03 -0.15278027207E+03  0.21596054920E+03  0.00000000000E+00 0.  1.
   -9000007    1    1    2    0  503  0.40935432814E+01  0.12102022629E+03 -0.63833038419E+03  0.76297334924E+03  0.40000000000E+03 0. -1.
<mgrwt>
<rscale>  2 0.41804836E+03</rscale>
<asrwt>0</asrwt>
<pdfrwt beam="1">  1       21 0.23756207E-01 0.41808895E+03</pdfrwt>
<pdfrwt beam="2">  1       21 0.18079435E+00 0.41808895E+03</pdfrwt>
<totfact> 0.25961464E+03</totfact>
</mgrwt>
</event>
<event>
 6    1  0.9094387E-004  0.4202858E+03  0.7818608E-02  0.1037020E+00
         21   -1    0    0  501  502  0.00000000000E+00  0.00000000000E+00  0.30868479931E+04  0.30868479931E+04  0.00000000000E+00 0. -1.
         21   -1    0    0  502  503 -0.00000000000E+00 -0.00000000000E+00 -0.64820399750E+02  0.64820399750E+02  0.00000000000E+00 0.  1.
    9000007    2    1    2  501    0  0.33514084202E+02  0.12456703317E+03  0.20523425498E+04  0.20948196699E+04  0.39939875806E+03 0.  0.
    9000005    1    3    3    0    0 -0.19832952587E+02  0.19813453484E+03  0.47748957349E+03  0.51734701380E+03  0.99999687468E+00 0.  0.
          4    1    3    3  501    0  0.53347036789E+02 -0.73567501669E+02  0.15748529763E+04  0.15774726561E+04  0.00000000000E+00 0.  1.
   -9000007    1    1    2    0  503 -0.33514084202E+02 -0.12456703317E+03  0.96968504356E+03  0.10568487230E+04  0.40000000000E+03 0.  1.
<mgrwt>
<rscale>  2 0.42014266E+03</rscale>
<asrwt>0</asrwt>
<pdfrwt beam="1">  1       21 0.47489958E+00 0.42028578E+03</pdfrwt>
<pdfrwt beam="2">  1       21 0.99723716E-02 0.42028578E+03</pdfrwt>
<totfact> 0.17820973E+02</totfact>
</mgrwt>
</event>
<event>
 6    1  0.9094387E-004  0.4834135E+03  0.7818608E-02  0.1018209E+00
         21   -1    0    0  501  502  0.00000000000E+00  0.00000000000E+00  0.12014715675E+04  0.12014715675E+04  0.00000000000E+00 0. -1.
         21   -1    0    0  502  503 -0.00000000000E+00 -0.00000000000E+00 -0.33266975652E+03  0.33266975652E+03  0.00000000000E+00 0. -1.
    9000007    2    1    2  501    0  0.26521624081E+03 -0.57870263036E+02  0.92880323386E+03  0.10470183493E+04  0.39985416707E+03 0.  0.
    9000005    1    3    3    0    0 -0.49297286017E+02  0.53720923418E+02  0.49172029831E+03  0.49709758779E+03  0.99999687468E+00 0.  0.
          4    1    3    3  501    0  0.31451352682E+03 -0.11159118645E+03  0.43708293555E+03  0.54992076156E+03  0.00000000000E+00 0.  1.
   -9000007    1    1    2    0  503 -0.26521624081E+03  0.57870263036E+02 -0.60001422861E+02  0.48712297470E+03  0.40000000000E+03 0. -1.
<mgrwt>
<rscale>  2 0.48338334E+03</rscale>
<asrwt>0</asrwt>
<pdfrwt beam="1">  1       21 0.18484178E+00 0.48341351E+03</pdfrwt>
<pdfrwt beam="2">  1       21 0.51179963E-01 0.48341351E+03</pdfrwt>
<totfact> 0.49861189E+02</totfact>
</mgrwt>
</event>
<event>
 6    1  0.9094387E-004  0.4766572E+03  0.7818608E-02  0.1020132E+00
         21   -1    0    0  501  502  0.00000000000E+00  0.00000000000E+00  0.72822415010E+03  0.72822415010E+03  0.00000000000E+00 0.  1.
         21   -1    0    0  502  503 -0.00000000000E+00 -0.00000000000E+00 -0.33662864366E+03  0.33662864366E+03  0.00000000000E+00 0. -1.
    9000007    2    1    2  501    0 -0.21157653108E+03 -0.14979141907E+03  0.34166206246E+03  0.58558726551E+03  0.39871967957E+03 0.  0.
    9000005    1    3    3    0    0  0.40368303046E+02 -0.56817918577E+02 -0.66933797582E+02  0.96638548286E+02  0.99999687468E+00 0.  0.
          4    1    3    3  501    0 -0.25194483413E+03 -0.92973500492E+02  0.40859586004E+03  0.48894871723E+03  0.00000000000E+00 0.  1.
   -9000007    1    1    2    0  503  0.21157653108E+03  0.14979141907E+03  0.49933443984E+02  0.47926552824E+03  0.40000000000E+03 0.  1.
<mgrwt>
<rscale>  2 0.47638851E+03</rscale>
<asrwt>0</asrwt>
<pdfrwt beam="1">  1       21 0.11203448E+00 0.47665721E+03</pdfrwt>
<pdfrwt beam="2">  1       21 0.51789022E-01 0.47665721E+03</pdfrwt>
<totfact> 0.18845314E+03</totfact>
</mgrwt>
</event>
<event>
 6    1  0.9094387E-004  0.4538613E+03  0.7818608E-02  0.1026632E+00
         21   -1    0    0  501  502  0.00000000000E+00  0.00000000000E+00  0.12899667563E+04  0.12899667563E+04  0.00000000000E+00 0.  1.
         21   -1    0    0  502  503 -0.00000000000E+00 -0.00000000000E+00 -0.16617518161E+03  0.16617518161E+03  0.00000000000E+00 0.  1.
    9000007    2    1    2  501    0 -0.20720459419E+03  0.55284426821E+02  0.70820876463E+03  0.84075654345E+03  0.39915134893E+03 0.  0.
    9000005    1    3    3    0    0 -0.11366579029E+03 -0.83049496139E+02  0.64820051569E+03  0.66331141949E+03  0.99999687468E+00 0.  0.
          4    1    3    3  501    0 -0.93538803900E+02  0.13833392296E+03  0.60008248943E+02  0.17744512396E+03  0.00000000000E+00 0.  1.
   -9000007    1    1    2    0  503  0.20720459419E+03 -0.55284426821E+02  0.41558281006E+03  0.61538539446E+03  0.40000000000E+03 0.  1.
<mgrwt>
<rscale>  2 0.45367428E+03</rscale>
<asrwt>0</asrwt>
<pdfrwt beam="1">  1       21 0.19845642E+00 0.45386134E+03</pdfrwt>
<pdfrwt beam="2">  1       21 0.25565413E-01 0.45386134E+03</pdfrwt>
<totfact> 0.16781988E+03</totfact>
</mgrwt>
</event>
<event>
 6    1  0.9094387E-004  0.4431121E+03  0.7818608E-02  0.1029827E+00
         21   -1    0    0  501  502  0.00000000000E+00  0.00000000000E+00  0.33971726580E+03  0.33971726580E+03  0.00000000000E+00 0. -1.
         21   -1    0    0  502  503 -0.00000000000E+00 -0.00000000000E+00 -0.58663632222E+03  0.58663632222E+03  0.00000000000E+00 0. -1.
    9000007    2    1    2  501    0 -0.18573539822E+03  0.43019589018E+02 -0.18138970964E+03  0.47842232267E+03  0.39954645396E+03 0.  0.
    9000005    1    3    3    0    0 -0.48747982925E+02  0.18893405250E+03 -0.19750160611E+03  0.27763343899E+03  0.99999687468E+00 0.  0.
          4    1    3    3  501    0 -0.13698741530E+03 -0.14591446348E+03  0.16111896473E+02  0.20078888368E+03  0.00000000000E+00 0.  1.
   -9000007    1    1    2    0  503  0.18573539822E+03 -0.43019589018E+02 -0.65529346781E+02  0.44793126535E+03  0.40000000000E+03 0. -1.
<mgrwt>
<rscale>  2 0.44300971E+03</rscale>
<asrwt>0</asrwt>
<pdfrwt beam="1">  1       21 0.52264195E-01 0.44311209E+03</pdfrwt>
<pdfrwt beam="2">  1       21 0.90251741E-01 0.44311209E+03</pdfrwt>
<totfact> 0.31658584E+03</totfact>
</mgrwt>
</event>
<event>
 6    1  0.9094387E-004  0.4298742E+03  0.7818608E-02  0.1033913E+00
         21   -1    0    0  501  502  0.00000000000E+00  0.00000000000E+00  0.11084830295E+03  0.11084830295E+03  0.00000000000E+00 0. -1.
         21   -1    0    0  502  503 -0.00000000000E+00 -0.00000000000E+00 -0.18661994446E+04  0.18661994446E+04  0.00000000000E+00 0. -1.
    9000007    2    1    2  501    0  0.12331468313E+03  0.97904493652E+02 -0.12009543328E+04  0.12755154086E+04  0.39982051857E+03 0.  0.
    9000005    1    3    3    0    0 -0.43697897410E+02  0.11096586047E+03 -0.83536720143E+02  0.14561013712E+03  0.99999687468E+00 0.  0.
          4    1    3    3  501    0  0.16701258054E+03 -0.13061366814E+02 -0.11174176127E+04  0.11299052714E+04  0.00000000000E+00 0.  1.
   -9000007    1    1    2    0  503 -0.12331468313E+03 -0.97904493652E+02 -0.55439680880E+03  0.70153233893E+03  0.40000000000E+03 0. -1.
<mgrwt>
<rscale>  2 0.42983241E+03</rscale>
<asrwt>0</asrwt>
<pdfrwt beam="1">  1       21 0.17053585E-01 0.42987417E+03</pdfrwt>
<pdfrwt beam="2">  1       21 0.28710760E+00 0.42987417E+03</pdfrwt>
<totfact> 0.10301970E+03</totfact>
</mgrwt>
</event>
<event>
 6    1  0.9094387E-004  0.4294631E+03  0.7818608E-02  0.1034292E+00
         21   -1    0    0  501  502  0.00000000000E+00  0.00000000000E+00  0.31489063087E+03  0.31489063087E+03  0.00000000000E+00 0.  1.
         21   -1    0    0  502  503 -0.00000000000E+00 -0.00000000000E+00 -0.60515830891E+03  0.60515830891E+03  0.00000000000E+00 0.  1.
    9000007    2    1    2  501    0  0.15250861010E+03  0.34346765339E+02 -0.23606783143E+03  0.48717921364E+03  0.39645553183E+03 0.  0.
    9000005    1    3    3    0    0 -0.35660738117E+02 -0.15048209504E+03 -0.43659970349E+02  0.16069767321E+03  0.99999687468E+00 0.  0.
          4    1    3    3  501    0  0.18816934822E+03  0.18482886038E+03 -0.19240786108E+03  0.32648154043E+03  0.00000000000E+00 0.  1.
   -9000007    1    1    2    0  503 -0.15250861010E+03 -0.34346765339E+02 -0.54199846619E+02  0.43286972615E+03  0.40000000000E+03 0.  1.
<mgrwt>
<rscale>  2 0.42863590E+03</rscale>
<asrwt>0</asrwt>
<pdfrwt beam="1">  1       21 0.48444713E-01 0.42946313E+03</pdfrwt>
<pdfrwt beam="2">  1       21 0.93101278E-01 0.42946313E+03</pdfrwt>
<totfact> 0.34728625E+03</totfact>
</mgrwt>
</event>
<event>
 6    1  0.9094387E-004  0.4654875E+03  0.7818608E-02  0.1023340E+00
         21   -1    0    0  501  502  0.00000000000E+00  0.00000000000E+00  0.11550305082E+04  0.11550305082E+04  0.00000000000E+00 0.  1.
         21   -1    0    0  502  503 -0.00000000000E+00 -0.00000000000E+00 -0.19004579761E+03  0.19004579761E+03  0.00000000000E+00 0. -1.
    9000007    2    1    2  501    0  0.15570851760E+03  0.17501762252E+03  0.57117710459E+03  0.73683232419E+03  0.40224653947E+03 0.  0.
    9000005    1    3    3    0    0 -0.19062400036E+01 -0.12533703576E+03  0.13393554393E+03  0.18344682119E+03  0.99999687468E+00 0.  0.
          4    1    3    3  501    0  0.15761475760E+03  0.30035465828E+03  0.43724156066E+03  0.55338550300E+03  0.00000000000E+00 0.  1.
   -9000007    1    1    2    0  503 -0.15570851760E+03 -0.17501762252E+03  0.39380760600E+03  0.60824398163E+03  0.40000000000E+03 0.  1.
<mgrwt>
<rscale>  2 0.46500173E+03</rscale>
<asrwt>0</asrwt>
<pdfrwt beam="1">  1       21 0.17769700E+00 0.46548747E+03</pdfrwt>
<pdfrwt beam="2">  1       21 0.29237816E-01 0.46548747E+03</pdfrwt>
<totfact> 0.17831200E+03</totfact>
</mgrwt>
</event>
<event>
 6    1  0.9094387E-004  0.5004632E+03  0.7818608E-02  0.1013661E+00
         21   -1    0    0  501  502  0.00000000000E+00  0.00000000000E+00  0.10920981209E+04  0.10920981209E+04  0.00000000000E+00 0.  1.
         21   -1    0    0  502  503 -0.00000000000E+00 -0.00000000000E+00 -0.42879468024E+03  0.42879468024E+03  0.00000000000E+00 0.  1.
    9000007    2    1    2  501    0 -0.21241456597E+03  0.21282402913E+03  0.85032796861E+03  0.98667169589E+03  0.40006170281E+03 0.  0.
    9000005    1    3    3    0    0 -0.96234490685E+02  0.86506682685E+01 -0.78272898109E+01  0.96944198993E+02  0.99999687468E+00 0.  0.
          4    1    3    3  501    0 -0.11618007528E+03  0.20417336087E+03  0.85815525842E+03  0.88972749689E+03  0.00000000000E+00 0.  1.
   -9000007    1    1    2    0  503  0.21241456597E+03 -0.21282402913E+03 -0.18702452797E+03  0.53422110523E+03  0.40000000000E+03 0.  1.
<mgrwt>
<rscale>  2 0.50045084E+03</rscale>
<asrwt>0</asrwt>
<pdfrwt beam="1">  1       21 0.16801509E+00 0.50046317E+03</pdfrwt>
<pdfrwt beam="2">  1       21 0.65968413E-01 0.50046317E+03</pdfrwt>
<totfact> 0.37505738E+02</totfact>
</mgrwt>
</event>
<event>
 6    1  0.9094387E-004  0.4690226E+03  0.7818608E-02  0.1022242E+00
         21   -1    0    0  501  502  0.00000000000E+00  0.00000000000E+00  0.31527930209E+03  0.31527930209E+03  0.00000000000E+00 0.  1.
         21   -1    0    0  502  503 -0.00000000000E+00 -0.00000000000E+00 -0.73035881142E+03  0.73035881142E+03  0.00000000000E+00 0.  1.
    9000007    2    1    2  501    0  0.19950161121E+03 -0.13993013736E+03 -0.31977068528E+03  0.56765787526E+03  0.40075034119E+03 0.  0.
    9000005    1    3    3    0    0 -0.94964516365E+02  0.36248476184E+01  0.18430269245E+02  0.96809471163E+02  0.99999687468E+00 0.  0.
          4    1    3    3  501    0  0.29446612757E+03 -0.14355498498E+03 -0.33820095453E+03  0.47084840410E+03  0.00000000000E+00 0.  1.
   -9000007    1    1    2    0  503 -0.19950161121E+03  0.13993013736E+03 -0.95308824050E+02  0.47798023825E+03  0.40000000000E+03 0.  1.
<mgrwt>
<rscale>  2 0.46886225E+03</rscale>
<asrwt>0</asrwt>
<pdfrwt beam="1">  1       21 0.48504508E-01 0.46902257E+03</pdfrwt>
<pdfrwt beam="2">  1       21 0.11236289E+00 0.46902257E+03</pdfrwt>
<totfact> 0.21570477E+03</totfact>
</mgrwt>
</event>
<event>
 6    1  0.9094387E-004  0.4865492E+03  0.7818608E-02  0.1017369E+00
         21   -1    0    0  501  502  0.00000000000E+00  0.00000000000E+00  0.45905574791E+03  0.45905574791E+03  0.00000000000E+00 0.  1.
         21   -1    0    0  502  503 -0.00000000000E+00 -0.00000000000E+00 -0.70399475174E+03  0.70399475174E+03  0.00000000000E+00 0.  1.
    9000007    2    1    2  501    0  0.12509018775E+03  0.24661642526E+03 -0.42347974274E+03  0.64503118367E+03  0.40032851399E+03 0.  0.
    9000005    1    3    3    0    0  0.13611998221E+03 -0.23440691063E+02  0.52375870653E+01  0.13822643693E+03  0.99999687468E+00 0.  0.
          4    1    3    3  501    0 -0.11029794460E+02  0.27005711632E+03 -0.42871732980E+03  0.50680474674E+03  0.00000000000E+00 0.  1.
   -9000007    1    1    2    0  503 -0.12509018775E+03 -0.24661642526E+03  0.17854073891E+03  0.51801931598E+03  0.40000000000E+03 0.  1.
<mgrwt>
<rscale>  2 0.48648163E+03</rscale>
<asrwt>0</asrwt>
<pdfrwt beam="1">  1       21 0.70623962E-01 0.48654921E+03</pdfrwt>
<pdfrwt beam="2">  1       21 0.10830688E+00 0.48654921E+03</pdfrwt>
<totfact> 0.10326683E+03</totfact>
</mgrwt>
</event>
<event>
 6    1  0.9094387E-004  0.5992411E+03  0.7818608E-02  0.9907345E-01
         21   -1    0    0  501  502  0.00000000000E+00  0.00000000000E+00  0.71615695148E+03  0.71615695148E+03  0.00000000000E+00 0.  1.
         21   -1    0    0  502  503 -0.00000000000E+00 -0.00000000000E+00 -0.15916122750E+04  0.15916122750E+04  0.00000000000E+00 0.  1.
    9000007    2    1    2  501    0  0.44238535072E+03  0.58181722023E+02  0.51759459303E+03  0.79130030781E+03  0.39895125403E+03 0.  0.
    9000005    1    3    3    0    0  0.79847544127E+02 -0.45274631826E+02 -0.54050652542E+02  0.10652650198E+03  0.99999687468E+00 0.  0.
          4    1    3    3  501    0  0.36253780660E+03  0.10345635385E+03  0.57164524557E+03  0.68477380583E+03  0.00000000000E+00 0.  1.
   -9000007    1    1    2    0  503 -0.44238535072E+03 -0.58181722023E+02 -0.13930499165E+04  0.15164689187E+04  0.40000000000E+03 0.  1.
<mgrwt>
<rscale>  2 0.59906615E+03</rscale>
<asrwt>0</asrwt>
<pdfrwt beam="1">  1       21 0.11017799E+00 0.59924111E+03</pdfrwt>
<pdfrwt beam="2">  1       21 0.24486343E+00 0.59924111E+03</pdfrwt>
<totfact> 0.32741611E+01</totfact>
</mgrwt>
</event>
<event>
 6    1  0.9094387E-004  0.4126844E+03  0.7818608E-02  0.1039578E+00
         21   -1    0    0  501  502  0.00000000000E+00  0.00000000000E+00  0.33799658549E+03  0.33799658549E+03  0.00000000000E+00 0. -1.
         21   -1    0    0  502  503 -0.00000000000E+00 -0.00000000000E+00 -0.96836109948E+03  0.96836109948E+03  0.00000000000E+00 0. -1.
    9000007    2    1    2  501    0  0.84337108721E+02  0.56530314731E+02  0.13818377500E+03  0.43401893374E+03  0.39870948670E+03 0.  0.
    9000005    1    3    3    0    0 -0.12365658392E+03 -0.75217057373E+02  0.11843431073E+03  0.18701936375E+03  0.99999687468E+00 0.  0.
          4    1    3    3  501    0  0.20799369264E+03  0.13174737210E+03  0.19749464270E+02  0.24699956999E+03  0.00000000000E+00 0.  1.
   -9000007    1    1    2    0  503 -0.84337108721E+02 -0.56530314731E+02 -0.76854828899E+03  0.87233875123E+03  0.40000000000E+03 0. -1.
<mgrwt>
<rscale>  2 0.41237138E+03</rscale>
<asrwt>0</asrwt>
<pdfrwt beam="1">  1       21 0.51999475E-01 0.41268441E+03</pdfrwt>
<pdfrwt beam="2">  1       21 0.14897863E+00 0.41268441E+03</pdfrwt>
<totfact> 0.91595528E+02</totfact>
</mgrwt>
</event>
<event>
 6    1  0.9094387E-004  0.5050448E+03  0.7818608E-02  0.1012727E+00
         21   -1    0    0  501  502  0.00000000000E+00  0.00000000000E+00  0.68849943618E+03  0.68849943618E+03  0.00000000000E+00 0. -1.
         21   -1    0    0  502  503 -0.00000000000E+00 -0.00000000000E+00 -0.36806629974E+03  0.36806629974E+03  0.00000000000E+00 0. -1.
    9000007    2    1    2  501    0  0.27082265514E+03 -0.13319591978E+03  0.18017324378E+03  0.53622075317E+03  0.40494966943E+03 0.  0.
    9000005    1    3    3    0    0  0.30242727005E+03 -0.20573556304E+03  0.30654415989E+02  0.36705594775E+03  0.99999687468E+00 0.  0.
          4    1    3    3  501    0 -0.31604614904E+02  0.72539643259E+02  0.14951882780E+03  0.16916480542E+03  0.00000000000E+00 0.  1.
   -9000007    1    1    2    0  503 -0.27082265514E+03  0.13319591978E+03  0.14025989265E+03  0.52034498275E+03  0.40000000000E+03 0. -1.
<mgrwt>
<rscale>  2 0.50405193E+03</rscale>
<asrwt>0</asrwt>
<pdfrwt beam="1">  1       21 0.10592299E+00 0.50504485E+03</pdfrwt>
<pdfrwt beam="2">  1       21 0.56625584E-01 0.50504485E+03</pdfrwt>
<totfact> 0.17689231E+03</totfact>
</mgrwt>
</event>
<event>
 6    1  0.9094387E-004  0.6820547E+03  0.7818608E-02  0.9748847E-01
         21   -1    0    0  501  502  0.00000000000E+00  0.00000000000E+00  0.33937484440E+03  0.33937484440E+03  0.00000000000E+00 0. -1.
         21   -1    0    0  502  503 -0.00000000000E+00 -0.00000000000E+00 -0.15063269619E+04  0.15063269619E+04  0.00000000000E+00 0.  1.
    9000007    2    1    2  501    0 -0.63272537199E+02  0.54881249505E+03 -0.86192600022E+03  0.10985475378E+04  0.39836126098E+03 0.  0.
    9000005    1    3    3    0    0 -0.17139193257E+03  0.50494549490E+03 -0.55251038490E+03  0.76786318624E+03  0.99999687468E+00 0.  0.
          4    1    3    3  501    0  0.10811939538E+03  0.43867000154E+02 -0.30941561532E+03  0.33068435155E+03  0.00000000000E+00 0.  1.
   -9000007    1    1    2    0  503  0.63272537199E+02 -0.54881249505E+03 -0.30502611725E+03  0.74715426847E+03  0.40000000000E+03 0. -1.
<mgrwt>
<rscale>  2 0.68181460E+03</rscale>
<asrwt>0</asrwt>
<pdfrwt beam="1">  1       21 0.52211514E-01 0.68205467E+03</pdfrwt>
<pdfrwt beam="2">  1       21 0.23174261E+00 0.68205467E+03</pdfrwt>
<totfact> 0.21580340E+02</totfact>
</mgrwt>
</event>
<event>
 6    1  0.9094387E-004  0.4305793E+03  0.7818608E-02  0.1033733E+00
         21   -1    0    0  501  502  0.00000000000E+00  0.00000000000E+00  0.18936279138E+03  0.18936279138E+03  0.00000000000E+00 0.  1.
         21   -1    0    0  502  503 -0.00000000000E+00 -0.00000000000E+00 -0.27013716637E+04  0.27013716637E+04  0.00000000000E+00 0.  1.
    9000007    2    1    2  501    0  0.13623361783E+03  0.78922409501E+02 -0.10174511012E+03  0.44243713884E+03  0.40076203543E+03 0.  0.
    9000005    1    3    3    0    0  0.10719814163E+03  0.23675669940E+03 -0.15767527022E+02  0.26037432896E+03  0.99999687468E+00 0.  0.
          4    1    3    3  501    0  0.29035476201E+02 -0.15783428990E+03 -0.85977583101E+02  0.18206280988E+03  0.00000000000E+00 0.  1.
   -9000007    1    1    2    0  503 -0.13623361783E+03 -0.78922409501E+02 -0.24102637622E+04  0.24482973162E+04  0.40000000000E+03 0.  1.
<mgrwt>
<rscale>  2 0.43040192E+03</rscale>
<asrwt>0</asrwt>
<pdfrwt beam="1">  1       21 0.29132737E-01 0.43057932E+03</pdfrwt>
<pdfrwt beam="2">  1       21 0.41559564E+00 0.43057932E+03</pdfrwt>
<totfact> 0.59198672E+01</totfact>
</mgrwt>
</event>
<event>
 6    1  0.9094387E-004  0.4791674E+03  0.7818608E-02  0.1019375E+00
         21   -1    0    0  501  502  0.00000000000E+00  0.00000000000E+00  0.68694395141E+03  0.68694395141E+03  0.00000000000E+00 0.  1.
         21   -1    0    0  502  503 -0.00000000000E+00 -0.00000000000E+00 -0.55884081746E+03  0.55884081746E+03  0.00000000000E+00 0.  1.
    9000007    2    1    2  501    0 -0.23366136850E+03  0.12186259057E+03  0.45904817741E+03  0.66357110715E+03  0.40019152784E+03 0.  0.
    9000005    1    3    3    0    0 -0.22343163635E+03 -0.37803029972E+02  0.44938347509E+03  0.50328647198E+03  0.99999687468E+00 0.  0.
          4    1    3    3  501    0 -0.10229732156E+02  0.15966562054E+03  0.96647023129E+01  0.16028463517E+03  0.00000000000E+00 0.  1.
   -9000007    1    1    2    0  503  0.23366136850E+03 -0.12186259057E+03 -0.33094504346E+03  0.58221366172E+03  0.40000000000E+03 0.  1.
<mgrwt>
<rscale>  2 0.47912740E+03</rscale>
<asrwt>0</asrwt>
<pdfrwt beam="1">  1       21 0.10568368E+00 0.47916739E+03</pdfrwt>
<pdfrwt beam="2">  1       21 0.85975510E-01 0.47916739E+03</pdfrwt>
<totfact> 0.69961796E+02</totfact>
</mgrwt>
</event>
<event>
 6    1  0.9094387E-004  0.5464899E+03  0.7818608E-02  0.1002316E+00
         21   -1    0    0  501  502  0.00000000000E+00  0.00000000000E+00  0.95887637754E+03  0.95887637754E+03  0.00000000000E+00 0.  1.
         21   -1    0    0  502  503 -0.00000000000E+00 -0.00000000000E+00 -0.38255077175E+03  0.38255077175E+03  0.00000000000E+00 0. -1.
    9000007    2    1    2  501    0  0.19966472981E+03  0.31410353151E+03  0.57745376813E+03  0.79504971054E+03  0.40015516373E+03 0.  0.
    9000005    1    3    3    0    0  0.15056068014E+03  0.39306065061E+03  0.34346163866E+03  0.54326061029E+03  0.99999687468E+00 0.  0.
          4    1    3    3  501    0  0.49104049668E+02 -0.78957119101E+02  0.23399212947E+03  0.25178910025E+03  0.00000000000E+00 0.  1.
   -9000007    1    1    2    0  503 -0.19966472981E+03 -0.31410353151E+03 -0.11281623396E+01  0.54637743876E+03  0.40000000000E+03 0. -1.
<mgrwt>
<rscale>  2 0.54646148E+03</rscale>
<asrwt>0</asrwt>
<pdfrwt beam="1">  1       21 0.14751944E+00 0.54648988E+03</pdfrwt>
<pdfrwt beam="2">  1       21 0.58853965E-01 0.54648988E+03</pdfrwt>
<totfact> 0.68092630E+02</totfact>
</mgrwt>
</event>
<event>
 6    1  0.9094387E-004  0.6157988E+03  0.7818608E-02  0.9873544E-01
         21   -1    0    0  501  502  0.00000000000E+00  0.00000000000E+00  0.50237272452E+03  0.50237272452E+03  0.00000000000E+00 0.  1.
         21   -1    0    0  502  503 -0.00000000000E+00 -0.00000000000E+00 -0.76880364501E+03  0.76880364501E+03  0.00000000000E+00 0.  1.
    9000007    2    1    2  501    0  0.46096095510E+03  0.76050652536E+02 -0.44799266102E+02  0.61742619240E+03  0.40117256255E+03 0.  0.
    9000005    1    3    3    0    0  0.30809149665E+01  0.14987742442E+03  0.10857089012E+02  0.15030505901E+03  0.99999687468E+00 0.  0.
          4    1    3    3  501    0  0.45788004013E+03 -0.73826771882E+02 -0.55656355113E+02  0.46712113339E+03  0.00000000000E+00 0.  1.
   -9000007    1    1    2    0  503 -0.46096095510E+03 -0.76050652536E+02 -0.22163165439E+03  0.65375017713E+03  0.40000000000E+03 0.  1.
<mgrwt>
<rscale>  2 0.61560787E+03</rscale>
<asrwt>0</asrwt>
<pdfrwt beam="1">  1       21 0.77288111E-01 0.61579877E+03</pdfrwt>
<pdfrwt beam="2">  1       21 0.11827748E+00 0.61579877E+03</pdfrwt>
<totfact> 0.64462924E+02</totfact>
</mgrwt>
</event>
<event>
 6    1  0.9094387E-004  0.5828479E+03  0.7818608E-02  0.9941834E-01
         21   -1    0    0  501  502  0.00000000000E+00  0.00000000000E+00  0.20255263566E+03  0.20255263566E+03  0.00000000000E+00 0.  1.
         21   -1    0    0  502  503 -0.00000000000E+00 -0.00000000000E+00 -0.20863045331E+04  0.20863045331E+04  0.00000000000E+00 0.  1.
    9000007    2    1    2  501    0  0.25961931043E+03 -0.33512600898E+03 -0.43421263436E+03  0.72652695287E+03  0.39948613640E+03 0.  0.
    9000005    1    3    3    0    0 -0.69812997458E+02 -0.13625031086E+02  0.25882822591E+02  0.75699515092E+02  0.99999687468E+00 0.  0.
          4    1    3    3  501    0  0.32943230789E+03 -0.32150097789E+03 -0.46009545695E+03  0.65082743778E+03  0.00000000000E+00 0.  1.
   -9000007    1    1    2    0  503 -0.25961931043E+03  0.33512600898E+03 -0.14495392631E+04  0.15623302159E+04  0.40000000000E+03 0.  1.
<mgrwt>
<rscale>  2 0.58275971E+03</rscale>
<asrwt>0</asrwt>
<pdfrwt beam="1">  1       21 0.31161945E-01 0.58284786E+03</pdfrwt>
<pdfrwt beam="2">  1       21 0.32096992E+00 0.58284786E+03</pdfrwt>
<totfact> 0.18502029E+02</totfact>
</mgrwt>
</event>
<event>
 6    1  0.9094387E-004  0.6163889E+03  0.7818608E-02  0.9872761E-01
         21   -1    0    0  501  502  0.00000000000E+00  0.00000000000E+00  0.64323112043E+03  0.64323112043E+03  0.00000000000E+00 0.  1.
         21   -1    0    0  502  503 -0.00000000000E+00 -0.00000000000E+00 -0.61811934342E+03  0.61811934342E+03  0.00000000000E+00 0.  1.
    9000007    2    1    2  501    0 -0.45849230749E+03 -0.98590337811E+02  0.14902988464E+03  0.63262878605E+03  0.39758524079E+03 0.  0.
    9000005    1    3    3    0    0 -0.34236691993E+03  0.18622204169E+02  0.26297616777E+03  0.43211035530E+03  0.99999687468E+00 0.  0.
          4    1    3    3  501    0 -0.11612538756E+03 -0.11721254198E+03 -0.11394628313E+03  0.20051843075E+03  0.00000000000E+00 0.  1.
   -9000007    1    1    2    0  503  0.45849230749E+03  0.98590337811E+02 -0.12391810763E+03  0.62872167780E+03  0.40000000000E+03 0.  1.
<mgrwt>
<rscale>  2 0.61599743E+03</rscale>
<asrwt>0</asrwt>
<pdfrwt beam="1">  1       21 0.98958634E-01 0.61638888E+03</pdfrwt>
<pdfrwt beam="2">  1       21 0.95095283E-01 0.61638888E+03</pdfrwt>
<totfact> 0.61609708E+02</totfact>
</mgrwt>
</event>
<event>
 6    1  0.9094387E-004  0.4353684E+03  0.7818608E-02  0.1032188E+00
         21   -1    0    0  501  502  0.00000000000E+00  0.00000000000E+00  0.20437233555E+04  0.20437233555E+04  0.00000000000E+00 0. -1.
         21   -1    0    0  502  503 -0.00000000000E+00 -0.00000000000E+00 -0.11657447395E+03  0.11657447395E+03  0.00000000000E+00 0. -1.
    9000007    2    1    2  501    0  0.76002950405E+02  0.15417274788E+03  0.14521028373E+04  0.15159264856E+04  0.39985594259E+03 0.  0.
    9000005    1    3    3    0    0  0.51683724064E+02 -0.10955736030E+03  0.18286587733E+03  0.21935120609E+03  0.99999687468E+00 0.  0.
          4    1    3    3  501    0  0.24319226341E+02  0.26373010818E+03  0.12692369600E+04  0.12965752795E+04  0.00000000000E+00 0.  1.
   -9000007    1    1    2    0  503 -0.76002950405E+02 -0.15417274788E+03  0.47504604418E+03  0.64437134383E+03  0.40000000000E+03 0. -1.
<mgrwt>
<rscale>  2 0.43533536E+03</rscale>
<asrwt>0</asrwt>
<pdfrwt beam="1">  1       21 0.31441895E+00 0.43536845E+03</pdfrwt>
<pdfrwt beam="2">  1       21 0.17934536E-01 0.43536845E+03</pdfrwt>
<totfact> 0.64045517E+02</totfact>
</mgrwt>
</event>
<event>
 6    1  0.9094387E-004  0.4553854E+03  0.7818608E-02  0.1026322E+00
         21   -1    0    0  501  502  0.00000000000E+00  0.00000000000E+00  0.41091663194E+03  0.41091663194E+03  0.00000000000E+00 0. -1.
         21   -1    0    0  502  503 -0.00000000000E+00 -0.00000000000E+00 -0.60474263493E+03  0.60474263493E+03  0.00000000000E+00 0. -1.
    9000007    2    1    2  501    0  0.14987392961E+03  0.15008703384E+03 -0.30671105554E+03  0.54904234948E+03  0.40297334580E+03 0.  0.
    9000005    1    3    3    0    0  0.25770152522E+03  0.26671740170E+02 -0.28261218519E+03  0.38339549428E+03  0.99999687468E+00 0.  0.
          4    1    3    3  501    0 -0.10782759561E+03  0.12341529367E+03 -0.24098870358E+02  0.16564685520E+03  0.00000000000E+00 0.  1.
   -9000007    1    1    2    0  503 -0.14987392961E+03 -0.15008703384E+03  0.11288505255E+03  0.46661691739E+03  0.40000000000E+03 0. -1.
<mgrwt>
<rscale>  2 0.45472668E+03</rscale>
<asrwt>0</asrwt>
<pdfrwt beam="1">  1       21 0.63217943E-01 0.45538536E+03</pdfrwt>
<pdfrwt beam="2">  1       21 0.93037329E-01 0.45538536E+03</pdfrwt>
<totfact> 0.19380575E+03</totfact>
</mgrwt>
</event>
<event>
 6    1  0.9094387E-004  0.5093534E+03  0.7818608E-02  0.1011672E+00
         21   -1    0    0  501  502  0.00000000000E+00  0.00000000000E+00  0.10691647637E+04  0.10691647637E+04  0.00000000000E+00 0. -1.
         21   -1    0    0  502  503 -0.00000000000E+00 -0.00000000000E+00 -0.35892392288E+03  0.35892392288E+03  0.00000000000E+00 0.  1.
    9000007    2    1    2  501    0  0.14749601547E+03  0.27872171181E+03  0.76434143433E+03  0.91587023565E+03  0.39390302500E+03 0.  0.
    9000005    1    3    3    0    0  0.15703178961E+03 -0.13548178325E+02  0.49065215079E+03  0.51534752269E+03  0.99999687468E+00 0.  0.
          4    1    3    3  501    0 -0.95357741345E+01  0.29226989014E+03  0.27368928355E+03  0.40052271296E+03  0.00000000000E+00 0.  1.
   -9000007    1    1    2    0  503 -0.14749601547E+03 -0.27872171181E+03 -0.54100593549E+02  0.51221845089E+03  0.40000000000E+03 0.  1.
<mgrwt>
<rscale>  2 0.50815569E+03</rscale>
<asrwt>0</asrwt>
<pdfrwt beam="1">  1       21 0.16448689E+00 0.50935338E+03</pdfrwt>
<pdfrwt beam="2">  1       21 0.55219065E-01 0.50935338E+03</pdfrwt>
<totfact> 0.58688816E+02</totfact>
</mgrwt>
</event>
<event>
 6    1  0.9094387E-004  0.4183333E+03  0.7818608E-02  0.1037612E+00
         21   -1    0    0  501  502  0.00000000000E+00  0.00000000000E+00  0.37509874519E+03  0.37509874519E+03  0.00000000000E+00 0.  1.
         21   -1    0    0  502  503 -0.00000000000E+00 -0.00000000000E+00 -0.18311852345E+04  0.18311852345E+04  0.00000000000E+00 0.  1.
    9000007    2    1    2  501    0 -0.80257593989E+02 -0.92528351423E+02  0.22427112728E+03  0.47463606605E+03  0.39997384846E+03 0.  0.
    9000005    1    3    3    0    0 -0.23871443528E+02 -0.39930563835E+02 -0.11639508486E+03  0.12535195059E+03  0.99999687468E+00 0.  0.
          4    1    3    3  501    0 -0.56386150461E+02 -0.52597787588E+02  0.34066621214E+03  0.34928411546E+03  0.00000000000E+00 0.  1.
   -9000007    1    1    2    0  503  0.80257593989E+02  0.92528351423E+02 -0.16803576166E+04  0.17316479136E+04  0.40000000000E+03 0.  1.
<mgrwt>
<rscale>  2 0.41832708E+03</rscale>
<asrwt>0</asrwt>
<pdfrwt beam="1">  1       21 0.57707500E-01 0.41833333E+03</pdfrwt>
<pdfrwt beam="2">  1       21 0.28172080E+00 0.41833333E+03</pdfrwt>
<totfact> 0.97133645E+01</totfact>
</mgrwt>
</event>
<event>
 6    1  0.9094387E-004  0.4648824E+03  0.7818608E-02  0.1023395E+00
         21   -1    0    0  501  502  0.00000000000E+00  0.00000000000E+00  0.32332281091E+04  0.32332281091E+04  0.00000000000E+00 0. -1.
         21   -1    0    0  502  503 -0.00000000000E+00 -0.00000000000E+00 -0.10018991753E+03  0.10018991753E+03  0.00000000000E+00 0.  1.
    9000007    2    1    2  501    0  0.98327203082E+02  0.21551658129E+03  0.25283593544E+04  0.25706912526E+04  0.39967093424E+03 0.  0.
    9000005    1    3    3    0    0  0.24922466552E+03  0.10997068063E+03  0.17339717900E+04  0.17552394859E+04  0.99999687468E+00 0.  0.
          4    1    3    3  501    0 -0.15089746244E+03  0.10554590065E+03  0.79438756436E+03  0.81545176664E+03  0.00000000000E+00 0.  1.
   -9000007    1    1    2    0  503 -0.98327203082E+02 -0.21551658129E+03  0.60467883721E+03  0.76272677404E+03  0.40000000000E+03 0.  1.
<mgrwt>
<rscale>  2 0.46481160E+03</rscale>
<asrwt>0</asrwt>
<pdfrwt beam="1">  1       21 0.49741963E+00 0.46488239E+03</pdfrwt>
<pdfrwt beam="2">  1       21 0.15413836E-01 0.46488239E+03</pdfrwt>
<totfact> 0.54084505E+01</totfact>
</mgrwt>
</event>
<event>
 6    1  0.9094387E-004  0.4828471E+03  0.7818608E-02  0.1018361E+00
         21   -1    0    0  501  502  0.00000000000E+00  0.00000000000E+00  0.12357279868E+04  0.12357279868E+04  0.00000000000E+00 0.  1.
         21   -1    0    0  502  503 -0.00000000000E+00 -0.00000000000E+00 -0.19932743251E+03  0.19932743251E+03  0.00000000000E+00 0.  1.
    9000007    2    1    2  501    0 -0.27028691344E+03 -0.92907240113E+01  0.68434277407E+03  0.83748867515E+03  0.39990113209E+03 0.  0.
    9000005    1    3    3    0    0 -0.46274209058E+02  0.15716999458E+03  0.10548523028E+03  0.19486365341E+03  0.99999687468E+00 0.  0.
          4    1    3    3  501    0 -0.22401270439E+03 -0.16646071859E+03  0.57885754379E+03  0.64262502174E+03  0.00000000000E+00 0.  1.
   -9000007    1    1    2    0  503  0.27028691344E+03  0.92907240113E+01  0.35205778025E+03  0.59756674419E+03  0.40000000000E+03 0.  1.
<mgrwt>
<rscale>  2 0.48282664E+03</rscale>
<asrwt>0</asrwt>
<pdfrwt beam="1">  1       21 0.19011199E+00 0.48284711E+03</pdfrwt>
<pdfrwt beam="2">  1       21 0.30665760E-01 0.48284711E+03</pdfrwt>
<totfact> 0.13190492E+03</totfact>
</mgrwt>
</event>
<event>
 6    1  0.9094387E-004  0.4315243E+03  0.7818608E-02  0.1033482E+00
         21   -1    0    0  501  502  0.00000000000E+00  0.00000000000E+00  0.57042656346E+03  0.57042656346E+03  0.00000000000E+00 0.  1.
         21   -1    0    0  502  503 -0.00000000000E+00 -0.00000000000E+00 -0.90954041561E+03  0.90954041561E+03  0.00000000000E+00 0.  1.
    9000007    2    1    2  501    0 -0.23983164609E+02  0.15658342153E+03  0.42333959256E+03  0.60450777646E+03  0.40139716130E+03 0.  0.
    9000005    1    3    3    0    0  0.86138518815E+02 -0.10931532407E+03  0.98458018016E+02  0.17048362328E+03  0.99999687468E+00 0.  0.
          4    1    3    3  501    0 -0.11012168342E+03  0.26589874560E+03  0.32488157454E+03  0.43402415319E+03  0.00000000000E+00 0.  1.
   -9000007    1    1    2    0  503  0.23983164609E+02 -0.15658342153E+03 -0.76245344471E+03  0.87545920261E+03  0.40000000000E+03 0.  1.
<mgrwt>
<rscale>  2 0.43119913E+03</rscale>
<asrwt>0</asrwt>
<pdfrwt beam="1">  1       21 0.87757933E-01 0.43152432E+03</pdfrwt>
<pdfrwt beam="2">  1       21 0.13992929E+00 0.43152432E+03</pdfrwt>
<totfact> 0.33289273E+02</totfact>
</mgrwt>
</event>
<event>
 6    1  0.9094387E-004  0.4627384E+03  0.7818608E-02  0.1024069E+00
         21   -1    0    0  501  502  0.00000000000E+00  0.00000000000E+00  0.49223552690E+03  0.49223552690E+03  0.00000000000E+00 0. -1.
         21   -1    0    0  502  503 -0.00000000000E+00 -0.00000000000E+00 -0.43702033819E+03  0.43702033819E+03  0.00000000000E+00 0. -1.
    9000007    2    1    2  501    0  0.84740878662E+02  0.21432849559E+03  0.66372807228E+02  0.46747430095E+03  0.40125945717E+03 0.  0.
    9000005    1    3    3    0    0  0.20535749676E+03  0.83108420464E+02  0.15306665370E+03  0.26927515945E+03  0.99999687468E+00 0.  0.
          4    1    3    3  501    0 -0.12061661809E+03  0.13122007512E+03 -0.86693846474E+02  0.19819914150E+03  0.00000000000E+00 0.  1.
   -9000007    1    1    2    0  503 -0.84740878662E+02 -0.21432849559E+03 -0.11157618520E+02  0.46178156415E+03  0.40000000000E+03 0. -1.
<mgrwt>
<rscale>  2 0.46246528E+03</rscale>
<asrwt>0</asrwt>
<pdfrwt beam="1">  1       21 0.75728542E-01 0.46273845E+03</pdfrwt>
<pdfrwt beam="2">  1       21 0.67233899E-01 0.46273845E+03</pdfrwt>
<totfact> 0.27257283E+03</totfact>
</mgrwt>
</event>
<event>
 6    1  0.9094387E-004  0.5527485E+03  0.7818608E-02  0.1000861E+00
         21   -1    0    0  501  502  0.00000000000E+00  0.00000000000E+00  0.22513721835E+03  0.22513721835E+03  0.00000000000E+00 0. -1.
         21   -1    0    0  502  503 -0.00000000000E+00 -0.00000000000E+00 -0.13760409157E+04  0.13760409157E+04  0.00000000000E+00 0. -1.
    9000007    2    1    2  501    0  0.18146429313E+03  0.33556156967E+03 -0.66949812983E+03  0.86818278813E+03  0.39997843822E+03 0.  0.
    9000005    1    3    3    0    0  0.26140114601E+03  0.36422595650E+03 -0.46098064807E+03  0.64303597443E+03  0.99999687468E+00 0.  0.
          4    1    3    3  501    0 -0.79936852883E+02 -0.28664386828E+02 -0.20851748176E+03  0.22514681370E+03  0.00000000000E+00 0.  1.
   -9000007    1    1    2    0  503 -0.18146429313E+03 -0.33556156967E+03 -0.48140556756E+03  0.73299534596E+03  0.40000000000E+03 0. -1.
<mgrwt>
<rscale>  2 0.55274456E+03</rscale>
<asrwt>0</asrwt>
<pdfrwt beam="1">  1       21 0.34636496E-01 0.55274846E+03</pdfrwt>
<pdfrwt beam="2">  1       21 0.21169860E+00 0.55274846E+03</pdfrwt>
<totfact> 0.71991524E+02</totfact>
</mgrwt>
</event>
<event>
 6    1  0.9094387E-004  0.6460475E+03  0.7818608E-02  0.9814511E-01
         21   -1    0    0  501  502  0.00000000000E+00  0.00000000000E+00  0.23689522029E+03  0.23689522029E+03  0.00000000000E+00 0.  1.
         21   -1    0    0  502  503 -0.00000000000E+00 -0.00000000000E+00 -0.17678398676E+04  0.17678398676E+04  0.00000000000E+00 0. -1.
    9000007    2    1    2  501    0 -0.21173903241E+02  0.50610957601E+03 -0.69999501602E+03  0.95255994713E+03  0.40097654957E+03 0.  0.
    9000005    1    3    3    0    0  0.13689713900E+03  0.45865755330E+03 -0.48375846072E+03  0.68053716003E+03  0.99999687468E+00 0.  0.
          4    1    3    3  501    0 -0.15807104224E+03  0.47452022714E+02 -0.21623655530E+03  0.27202278710E+03  0.00000000000E+00 0.  1.
   -9000007    1    1    2    0  503  0.21173903241E+02 -0.50610957601E+03 -0.83094963131E+03  0.10521751408E+04  0.40000000000E+03 0.  1.
<mgrwt>
<rscale>  2 0.64589608E+03</rscale>
<asrwt>0</asrwt>
<pdfrwt beam="1">  1       21 0.36445418E-01 0.64604755E+03</pdfrwt>
<pdfrwt beam="2">  1       21 0.27197537E+00 0.64604755E+03</pdfrwt>
<totfact> 0.26109046E+02</totfact>
</mgrwt>
</event>
<event>
 6    1  0.9094387E-004  0.4001802E+03  0.7818608E-02  0.1043797E+00
         21   -1    0    0  501  502  0.00000000000E+00  0.00000000000E+00  0.25430275888E+03  0.25430275888E+03  0.00000000000E+00 0.  1.
         21   -1    0    0  502  503 -0.00000000000E+00 -0.00000000000E+00 -0.14259863275E+04  0.14259863275E+04  0.00000000000E+00 0.  1.
    9000007    2    1    2  501    0  0.11134440711E+02  0.44967814763E+01  0.42827765854E+02  0.40154674393E+03  0.39907564850E+03 0.  0.
    9000005    1    3    3    0    0  0.26469121885E+02  0.20059450581E+03  0.14990947363E+02  0.20289036121E+03  0.99999687468E+00 0.  0.
          4    1    3    3  501    0 -0.15334681174E+02 -0.19609772433E+03  0.27836818491E+02  0.19865638273E+03  0.00000000000E+00 0.  1.
   -9000007    1    1    2    0  503 -0.11134440711E+02 -0.44967814763E+01 -0.12145113345E+04  0.12787423425E+04  0.40000000000E+03 0.  1.
<mgrwt>
<rscale>  2 0.39994902E+03</rscale>
<asrwt>0</asrwt>
<pdfrwt beam="1">  1       21 0.39123500E-01 0.40018021E+03</pdfrwt>
<pdfrwt beam="2">  1       21 0.21938252E+00 0.40018021E+03</pdfrwt>
<totfact> 0.53792341E+02</totfact>
</mgrwt>
</event>
<event>
 6    1  0.9094387E-004  0.5670311E+03  0.7818608E-02  0.9976577E-01
         21   -1    0    0  501  502  0.00000000000E+00  0.00000000000E+00  0.28778533133E+03  0.28778533133E+03  0.00000000000E+00 0. -1.
         21   -1    0    0  502  503 -0.00000000000E+00 -0.00000000000E+00 -0.15276842161E+04  0.15276842161E+04  0.00000000000E+00 0.  1.
    9000007    2    1    2  501    0 -0.31565800142E+03 -0.24876563253E+03 -0.14859600092E+03  0.58564586167E+03  0.39921922551E+03 0.  0.
    9000005    1    3    3    0    0 -0.81678822134E+02 -0.28531744143E+03  0.16056731736E+02  0.29721421735E+03  0.99999687468E+00 0.  0.
          4    1    3    3  501    0 -0.23397917929E+03  0.36551808900E+02 -0.16465273266E+03  0.28843164432E+03  0.00000000000E+00 0.  1.
   -9000007    1    1    2    0  503  0.31565800142E+03  0.24876563253E+03 -0.10913028839E+04  0.12298236858E+04  0.40000000000E+03 0.  1.
<mgrwt>
<rscale>  2 0.56689346E+03</rscale>
<asrwt>0</asrwt>
<pdfrwt beam="1">  1       21 0.44274667E-01 0.56703114E+03</pdfrwt>
<pdfrwt beam="2">  1       21 0.23502834E+00 0.56703114E+03</pdfrwt>
<totfact> 0.30536419E+02</totfact>
</mgrwt>
</event>
<event>
 6    1  0.9094387E-004  0.4855743E+03  0.7818608E-02  0.1017627E+00
         21   -1    0    0  501  502  0.00000000000E+00  0.00000000000E+00  0.38923964878E+03  0.38923964878E+03  0.00000000000E+00 0.  1.
         21   -1    0    0  502  503 -0.00000000000E+00 -0.00000000000E+00 -0.63773756415E+03  0.63773756415E+03  0.00000000000E+00 0. -1.
    9000007    2    1    2  501    0  0.74851025568E+01 -0.27486114555E+03 -0.23967930383E+03  0.54150585022E+03  0.40022211463E+03 0.  0.
    9000005    1    3    3    0    0  0.14918292036E+03 -0.75265004552E+02 -0.24513114161E+03  0.29666587471E+03  0.99999687468E+00 0.  0.
          4    1    3    3  501    0 -0.14169781780E+03 -0.19959614100E+03  0.54518377770E+01  0.24483997551E+03  0.00000000000E+00 0.  1.
   -9000007    1    1    2    0  503 -0.74851025568E+01  0.27486114555E+03 -0.88186115358E+01  0.48547136270E+03  0.40000000000E+03 0.  1.
<mgrwt>
<rscale>  2 0.48552855E+03</rscale>
<asrwt>0</asrwt>
<pdfrwt beam="1">  1       21 0.59883023E-01 0.48557432E+03</pdfrwt>
<pdfrwt beam="2">  1       21 0.98113472E-01 0.48557432E+03</pdfrwt>
<totfact> 0.19011898E+03</totfact>
</mgrwt>
</event>
<event>
 6    1  0.9094387E-004  0.4518839E+03  0.7818608E-02  0.1027191E+00
         21   -1    0    0  501  502  0.00000000000E+00  0.00000000000E+00  0.19530900187E+03  0.19530900187E+03  0.00000000000E+00 0.  1.
         21   -1    0    0  502  503 -0.00000000000E+00 -0.00000000000E+00 -0.10678980204E+04  0.10678980204E+04  0.00000000000E+00 0.  1.
    9000007    2    1    2  501    0 -0.50605240213E+02 -0.20405436689E+03 -0.34282237228E+03  0.56689403628E+03  0.39955299330E+03 0.  0.
    9000005    1    3    3    0    0  0.15951021505E+03 -0.18218662569E+01 -0.13176822789E+03  0.20690745221E+03  0.99999687468E+00 0.  0.
          4    1    3    3  501    0 -0.21011545527E+03 -0.20223250064E+03 -0.21105414438E+03  0.35998658408E+03  0.00000000000E+00 0.  1.
   -9000007    1    1    2    0  503  0.50605240213E+02  0.20405436689E+03 -0.52976664628E+03  0.69631298601E+03  0.40000000000E+03 0.  1.
<mgrwt>
<rscale>  2 0.45178498E+03</rscale>
<asrwt>0</asrwt>
<pdfrwt beam="1">  1       21 0.30047539E-01 0.45188392E+03</pdfrwt>
<pdfrwt beam="2">  1       21 0.16429200E+00 0.45188392E+03</pdfrwt>
<totfact> 0.21250441E+03</totfact>
</mgrwt>
</event>
<event>
 6    1  0.9094387E-004  0.4542420E+03  0.7818608E-02  0.1026472E+00
         21   -1    0    0  501  502  0.00000000000E+00  0.00000000000E+00  0.61255478784E+03  0.61255478784E+03  0.00000000000E+00 0.  1.
         21   -1    0    0  502  503 -0.00000000000E+00 -0.00000000000E+00 -0.50353036581E+03  0.50353036581E+03  0.00000000000E+00 0.  1.
    9000007    2    1    2  501    0  0.14871033664E+03  0.15532734184E+03  0.37566356000E+03  0.58945646354E+03  0.40011806352E+03 0.  0.
    9000005    1    3    3    0    0  0.68936099910E+02  0.46154678580E+02  0.43424408083E+03  0.44209881470E+03  0.99999687468E+00 0.  0.
          4    1    3    3  501    0  0.79774236730E+02  0.10917266326E+03 -0.58580520839E+02  0.14735764884E+03  0.00000000000E+00 0.  1.
   -9000007    1    1    2    0  503 -0.14871033664E+03 -0.15532734184E+03 -0.26663913797E+03  0.52662869011E+03  0.40000000000E+03 0.  1.
<mgrwt>
<rscale>  2 0.45421602E+03</rscale>
<asrwt>0</asrwt>
<pdfrwt beam="1">  1       21 0.94239198E-01 0.45424202E+03</pdfrwt>
<pdfrwt beam="2">  1       21 0.77466210E-01 0.45424202E+03</pdfrwt>
<totfact> 0.11895064E+03</totfact>
</mgrwt>
</event>
<event>
 6    1  0.9094387E-004  0.4081107E+03  0.7818608E-02  0.1041318E+00
         21   -1    0    0  501  502  0.00000000000E+00  0.00000000000E+00  0.17463062953E+03  0.17463062953E+03  0.00000000000E+00 0.  1.
         21   -1    0    0  502  503 -0.00000000000E+00 -0.00000000000E+00 -0.94670830380E+03  0.94670830380E+03  0.00000000000E+00 0.  1.
    9000007    2    1    2  501    0  0.45718584149E+02 -0.66814098881E+02 -0.36180453582E+03  0.54265217793E+03  0.39625061681E+03 0.  0.
    9000005    1    3    3    0    0 -0.51815128652E+02  0.94184118312E+02 -0.33584842693E+03  0.35263383497E+03  0.99999687468E+00 0.  0.
          4    1    3    3  501    0  0.97533712802E+02 -0.16099821719E+03 -0.25956108888E+02  0.19001834296E+03  0.00000000000E+00 0.  1.
   -9000007    1    1    2    0  503 -0.45718584149E+02  0.66814098881E+02 -0.41027313844E+03  0.57868675540E+03  0.40000000000E+03 0.  1.
<mgrwt>
<rscale>  2 0.40718900E+03</rscale>
<asrwt>0</asrwt>
<pdfrwt beam="1">  1       21 0.26866252E-01 0.40811066E+03</pdfrwt>
<pdfrwt beam="2">  1       21 0.14564743E+00 0.40811066E+03</pdfrwt>
<totfact> 0.37535286E+03</totfact>
</mgrwt>
</event>
<event>
 6    1  0.9094387E-004  0.6125772E+03  0.7818608E-02  0.9879684E-01
         21   -1    0    0  501  502  0.00000000000E+00  0.00000000000E+00  0.69140978757E+03  0.69140978757E+03  0.00000000000E+00 0.  1.
         21   -1    0    0  502  503 -0.00000000000E+00 -0.00000000000E+00 -0.55341354754E+03  0.55341354754E+03  0.00000000000E+00 0.  1.
    9000007    2    1    2  501    0 -0.20424150611E+03  0.41657679664E+03  0.15570072484E+03  0.63199034880E+03  0.39989781814E+03 0.  0.
    9000005    1    3    3    0    0 -0.30146262485E+03  0.20443313706E+03  0.16177032673E+03  0.39855145253E+03  0.99999687468E+00 0.  0.
          4    1    3    3  501    0  0.97221118740E+02  0.21214365958E+03 -0.60696018872E+01  0.23343889628E+03  0.00000000000E+00 0.  1.
   -9000007    1    1    2    0  503  0.20424150611E+03 -0.41657679664E+03 -0.17704484811E+02  0.61283298630E+03  0.40000000000E+03 0.  1.
<mgrwt>
<rscale>  2 0.61256052E+03</rscale>
<asrwt>0</asrwt>
<pdfrwt beam="1">  1       21 0.10637074E+00 0.61257720E+03</pdfrwt>
<pdfrwt beam="2">  1       21 0.85140546E-01 0.61257720E+03</pdfrwt>
<totfact> 0.67199648E+02</totfact>
</mgrwt>
</event>
<event>
 6    1  0.9094387E-004  0.5893456E+03  0.7818608E-02  0.9927886E-01
         21   -1    0    0  501  502  0.00000000000E+00  0.00000000000E+00  0.40974863024E+03  0.40974863024E+03  0.00000000000E+00 0. -1.
         21   -1    0    0  502  503 -0.00000000000E+00 -0.00000000000E+00 -0.86196839940E+03  0.86196839940E+03  0.00000000000E+00 0. -1.
    9000007    2    1    2  501    0 -0.17832457542E+03  0.39437117707E+03 -0.14317962575E+03  0.60625922500E+03  0.39965180241E+03 0.  0.
    9000005    1    3    3    0    0 -0.30264961733E+03  0.21658853709E+03 -0.89850781598E+02  0.38285969783E+03  0.99999687468E+00 0.  0.
          4    1    3    3  501    0  0.12432504191E+03  0.17778263998E+03 -0.53328844153E+02  0.22339952718E+03  0.00000000000E+00 0.  1.
   -9000007    1    1    2    0  503  0.17832457542E+03 -0.39437117707E+03 -0.30904014341E+03  0.66545780463E+03  0.40000000000E+03 0. -1.
<mgrwt>
<rscale>  2 0.58928656E+03</rscale>
<asrwt>0</asrwt>
<pdfrwt beam="1">  1       21 0.63038252E-01 0.58934564E+03</pdfrwt>
<pdfrwt beam="2">  1       21 0.13261052E+00 0.58934564E+03</pdfrwt>
<totfact> 0.76671327E+02</totfact>
</mgrwt>
</event>
<event>
 6    1  0.9094387E-004  0.4787489E+03  0.7818608E-02  0.1019675E+00
         21   -1    0    0  501  502  0.00000000000E+00  0.00000000000E+00  0.10009371179E+03  0.10009371179E+03  0.00000000000E+00 0. -1.
         21   -1    0    0  502  503 -0.00000000000E+00 -0.00000000000E+00 -0.24912500633E+04  0.24912500633E+04  0.00000000000E+00 0.  1.
    9000007    2    1    2  501    0 -0.18467190628E+03  0.18734135886E+03 -0.15728748376E+04  0.16433009840E+04  0.39661363011E+03 0.  0.
    9000005    1    3    3    0    0 -0.88446160011E+02  0.22944352153E+03 -0.42794549768E+03  0.49356397941E+03  0.99999687468E+00 0.  0.
          4    1    3    3  501    0 -0.96225746271E+02 -0.42102162662E+02 -0.11449293399E+04  0.11497370046E+04  0.00000000000E+00 0.  1.
   -9000007    1    1    2    0  503  0.18467190628E+03 -0.18734135886E+03 -0.81828151393E+03  0.94804279110E+03  0.40000000000E+03 0.  1.
<mgrwt>
<rscale>  2 0.47804089E+03</rscale>
<asrwt>0</asrwt>
<pdfrwt beam="1">  1       21 0.15399033E-01 0.47874889E+03</pdfrwt>
<pdfrwt beam="2">  1       21 0.38326923E+00 0.47874889E+03</pdfrwt>
<totfact> 0.31319742E+02</totfact>
</mgrwt>
</event>
<event>
 6    1  0.9094387E-004  0.4926907E+03  0.7818608E-02  0.1015718E+00
         21   -1    0    0  501  502  0.00000000000E+00  0.00000000000E+00  0.31994102748E+03  0.31994102748E+03  0.00000000000E+00 0. -1.
         21   -1    0    0  502  503 -0.00000000000E+00 -0.00000000000E+00 -0.83468002615E+03  0.83468002615E+03  0.00000000000E+00 0.  1.
    9000007    2    1    2  501    0  0.12050522271E+03  0.26081274191E+03 -0.43193718105E+03  0.65522047690E+03  0.40024910984E+03 0.  0.
    9000005    1    3    3    0    0  0.16579351170E+03  0.30640236768E+03 -0.17403748267E+03  0.38943541802E+03  0.99999687468E+00 0.  0.
          4    1    3    3  501    0 -0.45288288989E+02 -0.45589625769E+02 -0.25789969838E+03  0.26578505888E+03  0.00000000000E+00 0.  1.
   -9000007    1    1    2    0  503 -0.12050522271E+03 -0.26081274191E+03 -0.82801817616E+02  0.49940057673E+03  0.40000000000E+03 0.  1.
<mgrwt>
<rscale>  2 0.49264012E+03</rscale>
<asrwt>0</asrwt>
<pdfrwt beam="1">  1       21 0.49221697E-01 0.49269072E+03</pdfrwt>
<pdfrwt beam="2">  1       21 0.12841231E+00 0.49269072E+03</pdfrwt>
<totfact> 0.14757579E+03</totfact>
</mgrwt>
</event>
<event>
 6    1  0.9094387E-004  0.4372721E+03  0.7818608E-02  0.1031593E+00
         21   -1    0    0  501  502  0.00000000000E+00  0.00000000000E+00  0.26452328412E+04  0.26452328412E+04  0.00000000000E+00 0. -1.
         21   -1    0    0  502  503 -0.00000000000E+00 -0.00000000000E+00 -0.88637790098E+02  0.88637790098E+02  0.00000000000E+00 0.  1.
    9000007    2    1    2  501    0 -0.15619401196E+02  0.17576148583E+03  0.18657901601E+04  0.19163454250E+04  0.40008849088E+03 0.  0.
    9000005    1    3    3    0    0  0.17363340152E+03  0.41890189409E+02  0.11544349867E+04  0.11681714278E+04  0.99999687468E+00 0.  0.
          4    1    3    3  501    0 -0.18925280272E+03  0.13387129642E+03  0.71135517342E+03  0.74817399720E+03  0.00000000000E+00 0.  1.
   -9000007    1    1    2    0  503  0.15619401196E+02 -0.17576148583E+03  0.69080489094E+03  0.81752520630E+03  0.40000000000E+03 0.  1.
<mgrwt>
<rscale>  2 0.43725183E+03</rscale>
<asrwt>0</asrwt>
<pdfrwt beam="1">  1       21 0.40695884E+00 0.43727207E+03</pdfrwt>
<pdfrwt beam="2">  1       21 0.13636585E-01 0.43727207E+03</pdfrwt>
<totfact> 0.28430535E+02</totfact>
</mgrwt>
</event>
<event>
 6    1  0.9094387E-004  0.4482500E+03  0.7818608E-02  0.1028246E+00
         21   -1    0    0  501  502  0.00000000000E+00  0.00000000000E+00  0.13851497104E+04  0.13851497104E+04  0.00000000000E+00 0. -1.
         21   -1    0    0  502  503 -0.00000000000E+00 -0.00000000000E+00 -0.24888603416E+03  0.24888603416E+03  0.00000000000E+00 0.  1.
    9000007    2    1    2  501    0  0.58366144150E+02 -0.19370459489E+03  0.10958349937E+04  0.11839662441E+04  0.39999207101E+03 0.  0.
    9000005    1    3    3    0    0 -0.71621590570E+02  0.93857474610E+02  0.17983132733E+03  0.21512597253E+03  0.99999687468E+00 0.  0.
          4    1    3    3  501    0  0.12998773472E+03 -0.28756206950E+03  0.91600366636E+03  0.96884027155E+03  0.00000000000E+00 0.  1.
   -9000007    1    1    2    0  503 -0.58366144150E+02  0.19370459489E+03  0.40428682526E+02  0.45006950045E+03  0.40000000000E+03 0.  1.
<mgrwt>
<rscale>  2 0.44824825E+03</rscale>
<asrwt>0</asrwt>
<pdfrwt beam="1">  1       21 0.21309995E+00 0.44825002E+03</pdfrwt>
<pdfrwt beam="2">  1       21 0.38290160E-01 0.44825002E+03</pdfrwt>
<totfact> 0.60141812E+02</totfact>
</mgrwt>
</event>
<event>
 6    1  0.9094387E-004  0.6151389E+03  0.7818608E-02  0.9874609E-01
         21   -1    0    0  501  502  0.00000000000E+00  0.00000000000E+00  0.39831222091E+03  0.39831222091E+03  0.00000000000E+00 0.  1.
         21   -1    0    0  502  503 -0.00000000000E+00 -0.00000000000E+00 -0.10143160847E+04  0.10143160847E+04  0.00000000000E+00 0. -1.
    9000007    2    1    2  501    0 -0.45718985544E+03 -0.95247921689E+02 -0.12967779080E+03  0.62865905891E+03  0.40037626356E+03 0.  0.
    9000005    1    3    3    0    0 -0.42428074106E+02 -0.18408598752E+03 -0.63844363102E+02  0.19941137121E+03  0.99999687468E+00 0.  0.
          4    1    3    3  501    0 -0.41476178134E+03  0.88838065829E+02 -0.65833427694E+02  0.42924768771E+03  0.00000000000E+00 0.  1.
   -9000007    1    1    2    0  503  0.45718985544E+03  0.95247921689E+02 -0.48632607305E+03  0.78396924674E+03  0.40000000000E+03 0.  1.
<mgrwt>
<rscale>  2 0.61507770E+03</rscale>
<asrwt>0</asrwt>
<pdfrwt beam="1">  1       21 0.61278804E-01 0.61513891E+03</pdfrwt>
<pdfrwt beam="2">  1       21 0.15604863E+00 0.61513891E+03</pdfrwt>
<totfact> 0.52120448E+02</totfact>
</mgrwt>
</event>
<event>
 6    1  0.9094387E-004  0.4349849E+03  0.7818608E-02  0.1032303E+00
         21   -1    0    0  501  502  0.00000000000E+00  0.00000000000E+00  0.38067980166E+03  0.38067980166E+03  0.00000000000E+00 0. -1.
         21   -1    0    0  502  503 -0.00000000000E+00 -0.00000000000E+00 -0.49843350658E+03  0.49843350658E+03  0.00000000000E+00 0. -1.
    9000007    2    1    2  501    0  0.14901200662E+03  0.83709743836E+02 -0.82924882818E+02  0.44273623942E+03  0.39990866730E+03 0.  0.
    9000005    1    3    3    0    0  0.22870773580E+03  0.19121651953E+03 -0.80899527661E+02  0.30889596846E+03  0.99999687468E+00 0.  0.
          4    1    3    3  501    0 -0.79695729179E+02 -0.10750677569E+03 -0.20253551565E+01  0.13384027097E+03  0.00000000000E+00 0.  1.
   -9000007    1    1    2    0  503 -0.14901200662E+03 -0.83709743836E+02 -0.34828822103E+02  0.43637706881E+03  0.40000000000E+03 0. -1.
<mgrwt>
<rscale>  2 0.43496394E+03</rscale>
<asrwt>0</asrwt>
<pdfrwt beam="1">  1       21 0.58566124E-01 0.43498494E+03</pdfrwt>
<pdfrwt beam="2">  1       21 0.76682078E-01 0.43498494E+03</pdfrwt>
<totfact> 0.36282098E+03</totfact>
</mgrwt>
</event>
<event>
 6    1  0.9094387E-004  0.4364671E+03  0.7818608E-02  0.1031870E+00
         21   -1    0    0  501  502  0.00000000000E+00  0.00000000000E+00  0.10544002064E+03  0.10544002064E+03  0.00000000000E+00 0.  1.
         21   -1    0    0  502  503 -0.00000000000E+00 -0.00000000000E+00 -0.22972741117E+04  0.22972741117E+04  0.00000000000E+00 0.  1.
    9000007    2    1    2  501    0 -0.27282015758E+02  0.17140189782E+03 -0.54019415957E+03  0.69448774738E+03  0.40047544528E+03 0.  0.
    9000005    1    3    3    0    0 -0.16744786391E+03  0.20716901110E+03 -0.45319358697E+03  0.52568356789E+03  0.99999687468E+00 0.  0.
          4    1    3    3  501    0  0.14016584815E+03 -0.35767113278E+02 -0.87000572601E+02  0.16880417949E+03  0.00000000000E+00 0.  1.
   -9000007    1    1    2    0  503  0.27282015758E+02 -0.17140189782E+03 -0.16516399315E+04  0.17082263849E+04  0.40000000000E+03 0.  1.
<mgrwt>
<rscale>  2 0.43635798E+03</rscale>
<asrwt>0</asrwt>
<pdfrwt beam="1">  1       21 0.16221543E-01 0.43646707E+03</pdfrwt>
<pdfrwt beam="2">  1       21 0.35342676E+00 0.43646707E+03</pdfrwt>
<totfact> 0.44779912E+02</totfact>
</mgrwt>
</event>
<event>
 6    1  0.9094387E-004  0.4697152E+03  0.7818608E-02  0.1022077E+00
         21   -1    0    0  501  502  0.00000000000E+00  0.00000000000E+00  0.91135784562E+02  0.91135784562E+02  0.00000000000E+00 0.  1.
         21   -1    0    0  502  503 -0.00000000000E+00 -0.00000000000E+00 -0.24401404150E+04  0.24401404150E+04  0.00000000000E+00 0. -1.
    9000007    2    1    2  501    0 -0.22156655127E+03 -0.10742744207E+03 -0.13007707819E+04  0.13826132407E+04  0.39872591366E+03 0.  0.
    9000005    1    3    3    0    0 -0.19652228597E+03 -0.23887405041E+03 -0.10892548384E+04  0.11323245665E+04  0.99999687468E+00 0.  0.
          4    1    3    3  501    0 -0.25044265304E+02  0.13144660835E+03 -0.21151594348E+03  0.25028867417E+03  0.00000000000E+00 0.  1.
   -9000007    1    1    2    0  503  0.22156655127E+03  0.10742744207E+03 -0.10482338485E+04  0.11486629589E+04  0.40000000000E+03 0.  1.
<mgrwt>
<rscale>  2 0.46944386E+03</rscale>
<asrwt>0</asrwt>
<pdfrwt beam="1">  1       21 0.14020890E-01 0.46971522E+03</pdfrwt>
<pdfrwt beam="2">  1       21 0.37540623E+00 0.46971522E+03</pdfrwt>
<totfact> 0.42000378E+02</totfact>
</mgrwt>
</event>
<event>
 6    1  0.9094387E-004  0.4030529E+03  0.7818608E-02  0.1042888E+00
         21   -1    0    0  501  502  0.00000000000E+00  0.00000000000E+00  0.17841877464E+03  0.17841877464E+03  0.00000000000E+00 0.  1.
         21   -1    0    0  502  503 -0.00000000000E+00 -0.00000000000E+00 -0.10038412862E+04  0.10038412862E+04  0.00000000000E+00 0.  1.
    9000007    2    1    2  501    0 -0.29701517220E+02  0.83834701145E+01 -0.22931084434E+03  0.46371877289E+03  0.40186959863E+03 0.  0.
    9000005    1    3    3    0    0 -0.11383244229E+03  0.17654591484E+03 -0.15703361829E+03  0.26227245802E+03  0.99999687468E+00 0.  0.
          4    1    3    3  501    0  0.84130925071E+02 -0.16816244473E+03 -0.72277226050E+02  0.20144631487E+03  0.00000000000E+00 0.  1.
   -9000007    1    1    2    0  503  0.29701517220E+02 -0.83834701145E+01 -0.59611166717E+03  0.71854128791E+03  0.40000000000E+03 0.  1.
<mgrwt>
<rscale>  2 0.40258606E+03</rscale>
<asrwt>0</asrwt>
<pdfrwt beam="1">  1       21 0.27449042E-01 0.40305290E+03</pdfrwt>
<pdfrwt beam="2">  1       21 0.15443712E+00 0.40305290E+03</pdfrwt>
<totfact> 0.30778613E+03</totfact>
</mgrwt>
</event>
<event>
 6    1  0.9094387E-004  0.6219301E+03  0.7818608E-02  0.9861189E-01
         21   -1    0    0  501  502  0.00000000000E+00  0.00000000000E+00  0.76326703208E+03  0.76326703208E+03  0.00000000000E+00 0.  1.
         21   -1    0    0  502  503 -0.00000000000E+00 -0.00000000000E+00 -0.70781526212E+03  0.70781526212E+03  0.00000000000E+00 0.  1.
    9000007    2    1    2  501    0  0.21554922858E+03  0.42465940759E+03  0.42015272151E+03  0.75010804608E+03  0.39917000013E+03 0.  0.
    9000005    1    3    3    0    0  0.97692557476E+02  0.45268574122E+02 -0.62878514249E+02  0.12469076605E+03  0.99999687468E+00 0.  0.
          4    1    3    3  501    0  0.11785667111E+03  0.37939083346E+03  0.48303123576E+03  0.62541728003E+03  0.00000000000E+00 0.  1.
   -9000007    1    1    2    0  503 -0.21554922858E+03 -0.42465940759E+03 -0.36470095155E+03  0.72097424812E+03  0.40000000000E+03 0.  1.
<mgrwt>
<rscale>  2 0.62179671E+03</rscale>
<asrwt>0</asrwt>
<pdfrwt beam="1">  1       21 0.11742570E+00 0.62193013E+03</pdfrwt>
<pdfrwt beam="2">  1       21 0.10889466E+00 0.62193013E+03</pdfrwt>
<totfact> 0.28762239E+02</totfact>
</mgrwt>
</event>
<event>
 6    1  0.9094387E-004  0.4824516E+03  0.7818608E-02  0.1018504E+00
         21   -1    0    0  501  502  0.00000000000E+00  0.00000000000E+00  0.22419857376E+03  0.22419857376E+03  0.00000000000E+00 0. -1.
         21   -1    0    0  502  503 -0.00000000000E+00 -0.00000000000E+00 -0.10588039747E+04  0.10588039747E+04  0.00000000000E+00 0. -1.
    9000007    2    1    2  501    0  0.19543005491E+03  0.18592095158E+03 -0.50928208623E+03  0.70111358508E+03  0.39929000642E+03 0.  0.
    9000005    1    3    3    0    0 -0.11676231147E+03  0.10805443582E+03 -0.14745807073E+03  0.21691952678E+03  0.99999687468E+00 0.  0.
          4    1    3    3  501    0  0.31219236638E+03  0.77866515767E+02 -0.36182401550E+03  0.48419405830E+03  0.00000000000E+00 0.  1.
   -9000007    1    1    2    0  503 -0.19543005491E+03 -0.18592095158E+03 -0.32532331470E+03  0.58188896337E+03  0.40000000000E+03 0. -1.
<mgrwt>
<rscale>  2 0.48230437E+03</rscale>
<asrwt>0</asrwt>
<pdfrwt beam="1">  1       21 0.34492088E-01 0.48245156E+03</pdfrwt>
<pdfrwt beam="2">  1       21 0.16289292E+00 0.48245156E+03</pdfrwt>
<totfact> 0.16310132E+03</totfact>
</mgrwt>
</event>
<event>
 6    1  0.9094387E-004  0.4135526E+03  0.7818608E-02  0.1039621E+00
         21   -1    0    0  501  502  0.00000000000E+00  0.00000000000E+00  0.46498264384E+03  0.46498264384E+03  0.00000000000E+00 0. -1.
         21   -1    0    0  502  503 -0.00000000000E+00 -0.00000000000E+00 -0.53937552834E+03  0.53937552834E+03  0.00000000000E+00 0. -1.
    9000007    2    1    2  501    0 -0.60010135807E+02 -0.56056335320E+02  0.24965019284E+03  0.48306416195E+03  0.40531745169E+03 0.  0.
    9000005    1    3    3    0    0 -0.52547658071E+02 -0.21991833560E+03  0.63300207959E+02  0.23480469974E+03  0.99999687468E+00 0.  0.
          4    1    3    3  501    0 -0.74624777358E+01  0.16386200028E+03  0.18634998488E+03  0.24825946220E+03  0.00000000000E+00 0.  1.
   -9000007    1    1    2    0  503  0.60010135807E+02  0.56056335320E+02 -0.32404307734E+03  0.52129401023E+03  0.40000000000E+03 0. -1.
<mgrwt>
<rscale>  2 0.41224387E+03</rscale>
<asrwt>0</asrwt>
<pdfrwt beam="1">  1       21 0.71535792E-01 0.41355262E+03</pdfrwt>
<pdfrwt beam="2">  1       21 0.82980850E-01 0.41355262E+03</pdfrwt>
<totfact> 0.19565564E+03</totfact>
</mgrwt>
</event>
<event>
 6    1  0.9094387E-004  0.6974807E+03  0.7818608E-02  0.9721558E-01
         21   -1    0    0  501  502  0.00000000000E+00  0.00000000000E+00  0.46494295660E+03  0.46494295660E+03  0.00000000000E+00 0.  1.
         21   -1    0    0  502  503 -0.00000000000E+00 -0.00000000000E+00 -0.10768718627E+04  0.10768718627E+04  0.00000000000E+00 0.  1.
    9000007    2    1    2  501    0  0.94420366131E+02  0.56352833395E+03 -0.43586900427E+03  0.82245644011E+03  0.39996677148E+03 0.  0.
    9000005    1    3    3    0    0  0.54463267704E+01 -0.61498192383E+02 -0.14500315203E+02  0.63426723677E+02  0.99999687468E+00 0.  0.
          4    1    3    3  501    0  0.88974039360E+02  0.62502652633E+03 -0.42136868906E+03  0.75902971643E+03  0.00000000000E+00 0.  1.
   -9000007    1    1    2    0  503 -0.94420366131E+02 -0.56352833395E+03 -0.17605990184E+03  0.71935837921E+03  0.40000000000E+03 0.  1.
<mgrwt>
<rscale>  2 0.69747598E+03</rscale>
<asrwt>0</asrwt>
<pdfrwt beam="1">  1       21 0.71529686E-01 0.69748074E+03</pdfrwt>
<pdfrwt beam="2">  1       21 0.16567259E+00 0.69748074E+03</pdfrwt>
<totfact> 0.30275232E+02</totfact>
</mgrwt>
</event>
<event>
 6    1  0.9094387E-004  0.5766799E+03  0.7818608E-02  0.9955326E-01
         21   -1    0    0  501  502  0.00000000000E+00  0.00000000000E+00  0.39787850994E+03  0.39787850994E+03  0.00000000000E+00 0.  1.
         21   -1    0    0  502  503 -0.00000000000E+00 -0.00000000000E+00 -0.84114684355E+03  0.84114684355E+03  0.00000000000E+00 0. -1.
    9000007    2    1    2  501    0 -0.12562617618E+03  0.39595173522E+03 -0.16847077345E+03  0.60021911383E+03  0.39915018520E+03 0.  0.
    9000005    1    3    3    0    0  0.94486784095E+02  0.71298427144E+02 -0.17100043629E+03  0.20797443902E+03  0.99999687468E+00 0.  0.
          4    1    3    3  501    0 -0.22011296027E+03  0.32465330807E+03  0.25296628400E+01  0.39224467481E+03  0.00000000000E+00 0.  1.
   -9000007    1    1    2    0  503  0.12562617618E+03 -0.39595173522E+03 -0.27479756016E+03  0.63880623966E+03  0.40000000000E+03 0. -1.
<mgrwt>
<rscale>  2 0.57653257E+03</rscale>
<asrwt>0</asrwt>
<pdfrwt beam="1">  1       21 0.61212078E-01 0.57667990E+03</pdfrwt>
<pdfrwt beam="2">  1       21 0.12940721E+00 0.57667990E+03</pdfrwt>
<totfact> 0.87613568E+02</totfact>
</mgrwt>
</event>
<event>
 6    1  0.9094387E-004  0.4352949E+03  0.7818608E-02  0.1032204E+00
         21   -1    0    0  501  502  0.00000000000E+00  0.00000000000E+00  0.42541250529E+03  0.42541250529E+03  0.00000000000E+00 0. -1.
         21   -1    0    0  502  503 -0.00000000000E+00 -0.00000000000E+00 -0.50805164088E+03  0.50805164088E+03  0.00000000000E+00 0.  1.
    9000007    2    1    2  501    0  0.47799388711E+02 -0.16479480512E+03  0.12263068004E+03  0.45223882829E+03  0.40004945291E+03 0.  0.
    9000005    1    3    3    0    0  0.20084131876E+03 -0.66459421484E+02  0.16158393234E+03  0.26620378887E+03  0.99999687468E+00 0.  0.
          4    1    3    3  501    0 -0.15304193005E+03 -0.98335383640E+02 -0.38953252303E+02  0.18603503942E+03  0.00000000000E+00 0.  1.
   -9000007    1    1    2    0  503 -0.47799388711E+02  0.16479480512E+03 -0.20526981562E+03  0.48122531787E+03  0.40000000000E+03 0.  1.
<mgrwt>
<rscale>  2 0.43528357E+03</rscale>
<asrwt>0</asrwt>
<pdfrwt beam="1">  1       21 0.65448078E-01 0.43529493E+03</pdfrwt>
<pdfrwt beam="2">  1       21 0.78161791E-01 0.43529493E+03</pdfrwt>
<totfact> 0.27186835E+03</totfact>
</mgrwt>
</event>
<event>
 6    1  0.9094387E-004  0.4732150E+03  0.7818608E-02  0.1021019E+00
         21   -1    0    0  501  502  0.00000000000E+00  0.00000000000E+00  0.36465048407E+03  0.36465048407E+03  0.00000000000E+00 0.  1.
         21   -1    0    0  502  503 -0.00000000000E+00 -0.00000000000E+00 -0.69783082447E+03  0.69783082447E+03  0.00000000000E+00 0.  1.
    9000007    2    1    2  501    0 -0.15881103839E+03  0.19675224518E+03 -0.35063914379E+03  0.58894440215E+03  0.39996913352E+03 0.  0.
    9000005    1    3    3    0    0  0.14463770540E+02  0.11919208291E+03  0.61704922489E+02  0.13499796569E+03  0.99999687468E+00 0.  0.
          4    1    3    3  501    0 -0.17327480893E+03  0.77560162264E+02 -0.41234406628E+03  0.45394643646E+03  0.00000000000E+00 0.  1.
   -9000007    1    1    2    0  503  0.15881103839E+03 -0.19675224518E+03  0.17458803400E+02  0.47353690639E+03  0.40000000000E+03 0.  1.
<mgrwt>
<rscale>  2 0.47320843E+03</rscale>
<asrwt>0</asrwt>
<pdfrwt beam="1">  1       21 0.56100075E-01 0.47321495E+03</pdfrwt>
<pdfrwt beam="2">  1       21 0.10735859E+00 0.47321495E+03</pdfrwt>
<totfact> 0.17657304E+03</totfact>
</mgrwt>
</event>
<event>
 6    1  0.9094387E-004  0.5174409E+03  0.7818608E-02  0.1009353E+00
         21   -1    0    0  501  502  0.00000000000E+00  0.00000000000E+00  0.84967541479E+03  0.84967541479E+03  0.00000000000E+00 0. -1.
         21   -1    0    0  502  503 -0.00000000000E+00 -0.00000000000E+00 -0.31577923077E+03  0.31577923077E+03  0.00000000000E+00 0. -1.
    9000007    2    1    2  501    0 -0.33323339676E+01 -0.32751329336E+03  0.23525867300E+03  0.56841157781E+03  0.40058584197E+03 0.  0.
    9000005    1    3    3    0    0  0.78242415789E+02 -0.34673746737E+03  0.42208874442E+02  0.35795437696E+03  0.99999687468E+00 0.  0.
          4    1    3    3  501    0 -0.81574749757E+02  0.19224174011E+02  0.19304979856E+03  0.21045720085E+03  0.00000000000E+00 0.  1.
   -9000007    1    1    2    0  503  0.33323339676E+01  0.32751329336E+03  0.29863751101E+03  0.59704306776E+03  0.40000000000E+03 0. -1.
<mgrwt>
<rscale>  2 0.51732750E+03</rscale>
<asrwt>0</asrwt>
<pdfrwt beam="1">  1       21 0.13071929E+00 0.51744089E+03</pdfrwt>
<pdfrwt beam="2">  1       21 0.48581420E-01 0.51744089E+03</pdfrwt>
<totfact> 0.14361670E+03</totfact>
</mgrwt>
</event>
<event>
 6    1  0.9094387E-004  0.4058792E+03  0.7818608E-02  0.1041808E+00
         21   -1    0    0  501  502  0.00000000000E+00  0.00000000000E+00  0.36999032799E+03  0.36999032799E+03  0.00000000000E+00 0. -1.
         21   -1    0    0  502  503 -0.00000000000E+00 -0.00000000000E+00 -0.11013795210E+04  0.11013795210E+04  0.00000000000E+00 0. -1.
    9000007    2    1    2  501    0  0.61993649356E+02 -0.29911749398E+02  0.20248325086E+03  0.45310874951E+03  0.39946232199E+03 0.  0.
    9000005    1    3    3    0    0 -0.30614584197E+02  0.17336067028E+03  0.12793801386E+03  0.21762424072E+03  0.99999687468E+00 0.  0.
          4    1    3    3  501    0  0.92608233554E+02 -0.20327241968E+03  0.74545237001E+02  0.23548450879E+03  0.00000000000E+00 0.  1.
   -9000007    1    1    2    0  503 -0.61993649356E+02  0.29911749398E+02 -0.93387244387E+03  0.10182610995E+04  0.40000000000E+03 0. -1.
<mgrwt>
<rscale>  2 0.40574667E+03</rscale>
<asrwt>0</asrwt>
<pdfrwt beam="1">  1       21 0.56921589E-01 0.40587920E+03</pdfrwt>
<pdfrwt beam="2">  1       21 0.16944300E+00 0.40587920E+03</pdfrwt>
<totfact> 0.52990685E+02</totfact>
</mgrwt>
</event>
<event>
 6    1  0.9094387E-004  0.4625009E+03  0.7818608E-02  0.1024085E+00
         21   -1    0    0  501  502  0.00000000000E+00  0.00000000000E+00  0.11437444986E+03  0.11437444986E+03  0.00000000000E+00 0. -1.
         21   -1    0    0  502  503 -0.00000000000E+00 -0.00000000000E+00 -0.19092042114E+04  0.19092042114E+04  0.00000000000E+00 0. -1.
    9000007    2    1    2  501    0  0.13074668936E+03  0.19095976132E+03 -0.75043364953E+03  0.88150880088E+03  0.40043323596E+03 0.  0.
    9000005    1    3    3    0    0  0.14507341253E+03  0.18272413560E+03 -0.14258071412E+03  0.27343127983E+03  0.99999687468E+00 0.  0.
          4    1    3    3  501    0 -0.14326723173E+02  0.82356257218E+01 -0.60785293541E+03  0.60807752105E+03  0.00000000000E+00 0.  1.
   -9000007    1    1    2    0  503 -0.13074668936E+03 -0.19095976132E+03 -0.10443961120E+04  0.11420698604E+04  0.40000000000E+03 0. -1.
<mgrwt>
<rscale>  2 0.46240713E+03</rscale>
<asrwt>0</asrwt>
<pdfrwt beam="1">  1       21 0.17596070E-01 0.46250092E+03</pdfrwt>
<pdfrwt beam="2">  1       21 0.29372371E+00 0.46250092E+03</pdfrwt>
<totfact> 0.87094606E+02</totfact>
</mgrwt>
</event>
<event>
 6    1  0.9094387E-004  0.4304412E+03  0.7818608E-02  0.1033776E+00
         21   -1    0    0  501  502  0.00000000000E+00  0.00000000000E+00  0.45390071611E+03  0.45390071611E+03  0.00000000000E+00 0.  1.
         21   -1    0    0  502  503 -0.00000000000E+00 -0.00000000000E+00 -0.47876401540E+03  0.47876401540E+03  0.00000000000E+00 0.  1.
    9000007    2    1    2  501    0 -0.14533534768E+03  0.64477064311E+02  0.16745879755E+03  0.46121224817E+03  0.39924257523E+03 0.  0.
    9000005    1    3    3    0    0 -0.56564459163E+02 -0.12587331128E+03 -0.60996311534E+02  0.15088133930E+03  0.99999687468E+00 0.  0.
          4    1    3    3  501    0 -0.88770888514E+02  0.19035037559E+03  0.22845510908E+03  0.31033090887E+03  0.00000000000E+00 0.  1.
   -9000007    1    1    2    0  503  0.14533534768E+03 -0.64477064311E+02 -0.19232209684E+03  0.47145248333E+03  0.40000000000E+03 0.  1.
<mgrwt>
<rscale>  2 0.43026518E+03</rscale>
<asrwt>0</asrwt>
<pdfrwt beam="1">  1       21 0.69830880E-01 0.43044123E+03</pdfrwt>
<pdfrwt beam="2">  1       21 0.73656002E-01 0.43044123E+03</pdfrwt>
<totfact> 0.26983971E+03</totfact>
</mgrwt>
</event>
<event>
 6    1  0.9094387E-004  0.5378595E+03  0.7818608E-02  0.1004402E+00
         21   -1    0    0  501  502  0.00000000000E+00  0.00000000000E+00  0.90263998048E+03  0.90263998048E+03  0.00000000000E+00 0.  1.
         21   -1    0    0  502  503 -0.00000000000E+00 -0.00000000000E+00 -0.62002551871E+03  0.62002551871E+03  0.00000000000E+00 0.  1.
    9000007    2    1    2  501    0  0.30272442152E+03 -0.19403792190E+03  0.67091833555E+03  0.85928575206E+03  0.39868258077E+03 0.  0.
    9000005    1    3    3    0    0  0.20064607513E+03  0.84077169605E+02  0.41164668095E+03  0.46559833316E+03  0.99999687468E+00 0.  0.
          4    1    3    3  501    0  0.10207834639E+03 -0.27811509151E+03  0.25927165460E+03  0.39368741890E+03  0.00000000000E+00 0.  1.
   -9000007    1    1    2    0  503 -0.30272442152E+03  0.19403792190E+03 -0.38830387378E+03  0.66337974713E+03  0.40000000000E+03 0.  1.
<mgrwt>
<rscale>  2 0.53761453E+03</rscale>
<asrwt>0</asrwt>
<pdfrwt beam="1">  1       21 0.13886769E+00 0.53785945E+03</pdfrwt>
<pdfrwt beam="2">  1       21 0.95388542E-01 0.53785945E+03</pdfrwt>
<totfact> 0.26548602E+02</totfact>
</mgrwt>
</event>
<event>
 6    1  0.9094387E-004  0.4457106E+03  0.7818608E-02  0.1029062E+00
         21   -1    0    0  501  502  0.00000000000E+00  0.00000000000E+00  0.17077160628E+04  0.17077160628E+04  0.00000000000E+00 0.  1.
         21   -1    0    0  502  503 -0.00000000000E+00 -0.00000000000E+00 -0.14165909852E+03  0.14165909852E+03  0.00000000000E+00 0.  1.
    9000007    2    1    2  501    0  0.14903899259E+03 -0.12823946506E+03  0.11749340311E+04  0.12563868557E+04  0.39922421287E+03 0.  0.
    9000005    1    3    3    0    0  0.20356338234E+03 -0.18310136285E+02  0.10854264951E+04  0.11045021448E+04  0.99999687468E+00 0.  0.
          4    1    3    3  501    0 -0.54524389754E+02 -0.10992932877E+03  0.89507535999E+02  0.15188471089E+03  0.00000000000E+00 0.  1.
   -9000007    1    1    2    0  503 -0.14903899259E+03  0.12823946506E+03  0.39112293323E+03  0.59298830562E+03  0.40000000000E+03 0.  1.
<mgrwt>
<rscale>  2 0.44553652E+03</rscale>
<asrwt>0</asrwt>
<pdfrwt beam="1">  1       21 0.26272553E+00 0.44571065E+03</pdfrwt>
<pdfrwt beam="2">  1       21 0.21793709E-01 0.44571065E+03</pdfrwt>
<totfact> 0.90047540E+02</totfact>
</mgrwt>
</event>
<event>
 6    1  0.9094387E-004  0.4748305E+03  0.7818608E-02  0.1020576E+00
         21   -1    0    0  501  502  0.00000000000E+00  0.00000000000E+00  0.15943150763E+04  0.15943150763E+04  0.00000000000E+00 0.  1.
         21   -1    0    0  502  503 -0.00000000000E+00 -0.00000000000E+00 -0.21512926030E+03  0.21512926030E+03  0.00000000000E+00 0. -1.
    9000007    2    1    2  501    0 -0.11031298130E+03  0.23055310054E+03  0.12194044233E+04  0.13085912849E+04  0.40017535804E+03 0.  0.
    9000005    1    3    3    0    0  0.97108027221E+02  0.12216122346E+03  0.15946544256E+03  0.22312230017E+03  0.99999687468E+00 0.  0.
          4    1    3    3  501    0 -0.20742100852E+03  0.10839187708E+03  0.10599389808E+04  0.10854689847E+04  0.00000000000E+00 0.  1.
   -9000007    1    1    2    0  503  0.11031298130E+03 -0.23055310054E+03  0.15978139271E+03  0.50085305177E+03  0.40000000000E+03 0. -1.
<mgrwt>
<rscale>  2 0.47479355E+03</rscale>
<asrwt>0</asrwt>
<pdfrwt beam="1">  1       21 0.24527924E+00 0.47483050E+03</pdfrwt>
<pdfrwt beam="2">  1       21 0.33096810E-01 0.47483050E+03</pdfrwt>
<totfact> 0.49963017E+02</totfact>
</mgrwt>
</event>
<event>
 6    1  0.9094387E-004  0.4495338E+03  0.7818608E-02  0.1027884E+00
         21   -1    0    0  501  502  0.00000000000E+00  0.00000000000E+00  0.43299692743E+03  0.43299692743E+03  0.00000000000E+00 0. -1.
         21   -1    0    0  502  503 -0.00000000000E+00 -0.00000000000E+00 -0.46854241719E+03  0.46854241719E+03  0.00000000000E+00 0. -1.
    9000007    2    1    2  501    0  0.83096374351E+02  0.18755166641E+03 -0.48357637741E+02  0.45182300498E+03  0.39965601672E+03 0.  0.
    9000005    1    3    3    0    0  0.16959743718E+03  0.14551910807E+03  0.12317394812E+03  0.25517038034E+03  0.99999687468E+00 0.  0.
          4    1    3    3  501    0 -0.86501062826E+02  0.42032558334E+02 -0.17153158587E+03  0.19665262464E+03  0.00000000000E+00 0.  1.
   -9000007    1    1    2    0  503 -0.83096374351E+02 -0.18755166641E+03  0.12812147977E+02  0.44971633964E+03  0.40000000000E+03 0. -1.
<mgrwt>
<rscale>  2 0.44945726E+03</rscale>
<asrwt>0</asrwt>
<pdfrwt beam="1">  1       21 0.66614912E-01 0.44953380E+03</pdfrwt>
<pdfrwt beam="2">  1       21 0.72083449E-01 0.44953380E+03</pdfrwt>
<totfact> 0.31276481E+03</totfact>
</mgrwt>
</event>
<event>
 6    1  0.9094387E-004  0.4566860E+03  0.7818608E-02  0.1025827E+00
         21   -1    0    0  501  502  0.00000000000E+00  0.00000000000E+00  0.73030980365E+03  0.73030980365E+03  0.00000000000E+00 0.  1.
         21   -1    0    0  502  503 -0.00000000000E+00 -0.00000000000E+00 -0.32808822957E+03  0.32808822957E+03  0.00000000000E+00 0.  1.
    9000007    2    1    2  501    0  0.26681338189E+02 -0.21874690048E+03  0.88887207182E+01  0.45567684245E+03  0.39874838572E+03 0.  0.
    9000005    1    3    3    0    0  0.54080248887E+02 -0.54364399975E+02  0.19279995825E+03  0.20749213286E+03  0.99999687468E+00 0.  0.
          4    1    3    3  501    0 -0.27398910698E+02 -0.16438250051E+03 -0.18391123753E+03  0.24818470958E+03  0.00000000000E+00 0.  1.
   -9000007    1    1    2    0  503 -0.26681338189E+02  0.21874690048E+03  0.39333285336E+03  0.60272119078E+03  0.40000000000E+03 0.  1.
<mgrwt>
<rscale>  2 0.45641179E+03</rscale>
<asrwt>0</asrwt>
<pdfrwt beam="1">  1       21 0.11235535E+00 0.45668600E+03</pdfrwt>
<pdfrwt beam="2">  1       21 0.50475112E-01 0.45668600E+03</pdfrwt>
<totfact> 0.19913913E+03</totfact>
</mgrwt>
</event>
<event>
 6    1  0.9094387E-004  0.4882928E+03  0.7818608E-02  0.1016899E+00
         21   -1    0    0  501  502  0.00000000000E+00  0.00000000000E+00  0.31261391895E+03  0.31261391895E+03  0.00000000000E+00 0.  1.
         21   -1    0    0  502  503 -0.00000000000E+00 -0.00000000000E+00 -0.81099888398E+03  0.81099888398E+03  0.00000000000E+00 0.  1.
    9000007    2    1    2  501    0  0.27795699160E+03  0.30083892047E+02 -0.38696311518E+03  0.62303318052E+03  0.40033081542E+03 0.  0.
    9000005    1    3    3    0    0  0.16007974349E+03 -0.69477393066E+02  0.31231050102E+02  0.17728229158E+03  0.99999687468E+00 0.  0.
          4    1    3    3  501    0  0.11787724811E+03  0.99561285114E+02 -0.41819416529E+03  0.44575088895E+03  0.00000000000E+00 0.  1.
   -9000007    1    1    2    0  503 -0.27795699160E+03 -0.30083892047E+02 -0.11142184985E+03  0.50057962240E+03  0.40000000000E+03 0.  1.
<mgrwt>
<rscale>  2 0.48822502E+03</rscale>
<asrwt>0</asrwt>
<pdfrwt beam="1">  1       21 0.48094449E-01 0.48829283E+03</pdfrwt>
<pdfrwt beam="2">  1       21 0.12476906E+00 0.48829283E+03</pdfrwt>
<totfact> 0.16726139E+03</totfact>
</mgrwt>
</event>
<event>
 6    1  0.9094387E-004  0.4057622E+03  0.7818608E-02  0.1041833E+00
         21   -1    0    0  501  502  0.00000000000E+00  0.00000000000E+00  0.90210131132E+03  0.90210131132E+03  0.00000000000E+00 0.  1.
         21   -1    0    0  502  503 -0.00000000000E+00 -0.00000000000E+00 -0.19561045633E+03  0.19561045633E+03  0.00000000000E+00 0.  1.
    9000007    2    1    2  501    0 -0.69585758212E+01  0.67782938934E+02  0.49601267174E+03  0.64060782520E+03  0.39963341525E+03 0.  0.
    9000005    1    3    3    0    0 -0.10710534211E+03  0.29491213213E+02  0.51916522980E+03  0.53091884671E+03  0.99999687468E+00 0.  0.
          4    1    3    3  501    0  0.10014676629E+03  0.38291725721E+02 -0.23152558058E+02  0.10968897848E+03  0.00000000000E+00 0.  1.
   -9000007    1    1    2    0  503  0.69585758212E+01 -0.67782938934E+02  0.21047818325E+03  0.45710394246E+03  0.40000000000E+03 0. -1.
<mgrwt>
<rscale>  2 0.40567181E+03</rscale>
<asrwt>0</asrwt>
<pdfrwt beam="1">  1       21 0.13878481E+00 0.40576218E+03</pdfrwt>
<pdfrwt beam="2">  1       21 0.30093917E-01 0.40576218E+03</pdfrwt>
<totfact> 0.34168868E+03</totfact>
</mgrwt>
</event>
<event>
 6    1  0.9094387E-004  0.7891130E+03  0.7818608E-02  0.9575916E-01
         21   -1    0    0  501  502  0.00000000000E+00  0.00000000000E+00  0.52078126774E+03  0.52078126774E+03  0.00000000000E+00 0.  1.
         21   -1    0    0  502  503 -0.00000000000E+00 -0.00000000000E+00 -0.12680477862E+04  0.12680477862E+04  0.00000000000E+00 0.  1.
    9000007    2    1    2  501    0 -0.37092505934E+03 -0.57018756953E+03 -0.58729958170E+03  0.98366529115E+03  0.39997167682E+03 0.  0.
    9000005    1    3    3    0    0 -0.27229326122E+02 -0.11805129865E+03 -0.34598802217E+03  0.36658731128E+03  0.99999687468E+00 0.  0.
          4    1    3    3  501    0 -0.34369573322E+03 -0.45213627088E+03 -0.24131155953E+03  0.61707797987E+03  0.00000000000E+00 0.  1.
   -9000007    1    1    2    0  503  0.37092505934E+03  0.57018756953E+03 -0.15996693679E+03  0.80516376283E+03  0.40000000000E+03 0.  1.
<mgrwt>
<rscale>  2 0.78910937E+03</rscale>
<asrwt>0</asrwt>
<pdfrwt beam="1">  1       21 0.80120195E-01 0.78911296E+03</pdfrwt>
<pdfrwt beam="2">  1       21 0.19508427E+00 0.78911296E+03</pdfrwt>
<totfact> 0.13933099E+02</totfact>
</mgrwt>
</event>
<event>
 6    1  0.9094387E-004  0.4256384E+03  0.7818608E-02  0.1035264E+00
         21   -1    0    0  501  502  0.00000000000E+00  0.00000000000E+00  0.38009388771E+03  0.38009388771E+03  0.00000000000E+00 0. -1.
         21   -1    0    0  502  503 -0.00000000000E+00 -0.00000000000E+00 -0.52579332032E+03  0.52579332032E+03  0.00000000000E+00 0. -1.
    9000007    2    1    2  501    0  0.13332978588E+03 -0.58234324546E+02  0.66001917524E+02  0.43050785424E+03  0.39976579529E+03 0.  0.
    9000005    1    3    3    0    0  0.23046108194E+03  0.90058900345E+02  0.50709520160E+02  0.25257745594E+03  0.99999687468E+00 0.  0.
          4    1    3    3  501    0 -0.97131296060E+02 -0.14829322489E+03  0.15292397363E+02  0.17793039830E+03  0.00000000000E+00 0.  1.
   -9000007    1    1    2    0  503 -0.13332978588E+03  0.58234324546E+02 -0.21170135014E+03  0.47537935379E+03  0.40000000000E+03 0. -1.
<mgrwt>
<rscale>  2 0.42558339E+03</rscale>
<asrwt>0</asrwt>
<pdfrwt beam="1">  1       21 0.58475983E-01 0.42563842E+03</pdfrwt>
<pdfrwt beam="2">  1       21 0.80891280E-01 0.42563842E+03</pdfrwt>
<totfact> 0.32302138E+03</totfact>
</mgrwt>
</event>
<event>
 6    1  0.9094387E-004  0.6091001E+03  0.7818608E-02  0.9886810E-01
         21   -1    0    0  501  502  0.00000000000E+00  0.00000000000E+00  0.28286136159E+03  0.28286136159E+03  0.00000000000E+00 0. -1.
         21   -1    0    0  502  503 -0.00000000000E+00 -0.00000000000E+00 -0.17838915791E+04  0.17838915791E+04  0.00000000000E+00 0. -1.
    9000007    2    1    2  501    0  0.22043505035E+03  0.40268989496E+03 -0.21864621166E+03  0.64715458152E+03  0.40031503042E+03 0.  0.
    9000005    1    3    3    0    0  0.28134401878E+03  0.18381233927E+03 -0.24855826381E+03  0.41799957353E+03  0.99999687468E+00 0.  0.
          4    1    3    3  501    0 -0.60908968435E+02  0.21887755569E+03  0.29912052148E+02  0.22915500799E+03  0.00000000000E+00 0.  1.
   -9000007    1    1    2    0  503 -0.22043505035E+03 -0.40268989496E+03 -0.12823840059E+04  0.14195983592E+04  0.40000000000E+03 0. -1.
<mgrwt>
<rscale>  2 0.60904831E+03</rscale>
<asrwt>0</asrwt>
<pdfrwt beam="1">  1       21 0.43517133E-01 0.60910006E+03</pdfrwt>
<pdfrwt beam="2">  1       21 0.27444486E+00 0.60910006E+03</pdfrwt>
<totfact> 0.17717395E+02</totfact>
</mgrwt>
</event>
<event>
 6    1  0.9094387E-004  0.4320119E+03  0.7818608E-02  0.1033235E+00
         21   -1    0    0  501  502  0.00000000000E+00  0.00000000000E+00  0.16973074010E+04  0.16973074010E+04  0.00000000000E+00 0. -1.
         21   -1    0    0  502  503 -0.00000000000E+00 -0.00000000000E+00 -0.23487127829E+03  0.23487127829E+03  0.00000000000E+00 0.  1.
    9000007    2    1    2  501    0 -0.21910532714E+02  0.16172262201E+03  0.14357932152E+04  0.14993460067E+04  0.39987749766E+03 0.  0.
    9000005    1    3    3    0    0  0.14540112208E+03  0.20137041646E+03  0.67187693658E+03  0.71631777085E+03  0.99999687468E+00 0.  0.
          4    1    3    3  501    0 -0.16731165479E+03 -0.39647794451E+02  0.76391627860E+03  0.78302823585E+03  0.00000000000E+00 0.  1.
   -9000007    1    1    2    0  503  0.21910532714E+02 -0.16172262201E+03  0.26642907508E+02  0.43283267256E+03  0.40000000000E+03 0.  1.
<mgrwt>
<rscale>  2 0.43198354E+03</rscale>
<asrwt>0</asrwt>
<pdfrwt beam="1">  1       21 0.26112421E+00 0.43201190E+03</pdfrwt>
<pdfrwt beam="2">  1       21 0.36134044E-01 0.43201190E+03</pdfrwt>
<totfact> 0.34237667E+02</totfact>
</mgrwt>
</event>
<event>
 6    1  0.9094387E-004  0.5638938E+03  0.7818608E-02  0.9983350E-01
         21   -1    0    0  501  502  0.00000000000E+00  0.00000000000E+00  0.20505420445E+04  0.20505420445E+04  0.00000000000E+00 0.  1.
         21   -1    0    0  502  503 -0.00000000000E+00 -0.00000000000E+00 -0.16892147476E+03  0.16892147476E+03  0.00000000000E+00 0. -1.
    9000007    2    1    2  501    0 -0.26093776469E+03 -0.29981279058E+03  0.62255186323E+03  0.83988741256E+03  0.39982973493E+03 0.  0.
    9000005    1    3    3    0    0 -0.51562106680E+02 -0.18365300176E+03  0.20360863416E+02  0.19184014348E+03  0.99999687468E+00 0.  0.
          4    1    3    3  501    0 -0.20937565801E+03 -0.11615978882E+03  0.60219099981E+03  0.64804726908E+03  0.00000000000E+00 0.  1.
   -9000007    1    1    2    0  503  0.26093776469E+03  0.29981279058E+03  0.12590687065E+04  0.13795761067E+04  0.40000000000E+03 0.  1.
<mgrwt>
<rscale>  2 0.56386361E+03</rscale>
<asrwt>0</asrwt>
<pdfrwt beam="1">  1       21 0.31546799E+00 0.56389381E+03</pdfrwt>
<pdfrwt beam="2">  1       21 0.25987921E-01 0.56389381E+03</pdfrwt>
<totfact> 0.28919905E+02</totfact>
</mgrwt>
</event>
<event>
 6    1  0.9094387E-004  0.4906095E+03  0.7818608E-02  0.1016269E+00
         21   -1    0    0  501  502  0.00000000000E+00  0.00000000000E+00  0.10882023799E+04  0.10882023799E+04  0.00000000000E+00 0.  1.
         21   -1    0    0  502  503 -0.00000000000E+00 -0.00000000000E+00 -0.38949385597E+03  0.38949385597E+03  0.00000000000E+00 0.  1.
    9000007    2    1    2  501    0  0.20244320753E+03 -0.19894273256E+03  0.83515689299E+03  0.96859936835E+03  0.40017026045E+03 0.  0.
    9000005    1    3    3    0    0  0.10410755421E+03 -0.17711060422E+03  0.10350362744E+03  0.23004466927E+03  0.99999687468E+00 0.  0.
          4    1    3    3  501    0  0.98335653321E+02 -0.21832128336E+02  0.73165326556E+03  0.73855469909E+03  0.00000000000E+00 0.  1.
   -9000007    1    1    2    0  503 -0.20244320753E+03  0.19894273256E+03 -0.13644836905E+03  0.50909686753E+03  0.40000000000E+03 0.  1.
<mgrwt>
<rscale>  2 0.49057480E+03</rscale>
<asrwt>0</asrwt>
<pdfrwt beam="1">  1       21 0.16741575E+00 0.49060952E+03</pdfrwt>
<pdfrwt beam="2">  1       21 0.59922132E-01 0.49060952E+03</pdfrwt>
<totfact> 0.47076289E+02</totfact>
</mgrwt>
</event>
<event>
 6    1  0.9094387E-004  0.6185674E+03  0.7818608E-02  0.9867632E-01
         21   -1    0    0  501  502  0.00000000000E+00  0.00000000000E+00  0.13166056176E+04  0.13166056176E+04  0.00000000000E+00 0.  1.
         21   -1    0    0  502  503 -0.00000000000E+00 -0.00000000000E+00 -0.29265586346E+03  0.29265586346E+03  0.00000000000E+00 0. -1.
    9000007    2    1    2  501    0 -0.47182619756E+03  0.23714601013E+01  0.57939419337E+03  0.84751662143E+03  0.39995150677E+03 0.  0.
    9000005    1    3    3    0    0 -0.27179914546E+03 -0.37258969321E+02  0.58218066785E+03  0.64358242384E+03  0.99999687468E+00 0.  0.
          4    1    3    3  501    0 -0.20002705210E+03  0.39630429422E+02 -0.27864744773E+01  0.20393419759E+03  0.00000000000E+00 0.  1.
   -9000007    1    1    2    0  503  0.47182619756E+03 -0.23714601013E+01  0.44455556074E+03  0.76174485959E+03  0.40000000000E+03 0.  1.
<mgrwt>
<rscale>  2 0.61855953E+03</rscale>
<asrwt>0</asrwt>
<pdfrwt beam="1">  1       21 0.20255471E+00 0.61856736E+03</pdfrwt>
<pdfrwt beam="2">  1       21 0.45023980E-01 0.61856736E+03</pdfrwt>
<totfact> 0.46965658E+02</totfact>
</mgrwt>
</event>
<event>
 6    1  0.9094387E-004  0.4005791E+03  0.7818608E-02  0.1043644E+00
         21   -1    0    0  501  502  0.00000000000E+00  0.00000000000E+00  0.23767067479E+03  0.23767067479E+03  0.00000000000E+00 0. -1.
         21   -1    0    0  502  503 -0.00000000000E+00 -0.00000000000E+00 -0.97506820591E+03  0.97506820591E+03  0.00000000000E+00 0. -1.
    9000007    2    1    2  501    0 -0.19296229798E+02 -0.95523688908E+01 -0.31466929853E+02  0.40107293584E+03  0.39925648392E+03 0.  0.
    9000005    1    3    3    0    0 -0.44910621037E+02  0.19171895324E+03 -0.13020625210E+02  0.19734147458E+03  0.99999687468E+00 0.  0.
          4    1    3    3  501    0  0.25614391239E+02 -0.20127132213E+03 -0.18446304643E+02  0.20373146126E+03  0.00000000000E+00 0.  1.
   -9000007    1    1    2    0  503  0.19296229798E+02  0.95523688908E+01 -0.70593060127E+03  0.81166594486E+03  0.40000000000E+03 0. -1.
<mgrwt>
<rscale>  2 0.40039333E+03</rscale>
<asrwt>0</asrwt>
<pdfrwt beam="1">  1       21 0.36564719E-01 0.40057907E+03</pdfrwt>
<pdfrwt beam="2">  1       21 0.15001049E+00 0.40057907E+03</pdfrwt>
<totfact> 0.18817269E+03</totfact>
</mgrwt>
</event>
<event>
 6    1  0.9094387E-004  0.6012570E+03  0.7818608E-02  0.9902976E-01
         21   -1    0    0  501  502  0.00000000000E+00  0.00000000000E+00  0.71245890412E+03  0.71245890412E+03  0.00000000000E+00 0.  1.
         21   -1    0    0  502  503 -0.00000000000E+00 -0.00000000000E+00 -0.72656549715E+03  0.72656549715E+03  0.00000000000E+00 0.  1.
    9000007    2    1    2  501    0  0.42568690147E+03  0.14104790334E+03  0.38836433710E+03  0.71577707240E+03  0.40050731570E+03 0.  0.
    9000005    1    3    3    0    0  0.33531954207E+03 -0.72402893235E+02  0.12542976708E+03  0.36526018220E+03  0.99999687468E+00 0.  0.
          4    1    3    3  501    0  0.90367359407E+02  0.21345079657E+03  0.26293457002E+03  0.35051689020E+03  0.00000000000E+00 0.  1.
   -9000007    1    1    2    0  503 -0.42568690147E+03 -0.14104790334E+03 -0.40247093012E+03  0.72324732887E+03  0.40000000000E+03 0.  1.
<mgrwt>
<rscale>  2 0.60117251E+03</rscale>
<asrwt>0</asrwt>
<pdfrwt beam="1">  1       21 0.10960906E+00 0.60125698E+03</pdfrwt>
<pdfrwt beam="2">  1       21 0.11177931E+00 0.60125698E+03</pdfrwt>
<totfact> 0.32263838E+02</totfact>
</mgrwt>
</event>
<event>
 6    1  0.9094387E-004  0.4397547E+03  0.7818608E-02  0.1030962E+00
         21   -1    0    0  501  502  0.00000000000E+00  0.00000000000E+00  0.50872328922E+03  0.50872328922E+03  0.00000000000E+00 0.  1.
         21   -1    0    0  502  503 -0.00000000000E+00 -0.00000000000E+00 -0.56067356978E+03  0.56067356978E+03  0.00000000000E+00 0.  1.
    9000007    2    1    2  501    0  0.93144589281E+02  0.15718857786E+03  0.27879448099E+03  0.51914577012E+03  0.39799724180E+03 0.  0.
    9000005    1    3    3    0    0 -0.13784024219E+03 -0.70753405385E+01  0.16137137651E+03  0.21234809620E+03  0.99999687468E+00 0.  0.
          4    1    3    3  501    0  0.23098483147E+03  0.16426391840E+03  0.11742310448E+03  0.30679767392E+03  0.00000000000E+00 0.  1.
   -9000007    1    1    2    0  503 -0.93144589281E+02 -0.15718857786E+03 -0.33074476154E+03  0.55025108888E+03  0.40000000000E+03 0.  1.
<mgrwt>
<rscale>  2 0.43929873E+03</rscale>
<asrwt>0</asrwt>
<pdfrwt beam="1">  1       21 0.78265122E-01 0.43975466E+03</pdfrwt>
<pdfrwt beam="2">  1       21 0.86257472E-01 0.43975466E+03</pdfrwt>
<totfact> 0.14411430E+03</totfact>
</mgrwt>
</event>
<event>
 6    1  0.9094387E-004  0.5257525E+03  0.7818608E-02  0.1007309E+00
         21   -1    0    0  501  502  0.00000000000E+00  0.00000000000E+00  0.19117094008E+04  0.19117094008E+04  0.00000000000E+00 0.  1.
         21   -1    0    0  502  503 -0.00000000000E+00 -0.00000000000E+00 -0.19485145245E+03  0.19485145245E+03  0.00000000000E+00 0. -1.
    9000007    2    1    2  501    0  0.26285878199E+03  0.21587710669E+03  0.13947825180E+04  0.14905817567E+04  0.40089654109E+03 0.  0.
    9000005    1    3    3    0    0 -0.69895676870E+02  0.45668322755E+02  0.66922325930E+03  0.67441216784E+03  0.99999687468E+00 0.  0.
          4    1    3    3  501    0  0.33275445886E+03  0.17020878393E+03  0.72555925867E+03  0.81616958891E+03  0.00000000000E+00 0.  1.
   -9000007    1    1    2    0  503 -0.26285878199E+03 -0.21587710669E+03  0.32207543038E+03  0.61597909649E+03  0.40000000000E+03 0. -1.
<mgrwt>
<rscale>  2 0.52558160E+03</rscale>
<asrwt>0</asrwt>
<pdfrwt beam="1">  1       21 0.29410913E+00 0.52575251E+03</pdfrwt>
<pdfrwt beam="2">  1       21 0.29977148E-01 0.52575251E+03</pdfrwt>
<totfact> 0.29931273E+02</totfact>
</mgrwt>
</event>
<event>
 6    1  0.9094387E-004  0.6413611E+03  0.7818608E-02  0.9823772E-01
         21   -1    0    0  501  502  0.00000000000E+00  0.00000000000E+00  0.21241733739E+03  0.21241733739E+03  0.00000000000E+00 0.  1.
         21   -1    0    0  502  503 -0.00000000000E+00 -0.00000000000E+00 -0.20929140484E+04  0.20929140484E+04  0.00000000000E+00 0.  1.
    9000007    2    1    2  501    0  0.27253607133E+03  0.42079458944E+03 -0.62012148018E+03  0.89115681412E+03  0.39782636977E+03 0.  0.
    9000005    1    3    3    0    0  0.87293882959E+02 -0.70683284865E+02 -0.81018502543E+02  0.13849673826E+03  0.99999687468E+00 0.  0.
          4    1    3    3  501    0  0.18524218837E+03  0.49147787431E+03 -0.53910297764E+03  0.75266007585E+03  0.00000000000E+00 0.  1.
   -9000007    1    1    2    0  503 -0.27253607133E+03 -0.42079458944E+03 -0.12603752308E+04  0.14141745717E+04  0.40000000000E+03 0.  1.
<mgrwt>
<rscale>  2 0.64102244E+03</rscale>
<asrwt>0</asrwt>
<pdfrwt beam="1">  1       21 0.32679591E-01 0.64136105E+03</pdfrwt>
<pdfrwt beam="2">  1       21 0.32198677E+00 0.64136105E+03</pdfrwt>
<totfact> 0.16145605E+02</totfact>
</mgrwt>
</event>
<event>
 6    1  0.9094387E-004  0.5583212E+03  0.7818608E-02  0.9996237E-01
         21   -1    0    0  501  502  0.00000000000E+00  0.00000000000E+00  0.36414812163E+03  0.36414812163E+03  0.00000000000E+00 0.  1.
         21   -1    0    0  502  503 -0.00000000000E+00 -0.00000000000E+00 -0.91560594578E+03  0.91560594578E+03  0.00000000000E+00 0.  1.
    9000007    2    1    2  501    0  0.14453623872E+02 -0.38924761605E+03 -0.11097213939E+03  0.56859286746E+03  0.39907445342E+03 0.  0.
    9000005    1    3    3    0    0 -0.19000412680E+02 -0.23496357539E+03 -0.26037677263E+03  0.35123490880E+03  0.99999687468E+00 0.  0.
          4    1    3    3  501    0  0.33454036553E+02 -0.15428404065E+03  0.14940463324E+03  0.21735795866E+03  0.00000000000E+00 0.  1.
   -9000007    1    1    2    0  503 -0.14453623872E+02  0.38924761605E+03 -0.44048568476E+03  0.71116119995E+03  0.40000000000E+03 0.  1.
<mgrwt>
<rscale>  2 0.55815549E+03</rscale>
<asrwt>0</asrwt>
<pdfrwt beam="1">  1       21 0.56022788E-01 0.55832125E+03</pdfrwt>
<pdfrwt beam="2">  1       21 0.14086245E+00 0.55832125E+03</pdfrwt>
<totfact> 0.85557580E+02</totfact>
</mgrwt>
</event>
<event>
 6    1  0.9094387E-004  0.4456487E+03  0.7818608E-02  0.1029047E+00
         21   -1    0    0  501  502  0.00000000000E+00  0.00000000000E+00  0.74983331842E+03  0.74983331842E+03  0.00000000000E+00 0.  1.
         21   -1    0    0  502  503 -0.00000000000E+00 -0.00000000000E+00 -0.27444911809E+03  0.27444911809E+03  0.00000000000E+00 0.  1.
    9000007    2    1    2  501    0 -0.19345950972E+03 -0.34295092648E+02  0.33411534528E+03  0.55677882723E+03  0.39970847279E+03 0.  0.
    9000005    1    3    3    0    0 -0.18837303109E+02  0.15353521887E+03  0.23602045437E+03  0.28219596435E+03  0.99999687468E+00 0.  0.
          4    1    3    3  501    0 -0.17462220661E+03 -0.18783031151E+03  0.98094890918E+02  0.27458286288E+03  0.00000000000E+00 0.  1.
   -9000007    1    1    2    0  503  0.19345950972E+03  0.34295092648E+02  0.14126885504E+03  0.46750360927E+03  0.40000000000E+03 0.  1.
<mgrwt>
<rscale>  2 0.44558324E+03</rscale>
<asrwt>0</asrwt>
<pdfrwt beam="1">  1       21 0.11535897E+00 0.44564867E+03</pdfrwt>
<pdfrwt beam="2">  1       21 0.42222942E-01 0.44564867E+03</pdfrwt>
<totfact> 0.27250348E+03</totfact>
</mgrwt>
</event>
<event>
 6    1  0.9094387E-004  0.4400584E+03  0.7818608E-02  0.1030741E+00
         21   -1    0    0  501  502  0.00000000000E+00  0.00000000000E+00  0.72941420998E+03  0.72941420998E+03  0.00000000000E+00 0.  1.
         21   -1    0    0  502  503 -0.00000000000E+00 -0.00000000000E+00 -0.36211790872E+03  0.36211790872E+03  0.00000000000E+00 0. -1.
    9000007    2    1    2  501    0  0.11027979440E+03  0.14612630980E+03  0.46573486464E+03  0.64074981843E+03  0.40017100621E+03 0.  0.
    9000005    1    3    3    0    0 -0.54087833399E+02  0.14516351994E+03  0.44965720495E+03  0.47559493605E+03  0.99999687468E+00 0.  0.
          4    1    3    3  501    0  0.16436762780E+03  0.96278986338E+00  0.16077659694E+02  0.16515488238E+03  0.00000000000E+00 0.  1.
   -9000007    1    1    2    0  503 -0.11027979440E+03 -0.14612630980E+03 -0.98438563375E+02  0.45078230026E+03  0.40000000000E+03 0. -1.
<mgrwt>
<rscale>  2 0.44001949E+03</rscale>
<asrwt>0</asrwt>
<pdfrwt beam="1">  1       21 0.11221757E+00 0.44005837E+03</pdfrwt>
<pdfrwt beam="2">  1       21 0.55710448E-01 0.44005837E+03</pdfrwt>
<totfact> 0.16266505E+03</totfact>
</mgrwt>
</event>
<event>
 6    1  0.9094387E-004  0.4206463E+03  0.7818608E-02  0.1036878E+00
         21   -1    0    0  501  502  0.00000000000E+00  0.00000000000E+00  0.26205528273E+03  0.26205528273E+03  0.00000000000E+00 0. -1.
         21   -1    0    0  502  503 -0.00000000000E+00 -0.00000000000E+00 -0.68356613236E+03  0.68356613236E+03  0.00000000000E+00 0. -1.
    9000007    2    1    2  501    0  0.12048776698E+03 -0.46866204588E+02 -0.26444018327E+03  0.49686208387E+03  0.40028686805E+03 0.  0.
    9000005    1    3    3    0    0 -0.53604703364E+02 -0.14305460238E+03  0.15392524163E+02  0.15354482498E+03  0.99999687468E+00 0.  0.
          4    1    3    3  501    0  0.17409247034E+03  0.96188397791E+02 -0.27983270744E+03  0.34331725889E+03  0.00000000000E+00 0.  1.
   -9000007    1    1    2    0  503 -0.12048776698E+03  0.46866204588E+02 -0.15707066636E+03  0.44875933122E+03  0.40000000000E+03 0. -1.
<mgrwt>
<rscale>  2 0.42057805E+03</rscale>
<asrwt>0</asrwt>
<pdfrwt beam="1">  1       21 0.40316198E-01 0.42064631E+03</pdfrwt>
<pdfrwt beam="2">  1       21 0.10516402E+00 0.42064631E+03</pdfrwt>
<totfact> 0.38065228E+03</totfact>
</mgrwt>
</event>
<event>
 6    1  0.9094387E-004  0.4292372E+03  0.7818608E-02  0.1034244E+00
         21   -1    0    0  501  502  0.00000000000E+00  0.00000000000E+00  0.17010121279E+04  0.17010121279E+04  0.00000000000E+00 0. -1.
         21   -1    0    0  502  503 -0.00000000000E+00 -0.00000000000E+00 -0.31148592839E+03  0.31148592839E+03  0.00000000000E+00 0.  1.
    9000007    2    1    2  501    0 -0.51885561756E+01  0.15562034690E+03  0.15078387934E+04  0.15672537600E+04  0.39807274170E+03 0.  0.
    9000005    1    3    3    0    0  0.11672213088E+03 -0.55009611393E+01  0.11531420383E+04  0.11590478320E+04  0.99999687468E+00 0.  0.
          4    1    3    3  501    0 -0.12191068705E+03  0.16112130804E+03  0.35469675515E+03  0.40820592798E+03  0.00000000000E+00 0.  1.
   -9000007    1    1    2    0  503  0.51885561756E+01 -0.15562034690E+03 -0.11831259395E+03  0.44524429628E+03  0.40000000000E+03 0.  1.
<mgrwt>
<rscale>  2 0.42878769E+03</rscale>
<asrwt>0</asrwt>
<pdfrwt beam="1">  1       21 0.26169417E+00 0.42923725E+03</pdfrwt>
<pdfrwt beam="2">  1       21 0.47920913E-01 0.42923725E+03</pdfrwt>
<totfact> 0.18965325E+02</totfact>
</mgrwt>
</event>
<event>
 6    1  0.9094387E-004  0.4069353E+03  0.7818608E-02  0.1041416E+00
         21   -1    0    0  501  502  0.00000000000E+00  0.00000000000E+00  0.56467492779E+03  0.56467492779E+03  0.00000000000E+00 0.  1.
         21   -1    0    0  502  503 -0.00000000000E+00 -0.00000000000E+00 -0.93213814221E+03  0.93213814221E+03  0.00000000000E+00 0.  1.
    9000007    2    1    2  501    0 -0.19125881757E+02 -0.72322424097E+02  0.43592112814E+03  0.59624506356E+03  0.39985574084E+03 0.  0.
    9000005    1    3    3    0    0 -0.19521707636E+02  0.98210754115E+02 -0.26329629608E+02  0.10354080684E+03  0.99999687468E+00 0.  0.
          4    1    3    3  501    0  0.39582587942E+00 -0.17053317821E+03  0.46225075774E+03  0.49270425671E+03  0.00000000000E+00 0.  1.
   -9000007    1    1    2    0  503  0.19125881757E+02  0.72322424097E+02 -0.80338434255E+03  0.90056800645E+03  0.40000000000E+03 0.  1.
<mgrwt>
<rscale>  2 0.40689984E+03</rscale>
<asrwt>0</asrwt>
<pdfrwt beam="1">  1       21 0.86873066E-01 0.40693529E+03</pdfrwt>
<pdfrwt beam="2">  1       21 0.14340587E+00 0.40693529E+03</pdfrwt>
<totfact> 0.32342068E+02</totfact>
</mgrwt>
</event>
<event>
 6    1  0.9094387E-004  0.4709465E+03  0.7818608E-02  0.1021775E+00
         21   -1    0    0  501  502  0.00000000000E+00  0.00000000000E+00  0.18773031960E+03  0.18773031960E+03  0.00000000000E+00 0. -1.
         21   -1    0    0  502  503 -0.00000000000E+00 -0.00000000000E+00 -0.12073152569E+04  0.12073152569E+04  0.00000000000E+00 0. -1.
    9000007    2    1    2  501    0  0.23161192178E+03  0.80790370302E+02 -0.40038314135E+03  0.61814015731E+03  0.40201918854E+03 0.  0.
    9000005    1    3    3    0    0  0.17463284111E+03  0.23755113772E+03 -0.19467759650E+03  0.35330940944E+03  0.99999687468E+00 0.  0.
          4    1    3    3  501    0  0.56979080661E+02 -0.15676076741E+03 -0.20570554485E+03  0.26483074787E+03  0.00000000000E+00 0.  1.
   -9000007    1    1    2    0  503 -0.23161192178E+03 -0.80790370302E+02 -0.61920179592E+03  0.77690541916E+03  0.40000000000E+03 0. -1.
<mgrwt>
<rscale>  2 0.47051527E+03</rscale>
<asrwt>0</asrwt>
<pdfrwt beam="1">  1       21 0.28881588E-01 0.47094649E+03</pdfrwt>
<pdfrwt beam="2">  1       21 0.18574081E+00 0.47094649E+03</pdfrwt>
<totfact> 0.16005324E+03</totfact>
</mgrwt>
</event>
<event>
 6    1  0.9094387E-004  0.4205543E+03  0.7818608E-02  0.1038106E+00
         21   -1    0    0  501  502  0.00000000000E+00  0.00000000000E+00  0.86039536902E+03  0.86039536902E+03  0.00000000000E+00 0.  1.
         21   -1    0    0  502  503 -0.00000000000E+00 -0.00000000000E+00 -0.20588421740E+03  0.20588421740E+03  0.00000000000E+00 0.  1.
    9000007    2    1    2  501    0  0.87213135262E+01  0.67945123405E+02  0.23142269085E+03  0.48002328860E+03  0.41493769972E+03 0.  0.
    9000005    1    3    3    0    0 -0.20297888076E+03  0.28993853699E+02  0.12132129371E+03  0.23824551599E+03  0.99999687468E+00 0.  0.
          4    1    3    3  501    0  0.21170019429E+03  0.38951269707E+02  0.11010139715E+03  0.24177777261E+03  0.00000000000E+00 0.  1.
   -9000007    1    1    2    0  503 -0.87213135262E+01 -0.67945123405E+02  0.42308846077E+03  0.58625629783E+03  0.40000000000E+03 0.  1.
<mgrwt>
<rscale>  2 0.41682216E+03</rscale>
<asrwt>0</asrwt>
<pdfrwt beam="1">  1       21 0.13236852E+00 0.42055427E+03</pdfrwt>
<pdfrwt beam="2">  1       21 0.31674496E-01 0.42055427E+03</pdfrwt>
<totfact> 0.34728496E+03</totfact>
</mgrwt>
</event>
<event>
 6    1  0.9094387E-004  0.4372084E+03  0.7818608E-02  0.1031616E+00
         21   -1    0    0  501  502  0.00000000000E+00  0.00000000000E+00  0.27716893631E+03  0.27716893631E+03  0.00000000000E+00 0. -1.
         21   -1    0    0  502  503 -0.00000000000E+00 -0.00000000000E+00 -0.72998202561E+03  0.72998202561E+03  0.00000000000E+00 0. -1.
    9000007    2    1    2  501    0  0.40645017731E+02 -0.17145406931E+03 -0.10780451758E+03  0.45030320004E+03  0.40012828269E+03 0.  0.
    9000005    1    3    3    0    0  0.31859433919E+02  0.10575886189E+03  0.60438336659E+02  0.12591168703E+03  0.99999687468E+00 0.  0.
          4    1    3    3  501    0  0.87855838119E+01 -0.27721293120E+03 -0.16824285424E+03  0.32439151301E+03  0.00000000000E+00 0.  1.
   -9000007    1    1    2    0  503 -0.40645017731E+02  0.17145406931E+03 -0.34500857172E+03  0.55684776188E+03  0.40000000000E+03 0. -1.
<mgrwt>
<rscale>  2 0.43717902E+03</rscale>
<asrwt>0</asrwt>
<pdfrwt beam="1">  1       21 0.42641376E-01 0.43720837E+03</pdfrwt>
<pdfrwt beam="2">  1       21 0.11230492E+00 0.43720837E+03</pdfrwt>
<totfact> 0.28636090E+03</totfact>
</mgrwt>
</event>
<event>
 6    1  0.9094387E-004  0.4704986E+03  0.7818608E-02  0.1021870E+00
         21   -1    0    0  501  502  0.00000000000E+00  0.00000000000E+00  0.50621582212E+03  0.50621582212E+03  0.00000000000E+00 0.  1.
         21   -1    0    0  502  503 -0.00000000000E+00 -0.00000000000E+00 -0.47544239664E+03  0.47544239664E+03  0.00000000000E+00 0. -1.
    9000007    2    1    2  501    0 -0.14183597298E+03 -0.20310468088E+03  0.15654422997E+03  0.49463948207E+03  0.39848860292E+03 0.  0.
    9000005    1    3    3    0    0 -0.17072529603E+03  0.75965068483E+02  0.41568775754E+02  0.19143349092E+03  0.99999687468E+00 0.  0.
          4    1    3    3  501    0  0.28889323052E+02 -0.27906974936E+03  0.11497545421E+03  0.30320599115E+03  0.00000000000E+00 0.  1.
   -9000007    1    1    2    0  503  0.14183597298E+03  0.20310468088E+03 -0.12577080449E+03  0.48701873669E+03  0.40000000000E+03 0. -1.
<mgrwt>
<rscale>  2 0.47017723E+03</rscale>
<asrwt>0</asrwt>
<pdfrwt beam="1">  1       21 0.77879357E-01 0.47049862E+03</pdfrwt>
<pdfrwt beam="2">  1       21 0.73144984E-01 0.47049862E+03</pdfrwt>
<totfact> 0.21080608E+03</totfact>
</mgrwt>
</event>
<event>
 6    1  0.9094387E-004  0.6540855E+03  0.7818608E-02  0.9799317E-01
         21   -1    0    0  501  502  0.00000000000E+00  0.00000000000E+00  0.64101276442E+03  0.64101276442E+03  0.00000000000E+00 0. -1.
         21   -1    0    0  502  503 -0.00000000000E+00 -0.00000000000E+00 -0.67096733810E+03  0.67096733810E+03  0.00000000000E+00 0.  1.
    9000007    2    1    2  501    0 -0.38389716142E+03  0.34706018820E+03  0.35191942728E+02  0.65465835986E+03  0.39938864596E+03 0.  0.
    9000005    1    3    3    0    0 -0.28960642836E+03  0.42616616577E+03  0.84366938735E+02  0.52211901378E+03  0.99999687468E+00 0.  0.
          4    1    3    3  501    0 -0.94290733056E+02 -0.79105977577E+02 -0.49174996007E+02  0.13253934609E+03  0.00000000000E+00 0.  1.
   -9000007    1    1    2    0  503  0.38389716142E+03 -0.34706018820E+03 -0.65146516404E+02  0.65732174266E+03  0.40000000000E+03 0.  1.
<mgrwt>
<rscale>  2 0.65399203E+03</rscale>
<asrwt>0</asrwt>
<pdfrwt beam="1">  1       21 0.98617349E-01 0.65408547E+03</pdfrwt>
<pdfrwt beam="2">  1       21 0.10322574E+00 0.65408547E+03</pdfrwt>
<totfact> 0.50255858E+02</totfact>
</mgrwt>
</event>
<event>
 6    1  0.9094387E-004  0.5018026E+03  0.7818608E-02  0.1013319E+00
         21   -1    0    0  501  502  0.00000000000E+00  0.00000000000E+00  0.36646375042E+03  0.36646375042E+03  0.00000000000E+00 0.  1.
         21   -1    0    0  502  503 -0.00000000000E+00 -0.00000000000E+00 -0.15158665760E+04  0.15158665760E+04  0.00000000000E+00 0.  1.
    9000007    2    1    2  501    0  0.25705062500E+03  0.16040827201E+03  0.12131356928E+03  0.51612170629E+03  0.39982345613E+03 0.  0.
    9000005    1    3    3    0    0  0.13484295740E+03 -0.10444881027E+03  0.14444851615E+03  0.22351409562E+03  0.99999687468E+00 0.  0.
          4    1    3    3  501    0  0.12220766760E+03  0.26485708228E+03 -0.23134946873E+02  0.29260761067E+03  0.00000000000E+00 0.  1.
   -9000007    1    1    2    0  503 -0.25705062500E+03 -0.16040827201E+03 -0.12707163948E+04  0.13662086201E+04  0.40000000000E+03 0.  1.
<mgrwt>
<rscale>  2 0.50176741E+03</rscale>
<asrwt>0</asrwt>
<pdfrwt beam="1">  1       21 0.56379039E-01 0.50180259E+03</pdfrwt>
<pdfrwt beam="2">  1       21 0.23321024E+00 0.50180259E+03</pdfrwt>
<totfact> 0.19277329E+02</totfact>
</mgrwt>
</event>
<event>
 6    1  0.9094387E-004  0.4246423E+03  0.7818608E-02  0.1036160E+00
         21   -1    0    0  501  502  0.00000000000E+00  0.00000000000E+00  0.14091067922E+03  0.14091067922E+03  0.00000000000E+00 0.  1.
         21   -1    0    0  502  503 -0.00000000000E+00 -0.00000000000E+00 -0.13800925921E+04  0.13800925921E+04  0.00000000000E+00 0.  1.
    9000007    2    1    2  501    0 -0.10846603036E+03 -0.48738153995E+02 -0.39800474981E+03  0.58200417278E+03  0.40765277978E+03 0.  0.
    9000005    1    3    3    0    0  0.21222181965E+02  0.16936154582E+03 -0.16903777180E+03  0.24022589890E+03  0.99999687468E+00 0.  0.
          4    1    3    3  501    0 -0.12968821233E+03 -0.21809969982E+03 -0.22896697801E+03  0.34177827388E+03  0.00000000000E+00 0.  1.
   -9000007    1    1    2    0  503  0.10846603036E+03  0.48738153995E+02 -0.84117716308E+03  0.93899909856E+03  0.40000000000E+03 0.  1.
<mgrwt>
<rscale>  2 0.42279500E+03</rscale>
<asrwt>0</asrwt>
<pdfrwt beam="1">  1       21 0.21678565E-01 0.42464229E+03</pdfrwt>
<pdfrwt beam="2">  1       21 0.21232194E+00 0.42464229E+03</pdfrwt>
<totfact> 0.18955155E+03</totfact>
</mgrwt>
</event>
<event>
 6    1  0.9094387E-004  0.4362198E+03  0.7818608E-02  0.1032301E+00
         21   -1    0    0  501  502  0.00000000000E+00  0.00000000000E+00  0.78340355643E+03  0.78340355643E+03  0.00000000000E+00 0.  1.
         21   -1    0    0  502  503 -0.00000000000E+00 -0.00000000000E+00 -0.24221613724E+03  0.24221613724E+03  0.00000000000E+00 0.  1.
    9000007    2    1    2  501    0  0.17340424721E+03  0.14789267343E+02  0.22158884696E+03  0.48485079409E+03  0.39457688738E+03 0.  0.
    9000005    1    3    3    0    0  0.66567147294E+02 -0.16949110619E+03  0.20042068138E+03  0.27079119206E+03  0.99999687468E+00 0.  0.
          4    1    3    3  501    0  0.10683709991E+03  0.18428037353E+03  0.21168165578E+02  0.21405960203E+03  0.00000000000E+00 0.  1.
   -9000007    1    1    2    0  503 -0.17340424721E+03 -0.14789267343E+02  0.31959857223E+03  0.54076889958E+03  0.40000000000E+03 0. -1.
<mgrwt>
<rscale>  2 0.43497266E+03</rscale>
<asrwt>0</asrwt>
<pdfrwt beam="1">  1       21 0.12052362E+00 0.43621985E+03</pdfrwt>
<pdfrwt beam="2">  1       21 0.37264021E-01 0.43621985E+03</pdfrwt>
<totfact> 0.31661088E+03</totfact>
</mgrwt>
</event>
<event>
 6    1  0.9094387E-004  0.5368557E+03  0.7818608E-02  0.1004591E+00
         21   -1    0    0  501  502  0.00000000000E+00  0.00000000000E+00  0.57144680545E+03  0.57144680545E+03  0.00000000000E+00 0.  1.
         21   -1    0    0  502  503 -0.00000000000E+00 -0.00000000000E+00 -0.12487731805E+04  0.12487731805E+04  0.00000000000E+00 0. -1.
    9000007    2    1    2  501    0  0.31849557111E+03  0.16320899520E+03  0.36406043529E+03  0.64865560714E+03  0.40017182710E+03 0.  0.
    9000005    1    3    3    0    0  0.18317534084E+03  0.51411847309E+01 -0.45900335365E+02  0.18891129679E+03  0.99999687468E+00 0.  0.
          4    1    3    3  501    0  0.13532023026E+03  0.15806781047E+03  0.40996077066E+03  0.45974431036E+03  0.00000000000E+00 0.  1.
   -9000007    1    1    2    0  503 -0.31849557111E+03 -0.16320899520E+03 -0.10413868103E+04  0.11715643788E+04  0.40000000000E+03 0. -1.
<mgrwt>
<rscale>  2 0.53682373E+03</rscale>
<asrwt>0</asrwt>
<pdfrwt beam="1">  1       21 0.87914893E-01 0.53685575E+03</pdfrwt>
<pdfrwt beam="2">  1       21 0.19211895E+00 0.53685575E+03</pdfrwt>
<totfact> 0.12874067E+02</totfact>
</mgrwt>
</event>
<event>
 6    1  0.9094387E-004  0.4981188E+03  0.7818608E-02  0.1014576E+00
         21   -1    0    0  501  502  0.00000000000E+00  0.00000000000E+00  0.28196326416E+03  0.28196326416E+03  0.00000000000E+00 0.  1.
         21   -1    0    0  502  503 -0.00000000000E+00 -0.00000000000E+00 -0.12505543868E+04  0.12505543868E+04  0.00000000000E+00 0.  1.
    9000007    2    1    2  501    0  0.28899529346E+03 -0.30492332471E+01 -0.64184976591E+02  0.50223708021E+03  0.40570284205E+03 0.  0.
    9000005    1    3    3    0    0  0.14018163020E+03  0.17585574092E+03 -0.13082359293E+03  0.26017675438E+03  0.99999687468E+00 0.  0.
          4    1    3    3  501    0  0.14881366326E+03 -0.17890497416E+03  0.66638616337E+02  0.24206032583E+03  0.00000000000E+00 0.  1.
   -9000007    1    1    2    0  503 -0.28899529346E+03  0.30492332471E+01 -0.90440614601E+03  0.10302805707E+04  0.40000000000E+03 0.  1.
<mgrwt>
<rscale>  2 0.49695635E+03</rscale>
<asrwt>0</asrwt>
<pdfrwt beam="1">  1       21 0.43378965E-01 0.49811883E+03</pdfrwt>
<pdfrwt beam="2">  1       21 0.19239298E+00 0.49811883E+03</pdfrwt>
<totfact> 0.62328213E+02</totfact>
</mgrwt>
</event>
<event>
 6    1  0.9094387E-004  0.4137249E+03  0.7818608E-02  0.1039224E+00
         21   -1    0    0  501  502  0.00000000000E+00  0.00000000000E+00  0.16580356066E+03  0.16580356066E+03  0.00000000000E+00 0.  1.
         21   -1    0    0  502  503 -0.00000000000E+00 -0.00000000000E+00 -0.16233964446E+04  0.16233964446E+04  0.00000000000E+00 0.  1.
    9000007    2    1    2  501    0  0.10492777549E+03 -0.12588459185E+02 -0.18704077523E+03  0.45298483982E+03  0.39880158743E+03 0.  0.
    9000005    1    3    3    0    0 -0.44764084803E+02 -0.13604011143E+03 -0.21357324816E+03  0.25714833760E+03  0.99999687468E+00 0.  0.
          4    1    3    3  501    0  0.14969186029E+03  0.12345165225E+03  0.26532472938E+02  0.19583650222E+03  0.00000000000E+00 0.  1.
   -9000007    1    1    2    0  503 -0.10492777549E+03  0.12588459185E+02 -0.12705521087E+04  0.13362151654E+04  0.40000000000E+03 0.  1.
<mgrwt>
<rscale>  2 0.41343498E+03</rscale>
<asrwt>0</asrwt>
<pdfrwt beam="1">  1       21 0.25508240E-01 0.41372492E+03</pdfrwt>
<pdfrwt beam="2">  1       21 0.24975330E+00 0.41372492E+03</pdfrwt>
<totfact> 0.81067512E+02</totfact>
</mgrwt>
</event>
<event>
 6    1  0.9094387E-004  0.5688973E+03  0.7818608E-02  0.9972533E-01
         21   -1    0    0  501  502  0.00000000000E+00  0.00000000000E+00  0.22660943914E+03  0.22660943914E+03  0.00000000000E+00 0.  1.
         21   -1    0    0  502  503 -0.00000000000E+00 -0.00000000000E+00 -0.15696229625E+04  0.15696229625E+04  0.00000000000E+00 0. -1.
    9000007    2    1    2  501    0 -0.36421585915E+02  0.40288661462E+03 -0.39975864006E+03  0.69469986421E+03  0.39894457619E+03 0.  0.
    9000005    1    3    3    0    0  0.17097939679E+03  0.24605977211E+03 -0.15388348071E+03  0.33683896925E+03  0.99999687468E+00 0.  0.
          4    1    3    3  501    0 -0.20740098270E+03  0.15682684251E+03 -0.24587515935E+03  0.35786089496E+03  0.00000000000E+00 0.  1.
   -9000007    1    1    2    0  503  0.36421585915E+02 -0.40288661462E+03 -0.94325488331E+03  0.11015325374E+04  0.40000000000E+03 0.  1.
<mgrwt>
<rscale>  2 0.56871183E+03</rscale>
<asrwt>0</asrwt>
<pdfrwt beam="1">  1       21 0.34862991E-01 0.56889732E+03</pdfrwt>
<pdfrwt beam="2">  1       21 0.24148045E+00 0.56889732E+03</pdfrwt>
<totfact> 0.45528793E+02</totfact>
</mgrwt>
</event>
<event>
 6    1  0.9094387E-004  0.4007355E+03  0.7818608E-02  0.1043688E+00
         21   -1    0    0  501  502  0.00000000000E+00  0.00000000000E+00  0.49159185840E+03  0.49159185840E+03  0.00000000000E+00 0. -1.
         21   -1    0    0  502  503 -0.00000000000E+00 -0.00000000000E+00 -0.56278188434E+03  0.56278188434E+03  0.00000000000E+00 0. -1.
    9000007    2    1    2  501    0 -0.11831697400E+01 -0.24239550962E+02  0.30702890101E+03  0.50333970348E+03  0.39811450027E+03 0.  0.
    9000005    1    3    3    0    0 -0.11556932920E+03  0.32119926709E+02 -0.45626072570E+02  0.12833821736E+03  0.99999687468E+00 0.  0.
          4    1    3    3  501    0  0.11438615946E+03 -0.56359477671E+02  0.35265497358E+03  0.37500148611E+03  0.00000000000E+00 0.  1.
   -9000007    1    1    2    0  503  0.11831697400E+01  0.24239550962E+02 -0.37821892695E+03  0.55103403926E+03  0.40000000000E+03 0. -1.
<mgrwt>
<rscale>  2 0.40026418E+03</rscale>
<asrwt>0</asrwt>
<pdfrwt beam="1">  1       21 0.75629517E-01 0.40073552E+03</pdfrwt>
<pdfrwt beam="2">  1       21 0.86581828E-01 0.40073552E+03</pdfrwt>
<totfact> 0.15704986E+03</totfact>
</mgrwt>
</event>
<event>
 6    1  0.9094387E-004  0.5034585E+03  0.7818608E-02  0.1012925E+00
         21   -1    0    0  501  502  0.00000000000E+00  0.00000000000E+00  0.33875427467E+03  0.33875427467E+03  0.00000000000E+00 0. -1.
         21   -1    0    0  502  503 -0.00000000000E+00 -0.00000000000E+00 -0.10942825735E+04  0.10942825735E+04  0.00000000000E+00 0. -1.
    9000007    2    1    2  501    0 -0.49845181309E+02  0.30047843880E+03  0.25584195589E+02  0.50410813013E+03  0.40087232570E+03 0.  0.
    9000005    1    3    3    0    0  0.75665452570E+02  0.35197580588E+03 -0.21099042876E+02  0.36063610224E+03  0.99999687468E+00 0.  0.
          4    1    3    3  501    0 -0.12551063388E+03 -0.51497367077E+02  0.46683238465E+02  0.14347202789E+03  0.00000000000E+00 0.  1.
   -9000007    1    1    2    0  503  0.49845181309E+02 -0.30047843880E+03 -0.78111249444E+03  0.92892871807E+03  0.40000000000E+03 0. -1.
<mgrwt>
<rscale>  2 0.50328483E+03</rscale>
<asrwt>0</asrwt>
<pdfrwt beam="1">  1       21 0.52116042E-01 0.50345849E+03</pdfrwt>
<pdfrwt beam="2">  1       21 0.16835117E+00 0.50345849E+03</pdfrwt>
<totfact> 0.62390777E+02</totfact>
</mgrwt>
</event>
<event>
 6    1  0.9094387E-004  0.5327841E+03  0.7818608E-02  0.1005575E+00
         21   -1    0    0  501  502  0.00000000000E+00  0.00000000000E+00  0.18005878050E+04  0.18005878050E+04  0.00000000000E+00 0.  1.
         21   -1    0    0  502  503 -0.00000000000E+00 -0.00000000000E+00 -0.19877372953E+03  0.19877372953E+03  0.00000000000E+00 0.  1.
    9000007    2    1    2  501    0 -0.35144985138E+03 -0.18491730761E+02  0.12558929866E+04  0.13641290244E+04  0.39965217306E+03 0.  0.
    9000005    1    3    3    0    0  0.52456361792E+01  0.68595622379E+02  0.66430690586E+03  0.66786042050E+03  0.99999687468E+00 0.  0.
          4    1    3    3  501    0 -0.35669548756E+03 -0.87087353140E+02  0.59158608072E+03  0.69626860394E+03  0.00000000000E+00 0.  1.
   -9000007    1    1    2    0  503  0.35144985138E+03  0.18491730761E+02  0.34592108890E+03  0.63523251010E+03  0.40000000000E+03 0.  1.
<mgrwt>
<rscale>  2 0.53271886E+03</rscale>
<asrwt>0</asrwt>
<pdfrwt beam="1">  1       21 0.27701350E+00 0.53278414E+03</pdfrwt>
<pdfrwt beam="2">  1       21 0.30580575E-01 0.53278414E+03</pdfrwt>
<totfact> 0.36398458E+02</totfact>
</mgrwt>
</event>
<event>
 6    1  0.9094387E-004  0.7107865E+03  0.7818608E-02  0.9698975E-01
         21   -1    0    0  501  502  0.00000000000E+00  0.00000000000E+00  0.66328858056E+03  0.66328858056E+03  0.00000000000E+00 0.  1.
         21   -1    0    0  502  503 -0.00000000000E+00 -0.00000000000E+00 -0.81621749860E+03  0.81621749860E+03  0.00000000000E+00 0. -1.
    9000007    2    1    2  501    0  0.37756717496E+03  0.45017820157E+03  0.11480598935E+03  0.71996716284E+03  0.39994364053E+03 0.  0.
    9000005    1    3    3    0    0  0.25509579545E+03  0.34879643280E+03 -0.10878774034E+03  0.44561035539E+03  0.99999687468E+00 0.  0.
          4    1    3    3  501    0  0.12247137950E+03  0.10138176877E+03  0.22359372969E+03  0.27435680744E+03  0.00000000000E+00 0.  1.
   -9000007    1    1    2    0  503 -0.37756717496E+03 -0.45017820157E+03 -0.26773490739E+03  0.75953891632E+03  0.40000000000E+03 0.  1.
<mgrwt>
<rscale>  2 0.71077853E+03</rscale>
<asrwt>0</asrwt>
<pdfrwt beam="1">  1       21 0.10204440E+00 0.71078646E+03</pdfrwt>
<pdfrwt beam="2">  1       21 0.12557192E+00 0.71078646E+03</pdfrwt>
<totfact> 0.27644656E+02</totfact>
</mgrwt>
</event>
<event>
 6    1  0.9094387E-004  0.4031536E+03  0.7818608E-02  0.1042785E+00
         21   -1    0    0  501  502  0.00000000000E+00  0.00000000000E+00  0.25052337339E+03  0.25052337339E+03  0.00000000000E+00 0. -1.
         21   -1    0    0  502  503 -0.00000000000E+00 -0.00000000000E+00 -0.71539142920E+03  0.71539142920E+03  0.00000000000E+00 0. -1.
    9000007    2    1    2  501    0  0.47009576945E+02 -0.17970341526E+02 -0.82886124017E+02  0.41053832693E+03  0.39892201597E+03 0.  0.
    9000005    1    3    3    0    0  0.13250100000E+03 -0.16401600689E+03  0.21115082307E+02  0.21190708391E+03  0.99999687468E+00 0.  0.
          4    1    3    3  501    0 -0.85491423059E+02  0.14604566536E+03 -0.10400120632E+03  0.19863124302E+03  0.00000000000E+00 0.  1.
   -9000007    1    1    2    0  503 -0.47009576945E+02  0.17970341526E+02 -0.38198193180E+03  0.55537647566E+03  0.40000000000E+03 0. -1.
<mgrwt>
<rscale>  2 0.40288596E+03</rscale>
<asrwt>0</asrwt>
<pdfrwt beam="1">  1       21 0.38542057E-01 0.40315361E+03</pdfrwt>
<pdfrwt beam="2">  1       21 0.11006022E+00 0.40315361E+03</pdfrwt>
<totfact> 0.37567097E+03</totfact>
</mgrwt>
</event>
<event>
 6    1  0.9094387E-004  0.4020597E+03  0.7818608E-02  0.1043073E+00
         21   -1    0    0  501  502  0.00000000000E+00  0.00000000000E+00  0.40387823903E+03  0.40387823903E+03  0.00000000000E+00 0.  1.
         21   -1    0    0  502  503 -0.00000000000E+00 -0.00000000000E+00 -0.40419379521E+03  0.40419379521E+03  0.00000000000E+00 0.  1.
    9000007    2    1    2  501    0  0.27651901866E+01 -0.40551059678E+02 -0.40334631884E+02  0.40402555037E+03  0.39994715664E+03 0.  0.
    9000005    1    3    3    0    0 -0.14340387313E+03  0.54989026284E+02  0.97184701492E+02  0.18175348701E+03  0.99999687468E+00 0.  0.
          4    1    3    3  501    0  0.14616906332E+03 -0.95540085961E+02 -0.13751933338E+03  0.22227206336E+03  0.00000000000E+00 0.  1.
   -9000007    1    1    2    0  503 -0.27651901866E+01  0.40551059678E+02  0.40019075702E+02  0.40404648388E+03  0.40000000000E+03 0.  1.
<mgrwt>
<rscale>  2 0.40204660E+03</rscale>
<asrwt>0</asrwt>
<pdfrwt beam="1">  1       21 0.62135113E-01 0.40205974E+03</pdfrwt>
<pdfrwt beam="2">  1       21 0.62183661E-01 0.40205974E+03</pdfrwt>
<totfact> 0.51612162E+03</totfact>
</mgrwt>
</event>
<event>
 6    1  0.9094387E-004  0.5757193E+03  0.7818608E-02  0.9957283E-01
         21   -1    0    0  501  502  0.00000000000E+00  0.00000000000E+00  0.12022124972E+04  0.12022124972E+04  0.00000000000E+00 0. -1.
         21   -1    0    0  502  503 -0.00000000000E+00 -0.00000000000E+00 -0.37805485589E+03  0.37805485589E+03  0.00000000000E+00 0. -1.
    9000007    2    1    2  501    0  0.37943892822E+03  0.16461200101E+03  0.72279046006E+00  0.57571971125E+03  0.40047678131E+03 0.  0.
    9000005    1    3    3    0    0  0.41161787834E+03  0.24659648457E+03  0.35235710238E+02  0.48112540906E+03  0.99999687468E+00 0.  0.
          4    1    3    3  501    0 -0.32178950119E+02 -0.81984483559E+02 -0.34512919778E+02  0.94594302190E+02  0.00000000000E+00 0.  1.
   -9000007    1    1    2    0  503 -0.37943892822E+03 -0.16461200101E+03  0.82343485082E+03  0.10045476418E+04  0.40000000000E+03 0. -1.
<mgrwt>
<rscale>  2 0.57563635E+03</rscale>
<asrwt>0</asrwt>
<pdfrwt beam="1">  1       21 0.18495577E+00 0.57571926E+03</pdfrwt>
<pdfrwt beam="2">  1       21 0.58162286E-01 0.57571926E+03</pdfrwt>
<totfact> 0.36333275E+02</totfact>
</mgrwt>
</event>
<event>
 6    1  0.9094387E-004  0.4840458E+03  0.7818608E-02  0.1018145E+00
         21   -1    0    0  501  502  0.00000000000E+00  0.00000000000E+00  0.10364868630E+04  0.10364868630E+04  0.00000000000E+00 0. -1.
         21   -1    0    0  502  503 -0.00000000000E+00 -0.00000000000E+00 -0.22545003911E+03  0.22545003911E+03  0.00000000000E+00 0. -1.
    9000007    2    1    2  501    0  0.25973463332E+03  0.72034925540E+02  0.42474010246E+03  0.64397552206E+03  0.40205622509E+03 0.  0.
    9000005    1    3    3    0    0  0.36686821400E+03  0.27416093401E+02  0.32841708618E+03  0.49315586898E+03  0.99999687468E+00 0.  0.
          4    1    3    3  501    0 -0.10713358068E+03  0.44618832139E+02  0.96323016281E+02  0.15081965308E+03  0.00000000000E+00 0.  1.
   -9000007    1    1    2    0  503 -0.25973463332E+03 -0.72034925540E+02  0.38629672145E+03  0.61796138006E+03  0.40000000000E+03 0. -1.
<mgrwt>
<rscale>  2 0.48361857E+03</rscale>
<asrwt>0</asrwt>
<pdfrwt beam="1">  1       21 0.15945951E+00 0.48404578E+03</pdfrwt>
<pdfrwt beam="2">  1       21 0.34684622E-01 0.48404578E+03</pdfrwt>
<totfact> 0.17108485E+03</totfact>
</mgrwt>
</event>
<event>
 6    1  0.9094387E-004  0.5124518E+03  0.7818608E-02  0.1010686E+00
         21   -1    0    0  501  502  0.00000000000E+00  0.00000000000E+00  0.18769436058E+04  0.18769436058E+04  0.00000000000E+00 0. -1.
         21   -1    0    0  502  503 -0.00000000000E+00 -0.00000000000E+00 -0.15486798699E+03  0.15486798699E+03  0.00000000000E+00 0.  1.
    9000007    2    1    2  501    0 -0.17045488163E+03  0.27120469062E+03  0.11802939530E+04  0.12860675185E+04  0.39783036061E+03 0.  0.
    9000005    1    3    3    0    0 -0.24181111557E+03  0.24163687827E+03  0.11554062438E+04  0.12049172523E+04  0.99999687468E+00 0.  0.
          4    1    3    3  501    0  0.71356233938E+02  0.29567812346E+02  0.24887709213E+02  0.81150266288E+02  0.00000000000E+00 0.  1.
   -9000007    1    1    2    0  503  0.17045488163E+03 -0.27120469062E+03  0.54178166575E+03  0.74574407421E+03  0.40000000000E+03 0.  1.
<mgrwt>
<rscale>  2 0.51202834E+03</rscale>
<asrwt>0</asrwt>
<pdfrwt beam="1">  1       21 0.28876054E+00 0.51245180E+03</pdfrwt>
<pdfrwt beam="2">  1       21 0.23825845E-01 0.51245180E+03</pdfrwt>
<totfact> 0.50985159E+02</totfact>
</mgrwt>
</event>
<event>
 6    1  0.9094387E-004  0.4140338E+03  0.7818608E-02  0.1039026E+00
         21   -1    0    0  501  502  0.00000000000E+00  0.00000000000E+00  0.36162469914E+03  0.36162469914E+03  0.00000000000E+00 0.  1.
         21   -1    0    0  502  503 -0.00000000000E+00 -0.00000000000E+00 -0.48001531163E+03  0.48001531163E+03  0.00000000000E+00 0.  1.
    9000007    2    1    2  501    0 -0.10164135980E+03 -0.33060683768E+02 -0.10616869273E+03  0.42742587513E+03  0.39999639071E+03 0.  0.
    9000005    1    3    3    0    0 -0.49660539086E+01  0.14489359058E+03  0.68164747472E+02  0.16020688835E+03  0.99999687468E+00 0.  0.
          4    1    3    3  501    0 -0.96675305888E+02 -0.17795427434E+03 -0.17433344021E+03  0.26721898679E+03  0.00000000000E+00 0.  1.
   -9000007    1    1    2    0  503  0.10164135980E+03  0.33060683768E+02 -0.12221919753E+02  0.41421413563E+03  0.40000000000E+03 0.  1.
<mgrwt>
<rscale>  2 0.41403291E+03</rscale>
<asrwt>0</asrwt>
<pdfrwt beam="1">  1       21 0.55634569E-01 0.41403378E+03</pdfrwt>
<pdfrwt beam="2">  1       21 0.73848510E-01 0.41403378E+03</pdfrwt>
<totfact> 0.44526571E+03</totfact>
</mgrwt>
</event>
<event>
 6    1  0.9094387E-004  0.5858899E+03  0.7818608E-02  0.9935179E-01
         21   -1    0    0  501  502  0.00000000000E+00  0.00000000000E+00  0.49294674403E+03  0.49294674403E+03  0.00000000000E+00 0. -1.
         21   -1    0    0  502  503 -0.00000000000E+00 -0.00000000000E+00 -0.11539696879E+04  0.11539696879E+04  0.00000000000E+00 0.  1.
    9000007    2    1    2  501    0  0.21945084501E+03 -0.36739519431E+03  0.18809717693E+03  0.61534341864E+03  0.40016130836E+03 0.  0.
    9000005    1    3    3    0    0  0.28080619409E+03 -0.34946673875E+03  0.26071015568E+03  0.51860380388E+03  0.99999687468E+00 0.  0.
          4    1    3    3  501    0 -0.61355349081E+02 -0.17928455560E+02 -0.72612978750E+02  0.96739614753E+02  0.00000000000E+00 0.  1.
   -9000007    1    1    2    0  503 -0.21945084501E+03  0.36739519431E+03 -0.84912012078E+03  0.10315730133E+04  0.40000000000E+03 0.  1.
<mgrwt>
<rscale>  2 0.58586236E+03</rscale>
<asrwt>0</asrwt>
<pdfrwt beam="1">  1       21 0.75837960E-01 0.58588990E+03</pdfrwt>
<pdfrwt beam="2">  1       21 0.17753380E+00 0.58588990E+03</pdfrwt>
<totfact> 0.22519636E+02</totfact>
</mgrwt>
</event>
<event>
 6    1  0.9094387E-004  0.4548258E+03  0.7818608E-02  0.1026839E+00
         21   -1    0    0  501  502  0.00000000000E+00  0.00000000000E+00  0.24557428967E+04  0.24557428967E+04  0.00000000000E+00 0.  1.
         21   -1    0    0  502  503 -0.00000000000E+00 -0.00000000000E+00 -0.84099582064E+02  0.84099582064E+02  0.00000000000E+00 0.  1.
    9000007    2    1    2  501    0  0.16535045751E+03 -0.13973438195E+03  0.10233425192E+04  0.11168943046E+04  0.39160759035E+03 0.  0.
    9000005    1    3    3    0    0  0.12631336667E+03  0.12149852873E+03  0.30844281823E+03  0.35476038560E+03  0.99999687468E+00 0.  0.
          4    1    3    3  501    0  0.39037090843E+02 -0.26123291068E+03  0.71489970098E+03  0.76213391903E+03  0.00000000000E+00 0.  1.
   -9000007    1    1    2    0  503 -0.16535045751E+03  0.13973438195E+03  0.13483007955E+04  0.14229481742E+04  0.40000000000E+03 0.  1.
<mgrwt>
<rscale>  2 0.45297374E+03</rscale>
<asrwt>0</asrwt>
<pdfrwt beam="1">  1       21 0.37780655E+00 0.45482576E+03</pdfrwt>
<pdfrwt beam="2">  1       21 0.12938399E-01 0.45482576E+03</pdfrwt>
<totfact> 0.47464525E+02</totfact>
</mgrwt>
</event>
<event>
 6    1  0.9094387E-004  0.7627669E+03  0.7818608E-02  0.9615588E-01
         21   -1    0    0  501  502  0.00000000000E+00  0.00000000000E+00  0.21585139577E+04  0.21585139577E+04  0.00000000000E+00 0.  1.
         21   -1    0    0  502  503 -0.00000000000E+00 -0.00000000000E+00 -0.63635021766E+03  0.63635021766E+03  0.00000000000E+00 0. -1.
    9000007    2    1    2  501    0  0.45513853357E+03 -0.46331664887E+03  0.18220914553E+04  0.19752483895E+04  0.39971931029E+03 0.  0.
    9000005    1    3    3    0    0  0.69259558358E+02 -0.35506708027E+03  0.84975740533E+03  0.92355734301E+03  0.99999687468E+00 0.  0.
          4    1    3    3  501    0  0.38587897521E+03 -0.10824956860E+03  0.97233404999E+03  0.10516910465E+04  0.00000000000E+00 0.  1.
   -9000007    1    1    2    0  503 -0.45513853357E+03  0.46331664887E+03 -0.29992771532E+03  0.81961578577E+03  0.40000000000E+03 0. -1.
<mgrwt>
<rscale>  2 0.76273015E+03</rscale>
<asrwt>0</asrwt>
<pdfrwt beam="1">  1       21 0.33207907E+00 0.76276694E+03</pdfrwt>
<pdfrwt beam="2">  1       21 0.97900035E-01 0.76276694E+03</pdfrwt>
<totfact> 0.11827606E+01</totfact>
</mgrwt>
</event>
<event>
 6    1  0.9094387E-004  0.6405113E+03  0.7818608E-02  0.9825263E-01
         21   -1    0    0  501  502  0.00000000000E+00  0.00000000000E+00  0.27420999126E+03  0.27420999126E+03  0.00000000000E+00 0.  1.
         21   -1    0    0  502  503 -0.00000000000E+00 -0.00000000000E+00 -0.15084116596E+04  0.15084116596E+04  0.00000000000E+00 0.  1.
    9000007    2    1    2  501    0 -0.38394642372E+03 -0.31853338540E+03 -0.70586893374E+03  0.95315564651E+03  0.40171676709E+03 0.  0.
    9000005    1    3    3    0    0 -0.14027476700E+03 -0.15839792782E+03 -0.61089287471E+03  0.64649672711E+03  0.99999687468E+00 0.  0.
          4    1    3    3  501    0 -0.24367165672E+03 -0.16013545758E+03 -0.94976059028E+02  0.30665891941E+03  0.00000000000E+00 0.  1.
   -9000007    1    1    2    0  503  0.38394642372E+03  0.31853338540E+03 -0.52833273455E+03  0.82946600431E+03  0.40000000000E+03 0.  1.
<mgrwt>
<rscale>  2 0.64024231E+03</rscale>
<asrwt>0</asrwt>
<pdfrwt beam="1">  1       21 0.42186152E-01 0.64051131E+03</pdfrwt>
<pdfrwt beam="2">  1       21 0.23206334E+00 0.64051131E+03</pdfrwt>
<totfact> 0.34293500E+02</totfact>
</mgrwt>
</event>
<event>
 6    1  0.9094387E-004  0.4250574E+03  0.7818608E-02  0.1035594E+00
         21   -1    0    0  501  502  0.00000000000E+00  0.00000000000E+00  0.56982279614E+03  0.56982279614E+03  0.00000000000E+00 0. -1.
         21   -1    0    0  502  503 -0.00000000000E+00 -0.00000000000E+00 -0.41829395234E+03  0.41829395234E+03  0.00000000000E+00 0. -1.
    9000007    2    1    2  501    0  0.14075540217E+03 -0.29354731152E+02  0.32045826859E+03  0.53072093078E+03  0.39786608423E+03 0.  0.
    9000005    1    3    3    0    0  0.20511570392E+03 -0.16670003309E+03  0.15565173406E+03  0.30674063203E+03  0.99999687468E+00 0.  0.
          4    1    3    3  501    0 -0.64360301749E+02  0.13734530194E+03  0.16480653454E+03  0.22398029876E+03  0.00000000000E+00 0.  1.
   -9000007    1    1    2    0  503 -0.14075540217E+03  0.29354731152E+02 -0.16892942480E+03  0.45739581769E+03  0.40000000000E+03 0. -1.
<mgrwt>
<rscale>  2 0.42455462E+03</rscale>
<asrwt>0</asrwt>
<pdfrwt beam="1">  1       21 0.87665046E-01 0.42505739E+03</pdfrwt>
<pdfrwt beam="2">  1       21 0.64352916E-01 0.42505739E+03</pdfrwt>
<totfact> 0.21701604E+03</totfact>
</mgrwt>
</event>
<event>
 6    1  0.9094387E-004  0.5706322E+03  0.7818608E-02  0.9968525E-01
         21   -1    0    0  501  502  0.00000000000E+00  0.00000000000E+00  0.60090556660E+03  0.60090556660E+03  0.00000000000E+00 0.  1.
         21   -1    0    0  502  503 -0.00000000000E+00 -0.00000000000E+00 -0.70062961670E+03  0.70062961670E+03  0.00000000000E+00 0. -1.
    9000007    2    1    2  501    0  0.34929244149E+03 -0.20884417232E+03  0.26032701004E+03  0.62680719078E+03  0.39936950842E+03 0.  0.
    9000005    1    3    3    0    0  0.18543628919E+03  0.20730727094E+02 -0.63746645593E+02  0.19718269501E+03  0.99999687468E+00 0.  0.
          4    1    3    3  501    0  0.16385615231E+03 -0.22957489942E+03  0.32407365563E+03  0.42962449577E+03  0.00000000000E+00 0.  1.
   -9000007    1    1    2    0  503 -0.34929244149E+03  0.20884417232E+03 -0.36005106013E+03  0.67472799253E+03  0.40000000000E+03 0. -1.
<mgrwt>
<rscale>  2 0.57052171E+03</rscale>
<asrwt>0</asrwt>
<pdfrwt beam="1">  1       21 0.92447010E-01 0.57063219E+03</pdfrwt>
<pdfrwt beam="2">  1       21 0.10778917E+00 0.57063219E+03</pdfrwt>
<totfact> 0.54203381E+02</totfact>
</mgrwt>
</event>
<event>
 6    1  0.9094387E-004  0.6606518E+03  0.7818608E-02  0.9790090E-01
         21   -1    0    0  501  502  0.00000000000E+00  0.00000000000E+00  0.12972217382E+04  0.12972217382E+04  0.00000000000E+00 0. -1.
         21   -1    0    0  502  503 -0.00000000000E+00 -0.00000000000E+00 -0.35522247113E+03  0.35522247113E+03  0.00000000000E+00 0.  1.
    9000007    2    1    2  501    0  0.25191215567E+03 -0.45188098252E+03  0.26685828961E+03  0.71251256501E+03  0.41085843307E+03 0.  0.
    9000005    1    3    3    0    0 -0.38007354331E+02 -0.25012086728E+03  0.25483761124E+03  0.35909360246E+03  0.99999687468E+00 0.  0.
          4    1    3    3  501    0  0.28991951000E+03 -0.20176011524E+03  0.12020678368E+02  0.35341896255E+03  0.00000000000E+00 0.  1.
   -9000007    1    1    2    0  503 -0.25191215567E+03  0.45188098252E+03  0.67514097744E+03  0.93993164430E+03  0.40000000000E+03 0.  1.
<mgrwt>
<rscale>  2 0.65897101E+03</rscale>
<asrwt>0</asrwt>
<pdfrwt beam="1">  1       21 0.19957257E+00 0.66065181E+03</pdfrwt>
<pdfrwt beam="2">  1       21 0.54649612E-01 0.66065181E+03</pdfrwt>
<totfact> 0.32026918E+02</totfact>
</mgrwt>
</event>
<event>
 6    1  0.9094387E-004  0.4461666E+03  0.7818608E-02  0.1028924E+00
         21   -1    0    0  501  502  0.00000000000E+00  0.00000000000E+00  0.49483783220E+03  0.49483783220E+03  0.00000000000E+00 0. -1.
         21   -1    0    0  502  503 -0.00000000000E+00 -0.00000000000E+00 -0.41710928667E+03  0.41710928667E+03  0.00000000000E+00 0.  1.
    9000007    2    1    2  501    0  0.18508746495E+02 -0.19518565637E+03  0.12667301956E+03  0.46380029507E+03  0.40078004650E+03 0.  0.
    9000005    1    3    3    0    0 -0.10720302938E+03 -0.26472577624E+03  0.22801010368E+02  0.28651895606E+03  0.99999687468E+00 0.  0.
          4    1    3    3  501    0  0.12571177588E+03  0.69540119873E+02  0.10387200919E+03  0.17728133900E+03  0.00000000000E+00 0.  1.
   -9000007    1    1    2    0  503 -0.18508746495E+02  0.19518565637E+03 -0.48944474035E+02  0.44814682381E+03  0.40000000000E+03 0.  1.
<mgrwt>
<rscale>  2 0.44599138E+03</rscale>
<asrwt>0</asrwt>
<pdfrwt beam="1">  1       21 0.76128897E-01 0.44616663E+03</pdfrwt>
<pdfrwt beam="2">  1       21 0.64170660E-01 0.44616663E+03</pdfrwt>
<totfact> 0.30052716E+03</totfact>
</mgrwt>
</event>
<event>
 6    1  0.9094387E-004  0.4649536E+03  0.7818608E-02  0.1023668E+00
         21   -1    0    0  501  502  0.00000000000E+00  0.00000000000E+00  0.11253082329E+04  0.11253082329E+04  0.00000000000E+00 0.  1.
         21   -1    0    0  502  503 -0.00000000000E+00 -0.00000000000E+00 -0.19550124806E+03  0.19550124806E+03  0.00000000000E+00 0.  1.
    9000007    2    1    2  501    0  0.23356432238E+03  0.40368313560E+02  0.57039474864E+03  0.73313691146E+03  0.39491476073E+03 0.  0.
    9000005    1    3    3    0    0  0.16976985710E+03  0.20132566258E+03  0.22339434461E+03  0.34534020905E+03  0.99999687468E+00 0.  0.
          4    1    3    3  501    0  0.63794465276E+02 -0.16095734902E+03  0.34700040403E+03  0.38779670241E+03  0.00000000000E+00 0.  1.
   -9000007    1    1    2    0  503 -0.23356432238E+03 -0.40368313560E+02  0.35941223625E+03  0.58767256954E+03  0.40000000000E+03 0.  1.
<mgrwt>
<rscale>  2 0.46385789E+03</rscale>
<asrwt>0</asrwt>
<pdfrwt beam="1">  1       21 0.17312434E+00 0.46495365E+03</pdfrwt>
<pdfrwt beam="2">  1       21 0.30077116E-01 0.46495365E+03</pdfrwt>
<totfact> 0.18182017E+03</totfact>
</mgrwt>
</event>
<event>
 6    1  0.9094387E-004  0.6120748E+03  0.7818608E-02  0.9880754E-01
         21   -1    0    0  501  502  0.00000000000E+00  0.00000000000E+00  0.52664614639E+03  0.52664614639E+03  0.00000000000E+00 0.  1.
         21   -1    0    0  502  503 -0.00000000000E+00 -0.00000000000E+00 -0.72506961152E+03  0.72506961152E+03  0.00000000000E+00 0. -1.
    9000007    2    1    2  501    0  0.27864006089E+03 -0.37012866741E+03 -0.18587892675E+03  0.63951245883E+03  0.39973703309E+03 0.  0.
    9000005    1    3    3    0    0  0.17998358145E+03 -0.15360229279E+03 -0.29464020929E+03  0.37789099866E+03  0.99999687468E+00 0.  0.
          4    1    3    3  501    0  0.98656479438E+02 -0.21652637462E+03  0.10876128255E+03  0.26162146017E+03  0.00000000000E+00 0.  1.
   -9000007    1    1    2    0  503 -0.27864006089E+03  0.37012866741E+03 -0.12544538382E+02  0.61220329909E+03  0.40000000000E+03 0.  1.
<mgrwt>
<rscale>  2 0.61203180E+03</rscale>
<asrwt>0</asrwt>
<pdfrwt beam="1">  1       21 0.81022485E-01 0.61207476E+03</pdfrwt>
<pdfrwt beam="2">  1       21 0.11154917E+00 0.61207476E+03</pdfrwt>
<totfact> 0.67045635E+02</totfact>
</mgrwt>
</event>
<event>
 6    1  0.9094387E-004  0.4370233E+03  0.7818608E-02  0.1031666E+00
         21   -1    0    0  501  502  0.00000000000E+00  0.00000000000E+00  0.31974812921E+03  0.31974812921E+03  0.00000000000E+00 0. -1.
         21   -1    0    0  502  503 -0.00000000000E+00 -0.00000000000E+00 -0.15558292415E+04  0.15558292415E+04  0.00000000000E+00 0. -1.
    9000007    2    1    2  501    0 -0.26246793558E+02  0.17400093335E+03  0.11804474319E+03  0.45268522740E+03  0.40003016728E+03 0.  0.
    9000005    1    3    3    0    0 -0.95876753613E+02  0.28766715348E+03  0.91915906954E+02  0.31685055945E+03  0.99999687468E+00 0.  0.
          4    1    3    3  501    0  0.69629960056E+02 -0.11366622013E+03  0.26128836240E+02  0.13583466796E+03  0.00000000000E+00 0.  1.
   -9000007    1    1    2    0  503  0.26246793558E+02 -0.17400093335E+03 -0.13541258555E+04  0.14228921433E+04  0.40000000000E+03 0. -1.
<mgrwt>
<rscale>  2 0.43701638E+03</rscale>
<asrwt>0</asrwt>
<pdfrwt beam="1">  1       21 0.49192020E-01 0.43702329E+03</pdfrwt>
<pdfrwt beam="2">  1       21 0.23935834E+00 0.43702329E+03</pdfrwt>
<totfact> 0.24481526E+02</totfact>
</mgrwt>
</event>
<event>
 6    1  0.9094387E-004  0.7097447E+03  0.7818608E-02  0.9701144E-01
         21   -1    0    0  501  502  0.00000000000E+00  0.00000000000E+00  0.35208436092E+03  0.35208436092E+03  0.00000000000E+00 0. -1.
         21   -1    0    0  502  503 -0.00000000000E+00 -0.00000000000E+00 -0.14465688502E+04  0.14465688502E+04  0.00000000000E+00 0.  1.
    9000007    2    1    2  501    0 -0.45383725708E+03  0.37117277086E+03 -0.64693184906E+03  0.95958179132E+03  0.39816945533E+03 0.  0.
    9000005    1    3    3    0    0  0.57894736874E+02  0.10817135735E+03 -0.56181148880E+02  0.13494504286E+03  0.99999687468E+00 0.  0.
          4    1    3    3  501    0 -0.51173199396E+03  0.26300141351E+03 -0.59075070018E+03  0.82463674846E+03  0.00000000000E+00 0.  1.
   -9000007    1    1    2    0  503  0.45383725708E+03 -0.37117277086E+03 -0.44755264020E+03  0.83907141978E+03  0.40000000000E+03 0. -1.
<mgrwt>
<rscale>  2 0.70948701E+03</rscale>
<asrwt>0</asrwt>
<pdfrwt beam="1">  1       21 0.54166825E-01 0.70974466E+03</pdfrwt>
<pdfrwt beam="2">  1       21 0.22254905E+00 0.70974466E+03</pdfrwt>
<totfact> 0.22620069E+02</totfact>
</mgrwt>
</event>
<event>
 6    1  0.9094387E-004  0.4096792E+03  0.7818608E-02  0.1040488E+00
         21   -1    0    0  501  502  0.00000000000E+00  0.00000000000E+00  0.12740081381E+03  0.12740081381E+03  0.00000000000E+00 0.  1.
         21   -1    0    0  502  503 -0.00000000000E+00 -0.00000000000E+00 -0.17449070790E+04  0.17449070790E+04  0.00000000000E+00 0.  1.
    9000007    2    1    2  501    0 -0.71172475893E+02  0.52644999022E+02 -0.34510710692E+03  0.53558180448E+03  0.39988990585E+03 0.  0.
    9000005    1    3    3    0    0 -0.13375439649E+03 -0.14374372230E+03 -0.21814919592E+03  0.29350054165E+03  0.99999687468E+00 0.  0.
          4    1    3    3  501    0  0.62581920593E+02  0.19638872132E+03 -0.12695791100E+03  0.24208126283E+03  0.00000000000E+00 0.  1.
   -9000007    1    1    2    0  503  0.71172475893E+02 -0.52644999022E+02 -0.12723991583E+04  0.13367260883E+04  0.40000000000E+03 0.  1.
<mgrwt>
<rscale>  2 0.40965229E+03</rscale>
<asrwt>0</asrwt>
<pdfrwt beam="1">  1       21 0.19600127E-01 0.40967916E+03</pdfrwt>
<pdfrwt beam="2">  1       21 0.26844722E+00 0.40967916E+03</pdfrwt>
<totfact> 0.10377402E+03</totfact>
</mgrwt>
</event>
<event>
 6    1  0.9094387E-004  0.4882167E+03  0.7818608E-02  0.1016909E+00
         21   -1    0    0  501  502  0.00000000000E+00  0.00000000000E+00  0.40168322900E+03  0.40168322900E+03  0.00000000000E+00 0.  1.
         21   -1    0    0  502  503 -0.00000000000E+00 -0.00000000000E+00 -0.93695951877E+03  0.93695951877E+03  0.00000000000E+00 0.  1.
    9000007    2    1    2  501    0  0.21006807367E+03 -0.18500536816E+03  0.13776558443E+03  0.50717359846E+03  0.39986262754E+03 0.  0.
    9000005    1    3    3    0    0  0.22559617867E+03  0.67218208270E+02  0.65470778781E+02  0.24433449658E+03  0.99999687468E+00 0.  0.
          4    1    3    3  501    0 -0.15528105003E+02 -0.25222357643E+03  0.72294805653E+02  0.26283910188E+03  0.00000000000E+00 0.  1.
   -9000007    1    1    2    0  503 -0.21006807367E+03  0.18500536816E+03 -0.67304187421E+03  0.83146914931E+03  0.40000000000E+03 0.  1.
<mgrwt>
<rscale>  2 0.48818860E+03</rscale>
<asrwt>0</asrwt>
<pdfrwt beam="1">  1       21 0.61797420E-01 0.48821674E+03</pdfrwt>
<pdfrwt beam="2">  1       21 0.14414762E+00 0.48821674E+03</pdfrwt>
<totfact> 0.66573626E+02</totfact>
</mgrwt>
</event>
<event>
 6    1  0.9094387E-004  0.5075095E+03  0.7818608E-02  0.1012043E+00
         21   -1    0    0  501  502  0.00000000000E+00  0.00000000000E+00  0.17173465179E+03  0.17173465179E+03  0.00000000000E+00 0. -1.
         21   -1    0    0  502  503 -0.00000000000E+00 -0.00000000000E+00 -0.25748463569E+04  0.25748463569E+04  0.00000000000E+00 0.  1.
    9000007    2    1    2  501    0  0.93814373297E+02  0.29245804358E+03 -0.31250700209E+03  0.59600878991E+03  0.40402104821E+03 0.  0.
    9000005    1    3    3    0    0  0.18258400638E+03  0.34239154909E+03 -0.30560111804E+03  0.49392503036E+03  0.99999687468E+00 0.  0.
          4    1    3    3  501    0 -0.88769633078E+02 -0.49933505509E+02 -0.69058840535E+01  0.10208375955E+03  0.00000000000E+00 0.  1.
   -9000007    1    1    2    0  503 -0.93814373297E+02 -0.29245804358E+03 -0.20906047030E+04  0.21505722188E+04  0.40000000000E+03 0.  1.
<mgrwt>
<rscale>  2 0.50670876E+03</rscale>
<asrwt>0</asrwt>
<pdfrwt beam="1">  1       21 0.26420717E-01 0.50750946E+03</pdfrwt>
<pdfrwt beam="2">  1       21 0.39613019E+00 0.50750946E+03</pdfrwt>
<totfact> 0.90913168E+01</totfact>
</mgrwt>
</event>
<event>
 6    1  0.9094387E-004  0.5121751E+03  0.7818608E-02  0.1010720E+00
         21   -1    0    0  501  502  0.00000000000E+00  0.00000000000E+00  0.47907692300E+03  0.47907692300E+03  0.00000000000E+00 0. -1.
         21   -1    0    0  502  503 -0.00000000000E+00 -0.00000000000E+00 -0.91438319789E+03  0.91438319789E+03  0.00000000000E+00 0.  1.
    9000007    2    1    2  501    0  0.31975128197E+03  0.90817126145E+01  0.22450701951E+03  0.55818954000E+03  0.39855840341E+03 0.  0.
    9000005    1    3    3    0    0  0.28690374417E+03 -0.13324026145E+03  0.34035478148E+02  0.31816055610E+03  0.99999687468E+00 0.  0.
          4    1    3    3  501    0  0.32847537802E+02  0.14232197406E+03  0.19047154137E+03  0.24002898390E+03  0.00000000000E+00 0.  1.
   -9000007    1    1    2    0  503 -0.31975128197E+03 -0.90817126145E+01 -0.65981329440E+03  0.83527058089E+03  0.40000000000E+03 0.  1.
<mgrwt>
<rscale>  2 0.51189363E+03</rscale>
<asrwt>0</asrwt>
<pdfrwt beam="1">  1       21 0.73704142E-01 0.51217513E+03</pdfrwt>
<pdfrwt beam="2">  1       21 0.14067434E+00 0.51217513E+03</pdfrwt>
<totfact> 0.47414983E+02</totfact>
</mgrwt>
</event>
<event>
 6    1  0.9094387E-004  0.4154398E+03  0.7818608E-02  0.1038640E+00
         21   -1    0    0  501  502  0.00000000000E+00  0.00000000000E+00  0.47905882527E+03  0.47905882527E+03  0.00000000000E+00 0.  1.
         21   -1    0    0  502  503 -0.00000000000E+00 -0.00000000000E+00 -0.60344800302E+03  0.60344800302E+03  0.00000000000E+00 0. -1.
    9000007    2    1    2  501    0 -0.44097192947E+02  0.99245648848E+02  0.28194146899E+03  0.50207693957E+03  0.40099376562E+03 0.  0.
    9000005    1    3    3    0    0 -0.16846192358E+03  0.84183313853E+01  0.30285877414E+03  0.34666226369E+03  0.99999687468E+00 0.  0.
          4    1    3    3  501    0  0.12436473064E+03  0.90827317462E+02 -0.20917305146E+02  0.15541467588E+03  0.00000000000E+00 0.  1.
   -9000007    1    1    2    0  503  0.44097192947E+02 -0.99245648848E+02 -0.40633064674E+03  0.58042988872E+03  0.40000000000E+03 0. -1.
<mgrwt>
<rscale>  2 0.41519985E+03</rscale>
<asrwt>0</asrwt>
<pdfrwt beam="1">  1       21 0.73701358E-01 0.41543984E+03</pdfrwt>
<pdfrwt beam="2">  1       21 0.92838154E-01 0.41543984E+03</pdfrwt>
<totfact> 0.14035391E+03</totfact>
</mgrwt>
</event>
<event>
 6    1  0.9094387E-004  0.4744782E+03  0.7818608E-02  0.1020668E+00
         21   -1    0    0  501  502  0.00000000000E+00  0.00000000000E+00  0.16517603550E+04  0.16517603550E+04  0.00000000000E+00 0.  1.
         21   -1    0    0  502  503 -0.00000000000E+00 -0.00000000000E+00 -0.14374295254E+03  0.14374295254E+03  0.00000000000E+00 0. -1.
    9000007    2    1    2  501    0  0.25496788970E+03 -0.10998558475E+02  0.95853583850E+03  0.10695146147E+04  0.39992619847E+03 0.  0.
    9000005    1    3    3    0    0  0.18913920835E+03 -0.19084255595E+03  0.42672751760E+03  0.50427363164E+03  0.99999687468E+00 0.  0.
          4    1    3    3  501    0  0.65828681352E+02  0.17984399747E+03  0.53180832090E+03  0.56524098302E+03  0.00000000000E+00 0.  1.
   -9000007    1    1    2    0  503 -0.25496788970E+03  0.10998558475E+02  0.54948156399E+03  0.72598869291E+03  0.40000000000E+03 0. -1.
<mgrwt>
<rscale>  2 0.47446268E+03</rscale>
<asrwt>0</asrwt>
<pdfrwt beam="1">  1       21 0.25411696E+00 0.47447823E+03</pdfrwt>
<pdfrwt beam="2">  1       21 0.22114302E-01 0.47447823E+03</pdfrwt>
<totfact> 0.97408157E+02</totfact>
</mgrwt>
</event>
<event>
 6    1  0.9094387E-004  0.4384925E+03  0.7818608E-02  0.1031335E+00
         21   -1    0    0  501  502  0.00000000000E+00  0.00000000000E+00  0.11037905992E+03  0.11037905992E+03  0.00000000000E+00 0.  1.
         21   -1    0    0  502  503 -0.00000000000E+00 -0.00000000000E+00 -0.18273485262E+04  0.18273485262E+04  0.00000000000E+00 0.  1.
    9000007    2    1    2  501    0  0.17956620159E+03  0.56292443090E+01 -0.63984073186E+03  0.77476498155E+03  0.39823222539E+03 0.  0.
    9000005    1    3    3    0    0  0.28160184596E+03  0.94451690247E+02 -0.38515451564E+03  0.48638022405E+03  0.99999687468E+00 0.  0.
          4    1    3    3  501    0 -0.10203564437E+03 -0.88822445938E+02 -0.25468621623E+03  0.28838475750E+03  0.00000000000E+00 0.  1.
   -9000007    1    1    2    0  503 -0.17956620159E+03 -0.56292443090E+01 -0.10771287345E+04  0.11629626046E+04  0.40000000000E+03 0. -1.
<mgrwt>
<rscale>  2 0.43808899E+03</rscale>
<asrwt>0</asrwt>
<pdfrwt beam="1">  1       21 0.16981396E-01 0.43849254E+03</pdfrwt>
<pdfrwt beam="2">  1       21 0.28113051E+00 0.43849254E+03</pdfrwt>
<totfact> 0.11227652E+03</totfact>
</mgrwt>
</event>
<event>
 6    1  0.9094387E-004  0.4675297E+03  0.7818608E-02  0.1022636E+00
         21   -1    0    0  501  502  0.00000000000E+00  0.00000000000E+00  0.16004988792E+03  0.16004988792E+03  0.00000000000E+00 0. -1.
         21   -1    0    0  502  503 -0.00000000000E+00 -0.00000000000E+00 -0.21970891632E+04  0.21970891632E+04  0.00000000000E+00 0.  1.
    9000007    2    1    2  501    0 -0.76753415843E+02  0.22954934611E+03 -0.17436411072E+04  0.18051730429E+04  0.39972667546E+03 0.  0.
    9000005    1    3    3    0    0  0.19770491617E+02 -0.11117908956E+03 -0.44636014497E+03  0.46042376275E+03  0.99999687468E+00 0.  0.
          4    1    3    3  501    0 -0.96523907460E+02  0.34072843568E+03 -0.12972809622E+04  0.13447492802E+04  0.00000000000E+00 0.  1.
   -9000007    1    1    2    0  503  0.76753415843E+02 -0.22954934611E+03 -0.29339816806E+03  0.55196600816E+03  0.40000000000E+03 0. -1.
<mgrwt>
<rscale>  2 0.46747120E+03</rscale>
<asrwt>0</asrwt>
<pdfrwt beam="1">  1       21 0.24623060E-01 0.46752967E+03</pdfrwt>
<pdfrwt beam="2">  1       21 0.33801371E+00 0.46752967E+03</pdfrwt>
<totfact> 0.24659882E+02</totfact>
</mgrwt>
</event>
<event>
 6    1  0.9094387E-004  0.4263456E+03  0.7818608E-02  0.1035118E+00
         21   -1    0    0  501  502  0.00000000000E+00  0.00000000000E+00  0.10920432396E+03  0.10920432396E+03  0.00000000000E+00 0.  1.
         21   -1    0    0  502  503 -0.00000000000E+00 -0.00000000000E+00 -0.18203675582E+04  0.18203675582E+04  0.00000000000E+00 0.  1.
    9000007    2    1    2  501    0  0.98470744465E+01  0.14721945716E+03 -0.11410354239E+04  0.12176615973E+04  0.39870715285E+03 0.  0.
    9000005    1    3    3    0    0 -0.10063209178E+02  0.81824581032E+02 -0.82983111485E+01  0.82863696525E+02  0.99999687468E+00 0.  0.
          4    1    3    3  501    0  0.19910283624E+02  0.65394876127E+02 -0.11327371127E+04  0.11347979008E+04  0.00000000000E+00 0.  1.
   -9000007    1    1    2    0  503 -0.98470744465E+01 -0.14721945716E+03 -0.57012781036E+03  0.71191028479E+03  0.40000000000E+03 0.  1.
<mgrwt>
<rscale>  2 0.42604205E+03</rscale>
<asrwt>0</asrwt>
<pdfrwt beam="1">  1       21 0.16800665E-01 0.42634556E+03</pdfrwt>
<pdfrwt beam="2">  1       21 0.28005656E+00 0.42634556E+03</pdfrwt>
<totfact> 0.11702079E+03</totfact>
</mgrwt>
</event>
<event>
 6    1  0.9094387E-004  0.4058175E+03  0.7818608E-02  0.1041789E+00
         21   -1    0    0  501  502  0.00000000000E+00  0.00000000000E+00  0.11285654852E+03  0.11285654852E+03  0.00000000000E+00 0.  1.
         21   -1    0    0  502  503 -0.00000000000E+00 -0.00000000000E+00 -0.25168055080E+04  0.25168055080E+04  0.00000000000E+00 0.  1.
    9000007    2    1    2  501    0  0.61999060663E+02  0.28096050531E+02 -0.34963344630E+03  0.53565978831E+03  0.40006823226E+03 0.  0.
    9000005    1    3    3    0    0  0.56489019410E+02  0.19846829893E+03 -0.28821589423E+03  0.35447154565E+03  0.99999687468E+00 0.  0.
          4    1    3    3  501    0  0.55100412537E+01 -0.17037224840E+03 -0.61417552070E+02  0.18118824267E+03  0.00000000000E+00 0.  1.
   -9000007    1    1    2    0  503 -0.61999060663E+02 -0.28096050531E+02 -0.20543155132E+04  0.20940022682E+04  0.40000000000E+03 0.  1.
<mgrwt>
<rscale>  2 0.40580071E+03</rscale>
<asrwt>0</asrwt>
<pdfrwt beam="1">  1       21 0.17362547E-01 0.40581752E+03</pdfrwt>
<pdfrwt beam="2">  1       21 0.38720082E+00 0.40581752E+03</pdfrwt>
<totfact> 0.24812257E+02</totfact>
</mgrwt>
</event>
<event>
 6    1  0.9094387E-004  0.5221547E+03  0.7818608E-02  0.1008161E+00
         21   -1    0    0  501  502  0.00000000000E+00  0.00000000000E+00  0.38493607372E+03  0.38493607372E+03  0.00000000000E+00 0.  1.
         21   -1    0    0  502  503 -0.00000000000E+00 -0.00000000000E+00 -0.73050666427E+03  0.73050666427E+03  0.00000000000E+00 0.  1.
    9000007    2    1    2  501    0 -0.31009364379E+03 -0.12840348134E+03 -0.75097104540E+02  0.52739390620E+03  0.39982400533E+03 0.  0.
    9000005    1    3    3    0    0 -0.49451826230E+02 -0.11936838212E+03  0.13914092527E+03  0.18988283453E+03  0.99999687468E+00 0.  0.
          4    1    3    3  501    0 -0.26064181756E+03 -0.90350992188E+01 -0.21423802981E+03  0.33751107167E+03  0.00000000000E+00 0.  1.
   -9000007    1    1    2    0  503  0.31009364379E+03  0.12840348134E+03 -0.27047348601E+03  0.58804883179E+03  0.40000000000E+03 0.  1.
<mgrwt>
<rscale>  2 0.52212099E+03</rscale>
<asrwt>0</asrwt>
<pdfrwt beam="1">  1       21 0.59220935E-01 0.52215469E+03</pdfrwt>
<pdfrwt beam="2">  1       21 0.11238564E+00 0.52215469E+03</pdfrwt>
<totfact> 0.13763146E+03</totfact>
</mgrwt>
</event>
<event>
 6    1  0.9094387E-004  0.4035628E+03  0.7818608E-02  0.1042780E+00
         21   -1    0    0  501  502  0.00000000000E+00  0.00000000000E+00  0.99765603522E+02  0.99765603522E+02  0.00000000000E+00 0.  1.
         21   -1    0    0  502  503 -0.00000000000E+00 -0.00000000000E+00 -0.17649690707E+04  0.17649690707E+04  0.00000000000E+00 0.  1.
    9000007    2    1    2  501    0 -0.58534642520E+00  0.27204289223E+02 -0.11006567840E+04  0.11723089573E+04  0.40264440789E+03 0.  0.
    9000005    1    3    3    0    0 -0.15639536462E+03  0.70929661108E+02 -0.89132463257E+03  0.90771753730E+03  0.99999687468E+00 0.  0.
          4    1    3    3  501    0  0.15581001819E+03 -0.43725371885E+02 -0.20933215148E+03  0.26459142004E+03  0.00000000000E+00 0.  1.
   -9000007    1    1    2    0  503  0.58534642520E+00 -0.27204289223E+02 -0.56454668318E+03  0.69242571693E+03  0.40000000000E+03 0. -1.
<mgrwt>
<rscale>  2 0.40290159E+03</rscale>
<asrwt>0</asrwt>
<pdfrwt beam="1">  1       21 0.15348553E-01 0.40356280E+03</pdfrwt>
<pdfrwt beam="2">  1       21 0.27153372E+00 0.40356280E+03</pdfrwt>
<totfact> 0.15778353E+03</totfact>
</mgrwt>
</event>
<event>
 6    1  0.9094387E-004  0.4482382E+03  0.7818608E-02  0.1028252E+00
         21   -1    0    0  501  502  0.00000000000E+00  0.00000000000E+00  0.23682519015E+04  0.23682519015E+04  0.00000000000E+00 0. -1.
         21   -1    0    0  502  503 -0.00000000000E+00 -0.00000000000E+00 -0.10697865853E+03  0.10697865853E+03  0.00000000000E+00 0. -1.
    9000007    2    1    2  501    0  0.71416945142E+02 -0.18925403510E+03  0.16937330123E+04  0.17520297696E+04  0.39994915510E+03 0.  0.
    9000005    1    3    3    0    0 -0.11754195089E+03 -0.14328618896E+02  0.10799367747E+04  0.10864096175E+04  0.99999687468E+00 0.  0.
          4    1    3    3  501    0  0.18895889603E+03 -0.17492541621E+03  0.61379623761E+03  0.66562015214E+03  0.00000000000E+00 0.  1.
   -9000007    1    1    2    0  503 -0.71416945142E+02  0.18925403510E+03  0.56754023061E+03  0.72320079039E+03  0.40000000000E+03 0.  1.
<mgrwt>
<rscale>  2 0.44822684E+03</rscale>
<asrwt>0</asrwt>
<pdfrwt beam="1">  1       21 0.36434641E+00 0.44823818E+03</pdfrwt>
<pdfrwt beam="2">  1       21 0.16458257E-01 0.44823818E+03</pdfrwt>
<totfact> 0.37042541E+02</totfact>
</mgrwt>
</event>
<event>
 6    1  0.9094387E-004  0.5682656E+03  0.7818608E-02  0.9973526E-01
         21   -1    0    0  501  502  0.00000000000E+00  0.00000000000E+00  0.18351644067E+03  0.18351644067E+03  0.00000000000E+00 0.  1.
         21   -1    0    0  502  503 -0.00000000000E+00 -0.00000000000E+00 -0.17712653889E+04  0.17712653889E+04  0.00000000000E+00 0. -1.
    9000007    2    1    2  501    0 -0.12880660543E+03 -0.38253110306E+03 -0.71470562273E+03  0.91308809597E+03  0.40000569673E+03 0.  0.
    9000005    1    3    3    0    0 -0.22144853710E+02  0.49190929680E+02 -0.30069795446E+03  0.30550024864E+03  0.99999687468E+00 0.  0.
          4    1    3    3  501    0 -0.10666175172E+03 -0.43172203274E+03 -0.41400766828E+03  0.60758784733E+03  0.00000000000E+00 0.  1.
   -9000007    1    1    2    0  503  0.12880660543E+03  0.38253110306E+03 -0.87304332547E+03  0.10416937336E+04  0.40000000000E+03 0. -1.
<mgrwt>
<rscale>  2 0.56826455E+03</rscale>
<asrwt>0</asrwt>
<pdfrwt beam="1">  1       21 0.28233298E-01 0.56826556E+03</pdfrwt>
<pdfrwt beam="2">  1       21 0.27250237E+00 0.56826556E+03</pdfrwt>
<totfact> 0.44740168E+02</totfact>
</mgrwt>
</event>
<event>
 6    1  0.9094387E-004  0.4391034E+03  0.7818608E-02  0.1031118E+00
         21   -1    0    0  501  502  0.00000000000E+00  0.00000000000E+00  0.27708113619E+03  0.27708113619E+03  0.00000000000E+00 0. -1.
         21   -1    0    0  502  503 -0.00000000000E+00 -0.00000000000E+00 -0.70104982325E+03  0.70104982325E+03  0.00000000000E+00 0. -1.
    9000007    2    1    2  501    0  0.42885995170E+02 -0.17287814759E+03 -0.26164642447E+03  0.51114639928E+03  0.40135486487E+03 0.  0.
    9000005    1    3    3    0    0  0.12156132831E+03 -0.17431712420E+03 -0.33944979228E+03  0.40048817436E+03  0.99999687468E+00 0.  0.
          4    1    3    3  501    0 -0.78675333144E+02  0.14389766072E+01  0.77803367808E+02  0.11065822491E+03  0.00000000000E+00 0.  1.
   -9000007    1    1    2    0  503 -0.42885995170E+02  0.17287814759E+03 -0.16232226259E+03  0.46698456016E+03  0.40000000000E+03 0. -1.
<mgrwt>
<rscale>  2 0.43879355E+03</rscale>
<asrwt>0</asrwt>
<pdfrwt beam="1">  1       21 0.42627868E-01 0.43910339E+03</pdfrwt>
<pdfrwt beam="2">  1       21 0.10785382E+00 0.43910339E+03</pdfrwt>
<totfact> 0.31655544E+03</totfact>
</mgrwt>
</event>
<event>
 6    1  0.9094387E-004  0.5441954E+03  0.7818608E-02  0.1002851E+00
         21   -1    0    0  501  502  0.00000000000E+00  0.00000000000E+00  0.28918796968E+03  0.28918796968E+03  0.00000000000E+00 0.  1.
         21   -1    0    0  502  503 -0.00000000000E+00 -0.00000000000E+00 -0.14667474257E+04  0.14667474257E+04  0.00000000000E+00 0.  1.
    9000007    2    1    2  501    0 -0.26800004469E+03  0.25345276704E+03 -0.10712214566E+04  0.12015257100E+04  0.40010785256E+03 0.  0.
    9000005    1    3    3    0    0 -0.65105267635E+02  0.20026171454E+03 -0.91781306608E+03  0.94166091266E+03  0.99999687468E+00 0.  0.
          4    1    3    3  501    0 -0.20289477706E+03  0.53191052500E+02 -0.15340839053E+03  0.25986479736E+03  0.00000000000E+00 0.  1.
   -9000007    1    1    2    0  503  0.26800004469E+03 -0.25345276704E+03 -0.10633799940E+03  0.55440968533E+03  0.40000000000E+03 0.  1.
<mgrwt>
<rscale>  2 0.54417557E+03</rscale>
<asrwt>0</asrwt>
<pdfrwt beam="1">  1       21 0.44490456E-01 0.54419539E+03</pdfrwt>
<pdfrwt beam="2">  1       21 0.22565345E+00 0.54419539E+03</pdfrwt>
<totfact> 0.35005372E+02</totfact>
</mgrwt>
</event>
<event>
 6    1  0.9094387E-004  0.6273798E+03  0.7818608E-02  0.9852933E-01
         21   -1    0    0  501  502  0.00000000000E+00  0.00000000000E+00  0.81921804043E+03  0.81921804043E+03  0.00000000000E+00 0.  1.
         21   -1    0    0  502  503 -0.00000000000E+00 -0.00000000000E+00 -0.72543847912E+03  0.72543847912E+03  0.00000000000E+00 0. -1.
    9000007    2    1    2  501    0 -0.41071613057E+03  0.24068001598E+03  0.49973380635E+03  0.80208432840E+03  0.40864505705E+03 0.  0.
    9000005    1    3    3    0    0 -0.14637523124E+02 -0.66206360164E+02 -0.28907472286E+02  0.73716898721E+02  0.99999687468E+00 0.  0.
          4    1    3    3  501    0 -0.39607860745E+03  0.30688637614E+03  0.52864127864E+03  0.72836742968E+03  0.00000000000E+00 0.  1.
   -9000007    1    1    2    0  503  0.41071613057E+03 -0.24068001598E+03 -0.40595424504E+03  0.74257219115E+03  0.40000000000E+03 0. -1.
<mgrwt>
<rscale>  2 0.62597599E+03</rscale>
<asrwt>0</asrwt>
<pdfrwt beam="1">  1       21 0.12603354E+00 0.62737978E+03</pdfrwt>
<pdfrwt beam="2">  1       21 0.11160592E+00 0.62737978E+03</pdfrwt>
<totfact> 0.22495072E+02</totfact>
</mgrwt>
</event>
<event>
 6    1  0.9094387E-004  0.4732717E+03  0.7818608E-02  0.1021655E+00
         21   -1    0    0  501  502  0.00000000000E+00  0.00000000000E+00  0.10080814079E+04  0.10080814079E+04  0.00000000000E+00 0.  1.
         21   -1    0    0  502  503 -0.00000000000E+00 -0.00000000000E+00 -0.39162671026E+03  0.39162671026E+03  0.00000000000E+00 0.  1.
    9000007    2    1    2  501    0  0.18847241815E+03  0.16871363754E+03  0.77269396356E+03  0.90131384442E+03  0.38900455130E+03 0.  0.
    9000005    1    3    3    0    0 -0.12169191825E+03  0.38936750490E+02  0.21676520232E+03  0.25162103735E+03  0.99999687468E+00 0.  0.
          4    1    3    3  501    0  0.31016433640E+03  0.12977688705E+03  0.55592876123E+03  0.64969280707E+03  0.00000000000E+00 0.  1.
   -9000007    1    1    2    0  503 -0.18847241815E+03 -0.16871363754E+03 -0.15623926591E+03  0.49839427375E+03  0.40000000000E+03 0.  1.
<mgrwt>
<rscale>  2 0.47094060E+03</rscale>
<asrwt>0</asrwt>
<pdfrwt beam="1">  1       21 0.15508945E+00 0.47327174E+03</pdfrwt>
<pdfrwt beam="2">  1       21 0.60250263E-01 0.47327174E+03</pdfrwt>
<totfact> 0.58065462E+02</totfact>
</mgrwt>
</event>
<event>
 6    1  0.9094387E-004  0.5082736E+03  0.7818608E-02  0.1011732E+00
         21   -1    0    0  501  502  0.00000000000E+00  0.00000000000E+00  0.48299530980E+03  0.48299530980E+03  0.00000000000E+00 0.  1.
         21   -1    0    0  502  503 -0.00000000000E+00 -0.00000000000E+00 -0.70030632848E+03  0.70030632848E+03  0.00000000000E+00 0.  1.
    9000007    2    1    2  501    0  0.11788810449E+03  0.28811728979E+03  0.18007777242E+03  0.53923096735E+03  0.40178707567E+03 0.  0.
    9000005    1    3    3    0    0  0.20738755303E+03  0.20923360291E+02  0.14796770393E+03  0.25562242773E+03  0.99999687468E+00 0.  0.
          4    1    3    3  501    0 -0.89499448540E+02  0.26719392950E+03  0.32110068489E+02  0.28360853962E+03  0.00000000000E+00 0.  1.
   -9000007    1    1    2    0  503 -0.11788810449E+03 -0.28811728979E+03 -0.39738879110E+03  0.64407067093E+03  0.40000000000E+03 0.  1.
<mgrwt>
<rscale>  2 0.50792034E+03</rscale>
<asrwt>0</asrwt>
<pdfrwt beam="1">  1       21 0.74306971E-01 0.50827358E+03</pdfrwt>
<pdfrwt beam="2">  1       21 0.10773943E+00 0.50827358E+03</pdfrwt>
<totfact> 0.92461671E+02</totfact>
</mgrwt>
</event>
<event>
 6    1  0.9094387E-004  0.4321981E+03  0.7818608E-02  0.1033498E+00
         21   -1    0    0  501  502  0.00000000000E+00  0.00000000000E+00  0.57303466686E+03  0.57303466686E+03  0.00000000000E+00 0. -1.
         21   -1    0    0  502  503 -0.00000000000E+00 -0.00000000000E+00 -0.32284348547E+03  0.32284348547E+03  0.00000000000E+00 0. -1.
    9000007    2    1    2  501    0 -0.44449421455E+02  0.14565519222E+03  0.12927023248E+03  0.45111634869E+03  0.40447988944E+03 0.  0.
    9000005    1    3    3    0    0 -0.49868890001E+02  0.11002460361E+03 -0.13686475251E+03  0.18255212971E+03  0.99999687468E+00 0.  0.
          4    1    3    3  501    0  0.54194685461E+01  0.35630588614E+02  0.26613498499E+03  0.26856421898E+03  0.00000000000E+00 0.  1.
   -9000007    1    1    2    0  503  0.44449421455E+02 -0.14565519222E+03  0.12092094890E+03  0.44476180363E+03  0.40000000000E+03 0. -1.
<mgrwt>
<rscale>  2 0.43114682E+03</rscale>
<asrwt>0</asrwt>
<pdfrwt beam="1">  1       21 0.88159179E-01 0.43219806E+03</pdfrwt>
<pdfrwt beam="2">  1       21 0.49668229E-01 0.43219806E+03</pdfrwt>
<totfact> 0.37447910E+03</totfact>
</mgrwt>
</event>
<event>
 6    1  0.9094387E-004  0.4050323E+03  0.7818608E-02  0.1042100E+00
         21   -1    0    0  501  502  0.00000000000E+00  0.00000000000E+00  0.34657812951E+03  0.34657812951E+03  0.00000000000E+00 0.  1.
         21   -1    0    0  502  503 -0.00000000000E+00 -0.00000000000E+00 -0.47879227224E+03  0.47879227224E+03  0.00000000000E+00 0.  1.
    9000007    2    1    2  501    0  0.44062006844E+02  0.40504279271E+02 -0.19481769195E+02  0.40550060630E+03  0.40058600237E+03 0.  0.
    9000005    1    3    3    0    0 -0.10923643280E+02  0.30313603682E+01  0.18762356786E+03  0.18796839718E+03  0.99999687468E+00 0.  0.
          4    1    3    3  501    0  0.54985650124E+02  0.37472918903E+02 -0.20710533705E+03  0.21753220912E+03  0.00000000000E+00 0.  1.
   -9000007    1    1    2    0  503 -0.44062006844E+02 -0.40504279271E+02 -0.11273237353E+03  0.41986979545E+03  0.40000000000E+03 0.  1.
<mgrwt>
<rscale>  2 0.40488738E+03</rscale>
<asrwt>0</asrwt>
<pdfrwt beam="1">  1       21 0.53319713E-01 0.40503235E+03</pdfrwt>
<pdfrwt beam="2">  1       21 0.73660349E-01 0.40503235E+03</pdfrwt>
<totfact> 0.49234164E+03</totfact>
</mgrwt>
</event>
<event>
 6    1  0.9094387E-004  0.4664202E+03  0.7818608E-02  0.1022940E+00
         21   -1    0    0  501  502  0.00000000000E+00  0.00000000000E+00  0.32724091360E+03  0.32724091360E+03  0.00000000000E+00 0.  1.
         21   -1    0    0  502  503 -0.00000000000E+00 -0.00000000000E+00 -0.18049303142E+04  0.18049303142E+04  0.00000000000E+00 0.  1.
    9000007    2    1    2  501    0 -0.72087765505E+02 -0.22867414240E+03  0.10847633445E+03  0.47886839758E+03  0.40007414029E+03 0.  0.
    9000005    1    3    3    0    0  0.13712256989E+03 -0.15384026984E+03 -0.42259645622E+02  0.21037182664E+03  0.99999687468E+00 0.  0.
          4    1    3    3  501    0 -0.20921033540E+03 -0.74833872551E+02  0.15073598008E+03  0.26849657094E+03  0.00000000000E+00 0.  1.
   -9000007    1    1    2    0  503  0.72087765505E+02  0.22867414240E+03 -0.15861657350E+04  0.16533028302E+04  0.40000000000E+03 0.  1.
<mgrwt>
<rscale>  2 0.46640433E+03</rscale>
<asrwt>0</asrwt>
<pdfrwt beam="1">  1       21 0.50344756E-01 0.46642023E+03</pdfrwt>
<pdfrwt beam="2">  1       21 0.27768159E+00 0.46642023E+03</pdfrwt>
<totfact> 0.13365222E+02</totfact>
</mgrwt>
</event>
<event>
 6    1  0.9094387E-004  0.5244209E+03  0.7818608E-02  0.1007608E+00
         21   -1    0    0  501  502  0.00000000000E+00  0.00000000000E+00  0.74221090813E+03  0.74221090813E+03  0.00000000000E+00 0. -1.
         21   -1    0    0  502  503 -0.00000000000E+00 -0.00000000000E+00 -0.37042431586E+03  0.37042431586E+03  0.00000000000E+00 0. -1.
    9000007    2    1    2  501    0 -0.19624350438E+03 -0.27659672988E+03  0.19219382992E+03  0.55831507797E+03  0.39969987996E+03 0.  0.
    9000005    1    3    3    0    0 -0.21244063469E+03 -0.34211905996E+03  0.24608207025E+03  0.47194688234E+03  0.99999687468E+00 0.  0.
          4    1    3    3  501    0  0.16197130310E+02  0.65522330087E+02 -0.53888240332E+02  0.86368195630E+02  0.00000000000E+00 0.  1.
   -9000007    1    1    2    0  503  0.19624350438E+03  0.27659672988E+03  0.17959276235E+03  0.55432014602E+03  0.40000000000E+03 0. -1.
<mgrwt>
<rscale>  2 0.52436366E+03</rscale>
<asrwt>0</asrwt>
<pdfrwt beam="1">  1       21 0.11418629E+00 0.52442088E+03</pdfrwt>
<pdfrwt beam="2">  1       21 0.56988356E-01 0.52442088E+03</pdfrwt>
<totfact> 0.14374718E+03</totfact>
</mgrwt>
</event>
<event>
 6    1  0.9094387E-004  0.4797136E+03  0.7818608E-02  0.1019219E+00
         21   -1    0    0  501  502  0.00000000000E+00  0.00000000000E+00  0.10926934862E+04  0.10926934862E+04  0.00000000000E+00 0.  1.
         21   -1    0    0  502  503 -0.00000000000E+00 -0.00000000000E+00 -0.35259680159E+03  0.35259680159E+03  0.00000000000E+00 0. -1.
    9000007    2    1    2  501    0 -0.73935924860E+02 -0.25428057920E+03  0.82866850246E+03  0.95746849570E+03  0.39991161441E+03 0.  0.
    9000005    1    3    3    0    0  0.45166043962E+02 -0.33054339060E+03  0.63935085622E+03  0.72115838894E+03  0.99999687468E+00 0.  0.
          4    1    3    3  501    0 -0.11910196882E+03  0.76262811394E+02  0.18931764623E+03  0.23631010675E+03  0.00000000000E+00 0.  1.
   -9000007    1    1    2    0  503  0.73935924860E+02  0.25428057920E+03 -0.88571817828E+02  0.48782179211E+03  0.40000000000E+03 0. -1.
<mgrwt>
<rscale>  2 0.47969517E+03</rscale>
<asrwt>0</asrwt>
<pdfrwt beam="1">  1       21 0.16810669E+00 0.47971360E+03</pdfrwt>
<pdfrwt beam="2">  1       21 0.54245662E-01 0.47971360E+03</pdfrwt>
<totfact> 0.58056755E+02</totfact>
</mgrwt>
</event>
<event>
 6    1  0.9094387E-004  0.4152715E+03  0.7818608E-02  0.1038659E+00
         21   -1    0    0  501  502  0.00000000000E+00  0.00000000000E+00  0.30066772035E+03  0.30066772035E+03  0.00000000000E+00 0.  1.
         21   -1    0    0  502  503 -0.00000000000E+00 -0.00000000000E+00 -0.18653894495E+04  0.18653894495E+04  0.00000000000E+00 0.  1.
    9000007    2    1    2  501    0 -0.74437202425E+01  0.11133303798E+03  0.11931004387E+03  0.43157930407E+03  0.39946884086E+03 0.  0.
    9000005    1    3    3    0    0  0.19324309053E+03  0.60860459211E+02  0.93168201481E+02  0.22299820917E+03  0.99999687468E+00 0.  0.
          4    1    3    3  501    0 -0.20068681077E+03  0.50472578766E+02  0.26141842386E+02  0.20858109490E+03  0.00000000000E+00 0.  1.
   -9000007    1    1    2    0  503  0.74437202425E+01 -0.11133303798E+03 -0.16840317730E+04  0.17344778658E+04  0.40000000000E+03 0.  1.
<mgrwt>
<rscale>  2 0.41514358E+03</rscale>
<asrwt>0</asrwt>
<pdfrwt beam="1">  1       21 0.46256573E-01 0.41527154E+03</pdfrwt>
<pdfrwt beam="2">  1       21 0.28698299E+00 0.41527154E+03</pdfrwt>
<totfact> 0.14512670E+02</totfact>
</mgrwt>
</event>
<event>
 6    1  0.9094387E-004  0.5743562E+03  0.7818608E-02  0.9960101E-01
         21   -1    0    0  501  502  0.00000000000E+00  0.00000000000E+00  0.48866580381E+03  0.48866580381E+03  0.00000000000E+00 0.  1.
         21   -1    0    0  502  503 -0.00000000000E+00 -0.00000000000E+00 -0.77596979331E+03  0.77596979331E+03  0.00000000000E+00 0.  1.
    9000007    2    1    2  501    0 -0.30906498483E+03 -0.27263613476E+03  0.84392444808E+02  0.58052313115E+03  0.40004174061E+03 0.  0.
    9000005    1    3    3    0    0  0.38184672822E+02  0.16797852398E+02 -0.87459447032E+02  0.96904034759E+02  0.99999687468E+00 0.  0.
          4    1    3    3  501    0 -0.34724965765E+03 -0.28943398716E+03  0.17185189184E+03  0.48361909639E+03  0.00000000000E+00 0.  1.
   -9000007    1    1    2    0  503  0.30906498483E+03  0.27263613476E+03 -0.37169643431E+03  0.68411246597E+03  0.40000000000E+03 0.  1.
<mgrwt>
<rscale>  2 0.57434891E+03</rscale>
<asrwt>0</asrwt>
<pdfrwt beam="1">  1       21 0.75179355E-01 0.57435618E+03</pdfrwt>
<pdfrwt beam="2">  1       21 0.11937997E+00 0.57435618E+03</pdfrwt>
<totfact> 0.67996616E+02</totfact>
</mgrwt>
</event>
<event>
 6    1  0.9094387E-004  0.4679452E+03  0.7818608E-02  0.1022515E+00
         21   -1    0    0  501  502  0.00000000000E+00  0.00000000000E+00  0.20973089544E+03  0.20973089544E+03  0.00000000000E+00 0.  1.
         21   -1    0    0  502  503 -0.00000000000E+00 -0.00000000000E+00 -0.10937055852E+04  0.10937055852E+04  0.00000000000E+00 0.  1.
    9000007    2    1    2  501    0  0.15630920907E+03 -0.18538452153E+03 -0.30265162710E+03  0.55728871187E+03  0.40021583093E+03 0.  0.
    9000005    1    3    3    0    0 -0.52448615335E+02  0.88802852442E+02 -0.14596240069E+03  0.17872556129E+03  0.99999687468E+00 0.  0.
          4    1    3    3  501    0  0.20875782441E+03 -0.27418737398E+03 -0.15668922642E+03  0.37856315058E+03  0.00000000000E+00 0.  1.
   -9000007    1    1    2    0  503 -0.15630920907E+03  0.18538452153E+03 -0.58132306269E+03  0.74614776880E+03  0.40000000000E+03 0.  1.
<mgrwt>
<rscale>  2 0.46789904E+03</rscale>
<asrwt>0</asrwt>
<pdfrwt beam="1">  1       21 0.32266291E-01 0.46794519E+03</pdfrwt>
<pdfrwt beam="2">  1       21 0.16826240E+00 0.46794519E+03</pdfrwt>
<totfact> 0.17119717E+03</totfact>
</mgrwt>
</event>
<event>
 6    1  0.9094387E-004  0.4495605E+03  0.7818608E-02  0.1027887E+00
         21   -1    0    0  501  502  0.00000000000E+00  0.00000000000E+00  0.37851410707E+03  0.37851410707E+03  0.00000000000E+00 0.  1.
         21   -1    0    0  502  503 -0.00000000000E+00 -0.00000000000E+00 -0.63961927223E+03  0.63961927223E+03  0.00000000000E+00 0. -1.
    9000007    2    1    2  501    0  0.78250397260E+02  0.18859738895E+03  0.76845589515E+02  0.45608105756E+03  0.40051540126E+03 0.  0.
    9000005    1    3    3    0    0  0.92830304541E+02 -0.10030457214E+03 -0.42545010476E+02  0.14314171490E+03  0.99999687468E+00 0.  0.
          4    1    3    3  501    0 -0.14579907281E+02  0.28890196110E+03  0.11939059999E+03  0.31293934266E+03  0.00000000000E+00 0.  1.
   -9000007    1    1    2    0  503 -0.78250397260E+02 -0.18859738895E+03 -0.33795075467E+03  0.56205232174E+03  0.40000000000E+03 0. -1.
<mgrwt>
<rscale>  2 0.44944573E+03</rscale>
<asrwt>0</asrwt>
<pdfrwt beam="1">  1       21 0.58232940E-01 0.44956055E+03</pdfrwt>
<pdfrwt beam="2">  1       21 0.98402965E-01 0.44956055E+03</pdfrwt>
<totfact> 0.20332597E+03</totfact>
</mgrwt>
</event>
<event>
 6    1  0.9094387E-004  0.5195003E+03  0.7818608E-02  0.1008816E+00
         21   -1    0    0  501  502  0.00000000000E+00  0.00000000000E+00  0.14661264853E+04  0.14661264853E+04  0.00000000000E+00 0.  1.
         21   -1    0    0  502  503 -0.00000000000E+00 -0.00000000000E+00 -0.22384925646E+03  0.22384925646E+03  0.00000000000E+00 0. -1.
    9000007    2    1    2  501    0 -0.15417069570E+03 -0.29344841910E+03  0.26477655846E+03  0.58300323140E+03  0.39988193736E+03 0.  0.
    9000005    1    3    3    0    0 -0.64680109774E+02 -0.38298492574E+03  0.23128671160E+03  0.45205697970E+03  0.99999687468E+00 0.  0.
          4    1    3    3  501    0 -0.89490585927E+02  0.89536506636E+02  0.33489846866E+02  0.13094625170E+03  0.00000000000E+00 0.  1.
   -9000007    1    1    2    0  503  0.15417069570E+03  0.29344841910E+03  0.97750067035E+03  0.11069725103E+04  0.40000000000E+03 0. -1.
<mgrwt>
<rscale>  2 0.51947759E+03</rscale>
<asrwt>0</asrwt>
<pdfrwt beam="1">  1       21 0.22555792E+00 0.51950032E+03</pdfrwt>
<pdfrwt beam="2">  1       21 0.34438348E-01 0.51950032E+03</pdfrwt>
<totfact> 0.60065221E+02</totfact>
</mgrwt>
</event>
<event>
 6    1  0.9094387E-004  0.4424262E+03  0.7818608E-02  0.1030037E+00
         21   -1    0    0  501  502  0.00000000000E+00  0.00000000000E+00  0.24366670540E+03  0.24366670540E+03  0.00000000000E+00 0. -1.
         21   -1    0    0  502  503 -0.00000000000E+00 -0.00000000000E+00 -0.16863305182E+04  0.16863305182E+04  0.00000000000E+00 0. -1.
    9000007    2    1    2  501    0 -0.12628332334E+03  0.13934592141E+03 -0.22895629705E+02  0.44301825357E+03  0.40046997336E+03 0.  0.
    9000005    1    3    3    0    0 -0.20957649876E+02  0.27005161358E+03 -0.41890098369E+02  0.27408552939E+03  0.99999687468E+00 0.  0.
          4    1    3    3  501    0 -0.10532567347E+03 -0.13070569217E+03  0.18994468664E+02  0.16893272418E+03  0.00000000000E+00 0.  1.
   -9000007    1    1    2    0  503  0.12628332334E+03 -0.13934592141E+03 -0.14197681831E+04  0.14869789700E+04  0.40000000000E+03 0. -1.
<mgrwt>
<rscale>  2 0.44231985E+03</rscale>
<asrwt>0</asrwt>
<pdfrwt beam="1">  1       21 0.37487184E-01 0.44242622E+03</pdfrwt>
<pdfrwt beam="2">  1       21 0.25943548E+00 0.44242622E+03</pdfrwt>
<totfact> 0.32336229E+02</totfact>
</mgrwt>
</event>
<event>
 6    1  0.9094387E-004  0.4269900E+03  0.7818608E-02  0.1034973E+00
         21   -1    0    0  501  502  0.00000000000E+00  0.00000000000E+00  0.61843062190E+03  0.61843062190E+03  0.00000000000E+00 0.  1.
         21   -1    0    0  502  503 -0.00000000000E+00 -0.00000000000E+00 -0.78532642133E+03  0.78532642133E+03  0.00000000000E+00 0. -1.
    9000007    2    1    2  501    0  0.14174725975E+03  0.23356667351E+02  0.47195496982E+03  0.63644476982E+03  0.40209778902E+03 0.  0.
    9000005    1    3    3    0    0  0.94807020665E+02 -0.97884274314E+02 -0.10596909812E+02  0.13668575938E+03  0.99999687468E+00 0.  0.
          4    1    3    3  501    0  0.46940239088E+02  0.12124094167E+03  0.48255187963E+03  0.49975901044E+03  0.00000000000E+00 0.  1.
   -9000007    1    1    2    0  503 -0.14174725975E+03 -0.23356667351E+02 -0.63885076925E+03  0.76731227342E+03  0.40000000000E+03 0. -1.
<mgrwt>
<rscale>  2 0.42649540E+03</rscale>
<asrwt>0</asrwt>
<pdfrwt beam="1">  1       21 0.95143173E-01 0.42698999E+03</pdfrwt>
<pdfrwt beam="2">  1       21 0.12081945E+00 0.42698999E+03</pdfrwt>
<totfact> 0.40313582E+02</totfact>
</mgrwt>
</event>
<event>
 6    1  0.9094387E-004  0.4001789E+03  0.7818608E-02  0.1043858E+00
         21   -1    0    0  501  502  0.00000000000E+00  0.00000000000E+00  0.14276086475E+03  0.14276086475E+03  0.00000000000E+00 0. -1.
         21   -1    0    0  502  503 -0.00000000000E+00 -0.00000000000E+00 -0.17313895638E+04  0.17313895638E+04  0.00000000000E+00 0. -1.
    9000007    2    1    2  501    0 -0.11959822280E+02  0.35828442593E+00 -0.23516342637E+03  0.46276408525E+03  0.39837870899E+03 0.  0.
    9000005    1    3    3    0    0 -0.12481325649E+03 -0.14366167969E+03 -0.20068895905E+03  0.27657564153E+03  0.99999687468E+00 0.  0.
          4    1    3    3  501    0  0.11285343421E+03  0.14401996412E+03 -0.34474467318E+02  0.18618844372E+03  0.00000000000E+00 0.  1.
   -9000007    1    1    2    0  503  0.11959822280E+02 -0.35828442593E+00 -0.13534652726E+04  0.14113863433E+04  0.40000000000E+03 0.  1.
<mgrwt>
<rscale>  2 0.39977316E+03</rscale>
<asrwt>0</asrwt>
<pdfrwt beam="1">  1       21 0.21963209E-01 0.40017892E+03</pdfrwt>
<pdfrwt beam="2">  1       21 0.26636764E+00 0.40017892E+03</pdfrwt>
<totfact> 0.86466688E+02</totfact>
</mgrwt>
</event>
<event>
 6    1  0.9094387E-004  0.4146794E+03  0.7818608E-02  0.1038818E+00
         21   -1    0    0  501  502  0.00000000000E+00  0.00000000000E+00  0.82525626283E+02  0.82525626283E+02  0.00000000000E+00 0. -1.
         21   -1    0    0  502  503 -0.00000000000E+00 -0.00000000000E+00 -0.20836559807E+04  0.20836559807E+04  0.00000000000E+00 0. -1.
    9000007    2    1    2  501    0 -0.78449464404E+01 -0.10880591285E+03 -0.98749722152E+03  0.10710321204E+04  0.40007345646E+03 0.  0.
    9000005    1    3    3    0    0  0.88841050832E+02  0.12866603777E+03 -0.42511698696E+03  0.45296041127E+03  0.99999687468E+00 0.  0.
          4    1    3    3  501    0 -0.96685997272E+02 -0.23747195062E+03 -0.56238023456E+03  0.61807170912E+03  0.00000000000E+00 0.  1.
   -9000007    1    1    2    0  503  0.78449464404E+01  0.10880591285E+03 -0.10136331329E+04  0.10951494866E+04  0.40000000000E+03 0.  1.
<mgrwt>
<rscale>  2 0.41466172E+03</rscale>
<asrwt>0</asrwt>
<pdfrwt beam="1">  1       21 0.12696250E-01 0.41467944E+03</pdfrwt>
<pdfrwt beam="2">  1       21 0.32056247E+00 0.41467944E+03</pdfrwt>
<totfact> 0.11296645E+03</totfact>
</mgrwt>
</event>
<event>
 6    1  0.9094387E-004  0.6066036E+03  0.7818608E-02  0.9891995E-01
         21   -1    0    0  501  502  0.00000000000E+00  0.00000000000E+00  0.81255581888E+03  0.81255581888E+03  0.00000000000E+00 0. -1.
         21   -1    0    0  502  503 -0.00000000000E+00 -0.00000000000E+00 -0.53091737712E+03  0.53091737712E+03  0.00000000000E+00 0.  1.
    9000007    2    1    2  501    0  0.43603662709E+03  0.13356644840E+03  0.39883161666E+03  0.72565269088E+03  0.39942112241E+03 0.  0.
    9000005    1    3    3    0    0  0.18651745916E+03  0.24233423549E+03  0.31920622813E+03  0.44205006542E+03  0.99999687468E+00 0.  0.
          4    1    3    3  501    0  0.24951916792E+03 -0.10876778709E+03  0.79625388530E+02  0.28360262546E+03  0.00000000000E+00 0.  1.
   -9000007    1    1    2    0  503 -0.43603662709E+03 -0.13356644840E+03 -0.11719317491E+03  0.61782050512E+03  0.40000000000E+03 0.  1.
<mgrwt>
<rscale>  2 0.60650819E+03</rscale>
<asrwt>0</asrwt>
<pdfrwt beam="1">  1       21 0.12500859E+00 0.60660361E+03</pdfrwt>
<pdfrwt beam="2">  1       21 0.81679597E-01 0.60660361E+03</pdfrwt>
<totfact> 0.49298855E+02</totfact>
</mgrwt>
</event>
<event>
 6    1  0.9094387E-004  0.4287842E+03  0.7818608E-02  0.1034249E+00
         21   -1    0    0  501  502  0.00000000000E+00  0.00000000000E+00  0.10704867938E+04  0.10704867938E+04  0.00000000000E+00 0. -1.
         21   -1    0    0  502  503 -0.00000000000E+00 -0.00000000000E+00 -0.22098791215E+03  0.22098791215E+03  0.00000000000E+00 0. -1.
    9000007    2    1    2  501    0  0.14420297918E+03  0.55329842338E+02  0.72960059782E+03  0.84624275613E+03  0.39994234496E+03 0.  0.
    9000005    1    3    3    0    0  0.96122287341E+02 -0.16821537327E+03  0.40772350540E+03  0.45141484555E+03  0.99999687468E+00 0.  0.
          4    1    3    3  501    0  0.48080691838E+02  0.22354521561E+03  0.32187709242E+03  0.39482791058E+03  0.00000000000E+00 0.  1.
   -9000007    1    1    2    0  503 -0.14420297918E+03 -0.55329842338E+02  0.11989828379E+03  0.44523194979E+03  0.40000000000E+03 0. -1.
<mgrwt>
<rscale>  2 0.42877075E+03</rscale>
<asrwt>0</asrwt>
<pdfrwt beam="1">  1       21 0.16469027E+00 0.42878420E+03</pdfrwt>
<pdfrwt beam="2">  1       21 0.33998141E-01 0.42878420E+03</pdfrwt>
<totfact> 0.16643486E+03</totfact>
</mgrwt>
</event>
<event>
 6    1  0.9094387E-004  0.5311684E+03  0.7818608E-02  0.1005980E+00
         21   -1    0    0  501  502  0.00000000000E+00  0.00000000000E+00  0.47434533013E+03  0.47434533013E+03  0.00000000000E+00 0.  1.
         21   -1    0    0  502  503 -0.00000000000E+00 -0.00000000000E+00 -0.61521141392E+03  0.61521141392E+03  0.00000000000E+00 0. -1.
    9000007    2    1    2  501    0 -0.27733982432E+03 -0.21137115353E+03  0.30154519420E+02  0.53202361552E+03  0.40068028367E+03 0.  0.
    9000005    1    3    3    0    0 -0.20481203333E+03 -0.30306031934E+03 -0.76593721262E+02  0.37371262259E+03  0.99999687468E+00 0.  0.
          4    1    3    3  501    0 -0.72527790988E+02  0.91689165805E+02  0.10674824068E+03  0.15831099292E+03  0.00000000000E+00 0.  1.
   -9000007    1    1    2    0  503  0.27733982432E+03  0.21137115353E+03 -0.17102060321E+03  0.55753312854E+03  0.40000000000E+03 0. -1.
<mgrwt>
<rscale>  2 0.53104008E+03</rscale>
<asrwt>0</asrwt>
<pdfrwt beam="1">  1       21 0.72976205E-01 0.53116837E+03</pdfrwt>
<pdfrwt beam="2">  1       21 0.94647910E-01 0.53116837E+03</pdfrwt>
<totfact> 0.13122014E+03</totfact>
</mgrwt>
</event>
<event>
 6    1  0.9094387E-004  0.4345011E+03  0.7818608E-02  0.1032489E+00
         21   -1    0    0  501  502  0.00000000000E+00  0.00000000000E+00  0.68316037560E+03  0.68316037560E+03  0.00000000000E+00 0. -1.
         21   -1    0    0  502  503 -0.00000000000E+00 -0.00000000000E+00 -0.27636644993E+03  0.27636644993E+03  0.00000000000E+00 0. -1.
    9000007    2    1    2  501    0 -0.16964769186E+03 -0.32935922046E+01  0.18616766330E+03  0.47222082849E+03  0.39942824750E+03 0.  0.
    9000005    1    3    3    0    0 -0.98530268410E+02  0.51318968240E+02 -0.11385939804E+03  0.15908115165E+03  0.99999687468E+00 0.  0.
          4    1    3    3  501    0 -0.71117423445E+02 -0.54612560444E+02  0.30002706134E+03  0.31313967684E+03  0.00000000000E+00 0.  1.
   -9000007    1    1    2    0  503  0.16964769186E+03  0.32935922046E+01  0.22062626238E+03  0.48730599704E+03  0.40000000000E+03 0. -1.
<mgrwt>
<rscale>  2 0.43436944E+03</rscale>
<asrwt>0</asrwt>
<pdfrwt beam="1">  1       21 0.10510160E+00 0.43450108E+03</pdfrwt>
<pdfrwt beam="2">  1       21 0.42517916E-01 0.43450108E+03</pdfrwt>
<totfact> 0.33977132E+03</totfact>
</mgrwt>
</event>
<event>
 6    1  0.9094387E-004  0.5839522E+03  0.7818608E-02  0.9939328E-01
         21   -1    0    0  501  502  0.00000000000E+00  0.00000000000E+00  0.20684926676E+03  0.20684926676E+03  0.00000000000E+00 0. -1.
         21   -1    0    0  502  503 -0.00000000000E+00 -0.00000000000E+00 -0.16910173197E+04  0.16910173197E+04  0.00000000000E+00 0.  1.
    9000007    2    1    2  501    0 -0.37780690598E+03 -0.19529283949E+03 -0.59123438935E+03  0.83099832892E+03  0.40015343077E+03 0.  0.
    9000005    1    3    3    0    0 -0.15225445050E+03  0.10150151441E+03 -0.32479024928E+03  0.37279173965E+03  0.99999687468E+00 0.  0.
          4    1    3    3  501    0 -0.22555245548E+03 -0.29679435390E+03 -0.26644414007E+03  0.45820658928E+03  0.00000000000E+00 0.  1.
   -9000007    1    1    2    0  503  0.37780690598E+03  0.19529283949E+03 -0.89293366357E+03  0.10668682575E+04  0.40000000000E+03 0. -1.
<mgrwt>
<rscale>  2 0.58392587E+03</rscale>
<asrwt>0</asrwt>
<pdfrwt beam="1">  1       21 0.31822965E-01 0.58395216E+03</pdfrwt>
<pdfrwt beam="2">  1       21 0.26015650E+00 0.58395216E+03</pdfrwt>
<totfact> 0.41662242E+02</totfact>
</mgrwt>
</event>
<event>
 6    1  0.9094387E-004  0.5309046E+03  0.7818608E-02  0.1006253E+00
         21   -1    0    0  501  502  0.00000000000E+00  0.00000000000E+00  0.14635558596E+04  0.14635558596E+04  0.00000000000E+00 0. -1.
         21   -1    0    0  502  503 -0.00000000000E+00 -0.00000000000E+00 -0.20739738272E+03  0.20739738272E+03  0.00000000000E+00 0. -1.
    9000007    2    1    2  501    0  0.20550717844E+03  0.28218175883E+03  0.39209167079E+03  0.65681755573E+03  0.39473241291E+03 0.  0.
    9000005    1    3    3    0    0  0.26619648684E+03  0.28175125187E+03  0.16415957801E+03  0.42094382592E+03  0.99999687468E+00 0.  0.
          4    1    3    3  501    0 -0.60689308405E+02  0.43050696150E+00  0.22793209279E+03  0.23587372981E+03  0.00000000000E+00 0.  1.
   -9000007    1    1    2    0  503 -0.20550717844E+03 -0.28218175883E+03  0.86406680605E+03  0.10141356865E+04  0.40000000000E+03 0. -1.
<mgrwt>
<rscale>  2 0.52991253E+03</rscale>
<asrwt>0</asrwt>
<pdfrwt beam="1">  1       21 0.22516243E+00 0.53090465E+03</pdfrwt>
<pdfrwt beam="2">  1       21 0.31907291E-01 0.53090465E+03</pdfrwt>
<totfact> 0.70136288E+02</totfact>
</mgrwt>
</event>
<event>
 6    1  0.9094387E-004  0.4393227E+03  0.7818608E-02  0.1031023E+00
         21   -1    0    0  501  502  0.00000000000E+00  0.00000000000E+00  0.18089201514E+03  0.18089201514E+03  0.00000000000E+00 0. -1.
         21   -1    0    0  502  503 -0.00000000000E+00 -0.00000000000E+00 -0.10715489521E+04  0.10715489521E+04  0.00000000000E+00 0. -1.
    9000007    2    1    2  501    0 -0.13322037292E+03 -0.12035010904E+03 -0.49538611029E+03  0.66212677724E+03  0.40096465475E+03 0.  0.
    9000005    1    3    3    0    0 -0.18505214522E+02 -0.81972649340E+02 -0.52975083153E+03  0.53637570946E+03  0.99999687468E+00 0.  0.
          4    1    3    3  501    0 -0.11471515840E+03 -0.38377459705E+02  0.34364721238E+02  0.12575106777E+03  0.00000000000E+00 0.  1.
   -9000007    1    1    2    0  503  0.13322037292E+03  0.12035010904E+03 -0.39527082672E+03  0.59031419004E+03  0.40000000000E+03 0. -1.
<mgrwt>
<rscale>  2 0.43910251E+03</rscale>
<asrwt>0</asrwt>
<pdfrwt beam="1">  1       21 0.27829541E-01 0.43932274E+03</pdfrwt>
<pdfrwt beam="2">  1       21 0.16485368E+00 0.43932274E+03</pdfrwt>
<totfact> 0.24619130E+03</totfact>
</mgrwt>
</event>
<event>
 6    1  0.9094387E-004  0.4548655E+03  0.7818608E-02  0.1026330E+00
         21   -1    0    0  501  502  0.00000000000E+00  0.00000000000E+00  0.97478329874E+03  0.97478329874E+03  0.00000000000E+00 0. -1.
         21   -1    0    0  502  503 -0.00000000000E+00 -0.00000000000E+00 -0.21868891156E+03  0.21868891156E+03  0.00000000000E+00 0. -1.
    9000007    2    1    2  501    0  0.16983123458E+03 -0.13212841665E+03  0.27353123085E+03  0.53077486869E+03  0.40075186870E+03 0.  0.
    9000005    1    3    3    0    0  0.25121613272E+03  0.47089001156E+02  0.12710991373E+03  0.28545551235E+03  0.99999687468E+00 0.  0.
          4    1    3    3  501    0 -0.81384898138E+02 -0.17921741781E+03  0.14642131712E+03  0.24531935635E+03  0.00000000000E+00 0.  1.
   -9000007    1    1    2    0  503 -0.16983123458E+03  0.13212841665E+03  0.48256315633E+03  0.66269734161E+03  0.40000000000E+03 0. -1.
<mgrwt>
<rscale>  2 0.45469984E+03</rscale>
<asrwt>0</asrwt>
<pdfrwt beam="1">  1       21 0.14996666E+00 0.45486550E+03</pdfrwt>
<pdfrwt beam="2">  1       21 0.33644448E-01 0.45486550E+03</pdfrwt>
<totfact> 0.21784475E+03</totfact>
</mgrwt>
</event>
<event>
 6    1  0.9094387E-004  0.5171210E+03  0.7818608E-02  0.1009417E+00
         21   -1    0    0  501  502  0.00000000000E+00  0.00000000000E+00  0.15275572440E+04  0.15275572440E+04  0.00000000000E+00 0. -1.
         21   -1    0    0  502  503 -0.00000000000E+00 -0.00000000000E+00 -0.20235137132E+03  0.20235137132E+03  0.00000000000E+00 0.  1.
    9000007    2    1    2  501    0 -0.16342273885E+03 -0.28372516998E+03  0.98076144496E+03  0.11087412245E+04  0.40025882533E+03 0.  0.
    9000005    1    3    3    0    0 -0.64011982598E+02 -0.15675438689E+03  0.92151838977E+03  0.93694536362E+03  0.99999687468E+00 0.  0.
          4    1    3    3  501    0 -0.99410756257E+02 -0.12697078309E+03  0.59243055192E+02  0.17179586085E+03  0.00000000000E+00 0.  1.
   -9000007    1    1    2    0  503  0.16342273885E+03  0.28372516998E+03  0.34444442769E+03  0.62116739083E+03  0.40000000000E+03 0.  1.
<mgrwt>
<rscale>  2 0.51707088E+03</rscale>
<asrwt>0</asrwt>
<pdfrwt beam="1">  1       21 0.23500880E+00 0.51712096E+03</pdfrwt>
<pdfrwt beam="2">  1       21 0.31130981E-01 0.51712096E+03</pdfrwt>
<totfact> 0.64197532E+02</totfact>
</mgrwt>
</event>
<event>
 6    1  0.9094387E-004  0.5753552E+03  0.7818608E-02  0.9958443E-01
         21   -1    0    0  501  502  0.00000000000E+00  0.00000000000E+00  0.33000837592E+03  0.33000837592E+03  0.00000000000E+00 0.  1.
         21   -1    0    0  502  503 -0.00000000000E+00 -0.00000000000E+00 -0.12978162463E+04  0.12978162463E+04  0.00000000000E+00 0. -1.
    9000007    2    1    2  501    0 -0.39677117877E+03  0.11163025188E+03 -0.87322142208E+03  0.10457290307E+04  0.40142853937E+03 0.  0.
    9000005    1    3    3    0    0 -0.46722821499E+02 -0.87414839175E+01 -0.55658864682E+03  0.55861557207E+03  0.99999687468E+00 0.  0.
          4    1    3    3  501    0 -0.35004835727E+03  0.12037173580E+03 -0.31663277526E+03  0.48711345863E+03  0.00000000000E+00 0.  1.
   -9000007    1    1    2    0  503  0.39677117877E+03 -0.11163025188E+03 -0.94586448267E+02  0.58209559149E+03  0.40000000000E+03 0.  1.
<mgrwt>
<rscale>  2 0.57510605E+03</rscale>
<asrwt>0</asrwt>
<pdfrwt beam="1">  1       21 0.50770520E-01 0.57535515E+03</pdfrwt>
<pdfrwt beam="2">  1       21 0.19966404E+00 0.57535515E+03</pdfrwt>
<totfact> 0.38655645E+02</totfact>
</mgrwt>
</event>
<event>
 6    1  0.9094387E-004  0.6007884E+03  0.7818608E-02  0.9905521E-01
         21   -1    0    0  501  502  0.00000000000E+00  0.00000000000E+00  0.69776504391E+03  0.69776504391E+03  0.00000000000E+00 0.  1.
         21   -1    0    0  502  503 -0.00000000000E+00 -0.00000000000E+00 -0.15726651031E+04  0.15726651031E+04  0.00000000000E+00 0.  1.
    9000007    2    1    2  501    0 -0.98411112971E+02  0.43733503006E+03  0.49418438973E+03  0.77532516610E+03  0.39492306398E+03 0.  0.
    9000005    1    3    3    0    0  0.85034640812E+02  0.31799187214E+03  0.13723865173E+03  0.35663029653E+03  0.99999687468E+00 0.  0.
          4    1    3    3  501    0 -0.18344575378E+03  0.11934315792E+03  0.35694573800E+03  0.41869486957E+03  0.00000000000E+00 0.  1.
   -9000007    1    1    2    0  503  0.98411112971E+02 -0.43733503006E+03 -0.13690844490E+04  0.14951049810E+04  0.40000000000E+03 0.  1.
<mgrwt>
<rscale>  2 0.59994456E+03</rscale>
<asrwt>0</asrwt>
<pdfrwt beam="1">  1       21 0.10734847E+00 0.60078838E+03</pdfrwt>
<pdfrwt beam="2">  1       21 0.24194848E+00 0.60078838E+03</pdfrwt>
<totfact> 0.36411264E+01</totfact>
</mgrwt>
</event>
<event>
 6    1  0.9094387E-004  0.5329655E+03  0.7818608E-02  0.1005699E+00
         21   -1    0    0  501  502  0.00000000000E+00  0.00000000000E+00  0.53699168839E+03  0.53699168839E+03  0.00000000000E+00 0. -1.
         21   -1    0    0  502  503 -0.00000000000E+00 -0.00000000000E+00 -0.53499148182E+03  0.53499148182E+03  0.00000000000E+00 0.  1.
    9000007    2    1    2  501    0  0.70738426730E+02 -0.34503380045E+03 -0.68665408337E+02  0.53435329975E+03  0.39593719475E+03 0.  0.
    9000005    1    3    3    0    0  0.15639537148E+03  0.17025428162E+02 -0.31528704461E+02  0.16045072958E+03  0.99999687468E+00 0.  0.
          4    1    3    3  501    0 -0.85656944747E+02 -0.36205922862E+03 -0.37136703877E+02  0.37390257018E+03  0.00000000000E+00 0.  1.
   -9000007    1    1    2    0  503 -0.70738426730E+02  0.34503380045E+03  0.70665614904E+02  0.53762987045E+03  0.40000000000E+03 0.  1.
<mgrwt>
<rscale>  2 0.53220329E+03</rscale>
<asrwt>0</asrwt>
<pdfrwt beam="1">  1       21 0.82614106E-01 0.53296552E+03</pdfrwt>
<pdfrwt beam="2">  1       21 0.82306382E-01 0.53296552E+03</pdfrwt>
<totfact> 0.13716721E+03</totfact>
</mgrwt>
</event>
<event>
 6    1  0.9094387E-004  0.4715310E+03  0.7818608E-02  0.1021670E+00
         21   -1    0    0  501  502  0.00000000000E+00  0.00000000000E+00  0.20665448622E+04  0.20665448622E+04  0.00000000000E+00 0.  1.
         21   -1    0    0  502  503 -0.00000000000E+00 -0.00000000000E+00 -0.12039508489E+03  0.12039508489E+03  0.00000000000E+00 0. -1.
    9000007    2    1    2  501    0  0.12750942453E+03 -0.21466921054E+03  0.60607830938E+03  0.76632984490E+03  0.39697479867E+03 0.  0.
    9000005    1    3    3    0    0 -0.30198021731E+02  0.93684986555E+02  0.48002182999E+02  0.10951715294E+03  0.99999687468E+00 0.  0.
          4    1    3    3  501    0  0.15770744626E+03 -0.30835419709E+03  0.55807612638E+03  0.65681269196E+03  0.00000000000E+00 0.  1.
   -9000007    1    1    2    0  503 -0.12750942453E+03  0.21466921054E+03  0.13400714680E+04  0.14206101022E+04  0.40000000000E+03 0.  1.
<mgrwt>
<rscale>  2 0.47088884E+03</rscale>
<asrwt>0</asrwt>
<pdfrwt beam="1">  1       21 0.31792995E+00 0.47153104E+03</pdfrwt>
<pdfrwt beam="2">  1       21 0.18522322E-01 0.47153104E+03</pdfrwt>
<totfact> 0.56226112E+02</totfact>
</mgrwt>
</event>
<event>
 6    1  0.9094387E-004  0.4193840E+03  0.7818608E-02  0.1037309E+00
         21   -1    0    0  501  502  0.00000000000E+00  0.00000000000E+00  0.61166182487E+03  0.61166182487E+03  0.00000000000E+00 0.  1.
         21   -1    0    0  502  503 -0.00000000000E+00 -0.00000000000E+00 -0.38646332972E+03  0.38646332972E+03  0.00000000000E+00 0.  1.
    9000007    2    1    2  501    0 -0.12545543074E+03 -0.11995131656E+02  0.36547696259E+03  0.55590236378E+03  0.39946348969E+03 0.  0.
    9000005    1    3    3    0    0  0.12734432006E+03 -0.69806643238E+02  0.65329923576E+02  0.15924365670E+03  0.99999687468E+00 0.  0.
          4    1    3    3  501    0 -0.25279975080E+03  0.57811511581E+02  0.30014703901E+03  0.39665870708E+03  0.00000000000E+00 0.  1.
   -9000007    1    1    2    0  503  0.12545543074E+03  0.11995131656E+02 -0.14027846744E+03  0.44222279081E+03  0.40000000000E+03 0.  1.
<mgrwt>
<rscale>  2 0.41925603E+03</rscale>
<asrwt>0</asrwt>
<pdfrwt beam="1">  1       21 0.94101820E-01 0.41938401E+03</pdfrwt>
<pdfrwt beam="2">  1       21 0.59455897E-01 0.41938401E+03</pdfrwt>
<totfact> 0.21886582E+03</totfact>
</mgrwt>
</event>
<event>
 6    1  0.9094387E-004  0.4862466E+03  0.7818608E-02  0.1017468E+00
         21   -1    0    0  501  502  0.00000000000E+00  0.00000000000E+00  0.18175240583E+03  0.18175240583E+03  0.00000000000E+00 0. -1.
         21   -1    0    0  502  503 -0.00000000000E+00 -0.00000000000E+00 -0.14035993967E+04  0.14035993967E+04  0.00000000000E+00 0.  1.
    9000007    2    1    2  501    0  0.17279758651E+03  0.21461259610E+03 -0.39530005618E+03  0.62665612218E+03  0.40064721231E+03 0.  0.
    9000005    1    3    3    0    0  0.27433683749E+03  0.64566020498E+02 -0.14297923459E+03  0.31602774075E+03  0.99999687468E+00 0.  0.
          4    1    3    3  501    0 -0.10153925098E+03  0.15004657561E+03 -0.25232082159E+03  0.31062838143E+03  0.00000000000E+00 0.  1.
   -9000007    1    1    2    0  503 -0.17279758651E+03 -0.21461259610E+03 -0.82654693472E+03  0.95869568039E+03  0.40000000000E+03 0. -1.
<mgrwt>
<rscale>  2 0.48611327E+03</rscale>
<asrwt>0</asrwt>
<pdfrwt beam="1">  1       21 0.27961908E-01 0.48624661E+03</pdfrwt>
<pdfrwt beam="2">  1       21 0.21593837E+00 0.48624661E+03</pdfrwt>
<totfact> 0.10652243E+03</totfact>
</mgrwt>
</event>
<event>
 6    1  0.9094387E-004  0.4317472E+03  0.7818608E-02  0.1033425E+00
         21   -1    0    0  501  502  0.00000000000E+00  0.00000000000E+00  0.11338421046E+03  0.11338421046E+03  0.00000000000E+00 0. -1.
         21   -1    0    0  502  503 -0.00000000000E+00 -0.00000000000E+00 -0.17109343693E+04  0.17109343693E+04  0.00000000000E+00 0. -1.
    9000007    2    1    2  501    0 -0.14598673234E+03 -0.61839900630E+02 -0.61228845841E+03  0.74920141514E+03  0.40158349669E+03 0.  0.
    9000005    1    3    3    0    0  0.11309992160E+03 -0.11336650378E+03 -0.16642091500E+03  0.23095557449E+03  0.99999687468E+00 0.  0.
          4    1    3    3  501    0 -0.25908665394E+03  0.51526603145E+02 -0.44586754341E+03  0.51824584065E+03  0.00000000000E+00 0.  1.
   -9000007    1    1    2    0  503  0.14598673234E+03  0.61839900630E+02 -0.98526170046E+03  0.10751171646E+04  0.40000000000E+03 0. -1.
<mgrwt>
<rscale>  2 0.43137856E+03</rscale>
<asrwt>0</asrwt>
<pdfrwt beam="1">  1       21 0.17443724E-01 0.43174715E+03</pdfrwt>
<pdfrwt beam="2">  1       21 0.26322068E+00 0.43174715E+03</pdfrwt>
<totfact> 0.13743267E+03</totfact>
</mgrwt>
</event>
<event>
 6    1  0.9094387E-004  0.4951856E+03  0.7818608E-02  0.1015053E+00
         21   -1    0    0  501  502  0.00000000000E+00  0.00000000000E+00  0.11799216086E+04  0.11799216086E+04  0.00000000000E+00 0. -1.
         21   -1    0    0  502  503 -0.00000000000E+00 -0.00000000000E+00 -0.30243731511E+03  0.30243731511E+03  0.00000000000E+00 0. -1.
    9000007    2    1    2  501    0  0.29136121526E+03 -0.13204688190E+02  0.24085181503E+02  0.49577098243E+03  0.40017877193E+03 0.  0.
    9000005    1    3    3    0    0  0.23674733297E+03  0.65068274954E+00 -0.17142973198E+03  0.29229929192E+03  0.99999687468E+00 0.  0.
          4    1    3    3  501    0  0.54613882286E+02 -0.13855370940E+02  0.19551491348E+03  0.20347169050E+03  0.00000000000E+00 0.  1.
   -9000007    1    1    2    0  503 -0.29136121526E+03  0.13204688190E+02  0.85339911198E+03  0.98658794128E+03  0.40000000000E+03 0. -1.
<mgrwt>
<rscale>  2 0.49514947E+03</rscale>
<asrwt>0</asrwt>
<pdfrwt beam="1">  1       21 0.18152640E+00 0.49518559E+03</pdfrwt>
<pdfrwt beam="2">  1       21 0.46528818E-01 0.49518559E+03</pdfrwt>
<totfact> 0.64061069E+02</totfact>
</mgrwt>
</event>
<event>
 6    1  0.9094387E-004  0.5375358E+03  0.7818608E-02  0.1004476E+00
         21   -1    0    0  501  502  0.00000000000E+00  0.00000000000E+00  0.71024292319E+03  0.71024292319E+03  0.00000000000E+00 0. -1.
         21   -1    0    0  502  503 -0.00000000000E+00 -0.00000000000E+00 -0.84231647002E+03  0.84231647002E+03  0.00000000000E+00 0.  1.
    9000007    2    1    2  501    0  0.23371416828E+03 -0.27080154902E+03  0.49255691627E+03  0.72907957752E+03  0.40123424977E+03 0.  0.
    9000005    1    3    3    0    0  0.16583403515E+03 -0.36770209848E+03  0.44754000435E+03  0.60249383062E+03  0.99999687468E+00 0.  0.
          4    1    3    3  501    0  0.67880133126E+02  0.96900549465E+02  0.45016911919E+02  0.12658574690E+03  0.00000000000E+00 0.  1.
   -9000007    1    1    2    0  503 -0.23371416828E+03  0.27080154902E+03 -0.62463046310E+03  0.82347981568E+03  0.40000000000E+03 0.  1.
<mgrwt>
<rscale>  2 0.53730547E+03</rscale>
<asrwt>0</asrwt>
<pdfrwt beam="1">  1       21 0.10926814E+00 0.53753578E+03</pdfrwt>
<pdfrwt beam="2">  1       21 0.12958715E+00 0.53753578E+03</pdfrwt>
<totfact> 0.22824536E+02</totfact>
</mgrwt>
</event>
<event>
 6    1  0.9094387E-004  0.4520801E+03  0.7818608E-02  0.1027132E+00
         21   -1    0    0  501  502  0.00000000000E+00  0.00000000000E+00  0.45881123501E+03  0.45881123501E+03  0.00000000000E+00 0.  1.
         21   -1    0    0  502  503 -0.00000000000E+00 -0.00000000000E+00 -0.51835894906E+03  0.51835894906E+03  0.00000000000E+00 0.  1.
    9000007    2    1    2  501    0  0.14326321621E+03 -0.15444112218E+03 -0.21347681262E+03  0.49960283099E+03  0.39956755357E+03 0.  0.
    9000005    1    3    3    0    0  0.27362878910E+03 -0.11470301587E+03 -0.76560540609E+02  0.30641803545E+03  0.99999687468E+00 0.  0.
          4    1    3    3  501    0 -0.13036557289E+03 -0.39738106305E+02 -0.13691627201E+03  0.19318479554E+03  0.00000000000E+00 0.  1.
   -9000007    1    1    2    0  503 -0.14326321621E+03  0.15444112218E+03  0.15392909858E+03  0.47756735308E+03  0.40000000000E+03 0.  1.
<mgrwt>
<rscale>  2 0.45198442E+03</rscale>
<asrwt>0</asrwt>
<pdfrwt beam="1">  1       21 0.70586343E-01 0.45208009E+03</pdfrwt>
<pdfrwt beam="2">  1       21 0.79747531E-01 0.45208009E+03</pdfrwt>
<totfact> 0.21780684E+03</totfact>
</mgrwt>
</event>
<event>
 6    1  0.9094387E-004  0.4565936E+03  0.7818608E-02  0.1025823E+00
         21   -1    0    0  501  502  0.00000000000E+00  0.00000000000E+00  0.28536736786E+04  0.28536736786E+04  0.00000000000E+00 0.  1.
         21   -1    0    0  502  503 -0.00000000000E+00 -0.00000000000E+00 -0.14406046628E+03  0.14406046628E+03  0.00000000000E+00 0.  1.
    9000007    2    1    2  501    0  0.21564771573E+03 -0.36953668238E+02  0.24083832860E+04  0.24512828850E+04  0.40075955289E+03 0.  0.
    9000005    1    3    3    0    0 -0.78202897147E+02 -0.11663045217E+03  0.52531652139E+03  0.54376171540E+03  0.99999687468E+00 0.  0.
          4    1    3    3  501    0  0.29385061288E+03  0.79676783935E+02  0.18830667646E+04  0.19075211696E+04  0.00000000000E+00 0.  1.
   -9000007    1    1    2    0  503 -0.21564771573E+03  0.36953668238E+02  0.30122992636E+03  0.54645125989E+03  0.40000000000E+03 0.  1.
<mgrwt>
<rscale>  2 0.45642689E+03</rscale>
<asrwt>0</asrwt>
<pdfrwt beam="1">  1       21 0.43902668E+00 0.45659362E+03</pdfrwt>
<pdfrwt beam="2">  1       21 0.22163151E-01 0.45659362E+03</pdfrwt>
<totfact> 0.69306298E+01</totfact>
</mgrwt>
</event>
<event>
 6    1  0.9094387E-004  0.5980131E+03  0.7818608E-02  0.9909567E-01
         21   -1    0    0  501  502  0.00000000000E+00  0.00000000000E+00  0.11303151111E+04  0.11303151111E+04  0.00000000000E+00 0.  1.
         21   -1    0    0  502  503 -0.00000000000E+00 -0.00000000000E+00 -0.92809656851E+03  0.92809656851E+03  0.00000000000E+00 0.  1.
    9000007    2    1    2  501    0 -0.31021553486E+03 -0.31830146611E+03  0.93669182336E+03  0.11113105754E+04  0.40008764234E+03 0.  0.
    9000005    1    3    3    0    0 -0.16310009107E+02  0.23635288349E+02 -0.31888382939E+02  0.42924494320E+02  0.99999687468E+00 0.  0.
          4    1    3    3  501    0 -0.29390552575E+03 -0.34193675445E+03  0.96858020630E+03  0.10683860810E+04  0.00000000000E+00 0.  1.
   -9000007    1    1    2    0  503  0.31021553486E+03  0.31830146611E+03 -0.73447328080E+03  0.94710110422E+03  0.40000000000E+03 0.  1.
<mgrwt>
<rscale>  2 0.59799840E+03</rscale>
<asrwt>0</asrwt>
<pdfrwt beam="1">  1       21 0.17389463E+00 0.59801306E+03</pdfrwt>
<pdfrwt beam="2">  1       21 0.14278409E+00 0.59801306E+03</pdfrwt>
<totfact> 0.49641968E+01</totfact>
</mgrwt>
</event>
<event>
 6    1  0.9094387E-004  0.5179422E+03  0.7818608E-02  0.1009208E+00
         21   -1    0    0  501  502  0.00000000000E+00  0.00000000000E+00  0.16731971642E+04  0.16731971642E+04  0.00000000000E+00 0. -1.
         21   -1    0    0  502  503 -0.00000000000E+00 -0.00000000000E+00 -0.21902472123E+03  0.21902472123E+03  0.00000000000E+00 0. -1.
    9000007    2    1    2  501    0  0.19727119023E+03 -0.26334038907E+03  0.12169758449E+04  0.13225497787E+04  0.39980448631E+03 0.  0.
    9000005    1    3    3    0    0  0.31534764924E+03 -0.16837205922E+03  0.95766221810E+03  0.10222089875E+04  0.99999687468E+00 0.  0.
          4    1    3    3  501    0 -0.11807645901E+03 -0.94968329855E+02  0.25931362675E+03  0.30034079121E+03  0.00000000000E+00 0.  1.
   -9000007    1    1    2    0  503 -0.19727119023E+03  0.26334038907E+03  0.23719659815E+03  0.56967210673E+03  0.40000000000E+03 0. -1.
<mgrwt>
<rscale>  2 0.51790441E+03</rscale>
<asrwt>0</asrwt>
<pdfrwt beam="1">  1       21 0.25741494E+00 0.51794216E+03</pdfrwt>
<pdfrwt beam="2">  1       21 0.33696112E-01 0.51794216E+03</pdfrwt>
<totfact> 0.39729819E+02</totfact>
</mgrwt>
</event>
<event>
 6    1  0.9094387E-004  0.6952559E+03  0.7818608E-02  0.9725503E-01
         21   -1    0    0  501  502  0.00000000000E+00  0.00000000000E+00  0.30738522145E+03  0.30738522145E+03  0.00000000000E+00 0. -1.
         21   -1    0    0  502  503 -0.00000000000E+00 -0.00000000000E+00 -0.16987365317E+04  0.16987365317E+04  0.00000000000E+00 0. -1.
    9000007    2    1    2  501    0 -0.10590814807E+03 -0.55836067287E+03 -0.42173338988E+03  0.81316656191E+03  0.40049672713E+03 0.  0.
    9000005    1    3    3    0    0  0.11854685167E+03 -0.39111297928E+03 -0.19439186331E+03  0.45256150424E+03  0.99999687468E+00 0.  0.
          4    1    3    3  501    0 -0.22445499974E+03 -0.16724769358E+03 -0.22734152657E+03  0.36060505767E+03  0.00000000000E+00 0.  1.
   -9000007    1    1    2    0  503  0.10590814807E+03  0.55836067287E+03 -0.96961792039E+03  0.11929551913E+04  0.40000000000E+03 0. -1.
<mgrwt>
<rscale>  2 0.69518441E+03</rscale>
<asrwt>0</asrwt>
<pdfrwt beam="1">  1       21 0.47290034E-01 0.69525593E+03</pdfrwt>
<pdfrwt beam="2">  1       21 0.26134408E+00 0.69525593E+03</pdfrwt>
<totfact> 0.17302875E+02</totfact>
</mgrwt>
</event>
<event>
 6    1  0.9094387E-004  0.4669513E+03  0.7818608E-02  0.1022955E+00
         21   -1    0    0  501  502  0.00000000000E+00  0.00000000000E+00  0.79723887284E+03  0.79723887284E+03  0.00000000000E+00 0. -1.
         21   -1    0    0  502  503 -0.00000000000E+00 -0.00000000000E+00 -0.35666451285E+03  0.35666451285E+03  0.00000000000E+00 0.  1.
    9000007    2    1    2  501    0 -0.17239717762E+03 -0.16829349202E+03  0.50079171961E+03  0.68308535639E+03  0.39720243124E+03 0.  0.
    9000005    1    3    3    0    0  0.10579215850E+03  0.33023317601E+02  0.65817557175E+02  0.12890101292E+03  0.99999687468E+00 0.  0.
          4    1    3    3  501    0 -0.27818933612E+03 -0.20131680962E+03  0.43497416244E+03  0.55418434348E+03  0.00000000000E+00 0.  1.
   -9000007    1    1    2    0  503  0.17239717762E+03  0.16829349202E+03 -0.60217359629E+02  0.47081802929E+03  0.40000000000E+03 0.  1.
<mgrwt>
<rscale>  2 0.46635156E+03</rscale>
<asrwt>0</asrwt>
<pdfrwt beam="1">  1       21 0.12265213E+00 0.46695127E+03</pdfrwt>
<pdfrwt beam="2">  1       21 0.54871464E-01 0.46695127E+03</pdfrwt>
<totfact> 0.13290601E+03</totfact>
</mgrwt>
</event>
<event>
 6    1  0.9094387E-004  0.5041284E+03  0.7818608E-02  0.1012710E+00
         21   -1    0    0  501  502  0.00000000000E+00  0.00000000000E+00  0.29441337553E+03  0.29441337553E+03  0.00000000000E+00 0. -1.
         21   -1    0    0  502  503 -0.00000000000E+00 -0.00000000000E+00 -0.89169345456E+03  0.89169345456E+03  0.00000000000E+00 0. -1.
    9000007    2    1    2  501    0  0.22874740996E+03  0.20439627359E+03 -0.19255507737E+03  0.53965068990E+03  0.40005274035E+03 0.  0.
    9000005    1    3    3    0    0  0.32767435552E+03  0.66501586659E+02 -0.13172827164E+03  0.35936928337E+03  0.99999687468E+00 0.  0.
          4    1    3    3  501    0 -0.98926945557E+02  0.13789468693E+03 -0.60826805730E+02  0.18028140652E+03  0.00000000000E+00 0.  1.
   -9000007    1    1    2    0  503 -0.22874740996E+03 -0.20439627359E+03 -0.40472500166E+03  0.64645614019E+03  0.40000000000E+03 0. -1.
<mgrwt>
<rscale>  2 0.50411790E+03</rscale>
<asrwt>0</asrwt>
<pdfrwt beam="1">  1       21 0.45294365E-01 0.50412837E+03</pdfrwt>
<pdfrwt beam="2">  1       21 0.13718361E+00 0.50412837E+03</pdfrwt>
<totfact> 0.14740292E+03</totfact>
</mgrwt>
</event>
<event>
 6    1  0.9094387E-004  0.4526537E+03  0.7818608E-02  0.1026987E+00
         21   -1    0    0  501  502  0.00000000000E+00  0.00000000000E+00  0.59188047094E+03  0.59188047094E+03  0.00000000000E+00 0. -1.
         21   -1    0    0  502  503 -0.00000000000E+00 -0.00000000000E+00 -0.36029565144E+03  0.36029565144E+03  0.00000000000E+00 0.  1.
    9000007    2    1    2  501    0 -0.68372383660E+02 -0.19893133348E+03  0.21193185633E+03  0.49981045476E+03  0.40080783510E+03 0.  0.
    9000005    1    3    3    0    0  0.35851705086E+02  0.78850245568E+02  0.18206322233E+03  0.20162024428E+03  0.99999687468E+00 0.  0.
          4    1    3    3  501    0 -0.10422408875E+03 -0.27778157904E+03  0.29868634002E+02  0.29819021048E+03  0.00000000000E+00 0.  1.
   -9000007    1    1    2    0  503  0.68372383660E+02  0.19893133348E+03  0.19652963170E+02  0.45236566763E+03  0.40000000000E+03 0.  1.
<mgrwt>
<rscale>  2 0.45247481E+03</rscale>
<asrwt>0</asrwt>
<pdfrwt beam="1">  1       21 0.91058534E-01 0.45265371E+03</pdfrwt>
<pdfrwt beam="2">  1       21 0.55430100E-01 0.45265371E+03</pdfrwt>
<totfact> 0.27220399E+03</totfact>
</mgrwt>
</event>
<event>
 6    1  0.9094387E-004  0.4690906E+03  0.7818608E-02  0.1022185E+00
         21   -1    0    0  501  502  0.00000000000E+00  0.00000000000E+00  0.77233667442E+03  0.77233667442E+03  0.00000000000E+00 0.  1.
         21   -1    0    0  502  503 -0.00000000000E+00 -0.00000000000E+00 -0.85118117058E+03  0.85118117058E+03  0.00000000000E+00 0.  1.
    9000007    2    1    2  501    0 -0.36078064314E+02  0.24215053320E+03  0.62272432537E+03  0.77963555534E+03  0.40013436030E+03 0.  0.
    9000005    1    3    3    0    0 -0.17994977611E+03 -0.40232184273E+01  0.19290491153E+03  0.26383974889E+03  0.99999687468E+00 0.  0.
          4    1    3    3  501    0  0.14387171179E+03  0.24617375162E+03  0.42981941384E+03  0.51579580645E+03  0.00000000000E+00 0.  1.
   -9000007    1    1    2    0  503  0.36078064314E+02 -0.24215053320E+03 -0.70156882153E+03  0.84388228966E+03  0.40000000000E+03 0.  1.
<mgrwt>
<rscale>  2 0.46906197E+03</rscale>
<asrwt>0</asrwt>
<pdfrwt beam="1">  1       21 0.11882103E+00 0.46909062E+03</pdfrwt>
<pdfrwt beam="2">  1       21 0.13095095E+00 0.46909062E+03</pdfrwt>
<totfact> 0.18565670E+02</totfact>
</mgrwt>
</event>
<event>
 6    1  0.9094387E-004  0.4889363E+03  0.7818608E-02  0.1016761E+00
         21   -1    0    0  501  502  0.00000000000E+00  0.00000000000E+00  0.14124960100E+03  0.14124960100E+03  0.00000000000E+00 0. -1.
         21   -1    0    0  502  503 -0.00000000000E+00 -0.00000000000E+00 -0.16983633680E+04  0.16983633680E+04  0.00000000000E+00 0.  1.
    9000007    2    1    2  501    0 -0.15764688391E+03  0.23114506730E+03 -0.84488111310E+03  0.97615715923E+03  0.40097147294E+03 0.  0.
    9000005    1    3    3    0    0 -0.15336975215E+03  0.72627961203E+02 -0.67277931795E+02  0.18254977875E+03  0.99999687468E+00 0.  0.
          4    1    3    3  501    0 -0.42771317639E+01  0.15851710610E+03 -0.77760318130E+03  0.79360738048E+03  0.00000000000E+00 0.  1.
   -9000007    1    1    2    0  503  0.15764688391E+03 -0.23114506730E+03 -0.71223265394E+03  0.86345580980E+03  0.40000000000E+03 0. -1.
<mgrwt>
<rscale>  2 0.48873708E+03</rscale>
<asrwt>0</asrwt>
<pdfrwt beam="1">  1       21 0.21730709E-01 0.48893630E+03</pdfrwt>
<pdfrwt beam="2">  1       21 0.26128665E+00 0.48893630E+03</pdfrwt>
<totfact> 0.90431380E+02</totfact>
</mgrwt>
</event>
<event>
 6    1  0.9094387E-004  0.5391462E+03  0.7818608E-02  0.1004114E+00
         21   -1    0    0  501  502  0.00000000000E+00  0.00000000000E+00  0.36679900526E+03  0.36679900526E+03  0.00000000000E+00 0. -1.
         21   -1    0    0  502  503 -0.00000000000E+00 -0.00000000000E+00 -0.79372012402E+03  0.79372012402E+03  0.00000000000E+00 0.  1.
    9000007    2    1    2  501    0  0.33223000604E+03  0.14248438659E+03 -0.17670522727E+03  0.56613998287E+03  0.39826017315E+03 0.  0.
    9000005    1    3    3    0    0  0.12791199546E+03 -0.12846592779E+03  0.46870437442E+01  0.18135032826E+03  0.99999687468E+00 0.  0.
          4    1    3    3  501    0  0.20431801058E+03  0.27095031438E+03 -0.18139227101E+03  0.38478965461E+03  0.00000000000E+00 0.  1.
   -9000007    1    1    2    0  503 -0.33223000604E+03 -0.14248438659E+03 -0.25021589149E+03  0.59437914641E+03  0.40000000000E+03 0. -1.
<mgrwt>
<rscale>  2 0.53882348E+03</rscale>
<asrwt>0</asrwt>
<pdfrwt beam="1">  1       21 0.56430617E-01 0.53914616E+03</pdfrwt>
<pdfrwt beam="2">  1       21 0.12211079E+00 0.53914616E+03</pdfrwt>
<totfact> 0.12325554E+03</totfact>
</mgrwt>
</event>
<event>
 6    1  0.9094387E-004  0.5046679E+03  0.7818608E-02  0.1012633E+00
         21   -1    0    0  501  502  0.00000000000E+00  0.00000000000E+00  0.19216845958E+04  0.19216845958E+04  0.00000000000E+00 0.  1.
         21   -1    0    0  502  503 -0.00000000000E+00 -0.00000000000E+00 -0.19947578436E+03  0.19947578436E+03  0.00000000000E+00 0.  1.
    9000007    2    1    2  501    0 -0.30384079058E+03  0.36839002895E+02  0.14772740982E+04  0.15610984622E+04  0.40126463781E+03 0.  0.
    9000005    1    3    3    0    0 -0.22880979237E+03 -0.35902634019E+01  0.28372530372E+03  0.36451043749E+03  0.99999687468E+00 0.  0.
          4    1    3    3  501    0 -0.75030998218E+02  0.40429266297E+02  0.11935487944E+04  0.11965880247E+04  0.00000000000E+00 0.  1.
   -9000007    1    1    2    0  503  0.30384079058E+03 -0.36839002895E+02  0.24493471333E+03  0.56006191796E+03  0.40000000000E+03 0.  1.
<mgrwt>
<rscale>  2 0.50441644E+03</rscale>
<asrwt>0</asrwt>
<pdfrwt beam="1">  1       21 0.29564377E+00 0.50466786E+03</pdfrwt>
<pdfrwt beam="2">  1       21 0.30688584E-01 0.50466786E+03</pdfrwt>
<totfact> 0.28255426E+02</totfact>
</mgrwt>
</event>
<event>
 6    1  0.9094387E-004  0.4141237E+03  0.7818608E-02  0.1038998E+00
         21   -1    0    0  501  502  0.00000000000E+00  0.00000000000E+00  0.10669175042E+04  0.10669175042E+04  0.00000000000E+00 0. -1.
         21   -1    0    0  502  503 -0.00000000000E+00 -0.00000000000E+00 -0.16164479576E+03  0.16164479576E+03  0.00000000000E+00 0. -1.
    9000007    2    1    2  501    0 -0.41230026428E+02 -0.98987672180E+02  0.40653121444E+03  0.58030189536E+03  0.39998023342E+03 0.  0.
    9000005    1    3    3    0    0 -0.81097936223E+02 -0.18053507390E+02  0.46527912645E+03  0.47263989452E+03  0.99999687468E+00 0.  0.
          4    1    3    3  501    0  0.39867909795E+02 -0.80934164790E+02 -0.58747912004E+02  0.10766200085E+03  0.00000000000E+00 0.  1.
   -9000007    1    1    2    0  503  0.41230026428E+02  0.98987672180E+02  0.49874149395E+03  0.64826040455E+03  0.40000000000E+03 0. -1.
<mgrwt>
<rscale>  2 0.41411897E+03</rscale>
<asrwt>0</asrwt>
<pdfrwt beam="1">  1       21 0.16414115E+00 0.41412374E+03</pdfrwt>
<pdfrwt beam="2">  1       21 0.24868431E-01 0.41412374E+03</pdfrwt>
<totfact> 0.31370431E+03</totfact>
</mgrwt>
</event>
<event>
 6    1  0.9094387E-004  0.5626632E+03  0.7818608E-02  0.9986051E-01
         21   -1    0    0  501  502  0.00000000000E+00  0.00000000000E+00  0.14088523160E+04  0.14088523160E+04  0.00000000000E+00 0. -1.
         21   -1    0    0  502  503 -0.00000000000E+00 -0.00000000000E+00 -0.33300695616E+03  0.33300695616E+03  0.00000000000E+00 0.  1.
    9000007    2    1    2  501    0  0.23774292467E+03  0.31632089753E+03  0.10345881379E+04  0.11776937230E+04  0.40001160188E+03 0.  0.
    9000005    1    3    3    0    0  0.63837748009E+02  0.34881749171E+03  0.85490175420E+03  0.92553060993E+03  0.99999687468E+00 0.  0.
          4    1    3    3  501    0  0.17390517666E+03 -0.32496594175E+02  0.17968638374E+03  0.25216311309E+03  0.00000000000E+00 0.  1.
   -9000007    1    1    2    0  503 -0.23774292467E+03 -0.31632089753E+03  0.41257221878E+02  0.56416554911E+03  0.40000000000E+03 0.  1.
<mgrwt>
<rscale>  2 0.56266115E+03</rscale>
<asrwt>0</asrwt>
<pdfrwt beam="1">  1       21 0.21674651E+00 0.56266321E+03</pdfrwt>
<pdfrwt beam="2">  1       21 0.51231840E-01 0.56266321E+03</pdfrwt>
<totfact> 0.29380232E+02</totfact>
</mgrwt>
</event>
<event>
 6    1  0.9094387E-004  0.4350502E+03  0.7818608E-02  0.1032455E+00
         21   -1    0    0  501  502  0.00000000000E+00  0.00000000000E+00  0.44925862908E+03  0.44925862908E+03  0.00000000000E+00 0.  1.
         21   -1    0    0  502  503 -0.00000000000E+00 -0.00000000000E+00 -0.50645854590E+03  0.50645854590E+03  0.00000000000E+00 0. -1.
    9000007    2    1    2  501    0 -0.47018421806E+02 -0.16449303450E+03  0.16995642180E+03  0.46493342163E+03  0.39750372432E+03 0.  0.
    9000005    1    3    3    0    0  0.10498325718E+03  0.30215925021E+01 -0.76855276252E+02  0.13014740793E+03  0.99999687468E+00 0.  0.
          4    1    3    3  501    0 -0.15200167899E+03 -0.16751462700E+03  0.24681169805E+03  0.33478601370E+03  0.00000000000E+00 0.  1.
   -9000007    1    1    2    0  503  0.47018421806E+02  0.16449303450E+03 -0.22715633862E+03  0.49078375336E+03  0.40000000000E+03 0. -1.
<mgrwt>
<rscale>  2 0.43447557E+03</rscale>
<asrwt>0</asrwt>
<pdfrwt beam="1">  1       21 0.69116712E-01 0.43505022E+03</pdfrwt>
<pdfrwt beam="2">  1       21 0.77916699E-01 0.43505022E+03</pdfrwt>
<totfact> 0.24244645E+03</totfact>
</mgrwt>
</event>
<event>
 6    1  0.9094387E-004  0.6074293E+03  0.7818608E-02  0.9890176E-01
         21   -1    0    0  501  502  0.00000000000E+00  0.00000000000E+00  0.23082355999E+04  0.23082355999E+04  0.00000000000E+00 0. -1.
         21   -1    0    0  502  503 -0.00000000000E+00 -0.00000000000E+00 -0.16517108444E+03  0.16517108444E+03  0.00000000000E+00 0. -1.
    9000007    2    1    2  501    0 -0.28594678023E+03  0.35644369760E+03  0.12943106623E+04  0.14297588635E+04  0.40019076269E+03 0.  0.
    9000005    1    3    3    0    0 -0.18660734244E+03  0.43936359888E+03  0.98973276682E+03  0.10988333004E+04  0.99999687468E+00 0.  0.
          4    1    3    3  501    0 -0.99339437789E+02 -0.82919901275E+02  0.30457789548E+03  0.33092556314E+03  0.00000000000E+00 0.  1.
   -9000007    1    1    2    0  503  0.28594678023E+03 -0.35644369760E+03  0.84875385318E+03  0.10436478209E+04  0.40000000000E+03 0. -1.
<mgrwt>
<rscale>  2 0.60739785E+03</rscale>
<asrwt>0</asrwt>
<pdfrwt beam="1">  1       21 0.35511315E+00 0.60742927E+03</pdfrwt>
<pdfrwt beam="2">  1       21 0.25410938E-01 0.60742927E+03</pdfrwt>
<totfact> 0.16886384E+02</totfact>
</mgrwt>
</event>
<event>
 6    1  0.9094387E-004  0.6188791E+03  0.7818608E-02  0.9869839E-01
         21   -1    0    0  501  502  0.00000000000E+00  0.00000000000E+00  0.40509838187E+03  0.40509838187E+03  0.00000000000E+00 0.  1.
         21   -1    0    0  502  503 -0.00000000000E+00 -0.00000000000E+00 -0.94863304219E+03  0.94863304219E+03  0.00000000000E+00 0. -1.
    9000007    2    1    2  501    0  0.30046434159E+03  0.35459853435E+03 -0.34851300415E+03  0.71026239800E+03  0.40864705900E+03 0.  0.
    9000005    1    3    3    0    0  0.14211402235E+03  0.19430598767E+03 -0.41111270797E+03  0.47640935218E+03  0.99999687468E+00 0.  0.
          4    1    3    3  501    0  0.15835031924E+03  0.16029254667E+03  0.62599703825E+02  0.23385304582E+03  0.00000000000E+00 0.  1.
   -9000007    1    1    2    0  503 -0.30046434159E+03 -0.35459853435E+03 -0.19502165618E+03  0.64346902606E+03  0.40000000000E+03 0. -1.
<mgrwt>
<rscale>  2 0.61745539E+03</rscale>
<asrwt>0</asrwt>
<pdfrwt beam="1">  1       21 0.62322828E-01 0.61887912E+03</pdfrwt>
<pdfrwt beam="2">  1       21 0.14594355E+00 0.61887912E+03</pdfrwt>
<totfact> 0.60280280E+02</totfact>
</mgrwt>
</event>
<event>
 6    1  0.9094387E-004  0.4769841E+03  0.7818608E-02  0.1020010E+00
         21   -1    0    0  501  502  0.00000000000E+00  0.00000000000E+00  0.35746589961E+03  0.35746589961E+03  0.00000000000E+00 0.  1.
         21   -1    0    0  502  503 -0.00000000000E+00 -0.00000000000E+00 -0.63687771977E+03  0.63687771977E+03  0.00000000000E+00 0. -1.
    9000007    2    1    2  501    0 -0.13372715465E+02 -0.25836042308E+03 -0.11791911633E+03  0.49134378725E+03  0.40073041005E+03 0.  0.
    9000005    1    3    3    0    0  0.16424560828E+03 -0.18811532852E+02 -0.98625348807E+02  0.19250572206E+03  0.99999687468E+00 0.  0.
          4    1    3    3  501    0 -0.17761832374E+03 -0.23954889023E+03 -0.19293767528E+02  0.29883806519E+03  0.00000000000E+00 0.  1.
   -9000007    1    1    2    0  503  0.13372715465E+02  0.25836042308E+03 -0.16149270383E+03  0.50299983213E+03  0.40000000000E+03 0. -1.
<mgrwt>
<rscale>  2 0.47683062E+03</rscale>
<asrwt>0</asrwt>
<pdfrwt beam="1">  1       21 0.54994754E-01 0.47698407E+03</pdfrwt>
<pdfrwt beam="2">  1       21 0.97981187E-01 0.47698407E+03</pdfrwt>
<totfact> 0.23030629E+03</totfact>
</mgrwt>
</event>
<event>
 6    1  0.9094387E-004  0.4075260E+03  0.7818608E-02  0.1041230E+00
         21   -1    0    0  501  502  0.00000000000E+00  0.00000000000E+00  0.22550468091E+03  0.22550468091E+03  0.00000000000E+00 0.  1.
         21   -1    0    0  502  503 -0.00000000000E+00 -0.00000000000E+00 -0.73730060902E+03  0.73730060902E+03  0.00000000000E+00 0.  1.
    9000007    2    1    2  501    0 -0.57753361012E+02 -0.52364016174E+02 -0.27667024882E+03  0.49231456106E+03  0.39968707704E+03 0.  0.
    9000005    1    3    3    0    0  0.13866238616E+03  0.27031666825E+02  0.31866329161E+01  0.14131214729E+03  0.99999687468E+00 0.  0.
          4    1    3    3  501    0 -0.19641574718E+03 -0.79395682998E+02 -0.27985688174E+03  0.35100241377E+03  0.00000000000E+00 0.  1.
   -9000007    1    1    2    0  503  0.57753361012E+02  0.52364016174E+02 -0.23512567929E+03  0.47049072888E+03  0.40000000000E+03 0.  1.
<mgrwt>
<rscale>  2 0.40744919E+03</rscale>
<asrwt>0</asrwt>
<pdfrwt beam="1">  1       21 0.34693027E-01 0.40752600E+03</pdfrwt>
<pdfrwt beam="2">  1       21 0.11343086E+00 0.40752600E+03</pdfrwt>
<totfact> 0.43085666E+03</totfact>
</mgrwt>
</event>
<event>
 6    1  0.9094387E-004  0.7289454E+03  0.7818608E-02  0.9669122E-01
         21   -1    0    0  501  502  0.00000000000E+00  0.00000000000E+00  0.11248922288E+04  0.11248922288E+04  0.00000000000E+00 0. -1.
         21   -1    0    0  502  503 -0.00000000000E+00 -0.00000000000E+00 -0.49633607526E+03  0.49633607526E+03  0.00000000000E+00 0. -1.
    9000007    2    1    2  501    0  0.35292787670E+02  0.60837141127E+03  0.13518671990E+03  0.74101540201E+03  0.39933322159E+03 0.  0.
    9000005    1    3    3    0    0 -0.12651449370E+03  0.35759821559E+03  0.20967906529E+03  0.43341517200E+03  0.99999687468E+00 0.  0.
          4    1    3    3  501    0  0.16180728137E+03  0.25077319568E+03 -0.74492345390E+02  0.30760023001E+03  0.00000000000E+00 0.  1.
   -9000007    1    1    2    0  503 -0.35292787670E+02 -0.60837141127E+03  0.49336943368E+03  0.88021290209E+03  0.40000000000E+03 0. -1.
<mgrwt>
<rscale>  2 0.72885394E+03</rscale>
<asrwt>0</asrwt>
<pdfrwt beam="1">  1       21 0.17306034E+00 0.72894537E+03</pdfrwt>
<pdfrwt beam="2">  1       21 0.76359396E-01 0.72894537E+03</pdfrwt>
<totfact> 0.22746629E+02</totfact>
</mgrwt>
</event>
<event>
 6    1  0.9094387E-004  0.4171532E+03  0.7818608E-02  0.1038040E+00
         21   -1    0    0  501  502  0.00000000000E+00  0.00000000000E+00  0.12366142819E+03  0.12366142819E+03  0.00000000000E+00 0.  1.
         21   -1    0    0  502  503 -0.00000000000E+00 -0.00000000000E+00 -0.14061843713E+04  0.14061843713E+04  0.00000000000E+00 0.  1.
    9000007    2    1    2  501    0 -0.11148423364E+03  0.33879978058E+02 -0.62386779166E+03  0.75048503848E+03  0.40054985238E+03 0.  0.
    9000005    1    3    3    0    0  0.82403157926E+02  0.13270849242E+03 -0.10609063443E+03  0.18883338450E+03  0.99999687468E+00 0.  0.
          4    1    3    3  501    0 -0.19388739157E+03 -0.98828514357E+02 -0.51777715723E+03  0.56165165397E+03  0.00000000000E+00 0.  1.
   -9000007    1    1    2    0  503  0.11148423364E+03 -0.33879978058E+02 -0.65865515141E+03  0.77936076097E+03  0.40000000000E+03 0.  1.
<mgrwt>
<rscale>  2 0.41702113E+03</rscale>
<asrwt>0</asrwt>
<pdfrwt beam="1">  1       21 0.19024834E-01 0.41715318E+03</pdfrwt>
<pdfrwt beam="2">  1       21 0.21633607E+00 0.41715318E+03</pdfrwt>
<totfact> 0.22977557E+03</totfact>
</mgrwt>
</event>
<event>
 6    1  0.9094387E-004  0.4451279E+03  0.7818608E-02  0.1029236E+00
         21   -1    0    0  501  502  0.00000000000E+00  0.00000000000E+00  0.73578087105E+03  0.73578087105E+03  0.00000000000E+00 0.  1.
         21   -1    0    0  502  503 -0.00000000000E+00 -0.00000000000E+00 -0.32671865615E+03  0.32671865615E+03  0.00000000000E+00 0.  1.
    9000007    2    1    2  501    0 -0.12657570773E+03  0.14668280831E+03 -0.18860061502E+02  0.44552729874E+03  0.40075131436E+03 0.  0.
    9000005    1    3    3    0    0  0.11803994392E+03 -0.45398245153E+02  0.31802985848E+02  0.13041034823E+03  0.99999687468E+00 0.  0.
          4    1    3    3  501    0 -0.24461565165E+03  0.19208105346E+03 -0.50663047350E+02  0.31511695051E+03  0.00000000000E+00 0.  1.
   -9000007    1    1    2    0  503  0.12657570773E+03 -0.14668280831E+03  0.42792227640E+03  0.61697222845E+03  0.40000000000E+03 0.  1.
<mgrwt>
<rscale>  2 0.44495876E+03</rscale>
<asrwt>0</asrwt>
<pdfrwt beam="1">  1       21 0.11319706E+00 0.44512793E+03</pdfrwt>
<pdfrwt beam="2">  1       21 0.50264409E-01 0.44512793E+03</pdfrwt>
<totfact> 0.19808861E+03</totfact>
</mgrwt>
</event>
<event>
 6    1  0.9094387E-004  0.4383958E+03  0.7818608E-02  0.1031327E+00
         21   -1    0    0  501  502  0.00000000000E+00  0.00000000000E+00  0.82487371988E+03  0.82487371988E+03  0.00000000000E+00 0.  1.
         21   -1    0    0  502  503 -0.00000000000E+00 -0.00000000000E+00 -0.27004546658E+03  0.27004546658E+03  0.00000000000E+00 0.  1.
    9000007    2    1    2  501    0  0.15252737602E+03 -0.94479041407E+02  0.48152649284E+03  0.65043742329E+03  0.39876081630E+03 0.  0.
    9000005    1    3    3    0    0  0.11206591520E+03 -0.27234770919E+02 -0.40733431649E+02  0.12231399979E+03  0.99999687468E+00 0.  0.
          4    1    3    3  501    0  0.40461460818E+02 -0.67244270488E+02  0.52225992449E+03  0.52812342350E+03  0.00000000000E+00 0.  1.
   -9000007    1    1    2    0  503 -0.15252737602E+03  0.94479041407E+02  0.73301760458E+02  0.44448176317E+03  0.40000000000E+03 0.  1.
<mgrwt>
<rscale>  2 0.43811295E+03</rscale>
<asrwt>0</asrwt>
<pdfrwt beam="1">  1       21 0.12690365E+00 0.43839581E+03</pdfrwt>
<pdfrwt beam="2">  1       21 0.41545457E-01 0.43839581E+03</pdfrwt>
<totfact> 0.22167623E+03</totfact>
</mgrwt>
</event>
<event>
 6    1  0.9094387E-004  0.5111935E+03  0.7818608E-02  0.1010928E+00
         21   -1    0    0  501  502  0.00000000000E+00  0.00000000000E+00  0.14459431870E+04  0.14459431870E+04  0.00000000000E+00 0.  1.
         21   -1    0    0  502  503 -0.00000000000E+00 -0.00000000000E+00 -0.23147909840E+03  0.23147909840E+03  0.00000000000E+00 0.  1.
    9000007    2    1    2  501    0 -0.38894921164E+02  0.31514029956E+03  0.10008403307E+04  0.11238327866E+04  0.40061520363E+03 0.  0.
    9000005    1    3    3    0    0 -0.15076632103E+03  0.21130499465E+03  0.25987301415E+03  0.36730813740E+03  0.99999687468E+00 0.  0.
          4    1    3    3  501    0  0.11187139987E+03  0.10383530491E+03  0.74096731651E+03  0.75652464916E+03  0.00000000000E+00 0.  1.
   -9000007    1    1    2    0  503  0.38894921164E+02 -0.31514029956E+03  0.21362375799E+03  0.55358949889E+03  0.40000000000E+03 0.  1.
<mgrwt>
<rscale>  2 0.51107293E+03</rscale>
<asrwt>0</asrwt>
<pdfrwt beam="1">  1       21 0.22245279E+00 0.51119347E+03</pdfrwt>
<pdfrwt beam="2">  1       21 0.35612170E-01 0.51119347E+03</pdfrwt>
<totfact> 0.58945212E+02</totfact>
</mgrwt>
</event>
<event>
 6    1  0.9094387E-004  0.7087204E+03  0.7818608E-02  0.9702454E-01
         21   -1    0    0  501  502  0.00000000000E+00  0.00000000000E+00  0.14641673864E+04  0.14641673864E+04  0.00000000000E+00 0.  1.
         21   -1    0    0  502  503 -0.00000000000E+00 -0.00000000000E+00 -0.45069123048E+03  0.45069123048E+03  0.00000000000E+00 0.  1.
    9000007    2    1    2  501    0  0.58413199740E+03 -0.31777682345E+02  0.97469921217E+03  0.12051236925E+04  0.40008067752E+03 0.  0.
    9000005    1    3    3    0    0  0.34153429427E+03  0.21629239937E+02  0.21099662390E+03  0.40203740308E+03  0.99999687468E+00 0.  0.
          4    1    3    3  501    0  0.24259770312E+03 -0.53406922283E+02  0.76370258827E+03  0.80308628941E+03  0.00000000000E+00 0.  1.
   -9000007    1    1    2    0  503 -0.58413199740E+03  0.31777682345E+02  0.38776943704E+02  0.70973492435E+03  0.40000000000E+03 0.  1.
<mgrwt>
<rscale>  2 0.70870898E+03</rscale>
<asrwt>0</asrwt>
<pdfrwt beam="1">  1       21 0.22525652E+00 0.70872037E+03</pdfrwt>
<pdfrwt beam="2">  1       21 0.69337113E-01 0.70872037E+03</pdfrwt>
<totfact> 0.12556322E+02</totfact>
</mgrwt>
</event>
<event>
 6    1  0.9094387E-004  0.4115009E+03  0.7818608E-02  0.1039913E+00
         21   -1    0    0  501  502  0.00000000000E+00  0.00000000000E+00  0.39744839008E+03  0.39744839008E+03  0.00000000000E+00 0.  1.
         21   -1    0    0  502  503 -0.00000000000E+00 -0.00000000000E+00 -0.43152013940E+03  0.43152013940E+03  0.00000000000E+00 0.  1.
    9000007    2    1    2  501    0 -0.84257005173E+02 -0.47262144552E+02 -0.65988428547E+02  0.41623177604E+03  0.39945145569E+03 0.  0.
    9000005    1    3    3    0    0  0.10323534375E+02  0.16820591439E+03 -0.65810048637E+02  0.18091922919E+03  0.99999687468E+00 0.  0.
          4    1    3    3  501    0 -0.94580539548E+02 -0.21546805894E+03 -0.17837991004E+00  0.23531254685E+03  0.00000000000E+00 0.  1.
   -9000007    1    1    2    0  503  0.84257005173E+02  0.47262144552E+02  0.31916679227E+02  0.41273675344E+03  0.40000000000E+03 0. -1.
<mgrwt>
<rscale>  2 0.41136749E+03</rscale>
<asrwt>0</asrwt>
<pdfrwt beam="1">  1       21 0.61145906E-01 0.41150085E+03</pdfrwt>
<pdfrwt beam="2">  1       21 0.66387714E-01 0.41150085E+03</pdfrwt>
<totfact> 0.46098359E+03</totfact>
</mgrwt>
</event>
<event>
 6    1  0.9094387E-004  0.4010155E+03  0.7818608E-02  0.1043499E+00
         21   -1    0    0  501  502  0.00000000000E+00  0.00000000000E+00  0.48962909603E+03  0.48962909603E+03  0.00000000000E+00 0.  1.
         21   -1    0    0  502  503 -0.00000000000E+00 -0.00000000000E+00 -0.65944528019E+03  0.65944528019E+03  0.00000000000E+00 0.  1.
    9000007    2    1    2  501    0  0.83522382296E+01 -0.27270827623E+02  0.32259132647E+03  0.51403216152E+03  0.39918722579E+03 0.  0.
    9000005    1    3    3    0    0 -0.14788086763E+03 -0.47155079006E+02  0.32096819402E+03  0.35653041112E+03  0.99999687468E+00 0.  0.
          4    1    3    3  501    0  0.15623310586E+03  0.19884251384E+02  0.16231324494E+01  0.15750175040E+03  0.00000000000E+00 0.  1.
   -9000007    1    1    2    0  503 -0.83522382296E+01  0.27270827623E+02 -0.49240751064E+03  0.63504221470E+03  0.40000000000E+03 0.  1.
<mgrwt>
<rscale>  2 0.40081270E+03</rscale>
<asrwt>0</asrwt>
<pdfrwt beam="1">  1       21 0.75327554E-01 0.40101553E+03</pdfrwt>
<pdfrwt beam="2">  1       21 0.10145312E+00 0.40101553E+03</pdfrwt>
<totfact> 0.10859877E+03</totfact>
</mgrwt>
</event>
<event>
 6    1  0.9094387E-004  0.4728302E+03  0.7818608E-02  0.1021145E+00
         21   -1    0    0  501  502  0.00000000000E+00  0.00000000000E+00  0.35116246753E+03  0.35116246753E+03  0.00000000000E+00 0.  1.
         21   -1    0    0  502  503 -0.00000000000E+00 -0.00000000000E+00 -0.67826649991E+03  0.67826649991E+03  0.00000000000E+00 0.  1.
    9000007    2    1    2  501    0 -0.22677791307E+03  0.10888834315E+03 -0.35490515123E+02  0.47416026080E+03  0.40035419708E+03 0.  0.
    9000005    1    3    3    0    0 -0.11348432618E+03 -0.59053550104E+02  0.15162387216E+03  0.19838551527E+03  0.99999687468E+00 0.  0.
          4    1    3    3  501    0 -0.11329358690E+03  0.16794189326E+03 -0.18711438728E+03  0.27577474553E+03  0.00000000000E+00 0.  1.
   -9000007    1    1    2    0  503  0.22677791307E+03 -0.10888834315E+03 -0.29161351726E+03  0.55526870665E+03  0.40000000000E+03 0.  1.
<mgrwt>
<rscale>  2 0.47275519E+03</rscale>
<asrwt>0</asrwt>
<pdfrwt beam="1">  1       21 0.54024995E-01 0.47283018E+03</pdfrwt>
<pdfrwt beam="2">  1       21 0.10434869E+00 0.47283018E+03</pdfrwt>
<totfact> 0.20551558E+03</totfact>
</mgrwt>
</event>
<event>
 6    1  0.9094387E-004  0.4207770E+03  0.7818608E-02  0.1036841E+00
         21   -1    0    0  501  502  0.00000000000E+00  0.00000000000E+00  0.15981948964E+04  0.15981948964E+04  0.00000000000E+00 0.  1.
         21   -1    0    0  502  503 -0.00000000000E+00 -0.00000000000E+00 -0.13535692886E+03  0.13535692886E+03  0.00000000000E+00 0.  1.
    9000007    2    1    2  501    0 -0.67003409038E+02  0.11208862970E+03  0.11011634415E+04  0.11786988894E+04  0.39964587961E+03 0.  0.
    9000005    1    3    3    0    0 -0.87710218968E+02  0.12200753513E+03  0.10747497720E+03  0.18474520795E+03  0.99999687468E+00 0.  0.
          4    1    3    3  501    0  0.20706809930E+02 -0.99189054366E+01  0.99368846432E+03  0.99395368141E+03  0.00000000000E+00 0.  1.
   -9000007    1    1    2    0  503  0.67003409038E+02 -0.11208862970E+03  0.36167452605E+03  0.55485293594E+03  0.40000000000E+03 0.  1.
<mgrwt>
<rscale>  2 0.42069286E+03</rscale>
<asrwt>0</asrwt>
<pdfrwt beam="1">  1       21 0.24587613E+00 0.42077704E+03</pdfrwt>
<pdfrwt beam="2">  1       21 0.20824144E-01 0.42077704E+03</pdfrwt>
<totfact> 0.12612688E+03</totfact>
</mgrwt>
</event>
<event>
 6    1  0.9094387E-004  0.4337827E+03  0.7818608E-02  0.1032755E+00
         21   -1    0    0  501  502  0.00000000000E+00  0.00000000000E+00  0.42755799596E+03  0.42755799596E+03  0.00000000000E+00 0. -1.
         21   -1    0    0  502  503 -0.00000000000E+00 -0.00000000000E+00 -0.50371473445E+03  0.50371473445E+03  0.00000000000E+00 0. -1.
    9000007    2    1    2  501    0  0.15708345550E+03 -0.59094946151E+02  0.12883843836E+03  0.45149106425E+03  0.39884509932E+03 0.  0.
    9000005    1    3    3    0    0  0.24610626216E+03  0.75649679008E+02  0.23206747020E+02  0.25851638112E+03  0.99999687468E+00 0.  0.
          4    1    3    3  501    0 -0.89022806656E+02 -0.13474462516E+03  0.10563169134E+03  0.19297468313E+03  0.00000000000E+00 0.  1.
   -9000007    1    1    2    0  503 -0.15708345550E+03  0.59094946151E+02 -0.20499517684E+03  0.47978166616E+03  0.40000000000E+03 0. -1.
<mgrwt>
<rscale>  2 0.43351627E+03</rscale>
<asrwt>0</asrwt>
<pdfrwt beam="1">  1       21 0.65778154E-01 0.43378269E+03</pdfrwt>
<pdfrwt beam="2">  1       21 0.77494574E-01 0.43378269E+03</pdfrwt>
<totfact> 0.27434068E+03</totfact>
</mgrwt>
</event>
<event>
 6    1  0.9094387E-004  0.5193338E+03  0.7818608E-02  0.1009059E+00
         21   -1    0    0  501  502  0.00000000000E+00  0.00000000000E+00  0.19916633566E+03  0.19916633566E+03  0.00000000000E+00 0. -1.
         21   -1    0    0  502  503 -0.00000000000E+00 -0.00000000000E+00 -0.14327757493E+04  0.14327757493E+04  0.00000000000E+00 0. -1.
    9000007    2    1    2  501    0  0.13489102412E+03 -0.29678213800E+03 -0.41733295923E+03  0.66623898574E+03  0.40426768536E+03 0.  0.
    9000005    1    3    3    0    0  0.12535457161E+03 -0.10001259529E+02  0.35031680166E+02  0.13054505898E+03  0.99999687468E+00 0.  0.
          4    1    3    3  501    0  0.95364525134E+01 -0.28678087847E+03 -0.45236463939E+03  0.53569392675E+03  0.00000000000E+00 0.  1.
   -9000007    1    1    2    0  503 -0.13489102412E+03  0.29678213800E+03 -0.81627645444E+03  0.96570309925E+03  0.40000000000E+03 0. -1.
<mgrwt>
<rscale>  2 0.51850301E+03</rscale>
<asrwt>0</asrwt>
<pdfrwt beam="1">  1       21 0.30640973E-01 0.51933379E+03</pdfrwt>
<pdfrwt beam="2">  1       21 0.22042705E+00 0.51933379E+03</pdfrwt>
<totfact> 0.81951938E+02</totfact>
</mgrwt>
</event>
<event>
 6    1  0.9094387E-004  0.4901745E+03  0.7818608E-02  0.1016384E+00
         21   -1    0    0  501  502  0.00000000000E+00  0.00000000000E+00  0.42833902556E+03  0.42833902556E+03  0.00000000000E+00 0. -1.
         21   -1    0    0  502  503 -0.00000000000E+00 -0.00000000000E+00 -0.58755365802E+03  0.58755365802E+03  0.00000000000E+00 0.  1.
    9000007    2    1    2  501    0  0.33971406410E+02 -0.28105416499E+03 -0.18802651798E+03  0.52500000197E+03  0.40015688235E+03 0.  0.
    9000005    1    3    3    0    0  0.17810968671E+03 -0.22841172421E+03 -0.97976342442E+01  0.28981368133E+03  0.99999687468E+00 0.  0.
          4    1    3    3  501    0 -0.14413828030E+03 -0.52642440780E+02 -0.17822888373E+03  0.23518632064E+03  0.00000000000E+00 0.  1.
   -9000007    1    1    2    0  503 -0.33971406410E+02  0.28105416499E+03  0.28811885510E+02  0.49089268161E+03  0.40000000000E+03 0. -1.
<mgrwt>
<rscale>  2 0.49014247E+03</rscale>
<asrwt>0</asrwt>
<pdfrwt beam="1">  1       21 0.65898312E-01 0.49017449E+03</pdfrwt>
<pdfrwt beam="2">  1       21 0.90392870E-01 0.49017449E+03</pdfrwt>
<totfact> 0.18691720E+03</totfact>
</mgrwt>
</event>
<event>
 6    1  0.9094387E-004  0.4395463E+03  0.7818608E-02  0.1030971E+00
         21   -1    0    0  501  502  0.00000000000E+00  0.00000000000E+00  0.78922213827E+03  0.78922213827E+03  0.00000000000E+00 0.  1.
         21   -1    0    0  502  503 -0.00000000000E+00 -0.00000000000E+00 -0.39722900776E+03  0.39722900776E+03  0.00000000000E+00 0. -1.
    9000007    2    1    2  501    0 -0.61071810674E+02 -0.17167184475E+03 -0.17237001848E+03  0.47111433565E+03  0.39879356269E+03 0.  0.
    9000005    1    3    3    0    0 -0.71695050146E+02  0.10140946234E+03  0.33876150170E+02  0.12873481585E+03  0.99999687468E+00 0.  0.
          4    1    3    3  501    0  0.10623239472E+02 -0.27308130709E+03 -0.20624616865E+03  0.34237951980E+03  0.00000000000E+00 0.  1.
   -9000007    1    1    2    0  503  0.61071810674E+02  0.17167184475E+03  0.56436314899E+03  0.71533681037E+03  0.40000000000E+03 0.  1.
<mgrwt>
<rscale>  2 0.43927168E+03</rscale>
<asrwt>0</asrwt>
<pdfrwt beam="1">  1       21 0.12141879E+00 0.43954634E+03</pdfrwt>
<pdfrwt beam="2">  1       21 0.61112155E-01 0.43954634E+03</pdfrwt>
<totfact> 0.10906782E+03</totfact>
</mgrwt>
</event>
<event>
 6    1  0.9094387E-004  0.4672221E+03  0.7818608E-02  0.1022765E+00
         21   -1    0    0  501  502  0.00000000000E+00  0.00000000000E+00  0.16760521398E+04  0.16760521398E+04  0.00000000000E+00 0. -1.
         21   -1    0    0  502  503 -0.00000000000E+00 -0.00000000000E+00 -0.35594266516E+03  0.35594266516E+03  0.00000000000E+00 0.  1.
    9000007    2    1    2  501    0 -0.45921955121E+02 -0.23543165775E+03  0.14697046962E+04  0.15421829821E+04  0.40094833173E+03 0.  0.
    9000005    1    3    3    0    0 -0.79397261136E+02 -0.33473418327E+03  0.12803688316E+04  0.13257813710E+04  0.99999687468E+00 0.  0.
          4    1    3    3  501    0  0.33475306015E+02  0.99302525521E+02  0.18933586459E+03  0.21640161114E+03  0.00000000000E+00 0.  1.
   -9000007    1    1    2    0  503  0.45921955121E+02  0.23543165775E+03 -0.14959522163E+03  0.48981182282E+03  0.40000000000E+03 0.  1.
<mgrwt>
<rscale>  2 0.46701854E+03</rscale>
<asrwt>0</asrwt>
<pdfrwt beam="1">  1       21 0.25785417E+00 0.46722206E+03</pdfrwt>
<pdfrwt beam="2">  1       21 0.54760411E-01 0.46722206E+03</pdfrwt>
<totfact> 0.14718377E+02</totfact>
</mgrwt>
</event>
<event>
 6    1  0.9094387E-004  0.5032198E+03  0.7818608E-02  0.1013034E+00
         21   -1    0    0  501  502  0.00000000000E+00  0.00000000000E+00  0.35653614790E+03  0.35653614790E+03  0.00000000000E+00 0.  1.
         21   -1    0    0  502  503 -0.00000000000E+00 -0.00000000000E+00 -0.76086822268E+03  0.76086822268E+03  0.00000000000E+00 0. -1.
    9000007    2    1    2  501    0 -0.21315532042E+03  0.21862071688E+03 -0.54969358961E+02  0.50479967285E+03  0.39820958151E+03 0.  0.
    9000005    1    3    3    0    0 -0.15401000531E+03  0.18974594303E+03 -0.21893962293E+03  0.32811303405E+03  0.99999687468E+00 0.  0.
          4    1    3    3  501    0 -0.59145315111E+02  0.28874773850E+02  0.16397026397E+03  0.17668663880E+03  0.00000000000E+00 0.  1.
   -9000007    1    1    2    0  503  0.21315532042E+03 -0.21862071688E+03 -0.34936271582E+03  0.61260469773E+03  0.40000000000E+03 0. -1.
<mgrwt>
<rscale>  2 0.50286397E+03</rscale>
<asrwt>0</asrwt>
<pdfrwt beam="1">  1       21 0.54851716E-01 0.50321984E+03</pdfrwt>
<pdfrwt beam="2">  1       21 0.11705665E+00 0.50321984E+03</pdfrwt>
<totfact> 0.14779946E+03</totfact>
</mgrwt>
</event>
<event>
 6    1  0.9094387E-004  0.4312484E+03  0.7818608E-02  0.1033482E+00
         21   -1    0    0  501  502  0.00000000000E+00  0.00000000000E+00  0.15037507113E+04  0.15037507113E+04  0.00000000000E+00 0. -1.
         21   -1    0    0  502  503 -0.00000000000E+00 -0.00000000000E+00 -0.15802787590E+03  0.15802787590E+03  0.00000000000E+00 0. -1.
    9000007    2    1    2  501    0  0.41070901369E+01  0.16057522041E+03  0.10607133476E+04  0.11450275082E+04  0.40021733966E+03 0.  0.
    9000005    1    3    3    0    0  0.13204555948E+03  0.23880917499E+03  0.78636605352E+03  0.83236916207E+03  0.99999687468E+00 0.  0.
          4    1    3    3  501    0 -0.12793846934E+03 -0.78233954578E+02  0.27434729412E+03  0.31265834609E+03  0.00000000000E+00 0.  1.
   -9000007    1    1    2    0  503 -0.41070901369E+01 -0.16057522041E+03  0.28500948777E+03  0.51675107907E+03  0.40000000000E+03 0. -1.
<mgrwt>
<rscale>  2 0.43119797E+03</rscale>
<asrwt>0</asrwt>
<pdfrwt beam="1">  1       21 0.23134625E+00 0.43124841E+03</pdfrwt>
<pdfrwt beam="2">  1       21 0.24311982E-01 0.43124841E+03</pdfrwt>
<totfact> 0.11463881E+03</totfact>
</mgrwt>
</event>
<event>
 6    1  0.9094387E-004  0.4835277E+03  0.7818608E-02  0.1018291E+00
         21   -1    0    0  501  502  0.00000000000E+00  0.00000000000E+00  0.26807085518E+03  0.26807085518E+03  0.00000000000E+00 0. -1.
         21   -1    0    0  502  503 -0.00000000000E+00 -0.00000000000E+00 -0.92946485879E+03  0.92946485879E+03  0.00000000000E+00 0. -1.
    9000007    2    1    2  501    0  0.71246118179E+02 -0.25885595745E+03 -0.17848337319E+03  0.51541762079E+03  0.40214001698E+03 0.  0.
    9000005    1    3    3    0    0  0.13692499943E+03 -0.26111698424E+03 -0.27198406590E+03  0.40113198205E+03  0.99999687468E+00 0.  0.
          4    1    3    3  501    0 -0.65678881253E+02  0.22610267895E+01  0.93500692712E+02  0.11428563874E+03  0.00000000000E+00 0.  1.
   -9000007    1    1    2    0  503 -0.71246118179E+02  0.25885595745E+03 -0.48291063042E+03  0.68211809317E+03  0.40000000000E+03 0. -1.
<mgrwt>
<rscale>  2 0.48308247E+03</rscale>
<asrwt>0</asrwt>
<pdfrwt beam="1">  1       21 0.41241670E-01 0.48352767E+03</pdfrwt>
<pdfrwt beam="2">  1       21 0.14299459E+00 0.48352767E+03</pdfrwt>
<totfact> 0.16166766E+03</totfact>
</mgrwt>
</event>
<event>
 6    1  0.9094387E-004  0.4129969E+03  0.7818608E-02  0.1039379E+00
         21   -1    0    0  501  502  0.00000000000E+00  0.00000000000E+00  0.15864368318E+04  0.15864368318E+04  0.00000000000E+00 0.  1.
         21   -1    0    0  502  503 -0.00000000000E+00 -0.00000000000E+00 -0.15353022418E+03  0.15353022418E+03  0.00000000000E+00 0.  1.
    9000007    2    1    2  501    0  0.37742292882E+02 -0.95143889397E+02  0.11929458691E+04  0.12624128744E+04  0.40011195724E+03 0.  0.
    9000005    1    3    3    0    0 -0.15914329443E+03  0.50636749403E+02  0.44086596559E+03  0.47143872153E+03  0.99999687468E+00 0.  0.
          4    1    3    3  501    0  0.19688558731E+03 -0.14578063880E+03  0.75207990354E+03  0.79097415284E+03  0.00000000000E+00 0.  1.
   -9000007    1    1    2    0  503 -0.37742292882E+02  0.95143889397E+02  0.23996073849E+03  0.47755418162E+03  0.40000000000E+03 0.  1.
<mgrwt>
<rscale>  2 0.41296976E+03</rscale>
<asrwt>0</asrwt>
<pdfrwt beam="1">  1       21 0.24406719E+00 0.41299687E+03</pdfrwt>
<pdfrwt beam="2">  1       21 0.23620036E-01 0.41299687E+03</pdfrwt>
<totfact> 0.10201493E+03</totfact>
</mgrwt>
</event>
<event>
 6    1  0.9094387E-004  0.4242869E+03  0.7818608E-02  0.1035833E+00
         21   -1    0    0  501  502  0.00000000000E+00  0.00000000000E+00  0.17917284829E+03  0.17917284829E+03  0.00000000000E+00 0. -1.
         21   -1    0    0  502  503 -0.00000000000E+00 -0.00000000000E+00 -0.10085509758E+04  0.10085509758E+04  0.00000000000E+00 0.  1.
    9000007    2    1    2  501    0 -0.39575637204E+02  0.13584234070E+03 -0.35986488560E+03  0.55490310941E+03  0.39798913599E+03 0.  0.
    9000005    1    3    3    0    0 -0.65251853911E+02 -0.19860902637E+02  0.69544573158E+02  0.97415129943E+02  0.99999687468E+00 0.  0.
          4    1    3    3  501    0  0.25676216707E+02  0.15570324333E+03 -0.42940945876E+03  0.45748797947E+03  0.00000000000E+00 0.  1.
   -9000007    1    1    2    0  503  0.39575637204E+02 -0.13584234070E+03 -0.46951324190E+03  0.63282071466E+03  0.40000000000E+03 0. -1.
<mgrwt>
<rscale>  2 0.42381230E+03</rscale>
<asrwt>0</asrwt>
<pdfrwt beam="1">  1       21 0.27565053E-01 0.42428690E+03</pdfrwt>
<pdfrwt beam="2">  1       21 0.15516169E+00 0.42428690E+03</pdfrwt>
<totfact> 0.29872659E+03</totfact>
</mgrwt>
</event>
<event>
 6    1  0.9094387E-004  0.4931005E+03  0.7818608E-02  0.1015598E+00
         21   -1    0    0  501  502  0.00000000000E+00  0.00000000000E+00  0.59563484869E+03  0.59563484869E+03  0.00000000000E+00 0. -1.
         21   -1    0    0  502  503 -0.00000000000E+00 -0.00000000000E+00 -0.42647831160E+03  0.42647831160E+03  0.00000000000E+00 0.  1.
    9000007    2    1    2  501    0  0.13127155363E+02  0.28805508836E+03 -0.21270818823E+02  0.49352008994E+03  0.39995196625E+03 0.  0.
    9000005    1    3    3    0    0 -0.15417935908E+03  0.28242615783E+03  0.15437238942E+02  0.32214145609E+03  0.99999687468E+00 0.  0.
          4    1    3    3  501    0  0.16730651445E+03  0.56289305323E+01 -0.36708057765E+02  0.17137863385E+03  0.00000000000E+00 0.  1.
   -9000007    1    1    2    0  503 -0.13127155363E+02 -0.28805508836E+03  0.19042735591E+03  0.52859307034E+03  0.40000000000E+03 0. -1.
<mgrwt>
<rscale>  2 0.49309071E+03</rscale>
<asrwt>0</asrwt>
<pdfrwt beam="1">  1       21 0.91636130E-01 0.49310045E+03</pdfrwt>
<pdfrwt beam="2">  1       21 0.65612048E-01 0.49310045E+03</pdfrwt>
<totfact> 0.18251805E+03</totfact>
</mgrwt>
</event>
<event>
 6    1  0.9094387E-004  0.4057721E+03  0.7818608E-02  0.1041803E+00
         21   -1    0    0  501  502  0.00000000000E+00  0.00000000000E+00  0.27452906455E+04  0.27452906455E+04  0.00000000000E+00 0.  1.
         21   -1    0    0  502  503 -0.00000000000E+00 -0.00000000000E+00 -0.14053882722E+03  0.14053882722E+03  0.00000000000E+00 0.  1.
    9000007    2    1    2  501    0  0.52417709255E+02  0.43627904467E+02  0.23948631127E+04  0.24289878382E+04  0.39995197126E+03 0.  0.
    9000005    1    3    3    0    0 -0.11362379730E+03 -0.40572378952E+02  0.26699591517E+03  0.29299198617E+03  0.99999687468E+00 0.  0.
          4    1    3    3  501    0  0.16604150656E+03  0.84200283419E+02  0.21278671976E+04  0.21359958521E+04  0.00000000000E+00 0.  1.
   -9000007    1    1    2    0  503 -0.52417709255E+02 -0.43627904467E+02  0.20988870558E+03  0.45684163451E+03  0.40000000000E+03 0.  1.
<mgrwt>
<rscale>  2 0.40576028E+03</rscale>
<asrwt>0</asrwt>
<pdfrwt beam="1">  1       21 0.42235237E+00 0.40577212E+03</pdfrwt>
<pdfrwt beam="2">  1       21 0.21621360E-01 0.40577212E+03</pdfrwt>
<totfact> 0.97347869E+01</totfact>
</mgrwt>
</event>
<event>
 6    1  0.9094387E-004  0.4164439E+03  0.7818608E-02  0.1038233E+00
         21   -1    0    0  501  502  0.00000000000E+00  0.00000000000E+00  0.13888669180E+03  0.13888669180E+03  0.00000000000E+00 0.  1.
         21   -1    0    0  502  503 -0.00000000000E+00 -0.00000000000E+00 -0.15743702041E+04  0.15743702041E+04  0.00000000000E+00 0.  1.
    9000007    2    1    2  501    0  0.93236387139E+02 -0.68547269137E+02 -0.32807861093E+03  0.53015192694E+03  0.40004217115E+03 0.  0.
    9000005    1    3    3    0    0  0.15650159572E+03  0.42724353589E+02 -0.36289053083E+03  0.39750302793E+03  0.99999687468E+00 0.  0.
          4    1    3    3  501    0 -0.63265208586E+02 -0.11127162273E+03  0.34811919899E+02  0.13264889901E+03  0.00000000000E+00 0.  1.
   -9000007    1    1    2    0  503 -0.93236387139E+02  0.68547269137E+02 -0.11074049014E+04  0.11831049690E+04  0.40000000000E+03 0.  1.
<mgrwt>
<rscale>  2 0.41643373E+03</rscale>
<asrwt>0</asrwt>
<pdfrwt beam="1">  1       21 0.21367182E-01 0.41644386E+03</pdfrwt>
<pdfrwt beam="2">  1       21 0.24221082E+00 0.41644386E+03</pdfrwt>
<totfact> 0.12675813E+03</totfact>
</mgrwt>
</event>
<event>
 6    1  0.9094387E-004  0.4066920E+03  0.7818608E-02  0.1041550E+00
         21   -1    0    0  501  502  0.00000000000E+00  0.00000000000E+00  0.28728372031E+03  0.28728372031E+03  0.00000000000E+00 0.  1.
         21   -1    0    0  502  503 -0.00000000000E+00 -0.00000000000E+00 -0.57816966490E+03  0.57816966490E+03  0.00000000000E+00 0.  1.
    9000007    2    1    2  501    0  0.11492715862E+02 -0.68237918224E+02 -0.17924388213E+03  0.44443979148E+03  0.40076160366E+03 0.  0.
    9000005    1    3    3    0    0 -0.67600787058E+02  0.15530299944E+03 -0.68001198027E+02  0.18252137128E+03  0.99999687468E+00 0.  0.
          4    1    3    3  501    0  0.79093502920E+02 -0.22354091766E+03 -0.11124268410E+03  0.26191842020E+03  0.00000000000E+00 0.  1.
   -9000007    1    1    2    0  503 -0.11492715862E+02  0.68237918224E+02 -0.11164206246E+03  0.42101359374E+03  0.40000000000E+03 0.  1.
<mgrwt>
<rscale>  2 0.40650422E+03</rscale>
<asrwt>0</asrwt>
<pdfrwt beam="1">  1       21 0.44197496E-01 0.40669197E+03</pdfrwt>
<pdfrwt beam="2">  1       21 0.88949178E-01 0.40669197E+03</pdfrwt>
<totfact> 0.47309502E+03</totfact>
</mgrwt>
</event>
<event>
 6    1  0.9094387E-004  0.5170491E+03  0.7818608E-02  0.1009425E+00
         21   -1    0    0  501  502  0.00000000000E+00  0.00000000000E+00  0.61403830578E+03  0.61403830578E+03  0.00000000000E+00 0.  1.
         21   -1    0    0  502  503 -0.00000000000E+00 -0.00000000000E+00 -0.76921299131E+03  0.76921299131E+03  0.00000000000E+00 0. -1.
    9000007    2    1    2  501    0 -0.10505825323E+03 -0.31032652669E+03  0.37806949948E+03  0.64049349634E+03  0.39994447450E+03 0.  0.
    9000005    1    3    3    0    0 -0.59710124957E+02 -0.81679170280E+02 -0.78366071451E+02  0.12798057286E+03  0.99999687468E+00 0.  0.
          4    1    3    3  501    0 -0.45348128273E+02 -0.22864735641E+03  0.45643557093E+03  0.51251292349E+03  0.00000000000E+00 0.  1.
   -9000007    1    1    2    0  503  0.10505825323E+03  0.31032652669E+03 -0.53324418500E+03  0.74275780075E+03  0.40000000000E+03 0. -1.
<mgrwt>
<rscale>  2 0.51703838E+03</rscale>
<asrwt>0</asrwt>
<pdfrwt beam="1">  1       21 0.94467432E-01 0.51704912E+03</pdfrwt>
<pdfrwt beam="2">  1       21 0.11834046E+00 0.51704912E+03</pdfrwt>
<totfact> 0.41541686E+02</totfact>
</mgrwt>
</event>
<event>
 6    1  0.9094387E-004  0.4484969E+03  0.7818608E-02  0.1028217E+00
         21   -1    0    0  501  502  0.00000000000E+00  0.00000000000E+00  0.11025634014E+04  0.11025634014E+04  0.00000000000E+00 0.  1.
         21   -1    0    0  502  503 -0.00000000000E+00 -0.00000000000E+00 -0.18793647855E+03  0.18793647855E+03  0.00000000000E+00 0.  1.
    9000007    2    1    2  501    0  0.11711414101E+03 -0.16563149319E+03  0.56982937388E+03  0.72478364070E+03  0.39931979281E+03 0.  0.
    9000005    1    3    3    0    0 -0.14436316168E+03 -0.91807257303E+02  0.27480925652E+03  0.32371348814E+03  0.99999687468E+00 0.  0.
          4    1    3    3  501    0  0.26147730269E+03 -0.73824235889E+02  0.29502011737E+03  0.40107015256E+03  0.00000000000E+00 0.  1.
   -9000007    1    1    2    0  503 -0.11711414101E+03  0.16563149319E+03  0.34479754893E+03  0.56571623922E+03  0.40000000000E+03 0.  1.
<mgrwt>
<rscale>  2 0.44834524E+03</rscale>
<asrwt>0</asrwt>
<pdfrwt beam="1">  1       21 0.16962513E+00 0.44849695E+03</pdfrwt>
<pdfrwt beam="2">  1       21 0.28913305E-01 0.44849695E+03</pdfrwt>
<totfact> 0.20982734E+03</totfact>
</mgrwt>
</event>
<event>
 6    1  0.9094387E-004  0.4399911E+03  0.7818608E-02  0.1030785E+00
         21   -1    0    0  501  502  0.00000000000E+00  0.00000000000E+00  0.11056870823E+04  0.11056870823E+04  0.00000000000E+00 0.  1.
         21   -1    0    0  502  503 -0.00000000000E+00 -0.00000000000E+00 -0.22760358540E+03  0.22760358540E+03  0.00000000000E+00 0.  1.
    9000007    2    1    2  501    0  0.65654435255E+01 -0.18203740938E+03  0.76000979326E+03  0.87818395168E+03  0.40051397439E+03 0.  0.
    9000005    1    3    3    0    0 -0.14967874865E+03  0.40248152147E+02  0.38551553876E+03  0.41550796883E+03  0.99999687468E+00 0.  0.
          4    1    3    3  501    0  0.15624419217E+03 -0.22228556152E+03  0.37449425450E+03  0.46267598285E+03  0.00000000000E+00 0.  1.
   -9000007    1    1    2    0  503 -0.65654435255E+01  0.18203740938E+03  0.11807370363E+03  0.45510671600E+03  0.40000000000E+03 0.  1.
<mgrwt>
<rscale>  2 0.43987410E+03</rscale>
<asrwt>0</asrwt>
<pdfrwt beam="1">  1       21 0.17010570E+00 0.43999110E+03</pdfrwt>
<pdfrwt beam="2">  1       21 0.35015937E-01 0.43999110E+03</pdfrwt>
<totfact> 0.14241564E+03</totfact>
</mgrwt>
</event>
<event>
 6    1  0.9094387E-004  0.4888202E+03  0.7818608E-02  0.1016774E+00
         21   -1    0    0  501  502  0.00000000000E+00  0.00000000000E+00  0.27341669790E+04  0.27341669790E+04  0.00000000000E+00 0.  1.
         21   -1    0    0  502  503 -0.00000000000E+00 -0.00000000000E+00 -0.21810389828E+03  0.21810389828E+03  0.00000000000E+00 0. -1.
    9000007    2    1    2  501    0 -0.26659077742E+03 -0.88738361224E+02  0.24009193745E+04  0.24500724977E+04  0.39936983084E+03 0.  0.
    9000005    1    3    3    0    0  0.99373346959E+02 -0.67528329784E+02  0.68149012678E+03  0.69200067218E+03  0.99999687468E+00 0.  0.
          4    1    3    3  501    0 -0.36596412438E+03 -0.21210031440E+02  0.17194292477E+04  0.17580718255E+04  0.00000000000E+00 0.  1.
   -9000007    1    1    2    0  503  0.26659077742E+03  0.88738361224E+02  0.11514370622E+03  0.50219837957E+03  0.40000000000E+03 0. -1.
<mgrwt>
<rscale>  2 0.48869122E+03</rscale>
<asrwt>0</asrwt>
<pdfrwt beam="1">  1       21 0.42064105E+00 0.48882015E+03</pdfrwt>
<pdfrwt beam="2">  1       21 0.33554448E-01 0.48882015E+03</pdfrwt>
<totfact> 0.39646817E+01</totfact>
</mgrwt>
</event>
<event>
 6    1  0.9094387E-004  0.5687886E+03  0.7818608E-02  0.9972481E-01
         21   -1    0    0  501  502  0.00000000000E+00  0.00000000000E+00  0.36114582669E+03  0.36114582669E+03  0.00000000000E+00 0. -1.
         21   -1    0    0  502  503 -0.00000000000E+00 -0.00000000000E+00 -0.10134109436E+04  0.10134109436E+04  0.00000000000E+00 0.  1.
    9000007    2    1    2  501    0  0.26477909811E+03 -0.30523804912E+03 -0.91736004040E+02  0.57613888236E+03  0.40030273531E+03 0.  0.
    9000005    1    3    3    0    0  0.32684451281E+03 -0.35292499760E+03 -0.40793468835E+02  0.48275096746E+03  0.99999687468E+00 0.  0.
          4    1    3    3  501    0 -0.62065414695E+02  0.47686948479E+02 -0.50942535205E+02  0.93387914901E+02  0.00000000000E+00 0.  1.
   -9000007    1    1    2    0  503 -0.26477909811E+03  0.30523804912E+03 -0.56052911291E+03  0.79841788798E+03  0.40000000000E+03 0.  1.
<mgrwt>
<rscale>  2 0.56873538E+03</rscale>
<asrwt>0</asrwt>
<pdfrwt beam="1">  1       21 0.55560896E-01 0.56878864E+03</pdfrwt>
<pdfrwt beam="2">  1       21 0.15590938E+00 0.56878864E+03</pdfrwt>
<totfact> 0.65809971E+02</totfact>
</mgrwt>
</event>
<event>
 6    1  0.9094387E-004  0.6372702E+03  0.7818608E-02  0.9830973E-01
         21   -1    0    0  501  502  0.00000000000E+00  0.00000000000E+00  0.40398595449E+03  0.40398595449E+03  0.00000000000E+00 0.  1.
         21   -1    0    0  502  503 -0.00000000000E+00 -0.00000000000E+00 -0.10464199401E+04  0.10464199401E+04  0.00000000000E+00 0. -1.
    9000007    2    1    2  501    0 -0.62585011674E+02  0.49213455311E+03 -0.17733962092E+03  0.66146605523E+03  0.39996837253E+03 0.  0.
    9000005    1    3    3    0    0 -0.71220311097E+02 -0.50252947691E+02 -0.61764802230E+02  0.10683436831E+03  0.99999687468E+00 0.  0.
          4    1    3    3  501    0  0.86352994230E+01  0.54238750080E+03 -0.11557481869E+03  0.55463168692E+03  0.00000000000E+00 0.  1.
   -9000007    1    1    2    0  503  0.62585011674E+02 -0.49213455311E+03 -0.46509436466E+03  0.78893983934E+03  0.40000000000E+03 0.  1.
<mgrwt>
<rscale>  2 0.63726523E+03</rscale>
<asrwt>0</asrwt>
<pdfrwt beam="1">  1       21 0.62151686E-01 0.63727020E+03</pdfrwt>
<pdfrwt beam="2">  1       21 0.16098768E+00 0.63727020E+03</pdfrwt>
<totfact> 0.45946218E+02</totfact>
</mgrwt>
</event>
<event>
 6    1  0.9094387E-004  0.4273195E+03  0.7818608E-02  0.1034745E+00
         21   -1    0    0  501  502  0.00000000000E+00  0.00000000000E+00  0.53927996342E+03  0.53927996342E+03  0.00000000000E+00 0.  1.
         21   -1    0    0  502  503 -0.00000000000E+00 -0.00000000000E+00 -0.34256408200E+03  0.34256408200E+03  0.00000000000E+00 0.  1.
    9000007    2    1    2  501    0 -0.14517744646E+03 -0.33889321225E+02  0.14786767301E+03  0.45218007844E+03  0.40047096969E+03 0.  0.
    9000005    1    3    3    0    0  0.60497069549E+02 -0.53650666644E+01 -0.10724062301E+03  0.12324865347E+03  0.99999687468E+00 0.  0.
          4    1    3    3  501    0 -0.20567451601E+03 -0.28524254560E+02  0.25510829603E+03  0.32893142497E+03  0.00000000000E+00 0.  1.
   -9000007    1    1    2    0  503  0.14517744646E+03  0.33889321225E+02  0.48848208412E+02  0.42966396698E+03  0.40000000000E+03 0.  1.
<mgrwt>
<rscale>  2 0.42720914E+03</rscale>
<asrwt>0</asrwt>
<pdfrwt beam="1">  1       21 0.82966149E-01 0.42731952E+03</pdfrwt>
<pdfrwt beam="2">  1       21 0.52702166E-01 0.42731952E+03</pdfrwt>
<totfact> 0.38105108E+03</totfact>
</mgrwt>
</event>
<event>
 6    1  0.9094387E-004  0.5609946E+03  0.7818608E-02  0.9990046E-01
         21   -1    0    0  501  502  0.00000000000E+00  0.00000000000E+00  0.83000664224E+03  0.83000664224E+03  0.00000000000E+00 0. -1.
         21   -1    0    0  502  503 -0.00000000000E+00 -0.00000000000E+00 -0.39810081042E+03  0.39810081042E+03  0.00000000000E+00 0.  1.
    9000007    2    1    2  501    0 -0.38358298894E+03  0.84283853759E+02  0.35093810352E+03  0.66171937860E+03  0.40059369205E+03 0.  0.
    9000005    1    3    3    0    0 -0.30140896526E+03  0.23584218727E+03  0.19627316627E+03  0.43010819270E+03  0.99999687468E+00 0.  0.
          4    1    3    3  501    0 -0.82174023674E+02 -0.15155833351E+03  0.15466493725E+03  0.23161118591E+03  0.00000000000E+00 0.  1.
   -9000007    1    1    2    0  503  0.38358298894E+03 -0.84283853759E+02  0.80967728302E+02  0.56638807405E+03  0.40000000000E+03 0.  1.
<mgrwt>
<rscale>  2 0.56088866E+03</rscale>
<asrwt>0</asrwt>
<pdfrwt beam="1">  1       21 0.12769333E+00 0.56099464E+03</pdfrwt>
<pdfrwt beam="2">  1       21 0.61246279E-01 0.56099464E+03</pdfrwt>
<totfact> 0.91073162E+02</totfact>
</mgrwt>
</event>
<event>
 6    1  0.9094387E-004  0.4804187E+03  0.7818608E-02  0.1019028E+00
         21   -1    0    0  501  502  0.00000000000E+00  0.00000000000E+00  0.61722719133E+03  0.61722719133E+03  0.00000000000E+00 0. -1.
         21   -1    0    0  502  503 -0.00000000000E+00 -0.00000000000E+00 -0.49614631669E+03  0.49614631669E+03  0.00000000000E+00 0.  1.
    9000007    2    1    2  501    0  0.44787435191E+02  0.26229041224E+03  0.33692363335E+03  0.58669498065E+03  0.39986409054E+03 0.  0.
    9000005    1    3    3    0    0  0.14875668509E+03  0.32144708659E+03  0.20770551147E+03  0.41060852442E+03  0.99999687468E+00 0.  0.
          4    1    3    3  501    0 -0.10396924990E+03 -0.59156674352E+02  0.12921812188E+03  0.17608645623E+03  0.00000000000E+00 0.  1.
   -9000007    1    1    2    0  503 -0.44787435191E+02 -0.26229041224E+03 -0.21584275871E+03  0.52667852737E+03  0.40000000000E+03 0.  1.
<mgrwt>
<rscale>  2 0.48039046E+03</rscale>
<asrwt>0</asrwt>
<pdfrwt beam="1">  1       21 0.94958029E-01 0.48041875E+03</pdfrwt>
<pdfrwt beam="2">  1       21 0.76330203E-01 0.48041875E+03</pdfrwt>
<totfact> 0.11960489E+03</totfact>
</mgrwt>
</event>
<event>
 6    1  0.9094387E-004  0.4780167E+03  0.7818608E-02  0.1019694E+00
         21   -1    0    0  501  502  0.00000000000E+00  0.00000000000E+00  0.38181278461E+03  0.38181278461E+03  0.00000000000E+00 0.  1.
         21   -1    0    0  502  503 -0.00000000000E+00 -0.00000000000E+00 -0.10667835815E+04  0.10667835815E+04  0.00000000000E+00 0.  1.
    9000007    2    1    2  501    0  0.13237636654E+03  0.22540717619E+03  0.13749331276E+03  0.49739759131E+03  0.40021001399E+03 0.  0.
    9000005    1    3    3    0    0 -0.11291007429E+03  0.19202847963E+03  0.20830600947E+02  0.22373764948E+03  0.99999687468E+00 0.  0.
          4    1    3    3  501    0  0.24528644083E+03  0.33378696560E+02  0.11666271181E+03  0.27365994183E+03  0.00000000000E+00 0.  1.
   -9000007    1    1    2    0  503 -0.13237636654E+03 -0.22540717619E+03 -0.82246410961E+03  0.95119877475E+03  0.40000000000E+03 0.  1.
<mgrwt>
<rscale>  2 0.47797273E+03</rscale>
<asrwt>0</asrwt>
<pdfrwt beam="1">  1       21 0.58740429E-01 0.47801669E+03</pdfrwt>
<pdfrwt beam="2">  1       21 0.16412055E+00 0.47801669E+03</pdfrwt>
<totfact> 0.52311246E+02</totfact>
</mgrwt>
</event>
<event>
 6    1  0.9094387E-004  0.4277075E+03  0.7818608E-02  0.1034646E+00
         21   -1    0    0  501  502  0.00000000000E+00  0.00000000000E+00  0.12335701514E+04  0.12335701514E+04  0.00000000000E+00 0.  1.
         21   -1    0    0  502  503 -0.00000000000E+00 -0.00000000000E+00 -0.20332572967E+03  0.20332572967E+03  0.00000000000E+00 0. -1.
    9000007    2    1    2  501    0 -0.11230802737E+03  0.98380416652E+02  0.89009841900E+03  0.98752665482E+03  0.40080157071E+03 0.  0.
    9000005    1    3    3    0    0 -0.25446216887E+03  0.12430963027E+03  0.59120277754E+03  0.65553459384E+03  0.99999687468E+00 0.  0.
          4    1    3    3  501    0  0.14215414151E+03 -0.25929213613E+02  0.29889564147E+03  0.33199206098E+03  0.00000000000E+00 0.  1.
   -9000007    1    1    2    0  503  0.11230802737E+03 -0.98380416652E+02  0.14014600267E+03  0.44936922620E+03  0.40000000000E+03 0. -1.
<mgrwt>
<rscale>  2 0.42751960E+03</rscale>
<asrwt>0</asrwt>
<pdfrwt beam="1">  1       21 0.18978002E+00 0.42770749E+03</pdfrwt>
<pdfrwt beam="2">  1       21 0.31280882E-01 0.42770749E+03</pdfrwt>
<totfact> 0.13054752E+03</totfact>
</mgrwt>
</event>
<event>
 6    1  0.9094387E-004  0.4274034E+03  0.7818608E-02  0.1034785E+00
         21   -1    0    0  501  502  0.00000000000E+00  0.00000000000E+00  0.29491224050E+03  0.29491224050E+03  0.00000000000E+00 0.  1.
         21   -1    0    0  502  503 -0.00000000000E+00 -0.00000000000E+00 -0.72644237306E+03  0.72644237306E+03  0.00000000000E+00 0.  1.
    9000007    2    1    2  501    0 -0.12387728058E+03  0.85604271873E+02 -0.17791965616E+02  0.42649921703E+03  0.39863687245E+03 0.  0.
    9000005    1    3    3    0    0  0.57465007422E+01 -0.14939978135E+03 -0.46519561749E+02  0.15658348111E+03  0.99999687468E+00 0.  0.
          4    1    3    3  501    0 -0.12962378132E+03  0.23500405322E+03  0.28727596132E+02  0.26991573592E+03  0.00000000000E+00 0.  1.
   -9000007    1    1    2    0  503  0.12387728058E+03 -0.85604271873E+02 -0.41373816694E+03  0.59485539654E+03  0.40000000000E+03 0.  1.
<mgrwt>
<rscale>  2 0.42708418E+03</rscale>
<asrwt>0</asrwt>
<pdfrwt beam="1">  1       21 0.45371115E-01 0.42740341E+03</pdfrwt>
<pdfrwt beam="2">  1       21 0.11176036E+00 0.42740341E+03</pdfrwt>
<totfact> 0.25560062E+03</totfact>
</mgrwt>
</event>
<event>
 6    1  0.9094387E-004  0.4087959E+03  0.7818608E-02  0.1040779E+00
         21   -1    0    0  501  502  0.00000000000E+00  0.00000000000E+00  0.10642384312E+04  0.10642384312E+04  0.00000000000E+00 0. -1.
         21   -1    0    0  502  503 -0.00000000000E+00 -0.00000000000E+00 -0.24665303731E+03  0.24665303731E+03  0.00000000000E+00 0. -1.
    9000007    2    1    2  501    0  0.78580436433E+02  0.30175351423E+02  0.80393694081E+03  0.90190281701E+03  0.40003581054E+03 0.  0.
    9000005    1    3    3    0    0  0.19625018266E+03  0.14490297976E+03  0.45823394605E+03  0.51912460647E+03  0.99999687468E+00 0.  0.
          4    1    3    3  501    0 -0.11766974623E+03 -0.11472762833E+03  0.34570299476E+03  0.38277821054E+03  0.00000000000E+00 0.  1.
   -9000007    1    1    2    0  503 -0.78580436433E+02 -0.30175351423E+02  0.13648453123E+02  0.40898865155E+03  0.40000000000E+03 0. -1.
<mgrwt>
<rscale>  2 0.40878714E+03</rscale>
<asrwt>0</asrwt>
<pdfrwt beam="1">  1       21 0.16372899E+00 0.40879590E+03</pdfrwt>
<pdfrwt beam="2">  1       21 0.37946622E-01 0.40879590E+03</pdfrwt>
<totfact> 0.13661956E+03</totfact>
</mgrwt>
</event>
<event>
 6    1  0.9094387E-004  0.9247826E+03  0.7818608E-02  0.9395455E-01
         21   -1    0    0  501  502  0.00000000000E+00  0.00000000000E+00  0.58345349729E+03  0.58345349729E+03  0.00000000000E+00 0. -1.
         21   -1    0    0  502  503 -0.00000000000E+00 -0.00000000000E+00 -0.18043001529E+04  0.18043001529E+04  0.00000000000E+00 0.  1.
    9000007    2    1    2  501    0  0.82117368674E+03 -0.13732195370E+03 -0.92269235917E+02  0.92937422938E+03  0.40254105824E+03 0.  0.
    9000005    1    3    3    0    0  0.60480026425E+03 -0.20248876869E+03 -0.21394454948E+03  0.67272455829E+03  0.99999687468E+00 0.  0.
          4    1    3    3  501    0  0.21637342249E+03  0.65166814990E+02  0.12167531357E+03  0.25664967108E+03  0.00000000000E+00 0.  1.
   -9000007    1    1    2    0  503 -0.82117368674E+03  0.13732195370E+03 -0.11285774197E+04  0.14583794208E+04  0.40000000000E+03 0.  1.
<mgrwt>
<rscale>  2 0.92450666E+03</rscale>
<asrwt>0</asrwt>
<pdfrwt beam="1">  1       21 0.89762077E-01 0.92478259E+03</pdfrwt>
<pdfrwt beam="2">  1       21 0.27758464E+00 0.92478259E+03</pdfrwt>
<totfact> 0.29920057E+01</totfact>
</mgrwt>
</event>
<event>
 6    1  0.9094387E-004  0.6191857E+03  0.7818608E-02  0.9866471E-01
         21   -1    0    0  501  502  0.00000000000E+00  0.00000000000E+00  0.87309421825E+03  0.87309421825E+03  0.00000000000E+00 0.  1.
         21   -1    0    0  502  503 -0.00000000000E+00 -0.00000000000E+00 -0.63792376697E+03  0.63792376697E+03  0.00000000000E+00 0.  1.
    9000007    2    1    2  501    0  0.96950392142E+02  0.46259216349E+03  0.53947157915E+03  0.82109765310E+03  0.39972600986E+03 0.  0.
    9000005    1    3    3    0    0 -0.98207383178E+02 -0.14779542773E+02  0.55111152901E+02  0.11358417215E+03  0.99999687468E+00 0.  0.
          4    1    3    3  501    0  0.19515777532E+03  0.47737170626E+03  0.48436042625E+03  0.70751348095E+03  0.00000000000E+00 0.  1.
   -9000007    1    1    2    0  503 -0.96950392142E+02 -0.46259216349E+03 -0.30430112787E+03  0.68992033212E+03  0.40000000000E+03 0.  1.
<mgrwt>
<rscale>  2 0.61914142E+03</rscale>
<asrwt>0</asrwt>
<pdfrwt beam="1">  1       21 0.13432219E+00 0.61918567E+03</pdfrwt>
<pdfrwt beam="2">  1       21 0.98142118E-01 0.61918567E+03</pdfrwt>
<totfact> 0.26253825E+02</totfact>
</mgrwt>
</event>
<event>
 6    1  0.9094387E-004  0.4471582E+03  0.7818608E-02  0.1028615E+00
         21   -1    0    0  501  502  0.00000000000E+00  0.00000000000E+00  0.70337550851E+03  0.70337550851E+03  0.00000000000E+00 0. -1.
         21   -1    0    0  502  503 -0.00000000000E+00 -0.00000000000E+00 -0.65063535942E+03  0.65063535942E+03  0.00000000000E+00 0. -1.
    9000007    2    1    2  501    0 -0.18546678910E+03 -0.74514986621E+02  0.53462917558E+03  0.69661643006E+03  0.39936910516E+03 0.  0.
    9000005    1    3    3    0    0 -0.67537326729E+02 -0.43101484158E+02  0.56516181866E+03  0.57081337555E+03  0.99999687468E+00 0.  0.
          4    1    3    3  501    0 -0.11792946237E+03 -0.31413502463E+02 -0.30532643078E+02  0.12580305451E+03  0.00000000000E+00 0.  1.
   -9000007    1    1    2    0  503  0.18546678910E+03  0.74514986621E+02 -0.48188902649E+03  0.65739443787E+03  0.40000000000E+03 0. -1.
<mgrwt>
<rscale>  2 0.44701702E+03</rscale>
<asrwt>0</asrwt>
<pdfrwt beam="1">  1       21 0.10821162E+00 0.44715815E+03</pdfrwt>
<pdfrwt beam="2">  1       21 0.10009775E+00 0.44715815E+03</pdfrwt>
<totfact> 0.46547139E+02</totfact>
</mgrwt>
</event>
<event>
 6    1  0.9094387E-004  0.5476720E+03  0.7818608E-02  0.1002089E+00
         21   -1    0    0  501  502  0.00000000000E+00  0.00000000000E+00  0.62839840344E+03  0.62839840344E+03  0.00000000000E+00 0.  1.
         21   -1    0    0  502  503 -0.00000000000E+00 -0.00000000000E+00 -0.65906050089E+03  0.65906050089E+03  0.00000000000E+00 0. -1.
    9000007    2    1    2  501    0 -0.54067897823E+02 -0.36877574341E+03  0.32346042707E+03  0.63605914314E+03  0.40128007574E+03 0.  0.
    9000005    1    3    3    0    0 -0.21937155643E+03 -0.23482025982E+03  0.26192799494E+03  0.41457412934E+03  0.99999687468E+00 0.  0.
          4    1    3    3  501    0  0.16530365861E+03 -0.13395548360E+03  0.61532432135E+02  0.22148501380E+03  0.00000000000E+00 0.  1.
   -9000007    1    1    2    0  503  0.54067897823E+02  0.36877574341E+03 -0.35412252452E+03  0.65139976119E+03  0.40000000000E+03 0. -1.
<mgrwt>
<rscale>  2 0.54743751E+03</rscale>
<asrwt>0</asrwt>
<pdfrwt beam="1">  1       21 0.96676677E-01 0.54767197E+03</pdfrwt>
<pdfrwt beam="2">  1       21 0.10139392E+00 0.54767197E+03</pdfrwt>
<totfact> 0.57078094E+02</totfact>
</mgrwt>
</event>
<event>
 6    1  0.9094387E-004  0.4529198E+03  0.7818608E-02  0.1026992E+00
         21   -1    0    0  501  502  0.00000000000E+00  0.00000000000E+00  0.20349362060E+03  0.20349362060E+03  0.00000000000E+00 0.  1.
         21   -1    0    0  502  503 -0.00000000000E+00 -0.00000000000E+00 -0.21937141882E+04  0.21937141882E+04  0.00000000000E+00 0. -1.
    9000007    2    1    2  501    0 -0.67080056981E+02 -0.19739491749E+03 -0.11334066759E+03  0.46688590648E+03  0.40208438821E+03 0.  0.
    9000005    1    3    3    0    0 -0.98130326127E+02 -0.25587032447E+03 -0.21310498875E+03  0.34715114874E+03  0.99999687468E+00 0.  0.
          4    1    3    3  501    0  0.31050269145E+02  0.58475406979E+02  0.99764321154E+02  0.11973475774E+03  0.00000000000E+00 0.  1.
   -9000007    1    1    2    0  503  0.67080056981E+02  0.19739491749E+03 -0.18768799000E+04  0.19303219023E+04  0.40000000000E+03 0. -1.
<mgrwt>
<rscale>  2 0.45245673E+03</rscale>
<asrwt>0</asrwt>
<pdfrwt beam="1">  1       21 0.31306712E-01 0.45291980E+03</pdfrwt>
<pdfrwt beam="2">  1       21 0.33749448E+00 0.45291980E+03</pdfrwt>
<totfact> 0.15619570E+02</totfact>
</mgrwt>
</event>
<event>
 6    1  0.9094387E-004  0.4102273E+03  0.7818608E-02  0.1040775E+00
         21   -1    0    0  501  502  0.00000000000E+00  0.00000000000E+00  0.43440746533E+03  0.43440746533E+03  0.00000000000E+00 0.  1.
         21   -1    0    0  502  503 -0.00000000000E+00 -0.00000000000E+00 -0.49159148752E+03  0.49159148752E+03  0.00000000000E+00 0.  1.
    9000007    2    1    2  501    0  0.57638334413E+02  0.18278068161E+02  0.18981211281E+03  0.45201229050E+03  0.40574648147E+03 0.  0.
    9000005    1    3    3    0    0 -0.44981995851E+02  0.74881692808E+02 -0.10392140286E+03  0.13576194546E+03  0.99999687468E+00 0.  0.
          4    1    3    3  501    0  0.10262033026E+03 -0.56603624647E+02  0.29373351568E+03  0.31625034504E+03  0.00000000000E+00 0.  1.
   -9000007    1    1    2    0  503 -0.57638334413E+02 -0.18278068161E+02 -0.24699613500E+03  0.47398666234E+03  0.40000000000E+03 0.  1.
<mgrwt>
<rscale>  2 0.40879920E+03</rscale>
<asrwt>0</asrwt>
<pdfrwt beam="1">  1       21 0.66831918E-01 0.41022734E+03</pdfrwt>
<pdfrwt beam="2">  1       21 0.75629459E-01 0.41022734E+03</pdfrwt>
<totfact> 0.28249052E+03</totfact>
</mgrwt>
</event>
<event>
 6    1  0.9094387E-004  0.4719355E+03  0.7818608E-02  0.1021452E+00
         21   -1    0    0  501  502  0.00000000000E+00  0.00000000000E+00  0.15501792996E+04  0.15501792996E+04  0.00000000000E+00 0.  1.
         21   -1    0    0  502  503 -0.00000000000E+00 -0.00000000000E+00 -0.22077857661E+03  0.22077857661E+03  0.00000000000E+00 0. -1.
    9000007    2    1    2  501    0 -0.16267951360E+03 -0.18769020653E+03  0.11896094817E+04  0.12798022706E+04  0.40128654987E+03 0.  0.
    9000005    1    3    3    0    0 -0.55101681414E+02 -0.15489977095E+03  0.11816123022E+03  0.20246780153E+03  0.99999687468E+00 0.  0.
          4    1    3    3  501    0 -0.10757783218E+03 -0.32790435578E+02  0.10714482515E+04  0.10773344691E+04  0.00000000000E+00 0.  1.
   -9000007    1    1    2    0  503  0.16267951360E+03  0.18769020653E+03  0.13979124126E+03  0.49115560559E+03  0.40000000000E+03 0. -1.
<mgrwt>
<rscale>  2 0.47166191E+03</rscale>
<asrwt>0</asrwt>
<pdfrwt beam="1">  1       21 0.23848912E+00 0.47193552E+03</pdfrwt>
<pdfrwt beam="2">  1       21 0.33965936E-01 0.47193552E+03</pdfrwt>
<totfact> 0.52328201E+02</totfact>
</mgrwt>
</event>
<event>
 6    1  0.9094387E-004  0.4202953E+03  0.7818608E-02  0.1036978E+00
         21   -1    0    0  501  502  0.00000000000E+00  0.00000000000E+00  0.14106111904E+03  0.14106111904E+03  0.00000000000E+00 0. -1.
         21   -1    0    0  502  503 -0.00000000000E+00 -0.00000000000E+00 -0.28853544418E+04  0.28853544418E+04  0.00000000000E+00 0. -1.
    9000007    2    1    2  501    0  0.91219613847E+02 -0.90807188414E+02 -0.23369645258E+03  0.48089722306E+03  0.40010141687E+03 0.  0.
    9000005    1    3    3    0    0  0.24315767936E+03 -0.93345022967E+02 -0.19120542999E+03  0.32310906331E+03  0.99999687468E+00 0.  0.
          4    1    3    3  501    0 -0.15193806551E+03  0.25378345525E+01 -0.42491022589E+02  0.15778815975E+03  0.00000000000E+00 0.  1.
   -9000007    1    1    2    0  503 -0.91219613847E+02  0.90807188414E+02 -0.25105968701E+04  0.25455183377E+04  0.40000000000E+03 0. -1.
<mgrwt>
<rscale>  2 0.42027112E+03</rscale>
<asrwt>0</asrwt>
<pdfrwt beam="1">  1       21 0.21701714E-01 0.42029526E+03</pdfrwt>
<pdfrwt beam="2">  1       21 0.44390062E+00 0.42029526E+03</pdfrwt>
<totfact> 0.68768668E+01</totfact>
</mgrwt>
</event>
<event>
 6    1  0.9094387E-004  0.4204743E+03  0.7818608E-02  0.1036923E+00
         21   -1    0    0  501  502  0.00000000000E+00  0.00000000000E+00  0.36122468933E+03  0.36122468933E+03  0.00000000000E+00 0.  1.
         21   -1    0    0  502  503 -0.00000000000E+00 -0.00000000000E+00 -0.60803834062E+03  0.60803834062E+03  0.00000000000E+00 0.  1.
    9000007    2    1    2  501    0  0.92404340682E+02  0.90272380607E+02 -0.33759424453E+03  0.53922956498E+03  0.40013870712E+03 0.  0.
    9000005    1    3    3    0    0 -0.11710928439E+03 -0.85794098555E+02 -0.94847393879E+02  0.17341349416E+03  0.99999687468E+00 0.  0.
          4    1    3    3  501    0  0.20951362507E+03  0.17606647916E+03 -0.24274685065E+03  0.36581607083E+03  0.00000000000E+00 0.  1.
   -9000007    1    1    2    0  503 -0.92404340682E+02 -0.90272380607E+02  0.90780593238E+02  0.43003346496E+03  0.40000000000E+03 0.  1.
<mgrwt>
<rscale>  2 0.42044131E+03</rscale>
<asrwt>0</asrwt>
<pdfrwt beam="1">  1       21 0.55573029E-01 0.42047432E+03</pdfrwt>
<pdfrwt beam="2">  1       21 0.93544359E-01 0.42047432E+03</pdfrwt>
<totfact> 0.25695460E+03</totfact>
</mgrwt>
</event>
<event>
 6    1  0.9094387E-004  0.4803144E+03  0.7818608E-02  0.1019140E+00
         21   -1    0    0  501  502  0.00000000000E+00  0.00000000000E+00  0.53607732133E+03  0.53607732133E+03  0.00000000000E+00 0. -1.
         21   -1    0    0  502  503 -0.00000000000E+00 -0.00000000000E+00 -0.81789177161E+03  0.81789177161E+03  0.00000000000E+00 0.  1.
    9000007    2    1    2  501    0  0.24005735344E+03 -0.10861790542E+03  0.32570906624E+03  0.58033467963E+03  0.40159253259E+03 0.  0.
    9000005    1    3    3    0    0  0.17431964738E+03  0.12522893776E+03  0.24183876374E+03  0.32335215162E+03  0.99999687468E+00 0.  0.
          4    1    3    3  501    0  0.65737706065E+02 -0.23384684318E+03  0.83870302503E+02  0.25698252801E+03  0.00000000000E+00 0.  1.
   -9000007    1    1    2    0  503 -0.24005735344E+03  0.10861790542E+03 -0.60752351652E+03  0.77363441330E+03  0.40000000000E+03 0.  1.
<mgrwt>
<rscale>  2 0.47998140E+03</rscale>
<asrwt>0</asrwt>
<pdfrwt beam="1">  1       21 0.82473435E-01 0.48031442E+03</pdfrwt>
<pdfrwt beam="2">  1       21 0.12582950E+00 0.48031442E+03</pdfrwt>
<totfact> 0.49674077E+02</totfact>
</mgrwt>
</event>
<event>
 6    1  0.9094387E-004  0.5494046E+03  0.7818608E-02  0.1001704E+00
         21   -1    0    0  501  502  0.00000000000E+00  0.00000000000E+00  0.18220755276E+04  0.18220755276E+04  0.00000000000E+00 0. -1.
         21   -1    0    0  502  503 -0.00000000000E+00 -0.00000000000E+00 -0.40485190851E+03  0.40485190851E+03  0.00000000000E+00 0. -1.
    9000007    2    1    2  501    0 -0.36410445377E+03 -0.96298258274E+02  0.15648108527E+04  0.16580448478E+04  0.39828922275E+03 0.  0.
    9000005    1    3    3    0    0 -0.11231575006E+03 -0.23048957426E+03  0.61504970793E+03  0.66635382101E+03  0.99999687468E+00 0.  0.
          4    1    3    3  501    0 -0.25178870371E+03  0.13419131599E+03  0.94976114473E+03  0.99169102681E+03  0.00000000000E+00 0.  1.
   -9000007    1    1    2    0  503  0.36410445377E+03  0.96298258274E+02 -0.14758723354E+03  0.56888258833E+03  0.40000000000E+03 0. -1.
<mgrwt>
<rscale>  2 0.54909326E+03</rscale>
<asrwt>0</asrwt>
<pdfrwt beam="1">  1       21 0.28031931E+00 0.54940459E+03</pdfrwt>
<pdfrwt beam="2">  1       21 0.62284910E-01 0.54940459E+03</pdfrwt>
<totfact> 0.77517770E+01</totfact>
</mgrwt>
</event>
<event>
 6    1  0.9094387E-004  0.4924471E+03  0.7818608E-02  0.1015785E+00
         21   -1    0    0  501  502  0.00000000000E+00  0.00000000000E+00  0.59597245975E+03  0.59597245975E+03  0.00000000000E+00 0. -1.
         21   -1    0    0  502  503 -0.00000000000E+00 -0.00000000000E+00 -0.41596902971E+03  0.41596902971E+03  0.00000000000E+00 0.  1.
    9000007    2    1    2  501    0 -0.68639542337E+02 -0.27850708605E+03  0.16549045578E+03  0.51951057028E+03  0.40028309723E+03 0.  0.
    9000005    1    3    3    0    0 -0.58584976598E+02 -0.31708444979E+03  0.26175291018E+03  0.41531955621E+03  0.99999687468E+00 0.  0.
          4    1    3    3  501    0 -0.10054565739E+02  0.38577363746E+02 -0.96262454404E+02  0.10419101407E+03  0.00000000000E+00 0.  1.
   -9000007    1    1    2    0  503  0.68639542337E+02  0.27850708605E+03  0.14512974263E+02  0.49243091919E+03  0.40000000000E+03 0.  1.
<mgrwt>
<rscale>  2 0.49238956E+03</rscale>
<asrwt>0</asrwt>
<pdfrwt beam="1">  1       21 0.91688070E-01 0.49244710E+03</pdfrwt>
<pdfrwt beam="2">  1       21 0.63995236E-01 0.49244710E+03</pdfrwt>
<totfact> 0.19272381E+03</totfact>
</mgrwt>
</event>
<event>
 6    1  0.9094387E-004  0.4052696E+03  0.7818608E-02  0.1041980E+00
         21   -1    0    0  501  502  0.00000000000E+00  0.00000000000E+00  0.87564972646E+03  0.87564972646E+03  0.00000000000E+00 0. -1.
         21   -1    0    0  502  503 -0.00000000000E+00 -0.00000000000E+00 -0.23274487509E+03  0.23274487509E+03  0.00000000000E+00 0. -1.
    9000007    2    1    2  501    0  0.34760324724E+02  0.55092031238E+02  0.56572317023E+03  0.69584106080E+03  0.39988581431E+03 0.  0.
    9000005    1    3    3    0    0  0.64213470926E+02 -0.92474676131E+02  0.52913374570E+03  0.54097916448E+03  0.99999687468E+00 0.  0.
          4    1    3    3  501    0 -0.29453146203E+02  0.14756670737E+03  0.36589424535E+02  0.15486189632E+03  0.00000000000E+00 0.  1.
   -9000007    1    1    2    0  503 -0.34760324724E+02 -0.55092031238E+02  0.77181681142E+02  0.41255354075E+03  0.40000000000E+03 0. -1.
<mgrwt>
<rscale>  2 0.40524138E+03</rscale>
<asrwt>0</asrwt>
<pdfrwt beam="1">  1       21 0.13471534E+00 0.40526955E+03</pdfrwt>
<pdfrwt beam="2">  1       21 0.35806904E-01 0.40526955E+03</pdfrwt>
<totfact> 0.26086135E+03</totfact>
</mgrwt>
</event>
<event>
 6    1  0.9094387E-004  0.4123065E+03  0.7818608E-02  0.1039615E+00
         21   -1    0    0  501  502  0.00000000000E+00  0.00000000000E+00  0.26105177752E+03  0.26105177752E+03  0.00000000000E+00 0. -1.
         21   -1    0    0  502  503 -0.00000000000E+00 -0.00000000000E+00 -0.10767560435E+04  0.10767560435E+04  0.00000000000E+00 0. -1.
    9000007    2    1    2  501    0 -0.40999798576E+02  0.90341627104E+02  0.12755213694E+02  0.41250370748E+03  0.40019247886E+03 0.  0.
    9000005    1    3    3    0    0 -0.36469908202E+02  0.24539641729E+03  0.49749256680E+02  0.25303249665E+03  0.99999687468E+00 0.  0.
          4    1    3    3  501    0 -0.45298903740E+01 -0.15505479019E+03 -0.36994042985E+02  0.15947121083E+03  0.00000000000E+00 0.  1.
   -9000007    1    1    2    0  503  0.40999798576E+02 -0.90341627104E+02 -0.82845947963E+03  0.92530411350E+03  0.40000000000E+03 0. -1.
<mgrwt>
<rscale>  2 0.41225974E+03</rscale>
<asrwt>0</asrwt>
<pdfrwt beam="1">  1       21 0.40161812E-01 0.41230646E+03</pdfrwt>
<pdfrwt beam="2">  1       21 0.16565478E+00 0.41230646E+03</pdfrwt>
<totfact> 0.11750939E+03</totfact>
</mgrwt>
</event>
<event>
 6    1  0.9094387E-004  0.4214278E+03  0.7818608E-02  0.1036603E+00
         21   -1    0    0  501  502  0.00000000000E+00  0.00000000000E+00  0.33273986667E+03  0.33273986667E+03  0.00000000000E+00 0.  1.
         21   -1    0    0  502  503 -0.00000000000E+00 -0.00000000000E+00 -0.67199525443E+03  0.67199525443E+03  0.00000000000E+00 0.  1.
    9000007    2    1    2  501    0 -0.53069233803E+02  0.12159391124E+03  0.58236356398E+02  0.42542422917E+03  0.39999109832E+03 0.  0.
    9000005    1    3    3    0    0  0.16174713627E+03  0.73999550906E+00 -0.28273951752E+02  0.16420444582E+03  0.99999687468E+00 0.  0.
          4    1    3    3  501    0 -0.21481637007E+03  0.12085391573E+03  0.86510308150E+02  0.26121978335E+03  0.00000000000E+00 0.  1.
   -9000007    1    1    2    0  503  0.53069233803E+02 -0.12159391124E+03 -0.39749174416E+03  0.57931089193E+03  0.40000000000E+03 0.  1.
<mgrwt>
<rscale>  2 0.42142573E+03</rscale>
<asrwt>0</asrwt>
<pdfrwt beam="1">  1       21 0.51190749E-01 0.42142784E+03</pdfrwt>
<pdfrwt beam="2">  1       21 0.10338388E+00 0.42142784E+03</pdfrwt>
<totfact> 0.24060737E+03</totfact>
</mgrwt>
</event>
<event>
 6    1  0.9094387E-004  0.6117485E+03  0.7818608E-02  0.9881341E-01
         21   -1    0    0  501  502  0.00000000000E+00  0.00000000000E+00  0.22810052139E+03  0.22810052139E+03  0.00000000000E+00 0.  1.
         21   -1    0    0  502  503 -0.00000000000E+00 -0.00000000000E+00 -0.18956001631E+04  0.18956001631E+04  0.00000000000E+00 0.  1.
    9000007    2    1    2  501    0  0.44775746758E+03  0.11711941370E+03 -0.44430200751E+03  0.75606909698E+03  0.40004062131E+03 0.  0.
    9000005    1    3    3    0    0  0.33494265650E+03 -0.99704833420E+02 -0.16984892541E+03  0.38855796789E+03  0.99999687468E+00 0.  0.
          4    1    3    3  501    0  0.11281481108E+03  0.21682424712E+03 -0.27445308210E+03  0.36751112910E+03  0.00000000000E+00 0.  1.
   -9000007    1    1    2    0  503 -0.44775746758E+03 -0.11711941370E+03 -0.12231976342E+04  0.13676315875E+04  0.40000000000E+03 0.  1.
<mgrwt>
<rscale>  2 0.61174184E+03</rscale>
<asrwt>0</asrwt>
<pdfrwt beam="1">  1       21 0.35092387E-01 0.61174848E+03</pdfrwt>
<pdfrwt beam="2">  1       21 0.29163080E+00 0.61174848E+03</pdfrwt>
<totfact> 0.21681812E+02</totfact>
</mgrwt>
</event>
<event>
 6    1  0.9094387E-004  0.4397937E+03  0.7818608E-02  0.1030834E+00
         21   -1    0    0  501  502  0.00000000000E+00  0.00000000000E+00  0.16844874827E+03  0.16844874827E+03  0.00000000000E+00 0.  1.
         21   -1    0    0  502  503 -0.00000000000E+00 -0.00000000000E+00 -0.12987559241E+04  0.12987559241E+04  0.00000000000E+00 0.  1.
    9000007    2    1    2  501    0  0.12488335019E+03  0.13245676399E+03 -0.31490433516E+03  0.54090966642E+03  0.40034720112E+03 0.  0.
    9000005    1    3    3    0    0  0.43331275763E+02 -0.12699312720E+03 -0.13377186463E+02  0.13485103977E+03  0.99999687468E+00 0.  0.
          4    1    3    3  501    0  0.81552074427E+02  0.25944989119E+03 -0.30152714870E+03  0.40605862666E+03  0.00000000000E+00 0.  1.
   -9000007    1    1    2    0  503 -0.12488335019E+03 -0.13245676399E+03 -0.81540284064E+03  0.92629500593E+03  0.40000000000E+03 0. -1.
<mgrwt>
<rscale>  2 0.43971470E+03</rscale>
<asrwt>0</asrwt>
<pdfrwt beam="1">  1       21 0.25915192E-01 0.43979373E+03</pdfrwt>
<pdfrwt beam="2">  1       21 0.19980860E+00 0.43979373E+03</pdfrwt>
<totfact> 0.16105318E+03</totfact>
</mgrwt>
</event>
<event>
 6    1  0.9094387E-004  0.6281198E+03  0.7818608E-02  0.9848968E-01
         21   -1    0    0  501  502  0.00000000000E+00  0.00000000000E+00  0.56385503495E+03  0.56385503495E+03  0.00000000000E+00 0. -1.
         21   -1    0    0  502  503 -0.00000000000E+00 -0.00000000000E+00 -0.70609121630E+03  0.70609121630E+03  0.00000000000E+00 0.  1.
    9000007    2    1    2  501    0 -0.32595684557E+03  0.35730131864E+03 -0.82212976442E+01  0.62817363847E+03  0.40077728585E+03 0.  0.
    9000005    1    3    3    0    0 -0.49056883718E+02  0.33909410958E+03 -0.54219416480E+02  0.34688923031E+03  0.99999687468E+00 0.  0.
          4    1    3    3  501    0 -0.27689996185E+03  0.18207209060E+02  0.45998118836E+02  0.28128440815E+03  0.00000000000E+00 0.  1.
   -9000007    1    1    2    0  503  0.32595684557E+03 -0.35730131864E+03 -0.13401488371E+03  0.64177261279E+03  0.40000000000E+03 0.  1.
<mgrwt>
<rscale>  2 0.62799588E+03</rscale>
<asrwt>0</asrwt>
<pdfrwt beam="1">  1       21 0.86746928E-01 0.62811984E+03</pdfrwt>
<pdfrwt beam="2">  1       21 0.10862942E+00 0.62811984E+03</pdfrwt>
<totfact> 0.60724835E+02</totfact>
</mgrwt>
</event>
<event>
 6    1  0.9094387E-004  0.6262544E+03  0.7818608E-02  0.9852563E-01
         21   -1    0    0  501  502  0.00000000000E+00  0.00000000000E+00  0.85283291942E+03  0.85283291942E+03  0.00000000000E+00 0.  1.
         21   -1    0    0  502  503 -0.00000000000E+00 -0.00000000000E+00 -0.62734160809E+03  0.62734160809E+03  0.00000000000E+00 0. -1.
    9000007    2    1    2  501    0 -0.24831505935E+03  0.41295784698E+03  0.49540699397E+03  0.79822949466E+03  0.39943420534E+03 0.  0.
    9000005    1    3    3    0    0 -0.20529473031E+03  0.29943803074E+03  0.88622210908E+02  0.37371641227E+03  0.99999687468E+00 0.  0.
          4    1    3    3  501    0 -0.43020329045E+02  0.11351981625E+03  0.40678478306E+03  0.42451308239E+03  0.00000000000E+00 0.  1.
   -9000007    1    1    2    0  503  0.24831505935E+03 -0.41295784698E+03 -0.26991568264E+03  0.68194503284E+03  0.40000000000E+03 0. -1.
<mgrwt>
<rscale>  2 0.62616406E+03</rscale>
<asrwt>0</asrwt>
<pdfrwt beam="1">  1       21 0.13120506E+00 0.62625438E+03</pdfrwt>
<pdfrwt beam="2">  1       21 0.96514093E-01 0.62625438E+03</pdfrwt>
<totfact> 0.29016902E+02</totfact>
</mgrwt>
</event>
<event>
 6    1  0.9094387E-004  0.4565495E+03  0.7818608E-02  0.1025856E+00
         21   -1    0    0  501  502  0.00000000000E+00  0.00000000000E+00  0.23578447069E+03  0.23578447069E+03  0.00000000000E+00 0. -1.
         21   -1    0    0  502  503 -0.00000000000E+00 -0.00000000000E+00 -0.90705962413E+03  0.90705962413E+03  0.00000000000E+00 0. -1.
    9000007    2    1    2  501    0  0.21659831754E+03  0.25603127560E+02 -0.24133534693E+03  0.51641086732E+03  0.40108238918E+03 0.  0.
    9000005    1    3    3    0    0  0.14395874440E+03  0.81295573114E+02  0.79014248379E+02  0.18324121190E+03  0.99999687468E+00 0.  0.
          4    1    3    3  501    0  0.72639573132E+02 -0.55692445553E+02 -0.32034959531E+03  0.33316965542E+03  0.00000000000E+00 0.  1.
   -9000007    1    1    2    0  503 -0.21659831754E+03 -0.25603127560E+02 -0.42993980651E+03  0.62643322750E+03  0.40000000000E+03 0. -1.
<mgrwt>
<rscale>  2 0.45631165E+03</rscale>
<asrwt>0</asrwt>
<pdfrwt beam="1">  1       21 0.36274535E-01 0.45654949E+03</pdfrwt>
<pdfrwt beam="2">  1       21 0.13954763E+00 0.45654949E+03</pdfrwt>
<totfact> 0.22686951E+03</totfact>
</mgrwt>
</event>
<event>
 6    1  0.9094387E-004  0.4108260E+03  0.7818608E-02  0.1040121E+00
         21   -1    0    0  501  502  0.00000000000E+00  0.00000000000E+00  0.47318778863E+03  0.47318778863E+03  0.00000000000E+00 0. -1.
         21   -1    0    0  502  503 -0.00000000000E+00 -0.00000000000E+00 -0.35652809102E+03  0.35652809102E+03  0.00000000000E+00 0. -1.
    9000007    2    1    2  501    0 -0.90780952432E+02  0.16571404214E+02  0.66036747484E+02  0.41609954070E+03  0.40032759459E+03 0.  0.
    9000005    1    3    3    0    0 -0.19801619797E+03 -0.10590839734E+03  0.10623006839E+03  0.24842067287E+03  0.99999687468E+00 0.  0.
          4    1    3    3  501    0  0.10723524553E+03  0.12247980155E+03 -0.40193320907E+02  0.16767886783E+03  0.00000000000E+00 0.  1.
   -9000007    1    1    2    0  503  0.90780952432E+02 -0.16571404214E+02  0.50622950123E+02  0.41361633894E+03  0.40000000000E+03 0. -1.
<mgrwt>
<rscale>  2 0.41074614E+03</rscale>
<asrwt>0</asrwt>
<pdfrwt beam="1">  1       21 0.72798121E-01 0.41082597E+03</pdfrwt>
<pdfrwt beam="2">  1       21 0.54850476E-01 0.41082597E+03</pdfrwt>
<totfact> 0.47480542E+03</totfact>
</mgrwt>
</event>
<event>
 6    1  0.9094387E-004  0.4223313E+03  0.7818608E-02  0.1036349E+00
         21   -1    0    0  501  502  0.00000000000E+00  0.00000000000E+00  0.40058838871E+03  0.40058838871E+03  0.00000000000E+00 0. -1.
         21   -1    0    0  502  503 -0.00000000000E+00 -0.00000000000E+00 -0.57102441109E+03  0.57102441109E+03  0.00000000000E+00 0. -1.
    9000007    2    1    2  501    0 -0.13547386350E+03  0.32461554419E+01  0.14326652788E+03  0.44552060707E+03  0.39949919662E+03 0.  0.
    9000005    1    3    3    0    0  0.12501979319E+03  0.22032308975E+02  0.13341775989E+03  0.18416479027E+03  0.99999687468E+00 0.  0.
          4    1    3    3  501    0 -0.26049365670E+03 -0.18786153533E+02  0.98487679854E+01  0.26135581680E+03  0.00000000000E+00 0.  1.
   -9000007    1    1    2    0  503  0.13547386350E+03 -0.32461554419E+01 -0.31370255026E+03  0.52609219273E+03  0.40000000000E+03 0.  1.
<mgrwt>
<rscale>  2 0.42221265E+03</rscale>
<asrwt>0</asrwt>
<pdfrwt beam="1">  1       21 0.61628983E-01 0.42233127E+03</pdfrwt>
<pdfrwt beam="2">  1       21 0.87849909E-01 0.42233127E+03</pdfrwt>
<totfact> 0.23782511E+03</totfact>
</mgrwt>
</event>
<event>
 6    1  0.9094387E-004  0.4789657E+03  0.7818608E-02  0.1019439E+00
         21   -1    0    0  501  502  0.00000000000E+00  0.00000000000E+00  0.22598999848E+03  0.22598999848E+03  0.00000000000E+00 0. -1.
         21   -1    0    0  502  503 -0.00000000000E+00 -0.00000000000E+00 -0.14883099737E+04  0.14883099737E+04  0.00000000000E+00 0. -1.
    9000007    2    1    2  501    0 -0.25637695357E+03 -0.60654961304E+02 -0.14742308718E+03  0.50087373314E+03  0.39966581448E+03 0.  0.
    9000005    1    3    3    0    0 -0.64966207696E+02 -0.17565621633E+03  0.59425651627E+02  0.19648949728E+03  0.99999687468E+00 0.  0.
          4    1    3    3  501    0 -0.19141074588E+03  0.11500125502E+03 -0.20684873881E+03  0.30438423586E+03  0.00000000000E+00 0.  1.
   -9000007    1    1    2    0  503  0.25637695357E+03  0.60654961304E+02 -0.11148968880E+04  0.12134262390E+04  0.40000000000E+03 0. -1.
<mgrwt>
<rscale>  2 0.47889595E+03</rscale>
<asrwt>0</asrwt>
<pdfrwt beam="1">  1       21 0.34767691E-01 0.47896573E+03</pdfrwt>
<pdfrwt beam="2">  1       21 0.22897077E+00 0.47896573E+03</pdfrwt>
<totfact> 0.57084326E+02</totfact>
</mgrwt>
</event>
<event>
 6    1  0.9094387E-004  0.5276278E+03  0.7818608E-02  0.1006830E+00
         21   -1    0    0  501  502  0.00000000000E+00  0.00000000000E+00  0.18141497542E+04  0.18141497542E+04  0.00000000000E+00 0. -1.
         21   -1    0    0  502  503 -0.00000000000E+00 -0.00000000000E+00 -0.15375685049E+03  0.15375685049E+03  0.00000000000E+00 0. -1.
    9000007    2    1    2  501    0  0.17739943787E+03 -0.29420151051E+03  0.78013618170E+03  0.94180866299E+03  0.40045724658E+03 0.  0.
    9000005    1    3    3    0    0  0.26503732883E+03 -0.14491434674E+03  0.67440339260E+03  0.73896271186E+03  0.99999687468E+00 0.  0.
          4    1    3    3  501    0 -0.87637890962E+02 -0.14928716378E+03  0.10573278910E+03  0.20284595113E+03  0.00000000000E+00 0.  1.
   -9000007    1    1    2    0  503 -0.17739943787E+03  0.29420151051E+03  0.88025672205E+03  0.10260979418E+04  0.40000000000E+03 0. -1.
<mgrwt>
<rscale>  2 0.52754104E+03</rscale>
<asrwt>0</asrwt>
<pdfrwt beam="1">  1       21 0.27909995E+00 0.52762780E+03</pdfrwt>
<pdfrwt beam="2">  1       21 0.23654901E-01 0.52762780E+03</pdfrwt>
<totfact> 0.58750449E+02</totfact>
</mgrwt>
</event>
<event>
 6    1  0.9094387E-004  0.4698959E+03  0.7818608E-02  0.1021994E+00
         21   -1    0    0  501  502  0.00000000000E+00  0.00000000000E+00  0.10365606864E+04  0.10365606864E+04  0.00000000000E+00 0. -1.
         21   -1    0    0  502  503 -0.00000000000E+00 -0.00000000000E+00 -0.21563871416E+03  0.21563871416E+03  0.00000000000E+00 0.  1.
    9000007    2    1    2  501    0  0.53408380694E+02 -0.24072741861E+03  0.48289210023E+03  0.67335024958E+03  0.39926636841E+03 0.  0.
    9000005    1    3    3    0    0 -0.38715109275E+02  0.10451185289E+03  0.12825976498E+03  0.16992102397E+03  0.99999687468E+00 0.  0.
          4    1    3    3  501    0  0.92123489970E+02 -0.34523927150E+03  0.35463233525E+03  0.50342922561E+03  0.00000000000E+00 0.  1.
   -9000007    1    1    2    0  503 -0.53408380694E+02  0.24072741861E+03  0.33802987199E+03  0.57884915095E+03  0.40000000000E+03 0.  1.
<mgrwt>
<rscale>  2 0.46973972E+03</rscale>
<asrwt>0</asrwt>
<pdfrwt beam="1">  1       21 0.15947087E+00 0.46989589E+03</pdfrwt>
<pdfrwt beam="2">  1       21 0.33175187E-01 0.46989589E+03</pdfrwt>
<totfact> 0.18814870E+03</totfact>
</mgrwt>
</event>
<event>
 6    1  0.9094387E-004  0.4014012E+03  0.7818608E-02  0.1043468E+00
         21   -1    0    0  501  502  0.00000000000E+00  0.00000000000E+00  0.26627752788E+03  0.26627752788E+03  0.00000000000E+00 0.  1.
         21   -1    0    0  502  503 -0.00000000000E+00 -0.00000000000E+00 -0.61227888231E+03  0.61227888231E+03  0.00000000000E+00 0.  1.
    9000007    2    1    2  501    0  0.16448077559E+02 -0.29195574650E+02 -0.22924260631E+03  0.46051870125E+03  0.39799796585E+03 0.  0.
    9000005    1    3    3    0    0 -0.10068898204E+03  0.12152036156E+03 -0.21823357225E+03  0.26931832732E+03  0.99999687468E+00 0.  0.
          4    1    3    3  501    0  0.11713705960E+03 -0.15071593621E+03 -0.11009034054E+02  0.19120037393E+03  0.00000000000E+00 0.  1.
   -9000007    1    1    2    0  503 -0.16448077559E+02  0.29195574650E+02 -0.11675874812E+03  0.41803770894E+03  0.40000000000E+03 0. -1.
<mgrwt>
<rscale>  2 0.40090151E+03</rscale>
<asrwt>0</asrwt>
<pdfrwt beam="1">  1       21 0.40965774E-01 0.40140120E+03</pdfrwt>
<pdfrwt beam="2">  1       21 0.94196750E-01 0.40140120E+03</pdfrwt>
<totfact> 0.48437321E+03</totfact>
</mgrwt>
</event>
<event>
 6    1  0.9094387E-004  0.4326512E+03  0.7818608E-02  0.1033031E+00
         21   -1    0    0  501  502  0.00000000000E+00  0.00000000000E+00  0.33466735690E+03  0.33466735690E+03  0.00000000000E+00 0. -1.
         21   -1    0    0  502  503 -0.00000000000E+00 -0.00000000000E+00 -0.58161832809E+03  0.58161832809E+03  0.00000000000E+00 0.  1.
    9000007    2    1    2  501    0 -0.34757351893E+02 -0.16100171071E+03 -0.33612372939E+02  0.43395490443E+03  0.40007179744E+03 0.  0.
    9000005    1    3    3    0    0  0.20711998274E+02 -0.10664897910E+03 -0.21265150481E+03  0.23879835449E+03  0.99999687468E+00 0.  0.
          4    1    3    3  501    0 -0.55469350167E+02 -0.54352731614E+02  0.17903913187E+03  0.19515654994E+03  0.00000000000E+00 0.  1.
   -9000007    1    1    2    0  503  0.34757351893E+02  0.16100171071E+03 -0.21333859826E+03  0.48233078055E+03  0.40000000000E+03 0.  1.
<mgrwt>
<rscale>  2 0.43263461E+03</rscale>
<asrwt>0</asrwt>
<pdfrwt beam="1">  1       21 0.51487286E-01 0.43265121E+03</pdfrwt>
<pdfrwt beam="2">  1       21 0.89479741E-01 0.43265121E+03</pdfrwt>
<totfact> 0.33486021E+03</totfact>
</mgrwt>
</event>
<event>
 6    1  0.9094387E-004  0.9373585E+03  0.7818608E-02  0.9380091E-01
         21   -1    0    0  501  502  0.00000000000E+00  0.00000000000E+00  0.12274898228E+04  0.12274898228E+04  0.00000000000E+00 0.  1.
         21   -1    0    0  502  503 -0.00000000000E+00 -0.00000000000E+00 -0.81292104846E+03  0.81292104846E+03  0.00000000000E+00 0.  1.
    9000007    2    1    2  501    0  0.70777331877E+03  0.46658102047E+03  0.56008745515E+03  0.10918242353E+04  0.39967647407E+03 0.  0.
    9000005    1    3    3    0    0  0.38376088806E+03  0.26071782696E+03  0.69857283178E+02  0.46917719948E+03  0.99999687468E+00 0.  0.
          4    1    3    3  501    0  0.32401243070E+03  0.20586319351E+03  0.49023017198E+03  0.62264703581E+03  0.00000000000E+00 0.  1.
   -9000007    1    1    2    0  503 -0.70777331877E+03 -0.46658102047E+03 -0.14551868084E+03  0.94858663595E+03  0.40000000000E+03 0.  1.
<mgrwt>
<rscale>  2 0.93732397E+03</rscale>
<asrwt>0</asrwt>
<pdfrwt beam="1">  1       21 0.18884459E+00 0.93735848E+03</pdfrwt>
<pdfrwt beam="2">  1       21 0.12506478E+00 0.93735848E+03</pdfrwt>
<totfact> 0.49118597E+01</totfact>
</mgrwt>
</event>
<event>
 6    1  0.9094387E-004  0.4432692E+03  0.7818608E-02  0.1029817E+00
         21   -1    0    0  501  502  0.00000000000E+00  0.00000000000E+00  0.22328671885E+03  0.22328671885E+03  0.00000000000E+00 0. -1.
         21   -1    0    0  502  503 -0.00000000000E+00 -0.00000000000E+00 -0.10696544510E+04  0.10696544510E+04  0.00000000000E+00 0.  1.
    9000007    2    1    2  501    0 -0.10647083792E+03  0.15859240629E+03 -0.14933069034E+03  0.46689744927E+03  0.39900624357E+03 0.  0.
    9000005    1    3    3    0    0 -0.19508552688E+03  0.30758886800E+02 -0.22035202787E+03  0.29590621503E+03  0.99999687468E+00 0.  0.
          4    1    3    3  501    0  0.88614688959E+02  0.12783351949E+03  0.71021337532E+02  0.17099123424E+03  0.00000000000E+00 0.  1.
   -9000007    1    1    2    0  503  0.10647083792E+03 -0.15859240629E+03 -0.69703704182E+03  0.82604372059E+03  0.40000000000E+03 0.  1.
<mgrwt>
<rscale>  2 0.44304490E+03</rscale>
<asrwt>0</asrwt>
<pdfrwt beam="1">  1       21 0.34351803E-01 0.44326921E+03</pdfrwt>
<pdfrwt beam="2">  1       21 0.16456222E+00 0.44326921E+03</pdfrwt>
<totfact> 0.16234993E+03</totfact>
</mgrwt>
</event>
<event>
 6    1  0.9094387E-004  0.4854070E+03  0.7818608E-02  0.1017660E+00
         21   -1    0    0  501  502  0.00000000000E+00  0.00000000000E+00  0.97106416779E+03  0.97106416779E+03  0.00000000000E+00 0. -1.
         21   -1    0    0  502  503 -0.00000000000E+00 -0.00000000000E+00 -0.25571866309E+03  0.25571866309E+03  0.00000000000E+00 0. -1.
    9000007    2    1    2  501    0  0.21521097662E+03 -0.17118456610E+03  0.49639725562E+03  0.69428094740E+03  0.39999484799E+03 0.  0.
    9000005    1    3    3    0    0  0.27699253097E+03 -0.25578017700E+03  0.42142142172E+03  0.56546032207E+03  0.99999687468E+00 0.  0.
          4    1    3    3  501    0 -0.61781554352E+02  0.84595610902E+02  0.74975833895E+02  0.12882062533E+03  0.00000000000E+00 0.  1.
   -9000007    1    1    2    0  503 -0.21521097662E+03  0.17118456610E+03  0.21894824908E+03  0.53250188348E+03  0.40000000000E+03 0. -1.
<mgrwt>
<rscale>  2 0.48540590E+03</rscale>
<asrwt>0</asrwt>
<pdfrwt beam="1">  1       21 0.14939448E+00 0.48540696E+03</pdfrwt>
<pdfrwt beam="2">  1       21 0.39341334E-01 0.48540696E+03</pdfrwt>
<totfact> 0.15822310E+03</totfact>
</mgrwt>
</event>
<event>
 6    1  0.9094387E-004  0.4155389E+03  0.7818608E-02  0.1038595E+00
         21   -1    0    0  501  502  0.00000000000E+00  0.00000000000E+00  0.49372545377E+03  0.49372545377E+03  0.00000000000E+00 0.  1.
         21   -1    0    0  502  503 -0.00000000000E+00 -0.00000000000E+00 -0.48971327289E+03  0.48971327289E+03  0.00000000000E+00 0.  1.
    9000007    2    1    2  501    0  0.77320748478E+02  0.81817353706E+02  0.26553473141E+03  0.49245336848E+03  0.39916043018E+03 0.  0.
    9000005    1    3    3    0    0 -0.13292881835E+03  0.78557063606E+02  0.23323000923E+03  0.27971149456E+03  0.99999687468E+00 0.  0.
          4    1    3    3  501    0  0.21024956683E+03  0.32602900996E+01  0.32304722183E+02  0.21274187392E+03  0.00000000000E+00 0.  1.
   -9000007    1    1    2    0  503 -0.77320748478E+02 -0.81817353706E+02 -0.26152255054E+03  0.49098535819E+03  0.40000000000E+03 0.  1.
<mgrwt>
<rscale>  2 0.41533672E+03</rscale>
<asrwt>0</asrwt>
<pdfrwt beam="1">  1       21 0.75957762E-01 0.41553890E+03</pdfrwt>
<pdfrwt beam="2">  1       21 0.75340504E-01 0.41553890E+03</pdfrwt>
<totfact> 0.21307429E+03</totfact>
</mgrwt>
</event>
<event>
 6    1  0.9094387E-004  0.4235150E+03  0.7818608E-02  0.1035962E+00
         21   -1    0    0  501  502  0.00000000000E+00  0.00000000000E+00  0.17017586098E+03  0.17017586098E+03  0.00000000000E+00 0. -1.
         21   -1    0    0  502  503 -0.00000000000E+00 -0.00000000000E+00 -0.14052702707E+04  0.14052702707E+04  0.00000000000E+00 0. -1.
    9000007    2    1    2  501    0  0.48744910701E+02 -0.12898655867E+03 -0.22335925581E+03  0.47880506902E+03  0.40043893208E+03 0.  0.
    9000005    1    3    3    0    0  0.29165235323E+02 -0.26516362598E+03 -0.21202622317E+03  0.34076161580E+03  0.99999687468E+00 0.  0.
          4    1    3    3  501    0  0.19579675378E+02  0.13617706731E+03 -0.11333032638E+02  0.13804345322E+03  0.00000000000E+00 0.  1.
   -9000007    1    1    2    0  503 -0.48744910701E+02  0.12898655867E+03 -0.10117351539E+04  0.10966410626E+04  0.40000000000E+03 0. -1.
<mgrwt>
<rscale>  2 0.42341119E+03</rscale>
<asrwt>0</asrwt>
<pdfrwt beam="1">  1       21 0.26180901E-01 0.42351498E+03</pdfrwt>
<pdfrwt beam="2">  1       21 0.21619543E+00 0.42351498E+03</pdfrwt>
<totfact> 0.12429818E+03</totfact>
</mgrwt>
</event>
<event>
 6    1  0.9094387E-004  0.4527102E+03  0.7818608E-02  0.1026944E+00
         21   -1    0    0  501  502  0.00000000000E+00  0.00000000000E+00  0.47527407610E+03  0.47527407610E+03  0.00000000000E+00 0.  1.
         21   -1    0    0  502  503 -0.00000000000E+00 -0.00000000000E+00 -0.45197954209E+03  0.45197954209E+03  0.00000000000E+00 0.  1.
    9000007    2    1    2  501    0 -0.21015250575E+03  0.27972572985E+02  0.11184758589E+03  0.46596392232E+03  0.39958222424E+03 0.  0.
    9000005    1    3    3    0    0 -0.32469304447E+03  0.60149343870E+02  0.57595900333E+02  0.33520412352E+03  0.99999687468E+00 0.  0.
          4    1    3    3  501    0  0.11454053873E+03 -0.32176770886E+02  0.54251685556E+02  0.13075979880E+03  0.00000000000E+00 0.  1.
   -9000007    1    1    2    0  503  0.21015250575E+03 -0.27972572985E+02 -0.88553051883E+02  0.46128969586E+03  0.40000000000E+03 0. -1.
<mgrwt>
<rscale>  2 0.45261792E+03</rscale>
<asrwt>0</asrwt>
<pdfrwt beam="1">  1       21 0.73119088E-01 0.45271022E+03</pdfrwt>
<pdfrwt beam="2">  1       21 0.69535315E-01 0.45271022E+03</pdfrwt>
<totfact> 0.27474595E+03</totfact>
</mgrwt>
</event>
<event>
 6    1  0.9094387E-004  0.4879951E+03  0.7818608E-02  0.1016971E+00
         21   -1    0    0  501  502  0.00000000000E+00  0.00000000000E+00  0.92852945979E+02  0.92852945979E+02  0.00000000000E+00 0.  1.
         21   -1    0    0  502  503 -0.00000000000E+00 -0.00000000000E+00 -0.26288397014E+04  0.26288397014E+04  0.00000000000E+00 0.  1.
    9000007    2    1    2  501    0  0.22826386883E+02 -0.27834534183E+03 -0.14820192834E+04  0.15602949526E+04  0.40017747266E+03 0.  0.
    9000005    1    3    3    0    0  0.55770945127E+02 -0.22508787097E+03 -0.14795605169E+04  0.14976232074E+04  0.99999687468E+00 0.  0.
          4    1    3    3  501    0 -0.32944558245E+02 -0.53257470858E+02 -0.24587664345E+01  0.62671745248E+02  0.00000000000E+00 0.  1.
   -9000007    1    1    2    0  503 -0.22826386883E+02  0.27834534183E+03 -0.10539674720E+04  0.11613976947E+04  0.40000000000E+03 0.  1.
<mgrwt>
<rscale>  2 0.48795868E+03</rscale>
<asrwt>0</asrwt>
<pdfrwt beam="1">  1       21 0.14285069E-01 0.48799506E+03</pdfrwt>
<pdfrwt beam="2">  1       21 0.40443688E+00 0.48799506E+03</pdfrwt>
<totfact> 0.26216204E+02</totfact>
</mgrwt>
</event>
<event>
 6    1  0.9094387E-004  0.4000857E+03  0.7818608E-02  0.1044637E+00
         21   -1    0    0  501  502  0.00000000000E+00  0.00000000000E+00  0.12345538771E+04  0.12345538771E+04  0.00000000000E+00 0.  1.
         21   -1    0    0  502  503 -0.00000000000E+00 -0.00000000000E+00 -0.33588805974E+03  0.33588805974E+03  0.00000000000E+00 0.  1.
    9000007    2    1    2  501    0 -0.82640318613E+01 -0.51504439567E+00  0.10672671015E+04  0.11362818829E+04  0.38988317749E+03 0.  0.
    9000005    1    3    3    0    0 -0.55592427388E+01 -0.61453740923E+02 -0.53384430331E+01  0.61943251618E+02  0.99999687468E+00 0.  0.
          4    1    3    3  501    0 -0.27047891225E+01  0.60938696528E+02  0.10726055445E+04  0.10743386313E+04  0.00000000000E+00 0.  1.
   -9000007    1    1    2    0  503  0.82640318613E+01  0.51504439567E+00 -0.16860128405E+03  0.43416005398E+03  0.40000000000E+03 0.  1.
<mgrwt>
<rscale>  2 0.39753271E+03</rscale>
<asrwt>0</asrwt>
<pdfrwt beam="1">  1       21 0.18993136E+00 0.40008569E+03</pdfrwt>
<pdfrwt beam="2">  1       21 0.51675087E-01 0.40008569E+03</pdfrwt>
<totfact> 0.46970260E+02</totfact>
</mgrwt>
</event>
<event>
 6    1  0.9094387E-004  0.6178007E+03  0.7818608E-02  0.9870124E-01
         21   -1    0    0  501  502  0.00000000000E+00  0.00000000000E+00  0.11434376496E+04  0.11434376496E+04  0.00000000000E+00 0.  1.
         21   -1    0    0  502  503 -0.00000000000E+00 -0.00000000000E+00 -0.11855114551E+04  0.11855114551E+04  0.00000000000E+00 0.  1.
    9000007    2    1    2  501    0  0.10057810009E+02  0.46816040097E+03  0.96657744233E+03  0.11471485039E+04  0.40299183282E+03 0.  0.
    9000005    1    3    3    0    0  0.15791308932E+03  0.16805559235E+03  0.63728494458E+03  0.67772584905E+03  0.99999687468E+00 0.  0.
          4    1    3    3  501    0 -0.14785527931E+03  0.30010480861E+03  0.32929249776E+03  0.46942265481E+03  0.00000000000E+00 0.  1.
   -9000007    1    1    2    0  503 -0.10057810009E+02 -0.46816040097E+03 -0.10086512478E+04  0.11818006009E+04  0.40000000000E+03 0.  1.
<mgrwt>
<rscale>  2 0.61731330E+03</rscale>
<asrwt>0</asrwt>
<pdfrwt beam="1">  1       21 0.17591348E+00 0.61780073E+03</pdfrwt>
<pdfrwt beam="2">  1       21 0.18238638E+00 0.61780073E+03</pdfrwt>
<totfact> 0.23815929E+01</totfact>
</mgrwt>
</event>
<event>
 6    1  0.9094387E-004  0.4393558E+03  0.7818608E-02  0.1030951E+00
         21   -1    0    0  501  502  0.00000000000E+00  0.00000000000E+00  0.80109885746E+02  0.80109885746E+02  0.00000000000E+00 0.  1.
         21   -1    0    0  502  503 -0.00000000000E+00 -0.00000000000E+00 -0.26523844211E+04  0.26523844211E+04  0.00000000000E+00 0. -1.
    9000007    2    1    2  501    0 -0.48056113129E+00 -0.18175063988E+03 -0.87226879891E+03  0.97663183216E+03  0.39990417854E+03 0.  0.
    9000005    1    3    3    0    0 -0.25893273969E+02 -0.22686303821E+03 -0.89234660315E+03  0.92109758435E+03  0.99999687468E+00 0.  0.
          4    1    3    3  501    0  0.25412712838E+02  0.45112398332E+02  0.20077804246E+02  0.55534247815E+02  0.00000000000E+00 0.  1.
   -9000007    1    1    2    0  503  0.48056113129E+00  0.18175063988E+03 -0.17000057364E+04  0.17558624747E+04  0.40000000000E+03 0.  1.
<mgrwt>
<rscale>  2 0.43933400E+03</rscale>
<asrwt>0</asrwt>
<pdfrwt beam="1">  1       21 0.12324599E-01 0.43935581E+03</pdfrwt>
<pdfrwt beam="2">  1       21 0.40805910E+00 0.43935581E+03</pdfrwt>
<totfact> 0.33618504E+02</totfact>
</mgrwt>
</event>
<event>
 6    1  0.9094387E-004  0.6298196E+03  0.7818608E-02  0.9846017E-01
         21   -1    0    0  501  502  0.00000000000E+00  0.00000000000E+00  0.11922303872E+04  0.11922303872E+04  0.00000000000E+00 0.  1.
         21   -1    0    0  502  503 -0.00000000000E+00 -0.00000000000E+00 -0.38579589155E+03  0.38579589155E+03  0.00000000000E+00 0.  1.
    9000007    2    1    2  501    0  0.17987587227E+03 -0.45025513724E+03  0.69806391577E+03  0.94019463905E+03  0.40197973924E+03 0.  0.
    9000005    1    3    3    0    0 -0.95929314247E+02  0.60913460719E+01  0.12012710047E+03  0.15385401551E+03  0.99999687468E+00 0.  0.
          4    1    3    3  501    0  0.27580518652E+03 -0.45634648332E+03  0.57793681530E+03  0.78634062354E+03  0.00000000000E+00 0.  1.
   -9000007    1    1    2    0  503 -0.17987587227E+03  0.45025513724E+03  0.10837057990E+03  0.63783163972E+03  0.40000000000E+03 0.  1.
<mgrwt>
<rscale>  2 0.62950393E+03</rscale>
<asrwt>0</asrwt>
<pdfrwt beam="1">  1       21 0.18342006E+00 0.62981960E+03</pdfrwt>
<pdfrwt beam="2">  1       21 0.59353215E-01 0.62981960E+03</pdfrwt>
<totfact> 0.34935838E+02</totfact>
</mgrwt>
</event>
<event>
 6    1  0.9094387E-004  0.4719542E+03  0.7818608E-02  0.1021396E+00
         21   -1    0    0  501  502  0.00000000000E+00  0.00000000000E+00  0.99322230538E+03  0.99322230538E+03  0.00000000000E+00 0.  1.
         21   -1    0    0  502  503 -0.00000000000E+00 -0.00000000000E+00 -0.22586979543E+03  0.22586979543E+03  0.00000000000E+00 0.  1.
    9000007    2    1    2  501    0  0.28493789145E+02  0.24885518929E+03  0.32934988649E+03  0.57520771724E+03  0.39956447412E+03 0.  0.
    9000005    1    3    3    0    0 -0.14051539530E+03  0.16838643861E+03  0.31979812319E+03  0.38777623523E+03  0.99999687468E+00 0.  0.
          4    1    3    3  501    0  0.16900918445E+03  0.80468750686E+02  0.95517633038E+01  0.18743148201E+03  0.00000000000E+00 0.  1.
   -9000007    1    1    2    0  503 -0.28493789145E+02 -0.24885518929E+03  0.43800262346E+03  0.64388438358E+03  0.40000000000E+03 0.  1.
<mgrwt>
<rscale>  2 0.47186194E+03</rscale>
<asrwt>0</asrwt>
<pdfrwt beam="1">  1       21 0.15280343E+00 0.47195424E+03</pdfrwt>
<pdfrwt beam="2">  1       21 0.34749200E-01 0.47195424E+03</pdfrwt>
<totfact> 0.19265222E+03</totfact>
</mgrwt>
</event>
<event>
 6    1  0.9094387E-004  0.5630957E+03  0.7818608E-02  0.9985399E-01
         21   -1    0    0  501  502  0.00000000000E+00  0.00000000000E+00  0.25839455232E+04  0.25839455232E+04  0.00000000000E+00 0. -1.
         21   -1    0    0  502  503 -0.00000000000E+00 -0.00000000000E+00 -0.12313926513E+03  0.12313926513E+03  0.00000000000E+00 0.  1.
    9000007    2    1    2  501    0 -0.36078054736E+03 -0.16405520219E+03  0.11389377960E+04  0.12702782795E+04  0.39918778985E+03 0.  0.
    9000005    1    3    3    0    0  0.27771332030E+00 -0.17903828628E+03  0.55893855789E+03  0.58691404530E+03  0.99999687468E+00 0.  0.
          4    1    3    3  501    0 -0.36105826068E+03  0.14983084094E+02  0.57999923807E+03  0.68336423420E+03  0.00000000000E+00 0.  1.
   -9000007    1    1    2    0  503  0.36078054736E+03  0.16405520219E+03  0.13218684621E+04  0.14368065088E+04  0.40000000000E+03 0. -1.
<mgrwt>
<rscale>  2 0.56295143E+03</rscale>
<asrwt>0</asrwt>
<pdfrwt beam="1">  1       21 0.39753004E+00 0.56309565E+03</pdfrwt>
<pdfrwt beam="2">  1       21 0.18944504E-01 0.56309565E+03</pdfrwt>
<totfact> 0.16404558E+02</totfact>
</mgrwt>
</event>
<event>
 6    1  0.9094387E-004  0.4471006E+03  0.7818608E-02  0.1028620E+00
         21   -1    0    0  501  502  0.00000000000E+00  0.00000000000E+00  0.34141290526E+03  0.34141290526E+03  0.00000000000E+00 0. -1.
         21   -1    0    0  502  503 -0.00000000000E+00 -0.00000000000E+00 -0.88456721428E+03  0.88456721428E+03  0.00000000000E+00 0. -1.
    9000007    2    1    2  501    0  0.19005774203E+03 -0.61457218045E+02  0.85241146013E+02  0.45476044729E+03  0.39955234513E+03 0.  0.
    9000005    1    3    3    0    0 -0.99383279182E+02  0.98776723817E+01 -0.66767155161E+02  0.12013932576E+03  0.99999687468E+00 0.  0.
          4    1    3    3  501    0  0.28944102121E+03 -0.71334890426E+02  0.15200830117E+03  0.33462112153E+03  0.00000000000E+00 0.  1.
   -9000007    1    1    2    0  503 -0.19005774203E+03  0.61457218045E+02 -0.62839545503E+03  0.77121967225E+03  0.40000000000E+03 0.  1.
<mgrwt>
<rscale>  2 0.44700044E+03</rscale>
<asrwt>0</asrwt>
<pdfrwt beam="1">  1       21 0.52525064E-01 0.44710059E+03</pdfrwt>
<pdfrwt beam="2">  1       21 0.13608726E+00 0.44710059E+03</pdfrwt>
<totfact> 0.11241990E+03</totfact>
</mgrwt>
</event>
<event>
 6    1  0.9094387E-004  0.4217742E+03  0.7818608E-02  0.1036516E+00
         21   -1    0    0  501  502  0.00000000000E+00  0.00000000000E+00  0.48303116370E+03  0.48303116370E+03  0.00000000000E+00 0.  1.
         21   -1    0    0  502  503 -0.00000000000E+00 -0.00000000000E+00 -0.70927314954E+03  0.70927314954E+03  0.00000000000E+00 0.  1.
    9000007    2    1    2  501    0  0.13310244238E+03 -0.13311087414E+02  0.30041677477E+03  0.51757259222E+03  0.39967199606E+03 0.  0.
    9000005    1    3    3    0    0  0.27265551815E+03  0.26682783540E+02  0.22174203073E+03  0.35245358659E+03  0.99999687468E+00 0.  0.
          4    1    3    3  501    0 -0.13955307577E+03 -0.39993870955E+02  0.78674744048E+02  0.16511900563E+03  0.00000000000E+00 0.  1.
   -9000007    1    1    2    0  503 -0.13310244238E+03  0.13311087414E+02 -0.52665876061E+03  0.67473172102E+03  0.40000000000E+03 0.  1.
<mgrwt>
<rscale>  2 0.42169638E+03</rscale>
<asrwt>0</asrwt>
<pdfrwt beam="1">  1       21 0.74312487E-01 0.42177416E+03</pdfrwt>
<pdfrwt beam="2">  1       21 0.10911895E+00 0.42177416E+03</pdfrwt>
<totfact> 0.92775503E+02</totfact>
</mgrwt>
</event>
<event>
 6    1  0.9094387E-004  0.4174123E+03  0.7818608E-02  0.1038911E+00
         21   -1    0    0  501  502  0.00000000000E+00  0.00000000000E+00  0.52740448152E+03  0.52740448152E+03  0.00000000000E+00 0. -1.
         21   -1    0    0  502  503 -0.00000000000E+00 -0.00000000000E+00 -0.57410855124E+03  0.57410855124E+03  0.00000000000E+00 0. -1.
    9000007    2    1    2  501    0  0.15689107320E+01 -0.11929199338E+03  0.34255967371E+03  0.53075975583E+03  0.38746063955E+03 0.  0.
    9000005    1    3    3    0    0  0.10896366056E+03  0.43273189825E+02  0.31230571715E+03  0.33358883260E+03  0.99999687468E+00 0.  0.
          4    1    3    3  501    0 -0.10739474983E+03 -0.16256518320E+03  0.30253956561E+02  0.19717092323E+03  0.00000000000E+00 0.  1.
   -9000007    1    1    2    0  503 -0.15689107320E+01  0.11929199338E+03 -0.38926374343E+03  0.57075327692E+03  0.40000000000E+03 0. -1.
<mgrwt>
<rscale>  2 0.41437931E+03</rscale>
<asrwt>0</asrwt>
<pdfrwt beam="1">  1       21 0.81139151E-01 0.41741232E+03</pdfrwt>
<pdfrwt beam="2">  1       21 0.88324392E-01 0.41741232E+03</pdfrwt>
<totfact> 0.12660450E+03</totfact>
</mgrwt>
</event>
<event>
 6    1  0.9094387E-004  0.4847366E+03  0.7818608E-02  0.1017865E+00
         21   -1    0    0  501  502  0.00000000000E+00  0.00000000000E+00  0.51122214163E+03  0.51122214163E+03  0.00000000000E+00 0.  1.
         21   -1    0    0  502  503 -0.00000000000E+00 -0.00000000000E+00 -0.46180976222E+03  0.46180976222E+03  0.00000000000E+00 0.  1.
    9000007    2    1    2  501    0  0.24614821506E+03  0.11853429077E+03 -0.11149770467E+02  0.48486482603E+03  0.40041261254E+03 0.  0.
    9000005    1    3    3    0    0 -0.46446517952E+01 -0.12478962512E+03 -0.47363259671E+02  0.13356010516E+03  0.99999687468E+00 0.  0.
          4    1    3    3  501    0  0.25079286685E+03  0.24332391589E+03  0.36213489204E+02  0.35130472088E+03  0.00000000000E+00 0.  1.
   -9000007    1    1    2    0  503 -0.24614821506E+03 -0.11853429077E+03  0.60562149871E+02  0.48816707781E+03  0.40000000000E+03 0.  1.
<mgrwt>
<rscale>  2 0.48465139E+03</rscale>
<asrwt>0</asrwt>
<pdfrwt beam="1">  1       21 0.78649560E-01 0.48473661E+03</pdfrwt>
<pdfrwt beam="2">  1       21 0.71047656E-01 0.48473661E+03</pdfrwt>
<totfact> 0.21903632E+03</totfact>
</mgrwt>
</event>
<event>
 6    1  0.9094387E-004  0.4134098E+03  0.7818608E-02  0.1039704E+00
         21   -1    0    0  501  502  0.00000000000E+00  0.00000000000E+00  0.25235172528E+03  0.25235172528E+03  0.00000000000E+00 0. -1.
         21   -1    0    0  502  503 -0.00000000000E+00 -0.00000000000E+00 -0.93713497376E+03  0.93713497376E+03  0.00000000000E+00 0. -1.
    9000007    2    1    2  501    0 -0.50880994029E+02 -0.60741533527E+02 -0.25382634901E+02  0.41418831865E+03  0.40574533356E+03 0.  0.
    9000005    1    3    3    0    0  0.68743182668E+02  0.13037904509E+03  0.77302209369E+02  0.16643603014E+03  0.99999687468E+00 0.  0.
          4    1    3    3  501    0 -0.11962417670E+03 -0.19112057861E+03 -0.10268484427E+03  0.24775228851E+03  0.00000000000E+00 0.  1.
   -9000007    1    1    2    0  503  0.50880994029E+02  0.60741533527E+02 -0.65940061358E+03  0.77529838039E+03  0.40000000000E+03 0. -1.
<mgrwt>
<rscale>  2 0.41199323E+03</rscale>
<asrwt>0</asrwt>
<pdfrwt beam="1">  1       21 0.38823343E-01 0.41340983E+03</pdfrwt>
<pdfrwt beam="2">  1       21 0.14417461E+00 0.41340983E+03</pdfrwt>
<totfact> 0.18423538E+03</totfact>
</mgrwt>
</event>
<event>
 6    1  0.9094387E-004  0.4041561E+03  0.7818608E-02  0.1042675E+00
         21   -1    0    0  501  502  0.00000000000E+00  0.00000000000E+00  0.36909000151E+03  0.36909000151E+03  0.00000000000E+00 0.  1.
         21   -1    0    0  502  503 -0.00000000000E+00 -0.00000000000E+00 -0.43842331636E+03  0.43842331636E+03  0.00000000000E+00 0.  1.
    9000007    2    1    2  501    0  0.70403830382E+01 -0.15812395633E+02 -0.34218315233E+02  0.40560205646E+03  0.40378526008E+03 0.  0.
    9000005    1    3    3    0    0  0.38051980784E+02  0.15776615762E+03  0.94032417353E+02  0.18756654616E+03  0.99999687468E+00 0.  0.
          4    1    3    3  501    0 -0.31011597746E+02 -0.17357855325E+03 -0.12825073259E+03  0.21803551030E+03  0.00000000000E+00 0.  1.
   -9000007    1    1    2    0  503 -0.70403830382E+01  0.15812395633E+02 -0.35114999624E+02  0.40191126141E+03  0.40000000000E+03 0.  1.
<mgrwt>
<rscale>  2 0.40320730E+03</rscale>
<asrwt>0</asrwt>
<pdfrwt beam="1">  1       21 0.56783077E-01 0.40415608E+03</pdfrwt>
<pdfrwt beam="2">  1       21 0.67449741E-01 0.40415608E+03</pdfrwt>
<totfact> 0.52430785E+03</totfact>
</mgrwt>
</event>
<event>
 6    1  0.9094387E-004  0.5580817E+03  0.7818608E-02  0.9996935E-01
         21   -1    0    0  501  502  0.00000000000E+00  0.00000000000E+00  0.49944635283E+03  0.49944635283E+03  0.00000000000E+00 0. -1.
         21   -1    0    0  502  503 -0.00000000000E+00 -0.00000000000E+00 -0.90896466756E+03  0.90896466756E+03  0.00000000000E+00 0.  1.
    9000007    2    1    2  501    0  0.35656121262E+03  0.15257362651E+03  0.19041441258E+03  0.58967181457E+03  0.40129863010E+03 0.  0.
    9000005    1    3    3    0    0  0.15254047630E+03  0.32564148087E+02  0.29281691613E+03  0.33177065424E+03  0.99999687468E+00 0.  0.
          4    1    3    3  501    0  0.20402073632E+03  0.12000947842E+03 -0.10240250356E+03  0.25790116032E+03  0.00000000000E+00 0.  1.
   -9000007    1    1    2    0  503 -0.35656121262E+03 -0.15257362651E+03 -0.59993272730E+03  0.81873920582E+03  0.40000000000E+03 0.  1.
<mgrwt>
<rscale>  2 0.55784830E+03</rscale>
<asrwt>0</asrwt>
<pdfrwt beam="1">  1       21 0.76837901E-01 0.55808171E+03</pdfrwt>
<pdfrwt beam="2">  1       21 0.13984072E+00 0.55808171E+03</pdfrwt>
<totfact> 0.43025894E+02</totfact>
</mgrwt>
</event>
<event>
 6    1  0.9094387E-004  0.4201784E+03  0.7818608E-02  0.1037012E+00
         21   -1    0    0  501  502  0.00000000000E+00  0.00000000000E+00  0.60058620125E+03  0.60058620125E+03  0.00000000000E+00 0.  1.
         21   -1    0    0  502  503 -0.00000000000E+00 -0.00000000000E+00 -0.39872874953E+03  0.39872874953E+03  0.00000000000E+00 0.  1.
    9000007    2    1    2  501    0  0.50355303760E+02 -0.11838186370E+03  0.35708500753E+03  0.55138022746E+03  0.39995065990E+03 0.  0.
    9000005    1    3    3    0    0  0.27375643872E+02 -0.19103180114E+03  0.70149532407E+01  0.19311339800E+03  0.99999687468E+00 0.  0.
          4    1    3    3  501    0  0.22979659888E+02  0.72649937437E+02  0.35007005429E+03  0.35826682946E+03  0.00000000000E+00 0.  1.
   -9000007    1    1    2    0  503 -0.50355303760E+02  0.11838186370E+03 -0.15522755581E+03  0.44793472332E+03  0.40000000000E+03 0.  1.
<mgrwt>
<rscale>  2 0.42016670E+03</rscale>
<asrwt>0</asrwt>
<pdfrwt beam="1">  1       21 0.92397877E-01 0.42017844E+03</pdfrwt>
<pdfrwt beam="2">  1       21 0.61342884E-01 0.42017844E+03</pdfrwt>
<totfact> 0.21341335E+03</totfact>
</mgrwt>
</event>
<event>
 6    1  0.9094387E-004  0.4058026E+03  0.7818608E-02  0.1041867E+00
         21   -1    0    0  501  502  0.00000000000E+00  0.00000000000E+00  0.49895187529E+03  0.49895187529E+03  0.00000000000E+00 0. -1.
         21   -1    0    0  502  503 -0.00000000000E+00 -0.00000000000E+00 -0.10747650417E+04  0.10747650417E+04  0.00000000000E+00 0. -1.
    9000007    2    1    2  501    0 -0.21582773914E+02 -0.64884100996E+02  0.36751677427E+03  0.54680546040E+03  0.39906374111E+03 0.  0.
    9000005    1    3    3    0    0 -0.64865331858E+02  0.16168466310E+03  0.15802500426E+03  0.23520702269E+03  0.99999687468E+00 0.  0.
          4    1    3    3  501    0  0.43282557944E+02 -0.22656876409E+03  0.20949177000E+03  0.31159843771E+03  0.00000000000E+00 0.  1.
   -9000007    1    1    2    0  503  0.21582773914E+02  0.64884100996E+02 -0.94332994067E+03  0.10269114566E+04  0.40000000000E+03 0. -1.
<mgrwt>
<rscale>  2 0.40557171E+03</rscale>
<asrwt>0</asrwt>
<pdfrwt beam="1">  1       21 0.76761827E-01 0.40580262E+03</pdfrwt>
<pdfrwt beam="2">  1       21 0.16534847E+00 0.40580262E+03</pdfrwt>
<totfact> 0.29192709E+02</totfact>
</mgrwt>
</event>
<event>
 6    1  0.9094387E-004  0.5499619E+03  0.7818608E-02  0.1001513E+00
         21   -1    0    0  501  502  0.00000000000E+00  0.00000000000E+00  0.44621211807E+03  0.44621211807E+03  0.00000000000E+00 0. -1.
         21   -1    0    0  502  503 -0.00000000000E+00 -0.00000000000E+00 -0.68322893392E+03  0.68322893392E+03  0.00000000000E+00 0. -1.
    9000007    2    1    2  501    0  0.23572936793E+03 -0.29477060681E+03 -0.67306077967E+02  0.55388933399E+03  0.39975647666E+03 0.  0.
    9000005    1    3    3    0    0 -0.34940130087E+02 -0.24066605509E+03 -0.12265371237E+03  0.27237087935E+03  0.99999687468E+00 0.  0.
          4    1    3    3  501    0  0.27066949801E+03 -0.54104551721E+02  0.55347634404E+02  0.28151845464E+03  0.00000000000E+00 0.  1.
   -9000007    1    1    2    0  503 -0.23572936793E+03  0.29477060681E+03 -0.16971073789E+03  0.57555171800E+03  0.40000000000E+03 0. -1.
<mgrwt>
<rscale>  2 0.54991758E+03</rscale>
<asrwt>0</asrwt>
<pdfrwt beam="1">  1       21 0.68648018E-01 0.54996186E+03</pdfrwt>
<pdfrwt beam="2">  1       21 0.10511214E+00 0.54996186E+03</pdfrwt>
<totfact> 0.11596918E+03</totfact>
</mgrwt>
</event>
<event>
 6    1  0.9094387E-004  0.4105641E+03  0.7818608E-02  0.1040293E+00
         21   -1    0    0  501  502  0.00000000000E+00  0.00000000000E+00  0.87260224548E+03  0.87260224548E+03  0.00000000000E+00 0.  1.
         21   -1    0    0  502  503 -0.00000000000E+00 -0.00000000000E+00 -0.41787836061E+03  0.41787836061E+03  0.00000000000E+00 0.  1.
    9000007    2    1    2  501    0  0.94936832558E+01 -0.92047465496E+02  0.70100267486E+03  0.81171541488E+03  0.39864056325E+03 0.  0.
    9000005    1    3    3    0    0 -0.97168407430E+02  0.13011693314E+03  0.29613457104E+03  0.33774072874E+03  0.99999687468E+00 0.  0.
          4    1    3    3  501    0  0.10666209069E+03 -0.22216439863E+03  0.40486810382E+03  0.47397468614E+03  0.00000000000E+00 0.  1.
   -9000007    1    1    2    0  503 -0.94936832558E+01  0.92047465496E+02 -0.24627878999E+03  0.47876519122E+03  0.40000000000E+03 0.  1.
<mgrwt>
<rscale>  2 0.41023260E+03</rscale>
<asrwt>0</asrwt>
<pdfrwt beam="1">  1       21 0.13424650E+00 0.41056408E+03</pdfrwt>
<pdfrwt beam="2">  1       21 0.64288979E-01 0.41056408E+03</pdfrwt>
<totfact> 0.76257843E+02</totfact>
</mgrwt>
</event>
<event>
 6    1  0.9094387E-004  0.6002164E+03  0.7818608E-02  0.9905516E-01
         21   -1    0    0  501  502  0.00000000000E+00  0.00000000000E+00  0.19187042644E+03  0.19187042644E+03  0.00000000000E+00 0. -1.
         21   -1    0    0  502  503 -0.00000000000E+00 -0.00000000000E+00 -0.18783122456E+04  0.18783122456E+04  0.00000000000E+00 0. -1.
    9000007    2    1    2  501    0  0.26564822755E+03 -0.36012608808E+03 -0.79435433990E+03  0.99497113438E+03  0.39838293237E+03 0.  0.
    9000005    1    3    3    0    0  0.35532342778E+03 -0.29673606242E+03 -0.73891305883E+03  0.87195214179E+03  0.99999687468E+00 0.  0.
          4    1    3    3  501    0 -0.89675200234E+02 -0.63390025653E+02 -0.55441281074E+02  0.12301899258E+03  0.00000000000E+00 0.  1.
   -9000007    1    1    2    0  503 -0.26564822755E+03  0.36012608808E+03 -0.89208747930E+03  0.10752115377E+04  0.40000000000E+03 0. -1.
<mgrwt>
<rscale>  2 0.59994715E+03</rscale>
<asrwt>0</asrwt>
<pdfrwt beam="1">  1       21 0.29518528E-01 0.60021644E+03</pdfrwt>
<pdfrwt beam="2">  1       21 0.28897111E+00 0.60021644E+03</pdfrwt>
<totfact> 0.32049203E+02</totfact>
</mgrwt>
</event>
<event>
 6    1  0.9094387E-004  0.5606104E+03  0.7818608E-02  0.9990743E-01
         21   -1    0    0  501  502  0.00000000000E+00  0.00000000000E+00  0.32593750022E+03  0.32593750022E+03  0.00000000000E+00 0. -1.
         21   -1    0    0  502  503 -0.00000000000E+00 -0.00000000000E+00 -0.96426282653E+03  0.96426282653E+03  0.00000000000E+00 0. -1.
    9000007    2    1    2  501    0 -0.15314298593E+03  0.36170606410E+03 -0.30926785196E+03  0.64015196519E+03  0.39982981797E+03 0.  0.
    9000005    1    3    3    0    0  0.81867054075E+02  0.25896596385E+03 -0.26577557783E+03  0.38000426674E+03  0.99999687468E+00 0.  0.
          4    1    3    3  501    0 -0.23501004000E+03  0.10274010025E+03 -0.43492274132E+02  0.26014769845E+03  0.00000000000E+00 0.  1.
   -9000007    1    1    2    0  503  0.15314298593E+03 -0.36170606410E+03 -0.32905747435E+03  0.65004836156E+03  0.40000000000E+03 0. -1.
<mgrwt>
<rscale>  2 0.56058007E+03</rscale>
<asrwt>0</asrwt>
<pdfrwt beam="1">  1       21 0.50144231E-01 0.56061043E+03</pdfrwt>
<pdfrwt beam="2">  1       21 0.14834813E+00 0.56061043E+03</pdfrwt>
<totfact> 0.94383514E+02</totfact>
</mgrwt>
</event>
<event>
 6    1  0.9094387E-004  0.4876362E+03  0.7818608E-02  0.1017076E+00
         21   -1    0    0  501  502  0.00000000000E+00  0.00000000000E+00  0.48126852606E+03  0.48126852606E+03  0.00000000000E+00 0.  1.
         21   -1    0    0  502  503 -0.00000000000E+00 -0.00000000000E+00 -0.49947231881E+03  0.49947231881E+03  0.00000000000E+00 0. -1.
    9000007    2    1    2  501    0 -0.14821381140E+03 -0.23568914798E+03 -0.61338222984E+02  0.49147886245E+03  0.40034033805E+03 0.  0.
    9000005    1    3    3    0    0 -0.13442771794E+03 -0.34265284717E+03 -0.91909326363E+02  0.37938121895E+03  0.99999687468E+00 0.  0.
          4    1    3    3  501    0 -0.13786093462E+02  0.10696369919E+03  0.30571103379E+02  0.11209764350E+03  0.00000000000E+00 0.  1.
   -9000007    1    1    2    0  503  0.14821381140E+03  0.23568914798E+03  0.43134430240E+02  0.48926198242E+03  0.40000000000E+03 0.  1.
<mgrwt>
<rscale>  2 0.48756637E+03</rscale>
<asrwt>0</asrwt>
<pdfrwt beam="1">  1       21 0.74041312E-01 0.48763623E+03</pdfrwt>
<pdfrwt beam="2">  1       21 0.76841895E-01 0.48763623E+03</pdfrwt>
<totfact> 0.21019208E+03</totfact>
</mgrwt>
</event>
<event>
 6    1  0.9094387E-004  0.5353021E+03  0.7818608E-02  0.1004974E+00
         21   -1    0    0  501  502  0.00000000000E+00  0.00000000000E+00  0.96952780723E+03  0.96952780723E+03  0.00000000000E+00 0. -1.
         21   -1    0    0  502  503 -0.00000000000E+00 -0.00000000000E+00 -0.34502783473E+03  0.34502783473E+03  0.00000000000E+00 0. -1.
    9000007    2    1    2  501    0 -0.34177026518E+03  0.96879790364E+02  0.56168400207E+03  0.77591062520E+03  0.40044446827E+03 0.  0.
    9000005    1    3    3    0    0 -0.30180987636E+03 -0.46114630899E+02  0.54735347072E+03  0.62674762270E+03  0.99999687468E+00 0.  0.
          4    1    3    3  501    0 -0.39960388820E+02  0.14299442126E+03  0.14330531353E+02  0.14916300250E+03  0.00000000000E+00 0.  1.
   -9000007    1    1    2    0  503  0.34177026518E+03 -0.96879790364E+02  0.62815970427E+02  0.53864501677E+03  0.40000000000E+03 0. -1.
<mgrwt>
<rscale>  2 0.53521902E+03</rscale>
<asrwt>0</asrwt>
<pdfrwt beam="1">  1       21 0.14915812E+00 0.53530214E+03</pdfrwt>
<pdfrwt beam="2">  1       21 0.53081206E-01 0.53530214E+03</pdfrwt>
<totfact> 0.83033225E+02</totfact>
</mgrwt>
</event>
<event>
 6    1  0.9094387E-004  0.5783842E+03  0.7818608E-02  0.9951360E-01
         21   -1    0    0  501  502  0.00000000000E+00  0.00000000000E+00  0.13969956824E+04  0.13969956824E+04  0.00000000000E+00 0. -1.
         21   -1    0    0  502  503 -0.00000000000E+00 -0.00000000000E+00 -0.24039670766E+03  0.24039670766E+03  0.00000000000E+00 0.  1.
    9000007    2    1    2  501    0  0.40815845441E+03  0.88308498055E+02  0.52600710281E+03  0.78180030051E+03  0.40017061728E+03 0.  0.
    9000005    1    3    3    0    0  0.93689686292E+02  0.84735167590E+02 -0.41508377175E+02  0.13297274651E+03  0.99999687468E+00 0.  0.
          4    1    3    3  501    0  0.31446876812E+03  0.35733304654E+01  0.56751547998E+03  0.64882755400E+03  0.00000000000E+00 0.  1.
   -9000007    1    1    2    0  503 -0.40815845441E+03 -0.88308498055E+02  0.63059187190E+03  0.85559208952E+03  0.40000000000E+03 0.  1.
<mgrwt>
<rscale>  2 0.57835465E+03</rscale>
<asrwt>0</asrwt>
<pdfrwt beam="1">  1       21 0.21492241E+00 0.57838416E+03</pdfrwt>
<pdfrwt beam="2">  1       21 0.36984110E-01 0.57838416E+03</pdfrwt>
<totfact> 0.59406329E+02</totfact>
</mgrwt>
</event>
<event>
 6    1  0.9094387E-004  0.5908078E+03  0.7818608E-02  0.9924828E-01
         21   -1    0    0  501  502  0.00000000000E+00  0.00000000000E+00  0.60695551614E+03  0.60695551614E+03  0.00000000000E+00 0.  1.
         21   -1    0    0  502  503 -0.00000000000E+00 -0.00000000000E+00 -0.57959397619E+03  0.57959397619E+03  0.00000000000E+00 0.  1.
    9000007    2    1    2  501    0 -0.40695648384E+03 -0.15189152344E+03  0.67722130238E+02  0.59467653984E+03  0.40046134081E+03 0.  0.
    9000005    1    3    3    0    0 -0.27290960859E+03  0.28936214150E+02 -0.12195859384E+03  0.30031959236E+03  0.99999687468E+00 0.  0.
          4    1    3    3  501    0 -0.13404687525E+03 -0.18082773759E+03  0.18968072407E+03  0.29435694748E+03  0.00000000000E+00 0.  1.
   -9000007    1    1    2    0  503  0.40695648384E+03  0.15189152344E+03 -0.40360590287E+02  0.59187295248E+03  0.40000000000E+03 0.  1.
<mgrwt>
<rscale>  2 0.59072967E+03</rscale>
<asrwt>0</asrwt>
<pdfrwt beam="1">  1       21 0.93377771E-01 0.59080784E+03</pdfrwt>
<pdfrwt beam="2">  1       21 0.89168304E-01 0.59080784E+03</pdfrwt>
<totfact> 0.83400192E+02</totfact>
</mgrwt>
</event>
<event>
 6    1  0.9094387E-004  0.5566259E+03  0.7818608E-02  0.9999901E-01
         21   -1    0    0  501  502  0.00000000000E+00  0.00000000000E+00  0.76452251930E+03  0.76452251930E+03  0.00000000000E+00 0.  1.
         21   -1    0    0  502  503 -0.00000000000E+00 -0.00000000000E+00 -0.47048671498E+03  0.47048671498E+03  0.00000000000E+00 0. -1.
    9000007    2    1    2  501    0 -0.38390188048E+03 -0.49515594732E+02  0.37730952400E+03  0.67218869419E+03  0.39955314508E+03 0.  0.
    9000005    1    3    3    0    0 -0.41074780306E+03 -0.23659781234E+02  0.14397151132E+03  0.43589257740E+03  0.99999687468E+00 0.  0.
          4    1    3    3  501    0  0.26845922580E+02 -0.25855813498E+02  0.23333801268E+03  0.23629611679E+03  0.00000000000E+00 0.  1.
   -9000007    1    1    2    0  503  0.38390188048E+03  0.49515594732E+02 -0.83273719679E+02  0.56282054009E+03  0.40000000000E+03 0. -1.
<mgrwt>
<rscale>  2 0.55654567E+03</rscale>
<asrwt>0</asrwt>
<pdfrwt beam="1">  1       21 0.11761885E+00 0.55662595E+03</pdfrwt>
<pdfrwt beam="2">  1       21 0.72382572E-01 0.55662595E+03</pdfrwt>
<totfact> 0.77477981E+02</totfact>
</mgrwt>
</event>
<event>
 6    1  0.9094387E-004  0.6210989E+03  0.7818608E-02  0.9862803E-01
         21   -1    0    0  501  502  0.00000000000E+00  0.00000000000E+00  0.28737340853E+03  0.28737340853E+03  0.00000000000E+00 0. -1.
         21   -1    0    0  502  503 -0.00000000000E+00 -0.00000000000E+00 -0.16451374980E+04  0.16451374980E+04  0.00000000000E+00 0.  1.
    9000007    2    1    2  501    0  0.24717596810E+03  0.40508773017E+03 -0.26389242961E+03  0.67483557617E+03  0.40071412767E+03 0.  0.
    9000005    1    3    3    0    0  0.16786625208E+03  0.44647227403E+03 -0.98872581961E+02  0.48712766040E+03  0.99999687468E+00 0.  0.
          4    1    3    3  501    0  0.79309716018E+02 -0.41384543860E+02 -0.16501984765E+03  0.18770791577E+03  0.00000000000E+00 0.  1.
   -9000007    1    1    2    0  503 -0.24717596810E+03 -0.40508773017E+03 -0.10938716598E+04  0.12576753303E+04  0.40000000000E+03 0.  1.
<mgrwt>
<rscale>  2 0.62098374E+03</rscale>
<asrwt>0</asrwt>
<pdfrwt beam="1">  1       21 0.44211293E-01 0.62109890E+03</pdfrwt>
<pdfrwt beam="2">  1       21 0.25309808E+00 0.62109890E+03</pdfrwt>
<totfact> 0.23090159E+02</totfact>
</mgrwt>
</event>
<event>
 6    1  0.9094387E-004  0.4845566E+03  0.7818608E-02  0.1017912E+00
         21   -1    0    0  501  502  0.00000000000E+00  0.00000000000E+00  0.15361846466E+04  0.15361846466E+04  0.00000000000E+00 0.  1.
         21   -1    0    0  502  503 -0.00000000000E+00 -0.00000000000E+00 -0.27236415417E+03  0.27236415417E+03  0.00000000000E+00 0. -1.
    9000007    2    1    2  501    0 -0.23898286895E+03  0.13183371477E+03  0.12312994422E+04  0.13232132892E+04  0.40037751229E+03 0.  0.
    9000005    1    3    3    0    0 -0.18087676697E+03  0.17380959782E+03  0.30842420489E+03  0.39755838726E+03  0.99999687468E+00 0.  0.
          4    1    3    3  501    0 -0.58106101983E+02 -0.41975883047E+02  0.92287523735E+03  0.92565490198E+03  0.00000000000E+00 0.  1.
   -9000007    1    1    2    0  503  0.23898286895E+03 -0.13183371477E+03  0.32521050135E+02  0.48533551148E+03  0.40000000000E+03 0. -1.
<mgrwt>
<rscale>  2 0.48447860E+03</rscale>
<asrwt>0</asrwt>
<pdfrwt beam="1">  1       21 0.23633609E+00 0.48455659E+03</pdfrwt>
<pdfrwt beam="2">  1       21 0.41902179E-01 0.48455659E+03</pdfrwt>
<totfact> 0.34898252E+02</totfact>
</mgrwt>
</event>
<event>
 6    1  0.9094387E-004  0.4079225E+03  0.7818608E-02  0.1041078E+00
         21   -1    0    0  501  502  0.00000000000E+00  0.00000000000E+00  0.20013737496E+03  0.20013737496E+03  0.00000000000E+00 0. -1.
         21   -1    0    0  502  503 -0.00000000000E+00 -0.00000000000E+00 -0.95151956357E+03  0.95151956357E+03  0.00000000000E+00 0. -1.
    9000007    2    1    2  501    0  0.18636942272E+02 -0.77319243019E+02 -0.17100308726E+03  0.44231534081E+03  0.40009399384E+03 0.  0.
    9000005    1    3    3    0    0  0.12863136390E+03 -0.19675102881E+03 -0.51323381729E+02  0.24060774016E+03  0.99999687468E+00 0.  0.
          4    1    3    3  501    0 -0.10999442163E+03  0.11943178579E+03 -0.11967970553E+03  0.20170760066E+03  0.00000000000E+00 0.  1.
   -9000007    1    1    2    0  503 -0.18636942272E+02  0.77319243019E+02 -0.58037910135E+03  0.70934159771E+03  0.40000000000E+03 0. -1.
<mgrwt>
<rscale>  2 0.40789950E+03</rscale>
<asrwt>0</asrwt>
<pdfrwt beam="1">  1       21 0.30790366E-01 0.40792255E+03</pdfrwt>
<pdfrwt beam="2">  1       21 0.14638762E+00 0.40792255E+03</pdfrwt>
<totfact> 0.28296126E+03</totfact>
</mgrwt>
</event>
<event>
 6    1  0.9094387E-004  0.4249016E+03  0.7818608E-02  0.1035508E+00
         21   -1    0    0  501  502  0.00000000000E+00  0.00000000000E+00  0.29172818375E+03  0.29172818375E+03  0.00000000000E+00 0. -1.
         21   -1    0    0  502  503 -0.00000000000E+00 -0.00000000000E+00 -0.84391104903E+03  0.84391104903E+03  0.00000000000E+00 0. -1.
    9000007    2    1    2  501    0  0.13749318754E+03  0.37067365564E+02  0.17348925211E+02  0.42525565570E+03  0.40032864161E+03 0.  0.
    9000005    1    3    3    0    0 -0.10579336711E+03 -0.21143629766E+02  0.11411063771E+03  0.15703989059E+03  0.99999687468E+00 0.  0.
          4    1    3    3  501    0  0.24328655465E+03  0.58210995330E+02 -0.96761712503E+02  0.26821576511E+03  0.00000000000E+00 0.  1.
   -9000007    1    1    2    0  503 -0.13749318754E+03 -0.37067365564E+02 -0.56953179048E+03  0.71038357708E+03  0.40000000000E+03 0. -1.
<mgrwt>
<rscale>  2 0.42482419E+03</rscale>
<asrwt>0</asrwt>
<pdfrwt beam="1">  1       21 0.44881259E-01 0.42490162E+03</pdfrwt>
<pdfrwt beam="2">  1       21 0.12983247E+00 0.42490162E+03</pdfrwt>
<totfact> 0.17892824E+03</totfact>
</mgrwt>
</event>
<event>
 6    1  0.9094387E-004  0.4734321E+03  0.7818608E-02  0.1021004E+00
         21   -1    0    0  501  502  0.00000000000E+00  0.00000000000E+00  0.62181447584E+03  0.62181447584E+03  0.00000000000E+00 0.  1.
         21   -1    0    0  502  503 -0.00000000000E+00 -0.00000000000E+00 -0.59483741851E+03  0.59483741851E+03  0.00000000000E+00 0. -1.
    9000007    2    1    2  501    0 -0.11849224884E+03  0.22236986058E+03  0.39577322112E+03  0.61706922419E+03  0.40081069965E+03 0.  0.
    9000005    1    3    3    0    0 -0.98390165729E+02 -0.35480324644E+02 -0.38630804020E+02  0.11150254330E+03  0.99999687468E+00 0.  0.
          4    1    3    3  501    0 -0.20102083111E+02  0.25785018522E+03  0.43440402514E+03  0.50556668089E+03  0.00000000000E+00 0.  1.
   -9000007    1    1    2    0  503  0.11849224884E+03 -0.22236986058E+03 -0.36879616379E+03  0.59958267016E+03  0.40000000000E+03 0. -1.
<mgrwt>
<rscale>  2 0.47326050E+03</rscale>
<asrwt>0</asrwt>
<pdfrwt beam="1">  1       21 0.95663765E-01 0.47343213E+03</pdfrwt>
<pdfrwt beam="2">  1       21 0.91513449E-01 0.47343213E+03</pdfrwt>
<totfact> 0.77130555E+02</totfact>
</mgrwt>
</event>
<event>
 6    1  0.9094387E-004  0.6012048E+03  0.7818608E-02  0.9902920E-01
         21   -1    0    0  501  502  0.00000000000E+00  0.00000000000E+00  0.12725334056E+04  0.12725334056E+04  0.00000000000E+00 0.  1.
         21   -1    0    0  502  503 -0.00000000000E+00 -0.00000000000E+00 -0.35539742206E+03  0.35539742206E+03  0.00000000000E+00 0. -1.
    9000007    2    1    2  501    0  0.34131017802E+03 -0.29146958636E+03  0.82331952923E+03  0.10194501916E+04  0.39997060954E+03 0.  0.
    9000005    1    3    3    0    0  0.32535466826E+03 -0.38616988191E+03  0.70099684988E+03  0.86393311164E+03  0.99999687468E+00 0.  0.
          4    1    3    3  501    0  0.15955509757E+02  0.94700295546E+02  0.12232267935E+03  0.15551707993E+03  0.00000000000E+00 0.  1.
   -9000007    1    1    2    0  503 -0.34131017802E+03  0.29146958636E+03  0.93816454306E+02  0.60848063609E+03  0.40000000000E+03 0. -1.
<mgrwt>
<rscale>  2 0.60119987E+03</rscale>
<asrwt>0</asrwt>
<pdfrwt beam="1">  1       21 0.19577437E+00 0.60120475E+03</pdfrwt>
<pdfrwt beam="2">  1       21 0.54676527E-01 0.60120475E+03</pdfrwt>
<totfact> 0.34666189E+02</totfact>
</mgrwt>
</event>
<event>
 6    1  0.9094387E-004  0.4441603E+03  0.7818608E-02  0.1029484E+00
         21   -1    0    0  501  502  0.00000000000E+00  0.00000000000E+00  0.15781042385E+03  0.15781042385E+03  0.00000000000E+00 0.  1.
         21   -1    0    0  502  503 -0.00000000000E+00 -0.00000000000E+00 -0.20319081364E+04  0.20319081364E+04  0.00000000000E+00 0.  1.
    9000007    2    1    2  501    0 -0.14497293220E+03  0.12751944077E+03 -0.25776983803E+03  0.51347449784E+03  0.39991550569E+03 0.  0.
    9000005    1    3    3    0    0  0.35368198036E+02 -0.83964475266E+02  0.45724285707E+02  0.10194436147E+03  0.99999687468E+00 0.  0.
          4    1    3    3  501    0 -0.18034113023E+03  0.21148391604E+03 -0.30349412374E+03  0.41153013637E+03  0.00000000000E+00 0.  1.
   -9000007    1    1    2    0  503  0.14497293220E+03 -0.12751944077E+03 -0.16163278745E+04  0.16762440624E+04  0.40000000000E+03 0.  1.
<mgrwt>
<rscale>  2 0.44414126E+03</rscale>
<asrwt>0</asrwt>
<pdfrwt beam="1">  1       21 0.24278527E-01 0.44416029E+03</pdfrwt>
<pdfrwt beam="2">  1       21 0.31260125E+00 0.44416029E+03</pdfrwt>
<totfact> 0.36633377E+02</totfact>
</mgrwt>
</event>
<event>
 6    1  0.9094387E-004  0.5038436E+03  0.7818608E-02  0.1012782E+00
         21   -1    0    0  501  502  0.00000000000E+00  0.00000000000E+00  0.13550811576E+04  0.13550811576E+04  0.00000000000E+00 0. -1.
         21   -1    0    0  502  503 -0.00000000000E+00 -0.00000000000E+00 -0.19098217188E+03  0.19098217188E+03  0.00000000000E+00 0.  1.
    9000007    2    1    2  501    0 -0.24772960387E+03 -0.18024530815E+03  0.68894996734E+03  0.85351375188E+03  0.39996917307E+03 0.  0.
    9000005    1    3    3    0    0  0.50086489670E+02  0.81163779564E+02  0.21849979877E+03  0.23841010385E+03  0.99999687468E+00 0.  0.
          4    1    3    3  501    0 -0.29781609354E+03 -0.26140908772E+03  0.47045016857E+03  0.61510364803E+03  0.00000000000E+00 0.  1.
   -9000007    1    1    2    0  503  0.24772960387E+03  0.18024530815E+03  0.47514901833E+03  0.69254957755E+03  0.40000000000E+03 0. -1.
<mgrwt>
<rscale>  2 0.50383744E+03</rscale>
<asrwt>0</asrwt>
<pdfrwt beam="1">  1       21 0.20847402E+00 0.50384355E+03</pdfrwt>
<pdfrwt beam="2">  1       21 0.29381874E-01 0.50384355E+03</pdfrwt>
<totfact> 0.10722686E+03</totfact>
</mgrwt>
</event>
<event>
 6    1  0.9094387E-004  0.5457163E+03  0.7818608E-02  0.1002563E+00
         21   -1    0    0  501  502  0.00000000000E+00  0.00000000000E+00  0.10141199292E+04  0.10141199292E+04  0.00000000000E+00 0. -1.
         21   -1    0    0  502  503 -0.00000000000E+00 -0.00000000000E+00 -0.30262046190E+03  0.30262046190E+03  0.00000000000E+00 0.  1.
    9000007    2    1    2  501    0  0.36008569169E+03  0.90247056630E+02  0.47278747112E+03  0.72109817156E+03  0.39830684604E+03 0.  0.
    9000005    1    3    3    0    0  0.43474235390E+03  0.29804147711E+02  0.44085200615E+03  0.61987151315E+03  0.99999687468E+00 0.  0.
          4    1    3    3  501    0 -0.74656662211E+02  0.60442908919E+02  0.31935464965E+02  0.10122665841E+03  0.00000000000E+00 0.  1.
   -9000007    1    1    2    0  503 -0.36008569169E+03 -0.90247056630E+02  0.23871199622E+03  0.59564221956E+03  0.40000000000E+03 0. -1.
<mgrwt>
<rscale>  2 0.54540604E+03</rscale>
<asrwt>0</asrwt>
<pdfrwt beam="1">  1       21 0.15601845E+00 0.54571626E+03</pdfrwt>
<pdfrwt beam="2">  1       21 0.46556995E-01 0.54571626E+03</pdfrwt>
<totfact> 0.96720374E+02</totfact>
</mgrwt>
</event>
<event>
 6    1  0.9094387E-004  0.4247563E+03  0.7818608E-02  0.1035724E+00
         21   -1    0    0  501  502  0.00000000000E+00  0.00000000000E+00  0.70995179655E+03  0.70995179655E+03  0.00000000000E+00 0.  1.
         21   -1    0    0  502  503 -0.00000000000E+00 -0.00000000000E+00 -0.59666368889E+03  0.59666368889E+03  0.00000000000E+00 0.  1.
    9000007    2    1    2  501    0 -0.76268477306E+02  0.11204449422E+03  0.55275525341E+03  0.69710566475E+03  0.40255072766E+03 0.  0.
    9000005    1    3    3    0    0  0.15041465291E+03  0.11820704023E+03  0.19230037948E+03  0.27125248038E+03  0.99999687468E+00 0.  0.
          4    1    3    3  501    0 -0.22668313022E+03 -0.61625460122E+01  0.36045487393E+03  0.42585318437E+03  0.00000000000E+00 0.  1.
   -9000007    1    1    2    0  503  0.76268477306E+02 -0.11204449422E+03 -0.43946714576E+03  0.60950982069E+03  0.40000000000E+03 0.  1.
<mgrwt>
<rscale>  2 0.42415089E+03</rscale>
<asrwt>0</asrwt>
<pdfrwt beam="1">  1       21 0.10922335E+00 0.42475633E+03</pdfrwt>
<pdfrwt beam="2">  1       21 0.91794414E-01 0.42475633E+03</pdfrwt>
<totfact> 0.56581890E+02</totfact>
</mgrwt>
</event>
<event>
 6    1  0.9094387E-004  0.4706482E+03  0.7818608E-02  0.1021888E+00
         21   -1    0    0  501  502  0.00000000000E+00  0.00000000000E+00  0.43047798552E+03  0.43047798552E+03  0.00000000000E+00 0. -1.
         21   -1    0    0  502  503 -0.00000000000E+00 -0.00000000000E+00 -0.60833530809E+03  0.60833530809E+03  0.00000000000E+00 0. -1.
    9000007    2    1    2  501    0 -0.22345610596E+03 -0.10759693166E+03  0.11767698992E+03  0.48307031269E+03  0.39749128551E+03 0.  0.
    9000005    1    3    3    0    0 -0.30206163972E+03 -0.12311126102E+03 -0.16705246297E+02  0.32661549569E+03  0.99999687468E+00 0.  0.
          4    1    3    3  501    0  0.78605533756E+02  0.15514329362E+02  0.13438223621E+03  0.15645481700E+03  0.00000000000E+00 0.  1.
   -9000007    1    1    2    0  503  0.22345610596E+03  0.10759693166E+03 -0.29553431249E+03  0.55574298093E+03  0.40000000000E+03 0. -1.
<mgrwt>
<rscale>  2 0.47011473E+03</rscale>
<asrwt>0</asrwt>
<pdfrwt beam="1">  1       21 0.66227383E-01 0.47064820E+03</pdfrwt>
<pdfrwt beam="2">  1       21 0.93590047E-01 0.47064820E+03</pdfrwt>
<totfact> 0.17134984E+03</totfact>
</mgrwt>
</event>
<event>
 6    1  0.9094387E-004  0.4592252E+03  0.7818608E-02  0.1025017E+00
         21   -1    0    0  501  502  0.00000000000E+00  0.00000000000E+00  0.35775034326E+03  0.35775034326E+03  0.00000000000E+00 0. -1.
         21   -1    0    0  502  503 -0.00000000000E+00 -0.00000000000E+00 -0.67669844988E+03  0.67669844988E+03  0.00000000000E+00 0. -1.
    9000007    2    1    2  501    0  0.14570788219E+02  0.22511211965E+03  0.26440459517E+02  0.45983497856E+03  0.39982663159E+03 0.  0.
    9000005    1    3    3    0    0 -0.18878112123E+03  0.88669702250E+02 -0.23563032348E+02  0.20989722323E+03  0.99999687468E+00 0.  0.
          4    1    3    3  501    0  0.20335190945E+03  0.13644241740E+03  0.50003491864E+02  0.24993775534E+03  0.00000000000E+00 0.  1.
   -9000007    1    1    2    0  503 -0.14570788219E+02 -0.22511211965E+03 -0.34538856614E+03  0.57461381458E+03  0.40000000000E+03 0.  1.
<mgrwt>
<rscale>  2 0.45918743E+03</rscale>
<asrwt>0</asrwt>
<pdfrwt beam="1">  1       21 0.55038514E-01 0.45922519E+03</pdfrwt>
<pdfrwt beam="2">  1       21 0.10410745E+00 0.45922519E+03</pdfrwt>
<totfact> 0.19955673E+03</totfact>
</mgrwt>
</event>
<event>
 6    1  0.9094387E-004  0.4356170E+03  0.7818608E-02  0.1032113E+00
         21   -1    0    0  501  502  0.00000000000E+00  0.00000000000E+00  0.10217294286E+04  0.10217294286E+04  0.00000000000E+00 0. -1.
         21   -1    0    0  502  503 -0.00000000000E+00 -0.00000000000E+00 -0.19772454088E+03  0.19772454088E+03  0.00000000000E+00 0. -1.
    9000007    2    1    2  501    0  0.14179943810E+03 -0.97498393020E+02  0.26142533728E+03  0.50804075070E+03  0.40018643169E+03 0.  0.
    9000005    1    3    3    0    0  0.75530177794E+02  0.14027113152E+03  0.16260094522E+02  0.16014427484E+03  0.99999687468E+00 0.  0.
          4    1    3    3  501    0  0.66269260302E+02 -0.23776952454E+03  0.24516524276E+03  0.34789647586E+03  0.00000000000E+00 0.  1.
   -9000007    1    1    2    0  503 -0.14179943810E+03  0.97498393020E+02  0.56257955043E+03  0.71141321878E+03  0.40000000000E+03 0. -1.
<mgrwt>
<rscale>  2 0.43557421E+03</rscale>
<asrwt>0</asrwt>
<pdfrwt beam="1">  1       21 0.15718914E+00 0.43561703E+03</pdfrwt>
<pdfrwt beam="2">  1       21 0.30419161E-01 0.43561703E+03</pdfrwt>
<totfact> 0.23612315E+03</totfact>
</mgrwt>
</event>
<event>
 6    1  0.9094387E-004  0.4386128E+03  0.7818608E-02  0.1031183E+00
         21   -1    0    0  501  502  0.00000000000E+00  0.00000000000E+00  0.48992915606E+03  0.48992915606E+03  0.00000000000E+00 0.  1.
         21   -1    0    0  502  503 -0.00000000000E+00 -0.00000000000E+00 -0.53113008718E+03  0.53113008718E+03  0.00000000000E+00 0. -1.
    9000007    2    1    2  501    0 -0.17983185394E+01 -0.17993886509E+03  0.24017006702E+03  0.49995381464E+03  0.39986363496E+03 0.  0.
    9000005    1    3    3    0    0 -0.17813879219E+03  0.28866992148E+01  0.57983511837E+02  0.18736288307E+03  0.99999687468E+00 0.  0.
          4    1    3    3  501    0  0.17634047365E+03 -0.18282556430E+03  0.18218655518E+03  0.31259093157E+03  0.00000000000E+00 0.  1.
   -9000007    1    1    2    0  503  0.17983185394E+01  0.17993886509E+03 -0.28137099815E+03  0.52110542860E+03  0.40000000000E+03 0. -1.
<mgrwt>
<rscale>  2 0.43858175E+03</rscale>
<asrwt>0</asrwt>
<pdfrwt beam="1">  1       21 0.75373716E-01 0.43861285E+03</pdfrwt>
<pdfrwt beam="2">  1       21 0.81712321E-01 0.43861285E+03</pdfrwt>
<totfact> 0.17831095E+03</totfact>
</mgrwt>
</event>
<event>
 6    1  0.9094387E-004  0.4434915E+03  0.7818608E-02  0.1029720E+00
         21   -1    0    0  501  502  0.00000000000E+00  0.00000000000E+00  0.30186458307E+03  0.30186458307E+03  0.00000000000E+00 0. -1.
         21   -1    0    0  502  503 -0.00000000000E+00 -0.00000000000E+00 -0.68188104407E+03  0.68188104407E+03  0.00000000000E+00 0.  1.
    9000007    2    1    2  501    0 -0.11439876144E+03  0.15361528462E+03 -0.84917057704E+02  0.45104647179E+03  0.39943370005E+03 0.  0.
    9000005    1    3    3    0    0 -0.10561788998E+03 -0.41305134831E+02  0.12204809253E+03  0.16660729195E+03  0.99999687468E+00 0.  0.
          4    1    3    3  501    0 -0.87808714632E+01  0.19492041945E+03 -0.20696515023E+03  0.28443917984E+03  0.00000000000E+00 0.  1.
   -9000007    1    1    2    0  503  0.11439876144E+03 -0.15361528462E+03 -0.29509940329E+03  0.53269915535E+03  0.40000000000E+03 0. -1.
<mgrwt>
<rscale>  2 0.44336379E+03</rscale>
<asrwt>0</asrwt>
<pdfrwt beam="1">  1       21 0.46440705E-01 0.44349152E+03</pdfrwt>
<pdfrwt beam="2">  1       21 0.10490478E+00 0.44349152E+03</pdfrwt>
<totfact> 0.28291544E+03</totfact>
</mgrwt>
</event>
<event>
 6    1  0.9094387E-004  0.4117435E+03  0.7818608E-02  0.1039788E+00
         21   -1    0    0  501  502  0.00000000000E+00  0.00000000000E+00  0.73576830436E+03  0.73576830436E+03  0.00000000000E+00 0. -1.
         21   -1    0    0  502  503 -0.00000000000E+00 -0.00000000000E+00 -0.27699982093E+03  0.27699982093E+03  0.00000000000E+00 0.  1.
    9000007    2    1    2  501    0 -0.71469598222E+02  0.66519393961E+02  0.43705257516E+03  0.60045233138E+03  0.39999414440E+03 0.  0.
    9000005    1    3    3    0    0 -0.86619464472E+02 -0.15311001890E+03  0.27750597002E+03  0.32856684693E+03  0.99999687468E+00 0.  0.
          4    1    3    3  501    0  0.15149866250E+02  0.21962941286E+03  0.15954660514E+03  0.27188548445E+03  0.00000000000E+00 0.  1.
   -9000007    1    1    2    0  503  0.71469598222E+02 -0.66519393961E+02  0.21715908265E+02  0.41231579392E+03  0.40000000000E+03 0.  1.
<mgrwt>
<rscale>  2 0.41174211E+03</rscale>
<asrwt>0</asrwt>
<pdfrwt beam="1">  1       21 0.11319512E+00 0.41174353E+03</pdfrwt>
<pdfrwt beam="2">  1       21 0.42615357E-01 0.41174353E+03</pdfrwt>
<totfact> 0.28391386E+03</totfact>
</mgrwt>
</event>
<event>
 6    1  0.9094387E-004  0.4099477E+03  0.7818608E-02  0.1040840E+00
         21   -1    0    0  501  502  0.00000000000E+00  0.00000000000E+00  0.21637981625E+03  0.21637981625E+03  0.00000000000E+00 0.  1.
         21   -1    0    0  502  503 -0.00000000000E+00 -0.00000000000E+00 -0.11656514434E+04  0.11656514434E+04  0.00000000000E+00 0.  1.
    9000007    2    1    2  501    0  0.52219470076E+01 -0.89609307343E+02 -0.68276668324E+02  0.41032697635E+03  0.39452430519E+03 0.  0.
    9000005    1    3    3    0    0 -0.57220494653E+02  0.14502785564E+03 -0.60984434181E+02  0.16741375429E+03  0.99999687468E+00 0.  0.
          4    1    3    3  501    0  0.62442441660E+02 -0.23463716298E+03 -0.72922341433E+01  0.24291322206E+03  0.00000000000E+00 0.  1.
   -9000007    1    1    2    0  503 -0.52219470076E+01  0.89609307343E+02 -0.88099495880E+03  0.97170428327E+03  0.40000000000E+03 0.  1.
<mgrwt>
<rscale>  2 0.40860584E+03</rscale>
<asrwt>0</asrwt>
<pdfrwt beam="1">  1       21 0.33289202E-01 0.40994768E+03</pdfrwt>
<pdfrwt beam="2">  1       21 0.17933099E+00 0.40994768E+03</pdfrwt>
<totfact> 0.13730850E+03</totfact>
</mgrwt>
</event>
<event>
 6    1  0.9094387E-004  0.5193692E+03  0.7818608E-02  0.1008848E+00
         21   -1    0    0  501  502  0.00000000000E+00  0.00000000000E+00  0.17985948409E+04  0.17985948409E+04  0.00000000000E+00 0. -1.
         21   -1    0    0  502  503 -0.00000000000E+00 -0.00000000000E+00 -0.27169788198E+03  0.27169788198E+03  0.00000000000E+00 0. -1.
    9000007    2    1    2  501    0 -0.26253500801E+03  0.20203884583E+03  0.14563403216E+04  0.15461528897E+04  0.39989661198E+03 0.  0.
    9000005    1    3    3    0    0 -0.16853306374E+02  0.16660493951E+03  0.10952231427E+04  0.11079512498E+04  0.99999687468E+00 0.  0.
          4    1    3    3  501    0 -0.24568170163E+03  0.35433906318E+02  0.36111717898E+03  0.43820163988E+03  0.00000000000E+00 0.  1.
   -9000007    1    1    2    0  503  0.26253500801E+03 -0.20203884583E+03  0.70556637284E+02  0.52413983317E+03  0.40000000000E+03 0. -1.
<mgrwt>
<rscale>  2 0.51934925E+03</rscale>
<asrwt>0</asrwt>
<pdfrwt beam="1">  1       21 0.27670689E+00 0.51936916E+03</pdfrwt>
<pdfrwt beam="2">  1       21 0.41799675E-01 0.51936916E+03</pdfrwt>
<totfact> 0.19467522E+02</totfact>
</mgrwt>
</event>
<event>
 6    1  0.9094387E-004  0.4195689E+03  0.7818608E-02  0.1037278E+00
         21   -1    0    0  501  502  0.00000000000E+00  0.00000000000E+00  0.20885747442E+04  0.20885747442E+04  0.00000000000E+00 0.  1.
         21   -1    0    0  502  503 -0.00000000000E+00 -0.00000000000E+00 -0.87939842441E+02  0.87939842441E+02  0.00000000000E+00 0.  1.
    9000007    2    1    2  501    0 -0.11031749791E+03 -0.56012766297E+02  0.12283829256E+04  0.12980611188E+04  0.40091230479E+03 0.  0.
    9000005    1    3    3    0    0  0.68464434733E+02  0.11022459658E+02  0.16579334541E+02  0.71307417341E+02  0.99999687468E+00 0.  0.
          4    1    3    3  501    0 -0.17878193264E+03 -0.67035225955E+02  0.12118035910E+04  0.12267537015E+04  0.00000000000E+00 0.  1.
   -9000007    1    1    2    0  503  0.11031749791E+03  0.56012766297E+02  0.77225197621E+03  0.87845346780E+03  0.40000000000E+03 0.  1.
<mgrwt>
<rscale>  2 0.41935081E+03</rscale>
<asrwt>0</asrwt>
<pdfrwt beam="1">  1       21 0.32131915E+00 0.41956889E+03</pdfrwt>
<pdfrwt beam="2">  1       21 0.13529208E-01 0.41956889E+03</pdfrwt>
<totfact> 0.99215996E+02</totfact>
</mgrwt>
</event>
<event>
 6    1  0.9094387E-004  0.4867270E+03  0.7818608E-02  0.1017319E+00
         21   -1    0    0  501  502  0.00000000000E+00  0.00000000000E+00  0.16484255648E+03  0.16484255648E+03  0.00000000000E+00 0. -1.
         21   -1    0    0  502  503 -0.00000000000E+00 -0.00000000000E+00 -0.15852942978E+04  0.15852942978E+04  0.00000000000E+00 0. -1.
    9000007    2    1    2  501    0 -0.74657046104E+02  0.26707576649E+03 -0.44192908634E+03  0.65724631728E+03  0.39971022583E+03 0.  0.
    9000005    1    3    3    0    0 -0.53886938584E+01  0.34055589194E+03 -0.19973891834E+03  0.39484679187E+03  0.99999687468E+00 0.  0.
          4    1    3    3  501    0 -0.69268352246E+02 -0.73480125443E+02 -0.24219016800E+03  0.26239952541E+03  0.00000000000E+00 0.  1.
   -9000007    1    1    2    0  503  0.74657046104E+02 -0.26707576649E+03 -0.97852265499E+03  0.10928905370E+04  0.40000000000E+03 0. -1.
<mgrwt>
<rscale>  2 0.48666743E+03</rscale>
<asrwt>0</asrwt>
<pdfrwt beam="1">  1       21 0.25360393E-01 0.48672697E+03</pdfrwt>
<pdfrwt beam="2">  1       21 0.24389144E+00 0.48672697E+03</pdfrwt>
<totfact> 0.85877503E+02</totfact>
</mgrwt>
</event>
<event>
 6    1  0.9094387E-004  0.4135545E+03  0.7818608E-02  0.1039782E+00
         21   -1    0    0  501  502  0.00000000000E+00  0.00000000000E+00  0.11773721434E+03  0.11773721434E+03  0.00000000000E+00 0. -1.
         21   -1    0    0  502  503 -0.00000000000E+00 -0.00000000000E+00 -0.14665658956E+04  0.14665658956E+04  0.00000000000E+00 0. -1.
    9000007    2    1    2  501    0 -0.36614160203E+02 -0.61968521591E+02 -0.55114189495E+03  0.68904621750E+03  0.40724268820E+03 0.  0.
    9000005    1    3    3    0    0 -0.16760001746E+03  0.69283756744E+02 -0.11402834361E+03  0.21422760779E+03  0.99999687468E+00 0.  0.
          4    1    3    3  501    0  0.13098585725E+03 -0.13125227833E+03 -0.43711355134E+03  0.47481860971E+03  0.00000000000E+00 0.  1.
   -9000007    1    1    2    0  503  0.36614160203E+02  0.61968521591E+02 -0.79768678630E+03  0.89525689243E+03  0.40000000000E+03 0. -1.
<mgrwt>
<rscale>  2 0.41176028E+03</rscale>
<asrwt>0</asrwt>
<pdfrwt beam="1">  1       21 0.18113417E-01 0.41355447E+03</pdfrwt>
<pdfrwt beam="2">  1       21 0.22562554E+00 0.41355447E+03</pdfrwt>
<totfact> 0.22037416E+03</totfact>
</mgrwt>
</event>
<event>
 6    1  0.9094387E-004  0.4914967E+03  0.7818608E-02  0.1016168E+00
         21   -1    0    0  501  502  0.00000000000E+00  0.00000000000E+00  0.37595120385E+03  0.37595120385E+03  0.00000000000E+00 0. -1.
         21   -1    0    0  502  503 -0.00000000000E+00 -0.00000000000E+00 -0.67787047715E+03  0.67787047715E+03  0.00000000000E+00 0. -1.
    9000007    2    1    2  501    0  0.26361131941E+03  0.10990033033E+03 -0.25632759338E+02  0.48999258622E+03  0.39732440886E+03 0.  0.
    9000005    1    3    3    0    0  0.33920472179E+03 -0.11889374574E+02  0.18761925757E+02  0.33993265563E+03  0.99999687468E+00 0.  0.
          4    1    3    3  501    0 -0.75593402382E+02  0.12178970490E+03 -0.44394685096E+02  0.15005993059E+03  0.00000000000E+00 0.  1.
   -9000007    1    1    2    0  503 -0.26361131941E+03 -0.10990033033E+03 -0.27628651395E+03  0.56382909478E+03  0.40000000000E+03 0. -1.
<mgrwt>
<rscale>  2 0.49095204E+03</rscale>
<asrwt>0</asrwt>
<pdfrwt beam="1">  1       21 0.57838648E-01 0.49149670E+03</pdfrwt>
<pdfrwt beam="2">  1       21 0.10428776E+00 0.49149670E+03</pdfrwt>
<totfact> 0.17633861E+03</totfact>
</mgrwt>
</event>
<event>
 6    1  0.9094387E-004  0.4510292E+03  0.7818608E-02  0.1027518E+00
         21   -1    0    0  501  502  0.00000000000E+00  0.00000000000E+00  0.16904647884E+04  0.16904647884E+04  0.00000000000E+00 0. -1.
         21   -1    0    0  502  503 -0.00000000000E+00 -0.00000000000E+00 -0.22152538284E+03  0.22152538284E+03  0.00000000000E+00 0. -1.
    9000007    2    1    2  501    0 -0.38798580216E+02  0.20474870089E+03  0.13811408384E+04  0.14524948516E+04  0.39845190216E+03 0.  0.
    9000005    1    3    3    0    0 -0.10337051998E+03  0.30834232127E+03  0.93437074158E+03  0.98934833815E+03  0.99999687468E+00 0.  0.
          4    1    3    3  501    0  0.64571939759E+02 -0.10359362038E+03  0.44677009678E+03  0.46314651350E+03  0.00000000000E+00 0.  1.
   -9000007    1    1    2    0  503  0.38798580216E+02 -0.20474870089E+03  0.87798567233E+02  0.45949531962E+03  0.40000000000E+03 0. -1.
<mgrwt>
<rscale>  2 0.45068574E+03</rscale>
<asrwt>0</asrwt>
<pdfrwt beam="1">  1       21 0.26007150E+00 0.45102922E+03</pdfrwt>
<pdfrwt beam="2">  1       21 0.34080829E-01 0.45102922E+03</pdfrwt>
<totfact> 0.38696255E+02</totfact>
</mgrwt>
</event>
<event>
 6    1  0.9094387E-004  0.4511164E+03  0.7818608E-02  0.1027444E+00
         21   -1    0    0  501  502  0.00000000000E+00  0.00000000000E+00  0.63529320581E+03  0.63529320581E+03  0.00000000000E+00 0.  1.
         21   -1    0    0  502  503 -0.00000000000E+00 -0.00000000000E+00 -0.15491574751E+04  0.15491574751E+04  0.00000000000E+00 0.  1.
    9000007    2    1    2  501    0 -0.10721658688E+03  0.17707830792E+03  0.51596351747E+03  0.68536441807E+03  0.40081655475E+03 0.  0.
    9000005    1    3    3    0    0 -0.24384891877E+03  0.13000127353E+03  0.21030214491E+03  0.34726159945E+03  0.99999687468E+00 0.  0.
          4    1    3    3  501    0  0.13663233189E+03  0.47077034386E+02  0.30566137255E+03  0.33810281862E+03  0.00000000000E+00 0.  1.
   -9000007    1    1    2    0  503  0.10721658688E+03 -0.17707830792E+03 -0.14298277868E+04  0.14990862629E+04  0.40000000000E+03 0.  1.
<mgrwt>
<rscale>  2 0.45093498E+03</rscale>
<asrwt>0</asrwt>
<pdfrwt beam="1">  1       21 0.97737417E-01 0.45111643E+03</pdfrwt>
<pdfrwt beam="2">  1       21 0.23833192E+00 0.45111643E+03</pdfrwt>
<totfact> 0.52431565E+01</totfact>
</mgrwt>
</event>
<event>
 6    1  0.9094387E-004  0.4457176E+03  0.7818608E-02  0.1029095E+00
         21   -1    0    0  501  502  0.00000000000E+00  0.00000000000E+00  0.27670285415E+04  0.27670285415E+04  0.00000000000E+00 0. -1.
         21   -1    0    0  502  503 -0.00000000000E+00 -0.00000000000E+00 -0.65091802659E+03  0.65091802659E+03  0.00000000000E+00 0.  1.
    9000007    2    1    2  501    0  0.19617373672E+03 -0.13417021480E+02  0.26701338455E+04  0.27068867940E+04  0.39869438324E+03 0.  0.
    9000005    1    3    3    0    0 -0.90132003410E+02  0.90234413576E+02  0.52609717976E+03  0.54133655887E+03  0.99999687468E+00 0.  0.
          4    1    3    3  501    0  0.28630574013E+03 -0.10365143506E+03  0.21440366658E+04  0.21655502352E+04  0.00000000000E+00 0.  1.
   -9000007    1    1    2    0  503 -0.19617373672E+03  0.13417021480E+02 -0.55402333060E+03  0.71105977407E+03  0.40000000000E+03 0.  1.
<mgrwt>
<rscale>  2 0.44542445E+03</rscale>
<asrwt>0</asrwt>
<pdfrwt beam="1">  1       21 0.42569669E+00 0.44571757E+03</pdfrwt>
<pdfrwt beam="2">  1       21 0.10014124E+00 0.44571757E+03</pdfrwt>
<totfact> 0.34518703E+00</totfact>
</mgrwt>
</event>
<event>
 6    1  0.9094387E-004  0.4078873E+03  0.7818608E-02  0.1041087E+00
         21   -1    0    0  501  502  0.00000000000E+00  0.00000000000E+00  0.29127787814E+03  0.29127787814E+03  0.00000000000E+00 0. -1.
         21   -1    0    0  502  503 -0.00000000000E+00 -0.00000000000E+00 -0.93336022010E+03  0.93336022010E+03  0.00000000000E+00 0. -1.
    9000007    2    1    2  501    0 -0.60131448395E+02  0.52499796081E+02  0.60440149550E+02  0.41228973039E+03  0.39994723456E+03 0.  0.
    9000005    1    3    3    0    0  0.26006427417E+02  0.14912490050E+03  0.18061233656E+03  0.23566159281E+03  0.99999687468E+00 0.  0.
          4    1    3    3  501    0 -0.86137875812E+02 -0.96625104420E+02 -0.12017218701E+03  0.17662813758E+03  0.00000000000E+00 0.  1.
   -9000007    1    1    2    0  503  0.60131448395E+02 -0.52499796081E+02 -0.70252249151E+03  0.81234836785E+03  0.40000000000E+03 0. -1.
<mgrwt>
<rscale>  2 0.40787433E+03</rscale>
<asrwt>0</asrwt>
<pdfrwt beam="1">  1       21 0.44811982E-01 0.40788726E+03</pdfrwt>
<pdfrwt beam="2">  1       21 0.14359388E+00 0.40788726E+03</pdfrwt>
<totfact> 0.13875741E+03</totfact>
</mgrwt>
</event>
<event>
 6    1  0.9094387E-004  0.6542993E+03  0.7818608E-02  0.9798767E-01
         21   -1    0    0  501  502  0.00000000000E+00  0.00000000000E+00  0.18524885863E+04  0.18524885863E+04  0.00000000000E+00 0. -1.
         21   -1    0    0  502  503 -0.00000000000E+00 -0.00000000000E+00 -0.39205053578E+03  0.39205053578E+03  0.00000000000E+00 0. -1.
    9000007    2    1    2  501    0 -0.44237118800E+03 -0.26910082301E+03  0.14493158431E+04  0.15901453382E+04  0.39992282063E+03 0.  0.
    9000005    1    3    3    0    0  0.19929751419E+02 -0.16611379405E+03  0.25127885541E+03  0.30188251147E+03  0.99999687468E+00 0.  0.
          4    1    3    3  501    0 -0.46230093942E+03 -0.10298702897E+03  0.11980369877E+04  0.12882628267E+04  0.00000000000E+00 0.  1.
   -9000007    1    1    2    0  503  0.44237118800E+03  0.26910082301E+03  0.11122207392E+02  0.65439378391E+03  0.40000000000E+03 0. -1.
<mgrwt>
<rscale>  2 0.65428746E+03</rscale>
<asrwt>0</asrwt>
<pdfrwt beam="1">  1       21 0.28499824E+00 0.65429926E+03</pdfrwt>
<pdfrwt beam="2">  1       21 0.60315468E-01 0.65429926E+03</pdfrwt>
<totfact> 0.74204530E+01</totfact>
</mgrwt>
</event>
<event>
 6    1  0.9094387E-004  0.4137929E+03  0.7818608E-02  0.1039154E+00
         21   -1    0    0  501  502  0.00000000000E+00  0.00000000000E+00  0.21451063076E+03  0.21451063076E+03  0.00000000000E+00 0.  1.
         21   -1    0    0  502  503 -0.00000000000E+00 -0.00000000000E+00 -0.82365264272E+03  0.82365264272E+03  0.00000000000E+00 0.  1.
    9000007    2    1    2  501    0  0.67639918080E+02  0.81544093696E+02 -0.21115455656E+03  0.46403906009E+03  0.39940130796E+03 0.  0.
    9000005    1    3    3    0    0 -0.31332717878E+02  0.19692005935E+03 -0.23713131060E+03  0.30982496259E+03  0.99999687468E+00 0.  0.
          4    1    3    3  501    0  0.98972635958E+02 -0.11537596565E+03  0.25976754038E+02  0.15421409750E+03  0.00000000000E+00 0.  1.
   -9000007    1    1    2    0  503 -0.67639918080E+02 -0.81544093696E+02 -0.39798745540E+03  0.57412421338E+03  0.40000000000E+03 0. -1.
<mgrwt>
<rscale>  2 0.41364819E+03</rscale>
<asrwt>0</asrwt>
<pdfrwt beam="1">  1       21 0.33001635E-01 0.41379294E+03</pdfrwt>
<pdfrwt beam="2">  1       21 0.12671579E+00 0.41379294E+03</pdfrwt>
<totfact> 0.35906149E+03</totfact>
</mgrwt>
</event>
<event>
 6    1  0.9094387E-004  0.4231690E+03  0.7818608E-02  0.1036208E+00
         21   -1    0    0  501  502  0.00000000000E+00  0.00000000000E+00  0.29311190236E+03  0.29311190236E+03  0.00000000000E+00 0. -1.
         21   -1    0    0  502  503 -0.00000000000E+00 -0.00000000000E+00 -0.60839931622E+03  0.60839931622E+03  0.00000000000E+00 0. -1.
    9000007    2    1    2  501    0  0.12373485946E+03  0.61332320441E+02 -0.16978851645E+03  0.45402725448E+03  0.39779471907E+03 0.  0.
    9000005    1    3    3    0    0 -0.40097312122E+02  0.98846249097E+02  0.93377463181E+02  0.14176997575E+03  0.99999687468E+00 0.  0.
          4    1    3    3  501    0  0.16383217158E+03 -0.37513928656E+02 -0.26316597963E+03  0.31225727874E+03  0.00000000000E+00 0.  1.
   -9000007    1    1    2    0  503 -0.12373485946E+03 -0.61332320441E+02 -0.14549889741E+03  0.44748396410E+03  0.40000000000E+03 0. -1.
<mgrwt>
<rscale>  2 0.42264701E+03</rscale>
<asrwt>0</asrwt>
<pdfrwt beam="1">  1       21 0.45094139E-01 0.42316896E+03</pdfrwt>
<pdfrwt beam="2">  1       21 0.93599895E-01 0.42316896E+03</pdfrwt>
<totfact> 0.39960866E+03</totfact>
</mgrwt>
</event>
<event>
 6    1  0.9094387E-004  0.6156153E+03  0.7818608E-02  0.9873654E-01
         21   -1    0    0  501  502  0.00000000000E+00  0.00000000000E+00  0.75802918753E+03  0.75802918753E+03  0.00000000000E+00 0.  1.
         21   -1    0    0  502  503 -0.00000000000E+00 -0.00000000000E+00 -0.51657989188E+03  0.51657989188E+03  0.00000000000E+00 0. -1.
    9000007    2    1    2  501    0  0.46753676513E+03  0.92016766569E+01  0.23576392397E+03  0.65921682967E+03  0.40038344505E+03 0.  0.
    9000005    1    3    3    0    0 -0.49294221038E+02 -0.43664273397E+02 -0.33682431743E+02  0.73972935598E+02  0.99999687468E+00 0.  0.
          4    1    3    3  501    0  0.51683098617E+03  0.52865950054E+02  0.26944635571E+03  0.58524389407E+03  0.00000000000E+00 0.  1.
   -9000007    1    1    2    0  503 -0.46753676513E+03 -0.92016766569E+01  0.56853716805E+01  0.61539224975E+03  0.40000000000E+03 0. -1.
<mgrwt>
<rscale>  2 0.61555296E+03</rscale>
<asrwt>0</asrwt>
<pdfrwt beam="1">  1       21 0.11661988E+00 0.61561530E+03</pdfrwt>
<pdfrwt beam="2">  1       21 0.79473829E-01 0.61561530E+03</pdfrwt>
<totfact> 0.62631054E+02</totfact>
</mgrwt>
</event>
<event>
 6    1  0.9094387E-004  0.4183155E+03  0.7818608E-02  0.1037731E+00
         21   -1    0    0  501  502  0.00000000000E+00  0.00000000000E+00  0.55188737300E+03  0.55188737300E+03  0.00000000000E+00 0.  1.
         21   -1    0    0  502  503 -0.00000000000E+00 -0.00000000000E+00 -0.38615016531E+03  0.38615016531E+03  0.00000000000E+00 0.  1.
    9000007    2    1    2  501    0 -0.83379568729E+02  0.82816093053E+02  0.28288307932E+03  0.50498579430E+03  0.40146875112E+03 0.  0.
    9000005    1    3    3    0    0 -0.24076649637E+02 -0.14538649834E+03  0.15020633182E+02  0.14813351536E+03  0.99999687468E+00 0.  0.
          4    1    3    3  501    0 -0.59302919092E+02  0.22820259139E+03  0.26786244614E+03  0.35685227894E+03  0.00000000000E+00 0.  1.
   -9000007    1    1    2    0  503  0.83379568729E+02 -0.82816093053E+02 -0.11714587163E+03  0.43305174401E+03  0.40000000000E+03 0.  1.
<mgrwt>
<rscale>  2 0.41796266E+03</rscale>
<asrwt>0</asrwt>
<pdfrwt beam="1">  1       21 0.84905749E-01 0.41831545E+03</pdfrwt>
<pdfrwt beam="2">  1       21 0.59407718E-01 0.41831545E+03</pdfrwt>
<totfact> 0.27962081E+03</totfact>
</mgrwt>
</event>
<event>
 6    1  0.9094387E-004  0.5300115E+03  0.7818608E-02  0.1006356E+00
         21   -1    0    0  501  502  0.00000000000E+00  0.00000000000E+00  0.57856440708E+03  0.57856440708E+03  0.00000000000E+00 0.  1.
         21   -1    0    0  502  503 -0.00000000000E+00 -0.00000000000E+00 -0.78908545204E+03  0.78908545204E+03  0.00000000000E+00 0.  1.
    9000007    2    1    2  501    0  0.30672655774E+03 -0.16380185530E+03  0.32032766379E+03  0.61750815211E+03  0.39723327745E+03 0.  0.
    9000005    1    3    3    0    0  0.19806794612E+03  0.10808467730E+03  0.82351943937E+02  0.24020002375E+03  0.99999687468E+00 0.  0.
          4    1    3    3  501    0  0.10865861162E+03 -0.27188653260E+03  0.23797571985E+03  0.37730812836E+03  0.00000000000E+00 0.  1.
   -9000007    1    1    2    0  503 -0.30672655774E+03  0.16380185530E+03 -0.53084870874E+03  0.75014170701E+03  0.40000000000E+03 0.  1.
<mgrwt>
<rscale>  2 0.52948953E+03</rscale>
<asrwt>0</asrwt>
<pdfrwt beam="1">  1       21 0.89009909E-01 0.53001154E+03</pdfrwt>
<pdfrwt beam="2">  1       21 0.12139776E+00 0.53001154E+03</pdfrwt>
<totfact> 0.44633304E+02</totfact>
</mgrwt>
</event>
<event>
 6    1  0.9094387E-004  0.4182180E+03  0.7818608E-02  0.1037652E+00
         21   -1    0    0  501  502  0.00000000000E+00  0.00000000000E+00  0.18453876350E+03  0.18453876350E+03  0.00000000000E+00 0.  1.
         21   -1    0    0  502  503 -0.00000000000E+00 -0.00000000000E+00 -0.18697069529E+04  0.18697069529E+04  0.00000000000E+00 0. -1.
    9000007    2    1    2  501    0 -0.10999972478E+03  0.52974839128E+02 -0.12126882754E+03  0.43539195924E+03  0.39994219159E+03 0.  0.
    9000005    1    3    3    0    0 -0.13539708041E+03 -0.11970481268E+03 -0.17620807258E+03  0.25241215581E+03  0.99999687468E+00 0.  0.
          4    1    3    3  501    0  0.25397355635E+02  0.17267965180E+03  0.54939245040E+02  0.18297980344E+03  0.00000000000E+00 0.  1.
   -9000007    1    1    2    0  503  0.10999972478E+03 -0.52974839128E+02 -0.15638993619E+04  0.16188537571E+04  0.40000000000E+03 0. -1.
<mgrwt>
<rscale>  2 0.41820415E+03</rscale>
<asrwt>0</asrwt>
<pdfrwt beam="1">  1       21 0.28390579E-01 0.41821797E+03</pdfrwt>
<pdfrwt beam="2">  1       21 0.28764723E+00 0.41821797E+03</pdfrwt>
<totfact> 0.38696007E+02</totfact>
</mgrwt>
</event>
<event>
 6    1  0.9094387E-004  0.4314877E+03  0.7818608E-02  0.1033399E+00
         21   -1    0    0  501  502  0.00000000000E+00  0.00000000000E+00  0.61234971943E+03  0.61234971943E+03  0.00000000000E+00 0. -1.
         21   -1    0    0  502  503 -0.00000000000E+00 -0.00000000000E+00 -0.47273975160E+03  0.47273975160E+03  0.00000000000E+00 0. -1.
    9000007    2    1    2  501    0 -0.64597977063E+01 -0.16167839176E+03  0.39396774716E+03  0.58421073196E+03  0.39988743689E+03 0.  0.
    9000005    1    3    3    0    0  0.75719565177E+01 -0.47627384171E+01  0.42377783920E+03  0.42387341884E+03  0.99999687468E+00 0.  0.
          4    1    3    3  501    0 -0.14031754224E+02 -0.15691565335E+03 -0.29810092039E+02  0.16033731312E+03  0.00000000000E+00 0.  1.
   -9000007    1    1    2    0  503  0.64597977063E+01  0.16167839176E+03 -0.25435777933E+03  0.50087873907E+03  0.40000000000E+03 0. -1.
<mgrwt>
<rscale>  2 0.43146161E+03</rscale>
<asrwt>0</asrwt>
<pdfrwt beam="1">  1       21 0.94207650E-01 0.43148770E+03</pdfrwt>
<pdfrwt beam="2">  1       21 0.72729192E-01 0.43148770E+03</pdfrwt>
<totfact> 0.13874612E+03</totfact>
</mgrwt>
</event>
<event>
 6    1  0.9094387E-004  0.4204059E+03  0.7818608E-02  0.1037029E+00
         21   -1    0    0  501  502  0.00000000000E+00  0.00000000000E+00  0.28485815145E+03  0.28485815145E+03  0.00000000000E+00 0.  1.
         21   -1    0    0  502  503 -0.00000000000E+00 -0.00000000000E+00 -0.62200438218E+03  0.62200438218E+03  0.00000000000E+00 0.  1.
    9000007    2    1    2  501    0  0.11241817645E+03 -0.64056867237E+02 -0.13543796315E+03  0.44057147233E+03  0.39877142793E+03 0.  0.
    9000005    1    3    3    0    0  0.34253199252E+02 -0.84115963540E+02 -0.26933442185E+03  0.28423723853E+03  0.99999687468E+00 0.  0.
          4    1    3    3  501    0  0.78164977198E+02  0.20059096302E+02  0.13389645870E+03  0.15633423380E+03  0.00000000000E+00 0.  1.
   -9000007    1    1    2    0  503 -0.11241817645E+03  0.64056867237E+02 -0.20170826758E+03  0.46629106130E+03  0.40000000000E+03 0.  1.
<mgrwt>
<rscale>  2 0.42011341E+03</rscale>
<asrwt>0</asrwt>
<pdfrwt beam="1">  1       21 0.43824331E-01 0.42040591E+03</pdfrwt>
<pdfrwt beam="2">  1       21 0.95692981E-01 0.42040591E+03</pdfrwt>
<totfact> 0.40272880E+03</totfact>
</mgrwt>
</event>
<event>
 6    1  0.9094387E-004  0.4712258E+03  0.7818608E-02  0.1021589E+00
         21   -1    0    0  501  502  0.00000000000E+00  0.00000000000E+00  0.16147587774E+03  0.16147587774E+03  0.00000000000E+00 0.  1.
         21   -1    0    0  502  503 -0.00000000000E+00 -0.00000000000E+00 -0.13783983546E+04  0.13783983546E+04  0.00000000000E+00 0.  1.
    9000007    2    1    2  501    0  0.13158150292E+03  0.21151853806E+03 -0.64897607169E+03  0.80189259096E+03  0.39975993041E+03 0.  0.
    9000005    1    3    3    0    0 -0.63445421716E+02 -0.88976979717E+02 -0.11283813591E+03  0.15708491133E+03  0.99999687468E+00 0.  0.
          4    1    3    3  501    0  0.19502692464E+03  0.30049551778E+03 -0.53613793578E+03  0.64480767964E+03  0.00000000000E+00 0.  1.
   -9000007    1    1    2    0  503 -0.13158150292E+03 -0.21151853806E+03 -0.56794640518E+03  0.73798164138E+03  0.40000000000E+03 0.  1.
<mgrwt>
<rscale>  2 0.47117488E+03</rscale>
<asrwt>0</asrwt>
<pdfrwt beam="1">  1       21 0.24842444E-01 0.47122583E+03</pdfrwt>
<pdfrwt beam="2">  1       21 0.21206128E+00 0.47122583E+03</pdfrwt>
<totfact> 0.14325904E+03</totfact>
</mgrwt>
</event>
<event>
 6    1  0.9094387E-004  0.4818546E+03  0.7818608E-02  0.1018664E+00
         21   -1    0    0  501  502  0.00000000000E+00  0.00000000000E+00  0.45778378617E+03  0.45778378617E+03  0.00000000000E+00 0.  1.
         21   -1    0    0  502  503 -0.00000000000E+00 -0.00000000000E+00 -0.50886200989E+03  0.50886200989E+03  0.00000000000E+00 0.  1.
    9000007    2    1    2  501    0 -0.24820897641E+03 -0.10028429236E+03  0.65011546527E+01  0.48189841848E+03  0.40064845620E+03 0.  0.
    9000005    1    3    3    0    0 -0.13334930197E+03 -0.98346869121E+02 -0.19134700385E+03  0.25311819152E+03  0.99999687468E+00 0.  0.
          4    1    3    3  501    0 -0.11485967444E+03 -0.19374232342E+01  0.19784815851E+03  0.22878022695E+03  0.00000000000E+00 0.  1.
   -9000007    1    1    2    0  503  0.24820897641E+03  0.10028429236E+03 -0.57579378366E+02  0.48474737758E+03  0.40000000000E+03 0.  1.
<mgrwt>
<rscale>  2 0.48171975E+03</rscale>
<asrwt>0</asrwt>
<pdfrwt beam="1">  1       21 0.70428274E-01 0.48185456E+03</pdfrwt>
<pdfrwt beam="2">  1       21 0.78286463E-01 0.48185456E+03</pdfrwt>
<totfact> 0.22603480E+03</totfact>
</mgrwt>
</event>
<event>
 6    1  0.9094387E-004  0.4640994E+03  0.7818608E-02  0.1023606E+00
         21   -1    0    0  501  502  0.00000000000E+00  0.00000000000E+00  0.43084428869E+03  0.43084428869E+03  0.00000000000E+00 0. -1.
         21   -1    0    0  502  503 -0.00000000000E+00 -0.00000000000E+00 -0.77508136126E+03  0.77508136126E+03  0.00000000000E+00 0.  1.
    9000007    2    1    2  501    0  0.56407923761E+02  0.22828052837E+03  0.18720140409E+03  0.50043241259E+03  0.40011795808E+03 0.  0.
    9000005    1    3    3    0    0 -0.12853278940E+03  0.20793292211E+03  0.19724144937E+03  0.31410502605E+03  0.99999687468E+00 0.  0.
          4    1    3    3  501    0  0.18494071316E+03  0.20347606261E+02 -0.10040045286E+02  0.18632738654E+03  0.00000000000E+00 0.  1.
   -9000007    1    1    2    0  503 -0.56407923761E+02 -0.22828052837E+03 -0.53143847666E+03  0.70549323737E+03  0.40000000000E+03 0.  1.
<mgrwt>
<rscale>  2 0.46407395E+03</rscale>
<asrwt>0</asrwt>
<pdfrwt beam="1">  1       21 0.66283737E-01 0.46409938E+03</pdfrwt>
<pdfrwt beam="2">  1       21 0.11924329E+00 0.46409938E+03</pdfrwt>
<totfact> 0.94441322E+02</totfact>
</mgrwt>
</event>
<event>
 6    1  0.9094387E-004  0.5304056E+03  0.7818608E-02  0.1006173E+00
         21   -1    0    0  501  502  0.00000000000E+00  0.00000000000E+00  0.31685569024E+03  0.31685569024E+03  0.00000000000E+00 0. -1.
         21   -1    0    0  502  503 -0.00000000000E+00 -0.00000000000E+00 -0.11982993404E+04  0.11982993404E+04  0.00000000000E+00 0. -1.
    9000007    2    1    2  501    0  0.20814448489E+03 -0.27929548953E+03 -0.54275623043E+02  0.53253758619E+03  0.39914952133E+03 0.  0.
    9000005    1    3    3    0    0  0.25059855258E+03 -0.34671464896E+03 -0.10183160814E+03  0.43975147387E+03  0.99999687468E+00 0.  0.
          4    1    3    3  501    0 -0.42454067688E+02  0.67419159428E+02  0.47555985093E+02  0.92786112320E+02  0.00000000000E+00 0.  1.
   -9000007    1    1    2    0  503 -0.20814448489E+03  0.27929548953E+03 -0.82716802714E+03  0.98261744448E+03  0.40000000000E+03 0. -1.
<mgrwt>
<rscale>  2 0.53024525E+03</rscale>
<asrwt>0</asrwt>
<pdfrwt beam="1">  1       21 0.48747029E-01 0.53040560E+03</pdfrwt>
<pdfrwt beam="2">  1       21 0.18435375E+00 0.53040560E+03</pdfrwt>
<totfact> 0.54664333E+02</totfact>
</mgrwt>
</event>
<event>
 6    1  0.9094387E-004  0.4107745E+03  0.7818608E-02  0.1040116E+00
         21   -1    0    0  501  502  0.00000000000E+00  0.00000000000E+00  0.38603551969E+03  0.38603551969E+03  0.00000000000E+00 0.  1.
         21   -1    0    0  502  503 -0.00000000000E+00 -0.00000000000E+00 -0.86373278439E+03  0.86373278439E+03  0.00000000000E+00 0.  1.
    9000007    2    1    2  501    0 -0.33561990890E+01 -0.93174501019E+02  0.20034719038E+03  0.45702809773E+03  0.40005366353E+03 0.  0.
    9000005    1    3    3    0    0 -0.18894955518E+03 -0.55395041431E+02  0.24215610979E+02  0.19838835860E+03  0.99999687468E+00 0.  0.
          4    1    3    3  501    0  0.18559335609E+03 -0.37779459588E+02  0.17613157940E+03  0.25863973913E+03  0.00000000000E+00 0.  1.
   -9000007    1    1    2    0  503  0.33561990890E+01  0.93174501019E+02 -0.67804445507E+03  0.79274020635E+03  0.40000000000E+03 0.  1.
<mgrwt>
<rscale>  2 0.41076143E+03</rscale>
<asrwt>0</asrwt>
<pdfrwt beam="1">  1       21 0.59390081E-01 0.41077449E+03</pdfrwt>
<pdfrwt beam="2">  1       21 0.13288196E+00 0.41077449E+03</pdfrwt>
<totfact> 0.93210774E+02</totfact>
</mgrwt>
</event>
<event>
 6    1  0.9094387E-004  0.8773859E+03  0.7818608E-02  0.9454452E-01
         21   -1    0    0  501  502  0.00000000000E+00  0.00000000000E+00  0.10744750049E+04  0.10744750049E+04  0.00000000000E+00 0. -1.
         21   -1    0    0  502  503 -0.00000000000E+00 -0.00000000000E+00 -0.11388399172E+04  0.11388399172E+04  0.00000000000E+00 0.  1.
    9000007    2    1    2  501    0  0.43194984075E+03  0.65055775729E+03  0.64209725391E+03  0.10868625917E+04  0.39896785493E+03 0.  0.
    9000005    1    3    3    0    0  0.49712004261E+03  0.46910860075E+03  0.48387502863E+03  0.83745284010E+03  0.99999687468E+00 0.  0.
          4    1    3    3  501    0 -0.65170201864E+02  0.18144915654E+03  0.15822222528E+03  0.24940975160E+03  0.00000000000E+00 0.  1.
   -9000007    1    1    2    0  503 -0.43194984075E+03 -0.65055775729E+03 -0.70646216622E+03  0.11264523305E+04  0.40000000000E+03 0.  1.
<mgrwt>
<rscale>  2 0.87726838E+03</rscale>
<asrwt>0</asrwt>
<pdfrwt beam="1">  1       21 0.16530385E+00 0.87738592E+03</pdfrwt>
<pdfrwt beam="2">  1       21 0.17520614E+00 0.87738592E+03</pdfrwt>
<totfact> 0.29131607E+01</totfact>
</mgrwt>
</event>
<event>
 6    1  0.9094387E-004  0.4054807E+03  0.7818608E-02  0.1041904E+00
         21   -1    0    0  501  502  0.00000000000E+00  0.00000000000E+00  0.34364573544E+03  0.34364573544E+03  0.00000000000E+00 0.  1.
         21   -1    0    0  502  503 -0.00000000000E+00 -0.00000000000E+00 -0.55819470074E+03  0.55819470074E+03  0.00000000000E+00 0.  1.
    9000007    2    1    2  501    0 -0.30220544037E+02  0.59172233091E+02  0.63260609221E+02  0.41031953718E+03  0.39993197355E+03 0.  0.
    9000005    1    3    3    0    0 -0.10759500304E+03  0.10102044878E+03 -0.13082747210E+03  0.19722738958E+03  0.99999687468E+00 0.  0.
          4    1    3    3  501    0  0.77374459003E+02 -0.41848215687E+02  0.19408808132E+03  0.21309214761E+03  0.00000000000E+00 0.  1.
   -9000007    1    1    2    0  503  0.30220544037E+02 -0.59172233091E+02 -0.27780957452E+03  0.49152089899E+03  0.40000000000E+03 0.  1.
<mgrwt>
<rscale>  2 0.40546397E+03</rscale>
<asrwt>0</asrwt>
<pdfrwt beam="1">  1       21 0.52868575E-01 0.40548074E+03</pdfrwt>
<pdfrwt beam="2">  1       21 0.85876107E-01 0.40548074E+03</pdfrwt>
<totfact> 0.35210715E+03</totfact>
</mgrwt>
</event>
<event>
 6    1  0.9094387E-004  0.4337797E+03  0.7818608E-02  0.1032682E+00
         21   -1    0    0  501  502  0.00000000000E+00  0.00000000000E+00  0.78055863686E+03  0.78055863686E+03  0.00000000000E+00 0. -1.
         21   -1    0    0  502  503 -0.00000000000E+00 -0.00000000000E+00 -0.25346183701E+03  0.25346183701E+03  0.00000000000E+00 0. -1.
    9000007    2    1    2  501    0 -0.76885409229E+02  0.14917600732E+03  0.37817351773E+03  0.57538882291E+03  0.39986527819E+03 0.  0.
    9000005    1    3    3    0    0  0.15790376414E+03  0.11265934559E+03  0.19806780977E+03  0.27723200417E+03  0.99999687468E+00 0.  0.
          4    1    3    3  501    0 -0.23478917337E+03  0.36516661726E+02  0.18010570797E+03  0.29815681873E+03  0.00000000000E+00 0.  1.
   -9000007    1    1    2    0  503  0.76885409229E+02 -0.14917600732E+03  0.14892328212E+03  0.45863165097E+03  0.40000000000E+03 0. -1.
<mgrwt>
<rscale>  2 0.43374866E+03</rscale>
<asrwt>0</asrwt>
<pdfrwt beam="1">  1       21 0.12008594E+00 0.43377972E+03</pdfrwt>
<pdfrwt beam="2">  1       21 0.38994129E-01 0.43377972E+03</pdfrwt>
<totfact> 0.29151149E+03</totfact>
</mgrwt>
</event>
<event>
 6    1  0.9094387E-004  0.4895688E+03  0.7818608E-02  0.1016540E+00
         21   -1    0    0  501  502  0.00000000000E+00  0.00000000000E+00  0.13471192815E+04  0.13471192815E+04  0.00000000000E+00 0.  1.
         21   -1    0    0  502  503 -0.00000000000E+00 -0.00000000000E+00 -0.17839882177E+03  0.17839882177E+03  0.00000000000E+00 0. -1.
    9000007    2    1    2  501    0  0.26922860180E+03  0.84814903728E+02  0.62439339600E+03  0.79341868365E+03  0.39996060641E+03 0.  0.
    9000005    1    3    3    0    0  0.22994373630E+03 -0.13419244540E+03  0.31752466685E+03  0.41437259600E+03  0.99999687468E+00 0.  0.
          4    1    3    3  501    0  0.39284865496E+02  0.21900734913E+03  0.30686872915E+03  0.37904608765E+03  0.00000000000E+00 0.  1.
   -9000007    1    1    2    0  503 -0.26922860180E+03 -0.84814903728E+02  0.54432706376E+03  0.73209941966E+03  0.40000000000E+03 0.  1.
<mgrwt>
<rscale>  2 0.48956075E+03</rscale>
<asrwt>0</asrwt>
<pdfrwt beam="1">  1       21 0.20724911E+00 0.48956880E+03</pdfrwt>
<pdfrwt beam="2">  1       21 0.27445973E-01 0.48956880E+03</pdfrwt>
<totfact> 0.12573608E+03</totfact>
</mgrwt>
</event>
<event>
 6    1  0.9094387E-004  0.4226373E+03  0.7818608E-02  0.1036288E+00
         21   -1    0    0  501  502  0.00000000000E+00  0.00000000000E+00  0.12823265678E+04  0.12823265678E+04  0.00000000000E+00 0.  1.
         21   -1    0    0  502  503 -0.00000000000E+00 -0.00000000000E+00 -0.17604960700E+03  0.17604960700E+03  0.00000000000E+00 0.  1.
    9000007    2    1    2  501    0  0.12432073581E+03 -0.48627501598E+02  0.88822189474E+03  0.98364647157E+03  0.40100120633E+03 0.  0.
    9000005    1    3    3    0    0  0.24948114930E+02 -0.21149852919E+03  0.61151771947E+03  0.64754069950E+03  0.99999687468E+00 0.  0.
          4    1    3    3  501    0  0.99372620883E+02  0.16287102759E+03  0.27670417527E+03  0.33610577207E+03  0.00000000000E+00 0.  1.
   -9000007    1    1    2    0  503 -0.12432073581E+03  0.48627501598E+02  0.21805506603E+03  0.47472970318E+03  0.40000000000E+03 0.  1.
<mgrwt>
<rscale>  2 0.42239959E+03</rscale>
<asrwt>0</asrwt>
<pdfrwt beam="1">  1       21 0.19728100E+00 0.42263725E+03</pdfrwt>
<pdfrwt beam="2">  1       21 0.27084556E-01 0.42263725E+03</pdfrwt>
<totfact> 0.15479531E+03</totfact>
</mgrwt>
</event>
<event>
 6    1  0.9094387E-004  0.5395619E+03  0.7818608E-02  0.1004231E+00
         21   -1    0    0  501  502  0.00000000000E+00  0.00000000000E+00  0.83614267212E+03  0.83614267212E+03  0.00000000000E+00 0.  1.
         21   -1    0    0  502  503 -0.00000000000E+00 -0.00000000000E+00 -0.10864662728E+04  0.10864662728E+04  0.00000000000E+00 0.  1.
    9000007    2    1    2  501    0 -0.15918435975E+03 -0.32524977324E+03  0.66914503096E+03  0.85651812329E+03  0.39337151356E+03 0.  0.
    9000005    1    3    3    0    0  0.59985657789E+02  0.39759249797E+02  0.11205348212E+02  0.72839803042E+02  0.99999687468E+00 0.  0.
          4    1    3    3  501    0 -0.21917001754E+03 -0.36500902303E+03  0.65793968275E+03  0.78367832025E+03  0.00000000000E+00 0.  1.
   -9000007    1    1    2    0  503  0.15918435975E+03  0.32524977324E+03 -0.91946863162E+03  0.10660908216E+04  0.40000000000E+03 0.  1.
<mgrwt>
<rscale>  2 0.53833388E+03</rscale>
<asrwt>0</asrwt>
<pdfrwt beam="1">  1       21 0.12863733E+00 0.53956193E+03</pdfrwt>
<pdfrwt beam="2">  1       21 0.16714866E+00 0.53956193E+03</pdfrwt>
<totfact> 0.75335466E+01</totfact>
</mgrwt>
</event>
<event>
 6    1  0.9094387E-004  0.4836390E+03  0.7818608E-02  0.1018142E+00
         21   -1    0    0  501  502  0.00000000000E+00  0.00000000000E+00  0.13807813823E+04  0.13807813823E+04  0.00000000000E+00 0. -1.
         21   -1    0    0  502  503 -0.00000000000E+00 -0.00000000000E+00 -0.31816810389E+03  0.31816810389E+03  0.00000000000E+00 0.  1.
    9000007    2    1    2  501    0  0.27063730563E+03 -0.25252038777E+02  0.11121955353E+04  0.12128007262E+04  0.40003059401E+03 0.  0.
    9000005    1    3    3    0    0  0.50239610552E+02 -0.19727171158E+03  0.44193679195E+03  0.48656887974E+03  0.99999687468E+00 0.  0.
          4    1    3    3  501    0  0.22039769508E+03  0.17201967280E+03  0.67025874334E+03  0.72623184649E+03  0.00000000000E+00 0.  1.
   -9000007    1    1    2    0  503 -0.27063730563E+03  0.25252038777E+02 -0.49582256846E+02  0.48614876000E+03  0.40000000000E+03 0.  1.
<mgrwt>
<rscale>  2 0.48363268E+03</rscale>
<asrwt>0</asrwt>
<pdfrwt beam="1">  1       21 0.21242790E+00 0.48363901E+03</pdfrwt>
<pdfrwt beam="2">  1       21 0.48948940E-01 0.48363901E+03</pdfrwt>
<totfact> 0.35778187E+02</totfact>
</mgrwt>
</event>
<event>
 6    1  0.9094387E-004  0.4284944E+03  0.7818608E-02  0.1034384E+00
         21   -1    0    0  501  502  0.00000000000E+00  0.00000000000E+00  0.25241687113E+03  0.25241687113E+03  0.00000000000E+00 0. -1.
         21   -1    0    0  502  503 -0.00000000000E+00 -0.00000000000E+00 -0.87371498428E+03  0.87371498428E+03  0.00000000000E+00 0. -1.
    9000007    2    1    2  501    0  0.12759740873E+03 -0.82572930587E+02 -0.79615572050E+02  0.43582803613E+03  0.40063455939E+03 0.  0.
    9000005    1    3    3    0    0  0.15653508781E+03 -0.62458604538E+01  0.13462704322E+03  0.20656157738E+03  0.99999687468E+00 0.  0.
          4    1    3    3  501    0 -0.28937679086E+02 -0.76327070133E+02 -0.21424261527E+03  0.22926645874E+03  0.00000000000E+00 0.  1.
   -9000007    1    1    2    0  503 -0.12759740873E+03  0.82572930587E+02 -0.54168254110E+03  0.69030381928E+03  0.40000000000E+03 0. -1.
<mgrwt>
<rscale>  2 0.42834600E+03</rscale>
<asrwt>0</asrwt>
<pdfrwt beam="1">  1       21 0.38833365E-01 0.42849438E+03</pdfrwt>
<pdfrwt beam="2">  1       21 0.13441769E+00 0.42849438E+03</pdfrwt>
<totfact> 0.22029487E+03</totfact>
</mgrwt>
</event>
<event>
 6    1  0.9094387E-004  0.4945622E+03  0.7818608E-02  0.1015478E+00
         21   -1    0    0  501  502  0.00000000000E+00  0.00000000000E+00  0.32335596550E+03  0.32335596550E+03  0.00000000000E+00 0. -1.
         21   -1    0    0  502  503 -0.00000000000E+00 -0.00000000000E+00 -0.86079095217E+03  0.86079095217E+03  0.00000000000E+00 0. -1.
    9000007    2    1    2  501    0 -0.22352365946E+03  0.17502658856E+03 -0.57488868111E+02  0.49789229309E+03  0.40496250754E+03 0.  0.
    9000005    1    3    3    0    0 -0.16044477850E+03 -0.88761857683E+02 -0.12053829619E+03  0.21943489962E+03  0.99999687468E+00 0.  0.
          4    1    3    3  501    0 -0.63078880958E+02  0.26378844625E+03  0.63049428083E+02  0.27845739347E+03  0.00000000000E+00 0.  1.
   -9000007    1    1    2    0  503  0.22352365946E+03 -0.17502658856E+03 -0.47994611856E+03  0.68625462458E+03  0.40000000000E+03 0. -1.
<mgrwt>
<rscale>  2 0.49354527E+03</rscale>
<asrwt>0</asrwt>
<pdfrwt beam="1">  1       21 0.49747071E-01 0.49456220E+03</pdfrwt>
<pdfrwt beam="2">  1       21 0.13242938E+00 0.49456220E+03</pdfrwt>
<totfact> 0.13306680E+03</totfact>
</mgrwt>
</event>
<event>
 6    1  0.9094387E-004  0.4045999E+03  0.7818608E-02  0.1042235E+00
         21   -1    0    0  501  502  0.00000000000E+00  0.00000000000E+00  0.37001869752E+03  0.37001869752E+03  0.00000000000E+00 0.  1.
         21   -1    0    0  502  503 -0.00000000000E+00 -0.00000000000E+00 -0.49604421169E+03  0.49604421169E+03  0.00000000000E+00 0.  1.
    9000007    2    1    2  501    0  0.27559661305E+02  0.50896989514E+02  0.79971864089E+02  0.41242763905E+03  0.40043853453E+03 0.  0.
    9000005    1    3    3    0    0  0.20738352579E+03  0.62298452488E+02  0.31880834161E+01  0.21656451192E+03  0.99999687468E+00 0.  0.
          4    1    3    3  501    0 -0.17982386449E+03 -0.11401462974E+02  0.76783780673E+02  0.19586312714E+03  0.00000000000E+00 0.  1.
   -9000007    1    1    2    0  503 -0.27559661305E+02 -0.50896989514E+02 -0.20599737826E+03  0.45363527015E+03  0.40000000000E+03 0. -1.
<mgrwt>
<rscale>  2 0.40449133E+03</rscale>
<asrwt>0</asrwt>
<pdfrwt beam="1">  1       21 0.56925954E-01 0.40459987E+03</pdfrwt>
<pdfrwt beam="2">  1       21 0.76314494E-01 0.40459987E+03</pdfrwt>
<totfact> 0.39457367E+03</totfact>
</mgrwt>
</event>
<event>
 6    1  0.9094387E-004  0.4918503E+03  0.7818608E-02  0.1016299E+00
         21   -1    0    0  501  502  0.00000000000E+00  0.00000000000E+00  0.24412007283E+03  0.24412007283E+03  0.00000000000E+00 0.  1.
         21   -1    0    0  502  503 -0.00000000000E+00 -0.00000000000E+00 -0.11320180034E+04  0.11320180034E+04  0.00000000000E+00 0. -1.
    9000007    2    1    2  501    0 -0.10029634134E+03 -0.25778562943E+03 -0.19387253666E+03  0.52868068249E+03  0.40669880347E+03 0.  0.
    9000005    1    3    3    0    0 -0.14417163052E+03  0.67792953104E+02 -0.95491713544E+02  0.18574447740E+03  0.99999687468E+00 0.  0.
          4    1    3    3  501    0  0.43875289178E+02 -0.32557858253E+03 -0.98380823121E+02  0.34293620509E+03  0.00000000000E+00 0.  1.
   -9000007    1    1    2    0  503  0.10029634134E+03  0.25778562943E+03 -0.69402539391E+03  0.84745739375E+03  0.40000000000E+03 0. -1.
<mgrwt>
<rscale>  2 0.49046331E+03</rscale>
<asrwt>0</asrwt>
<pdfrwt beam="1">  1       21 0.37556935E-01 0.49185029E+03</pdfrwt>
<pdfrwt beam="2">  1       21 0.17415661E+00 0.49185029E+03</pdfrwt>
<totfact> 0.11297395E+03</totfact>
</mgrwt>
</event>
<event>
 6    1  0.9094387E-004  0.4952158E+03  0.7818608E-02  0.1015061E+00
         21   -1    0    0  501  502  0.00000000000E+00  0.00000000000E+00  0.10885947762E+04  0.10885947762E+04  0.00000000000E+00 0.  1.
         21   -1    0    0  502  503 -0.00000000000E+00 -0.00000000000E+00 -0.27503128570E+03  0.27503128570E+03  0.00000000000E+00 0.  1.
    9000007    2    1    2  501    0  0.21683147893E+03 -0.19550648985E+03  0.69715442637E+03  0.85491224444E+03  0.39951467264E+03 0.  0.
    9000005    1    3    3    0    0  0.30738103868E+02  0.93106664649E+02  0.36206199924E+03  0.37510474980E+03  0.99999687468E+00 0.  0.
          4    1    3    3  501    0  0.18609337507E+03 -0.28861315450E+03  0.33509242713E+03  0.47980749464E+03  0.00000000000E+00 0.  1.
   -9000007    1    1    2    0  503 -0.21683147893E+03  0.19550648985E+03  0.11640906410E+03  0.50871381742E+03  0.40000000000E+03 0.  1.
<mgrwt>
<rscale>  2 0.49511778E+03</rscale>
<asrwt>0</asrwt>
<pdfrwt beam="1">  1       21 0.16747612E+00 0.49521579E+03</pdfrwt>
<pdfrwt beam="2">  1       21 0.42312506E-01 0.49521579E+03</pdfrwt>
<totfact> 0.98670827E+02</totfact>
</mgrwt>
</event>
<event>
 6    1  0.9094387E-004  0.5384510E+03  0.7818608E-02  0.1004205E+00
         21   -1    0    0  501  502  0.00000000000E+00  0.00000000000E+00  0.62473171610E+03  0.62473171610E+03  0.00000000000E+00 0.  1.
         21   -1    0    0  502  503 -0.00000000000E+00 -0.00000000000E+00 -0.62782967054E+03  0.62782967054E+03  0.00000000000E+00 0. -1.
    9000007    2    1    2  501    0 -0.17297131725E+03 -0.31624415243E+03  0.31831132388E+03  0.62547816671E+03  0.39996424538E+03 0.  0.
    9000005    1    3    3    0    0 -0.19687237184E+02 -0.29808202780E+03  0.32301595117E+02  0.30047441762E+03  0.99999687468E+00 0.  0.
          4    1    3    3  501    0 -0.15328408006E+03 -0.18162124632E+02  0.28600972876E+03  0.32500374908E+03  0.00000000000E+00 0.  1.
   -9000007    1    1    2    0  503  0.17297131725E+03  0.31624415243E+03 -0.32140927831E+03  0.62708321993E+03  0.40000000000E+03 0. -1.
<mgrwt>
<rscale>  2 0.53844432E+03</rscale>
<asrwt>0</asrwt>
<pdfrwt beam="1">  1       21 0.96112571E-01 0.53845096E+03</pdfrwt>
<pdfrwt beam="2">  1       21 0.96589181E-01 0.53845096E+03</pdfrwt>
<totfact> 0.65369447E+02</totfact>
</mgrwt>
</event>
<event>
 6    1  0.9094387E-004  0.6355210E+03  0.7818608E-02  0.9834392E-01
         21   -1    0    0  501  502  0.00000000000E+00  0.00000000000E+00  0.85541558575E+03  0.85541558575E+03  0.00000000000E+00 0. -1.
         21   -1    0    0  502  503 -0.00000000000E+00 -0.00000000000E+00 -0.68536855535E+03  0.68536855535E+03  0.00000000000E+00 0.  1.
    9000007    2    1    2  501    0 -0.10127913378E+03 -0.48319375174E+03  0.51481329427E+03  0.81787512790E+03  0.40019161938E+03 0.  0.
    9000005    1    3    3    0    0  0.87497512393E+02 -0.33865055813E+03  0.14589935213E+03  0.37898236917E+03  0.99999687468E+00 0.  0.
          4    1    3    3  501    0 -0.18877664618E+03 -0.14454319361E+03  0.36891394214E+03  0.43889275873E+03  0.00000000000E+00 0.  1.
   -9000007    1    1    2    0  503  0.10127913378E+03  0.48319375174E+03 -0.34476626387E+03  0.72290901320E+03  0.40000000000E+03 0.  1.
<mgrwt>
<rscale>  2 0.63549088E+03</rscale>
<asrwt>0</asrwt>
<pdfrwt beam="1">  1       21 0.13160240E+00 0.63552104E+03</pdfrwt>
<pdfrwt beam="2">  1       21 0.10544132E+00 0.63552104E+03</pdfrwt>
<totfact> 0.23089351E+02</totfact>
</mgrwt>
</event>
<event>
 6    1  0.9094387E-004  0.4253372E+03  0.7818608E-02  0.1035366E+00
         21   -1    0    0  501  502  0.00000000000E+00  0.00000000000E+00  0.26477452751E+03  0.26477452751E+03  0.00000000000E+00 0. -1.
         21   -1    0    0  502  503 -0.00000000000E+00 -0.00000000000E+00 -0.73493570699E+03  0.73493570699E+03  0.00000000000E+00 0. -1.
    9000007    2    1    2  501    0  0.52398809071E+02  0.13387986820E+03 -0.10203263523E+03  0.43740419738E+03  0.40030278406E+03 0.  0.
    9000005    1    3    3    0    0 -0.13412823581E+03  0.82204289934E+01 -0.15621553820E+03  0.20606371215E+03  0.99999687468E+00 0.  0.
          4    1    3    3  501    0  0.18652704488E+03  0.12565943921E+03  0.54182902974E+02  0.23134048523E+03  0.00000000000E+00 0.  1.
   -9000007    1    1    2    0  503 -0.52398809071E+02 -0.13387986820E+03 -0.36812854424E+03  0.56230603713E+03  0.40000000000E+03 0. -1.
<mgrwt>
<rscale>  2 0.42526599E+03</rscale>
<asrwt>0</asrwt>
<pdfrwt beam="1">  1       21 0.40734543E-01 0.42533725E+03</pdfrwt>
<pdfrwt beam="2">  1       21 0.11306703E+00 0.42533725E+03</pdfrwt>
<totfact> 0.31094492E+03</totfact>
</mgrwt>
</event>
<event>
 6    1  0.9094387E-004  0.4074769E+03  0.7818608E-02  0.1041249E+00
         21   -1    0    0  501  502  0.00000000000E+00  0.00000000000E+00  0.42305730791E+03  0.42305730791E+03  0.00000000000E+00 0.  1.
         21   -1    0    0  502  503 -0.00000000000E+00 -0.00000000000E+00 -0.83262198064E+03  0.83262198064E+03  0.00000000000E+00 0.  1.
    9000007    2    1    2  501    0 -0.27483757536E+02 -0.72677648668E+02  0.25190299361E+03  0.47877718973E+03  0.39966871490E+03 0.  0.
    9000005    1    3    3    0    0  0.12714873074E+02 -0.17137289556E+03 -0.32652182974E+02  0.17492141772E+03  0.99999687468E+00 0.  0.
          4    1    3    3  501    0 -0.40198630611E+02  0.98695246897E+02  0.28455517658E+03  0.30385577201E+03  0.00000000000E+00 0.  1.
   -9000007    1    1    2    0  503  0.27483757536E+02  0.72677648668E+02 -0.66146766634E+03  0.77690209882E+03  0.40000000000E+03 0.  1.
<mgrwt>
<rscale>  2 0.40739554E+03</rscale>
<asrwt>0</asrwt>
<pdfrwt beam="1">  1       21 0.65085739E-01 0.40747687E+03</pdfrwt>
<pdfrwt beam="2">  1       21 0.12809569E+00 0.40747687E+03</pdfrwt>
<totfact> 0.83922357E+02</totfact>
</mgrwt>
</event>
<event>
 6    1  0.9094387E-004  0.6183399E+03  0.7818608E-02  0.9868222E-01
         21   -1    0    0  501  502  0.00000000000E+00  0.00000000000E+00  0.20294016693E+03  0.20294016693E+03  0.00000000000E+00 0. -1.
         21   -1    0    0  502  503 -0.00000000000E+00 -0.00000000000E+00 -0.18832270875E+04  0.18832270875E+04  0.00000000000E+00 0.  1.
    9000007    2    1    2  501    0  0.34777786534E+03 -0.31842543002E+03 -0.84839179975E+03  0.10496376166E+04  0.39953257959E+03 0.  0.
    9000005    1    3    3    0    0  0.44620821321E+01 -0.24598354815E+03 -0.48879713366E+03  0.54722157670E+03  0.99999687468E+00 0.  0.
          4    1    3    3  501    0  0.34331578321E+03 -0.72441881873E+02 -0.35959466608E+03  0.50241603988E+03  0.00000000000E+00 0.  1.
   -9000007    1    1    2    0  503 -0.34777786534E+03  0.31842543002E+03 -0.83189512081E+03  0.10365296378E+04  0.40000000000E+03 0. -1.
<mgrwt>
<rscale>  2 0.61826429E+03</rscale>
<asrwt>0</asrwt>
<pdfrwt beam="1">  1       21 0.31221565E-01 0.61833987E+03</pdfrwt>
<pdfrwt beam="2">  1       21 0.28972724E+00 0.61833987E+03</pdfrwt>
<totfact> 0.28132975E+02</totfact>
</mgrwt>
</event>
<event>
 6    1  0.9094387E-004  0.4567200E+03  0.7818608E-02  0.1025746E+00
         21   -1    0    0  501  502  0.00000000000E+00  0.00000000000E+00  0.15318043141E+04  0.15318043141E+04  0.00000000000E+00 0.  1.
         21   -1    0    0  502  503 -0.00000000000E+00 -0.00000000000E+00 -0.19244989059E+03  0.19244989059E+03  0.00000000000E+00 0.  1.
    9000007    2    1    2  501    0  0.16133939804E+03 -0.15020907965E+03  0.11359671417E+04  0.12242946510E+04  0.39985356866E+03 0.  0.
    9000005    1    3    3    0    0 -0.12595693779E+03 -0.97120485949E+02  0.31475995617E+03  0.35266466930E+03  0.99999687468E+00 0.  0.
          4    1    3    3  501    0  0.28729633583E+03 -0.53088593697E+02  0.82120718555E+03  0.87162998168E+03  0.00000000000E+00 0.  1.
   -9000007    1    1    2    0  503 -0.16133939804E+03  0.15020907965E+03  0.20338728180E+03  0.49995955373E+03  0.40000000000E+03 0.  1.
<mgrwt>
<rscale>  2 0.45668795E+03</rscale>
<asrwt>0</asrwt>
<pdfrwt beam="1">  1       21 0.23566219E+00 0.45672001E+03</pdfrwt>
<pdfrwt beam="2">  1       21 0.29607676E-01 0.45672001E+03</pdfrwt>
<totfact> 0.72279369E+02</totfact>
</mgrwt>
</event>
<event>
 6    1  0.9094387E-004  0.4479069E+03  0.7818608E-02  0.1028359E+00
         21   -1    0    0  501  502  0.00000000000E+00  0.00000000000E+00  0.27093844338E+03  0.27093844338E+03  0.00000000000E+00 0. -1.
         21   -1    0    0  502  503 -0.00000000000E+00 -0.00000000000E+00 -0.10402028741E+04  0.10402028741E+04  0.00000000000E+00 0. -1.
    9000007    2    1    2  501    0  0.91458952757E+02 -0.17922081267E+03 -0.32622051279E+02  0.44909327072E+03  0.40016962383E+03 0.  0.
    9000005    1    3    3    0    0  0.44772649661E+01 -0.29937261729E+03 -0.27590877554E+02  0.30067634826E+03  0.99999687468E+00 0.  0.
          4    1    3    3  501    0  0.86981687791E+02  0.12015180462E+03 -0.50311737255E+01  0.14841692246E+03  0.00000000000E+00 0.  1.
   -9000007    1    1    2    0  503 -0.91458952757E+02  0.17922081267E+03 -0.73664237939E+03  0.86204804672E+03  0.40000000000E+03 0. -1.
<mgrwt>
<rscale>  2 0.44786898E+03</rscale>
<asrwt>0</asrwt>
<pdfrwt beam="1">  1       21 0.41682838E-01 0.44790687E+03</pdfrwt>
<pdfrwt beam="2">  1       21 0.16003121E+00 0.44790687E+03</pdfrwt>
<totfact> 0.11797977E+03</totfact>
</mgrwt>
</event>
<event>
 6    1  0.9094387E-004  0.4224813E+03  0.7818608E-02  0.1036280E+00
         21   -1    0    0  501  502  0.00000000000E+00  0.00000000000E+00  0.68945976338E+03  0.68945976338E+03  0.00000000000E+00 0.  1.
         21   -1    0    0  502  503 -0.00000000000E+00 -0.00000000000E+00 -0.29758183475E+03  0.29758183475E+03  0.00000000000E+00 0. -1.
    9000007    2    1    2  501    0  0.11985036402E+03 -0.64236497845E+02  0.37417587454E+03  0.56418961442E+03  0.39976480401E+03 0.  0.
    9000005    1    3    3    0    0  0.50289688746E+01 -0.18827166182E+03  0.44222656490E+02  0.19346356896E+03  0.99999687468E+00 0.  0.
          4    1    3    3  501    0  0.11482139514E+03  0.12403516398E+03  0.32995321805E+03  0.37072604546E+03  0.00000000000E+00 0.  1.
   -9000007    1    1    2    0  503 -0.11985036402E+03  0.64236497845E+02  0.17702054096E+02  0.42285198371E+03  0.40000000000E+03 0. -1.
<mgrwt>
<rscale>  2 0.42242561E+03</rscale>
<asrwt>0</asrwt>
<pdfrwt beam="1">  1       21 0.10607073E+00 0.42248129E+03</pdfrwt>
<pdfrwt beam="2">  1       21 0.45781821E-01 0.42248129E+03</pdfrwt>
<totfact> 0.28595993E+03</totfact>
</mgrwt>
</event>
<event>
 6    1  0.9094387E-004  0.4810998E+03  0.7818608E-02  0.1018899E+00
         21   -1    0    0  501  502  0.00000000000E+00  0.00000000000E+00  0.35254495356E+03  0.35254495356E+03  0.00000000000E+00 0.  1.
         21   -1    0    0  502  503 -0.00000000000E+00 -0.00000000000E+00 -0.68569295914E+03  0.68569295914E+03  0.00000000000E+00 0.  1.
    9000007    2    1    2  501    0 -0.12106651724E+03 -0.23638682772E+03 -0.57305480232E+02  0.48450067113E+03  0.40114978293E+03 0.  0.
    9000005    1    3    3    0    0  0.14701115646E+03 -0.55063966700E+02 -0.28782900856E+02  0.15960506235E+03  0.99999687468E+00 0.  0.
          4    1    3    3  501    0 -0.26807767371E+03 -0.18132286102E+03 -0.28522579375E+02  0.32489560878E+03  0.00000000000E+00 0.  1.
   -9000007    1    1    2    0  503  0.12106651724E+03  0.23638682772E+03 -0.27584252535E+03  0.55373724158E+03  0.40000000000E+03 0.  1.
<mgrwt>
<rscale>  2 0.48086001E+03</rscale>
<asrwt>0</asrwt>
<pdfrwt beam="1">  1       21 0.54237686E-01 0.48109976E+03</pdfrwt>
<pdfrwt beam="2">  1       21 0.10549122E+00 0.48109976E+03</pdfrwt>
<totfact> 0.19779778E+03</totfact>
</mgrwt>
</event>
<event>
 6    1  0.9094387E-004  0.6806002E+03  0.7818608E-02  0.9751433E-01
         21   -1    0    0  501  502  0.00000000000E+00  0.00000000000E+00  0.92728575746E+03  0.92728575746E+03  0.00000000000E+00 0.  1.
         21   -1    0    0  502  503 -0.00000000000E+00 -0.00000000000E+00 -0.15800398998E+04  0.15800398998E+04  0.00000000000E+00 0. -1.
    9000007    2    1    2  501    0 -0.90322321934E+02 -0.54319286609E+03  0.71075919135E+03  0.98338824951E+03  0.39831797546E+03 0.  0.
    9000005    1    3    3    0    0 -0.19670620975E+03 -0.47831117914E+03  0.41720414573E+03  0.66448116320E+03  0.99999687468E+00 0.  0.
          4    1    3    3  501    0  0.10638388781E+03 -0.64881686951E+02  0.29355504562E+03  0.31890708631E+03  0.00000000000E+00 0.  1.
   -9000007    1    1    2    0  503  0.90322321934E+02  0.54319286609E+03 -0.13635133337E+04  0.15239374078E+04  0.40000000000E+03 0. -1.
<mgrwt>
<rscale>  2 0.68035325E+03</rscale>
<asrwt>0</asrwt>
<pdfrwt beam="1">  1       21 0.14265935E+00 0.68060018E+03</pdfrwt>
<pdfrwt beam="2">  1       21 0.24308306E+00 0.68060018E+03</pdfrwt>
<totfact> 0.16535469E+01</totfact>
</mgrwt>
</event>
<event>
 6    1  0.9094387E-004  0.4725812E+03  0.7818608E-02  0.1021220E+00
         21   -1    0    0  501  502  0.00000000000E+00  0.00000000000E+00  0.39421551305E+03  0.39421551305E+03  0.00000000000E+00 0.  1.
         21   -1    0    0  502  503 -0.00000000000E+00 -0.00000000000E+00 -0.31940959770E+04  0.31940959770E+04  0.00000000000E+00 0.  1.
    9000007    2    1    2  501    0 -0.24990917663E+03  0.23159611991E+02  0.22738309317E+03  0.52443884118E+03  0.40042735033E+03 0.  0.
    9000005    1    3    3    0    0  0.10403032287E+03 -0.42545049780E+02  0.60591221680E+02  0.12768980177E+03  0.99999687468E+00 0.  0.
          4    1    3    3  501    0 -0.35393949950E+03  0.65704661771E+02  0.16679187149E+03  0.39674903942E+03  0.00000000000E+00 0.  1.
   -9000007    1    1    2    0  503  0.24990917663E+03 -0.23159611991E+02 -0.30272635571E+04  0.30638726488E+04  0.40000000000E+03 0.  1.
<mgrwt>
<rscale>  2 0.47249070E+03</rscale>
<asrwt>0</asrwt>
<pdfrwt beam="1">  1       21 0.60648542E-01 0.47258124E+03</pdfrwt>
<pdfrwt beam="2">  1       21 0.49139937E+00 0.47258124E+03</pdfrwt>
<totfact> 0.38082817E+00</totfact>
</mgrwt>
</event>
<event>
 6    1  0.9094387E-004  0.5380715E+03  0.7818608E-02  0.1004321E+00
         21   -1    0    0  501  502  0.00000000000E+00  0.00000000000E+00  0.40458026536E+03  0.40458026536E+03  0.00000000000E+00 0.  1.
         21   -1    0    0  502  503 -0.00000000000E+00 -0.00000000000E+00 -0.89953682199E+03  0.89953682199E+03  0.00000000000E+00 0. -1.
    9000007    2    1    2  501    0  0.27785951991E+03 -0.22872485018E+03  0.47949471338E+02  0.53974288246E+03  0.39937733720E+03 0.  0.
    9000005    1    3    3    0    0  0.67079335193E+02 -0.25321765627E+03 -0.10071669998E+03  0.28064866347E+03  0.99999687468E+00 0.  0.
          4    1    3    3  501    0  0.21078018472E+03  0.24492806091E+02  0.14866617132E+03  0.25909421899E+03  0.00000000000E+00 0.  1.
   -9000007    1    1    2    0  503 -0.27785951991E+03  0.22872485018E+03 -0.54290602797E+03  0.76437420489E+03  0.40000000000E+03 0. -1.
<mgrwt>
<rscale>  2 0.53795581E+03</rscale>
<asrwt>0</asrwt>
<pdfrwt beam="1">  1       21 0.62243119E-01 0.53807153E+03</pdfrwt>
<pdfrwt beam="2">  1       21 0.13839028E+00 0.53807153E+03</pdfrwt>
<totfact> 0.71707598E+02</totfact>
</mgrwt>
</event>
<event>
 6    1  0.9094387E-004  0.5644647E+03  0.7818608E-02  0.9982752E-01
         21   -1    0    0  501  502  0.00000000000E+00  0.00000000000E+00  0.14998346305E+04  0.14998346305E+04  0.00000000000E+00 0.  1.
         21   -1    0    0  502  503 -0.00000000000E+00 -0.00000000000E+00 -0.71717663919E+03  0.71717663919E+03  0.00000000000E+00 0.  1.
    9000007    2    1    2  501    0 -0.15316376173E+03 -0.36764280629E+03  0.13216023908E+04  0.14365745736E+04  0.39811211383E+03 0.  0.
    9000005    1    3    3    0    0 -0.17934182001E+02  0.66115263369E+02  0.46130666401E+02  0.82594801960E+02  0.99999687468E+00 0.  0.
          4    1    3    3  501    0 -0.13522957973E+03 -0.43375806966E+03  0.12754717244E+04  0.13539797716E+04  0.00000000000E+00 0.  1.
   -9000007    1    1    2    0  503  0.15316376173E+03  0.36764280629E+03 -0.53894439948E+03  0.78043669612E+03  0.40000000000E+03 0.  1.
<mgrwt>
<rscale>  2 0.56413032E+03</rscale>
<asrwt>0</asrwt>
<pdfrwt beam="1">  1       21 0.23074379E+00 0.56446468E+03</pdfrwt>
<pdfrwt beam="2">  1       21 0.11033487E+00 0.56446468E+03</pdfrwt>
<totfact> 0.40741309E+01</totfact>
</mgrwt>
</event>
<event>
 6    1  0.9094387E-004  0.5054994E+03  0.7818608E-02  0.1012404E+00
         21   -1    0    0  501  502  0.00000000000E+00  0.00000000000E+00  0.10015906461E+03  0.10015906461E+03  0.00000000000E+00 0.  1.
         21   -1    0    0  502  503 -0.00000000000E+00 -0.00000000000E+00 -0.25820531902E+04  0.25820531902E+04  0.00000000000E+00 0. -1.
    9000007    2    1    2  501    0 -0.30689860910E+03 -0.36644828259E+02 -0.10842573214E+04  0.11959692612E+04  0.39899741224E+03 0.  0.
    9000005    1    3    3    0    0  0.62869133244E+02  0.93508619056E+02 -0.24636559065E+03  0.27091215182E+03  0.99999687468E+00 0.  0.
          4    1    3    3  501    0 -0.36976774234E+03 -0.13015344732E+03 -0.83789173079E+03  0.92505710940E+03  0.00000000000E+00 0.  1.
   -9000007    1    1    2    0  503  0.30689860910E+03  0.36644828259E+02 -0.13976368041E+04  0.14862429936E+04  0.40000000000E+03 0. -1.
<mgrwt>
<rscale>  2 0.50530100E+03</rscale>
<asrwt>0</asrwt>
<pdfrwt beam="1">  1       21 0.15409089E-01 0.50549936E+03</pdfrwt>
<pdfrwt beam="2">  1       21 0.39723890E+00 0.50549936E+03</pdfrwt>
<totfact> 0.25083121E+02</totfact>
</mgrwt>
</event>
<event>
 6    1  0.9094387E-004  0.4028365E+03  0.7818608E-02  0.1042809E+00
         21   -1    0    0  501  502  0.00000000000E+00  0.00000000000E+00  0.16555376177E+04  0.16555376177E+04  0.00000000000E+00 0. -1.
         21   -1    0    0  502  503 -0.00000000000E+00 -0.00000000000E+00 -0.10594957876E+03  0.10594957876E+03  0.00000000000E+00 0. -1.
    9000007    2    1    2  501    0  0.44041326521E+02  0.18373673896E+02  0.10159749596E+04  0.10928915423E+04  0.39991195826E+03 0.  0.
    9000005    1    3    3    0    0  0.19249262521E+03  0.85200098051E+02  0.76740937003E+03  0.79575788320E+03  0.99999687468E+00 0.  0.
          4    1    3    3  501    0 -0.14845129869E+03 -0.66826424155E+02  0.24856558954E+03  0.29713365907E+03  0.00000000000E+00 0.  1.
   -9000007    1    1    2    0  503 -0.44041326521E+02 -0.18373673896E+02  0.53361307937E+03  0.66859565419E+03  0.40000000000E+03 0. -1.
<mgrwt>
<rscale>  2 0.40281462E+03</rscale>
<asrwt>0</asrwt>
<pdfrwt beam="1">  1       21 0.25469808E+00 0.40283648E+03</pdfrwt>
<pdfrwt beam="2">  1       21 0.16299936E-01 0.40283648E+03</pdfrwt>
<totfact> 0.17844347E+03</totfact>
</mgrwt>
</event>
<event>
 6    1  0.9094387E-004  0.5088706E+03  0.7818608E-02  0.1011522E+00
         21   -1    0    0  501  502  0.00000000000E+00  0.00000000000E+00  0.14799807933E+03  0.14799807933E+03  0.00000000000E+00 0.  1.
         21   -1    0    0  502  503 -0.00000000000E+00 -0.00000000000E+00 -0.17692524704E+04  0.17692524704E+04  0.00000000000E+00 0. -1.
    9000007    2    1    2  501    0 -0.20102051708E+03  0.24195040451E+03 -0.70492300483E+03  0.86910339597E+03  0.39934324035E+03 0.  0.
    9000005    1    3    3    0    0 -0.13198056509E+03  0.26614924526E+03 -0.73286686151E+03  0.79079019152E+03  0.99999687468E+00 0.  0.
          4    1    3    3  501    0 -0.69039951992E+02 -0.24198840752E+02  0.27943856677E+02  0.78313204448E+02  0.00000000000E+00 0.  1.
   -9000007    1    1    2    0  503  0.20102051708E+03 -0.24195040451E+03 -0.91633138626E+03  0.10481471538E+04  0.40000000000E+03 0. -1.
<mgrwt>
<rscale>  2 0.50874149E+03</rscale>
<asrwt>0</asrwt>
<pdfrwt beam="1">  1       21 0.22768936E-01 0.50887056E+03</pdfrwt>
<pdfrwt beam="2">  1       21 0.27219269E+00 0.50887056E+03</pdfrwt>
<totfact> 0.70274798E+02</totfact>
</mgrwt>
</event>
<event>
 6    1  0.9094387E-004  0.4877351E+03  0.7818608E-02  0.1017162E+00
         21   -1    0    0  501  502  0.00000000000E+00  0.00000000000E+00  0.53859611756E+03  0.53859611756E+03  0.00000000000E+00 0.  1.
         21   -1    0    0  502  503 -0.00000000000E+00 -0.00000000000E+00 -0.66223203343E+03  0.66223203343E+03  0.00000000000E+00 0. -1.
    9000007    2    1    2  501    0 -0.84867795369E+02  0.26586274710E+03  0.28613911856E+03  0.56380293812E+03  0.39763376979E+03 0.  0.
    9000005    1    3    3    0    0  0.13668225093E+03  0.59848322362E+02  0.19946120797E+03  0.24909763725E+03  0.99999687468E+00 0.  0.
          4    1    3    3  501    0 -0.22155004629E+03  0.20601442473E+03  0.86677910597E+02  0.31470530087E+03  0.00000000000E+00 0.  1.
   -9000007    1    1    2    0  503  0.84867795369E+02 -0.26586274710E+03 -0.40977503444E+03  0.63702521287E+03  0.40000000000E+03 0. -1.
<mgrwt>
<rscale>  2 0.48724972E+03</rscale>
<asrwt>0</asrwt>
<pdfrwt beam="1">  1       21 0.82860942E-01 0.48773512E+03</pdfrwt>
<pdfrwt beam="2">  1       21 0.10188185E+00 0.48773512E+03</pdfrwt>
<totfact> 0.83180980E+02</totfact>
</mgrwt>
</event>
<event>
 6    1  0.9094387E-004  0.4438129E+03  0.7818608E-02  0.1029609E+00
         21   -1    0    0  501  502  0.00000000000E+00  0.00000000000E+00  0.13372729862E+04  0.13372729862E+04  0.00000000000E+00 0.  1.
         21   -1    0    0  502  503 -0.00000000000E+00 -0.00000000000E+00 -0.16639718117E+03  0.16639718117E+03  0.00000000000E+00 0.  1.
    9000007    2    1    2  501    0 -0.40483100401E+02  0.18796542111E+03  0.84073530189E+03  0.95053127634E+03  0.39962980183E+03 0.  0.
    9000005    1    3    3    0    0 -0.11722756796E+03 -0.26227684705E+02  0.62684915633E+03  0.63825626431E+03  0.99999687468E+00 0.  0.
          4    1    3    3  501    0  0.76744467560E+02  0.21419310582E+03  0.21388614555E+03  0.31227501203E+03  0.00000000000E+00 0.  1.
   -9000007    1    1    2    0  503  0.40483100401E+02 -0.18796542111E+03  0.33014050314E+03  0.55313889103E+03  0.40000000000E+03 0. -1.
<mgrwt>
<rscale>  2 0.44372946E+03</rscale>
<asrwt>0</asrwt>
<pdfrwt beam="1">  1       21 0.20573430E+00 0.44381289E+03</pdfrwt>
<pdfrwt beam="2">  1       21 0.25599567E-01 0.44381289E+03</pdfrwt>
<totfact> 0.15043402E+03</totfact>
</mgrwt>
</event>
<event>
 6    1  0.9094387E-004  0.6033023E+03  0.7818608E-02  0.9898714E-01
         21   -1    0    0  501  502  0.00000000000E+00  0.00000000000E+00  0.62603202816E+03  0.62603202816E+03  0.00000000000E+00 0. -1.
         21   -1    0    0  502  503 -0.00000000000E+00 -0.00000000000E+00 -0.67065567155E+03  0.67065567155E+03  0.00000000000E+00 0.  1.
    9000007    2    1    2  501    0  0.54635527078E+02 -0.44796445638E+03  0.21454463781E+03  0.64031479276E+03  0.40039535114E+03 0.  0.
    9000005    1    3    3    0    0 -0.16839577161E+03 -0.13295959228E+03  0.47533653735E+02  0.21976313910E+03  0.99999687468E+00 0.  0.
          4    1    3    3  501    0  0.22303129868E+03 -0.31500486410E+03  0.16701098407E+03  0.42055165366E+03  0.00000000000E+00 0.  1.
   -9000007    1    1    2    0  503 -0.54635527078E+02  0.44796445638E+03 -0.25916828119E+03  0.65637290695E+03  0.40000000000E+03 0.  1.
<mgrwt>
<rscale>  2 0.60323668E+03</rscale>
<asrwt>0</asrwt>
<pdfrwt beam="1">  1       21 0.96312620E-01 0.60330227E+03</pdfrwt>
<pdfrwt beam="2">  1       21 0.10317780E+00 0.60330227E+03</pdfrwt>
<totfact> 0.54135728E+02</totfact>
</mgrwt>
</event>
<event>
 6    1  0.9094387E-004  0.5226726E+03  0.7818608E-02  0.1008136E+00
         21   -1    0    0  501  502  0.00000000000E+00  0.00000000000E+00  0.61120185208E+03  0.61120185208E+03  0.00000000000E+00 0.  1.
         21   -1    0    0  502  503 -0.00000000000E+00 -0.00000000000E+00 -0.58127769555E+03  0.58127769555E+03  0.00000000000E+00 0. -1.
    9000007    2    1    2  501    0 -0.30899473427E+03  0.13307490369E+03 -0.27329981369E+03  0.58821846837E+03  0.39764494535E+03 0.  0.
    9000005    1    3    3    0    0  0.19836131475E+02 -0.10898802047E+03 -0.38968459598E+02  0.11743679813E+03  0.99999687468E+00 0.  0.
          4    1    3    3  501    0 -0.32883086575E+03  0.24206292416E+03 -0.23433135409E+03  0.47078167024E+03  0.00000000000E+00 0.  1.
   -9000007    1    1    2    0  503  0.30899473427E+03 -0.13307490369E+03  0.30322397022E+03  0.60426107927E+03  0.40000000000E+03 0.  1.
<mgrwt>
<rscale>  2 0.52222202E+03</rscale>
<asrwt>0</asrwt>
<pdfrwt beam="1">  1       21 0.94031054E-01 0.52267263E+03</pdfrwt>
<pdfrwt beam="2">  1       21 0.89427338E-01 0.52267263E+03</pdfrwt>
<totfact> 0.83340980E+02</totfact>
</mgrwt>
</event>
<event>
 6    1  0.9094387E-004  0.5790690E+03  0.7818608E-02  0.9949882E-01
         21   -1    0    0  501  502  0.00000000000E+00  0.00000000000E+00  0.81649656725E+03  0.81649656725E+03  0.00000000000E+00 0.  1.
         21   -1    0    0  502  503 -0.00000000000E+00 -0.00000000000E+00 -0.58233639878E+03  0.58233639878E+03  0.00000000000E+00 0.  1.
    9000007    2    1    2  501    0 -0.17618307617E+03 -0.37984263133E+03  0.49690710058E+03  0.76294236912E+03  0.39980431598E+03 0.  0.
    9000005    1    3    3    0    0  0.13035004795E+03 -0.11500592232E+03  0.14771247073E+03  0.22811723120E+03  0.99999687468E+00 0.  0.
          4    1    3    3  501    0 -0.30653312412E+03 -0.26483670901E+03  0.34919462986E+03  0.53482513792E+03  0.00000000000E+00 0.  1.
   -9000007    1    1    2    0  503  0.17618307617E+03  0.37984263133E+03 -0.26274693211E+03  0.63589059691E+03  0.40000000000E+03 0.  1.
<mgrwt>
<rscale>  2 0.57903520E+03</rscale>
<asrwt>0</asrwt>
<pdfrwt beam="1">  1       21 0.12561486E+00 0.57906899E+03</pdfrwt>
<pdfrwt beam="2">  1       21 0.89590216E-01 0.57906899E+03</pdfrwt>
<totfact> 0.39516766E+02</totfact>
</mgrwt>
</event>
<event>
 6    1  0.9094387E-004  0.5070496E+03  0.7818608E-02  0.1011967E+00
         21   -1    0    0  501  502  0.00000000000E+00  0.00000000000E+00  0.84653593327E+03  0.84653593327E+03  0.00000000000E+00 0.  1.
         21   -1    0    0  502  503 -0.00000000000E+00 -0.00000000000E+00 -0.39547909583E+03  0.39547909583E+03  0.00000000000E+00 0. -1.
    9000007    2    1    2  501    0 -0.44866706650E+02  0.30836057071E+03  0.52482467367E+03  0.72962752282E+03  0.39977008521E+03 0.  0.
    9000005    1    3    3    0    0  0.67935033194E+02  0.28625086256E+02  0.39402833890E+03  0.40086643181E+03  0.99999687468E+00 0.  0.
          4    1    3    3  501    0 -0.11280173984E+03  0.27973548445E+03  0.13079633477E+03  0.32876109101E+03  0.00000000000E+00 0.  1.
   -9000007    1    1    2    0  503  0.44866706650E+02 -0.30836057071E+03 -0.73767836227E+02  0.51238750628E+03  0.40000000000E+03 0. -1.
<mgrwt>
<rscale>  2 0.50700422E+03</rscale>
<asrwt>0</asrwt>
<pdfrwt beam="1">  1       21 0.13023630E+00 0.50704957E+03</pdfrwt>
<pdfrwt beam="2">  1       21 0.60842938E-01 0.50704957E+03</pdfrwt>
<totfact> 0.89471902E+02</totfact>
</mgrwt>
</event>
<event>
 6    1  0.9094387E-004  0.4958325E+03  0.7818608E-02  0.1014977E+00
         21   -1    0    0  501  502  0.00000000000E+00  0.00000000000E+00  0.17754679656E+04  0.17754679656E+04  0.00000000000E+00 0.  1.
         21   -1    0    0  502  503 -0.00000000000E+00 -0.00000000000E+00 -0.15250343235E+03  0.15250343235E+03  0.00000000000E+00 0. -1.
    9000007    2    1    2  501    0  0.20590643790E+03 -0.20845251843E+03  0.11072964637E+04  0.12125949435E+04  0.39803407499E+03 0.  0.
    9000005    1    3    3    0    0 -0.88255151789E+02  0.48997066677E+02  0.18219870208E+03  0.20829558659E+03  0.99999687468E+00 0.  0.
          4    1    3    3  501    0  0.29416158969E+03 -0.25744958510E+03  0.92509776167E+03  0.10042993569E+04  0.00000000000E+00 0.  1.
   -9000007    1    1    2    0  503 -0.20590643790E+03  0.20845251843E+03  0.51566806947E+03  0.71537645438E+03  0.40000000000E+03 0. -1.
<mgrwt>
<rscale>  2 0.49543592E+03</rscale>
<asrwt>0</asrwt>
<pdfrwt beam="1">  1       21 0.27314890E+00 0.49583255E+03</pdfrwt>
<pdfrwt beam="2">  1       21 0.23462068E-01 0.49583255E+03</pdfrwt>
<totfact> 0.65828242E+02</totfact>
</mgrwt>
</event>
<event>
 6    1  0.9094387E-004  0.4751411E+03  0.7818608E-02  0.1020493E+00
         21   -1    0    0  501  502  0.00000000000E+00  0.00000000000E+00  0.22511936922E+04  0.22511936922E+04  0.00000000000E+00 0.  1.
         21   -1    0    0  502  503 -0.00000000000E+00 -0.00000000000E+00 -0.14336070894E+03  0.14336070894E+03  0.00000000000E+00 0.  1.
    9000007    2    1    2  501    0 -0.81259754787E+02 -0.24321990365E+03  0.17103781758E+04  0.17750954491E+04  0.39976403031E+03 0.  0.
    9000005    1    3    3    0    0 -0.29824914261E+02  0.65721906359E+02  0.56063318814E+02  0.91394694574E+02  0.99999687468E+00 0.  0.
          4    1    3    3  501    0 -0.51434840526E+02 -0.30894181001E+03  0.16543148570E+04  0.16837007545E+04  0.00000000000E+00 0.  1.
   -9000007    1    1    2    0  503  0.81259754787E+02  0.24321990365E+03  0.39745480747E+03  0.61945895204E+03  0.40000000000E+03 0.  1.
<mgrwt>
<rscale>  2 0.47509144E+03</rscale>
<asrwt>0</asrwt>
<pdfrwt beam="1">  1       21 0.34633747E+00 0.47514110E+03</pdfrwt>
<pdfrwt beam="2">  1       21 0.22055495E-01 0.47514110E+03</pdfrwt>
<totfact> 0.27011545E+02</totfact>
</mgrwt>
</event>
<event>
 6    1  0.9094387E-004  0.4208630E+03  0.7818608E-02  0.1036807E+00
         21   -1    0    0  501  502  0.00000000000E+00  0.00000000000E+00  0.68187635973E+03  0.68187635973E+03  0.00000000000E+00 0. -1.
         21   -1    0    0  502  503 -0.00000000000E+00 -0.00000000000E+00 -0.26547139610E+03  0.26547139610E+03  0.00000000000E+00 0.  1.
    9000007    2    1    2  501    0  0.10254814322E+03  0.81299293811E+02  0.27858323289E+03  0.50449278373E+03  0.39972322216E+03 0.  0.
    9000005    1    3    3    0    0  0.19279383226E+03  0.55208659907E+02 -0.10209427174E+02  0.20080510522E+03  0.99999687468E+00 0.  0.
          4    1    3    3  501    0 -0.90245689039E+02  0.26090633903E+02  0.28879266006E+03  0.30368767850E+03  0.00000000000E+00 0.  1.
   -9000007    1    1    2    0  503 -0.10254814322E+03 -0.81299293811E+02  0.13782173075E+03  0.44285497211E+03  0.40000000000E+03 0. -1.
<mgrwt>
<rscale>  2 0.42079726E+03</rscale>
<asrwt>0</asrwt>
<pdfrwt beam="1">  1       21 0.10490405E+00 0.42086304E+03</pdfrwt>
<pdfrwt beam="2">  1       21 0.40841753E-01 0.42086304E+03</pdfrwt>
<totfact> 0.37285204E+03</totfact>
</mgrwt>
</event>
<event>
 6    1  0.9094387E-004  0.4244770E+03  0.7818608E-02  0.1035623E+00
         21   -1    0    0  501  502  0.00000000000E+00  0.00000000000E+00  0.50857325770E+03  0.50857325770E+03  0.00000000000E+00 0.  1.
         21   -1    0    0  502  503 -0.00000000000E+00 -0.00000000000E+00 -0.37633667933E+03  0.37633667933E+03  0.00000000000E+00 0.  1.
    9000007    2    1    2  501    0  0.10337330648E+03  0.97219386831E+02  0.17332368490E+03  0.45849957131E+03  0.40005388071E+03 0.  0.
    9000005    1    3    3    0    0 -0.12972741950E+03 -0.23934634553E+02  0.14218028127E+03  0.19395438246E+03  0.99999687468E+00 0.  0.
          4    1    3    3  501    0  0.23310072598E+03  0.12115402138E+03  0.31143403634E+02  0.26454518884E+03  0.00000000000E+00 0.  1.
   -9000007    1    1    2    0  503 -0.10337330648E+03 -0.97219386831E+02 -0.41087106531E+02  0.42641036572E+03  0.40000000000E+03 0.  1.
<mgrwt>
<rscale>  2 0.42446434E+03</rscale>
<asrwt>0</asrwt>
<pdfrwt beam="1">  1       21 0.78242040E-01 0.42447704E+03</pdfrwt>
<pdfrwt beam="2">  1       21 0.57897951E-01 0.42447704E+03</pdfrwt>
<totfact> 0.35656487E+03</totfact>
</mgrwt>
</event>
<event>
 6    1  0.9094387E-004  0.4159582E+03  0.7818608E-02  0.1038406E+00
         21   -1    0    0  501  502  0.00000000000E+00  0.00000000000E+00  0.97064937790E+03  0.97064937790E+03  0.00000000000E+00 0.  1.
         21   -1    0    0  502  503 -0.00000000000E+00 -0.00000000000E+00 -0.58260984949E+03  0.58260984949E+03  0.00000000000E+00 0.  1.
    9000007    2    1    2  501    0  0.10160946611E+03  0.51930379510E+02  0.84107881530E+03  0.93822602228E+03  0.39979150493E+03 0.  0.
    9000005    1    3    3    0    0 -0.13581544901E+03 -0.33298549551E+02  0.46347573233E+03  0.48411298686E+03  0.99999687468E+00 0.  0.
          4    1    3    3  501    0  0.23742491512E+03  0.85228929061E+02  0.37760308297E+03  0.45411303542E+03  0.00000000000E+00 0.  1.
   -9000007    1    1    2    0  503 -0.10160946611E+03 -0.51930379510E+02 -0.45303928689E+03  0.61503320511E+03  0.40000000000E+03 0.  1.
<mgrwt>
<rscale>  2 0.41590810E+03</rscale>
<asrwt>0</asrwt>
<pdfrwt beam="1">  1       21 0.14933067E+00 0.41595823E+03</pdfrwt>
<pdfrwt beam="2">  1       21 0.89632285E-01 0.41595823E+03</pdfrwt>
<totfact> 0.26819236E+02</totfact>
</mgrwt>
</event>
<event>
 6    1  0.9094387E-004  0.7473333E+03  0.7818608E-02  0.9639924E-01
         21   -1    0    0  501  502  0.00000000000E+00  0.00000000000E+00  0.29525235846E+03  0.29525235846E+03  0.00000000000E+00 0.  1.
         21   -1    0    0  502  503 -0.00000000000E+00 -0.00000000000E+00 -0.24441709631E+04  0.24441709631E+04  0.00000000000E+00 0.  1.
    9000007    2    1    2  501    0  0.52550832354E+03 -0.34978296349E+03 -0.42123386788E+03  0.85703078299E+03  0.39819175266E+03 0.  0.
    9000005    1    3    3    0    0  0.20751688863E+03  0.70645528654E+02 -0.12579081069E+03  0.25274172159E+03  0.99999687468E+00 0.  0.
          4    1    3    3  501    0  0.31799143491E+03 -0.42042849214E+03 -0.29544305719E+03  0.60428906140E+03  0.00000000000E+00 0.  1.
   -9000007    1    1    2    0  503 -0.52550832354E+03  0.34978296349E+03 -0.17276847368E+04  0.18823925386E+04  0.40000000000E+03 0.  1.
<mgrwt>
<rscale>  2 0.74709165E+03</rscale>
<asrwt>0</asrwt>
<pdfrwt beam="1">  1       21 0.45423439E-01 0.74733334E+03</pdfrwt>
<pdfrwt beam="2">  1       21 0.37602630E+00 0.74733334E+03</pdfrwt>
<totfact> 0.35926640E+01</totfact>
</mgrwt>
</event>
