<event>
 4    1  0.3757815E-001  0.2456204E+03  0.7546771E-02  0.1116104E+00
         -2   -1    0    0    0  501 -0.00000000000E+00  0.00000000000E+00  0.69889450126E+02  0.69889450126E+02  0.00000000000E+00 0.  1.
          2   -1    0    0  502    0  0.00000000000E+00 -0.00000000000E+00 -0.11336508449E+04  0.11336508449E+04  0.00000000000E+00 0. -1.
          6    1    1    2  502    0  0.13816415015E+03  0.10796318426E+03 -0.82579848355E+03  0.86155238783E+03  0.17200000000E+03 0. -1.
         -6    1    1    2    0  501 -0.13816415015E+03 -0.10796318426E+03 -0.23796291118E+03  0.34198790715E+03  0.17200000000E+03 0.  1.
<mgrwt>
<rscale>  2 0.24562040E+03</rscale>
<asrwt>0</asrwt>
<pdfrwt beam="1">  1        2 0.28341271E+00 0.24562040E+03</pdfrwt>
<pdfrwt beam="2">  1       -2 0.17472363E-01 0.24562040E+03</pdfrwt>
<totfact> 0.24099055E+02</totfact>
</mgrwt>
</event>
<event>
 4    1  0.3757815E-001  0.1740960E+03  0.7546771E-02  0.1173643E+00
         -2   -1    0    0    0  501 -0.00000000000E+00  0.00000000000E+00  0.39157277524E+02  0.39157277524E+02  0.00000000000E+00 0. -1.
          2   -1    0    0  502    0  0.00000000000E+00 -0.00000000000E+00 -0.85546837546E+03  0.85546837546E+03  0.00000000000E+00 0.  1.
          6    1    1    2  502    0 -0.60760801393E+01 -0.26238943832E+02 -0.27015197869E+03  0.32138993841E+03  0.17200000000E+03 0. -1.
         -6    1    1    2    0  501  0.60760801393E+01  0.26238943832E+02 -0.54615911925E+03  0.57323571457E+03  0.17200000000E+03 0.  1.
<mgrwt>
<rscale>  2 0.17409595E+03</rscale>
<asrwt>0</asrwt>
<pdfrwt beam="1">  1        2 0.21386710E+00 0.17409595E+03</pdfrwt>
<pdfrwt beam="2">  1       -2 0.97893189E-02 0.17409595E+03</pdfrwt>
<totfact> 0.10835532E+03</totfact>
</mgrwt>
</event>
<event>
 4    1  0.3757815E-001  0.3068710E+03  0.7546771E-02  0.1081855E+00
          1   -1    0    0  502    0  0.00000000000E+00  0.00000000000E+00  0.34473325775E+03  0.34473325775E+03  0.00000000000E+00 0. -1.
         -1   -1    0    0    0  501 -0.00000000000E+00 -0.00000000000E+00 -0.40468211879E+03  0.40468211879E+03  0.00000000000E+00 0.  1.
          6    1    1    2  502    0  0.16542910079E+03 -0.19292227610E+03 -0.24358524465E+03  0.39179530805E+03  0.17200000000E+03 0.  1.
         -6    1    1    2    0  501 -0.16542910079E+03  0.19292227610E+03  0.18363638360E+03  0.35762006849E+03  0.17200000000E+03 0. -1.
<mgrwt>
<rscale>  2 0.30687097E+03</rscale>
<asrwt>0</asrwt>
<pdfrwt beam="1">  1        1 0.86183315E-01 0.30687097E+03</pdfrwt>
<pdfrwt beam="2">  1       -1 0.10117053E+00 0.30687097E+03</pdfrwt>
<totfact> 0.38235356E+01</totfact>
</mgrwt>
</event>
<event>
 4    1  0.3757815E-001  0.2282109E+03  0.7546771E-02  0.1127905E+00
          2   -1    0    0  502    0  0.00000000000E+00  0.00000000000E+00  0.74572673085E+02  0.74572673085E+02  0.00000000000E+00 0.  1.
         -2   -1    0    0    0  501 -0.00000000000E+00 -0.00000000000E+00 -0.70906231512E+03  0.70906231512E+03  0.00000000000E+00 0. -1.
          6    1    1    2  502    0  0.79921397001E+02 -0.12692030804E+03 -0.26915660801E+03  0.35288167128E+03  0.17200000000E+03 0. -1.
         -6    1    1    2    0  501 -0.79921397001E+02  0.12692030804E+03 -0.36533303403E+03  0.43075331693E+03  0.17200000000E+03 0.  1.
<mgrwt>
<rscale>  2 0.22821085E+03</rscale>
<asrwt>0</asrwt>
<pdfrwt beam="1">  1        2 0.18643169E-01 0.22821085E+03</pdfrwt>
<pdfrwt beam="2">  1       -2 0.17726558E+00 0.22821085E+03</pdfrwt>
<totfact> 0.61704430E+01</totfact>
</mgrwt>
</event>
<event>
 4    1  0.3757815E-001  0.2043729E+03  0.7546771E-02  0.1146101E+00
         -1   -1    0    0    0  501 -0.00000000000E+00  0.00000000000E+00  0.15081746050E+03  0.15081746050E+03  0.00000000000E+00 0. -1.
          1   -1    0    0  502    0  0.00000000000E+00 -0.00000000000E+00 -0.27935384209E+03  0.27935384209E+03  0.00000000000E+00 0.  1.
          6    1    1    2  502    0 -0.18512279623E+02 -0.10881902944E+03 -0.84236999243E+02  0.22105238679E+03  0.17200000000E+03 0.  1.
         -6    1    1    2    0  501  0.18512279623E+02  0.10881902944E+03 -0.44299382346E+02  0.20911891579E+03  0.17200000000E+03 0.  1.
<mgrwt>
<rscale>  2 0.20437291E+03</rscale>
<asrwt>0</asrwt>
<pdfrwt beam="1">  1        1 0.69838460E-01 0.20437291E+03</pdfrwt>
<pdfrwt beam="2">  1       -1 0.37704365E-01 0.20437291E+03</pdfrwt>
<totfact> 0.35661600E+02</totfact>
</mgrwt>
</event>
<event>
 4    1  0.3757815E-001  0.1949713E+03  0.7546771E-02  0.1154052E+00
          2   -1    0    0  502    0  0.00000000000E+00  0.00000000000E+00  0.59986184680E+03  0.59986184680E+03  0.00000000000E+00 0. -1.
         -2   -1    0    0    0  501 -0.00000000000E+00 -0.00000000000E+00 -0.74599618624E+02  0.74599618624E+02  0.00000000000E+00 0.  1.
          6    1    1    2  502    0  0.20721934829E+02 -0.89444988175E+02  0.13179630134E+03  0.23533820247E+03  0.17200000000E+03 0.  1.
         -6    1    1    2    0  501 -0.20721934829E+02  0.89444988175E+02  0.39346592683E+03  0.43912326296E+03  0.17200000000E+03 0. -1.
<mgrwt>
<rscale>  2 0.19497129E+03</rscale>
<asrwt>0</asrwt>
<pdfrwt beam="1">  1        2 0.14996545E+00 0.19497129E+03</pdfrwt>
<pdfrwt beam="2">  1       -2 0.18649906E-01 0.19497129E+03</pdfrwt>
<totfact> 0.65125868E+02</totfact>
</mgrwt>
</event>
<event>
 4    1  0.3757815E-001  0.2093048E+03  0.7546771E-02  0.1142118E+00
          2   -1    0    0  502    0  0.00000000000E+00  0.00000000000E+00  0.55952376447E+03  0.55952376447E+03  0.00000000000E+00 0.  1.
         -2   -1    0    0    0  501 -0.00000000000E+00 -0.00000000000E+00 -0.85533265017E+02  0.85533265017E+02  0.00000000000E+00 0. -1.
          6    1    1    2  502    0  0.57205321313E+02 -0.10465196906E+03  0.33081348355E+03  0.39146653026E+03  0.17200000000E+03 0.  1.
         -6    1    1    2    0  501 -0.57205321313E+02  0.10465196906E+03  0.14317701591E+03  0.25359049923E+03  0.17200000000E+03 0. -1.
<mgrwt>
<rscale>  2 0.20930476E+03</rscale>
<asrwt>0</asrwt>
<pdfrwt beam="1">  1        2 0.13988093E+00 0.20930476E+03</pdfrwt>
<pdfrwt beam="2">  1       -2 0.21383318E-01 0.20930476E+03</pdfrwt>
<totfact> 0.56611890E+02</totfact>
</mgrwt>
</event>
<event>
 4    1  0.3757815E-001  0.2044839E+03  0.7546771E-02  0.1146010E+00
         -1   -1    0    0    0  501 -0.00000000000E+00  0.00000000000E+00  0.13437512039E+03  0.13437512039E+03  0.00000000000E+00 0.  1.
          1   -1    0    0  502    0  0.00000000000E+00 -0.00000000000E+00 -0.68654842370E+03  0.68654842370E+03  0.00000000000E+00 0. -1.
          6    1    1    2  502    0  0.73931807048E+02  0.82242009854E+02 -0.57959533344E+03  0.61460915290E+03  0.17200000000E+03 0. -1.
         -6    1    1    2    0  501 -0.73931807048E+02 -0.82242009854E+02  0.27422030123E+02  0.20631439120E+03  0.17200000000E+03 0.  1.
<mgrwt>
<rscale>  2 0.20448389E+03</rscale>
<asrwt>0</asrwt>
<pdfrwt beam="1">  1        1 0.17163710E+00 0.20448389E+03</pdfrwt>
<pdfrwt beam="2">  1       -1 0.33593781E-01 0.20448389E+03</pdfrwt>
<totfact> 0.11371763E+02</totfact>
</mgrwt>
</event>
<event>
 4    1  0.3757815E-001  0.3002914E+03  0.7546771E-02  0.1085095E+00
          2   -1    0    0  502    0  0.00000000000E+00  0.00000000000E+00  0.19784915795E+04  0.19784915795E+04  0.00000000000E+00 0.  1.
         -2   -1    0    0    0  501 -0.00000000000E+00 -0.00000000000E+00 -0.51295160606E+02  0.51295160606E+02  0.00000000000E+00 0. -1.
          6    1    1    2  502    0 -0.32690627011E+02  0.24397180366E+03  0.13024323929E+04  0.13366020560E+04  0.17200000000E+03 0. -1.
         -6    1    1    2    0  501  0.32690627011E+02 -0.24397180366E+03  0.62476402598E+03  0.69318468408E+03  0.17200000000E+03 0.  1.
<mgrwt>
<rscale>  2 0.30029139E+03</rscale>
<asrwt>0</asrwt>
<pdfrwt beam="1">  1        2 0.49462264E+00 0.30029139E+03</pdfrwt>
<pdfrwt beam="2">  1       -2 0.12823797E-01 0.30029139E+03</pdfrwt>
<totfact> 0.67958735E+01</totfact>
</mgrwt>
</event>
<event>
 4    1  0.3757815E-001  0.2869283E+03  0.7546771E-02  0.1091964E+00
          1   -1    0    0  502    0  0.00000000000E+00  0.00000000000E+00  0.24754707739E+03  0.24754707739E+03  0.00000000000E+00 0.  1.
         -1   -1    0    0    0  501 -0.00000000000E+00 -0.00000000000E+00 -0.33318156923E+03  0.33318156923E+03  0.00000000000E+00 0. -1.
          6    1    1    2  502    0  0.20397881036E+03  0.10552964680E+03 -0.30423606692E+02  0.28853675203E+03  0.17200000000E+03 0. -1.
         -6    1    1    2    0  501 -0.20397881036E+03 -0.10552964680E+03 -0.55210885147E+02  0.29219189459E+03  0.17200000000E+03 0.  1.
<mgrwt>
<rscale>  2 0.28692832E+03</rscale>
<asrwt>0</asrwt>
<pdfrwt beam="1">  1        1 0.61886770E-01 0.28692832E+03</pdfrwt>
<pdfrwt beam="2">  1       -1 0.83295392E-01 0.28692832E+03</pdfrwt>
<totfact> 0.90961294E+01</totfact>
</mgrwt>
</event>
<event>
 4    1  0.3757815E-001  0.2833468E+03  0.7546771E-02  0.1093875E+00
         -1   -1    0    0    0  501 -0.00000000000E+00  0.00000000000E+00  0.13460204416E+03  0.13460204416E+03  0.00000000000E+00 0. -1.
          1   -1    0    0  502    0  0.00000000000E+00 -0.00000000000E+00 -0.67626268162E+03  0.67626268162E+03  0.00000000000E+00 0.  1.
          6    1    1    2  502    0 -0.22515596864E+03 -0.24953506974E+01 -0.41009957539E+03  0.49846474171E+03  0.17200000000E+03 0. -1.
         -6    1    1    2    0  501  0.22515596864E+03  0.24953506974E+01 -0.13156106206E+03  0.31239998406E+03  0.17200000000E+03 0.  1.
<mgrwt>
<rscale>  2 0.28334685E+03</rscale>
<asrwt>0</asrwt>
<pdfrwt beam="1">  1        1 0.16906567E+00 0.28334685E+03</pdfrwt>
<pdfrwt beam="2">  1       -1 0.33650511E-01 0.28334685E+03</pdfrwt>
<totfact> 0.11429749E+02</totfact>
</mgrwt>
</event>
<event>
 4    1  0.3757815E-001  0.2334414E+03  0.7546771E-02  0.1124241E+00
         -2   -1    0    0    0  501 -0.00000000000E+00  0.00000000000E+00  0.85473106296E+02  0.85473106296E+02  0.00000000000E+00 0.  1.
          2   -1    0    0  502    0  0.00000000000E+00 -0.00000000000E+00 -0.82095492661E+03  0.82095492661E+03  0.00000000000E+00 0. -1.
          6    1    1    2  502    0 -0.11378268135E+03  0.10938183756E+03 -0.58194527292E+03  0.62702088134E+03  0.17200000000E+03 0. -1.
         -6    1    1    2    0  501  0.11378268135E+03 -0.10938183756E+03 -0.15353654740E+03  0.27940715157E+03  0.17200000000E+03 0.  1.
<mgrwt>
<rscale>  2 0.23344140E+03</rscale>
<asrwt>0</asrwt>
<pdfrwt beam="1">  1        2 0.20523874E+00 0.23344140E+03</pdfrwt>
<pdfrwt beam="2">  1       -2 0.21368276E-01 0.23344140E+03</pdfrwt>
<totfact> 0.31903852E+02</totfact>
</mgrwt>
</event>
<event>
 4    1  0.3757815E-001  0.1911118E+03  0.7546771E-02  0.1157462E+00
         -2   -1    0    0    0  501 -0.00000000000E+00  0.00000000000E+00  0.37186971493E+02  0.37186971493E+02  0.00000000000E+00 0.  1.
          2   -1    0    0  502    0  0.00000000000E+00 -0.00000000000E+00 -0.12183551045E+04  0.12183551045E+04  0.00000000000E+00 0. -1.
          6    1    1    2  502    0 -0.35635058634E+02 -0.75298600585E+02 -0.86698869418E+03  0.88780241749E+03  0.17200000000E+03 0. -1.
         -6    1    1    2    0  501  0.35635058634E+02  0.75298600585E+02 -0.31417943878E+03  0.36773965846E+03  0.17200000000E+03 0.  1.
<mgrwt>
<rscale>  2 0.19111184E+03</rscale>
<asrwt>0</asrwt>
<pdfrwt beam="1">  1        2 0.30458875E+00 0.19111184E+03</pdfrwt>
<pdfrwt beam="2">  1       -2 0.92967438E-02 0.19111184E+03</pdfrwt>
<totfact> 0.57716357E+02</totfact>
</mgrwt>
</event>
<event>
 4    1  0.3757815E-001  0.2300894E+03  0.7546771E-02  0.1126577E+00
          2   -1    0    0  502    0  0.00000000000E+00  0.00000000000E+00  0.13864030058E+04  0.13864030058E+04  0.00000000000E+00 0.  1.
         -2   -1    0    0    0  501 -0.00000000000E+00 -0.00000000000E+00 -0.43829667625E+02  0.43829667625E+02  0.00000000000E+00 0. -1.
          6    1    1    2  502    0 -0.11861558799E+03  0.96371656933E+02  0.92789703230E+03  0.95599898354E+03  0.17200000000E+03 0. -1.
         -6    1    1    2    0  501  0.11861558799E+03 -0.96371656933E+02  0.41467630591E+03  0.47423368992E+03  0.17200000000E+03 0.  1.
<mgrwt>
<rscale>  2 0.23008945E+03</rscale>
<asrwt>0</asrwt>
<pdfrwt beam="1">  1        2 0.34660061E+00 0.23008945E+03</pdfrwt>
<pdfrwt beam="2">  1       -2 0.10957422E-01 0.23008945E+03</pdfrwt>
<totfact> 0.31657487E+02</totfact>
</mgrwt>
</event>
<event>
 4    1  0.3757815E-001  0.2600824E+03  0.7546771E-02  0.1107094E+00
         -2   -1    0    0    0  501 -0.00000000000E+00  0.00000000000E+00  0.26878446017E+03  0.26878446017E+03  0.00000000000E+00 0. -1.
          2   -1    0    0  502    0  0.00000000000E+00 -0.00000000000E+00 -0.40828108112E+03  0.40828108112E+03  0.00000000000E+00 0.  1.
          6    1    1    2  502    0  0.16693239725E+03  0.10095768820E+03 -0.27942163921E+03  0.38173201663E+03  0.17200000000E+03 0.  1.
         -6    1    1    2    0  501 -0.16693239725E+03 -0.10095768820E+03  0.13992501826E+03  0.29533352467E+03  0.17200000000E+03 0. -1.
<mgrwt>
<rscale>  2 0.26008245E+03</rscale>
<asrwt>0</asrwt>
<pdfrwt beam="1">  1        2 0.10207027E+00 0.26008245E+03</pdfrwt>
<pdfrwt beam="2">  1       -2 0.67196115E-01 0.26008245E+03</pdfrwt>
<totfact> 0.94543792E+01</totfact>
</mgrwt>
</event>
<event>
 4    1  0.3757815E-001  0.3576898E+03  0.7546771E-02  0.1059502E+00
          2   -1    0    0  502    0  0.00000000000E+00  0.00000000000E+00  0.20590449667E+03  0.20590449667E+03  0.00000000000E+00 0. -1.
         -2   -1    0    0    0  501 -0.00000000000E+00 -0.00000000000E+00 -0.68983696397E+03  0.68983696397E+03  0.00000000000E+00 0.  1.
          6    1    1    2  502    0 -0.15916034835E+03  0.27023315989E+03 -0.10086401386E+03  0.37163897331E+03  0.17200000000E+03 0. -1.
         -6    1    1    2    0  501  0.15916034835E+03 -0.27023315989E+03 -0.38306845344E+03  0.52410248732E+03  0.17200000000E+03 0.  1.
<mgrwt>
<rscale>  2 0.35768978E+03</rscale>
<asrwt>0</asrwt>
<pdfrwt beam="1">  1        2 0.51476125E-01 0.35768978E+03</pdfrwt>
<pdfrwt beam="2">  1       -2 0.17245924E+00 0.35768978E+03</pdfrwt>
<totfact> 0.21112530E+01</totfact>
</mgrwt>
</event>
<event>
 4    1  0.3757815E-001  0.2206307E+03  0.7546771E-02  0.1133414E+00
          1   -1    0    0  502    0  0.00000000000E+00  0.00000000000E+00  0.28269009729E+04  0.28269009729E+04  0.00000000000E+00 0.  1.
         -1   -1    0    0    0  501 -0.00000000000E+00 -0.00000000000E+00 -0.35227839813E+02  0.35227839813E+02  0.00000000000E+00 0. -1.
          6    1    1    2  502    0 -0.13726784066E+03  0.15856649488E+02  0.37265500662E+03  0.43307002594E+03  0.17200000000E+03 0. -1.
         -6    1    1    2    0  501  0.13726784066E+03 -0.15856649488E+02  0.24190181265E+04  0.24290587868E+04  0.17200000000E+03 0.  1.
<mgrwt>
<rscale>  2 0.22063067E+03</rscale>
<asrwt>0</asrwt>
<pdfrwt beam="1">  1        1 0.70672447E+00 0.22063067E+03</pdfrwt>
<pdfrwt beam="2">  1       -1 0.88069696E-02 0.22063067E+03</pdfrwt>
<totfact> 0.27438710E+00</totfact>
</mgrwt>
</event>
<event>
 4    1  0.3757815E-001  0.2107714E+03  0.7546771E-02  0.1140957E+00
         -2   -1    0    0    0  501 -0.00000000000E+00  0.00000000000E+00  0.13665614108E+03  0.13665614108E+03  0.00000000000E+00 0.  1.
          2   -1    0    0  502    0  0.00000000000E+00 -0.00000000000E+00 -0.47370935504E+03  0.47370935504E+03  0.00000000000E+00 0. -1.
          6    1    1    2  502    0  0.11431906281E+03 -0.42092188559E+02  0.24165744366E+01  0.21078529430E+03  0.17200000000E+03 0.  1.
         -6    1    1    2    0  501 -0.11431906281E+03  0.42092188559E+02 -0.33946978839E+03  0.39958020182E+03  0.17200000000E+03 0. -1.
<mgrwt>
<rscale>  2 0.21077144E+03</rscale>
<asrwt>0</asrwt>
<pdfrwt beam="1">  1        2 0.11842734E+00 0.21077144E+03</pdfrwt>
<pdfrwt beam="2">  1       -2 0.34164036E-01 0.21077144E+03</pdfrwt>
<totfact> 0.30391896E+02</totfact>
</mgrwt>
</event>
<event>
 4    1  0.3757815E-001  0.3481456E+03  0.7546771E-02  0.1063379E+00
          2   -1    0    0  502    0  0.00000000000E+00  0.00000000000E+00  0.92916723108E+03  0.92916723108E+03  0.00000000000E+00 0.  1.
         -2   -1    0    0    0  501 -0.00000000000E+00 -0.00000000000E+00 -0.13044697294E+03  0.13044697294E+03  0.00000000000E+00 0. -1.
          6    1    1    2  502    0 -0.18255040052E+03 -0.24144713804E+03  0.40133461679E+03  0.53129543931E+03  0.17200000000E+03 0.  1.
         -6    1    1    2    0  501  0.18255040052E+03  0.24144713804E+03  0.39738564135E+03  0.52831876471E+03  0.17200000000E+03 0. -1.
<mgrwt>
<rscale>  2 0.34814561E+03</rscale>
<asrwt>0</asrwt>
<pdfrwt beam="1">  1        2 0.23229179E+00 0.34814561E+03</pdfrwt>
<pdfrwt beam="2">  1       -2 0.32611746E-01 0.34814561E+03</pdfrwt>
<totfact> 0.11757826E+02</totfact>
</mgrwt>
</event>
<event>
 4    1  0.3757815E-001  0.4994551E+03  0.7546771E-02  0.1013921E+00
         -1   -1    0    0    0  501 -0.00000000000E+00  0.00000000000E+00  0.51486825072E+03  0.51486825072E+03  0.00000000000E+00 0.  1.
          1   -1    0    0  502    0  0.00000000000E+00 -0.00000000000E+00 -0.55991629595E+03  0.55991629595E+03  0.00000000000E+00 0. -1.
          6    1    1    2  502    0  0.46205221830E+03 -0.79869259513E+02 -0.21974497329E+03  0.54565850524E+03  0.17200000000E+03 0. -1.
         -6    1    1    2    0  501 -0.46205221830E+03  0.79869259513E+02  0.17469692806E+03  0.52912604144E+03  0.17200000000E+03 0.  1.
<mgrwt>
<rscale>  2 0.49945505E+03</rscale>
<asrwt>0</asrwt>
<pdfrwt beam="1">  1        1 0.13997907E+00 0.49945505E+03</pdfrwt>
<pdfrwt beam="2">  1       -1 0.12871706E+00 0.49945505E+03</pdfrwt>
<totfact> 0.99981455E+00</totfact>
</mgrwt>
</event>
<event>
 4    1  0.3757815E-001  0.1738787E+03  0.7546771E-02  0.1173862E+00
          2   -1    0    0  502    0  0.00000000000E+00  0.00000000000E+00  0.23701469796E+03  0.23701469796E+03  0.00000000000E+00 0.  1.
         -2   -1    0    0    0  501 -0.00000000000E+00 -0.00000000000E+00 -0.14305984402E+03  0.14305984402E+03  0.00000000000E+00 0. -1.
          6    1    1    2  502    0  0.24394396170E+02 -0.73966296603E+01 -0.15573196894E+02  0.17457468647E+03  0.17200000000E+03 0. -1.
         -6    1    1    2    0  501 -0.24394396170E+02  0.73966296603E+01  0.10952805083E+03  0.20549985551E+03  0.17200000000E+03 0.  1.
<mgrwt>
<rscale>  2 0.17387868E+03</rscale>
<asrwt>0</asrwt>
<pdfrwt beam="1">  1        2 0.59253674E-01 0.17387868E+03</pdfrwt>
<pdfrwt beam="2">  1       -2 0.35764961E-01 0.17387868E+03</pdfrwt>
<totfact> 0.61571142E+02</totfact>
</mgrwt>
</event>
<event>
 4    1  0.3757815E-001  0.1740553E+03  0.7546771E-02  0.1173684E+00
         -1   -1    0    0    0  501 -0.00000000000E+00  0.00000000000E+00  0.44581781786E+02  0.44581781786E+02  0.00000000000E+00 0. -1.
          1   -1    0    0  502    0  0.00000000000E+00 -0.00000000000E+00 -0.10553451719E+04  0.10553451719E+04  0.00000000000E+00 0.  1.
          6    1    1    2  502    0 -0.25086245729E+02 -0.90517608553E+01 -0.17719874401E+03  0.24838407553E+03  0.17200000000E+03 0. -1.
         -6    1    1    2    0  501  0.25086245729E+02  0.90517608553E+01 -0.83356464606E+03  0.85154287811E+03  0.17200000000E+03 0.  1.
<mgrwt>
<rscale>  2 0.17405532E+03</rscale>
<asrwt>0</asrwt>
<pdfrwt beam="1">  1        1 0.26383629E+00 0.17405532E+03</pdfrwt>
<pdfrwt beam="2">  1       -1 0.11145446E-01 0.17405532E+03</pdfrwt>
<totfact> 0.27282616E+02</totfact>
</mgrwt>
</event>
<event>
 4    1  0.3757815E-001  0.2181103E+03  0.7546771E-02  0.1135300E+00
         -1   -1    0    0    0  501 -0.00000000000E+00  0.00000000000E+00  0.20193692413E+03  0.20193692413E+03  0.00000000000E+00 0. -1.
          1   -1    0    0  502    0  0.00000000000E+00 -0.00000000000E+00 -0.23985611100E+03  0.23985611100E+03  0.00000000000E+00 0.  1.
          6    1    1    2  502    0  0.75890450498E+02 -0.11058360509E+03 -0.48457409053E+02  0.22342832113E+03  0.17200000000E+03 0.  1.
         -6    1    1    2    0  501 -0.75890450498E+02  0.11058360509E+03  0.10538222182E+02  0.21836471400E+03  0.17200000000E+03 0. -1.
<mgrwt>
<rscale>  2 0.21811028E+03</rscale>
<asrwt>0</asrwt>
<pdfrwt beam="1">  1        1 0.59964028E-01 0.21811028E+03</pdfrwt>
<pdfrwt beam="2">  1       -1 0.50484231E-01 0.21811028E+03</pdfrwt>
<totfact> 0.25629776E+02</totfact>
</mgrwt>
</event>
<event>
 4    1  0.3757815E-001  0.2055498E+03  0.7546771E-02  0.1145139E+00
          2   -1    0    0  502    0  0.00000000000E+00  0.00000000000E+00  0.43548190025E+03  0.43548190025E+03  0.00000000000E+00 0. -1.
         -2   -1    0    0    0  501 -0.00000000000E+00 -0.00000000000E+00 -0.10789293054E+03  0.10789293054E+03  0.00000000000E+00 0.  1.
          6    1    1    2  502    0  0.11253911338E+03 -0.12885130359E+01  0.77549373677E+02  0.21969209741E+03  0.17200000000E+03 0.  1.
         -6    1    1    2    0  501 -0.11253911338E+03  0.12885130359E+01  0.25003959603E+03  0.32368273338E+03  0.17200000000E+03 0. -1.
<mgrwt>
<rscale>  2 0.20554978E+03</rscale>
<asrwt>0</asrwt>
<pdfrwt beam="1">  1        2 0.10887047E+00 0.20554978E+03</pdfrwt>
<pdfrwt beam="2">  1       -2 0.26973234E-01 0.20554978E+03</pdfrwt>
<totfact> 0.51816914E+02</totfact>
</mgrwt>
</event>
<event>
 4    1  0.3757815E-001  0.2003634E+03  0.7546771E-02  0.1149433E+00
         -1   -1    0    0    0  501 -0.00000000000E+00  0.00000000000E+00  0.87622250266E+02  0.87622250266E+02  0.00000000000E+00 0. -1.
          1   -1    0    0  502    0  0.00000000000E+00 -0.00000000000E+00 -0.51193344098E+03  0.51193344098E+03  0.00000000000E+00 0.  1.
          6    1    1    2  502    0 -0.62137611057E+02  0.81855959527E+02 -0.30930832502E+03  0.36853374438E+03  0.17200000000E+03 0.  1.
         -6    1    1    2    0  501  0.62137611057E+02 -0.81855959527E+02 -0.11500286569E+03  0.23102194687E+03  0.17200000000E+03 0. -1.
<mgrwt>
<rscale>  2 0.20036337E+03</rscale>
<asrwt>0</asrwt>
<pdfrwt beam="1">  1        1 0.12798336E+00 0.20036337E+03</pdfrwt>
<pdfrwt beam="2">  1       -1 0.21905563E-01 0.20036337E+03</pdfrwt>
<totfact> 0.38173067E+02</totfact>
</mgrwt>
</event>
<event>
 4    1  0.3757815E-001  0.1769489E+03  0.7546771E-02  0.1170789E+00
         -1   -1    0    0    0  501 -0.00000000000E+00  0.00000000000E+00  0.13422711266E+03  0.13422711266E+03  0.00000000000E+00 0. -1.
          1   -1    0    0  502    0  0.00000000000E+00 -0.00000000000E+00 -0.42198190157E+03  0.42198190157E+03  0.00000000000E+00 0.  1.
          6    1    1    2  502    0  0.11202226450E+02  0.40017567543E+02  0.42101222948E+02  0.18188845088E+03  0.17200000000E+03 0. -1.
         -6    1    1    2    0  501 -0.11202226450E+02 -0.40017567543E+02 -0.32985601185E+03  0.37432056335E+03  0.17200000000E+03 0.  1.
<mgrwt>
<rscale>  2 0.17694885E+03</rscale>
<asrwt>0</asrwt>
<pdfrwt beam="1">  1        1 0.10549547E+00 0.17694885E+03</pdfrwt>
<pdfrwt beam="2">  1       -1 0.33556779E-01 0.17694885E+03</pdfrwt>
<totfact> 0.25028383E+02</totfact>
</mgrwt>
</event>
<event>
 4    1  0.3757815E-001  0.2925666E+03  0.7546771E-02  0.1089017E+00
          2   -1    0    0  502    0  0.00000000000E+00  0.00000000000E+00  0.48558940386E+03  0.48558940386E+03  0.00000000000E+00 0.  1.
         -2   -1    0    0    0  501 -0.00000000000E+00 -0.00000000000E+00 -0.18591988560E+03  0.18591988560E+03  0.00000000000E+00 0. -1.
          6    1    1    2  502    0 -0.21905136411E+03 -0.89597629733E+02  0.22632430154E+03  0.36988907099E+03  0.17200000000E+03 0. -1.
         -6    1    1    2    0  501  0.21905136411E+03  0.89597629733E+02  0.73345216722E+02  0.30162021847E+03  0.17200000000E+03 0.  1.
<mgrwt>
<rscale>  2 0.29256663E+03</rscale>
<asrwt>0</asrwt>
<pdfrwt beam="1">  1        2 0.12139735E+00 0.29256663E+03</pdfrwt>
<pdfrwt beam="2">  1       -2 0.46479972E-01 0.29256663E+03</pdfrwt>
<totfact> 0.16170781E+02</totfact>
</mgrwt>
</event>
<event>
 4    1  0.3757815E-001  0.2833601E+03  0.7546771E-02  0.1093868E+00
         -2   -1    0    0    0  501 -0.00000000000E+00  0.00000000000E+00  0.67825429923E+02  0.67825429923E+02  0.00000000000E+00 0. -1.
          2   -1    0    0  502    0  0.00000000000E+00 -0.00000000000E+00 -0.11997114917E+04  0.11997114917E+04  0.00000000000E+00 0.  1.
          6    1    1    2  502    0  0.15620828363E+03 -0.16219713202E+03 -0.63889002002E+03  0.69890871735E+03  0.17200000000E+03 0. -1.
         -6    1    1    2    0  501 -0.15620828363E+03  0.16219713202E+03 -0.49299604180E+03  0.56862820431E+03  0.17200000000E+03 0. -1.
<mgrwt>
<rscale>  2 0.28336008E+03</rscale>
<asrwt>0</asrwt>
<pdfrwt beam="1">  1        2 0.29992788E+00 0.28336008E+03</pdfrwt>
<pdfrwt beam="2">  1       -2 0.16956357E-01 0.28336008E+03</pdfrwt>
<totfact> 0.22066754E+02</totfact>
</mgrwt>
</event>
<event>
 4    1  0.3757815E-001  0.2487694E+03  0.7546771E-02  0.1114085E+00
         -2   -1    0    0    0  501 -0.00000000000E+00  0.00000000000E+00  0.47324490090E+03  0.47324490090E+03  0.00000000000E+00 0. -1.
          2   -1    0    0  502    0  0.00000000000E+00 -0.00000000000E+00 -0.21151961062E+03  0.21151961062E+03  0.00000000000E+00 0.  1.
          6    1    1    2  502    0  0.52203440559E+02  0.17197965882E+03 -0.80684095370E+02  0.26152652925E+03  0.17200000000E+03 0.  1.
         -6    1    1    2    0  501 -0.52203440559E+02 -0.17197965882E+03  0.34240938566E+03  0.42323798227E+03  0.17200000000E+03 0. -1.
<mgrwt>
<rscale>  2 0.24876938E+03</rscale>
<asrwt>0</asrwt>
<pdfrwt beam="1">  1        2 0.52879904E-01 0.24876938E+03</pdfrwt>
<pdfrwt beam="2">  1       -2 0.11831122E+00 0.24876938E+03</pdfrwt>
<totfact> 0.54937990E+01</totfact>
</mgrwt>
</event>
<event>
 4    1  0.3757815E-001  0.1754493E+03  0.7546771E-02  0.1172281E+00
          2   -1    0    0  502    0  0.00000000000E+00  0.00000000000E+00  0.17618904049E+03  0.17618904049E+03  0.00000000000E+00 0. -1.
         -2   -1    0    0    0  501 -0.00000000000E+00 -0.00000000000E+00 -0.17487259976E+03  0.17487259976E+03  0.00000000000E+00 0.  1.
          6    1    1    2  502    0  0.19246174370E+02 -0.28775444234E+02 -0.46516324792E+01  0.17551090879E+03  0.17200000000E+03 0.  1.
         -6    1    1    2    0  501 -0.19246174370E+02  0.28775444234E+02  0.59680732010E+01  0.17555073146E+03  0.17200000000E+03 0. -1.
<mgrwt>
<rscale>  2 0.17544926E+03</rscale>
<asrwt>0</asrwt>
<pdfrwt beam="1">  1        2 0.44047260E-01 0.17544926E+03</pdfrwt>
<pdfrwt beam="2">  1       -2 0.43718150E-01 0.17544926E+03</pdfrwt>
<totfact> 0.57775310E+02</totfact>
</mgrwt>
</event>
<event>
 4    1  0.3757815E-001  0.1961281E+03  0.7546771E-02  0.1153047E+00
          2   -1    0    0  502    0  0.00000000000E+00  0.00000000000E+00  0.59137545069E+03  0.59137545069E+03  0.00000000000E+00 0.  1.
         -2   -1    0    0    0  501 -0.00000000000E+00 -0.00000000000E+00 -0.83997855156E+02  0.83997855156E+02  0.00000000000E+00 0. -1.
          6    1    1    2  502    0 -0.85405535857E+02  0.39851097427E+02  0.93285513198E+02  0.21718287799E+03  0.17200000000E+03 0.  1.
         -6    1    1    2    0  501  0.85405535857E+02 -0.39851097427E+02  0.41409208234E+03  0.45819042785E+03  0.17200000000E+03 0. -1.
<mgrwt>
<rscale>  2 0.19612806E+03</rscale>
<asrwt>0</asrwt>
<pdfrwt beam="1">  1        2 0.14784385E+00 0.19612806E+03</pdfrwt>
<pdfrwt beam="2">  1       -2 0.20999466E-01 0.19612806E+03</pdfrwt>
<totfact> 0.54252162E+02</totfact>
</mgrwt>
</event>
<event>
 4    1  0.3757815E-001  0.1799252E+03  0.7546771E-02  0.1167875E+00
         -1   -1    0    0    0  501 -0.00000000000E+00  0.00000000000E+00  0.22066712712E+03  0.22066712712E+03  0.00000000000E+00 0.  1.
          1   -1    0    0  502    0  0.00000000000E+00 -0.00000000000E+00 -0.14676736870E+03  0.14676736870E+03  0.00000000000E+00 0. -1.
          6    1    1    2  502    0  0.51901334941E+02 -0.97630055643E+01  0.33175627072E+02  0.18295815663E+03  0.17200000000E+03 0.  1.
         -6    1    1    2    0  501 -0.51901334941E+02  0.97630055643E+01  0.40724131350E+02  0.18447633919E+03  0.17200000000E+03 0.  1.
<mgrwt>
<rscale>  2 0.17992516E+03</rscale>
<asrwt>0</asrwt>
<pdfrwt beam="1">  1        1 0.36691842E-01 0.17992516E+03</pdfrwt>
<pdfrwt beam="2">  1       -1 0.55166781E-01 0.17992516E+03</pdfrwt>
<totfact> 0.40395259E+02</totfact>
</mgrwt>
</event>
<event>
 4    1  0.3757815E-001  0.1982114E+03  0.7546771E-02  0.1151257E+00
          2   -1    0    0  502    0  0.00000000000E+00  0.00000000000E+00  0.35479898034E+03  0.35479898034E+03  0.00000000000E+00 0. -1.
         -2   -1    0    0    0  501 -0.00000000000E+00 -0.00000000000E+00 -0.11074304949E+03  0.11074304949E+03  0.00000000000E+00 0.  1.
          6    1    1    2  502    0 -0.57550681864E+02 -0.79948067344E+02  0.11975497746E+03  0.23157942284E+03  0.17200000000E+03 0. -1.
         -6    1    1    2    0  501  0.57550681864E+02  0.79948067344E+02  0.12430095339E+03  0.23396260699E+03  0.17200000000E+03 0.  1.
<mgrwt>
<rscale>  2 0.19821144E+03</rscale>
<asrwt>0</asrwt>
<pdfrwt beam="1">  1        2 0.88699743E-01 0.19821144E+03</pdfrwt>
<pdfrwt beam="2">  1       -2 0.27685763E-01 0.19821144E+03</pdfrwt>
<totfact> 0.62947684E+02</totfact>
</mgrwt>
</event>
<event>
 4    1  0.3757815E-001  0.2849305E+03  0.7546771E-02  0.1093026E+00
         -2   -1    0    0    0  501 -0.00000000000E+00  0.00000000000E+00  0.12423845613E+03  0.12423845613E+03  0.00000000000E+00 0. -1.
          2   -1    0    0  502    0  0.00000000000E+00 -0.00000000000E+00 -0.71697635755E+03  0.71697635755E+03  0.00000000000E+00 0.  1.
          6    1    1    2  502    0  0.97995019893E+02 -0.20493502967E+03 -0.42155407942E+03  0.50881551881E+03  0.17200000000E+03 0.  1.
         -6    1    1    2    0  501 -0.97995019893E+02  0.20493502967E+03 -0.17118382200E+03  0.33239929486E+03  0.17200000000E+03 0. -1.
<mgrwt>
<rscale>  2 0.28493050E+03</rscale>
<asrwt>0</asrwt>
<pdfrwt beam="1">  1        2 0.17924409E+00 0.28493050E+03</pdfrwt>
<pdfrwt beam="2">  1       -2 0.31059614E-01 0.28493050E+03</pdfrwt>
<totfact> 0.20228493E+02</totfact>
</mgrwt>
</event>
<event>
 4    1  0.3757815E-001  0.1735057E+03  0.7546771E-02  0.1174241E+00
         -1   -1    0    0    0  501 -0.00000000000E+00  0.00000000000E+00  0.34200294055E+02  0.34200294055E+02  0.00000000000E+00 0.  1.
          1   -1    0    0  502    0  0.00000000000E+00 -0.00000000000E+00 -0.10730599034E+04  0.10730599034E+04  0.00000000000E+00 0. -1.
          6    1    1    2  502    0 -0.86239525829E+01  0.21115214904E+02 -0.28474141349E+03  0.33343949588E+03  0.17200000000E+03 0.  1.
         -6    1    1    2    0  501  0.86239525829E+01 -0.21115214904E+02 -0.75411819582E+03  0.77382070154E+03  0.17200000000E+03 0. -1.
<mgrwt>
<rscale>  2 0.17350569E+03</rscale>
<asrwt>0</asrwt>
<pdfrwt beam="1">  1        1 0.26826496E+00 0.17350569E+03</pdfrwt>
<pdfrwt beam="2">  1       -1 0.85500739E-02 0.17350569E+03</pdfrwt>
<totfact> 0.39266635E+02</totfact>
</mgrwt>
</event>
<event>
 4    1  0.3757815E-001  0.2004702E+03  0.7546771E-02  0.1149343E+00
         -2   -1    0    0    0  501 -0.00000000000E+00  0.00000000000E+00  0.43151681681E+02  0.43151681681E+02  0.00000000000E+00 0. -1.
          2   -1    0    0  502    0  0.00000000000E+00 -0.00000000000E+00 -0.93694632935E+03  0.93694632935E+03  0.00000000000E+00 0.  1.
          6    1    1    2  502    0 -0.64626055601E+02 -0.80173495186E+02 -0.40894545023E+03  0.45543901640E+03  0.17200000000E+03 0. -1.
         -6    1    1    2    0  501  0.64626055601E+02  0.80173495186E+02 -0.48484919744E+03  0.52465899463E+03  0.17200000000E+03 0.  1.
<mgrwt>
<rscale>  2 0.20047024E+03</rscale>
<asrwt>0</asrwt>
<pdfrwt beam="1">  1        2 0.23423658E+00 0.20047024E+03</pdfrwt>
<pdfrwt beam="2">  1       -2 0.10787921E-01 0.20047024E+03</pdfrwt>
<totfact> 0.78769165E+02</totfact>
</mgrwt>
</event>
<event>
 4    1  0.3757815E-001  0.2335318E+03  0.7546771E-02  0.1124178E+00
          2   -1    0    0  502    0  0.00000000000E+00  0.00000000000E+00  0.44147814307E+02  0.44147814307E+02  0.00000000000E+00 0.  1.
         -2   -1    0    0    0  501 -0.00000000000E+00 -0.00000000000E+00 -0.13129829424E+04  0.13129829424E+04  0.00000000000E+00 0. -1.
          6    1    1    2  502    0  0.92299777895E+02  0.12819461570E+03 -0.46939557881E+03  0.52427980879E+03  0.17200000000E+03 0.  1.
         -6    1    1    2    0  501 -0.92299777895E+02 -0.12819461570E+03 -0.79943954926E+03  0.83285094790E+03  0.17200000000E+03 0. -1.
<mgrwt>
<rscale>  2 0.23353181E+03</rscale>
<asrwt>0</asrwt>
<pdfrwt beam="1">  1        2 0.11036954E-01 0.23353181E+03</pdfrwt>
<pdfrwt beam="2">  1       -2 0.32824573E+00 0.23353181E+03</pdfrwt>
<totfact> 0.14275064E+01</totfact>
</mgrwt>
</event>
<event>
 4    1  0.3757815E-001  0.1751669E+03  0.7546771E-02  0.1172564E+00
          2   -1    0    0  502    0  0.00000000000E+00  0.00000000000E+00  0.78004268349E+03  0.78004268349E+03  0.00000000000E+00 0. -1.
         -2   -1    0    0    0  501 -0.00000000000E+00 -0.00000000000E+00 -0.39344732175E+02  0.39344732175E+02  0.00000000000E+00 0.  1.
          6    1    1    2  502    0  0.10025611818E+02  0.31605736708E+02  0.36410223840E+03  0.40404687289E+03  0.17200000000E+03 0.  1.
         -6    1    1    2    0  501 -0.10025611818E+02 -0.31605736708E+02  0.37659571291E+03  0.41534054277E+03  0.17200000000E+03 0.  1.
<mgrwt>
<rscale>  2 0.17516688E+03</rscale>
<asrwt>0</asrwt>
<pdfrwt beam="1">  1        2 0.19501062E+00 0.17516688E+03</pdfrwt>
<pdfrwt beam="2">  1       -2 0.98361856E-02 0.17516688E+03</pdfrwt>
<totfact> 0.12530719E+03</totfact>
</mgrwt>
</event>
<event>
 4    1  0.3757815E-001  0.2379955E+03  0.7546771E-02  0.1121135E+00
         -2   -1    0    0    0  501 -0.00000000000E+00  0.00000000000E+00  0.10373974148E+03  0.10373974148E+03  0.00000000000E+00 0.  1.
          2   -1    0    0  502    0  0.00000000000E+00 -0.00000000000E+00 -0.60371641478E+03  0.60371641478E+03  0.00000000000E+00 0. -1.
          6    1    1    2  502    0  0.41518911081E+02 -0.15916674474E+03 -0.14061696295E+03  0.27643263714E+03  0.17200000000E+03 0.  1.
         -6    1    1    2    0  501 -0.41518911081E+02  0.15916674474E+03 -0.35935971036E+03  0.43102351912E+03  0.17200000000E+03 0. -1.
<mgrwt>
<rscale>  2 0.23799553E+03</rscale>
<asrwt>0</asrwt>
<pdfrwt beam="1">  1        2 0.15092910E+00 0.23799553E+03</pdfrwt>
<pdfrwt beam="2">  1       -2 0.25934936E-01 0.23799553E+03</pdfrwt>
<totfact> 0.36302034E+02</totfact>
</mgrwt>
</event>
<event>
 4    1  0.3757815E-001  0.2281007E+03  0.7546771E-02  0.1127984E+00
          2   -1    0    0  502    0  0.00000000000E+00  0.00000000000E+00  0.14856888348E+03  0.14856888348E+03  0.00000000000E+00 0. -1.
         -2   -1    0    0    0  501 -0.00000000000E+00 -0.00000000000E+00 -0.51349522845E+03  0.51349522845E+03  0.00000000000E+00 0.  1.
          6    1    1    2  502    0  0.79558273708E+02  0.12695050330E+03  0.42085401512E+01  0.22813956477E+03  0.17200000000E+03 0. -1.
         -6    1    1    2    0  501 -0.79558273708E+02 -0.12695050330E+03 -0.36913488512E+03  0.43392454715E+03  0.17200000000E+03 0.  1.
<mgrwt>
<rscale>  2 0.22810074E+03</rscale>
<asrwt>0</asrwt>
<pdfrwt beam="1">  1        2 0.37142221E-01 0.22810074E+03</pdfrwt>
<pdfrwt beam="2">  1       -2 0.12837381E+00 0.22810074E+03</pdfrwt>
<totfact> 0.66085712E+01</totfact>
</mgrwt>
</event>
<event>
 4    1  0.3757815E-001  0.1740386E+03  0.7546771E-02  0.1173700E+00
          2   -1    0    0  502    0  0.00000000000E+00  0.00000000000E+00  0.12928916790E+04  0.12928916790E+04  0.00000000000E+00 0.  1.
         -2   -1    0    0    0  501 -0.00000000000E+00 -0.00000000000E+00 -0.24432878131E+02  0.24432878131E+02  0.00000000000E+00 0. -1.
          6    1    1    2  502    0  0.52349667578E+01  0.26039167333E+02  0.50063049881E+03  0.53001918781E+03  0.17200000000E+03 0. -1.
         -6    1    1    2    0  501 -0.52349667578E+01 -0.26039167333E+02  0.76782830206E+03  0.78730536932E+03  0.17200000000E+03 0.  1.
<mgrwt>
<rscale>  2 0.17403863E+03</rscale>
<asrwt>0</asrwt>
<pdfrwt beam="1">  1        2 0.32322269E+00 0.17403863E+03</pdfrwt>
<pdfrwt beam="2">  1       -2 0.61082239E-02 0.17403863E+03</pdfrwt>
<totfact> 0.96076656E+02</totfact>
</mgrwt>
</event>
<event>
 4    1  0.3757815E-001  0.2159461E+03  0.7546771E-02  0.1136942E+00
          2   -1    0    0  502    0  0.00000000000E+00  0.00000000000E+00  0.13981738923E+03  0.13981738923E+03  0.00000000000E+00 0. -1.
         -2   -1    0    0    0  501 -0.00000000000E+00 -0.00000000000E+00 -0.37931736669E+03  0.37931736669E+03  0.00000000000E+00 0.  1.
          6    1    1    2  502    0  0.58220148796E+02 -0.11687222542E+03 -0.20993650817E+03  0.30117443494E+03  0.17200000000E+03 0.  1.
         -6    1    1    2    0  501 -0.58220148796E+02  0.11687222542E+03 -0.29563469285E+02  0.21796032097E+03  0.17200000000E+03 0. -1.
<mgrwt>
<rscale>  2 0.21594606E+03</rscale>
<asrwt>0</asrwt>
<pdfrwt beam="1">  1        2 0.34954347E-01 0.21594606E+03</pdfrwt>
<pdfrwt beam="2">  1       -2 0.94829341E-01 0.21594606E+03</pdfrwt>
<totfact> 0.14524222E+02</totfact>
</mgrwt>
</event>
<event>
 4    1  0.3757815E-001  0.2009982E+03  0.7546771E-02  0.1148900E+00
          1   -1    0    0  502    0  0.00000000000E+00  0.00000000000E+00  0.11692462220E+03  0.11692462220E+03  0.00000000000E+00 0. -1.
         -1   -1    0    0    0  501 -0.00000000000E+00 -0.00000000000E+00 -0.68731117518E+03  0.68731117518E+03  0.00000000000E+00 0.  1.
          6    1    1    2  502    0 -0.47930809254E+02  0.92298037821E+02 -0.56875945856E+03  0.60323097729E+03  0.17200000000E+03 0.  1.
         -6    1    1    2    0  501  0.47930809254E+02 -0.92298037821E+02 -0.16270944253E+01  0.20100482009E+03  0.17200000000E+03 0. -1.
<mgrwt>
<rscale>  2 0.20099823E+03</rscale>
<asrwt>0</asrwt>
<pdfrwt beam="1">  1        1 0.29231156E-01 0.20099823E+03</pdfrwt>
<pdfrwt beam="2">  1       -1 0.17182779E+00 0.20099823E+03</pdfrwt>
<totfact> 0.41969923E+01</totfact>
</mgrwt>
</event>
<event>
 4    1  0.3757815E-001  0.1896109E+03  0.7546771E-02  0.1158813E+00
          1   -1    0    0  502    0  0.00000000000E+00  0.00000000000E+00  0.88120234946E+03  0.88120234946E+03  0.00000000000E+00 0.  1.
         -1   -1    0    0    0  501 -0.00000000000E+00 -0.00000000000E+00 -0.43601797833E+02  0.43601797833E+02  0.00000000000E+00 0. -1.
          6    1    1    2  502    0 -0.41746877123E+02  0.68010990878E+02  0.30156650430E+03  0.35622275776E+03  0.17200000000E+03 0. -1.
         -6    1    1    2    0  501  0.41746877123E+02 -0.68010990878E+02  0.53603404733E+03  0.56858138953E+03  0.17200000000E+03 0. -1.
<mgrwt>
<rscale>  2 0.18961091E+03</rscale>
<asrwt>0</asrwt>
<pdfrwt beam="1">  1        1 0.22030053E+00 0.18961091E+03</pdfrwt>
<pdfrwt beam="2">  1       -1 0.10900452E-01 0.18961091E+03</pdfrwt>
<totfact> 0.43001179E+02</totfact>
</mgrwt>
</event>
<event>
 4    1  0.3757815E-001  0.3533077E+03  0.7546771E-02  0.1061266E+00
         -2   -1    0    0    0  501 -0.00000000000E+00  0.00000000000E+00  0.20244567130E+03  0.20244567130E+03  0.00000000000E+00 0.  1.
          2   -1    0    0  502    0  0.00000000000E+00 -0.00000000000E+00 -0.19415653663E+04  0.19415653663E+04  0.00000000000E+00 0. -1.
          6    1    1    2  502    0 -0.27150610902E+02  0.30741697990E+03 -0.17551333397E+04  0.17903405808E+04  0.17200000000E+03 0. -1.
         -6    1    1    2    0  501  0.27150610902E+02 -0.30741697990E+03  0.16013644666E+02  0.35367045681E+03  0.17200000000E+03 0.  1.
<mgrwt>
<rscale>  2 0.35330773E+03</rscale>
<asrwt>0</asrwt>
<pdfrwt beam="1">  1        2 0.48539135E+00 0.35330773E+03</pdfrwt>
<pdfrwt beam="2">  1       -2 0.50611417E-01 0.35330773E+03</pdfrwt>
<totfact> 0.61407002E+00</totfact>
</mgrwt>
</event>
<event>
 4    1  0.3757815E-001  0.1757257E+03  0.7546771E-02  0.1172005E+00
          1   -1    0    0  502    0  0.00000000000E+00  0.00000000000E+00  0.24394630437E+03  0.24394630437E+03  0.00000000000E+00 0. -1.
         -1   -1    0    0    0  501 -0.00000000000E+00 -0.00000000000E+00 -0.15056042129E+03  0.15056042129E+03  0.00000000000E+00 0.  1.
          6    1    1    2  502    0 -0.32120228340E+02 -0.16241931381E+02  0.12540988537E+03  0.21588688879E+03  0.17200000000E+03 0. -1.
         -6    1    1    2    0  501  0.32120228340E+02  0.16241931381E+02 -0.32024002287E+02  0.17861983688E+03  0.17200000000E+03 0.  1.
<mgrwt>
<rscale>  2 0.17572567E+03</rscale>
<asrwt>0</asrwt>
<pdfrwt beam="1">  1        1 0.60986576E-01 0.17572567E+03</pdfrwt>
<pdfrwt beam="2">  1       -1 0.37640106E-01 0.17572567E+03</pdfrwt>
<totfact> 0.42660044E+02</totfact>
</mgrwt>
</event>
<event>
 4    1  0.3757815E-001  0.2202827E+03  0.7546771E-02  0.1133672E+00
         -1   -1    0    0    0  501 -0.00000000000E+00  0.00000000000E+00  0.43438741029E+03  0.43438741029E+03  0.00000000000E+00 0. -1.
          1   -1    0    0  502    0  0.00000000000E+00 -0.00000000000E+00 -0.17572161610E+03  0.17572161610E+03  0.00000000000E+00 0.  1.
          6    1    1    2  502    0 -0.48197040763E+01 -0.13753997661E+03  0.31345317406E+03  0.38311534430E+03  0.17200000000E+03 0. -1.
         -6    1    1    2    0  501  0.48197040763E+01  0.13753997661E+03 -0.54787379871E+02  0.22699368208E+03  0.17200000000E+03 0.  1.
<mgrwt>
<rscale>  2 0.22028272E+03</rscale>
<asrwt>0</asrwt>
<pdfrwt beam="1">  1        1 0.43930405E-01 0.22028272E+03</pdfrwt>
<pdfrwt beam="2">  1       -1 0.10859685E+00 0.22028272E+03</pdfrwt>
<totfact> 0.79552710E+01</totfact>
</mgrwt>
</event>
<event>
 4    1  0.3757815E-001  0.1731706E+03  0.7546771E-02  0.1174581E+00
          2   -1    0    0  502    0  0.00000000000E+00  0.00000000000E+00  0.43632872509E+03  0.43632872509E+03  0.00000000000E+00 0.  1.
         -2   -1    0    0    0  501 -0.00000000000E+00 -0.00000000000E+00 -0.13820143905E+03  0.13820143905E+03  0.00000000000E+00 0. -1.
          6    1    1    2  502    0  0.19559874053E+02  0.46318750428E+01 -0.54610385021E+02  0.18157735842E+03  0.17200000000E+03 0. -1.
         -6    1    1    2    0  501 -0.19559874053E+02 -0.46318750428E+01  0.35273767106E+03  0.39295280572E+03  0.17200000000E+03 0.  1.
<mgrwt>
<rscale>  2 0.17317056E+03</rscale>
<asrwt>0</asrwt>
<pdfrwt beam="1">  1        2 0.10908218E+00 0.17317056E+03</pdfrwt>
<pdfrwt beam="2">  1       -2 0.34550361E-01 0.17317056E+03</pdfrwt>
<totfact> 0.33065179E+02</totfact>
</mgrwt>
</event>
<event>
 4    1  0.3757815E-001  0.1840194E+03  0.7546771E-02  0.1163969E+00
         -1   -1    0    0    0  501 -0.00000000000E+00  0.00000000000E+00  0.61714770288E+02  0.61714770288E+02  0.00000000000E+00 0. -1.
          1   -1    0    0  502    0  0.00000000000E+00 -0.00000000000E+00 -0.88668537879E+03  0.88668537879E+03  0.00000000000E+00 0.  1.
          6    1    1    2  502    0  0.48091798118E+02 -0.44343199708E+02 -0.70525305790E+03  0.72886556791E+03  0.17200000000E+03 0.  1.
         -6    1    1    2    0  501 -0.48091798118E+02  0.44343199708E+02 -0.11971755060E+03  0.21953458117E+03  0.17200000000E+03 0. -1.
<mgrwt>
<rscale>  2 0.18401940E+03</rscale>
<asrwt>0</asrwt>
<pdfrwt beam="1">  1        1 0.22167135E+00 0.18401940E+03</pdfrwt>
<pdfrwt beam="2">  1       -1 0.15428692E-01 0.18401940E+03</pdfrwt>
<totfact> 0.24672049E+02</totfact>
</mgrwt>
</event>
<event>
 4    1  0.3757815E-001  0.2019031E+03  0.7546771E-02  0.1148143E+00
         -2   -1    0    0    0  501 -0.00000000000E+00  0.00000000000E+00  0.42463056800E+03  0.42463056800E+03  0.00000000000E+00 0.  1.
          2   -1    0    0  502    0  0.00000000000E+00 -0.00000000000E+00 -0.17131277593E+03  0.17131277593E+03  0.00000000000E+00 0. -1.
          6    1    1    2  502    0  0.10501231278E+03  0.12380127549E+02  0.32422492206E+03  0.38195111399E+03  0.17200000000E+03 0.  1.
         -6    1    1    2    0  501 -0.10501231278E+03 -0.12380127549E+02 -0.70907129991E+02  0.21399222995E+03  0.17200000000E+03 0. -1.
<mgrwt>
<rscale>  2 0.20190308E+03</rscale>
<asrwt>0</asrwt>
<pdfrwt beam="1">  1        2 0.42828195E-01 0.20190308E+03</pdfrwt>
<pdfrwt beam="2">  1       -2 0.10615764E+00 0.20190308E+03</pdfrwt>
<totfact> 0.89874631E+01</totfact>
</mgrwt>
</event>
<event>
 4    1  0.3757815E-001  0.2027831E+03  0.7546771E-02  0.1147412E+00
          2   -1    0    0  502    0  0.00000000000E+00  0.00000000000E+00  0.15986987959E+03  0.15986987959E+03  0.00000000000E+00 0. -1.
         -2   -1    0    0    0  501 -0.00000000000E+00 -0.00000000000E+00 -0.25722854643E+03  0.25722854643E+03  0.00000000000E+00 0.  1.
          6    1    1    2  502    0  0.24669394712E+02  0.10453899075E+03 -0.50175701938E+02  0.20889849374E+03  0.17200000000E+03 0.  1.
         -6    1    1    2    0  501 -0.24669394712E+02 -0.10453899075E+03 -0.47182964909E+02  0.20819993228E+03  0.17200000000E+03 0.  1.
<mgrwt>
<rscale>  2 0.20278309E+03</rscale>
<asrwt>0</asrwt>
<pdfrwt beam="1">  1        2 0.39967470E-01 0.20278309E+03</pdfrwt>
<pdfrwt beam="2">  1       -2 0.64307136E-01 0.20278309E+03</pdfrwt>
<totfact> 0.29468413E+02</totfact>
</mgrwt>
</event>
<event>
 4    1  0.3757815E-001  0.2259734E+03  0.7546771E-02  0.1129506E+00
         -2   -1    0    0    0  501 -0.00000000000E+00  0.00000000000E+00  0.32802508303E+03  0.32802508303E+03  0.00000000000E+00 0.  1.
          2   -1    0    0  502    0  0.00000000000E+00 -0.00000000000E+00 -0.17362710720E+03  0.17362710720E+03  0.00000000000E+00 0. -1.
          6    1    1    2  502    0 -0.10349018481E+03 -0.10377747720E+03  0.15786125054E+03  0.27565224023E+03  0.17200000000E+03 0. -1.
         -6    1    1    2    0  501  0.10349018481E+03  0.10377747720E+03 -0.34632747069E+01  0.22599994999E+03  0.17200000000E+03 0. -1.
<mgrwt>
<rscale>  2 0.22597341E+03</rscale>
<asrwt>0</asrwt>
<pdfrwt beam="1">  1        2 0.43406777E-01 0.22597341E+03</pdfrwt>
<pdfrwt beam="2">  1       -2 0.82006270E-01 0.22597341E+03</pdfrwt>
<totfact> 0.15932517E+02</totfact>
</mgrwt>
</event>
<event>
 4    1  0.3757815E-001  0.1869002E+03  0.7546771E-02  0.1161287E+00
         -2   -1    0    0    0  501 -0.00000000000E+00  0.00000000000E+00  0.76718843944E+02  0.76718843944E+02  0.00000000000E+00 0. -1.
          2   -1    0    0  502    0  0.00000000000E+00 -0.00000000000E+00 -0.54518697723E+03  0.54518697723E+03  0.00000000000E+00 0.  1.
          6    1    1    2  502    0 -0.22736263575E+02  0.69503536345E+02 -0.10798731358E+03  0.21585397643E+03  0.17200000000E+03 0. -1.
         -6    1    1    2    0  501  0.22736263575E+02 -0.69503536345E+02 -0.36048081971E+03  0.40605184475E+03  0.17200000000E+03 0. -1.
<mgrwt>
<rscale>  2 0.18690019E+03</rscale>
<asrwt>0</asrwt>
<pdfrwt beam="1">  1        2 0.13629674E+00 0.18690019E+03</pdfrwt>
<pdfrwt beam="2">  1       -2 0.19179711E-01 0.18690019E+03</pdfrwt>
<totfact> 0.70674065E+02</totfact>
</mgrwt>
</event>
<event>
 4    1  0.3757815E-001  0.2241525E+03  0.7546771E-02  0.1130825E+00
          2   -1    0    0  502    0  0.00000000000E+00  0.00000000000E+00  0.77467615574E+03  0.77467615574E+03  0.00000000000E+00 0. -1.
         -2   -1    0    0    0  501 -0.00000000000E+00 -0.00000000000E+00 -0.73936808975E+02  0.73936808975E+02  0.00000000000E+00 0.  1.
          6    1    1    2  502    0 -0.13546580371E+03 -0.48055953565E+02  0.20169019903E+03  0.30153489853E+03  0.17200000000E+03 0.  1.
         -6    1    1    2    0  501  0.13546580371E+03  0.48055953565E+02  0.49904914774E+03  0.54707806619E+03  0.17200000000E+03 0. -1.
<mgrwt>
<rscale>  2 0.22415253E+03</rscale>
<asrwt>0</asrwt>
<pdfrwt beam="1">  1        2 0.19366901E+00 0.22415253E+03</pdfrwt>
<pdfrwt beam="2">  1       -2 0.18484205E-01 0.22415253E+03</pdfrwt>
<totfact> 0.45049722E+02</totfact>
</mgrwt>
</event>
<event>
 4    1  0.3757815E-001  0.1864271E+03  0.7546771E-02  0.1161724E+00
          1   -1    0    0  502    0  0.00000000000E+00  0.00000000000E+00  0.52558515029E+03  0.52558515029E+03  0.00000000000E+00 0. -1.
         -1   -1    0    0    0  501 -0.00000000000E+00 -0.00000000000E+00 -0.26953373538E+03  0.26953373538E+03  0.00000000000E+00 0.  1.
          6    1    1    2  502    0  0.66157316233E+02  0.28183161409E+02 -0.21733963859E+03  0.28634175312E+03  0.17200000000E+03 0.  1.
         -6    1    1    2    0  501 -0.66157316233E+02 -0.28183161409E+02  0.47339105350E+03  0.50877713256E+03  0.17200000000E+03 0. -1.
<mgrwt>
<rscale>  2 0.18642715E+03</rscale>
<asrwt>0</asrwt>
<pdfrwt beam="1">  1        1 0.13139629E+00 0.18642715E+03</pdfrwt>
<pdfrwt beam="2">  1       -1 0.67383435E-01 0.18642715E+03</pdfrwt>
<totfact> 0.50238470E+01</totfact>
</mgrwt>
</event>
<event>
 4    1  0.3757815E-001  0.2185320E+03  0.7546771E-02  0.1134982E+00
         -2   -1    0    0    0  501 -0.00000000000E+00  0.00000000000E+00  0.41086610208E+02  0.41086610208E+02  0.00000000000E+00 0.  1.
          2   -1    0    0  502    0  0.00000000000E+00 -0.00000000000E+00 -0.17006351343E+04  0.17006351343E+04  0.00000000000E+00 0. -1.
          6    1    1    2  502    0  0.12212322250E+03  0.57080218965E+02 -0.33981819548E+03  0.40402059211E+03  0.17200000000E+03 0.  1.
         -6    1    1    2    0  501 -0.12212322250E+03 -0.57080218965E+02 -0.13197303286E+04  0.13377011524E+04  0.17200000000E+03 0. -1.
<mgrwt>
<rscale>  2 0.21853200E+03</rscale>
<asrwt>0</asrwt>
<pdfrwt beam="1">  1        2 0.42515875E+00 0.21853200E+03</pdfrwt>
<pdfrwt beam="2">  1       -2 0.10271653E-01 0.21853200E+03</pdfrwt>
<totfact> 0.18544369E+02</totfact>
</mgrwt>
</event>
<event>
 4    1  0.3757815E-001  0.1800393E+03  0.7546771E-02  0.1167765E+00
         -1   -1    0    0    0  501 -0.00000000000E+00  0.00000000000E+00  0.39497641050E+03  0.39497641050E+03  0.00000000000E+00 0. -1.
          1   -1    0    0  502    0  0.00000000000E+00 -0.00000000000E+00 -0.12301588620E+03  0.12301588620E+03  0.00000000000E+00 0.  1.
          6    1    1    2  502    0  0.53073199172E+02 -0.36595468710E+01  0.28541059067E+03  0.33745127355E+03  0.17200000000E+03 0. -1.
         -6    1    1    2    0  501 -0.53073199172E+02  0.36595468710E+01 -0.13450066371E+02  0.18054102315E+03  0.17200000000E+03 0.  1.
<mgrwt>
<rscale>  2 0.18003932E+03</rscale>
<asrwt>0</asrwt>
<pdfrwt beam="1">  1        1 0.30753972E-01 0.18003932E+03</pdfrwt>
<pdfrwt beam="2">  1       -1 0.98744100E-01 0.18003932E+03</pdfrwt>
<totfact> 0.15515294E+02</totfact>
</mgrwt>
</event>
<event>
 4    1  0.3757815E-001  0.2096702E+03  0.7546771E-02  0.1141827E+00
         -2   -1    0    0    0  501 -0.00000000000E+00  0.00000000000E+00  0.44829859896E+03  0.44829859896E+03  0.00000000000E+00 0. -1.
          2   -1    0    0  502    0  0.00000000000E+00 -0.00000000000E+00 -0.98067603596E+02  0.98067603596E+02  0.00000000000E+00 0.  1.
          6    1    1    2  502    0  0.37185326472E+02 -0.11399486043E+03  0.17695464204E+03  0.27436202734E+03  0.17200000000E+03 0.  1.
         -6    1    1    2    0  501 -0.37185326472E+02  0.11399486043E+03  0.17327635333E+03  0.27200417521E+03  0.17200000000E+03 0. -1.
<mgrwt>
<rscale>  2 0.20967016E+03</rscale>
<asrwt>0</asrwt>
<pdfrwt beam="1">  1        2 0.24516902E-01 0.20967016E+03</pdfrwt>
<pdfrwt beam="2">  1       -2 0.11207464E+00 0.20967016E+03</pdfrwt>
<totfact> 0.14526461E+02</totfact>
</mgrwt>
</event>
<event>
 4    1  0.3757815E-001  0.1939150E+03  0.7546771E-02  0.1154977E+00
         -2   -1    0    0    0  501 -0.00000000000E+00  0.00000000000E+00  0.31496410569E+02  0.31496410569E+02  0.00000000000E+00 0. -1.
          2   -1    0    0  502    0  0.00000000000E+00 -0.00000000000E+00 -0.15259425657E+04  0.15259425657E+04  0.00000000000E+00 0.  1.
          6    1    1    2  502    0 -0.86129051394E+02  0.24511434989E+02 -0.38396100595E+03  0.43015006454E+03  0.17200000000E+03 0. -1.
         -6    1    1    2    0  501  0.86129051394E+02 -0.24511434989E+02 -0.11104851492E+04  0.11272889117E+04  0.17200000000E+03 0.  1.
<mgrwt>
<rscale>  2 0.19391499E+03</rscale>
<asrwt>0</asrwt>
<pdfrwt beam="1">  1        2 0.38148560E+00 0.19391499E+03</pdfrwt>
<pdfrwt beam="2">  1       -2 0.78741036E-02 0.19391499E+03</pdfrwt>
<totfact> 0.40756735E+02</totfact>
</mgrwt>
</event>
<event>
 4    1  0.3757815E-001  0.3508298E+03  0.7546771E-02  0.1062275E+00
         -1   -1    0    0    0  501 -0.00000000000E+00  0.00000000000E+00  0.22372178573E+03  0.22372178573E+03  0.00000000000E+00 0.  1.
          1   -1    0    0  502    0  0.00000000000E+00 -0.00000000000E+00 -0.13824290123E+04  0.13824290123E+04  0.00000000000E+00 0. -1.
          6    1    1    2  502    0 -0.30576517714E+03 -0.22813372319E+01 -0.12024686030E+04  0.12526022071E+04  0.17200000000E+03 0. -1.
         -6    1    1    2    0  501  0.30576517714E+03  0.22813372319E+01  0.43761376463E+02  0.35354859089E+03  0.17200000000E+03 0.  1.
<mgrwt>
<rscale>  2 0.35082980E+03</rscale>
<asrwt>0</asrwt>
<pdfrwt beam="1">  1        1 0.34560724E+00 0.35082980E+03</pdfrwt>
<pdfrwt beam="2">  1       -1 0.55930448E-01 0.35082980E+03</pdfrwt>
<totfact> 0.76096482E+00</totfact>
</mgrwt>
</event>
<event>
 4    1  0.3757815E-001  0.1867860E+03  0.7546771E-02  0.1161392E+00
         -2   -1    0    0    0  501 -0.00000000000E+00  0.00000000000E+00  0.77000785715E+02  0.77000785715E+02  0.00000000000E+00 0. -1.
          2   -1    0    0  502    0  0.00000000000E+00 -0.00000000000E+00 -0.64557842696E+03  0.64557842696E+03  0.00000000000E+00 0.  1.
          6    1    1    2  502    0 -0.72802480679E+02  0.21948918511E+01 -0.87013599188E+02  0.20605917885E+03  0.17200000000E+03 0. -1.
         -6    1    1    2    0  501  0.72802480679E+02 -0.21948918511E+01 -0.48156404205E+03  0.51652003382E+03  0.17200000000E+03 0.  1.
<mgrwt>
<rscale>  2 0.18678602E+03</rscale>
<asrwt>0</asrwt>
<pdfrwt beam="1">  1        2 0.16139461E+00 0.18678602E+03</pdfrwt>
<pdfrwt beam="2">  1       -2 0.19250197E-01 0.18678602E+03</pdfrwt>
<totfact> 0.55716585E+02</totfact>
</mgrwt>
</event>
<event>
 4    1  0.3757815E-001  0.1832677E+03  0.7546771E-02  0.1164677E+00
          2   -1    0    0  502    0  0.00000000000E+00  0.00000000000E+00  0.83832586634E+03  0.83832586634E+03  0.00000000000E+00 0. -1.
         -2   -1    0    0    0  501 -0.00000000000E+00 -0.00000000000E+00 -0.17933521708E+03  0.17933521708E+03  0.00000000000E+00 0.  1.
          6    1    1    2  502    0  0.54760013868E+02 -0.31692359847E+02  0.77790023888E+03  0.79919700102E+03  0.17200000000E+03 0. -1.
         -6    1    1    2    0  501 -0.54760013868E+02  0.31692359847E+02 -0.11890958962E+03  0.21846408239E+03  0.17200000000E+03 0.  1.
<mgrwt>
<rscale>  2 0.18326774E+03</rscale>
<asrwt>0</asrwt>
<pdfrwt beam="1">  1        2 0.20958146E+00 0.18326774E+03</pdfrwt>
<pdfrwt beam="2">  1       -2 0.44833807E-01 0.18326774E+03</pdfrwt>
<totfact> 0.80549962E+01</totfact>
</mgrwt>
</event>
<event>
 4    1  0.3757815E-001  0.2345546E+03  0.7546771E-02  0.1123474E+00
          1   -1    0    0  502    0  0.00000000000E+00  0.00000000000E+00  0.13869903119E+03  0.13869903119E+03  0.00000000000E+00 0. -1.
         -1   -1    0    0    0  501 -0.00000000000E+00 -0.00000000000E+00 -0.43646485936E+03  0.43646485936E+03  0.00000000000E+00 0.  1.
          6    1    1    2  502    0  0.59319272376E+01  0.15936339781E+03 -0.23573370906E+03  0.33254512762E+03  0.17200000000E+03 0. -1.
         -6    1    1    2    0  501 -0.59319272376E+01 -0.15936339781E+03 -0.62032119116E+02  0.24261876293E+03  0.17200000000E+03 0. -1.
<mgrwt>
<rscale>  2 0.23455464E+03</rscale>
<asrwt>0</asrwt>
<pdfrwt beam="1">  1        1 0.34674758E-01 0.23455464E+03</pdfrwt>
<pdfrwt beam="2">  1       -1 0.10911621E+00 0.23455464E+03</pdfrwt>
<totfact> 0.10561979E+02</totfact>
</mgrwt>
</event>
<event>
 4    1  0.3757815E-001  0.5115271E+03  0.7546771E-02  0.1010813E+00
          2   -1    0    0  502    0  0.00000000000E+00  0.00000000000E+00  0.85805047378E+03  0.85805047378E+03  0.00000000000E+00 0.  1.
         -2   -1    0    0    0  501 -0.00000000000E+00 -0.00000000000E+00 -0.39228253101E+03  0.39228253101E+03  0.00000000000E+00 0. -1.
          6    1    1    2  502    0 -0.11613006132E+03 -0.46753582234E+03  0.52786334177E+03  0.73505077641E+03  0.17200000000E+03 0.  1.
         -6    1    1    2    0  501  0.11613006132E+03  0.46753582234E+03 -0.62095399004E+02  0.51528222838E+03  0.17200000000E+03 0. -1.
<mgrwt>
<rscale>  2 0.51152706E+03</rscale>
<asrwt>0</asrwt>
<pdfrwt beam="1">  1        2 0.21451262E+00 0.51152706E+03</pdfrwt>
<pdfrwt beam="2">  1       -2 0.98070634E-01 0.51152706E+03</pdfrwt>
<totfact> 0.13377206E+01</totfact>
</mgrwt>
</event>
<event>
 4    1  0.3757815E-001  0.1824770E+03  0.7546771E-02  0.1165427E+00
          2   -1    0    0  502    0  0.00000000000E+00  0.00000000000E+00  0.40338587481E+03  0.40338587481E+03  0.00000000000E+00 0. -1.
         -2   -1    0    0    0  501 -0.00000000000E+00 -0.00000000000E+00 -0.10847675502E+03  0.10847675502E+03  0.00000000000E+00 0.  1.
          6    1    1    2  502    0  0.35879340938E+02  0.49259941396E+02  0.22324079293E+02  0.18383751915E+03  0.17200000000E+03 0.  1.
         -6    1    1    2    0  501 -0.35879340938E+02 -0.49259941396E+02  0.27258504050E+03  0.32802511068E+03  0.17200000000E+03 0. -1.
<mgrwt>
<rscale>  2 0.18247704E+03</rscale>
<asrwt>0</asrwt>
<pdfrwt beam="1">  1        2 0.10084647E+00 0.18247704E+03</pdfrwt>
<pdfrwt beam="2">  1       -2 0.27119190E-01 0.18247704E+03</pdfrwt>
<totfact> 0.56302716E+02</totfact>
</mgrwt>
</event>
<event>
 4    1  0.3757815E-001  0.2836235E+03  0.7546771E-02  0.1093726E+00
          2   -1    0    0  502    0  0.00000000000E+00  0.00000000000E+00  0.87935012596E+03  0.87935012596E+03  0.00000000000E+00 0.  1.
         -2   -1    0    0    0  501 -0.00000000000E+00 -0.00000000000E+00 -0.91821174197E+02  0.91821174197E+02  0.00000000000E+00 0. -1.
          6    1    1    2  502    0 -0.86084362542E-01 -0.22551777001E+03  0.42339725246E+03  0.50961505609E+03  0.17200000000E+03 0.  1.
         -6    1    1    2    0  501  0.86084362542E-01  0.22551777001E+03  0.36413169930E+03  0.46155624407E+03  0.17200000000E+03 0.  1.
<mgrwt>
<rscale>  2 0.28362347E+03</rscale>
<asrwt>0</asrwt>
<pdfrwt beam="1">  1        2 0.21983751E+00 0.28362347E+03</pdfrwt>
<pdfrwt beam="2">  1       -2 0.22955296E-01 0.28362347E+03</pdfrwt>
<totfact> 0.24784002E+02</totfact>
</mgrwt>
</event>
<event>
 4    1  0.3757815E-001  0.1757100E+03  0.7546771E-02  0.1172021E+00
         -2   -1    0    0    0  501 -0.00000000000E+00  0.00000000000E+00  0.42719923928E+02  0.42719923928E+02  0.00000000000E+00 0. -1.
          2   -1    0    0  502    0  0.00000000000E+00 -0.00000000000E+00 -0.88572162435E+03  0.88572162435E+03  0.00000000000E+00 0.  1.
          6    1    1    2  502    0 -0.31243167479E+02  0.17716553290E+02 -0.62065460182E+03  0.64504739867E+03  0.17200000000E+03 0.  1.
         -6    1    1    2    0  501  0.31243167479E+02 -0.17716553290E+02 -0.22234709861E+03  0.28339414961E+03  0.17200000000E+03 0. -1.
<mgrwt>
<rscale>  2 0.17571002E+03</rscale>
<asrwt>0</asrwt>
<pdfrwt beam="1">  1        2 0.22143040E+00 0.17571002E+03</pdfrwt>
<pdfrwt beam="2">  1       -2 0.10679981E-01 0.17571002E+03</pdfrwt>
<totfact> 0.88854331E+02</totfact>
</mgrwt>
</event>
<event>
 4    1  0.3757815E-001  0.2393481E+03  0.7546771E-02  0.1120228E+00
          2   -1    0    0  502    0  0.00000000000E+00  0.00000000000E+00  0.13784168768E+03  0.13784168768E+03  0.00000000000E+00 0.  1.
         -2   -1    0    0    0  501 -0.00000000000E+00 -0.00000000000E+00 -0.80159737875E+03  0.80159737875E+03  0.00000000000E+00 0. -1.
          6    1    1    2  502    0 -0.15815661071E+03  0.51865243132E+02 -0.59281600082E+01  0.23942151123E+03  0.17200000000E+03 0.  1.
         -6    1    1    2    0  501  0.15815661071E+03 -0.51865243132E+02 -0.65782753107E+03  0.70001755520E+03  0.17200000000E+03 0. -1.
<mgrwt>
<rscale>  2 0.23934811E+03</rscale>
<asrwt>0</asrwt>
<pdfrwt beam="1">  1        2 0.34460422E-01 0.23934811E+03</pdfrwt>
<pdfrwt beam="2">  1       -2 0.20039934E+00 0.23934811E+03</pdfrwt>
<totfact> 0.21876894E+01</totfact>
</mgrwt>
</event>
<event>
 4    1  0.3757815E-001  0.1775197E+03  0.7546771E-02  0.1170225E+00
          2   -1    0    0  502    0  0.00000000000E+00  0.00000000000E+00  0.17115448327E+03  0.17115448327E+03  0.00000000000E+00 0.  1.
         -2   -1    0    0    0  501 -0.00000000000E+00 -0.00000000000E+00 -0.18418327898E+03  0.18418327898E+03  0.00000000000E+00 0. -1.
          6    1    1    2  502    0  0.19241400606E+02 -0.39484429273E+02 -0.97634714575E+01  0.17778801148E+03  0.17200000000E+03 0. -1.
         -6    1    1    2    0  501 -0.19241400606E+02  0.39484429273E+02 -0.32653242547E+01  0.17754975076E+03  0.17200000000E+03 0. -1.
<mgrwt>
<rscale>  2 0.17751972E+03</rscale>
<asrwt>0</asrwt>
<pdfrwt beam="1">  1        2 0.42788621E-01 0.17751972E+03</pdfrwt>
<pdfrwt beam="2">  1       -2 0.46045820E-01 0.17751972E+03</pdfrwt>
<totfact> 0.53879150E+02</totfact>
</mgrwt>
</event>
<event>
 4    1  0.3757815E-001  0.1900562E+03  0.7546771E-02  0.1158411E+00
          2   -1    0    0  502    0  0.00000000000E+00  0.00000000000E+00  0.16623458212E+04  0.16623458212E+04  0.00000000000E+00 0.  1.
         -2   -1    0    0    0  501 -0.00000000000E+00 -0.00000000000E+00 -0.27262541006E+02  0.27262541006E+02  0.00000000000E+00 0. -1.
          6    1    1    2  502    0  0.10045944678E+02 -0.80227518880E+02  0.43694212029E+03  0.47648692770E+03  0.17200000000E+03 0.  1.
         -6    1    1    2    0  501 -0.10045944678E+02  0.80227518880E+02  0.11981411599E+04  0.12131214345E+04  0.17200000000E+03 0.  1.
<mgrwt>
<rscale>  2 0.19005624E+03</rscale>
<asrwt>0</asrwt>
<pdfrwt beam="1">  1        2 0.41558611E+00 0.19005624E+03</pdfrwt>
<pdfrwt beam="2">  1       -2 0.68156409E-02 0.19005624E+03</pdfrwt>
<totfact> 0.38581270E+02</totfact>
</mgrwt>
</event>
<event>
 4    1  0.3757815E-001  0.1970491E+03  0.7546771E-02  0.1152253E+00
         -1   -1    0    0    0  501 -0.00000000000E+00  0.00000000000E+00  0.41333648103E+02  0.41333648103E+02  0.00000000000E+00 0.  1.
          1   -1    0    0  502    0  0.00000000000E+00 -0.00000000000E+00 -0.93946309365E+03  0.93946309365E+03  0.00000000000E+00 0. -1.
          6    1    1    2  502    0 -0.37532405534E+02  0.88519345264E+02 -0.44469653976E+03  0.48639836392E+03  0.17200000000E+03 0. -1.
         -6    1    1    2    0  501  0.37532405534E+02 -0.88519345264E+02 -0.45343290578E+03  0.49439837783E+03  0.17200000000E+03 0. -1.
<mgrwt>
<rscale>  2 0.19704912E+03</rscale>
<asrwt>0</asrwt>
<pdfrwt beam="1">  1        1 0.23486578E+00 0.19704912E+03</pdfrwt>
<pdfrwt beam="2">  1       -1 0.10333412E-01 0.19704912E+03</pdfrwt>
<totfact> 0.40402618E+02</totfact>
</mgrwt>
</event>
<event>
 4    1  0.3757815E-001  0.1936273E+03  0.7546771E-02  0.1155230E+00
         -2   -1    0    0    0  501 -0.00000000000E+00  0.00000000000E+00  0.45401845201E+02  0.45401845201E+02  0.00000000000E+00 0. -1.
          2   -1    0    0  502    0  0.00000000000E+00 -0.00000000000E+00 -0.83100063236E+03  0.83100063236E+03  0.00000000000E+00 0.  1.
          6    1    1    2  502    0  0.34526647514E+01  0.88857265478E+02 -0.42756115126E+03  0.46936134543E+03  0.17200000000E+03 0.  1.
         -6    1    1    2    0  501 -0.34526647514E+01 -0.88857265478E+02 -0.35803763590E+03  0.40704113213E+03  0.17200000000E+03 0. -1.
<mgrwt>
<rscale>  2 0.19362731E+03</rscale>
<asrwt>0</asrwt>
<pdfrwt beam="1">  1        2 0.20775015E+00 0.19362731E+03</pdfrwt>
<pdfrwt beam="2">  1       -2 0.11350462E-01 0.19362731E+03</pdfrwt>
<totfact> 0.89823629E+02</totfact>
</mgrwt>
</event>
<event>
 4    1  0.3757815E-001  0.1756031E+03  0.7546771E-02  0.1172127E+00
          1   -1    0    0  502    0  0.00000000000E+00  0.00000000000E+00  0.51230948821E+03  0.51230948821E+03  0.00000000000E+00 0. -1.
         -1   -1    0    0    0  501 -0.00000000000E+00 -0.00000000000E+00 -0.61074277251E+02  0.61074277251E+02  0.00000000000E+00 0.  1.
          6    1    1    2  502    0 -0.34280170831E+02 -0.87938675931E+01  0.26009343184E+03  0.31382328707E+03  0.17200000000E+03 0. -1.
         -6    1    1    2    0  501  0.34280170831E+02  0.87938675931E+01  0.19114177912E+03  0.25956047840E+03  0.17200000000E+03 0.  1.
<mgrwt>
<rscale>  2 0.17560314E+03</rscale>
<asrwt>0</asrwt>
<pdfrwt beam="1">  1        1 0.12807736E+00 0.17560314E+03</pdfrwt>
<pdfrwt beam="2">  1       -1 0.15268571E-01 0.17560314E+03</pdfrwt>
<totfact> 0.68238446E+02</totfact>
</mgrwt>
</event>
<event>
 4    1  0.3757815E-001  0.2141570E+03  0.7546771E-02  0.1138316E+00
         -2   -1    0    0    0  501 -0.00000000000E+00  0.00000000000E+00  0.14049321158E+03  0.14049321158E+03  0.00000000000E+00 0.  1.
          2   -1    0    0  502    0  0.00000000000E+00 -0.00000000000E+00 -0.35759168888E+03  0.35759168888E+03  0.00000000000E+00 0. -1.
          6    1    1    2  502    0 -0.31412801520E+02  0.12366266241E+03 -0.35048789087E+02  0.21700607316E+03  0.17200000000E+03 0. -1.
         -6    1    1    2    0  501  0.31412801520E+02 -0.12366266241E+03 -0.18204968822E+03  0.28107882729E+03  0.17200000000E+03 0.  1.
<mgrwt>
<rscale>  2 0.21415699E+03</rscale>
<asrwt>0</asrwt>
<pdfrwt beam="1">  1        2 0.89397921E-01 0.21415699E+03</pdfrwt>
<pdfrwt beam="2">  1       -2 0.35123303E-01 0.21415699E+03</pdfrwt>
<totfact> 0.40373738E+02</totfact>
</mgrwt>
</event>
<event>
 4    1  0.3757815E-001  0.1930410E+03  0.7546771E-02  0.1155747E+00
          1   -1    0    0  502    0  0.00000000000E+00  0.00000000000E+00  0.22538217292E+03  0.22538217292E+03  0.00000000000E+00 0.  1.
         -1   -1    0    0    0  501 -0.00000000000E+00 -0.00000000000E+00 -0.17060325614E+03  0.17060325614E+03  0.00000000000E+00 0. -1.
          6    1    1    2  502    0 -0.58485217730E+02 -0.65271115022E+02  0.62163504129E+02  0.20280320608E+03  0.17200000000E+03 0.  1.
         -6    1    1    2    0  501  0.58485217730E+02  0.65271115022E+02 -0.73845873513E+01  0.19318222299E+03  0.17200000000E+03 0.  1.
<mgrwt>
<rscale>  2 0.19304103E+03</rscale>
<asrwt>0</asrwt>
<pdfrwt beam="1">  1        1 0.56345543E-01 0.19304103E+03</pdfrwt>
<pdfrwt beam="2">  1       -1 0.42650814E-01 0.19304103E+03</pdfrwt>
<totfact> 0.37777696E+02</totfact>
</mgrwt>
</event>
<event>
 4    1  0.3757815E-001  0.1920202E+03  0.7546771E-02  0.1156652E+00
         -1   -1    0    0    0  501 -0.00000000000E+00  0.00000000000E+00  0.85114271414E+02  0.85114271414E+02  0.00000000000E+00 0.  1.
          1   -1    0    0  502    0  0.00000000000E+00 -0.00000000000E+00 -0.44151651317E+03  0.44151651317E+03  0.00000000000E+00 0. -1.
          6    1    1    2  502    0  0.59881925985E+02  0.60843289675E+02 -0.14206869331E+03  0.23886243861E+03  0.17200000000E+03 0.  1.
         -6    1    1    2    0  501 -0.59881925985E+02 -0.60843289675E+02 -0.21433354845E+03  0.28776834598E+03  0.17200000000E+03 0. -1.
<mgrwt>
<rscale>  2 0.19202018E+03</rscale>
<asrwt>0</asrwt>
<pdfrwt beam="1">  1        1 0.11037913E+00 0.19202018E+03</pdfrwt>
<pdfrwt beam="2">  1       -1 0.21278568E-01 0.19202018E+03</pdfrwt>
<totfact> 0.50062922E+02</totfact>
</mgrwt>
</event>
<event>
 4    1  0.3757815E-001  0.1955739E+03  0.7546771E-02  0.1153528E+00
         -2   -1    0    0    0  501 -0.00000000000E+00  0.00000000000E+00  0.94256602332E+02  0.94256602332E+02  0.00000000000E+00 0. -1.
          2   -1    0    0  502    0  0.00000000000E+00 -0.00000000000E+00 -0.76942018099E+03  0.76942018099E+03  0.00000000000E+00 0.  1.
          6    1    1    2  502    0  0.66568113622E+02 -0.65067953648E+02 -0.40712978274E+02  0.19976661118E+03  0.17200000000E+03 0. -1.
         -6    1    1    2    0  501 -0.66568113622E+02  0.65067953648E+02 -0.63445060038E+03  0.66391017214E+03  0.17200000000E+03 0.  1.
<mgrwt>
<rscale>  2 0.19557391E+03</rscale>
<asrwt>0</asrwt>
<pdfrwt beam="1">  1        2 0.19235504E+00 0.19557391E+03</pdfrwt>
<pdfrwt beam="2">  1       -2 0.23564151E-01 0.19557391E+03</pdfrwt>
<totfact> 0.30152119E+02</totfact>
</mgrwt>
</event>
<event>
 4    1  0.3757815E-001  0.2686148E+03  0.7546771E-02  0.1102075E+00
          2   -1    0    0  502    0  0.00000000000E+00  0.00000000000E+00  0.42779920980E+03  0.42779920980E+03  0.00000000000E+00 0. -1.
         -2   -1    0    0    0  501 -0.00000000000E+00 -0.00000000000E+00 -0.18032558510E+03  0.18032558510E+03  0.00000000000E+00 0.  1.
          6    1    1    2  502    0  0.18489836969E+03  0.91555916227E+02  0.46409719975E+02  0.27259448824E+03  0.17200000000E+03 0.  1.
         -6    1    1    2    0  501 -0.18489836969E+03 -0.91555916227E+02  0.20106390472E+03  0.33553030667E+03  0.17200000000E+03 0.  1.
<mgrwt>
<rscale>  2 0.26861477E+03</rscale>
<asrwt>0</asrwt>
<pdfrwt beam="1">  1        2 0.10694980E+00 0.26861477E+03</pdfrwt>
<pdfrwt beam="2">  1       -2 0.45081397E-01 0.26861477E+03</pdfrwt>
<totfact> 0.20168556E+02</totfact>
</mgrwt>
</event>
<event>
 4    1  0.3757815E-001  0.1850915E+03  0.7546771E-02  0.1162965E+00
         -1   -1    0    0    0  501 -0.00000000000E+00  0.00000000000E+00  0.24615718570E+03  0.24615718570E+03  0.00000000000E+00 0.  1.
          1   -1    0    0  502    0  0.00000000000E+00 -0.00000000000E+00 -0.14175410559E+03  0.14175410559E+03  0.00000000000E+00 0. -1.
          6    1    1    2  502    0  0.58846383795E+02  0.34813119660E+02  0.26038078513E+02  0.18691396876E+03  0.17200000000E+03 0.  1.
         -6    1    1    2    0  501 -0.58846383795E+02 -0.34813119660E+02  0.78365001600E+02  0.20099732252E+03  0.17200000000E+03 0. -1.
<mgrwt>
<rscale>  2 0.18509146E+03</rscale>
<asrwt>0</asrwt>
<pdfrwt beam="1">  1        1 0.35438527E-01 0.18509146E+03</pdfrwt>
<pdfrwt beam="2">  1       -1 0.61539296E-01 0.18509146E+03</pdfrwt>
<totfact> 0.34264957E+02</totfact>
</mgrwt>
</event>
<event>
 4    1  0.3757815E-001  0.2255531E+03  0.7546771E-02  0.1129809E+00
          3   -1    0    0  502    0  0.00000000000E+00  0.00000000000E+00  0.89246637579E+02  0.89246637579E+02  0.00000000000E+00 0.  1.
         -3   -1    0    0    0  501 -0.00000000000E+00 -0.00000000000E+00 -0.57699334815E+03  0.57699334815E+03  0.00000000000E+00 0. -1.
          6    1    1    2  502    0 -0.14590481406E+03 -0.14100188226E+01 -0.28044082532E+03  0.35989062148E+03  0.17200000000E+03 0. -1.
         -6    1    1    2    0  501  0.14590481406E+03  0.14100188226E+01 -0.20730588524E+03  0.30634936425E+03  0.17200000000E+03 0. -1.
<mgrwt>
<rscale>  2 0.22555310E+03</rscale>
<asrwt>0</asrwt>
<pdfrwt beam="1">  1        3 0.22311659E-01 0.22555310E+03</pdfrwt>
<pdfrwt beam="2">  1       -3 0.14424834E+00 0.22555310E+03</pdfrwt>
<totfact> 0.17129536E+01</totfact>
</mgrwt>
</event>
<event>
 4    1  0.3757815E-001  0.2937438E+03  0.7546771E-02  0.1088411E+00
          1   -1    0    0  502    0  0.00000000000E+00  0.00000000000E+00  0.44562135346E+03  0.44562135346E+03  0.00000000000E+00 0. -1.
         -1   -1    0    0    0  501 -0.00000000000E+00 -0.00000000000E+00 -0.23143274694E+03  0.23143274694E+03  0.00000000000E+00 0.  1.
          6    1    1    2  502    0 -0.22589283522E+03 -0.75324969958E+02  0.24391308738E+03  0.38181018621E+03  0.17200000000E+03 0.  1.
         -6    1    1    2    0  501  0.22589283522E+03  0.75324969958E+02 -0.29724480854E+02  0.29524391419E+03  0.17200000000E+03 0.  1.
<mgrwt>
<rscale>  2 0.29374381E+03</rscale>
<asrwt>0</asrwt>
<pdfrwt beam="1">  1        1 0.11140534E+00 0.29374381E+03</pdfrwt>
<pdfrwt beam="2">  1       -1 0.57858187E-01 0.29374381E+03</pdfrwt>
<totfact> 0.84348374E+01</totfact>
</mgrwt>
</event>
<event>
 4    1  0.3757815E-001  0.2020606E+03  0.7546771E-02  0.1148012E+00
         -2   -1    0    0    0  501 -0.00000000000E+00  0.00000000000E+00  0.39000370062E+02  0.39000370062E+02  0.00000000000E+00 0.  1.
          2   -1    0    0  502    0  0.00000000000E+00 -0.00000000000E+00 -0.10566636425E+04  0.10566636425E+04  0.00000000000E+00 0. -1.
          6    1    1    2  502    0  0.78041605474E+02 -0.71791397570E+02 -0.45610269561E+03  0.49885685912E+03  0.17200000000E+03 0.  1.
         -6    1    1    2    0  501 -0.78041605474E+02  0.71791397570E+02 -0.56156057681E+03  0.59680715342E+03  0.17200000000E+03 0.  1.
<mgrwt>
<rscale>  2 0.20206063E+03</rscale>
<asrwt>0</asrwt>
<pdfrwt beam="1">  1        2 0.26416591E+00 0.20206063E+03</pdfrwt>
<pdfrwt beam="2">  1       -2 0.97500925E-02 0.20206063E+03</pdfrwt>
<totfact> 0.73138403E+02</totfact>
</mgrwt>
</event>
<event>
 4    1  0.3757815E-001  0.3132625E+03  0.7546771E-02  0.1078793E+00
          4   -1    0    0  502    0  0.00000000000E+00  0.00000000000E+00  0.48627696212E+03  0.48627696212E+03  0.00000000000E+00 0. -1.
         -4   -1    0    0    0  501 -0.00000000000E+00 -0.00000000000E+00 -0.24241396698E+03  0.24241396698E+03  0.00000000000E+00 0.  1.
          6    1    1    2  502    0 -0.67781900138E+01 -0.26173165188E+03  0.27105374835E+03  0.41425057145E+03  0.17200000000E+03 0.  1.
         -6    1    1    2    0  501  0.67781900138E+01  0.26173165188E+03 -0.27190753214E+02  0.31444035765E+03  0.17200000000E+03 0.  1.
<mgrwt>
<rscale>  2 0.31326251E+03</rscale>
<asrwt>0</asrwt>
<pdfrwt beam="1">  1        4 0.12156924E+00 0.31326251E+03</pdfrwt>
<pdfrwt beam="2">  1       -4 0.60603493E-01 0.31326251E+03</pdfrwt>
<totfact> 0.25271190E+00</totfact>
</mgrwt>
</event>
<event>
 4    1  0.3757815E-001  0.2077729E+03  0.7546771E-02  0.1143342E+00
         -2   -1    0    0    0  501 -0.00000000000E+00  0.00000000000E+00  0.15873035015E+02  0.15873035015E+02  0.00000000000E+00 0.  1.
          2   -1    0    0  502    0  0.00000000000E+00 -0.00000000000E+00 -0.27437096031E+04  0.27437096031E+04  0.00000000000E+00 0. -1.
          6    1    1    2  502    0  0.45666732799E+02  0.10723855622E+03 -0.12347881602E+04  0.12521467002E+04  0.17200000000E+03 0. -1.
         -6    1    1    2    0  501 -0.45666732799E+02 -0.10723855622E+03 -0.14930484080E+04  0.15074359379E+04  0.17200000000E+03 0.  1.
<mgrwt>
<rscale>  2 0.20777285E+03</rscale>
<asrwt>0</asrwt>
<pdfrwt beam="1">  1        2 0.68592718E+00 0.20777285E+03</pdfrwt>
<pdfrwt beam="2">  1       -2 0.39682601E-02 0.20777285E+03</pdfrwt>
<totfact> 0.53530292E+01</totfact>
</mgrwt>
</event>
<event>
 4    1  0.3757815E-001  0.1753094E+03  0.7546771E-02  0.1172421E+00
         -2   -1    0    0    0  501 -0.00000000000E+00  0.00000000000E+00  0.95041362546E+02  0.95041362546E+02  0.00000000000E+00 0.  1.
          2   -1    0    0  502    0  0.00000000000E+00 -0.00000000000E+00 -0.77210812549E+03  0.77210812549E+03  0.00000000000E+00 0. -1.
          6    1    1    2  502    0 -0.26767657279E+02 -0.20805766767E+02 -0.79948431532E+01  0.17549160927E+03  0.17200000000E+03 0.  1.
         -6    1    1    2    0  501  0.26767657279E+02  0.20805766767E+02 -0.66907191979E+03  0.69165787877E+03  0.17200000000E+03 0. -1.
<mgrwt>
<rscale>  2 0.17530940E+03</rscale>
<asrwt>0</asrwt>
<pdfrwt beam="1">  1        2 0.19302703E+00 0.17530940E+03</pdfrwt>
<pdfrwt beam="2">  1       -2 0.23760341E-01 0.17530940E+03</pdfrwt>
<totfact> 0.29680813E+02</totfact>
</mgrwt>
</event>
<event>
 4    1  0.3757815E-001  0.1733045E+03  0.7546771E-02  0.1174445E+00
         -2   -1    0    0    0  501 -0.00000000000E+00  0.00000000000E+00  0.47815301744E+03  0.47815301744E+03  0.00000000000E+00 0.  1.
          2   -1    0    0  502    0  0.00000000000E+00 -0.00000000000E+00 -0.65489970380E+02  0.65489970380E+02  0.00000000000E+00 0. -1.
          6    1    1    2  502    0 -0.16548730654E+02  0.13288171211E+02  0.26128339254E+03  0.31353380551E+03  0.17200000000E+03 0. -1.
         -6    1    1    2    0  501  0.16548730654E+02 -0.13288171211E+02  0.15137965452E+03  0.23010918231E+03  0.17200000000E+03 0. -1.
<mgrwt>
<rscale>  2 0.17330446E+03</rscale>
<asrwt>0</asrwt>
<pdfrwt beam="1">  1        2 0.16372494E-01 0.17330446E+03</pdfrwt>
<pdfrwt beam="2">  1       -2 0.11953824E+00 0.17330446E+03</pdfrwt>
<totfact> 0.19766271E+02</totfact>
</mgrwt>
</event>
<event>
 4    1  0.3757815E-001  0.3206074E+03  0.7546771E-02  0.1075370E+00
         -1   -1    0    0    0  501 -0.00000000000E+00  0.00000000000E+00  0.78480482425E+03  0.78480482425E+03  0.00000000000E+00 0. -1.
          1   -1    0    0  502    0  0.00000000000E+00 -0.00000000000E+00 -0.13119300810E+03  0.13119300810E+03  0.00000000000E+00 0.  1.
          6    1    1    2  502    0  0.23606705744E+03  0.13220223589E+03  0.30809634198E+03  0.44464867336E+03  0.17200000000E+03 0. -1.
         -6    1    1    2    0  501 -0.23606705744E+03 -0.13220223589E+03  0.34551547417E+03  0.47134915898E+03  0.17200000000E+03 0.  1.
<mgrwt>
<rscale>  2 0.32060737E+03</rscale>
<asrwt>0</asrwt>
<pdfrwt beam="1">  1        1 0.32798254E-01 0.32060737E+03</pdfrwt>
<pdfrwt beam="2">  1       -1 0.19620119E+00 0.32060737E+03</pdfrwt>
<totfact> 0.23874024E+01</totfact>
</mgrwt>
</event>
<event>
 4    1  0.3757815E-001  0.1886642E+03  0.7546771E-02  0.1159672E+00
         -1   -1    0    0    0  501 -0.00000000000E+00  0.00000000000E+00  0.37059316834E+02  0.37059316834E+02  0.00000000000E+00 0.  1.
          1   -1    0    0  502    0  0.00000000000E+00 -0.00000000000E+00 -0.96254449909E+03  0.96254449909E+03  0.00000000000E+00 0. -1.
          6    1    1    2  502    0 -0.66264583031E+02  0.40239165164E+02 -0.43951294794E+03  0.47829469659E+03  0.17200000000E+03 0.  1.
         -6    1    1    2    0  501  0.66264583031E+02 -0.40239165164E+02 -0.48597223432E+03  0.52130911934E+03  0.17200000000E+03 0.  1.
<mgrwt>
<rscale>  2 0.18866421E+03</rscale>
<asrwt>0</asrwt>
<pdfrwt beam="1">  1        1 0.24063612E+00 0.18866421E+03</pdfrwt>
<pdfrwt beam="2">  1       -1 0.92648295E-02 0.18866421E+03</pdfrwt>
<totfact> 0.45236970E+02</totfact>
</mgrwt>
</event>
<event>
 4    1  0.3757815E-001  0.1869774E+03  0.7546771E-02  0.1161216E+00
         -1   -1    0    0    0  501 -0.00000000000E+00  0.00000000000E+00  0.38712052204E+02  0.38712052204E+02  0.00000000000E+00 0.  1.
          1   -1    0    0  502    0  0.00000000000E+00 -0.00000000000E+00 -0.91329822904E+03  0.91329822904E+03  0.00000000000E+00 0. -1.
          6    1    1    2  502    0 -0.73323129652E+02 -0.52378183178E+00 -0.38697409760E+03  0.42977844048E+03  0.17200000000E+03 0.  1.
         -6    1    1    2    0  501  0.73323129652E+02  0.52378183178E+00 -0.48761207924E+03  0.52223184076E+03  0.17200000000E+03 0. -1.
<mgrwt>
<rscale>  2 0.18697742E+03</rscale>
<asrwt>0</asrwt>
<pdfrwt beam="1">  1        1 0.22832454E+00 0.18697742E+03</pdfrwt>
<pdfrwt beam="2">  1       -1 0.96780136E-02 0.18697742E+03</pdfrwt>
<totfact> 0.47742990E+02</totfact>
</mgrwt>
</event>
<event>
 4    1  0.3757815E-001  0.2108906E+03  0.7546771E-02  0.1140863E+00
         -2   -1    0    0    0  501 -0.00000000000E+00  0.00000000000E+00  0.60599511768E+02  0.60599511768E+02  0.00000000000E+00 0.  1.
          2   -1    0    0  502    0  0.00000000000E+00 -0.00000000000E+00 -0.81039944858E+03  0.81039944858E+03  0.00000000000E+00 0. -1.
          6    1    1    2  502    0  0.96865302902E+02 -0.74215678366E+02 -0.24110913184E+03  0.32032556451E+03  0.17200000000E+03 0.  1.
         -6    1    1    2    0  501 -0.96865302902E+02  0.74215678366E+02 -0.50869080497E+03  0.55067339584E+03  0.17200000000E+03 0. -1.
<mgrwt>
<rscale>  2 0.21089062E+03</rscale>
<asrwt>0</asrwt>
<pdfrwt beam="1">  1        2 0.20259986E+00 0.21089062E+03</pdfrwt>
<pdfrwt beam="2">  1       -2 0.15149878E-01 0.21089062E+03</pdfrwt>
<totfact> 0.58462812E+02</totfact>
</mgrwt>
</event>
<event>
 4    1  0.3757815E-001  0.1752262E+03  0.7546771E-02  0.1172505E+00
          2   -1    0    0  502    0  0.00000000000E+00  0.00000000000E+00  0.39798938408E+03  0.39798938408E+03  0.00000000000E+00 0.  1.
         -2   -1    0    0    0  501 -0.00000000000E+00 -0.00000000000E+00 -0.80885924186E+02  0.80885924186E+02  0.00000000000E+00 0. -1.
          6    1    1    2  502    0  0.29512163565E+02  0.15788137840E+02  0.21002118851E+03  0.27351989455E+03  0.17200000000E+03 0.  1.
         -6    1    1    2    0  501 -0.29512163565E+02 -0.15788137840E+02  0.10708227138E+03  0.20535541371E+03  0.17200000000E+03 0. -1.
<mgrwt>
<rscale>  2 0.17522623E+03</rscale>
<asrwt>0</asrwt>
<pdfrwt beam="1">  1        2 0.99497341E-01 0.17522623E+03</pdfrwt>
<pdfrwt beam="2">  1       -2 0.20221482E-01 0.17522623E+03</pdfrwt>
<totfact> 0.95343460E+02</totfact>
</mgrwt>
</event>
<event>
 4    1  0.3757815E-001  0.1894115E+03  0.7546771E-02  0.1158993E+00
          1   -1    0    0  502    0  0.00000000000E+00  0.00000000000E+00  0.35637113903E+03  0.35637113903E+03  0.00000000000E+00 0. -1.
         -1   -1    0    0    0  501 -0.00000000000E+00 -0.00000000000E+00 -0.10087535198E+03  0.10087535198E+03  0.00000000000E+00 0.  1.
          6    1    1    2  502    0 -0.66258349579E+02 -0.43617994376E+02  0.13800543225E+03  0.23435485412E+03  0.17200000000E+03 0. -1.
         -6    1    1    2    0  501  0.66258349579E+02  0.43617994376E+02  0.11749035480E+03  0.22289163689E+03  0.17200000000E+03 0.  1.
<mgrwt>
<rscale>  2 0.18941145E+03</rscale>
<asrwt>0</asrwt>
<pdfrwt beam="1">  1        1 0.89092782E-01 0.18941145E+03</pdfrwt>
<pdfrwt beam="2">  1       -1 0.25218839E-01 0.18941145E+03</pdfrwt>
<totfact> 0.51228150E+02</totfact>
</mgrwt>
</event>
<event>
 4    1  0.3757815E-001  0.1905019E+03  0.7546771E-02  0.1158009E+00
         -2   -1    0    0    0  501 -0.00000000000E+00  0.00000000000E+00  0.18705117328E+03  0.18705117328E+03  0.00000000000E+00 0. -1.
          2   -1    0    0  502    0  0.00000000000E+00 -0.00000000000E+00 -0.73104637006E+03  0.73104637006E+03  0.00000000000E+00 0.  1.
          6    1    1    2  502    0  0.65824637162E+02  0.48724803647E+02  0.12144886098E+03  0.22592214407E+03  0.17200000000E+03 0. -1.
         -6    1    1    2    0  501 -0.65824637162E+02 -0.48724803647E+02 -0.66544405776E+03  0.69217539927E+03  0.17200000000E+03 0.  1.
<mgrwt>
<rscale>  2 0.19050194E+03</rscale>
<asrwt>0</asrwt>
<pdfrwt beam="1">  1        2 0.18276159E+00 0.19050194E+03</pdfrwt>
<pdfrwt beam="2">  1       -2 0.46762794E-01 0.19050194E+03</pdfrwt>
<totfact> 0.92298196E+01</totfact>
</mgrwt>
</event>
<event>
 4    1  0.3757815E-001  0.1812229E+03  0.7546771E-02  0.1166625E+00
         -2   -1    0    0    0  501 -0.00000000000E+00  0.00000000000E+00  0.55503879107E+02  0.55503879107E+02  0.00000000000E+00 0.  1.
          2   -1    0    0  502    0  0.00000000000E+00 -0.00000000000E+00 -0.82608466328E+03  0.82608466328E+03  0.00000000000E+00 0. -1.
          6    1    1    2  502    0  0.30717705624E+02 -0.48105899549E+02 -0.62008408435E+03  0.64602324005E+03  0.17200000000E+03 0. -1.
         -6    1    1    2    0  501 -0.30717705624E+02  0.48105899549E+02 -0.15049669982E+03  0.23556530234E+03  0.17200000000E+03 0.  1.
<mgrwt>
<rscale>  2 0.18122294E+03</rscale>
<asrwt>0</asrwt>
<pdfrwt beam="1">  1        2 0.20652116E+00 0.18122294E+03</pdfrwt>
<pdfrwt beam="2">  1       -2 0.13875970E-01 0.18122294E+03</pdfrwt>
<totfact> 0.65662447E+02</totfact>
</mgrwt>
</event>
<event>
 4    1  0.3757815E-001  0.3264171E+03  0.7546771E-02  0.1072733E+00
         -1   -1    0    0    0  501 -0.00000000000E+00  0.00000000000E+00  0.86663964501E+02  0.86663964501E+02  0.00000000000E+00 0.  1.
          1   -1    0    0  502    0  0.00000000000E+00 -0.00000000000E+00 -0.13831837968E+04  0.13831837968E+04  0.00000000000E+00 0. -1.
          6    1    1    2  502    0  0.54344128344E+02 -0.27204927218E+03 -0.89328022903E+03  0.95105081796E+03  0.17200000000E+03 0. -1.
         -6    1    1    2    0  501 -0.54344128344E+02  0.27204927218E+03 -0.40323960332E+03  0.51879694339E+03  0.17200000000E+03 0. -1.
<mgrwt>
<rscale>  2 0.32641705E+03</rscale>
<asrwt>0</asrwt>
<pdfrwt beam="1">  1        1 0.34579595E+00 0.32641705E+03</pdfrwt>
<pdfrwt beam="2">  1       -1 0.21665991E-01 0.32641705E+03</pdfrwt>
<totfact> 0.40702701E+01</totfact>
</mgrwt>
</event>
<event>
 4    1  0.3757815E-001  0.1967090E+03  0.7546771E-02  0.1152546E+00
         -2   -1    0    0    0  501 -0.00000000000E+00  0.00000000000E+00  0.10452739440E+03  0.10452739440E+03  0.00000000000E+00 0.  1.
          2   -1    0    0  502    0  0.00000000000E+00 -0.00000000000E+00 -0.37863482184E+03  0.37863482184E+03  0.00000000000E+00 0. -1.
          6    1    1    2  502    0  0.65831079290E+02  0.69113612443E+02 -0.10096353571E+03  0.22110644036E+03  0.17200000000E+03 0. -1.
         -6    1    1    2    0  501 -0.65831079290E+02 -0.69113612443E+02 -0.17314389174E+03  0.26205577588E+03  0.17200000000E+03 0.  1.
<mgrwt>
<rscale>  2 0.19670898E+03</rscale>
<asrwt>0</asrwt>
<pdfrwt beam="1">  1        2 0.94658705E-01 0.19670898E+03</pdfrwt>
<pdfrwt beam="2">  1       -2 0.26131849E-01 0.19670898E+03</pdfrwt>
<totfact> 0.64730254E+02</totfact>
</mgrwt>
</event>
<event>
 4    1  0.3757815E-001  0.1950630E+03  0.7546771E-02  0.1153972E+00
          2   -1    0    0  502    0  0.00000000000E+00  0.00000000000E+00  0.16042314637E+04  0.16042314637E+04  0.00000000000E+00 0.  1.
         -2   -1    0    0    0  501 -0.00000000000E+00 -0.00000000000E+00 -0.24148048873E+02  0.24148048873E+02  0.00000000000E+00 0. -1.
          6    1    1    2  502    0  0.70099347903E+02 -0.59595856376E+02  0.68142155843E+03  0.70879117162E+03  0.17200000000E+03 0. -1.
         -6    1    1    2    0  501 -0.70099347903E+02  0.59595856376E+02  0.89866185639E+03  0.91958834095E+03  0.17200000000E+03 0.  1.
<mgrwt>
<rscale>  2 0.19506303E+03</rscale>
<asrwt>0</asrwt>
<pdfrwt beam="1">  1        2 0.40105751E+00 0.19506303E+03</pdfrwt>
<pdfrwt beam="2">  1       -2 0.60370176E-02 0.19506303E+03</pdfrwt>
<totfact> 0.52331493E+02</totfact>
</mgrwt>
</event>
<event>
 4    1  0.3757815E-001  0.1852235E+03  0.7546771E-02  0.1162841E+00
         -2   -1    0    0    0  501 -0.00000000000E+00  0.00000000000E+00  0.52342288321E+02  0.52342288321E+02  0.00000000000E+00 0.  1.
          2   -1    0    0  502    0  0.00000000000E+00 -0.00000000000E+00 -0.84372460184E+03  0.84372460184E+03  0.00000000000E+00 0. -1.
          6    1    1    2  502    0  0.21630151274E+02 -0.65237243617E+02 -0.60733505860E+03  0.63495167911E+03  0.17200000000E+03 0. -1.
         -6    1    1    2    0  501 -0.21630151274E+02  0.65237243617E+02 -0.18404725492E+03  0.26111521105E+03  0.17200000000E+03 0.  1.
<mgrwt>
<rscale>  2 0.18522354E+03</rscale>
<asrwt>0</asrwt>
<pdfrwt beam="1">  1        2 0.21093115E+00 0.18522354E+03</pdfrwt>
<pdfrwt beam="2">  1       -2 0.13085572E-01 0.18522354E+03</pdfrwt>
<totfact> 0.69671202E+02</totfact>
</mgrwt>
</event>
<event>
 4    1  0.3757815E-001  0.1724430E+03  0.7546771E-02  0.1175324E+00
         -2   -1    0    0    0  501 -0.00000000000E+00  0.00000000000E+00  0.10577216515E+03  0.10577216515E+03  0.00000000000E+00 0.  1.
          2   -1    0    0  502    0  0.00000000000E+00 -0.00000000000E+00 -0.37496422073E+03  0.37496422073E+03  0.00000000000E+00 0. -1.
          6    1    1    2  502    0 -0.97117830443E+01 -0.76323496979E+01 -0.25483472770E+03  0.30769678246E+03  0.17200000000E+03 0. -1.
         -6    1    1    2    0  501  0.97117830443E+01  0.76323496979E+01 -0.14357327877E+02  0.17303960343E+03  0.17200000000E+03 0.  1.
<mgrwt>
<rscale>  2 0.17244295E+03</rscale>
<asrwt>0</asrwt>
<pdfrwt beam="1">  1        2 0.93741055E-01 0.17244295E+03</pdfrwt>
<pdfrwt beam="2">  1       -2 0.26443041E-01 0.17244295E+03</pdfrwt>
<totfact> 0.64135134E+02</totfact>
</mgrwt>
</event>
<event>
 4    1  0.3757815E-001  0.1745943E+03  0.7546771E-02  0.1173140E+00
         -1   -1    0    0    0  501 -0.00000000000E+00  0.00000000000E+00  0.91354054554E+02  0.91354054554E+02  0.00000000000E+00 0.  1.
          1   -1    0    0  502    0  0.00000000000E+00 -0.00000000000E+00 -0.44936932538E+03  0.44936932538E+03  0.00000000000E+00 0. -1.
          6    1    1    2  502    0  0.25600013106E+02  0.15614323823E+02 -0.41828813881E+02  0.17953500341E+03  0.17200000000E+03 0.  1.
         -6    1    1    2    0  501 -0.25600013106E+02 -0.15614323823E+02 -0.31618645694E+03  0.36118837652E+03  0.17200000000E+03 0. -1.
<mgrwt>
<rscale>  2 0.17459429E+03</rscale>
<asrwt>0</asrwt>
<pdfrwt beam="1">  1        1 0.11234233E+00 0.17459429E+03</pdfrwt>
<pdfrwt beam="2">  1       -1 0.22838514E-01 0.17459429E+03</pdfrwt>
<totfact> 0.43535871E+02</totfact>
</mgrwt>
</event>
<event>
 4    1  0.3757815E-001  0.2046211E+03  0.7546771E-02  0.1145898E+00
         -2   -1    0    0    0  501 -0.00000000000E+00  0.00000000000E+00  0.49322439019E+02  0.49322439019E+02  0.00000000000E+00 0.  1.
          2   -1    0    0  502    0  0.00000000000E+00 -0.00000000000E+00 -0.84907218512E+03  0.84907218512E+03  0.00000000000E+00 0. -1.
          6    1    1    2  502    0 -0.70316646072E+01  0.11061808004E+03 -0.39347260006E+03  0.44349801684E+03  0.17200000000E+03 0.  1.
         -6    1    1    2    0  501  0.70316646072E+01 -0.11061808004E+03 -0.40627714605E+03  0.45489660731E+03  0.17200000000E+03 0.  1.
<mgrwt>
<rscale>  2 0.20462112E+03</rscale>
<asrwt>0</asrwt>
<pdfrwt beam="1">  1        2 0.21226804E+00 0.20462112E+03</pdfrwt>
<pdfrwt beam="2">  1       -2 0.12330610E-01 0.20462112E+03</pdfrwt>
<totfact> 0.75708457E+02</totfact>
</mgrwt>
</event>
<event>
 4    1  0.3757815E-001  0.2091276E+03  0.7546771E-02  0.1142259E+00
         -2   -1    0    0    0  501 -0.00000000000E+00  0.00000000000E+00  0.98164247121E+02  0.98164247121E+02  0.00000000000E+00 0. -1.
          2   -1    0    0  502    0  0.00000000000E+00 -0.00000000000E+00 -0.48094867289E+03  0.48094867289E+03  0.00000000000E+00 0.  1.
          6    1    1    2  502    0  0.48015961631E+01 -0.11885832905E+03 -0.26997862347E+03  0.34150082700E+03  0.17200000000E+03 0.  1.
         -6    1    1    2    0  501 -0.48015961631E+01  0.11885832905E+03 -0.11280580230E+03  0.23761209301E+03  0.17200000000E+03 0. -1.
<mgrwt>
<rscale>  2 0.20912761E+03</rscale>
<asrwt>0</asrwt>
<pdfrwt beam="1">  1        2 0.12023717E+00 0.20912761E+03</pdfrwt>
<pdfrwt beam="2">  1       -2 0.24541062E-01 0.20912761E+03</pdfrwt>
<totfact> 0.54181690E+02</totfact>
</mgrwt>
</event>
<event>
 4    1  0.3757815E-001  0.1780087E+03  0.7546771E-02  0.1169744E+00
          2   -1    0    0  502    0  0.00000000000E+00  0.00000000000E+00  0.63912811582E+03  0.63912811582E+03  0.00000000000E+00 0.  1.
         -2   -1    0    0    0  501 -0.00000000000E+00 -0.00000000000E+00 -0.49609801857E+02  0.49609801857E+02  0.00000000000E+00 0. -1.
          6    1    1    2  502    0  0.45854085420E+02  0.71827623381E+00  0.30338774161E+03  0.35175450932E+03  0.17200000000E+03 0. -1.
         -6    1    1    2    0  501 -0.45854085420E+02 -0.71827623381E+00  0.28613057236E+03  0.33698340836E+03  0.17200000000E+03 0.  1.
<mgrwt>
<rscale>  2 0.17800874E+03</rscale>
<asrwt>0</asrwt>
<pdfrwt beam="1">  1        2 0.15978200E+00 0.17800874E+03</pdfrwt>
<pdfrwt beam="2">  1       -2 0.12402452E-01 0.17800874E+03</pdfrwt>
<totfact> 0.11688325E+03</totfact>
</mgrwt>
</event>
<event>
 4    1  0.3757815E-001  0.1865777E+03  0.7546771E-02  0.1161585E+00
         -1   -1    0    0    0  501 -0.00000000000E+00  0.00000000000E+00  0.68998222575E+02  0.68998222575E+02  0.00000000000E+00 0. -1.
          1   -1    0    0  502    0  0.00000000000E+00 -0.00000000000E+00 -0.53739952110E+03  0.53739952110E+03  0.00000000000E+00 0.  1.
          6    1    1    2  502    0  0.57504027120E+02 -0.43823681676E+02 -0.15920807926E+03  0.24527217680E+03  0.17200000000E+03 0. -1.
         -6    1    1    2    0  501 -0.57504027120E+02  0.43823681676E+02 -0.30919321926E+03  0.36112556687E+03  0.17200000000E+03 0.  1.
<mgrwt>
<rscale>  2 0.18657767E+03</rscale>
<asrwt>0</asrwt>
<pdfrwt beam="1">  1        1 0.13434988E+00 0.18657767E+03</pdfrwt>
<pdfrwt beam="2">  1       -1 0.17249556E-01 0.18657767E+03</pdfrwt>
<totfact> 0.52115791E+02</totfact>
</mgrwt>
</event>
<event>
 4    1  0.3757815E-001  0.1724840E+03  0.7546771E-02  0.1175282E+00
         -1   -1    0    0    0  501 -0.00000000000E+00  0.00000000000E+00  0.53803939000E+02  0.53803939000E+02  0.00000000000E+00 0.  1.
          1   -1    0    0  502    0  0.00000000000E+00 -0.00000000000E+00 -0.65706302113E+03  0.65706302113E+03  0.00000000000E+00 0. -1.
          6    1    1    2  502    0 -0.99836876960E+01  0.81883839970E+01 -0.16014345963E+03  0.23536493221E+03  0.17200000000E+03 0.  1.
         -6    1    1    2    0  501  0.99836876960E+01 -0.81883839970E+01 -0.44311562249E+03  0.47550202791E+03  0.17200000000E+03 0. -1.
<mgrwt>
<rscale>  2 0.17248398E+03</rscale>
<asrwt>0</asrwt>
<pdfrwt beam="1">  1        1 0.16426575E+00 0.17248398E+03</pdfrwt>
<pdfrwt beam="2">  1       -1 0.13450985E-01 0.17248398E+03</pdfrwt>
<totfact> 0.55241542E+02</totfact>
</mgrwt>
</event>
<event>
 4    1  0.3757815E-001  0.1767530E+03  0.7546771E-02  0.1170983E+00
         -2   -1    0    0    0  501 -0.00000000000E+00  0.00000000000E+00  0.75548610699E+02  0.75548610699E+02  0.00000000000E+00 0.  1.
          2   -1    0    0  502    0  0.00000000000E+00 -0.00000000000E+00 -0.61564988818E+03  0.61564988818E+03  0.00000000000E+00 0. -1.
          6    1    1    2  502    0 -0.29045838613E+02 -0.28529748945E+02 -0.46807131998E+03  0.50033225751E+03  0.17200000000E+03 0. -1.
         -6    1    1    2    0  501  0.29045838613E+02  0.28529748945E+02 -0.72029957492E+02  0.19086624136E+03  0.17200000000E+03 0.  1.
<mgrwt>
<rscale>  2 0.17675296E+03</rscale>
<asrwt>0</asrwt>
<pdfrwt beam="1">  1        2 0.15391247E+00 0.17675296E+03</pdfrwt>
<pdfrwt beam="2">  1       -2 0.18887153E-01 0.17675296E+03</pdfrwt>
<totfact> 0.61588434E+02</totfact>
</mgrwt>
</event>
<event>
 4    1  0.3757815E-001  0.2042049E+03  0.7546771E-02  0.1146239E+00
          2   -1    0    0  502    0  0.00000000000E+00  0.00000000000E+00  0.46772019431E+03  0.46772019431E+03  0.00000000000E+00 0. -1.
         -2   -1    0    0    0  501 -0.00000000000E+00 -0.00000000000E+00 -0.10925174757E+03  0.10925174757E+03  0.00000000000E+00 0.  1.
          6    1    1    2  502    0  0.10951417041E+03  0.11059075513E+02  0.30296334821E+03  0.36535797108E+03  0.17200000000E+03 0. -1.
         -6    1    1    2    0  501 -0.10951417041E+03 -0.11059075513E+02  0.55505098530E+02  0.21161397079E+03  0.17200000000E+03 0.  1.
<mgrwt>
<rscale>  2 0.20420494E+03</rscale>
<asrwt>0</asrwt>
<pdfrwt beam="1">  1        2 0.11693004E+00 0.20420494E+03</pdfrwt>
<pdfrwt beam="2">  1       -2 0.27312938E-01 0.20420494E+03</pdfrwt>
<totfact> 0.46430314E+02</totfact>
</mgrwt>
</event>
<event>
 4    1  0.3757815E-001  0.3936652E+03  0.7546771E-02  0.1045996E+00
          2   -1    0    0  502    0  0.00000000000E+00  0.00000000000E+00  0.87742980899E+03  0.87742980899E+03  0.00000000000E+00 0. -1.
         -2   -1    0    0    0  501 -0.00000000000E+00 -0.00000000000E+00 -0.17729756810E+03  0.17729756810E+03  0.00000000000E+00 0.  1.
          6    1    1    2  502    0 -0.34299512196E+03  0.87992207404E+02  0.31748205226E+03  0.50573425409E+03  0.17200000000E+03 0.  1.
         -6    1    1    2    0  501  0.34299512196E+03 -0.87992207404E+02  0.38265018862E+03  0.54899312300E+03  0.17200000000E+03 0.  1.
<mgrwt>
<rscale>  2 0.39366519E+03</rscale>
<asrwt>0</asrwt>
<pdfrwt beam="1">  1        2 0.21935744E+00 0.39366519E+03</pdfrwt>
<pdfrwt beam="2">  1       -2 0.44324394E-01 0.39366519E+03</pdfrwt>
<totfact> 0.72083894E+01</totfact>
</mgrwt>
</event>
<event>
 4    1  0.3757815E-001  0.1774814E+03  0.7546771E-02  0.1170263E+00
          2   -1    0    0  502    0  0.00000000000E+00  0.00000000000E+00  0.95373803194E+03  0.95373803194E+03  0.00000000000E+00 0. -1.
         -2   -1    0    0    0  501 -0.00000000000E+00 -0.00000000000E+00 -0.35145494454E+02  0.35145494454E+02  0.00000000000E+00 0.  1.
          6    1    1    2  502    0  0.39017571232E+02 -0.19831208354E+02  0.58067308919E+03  0.60719097836E+03  0.17200000000E+03 0. -1.
         -6    1    1    2    0  501 -0.39017571232E+02  0.19831208354E+02  0.33791944830E+03  0.38169254804E+03  0.17200000000E+03 0. -1.
<mgrwt>
<rscale>  2 0.17748140E+03</rscale>
<asrwt>0</asrwt>
<pdfrwt beam="1">  1        2 0.23843442E+00 0.17748140E+03</pdfrwt>
<pdfrwt beam="2">  1       -2 0.87863768E-02 0.17748140E+03</pdfrwt>
<totfact> 0.10567982E+03</totfact>
</mgrwt>
</event>
<event>
 4    1  0.3757815E-001  0.1792810E+03  0.7546771E-02  0.1168501E+00
          2   -1    0    0  502    0  0.00000000000E+00  0.00000000000E+00  0.66610377108E+03  0.66610377108E+03  0.00000000000E+00 0.  1.
         -2   -1    0    0    0  501 -0.00000000000E+00 -0.00000000000E+00 -0.62879466722E+02  0.62879466722E+02  0.00000000000E+00 0. -1.
          6    1    1    2  502    0 -0.47267354286E+02  0.17985060581E+02  0.47740421853E+03  0.50995730513E+03  0.17200000000E+03 0.  1.
         -6    1    1    2    0  501  0.47267354286E+02 -0.17985060581E+02  0.12582008583E+03  0.21902593267E+03  0.17200000000E+03 0. -1.
<mgrwt>
<rscale>  2 0.17928097E+03</rscale>
<asrwt>0</asrwt>
<pdfrwt beam="1">  1        2 0.16652592E+00 0.17928097E+03</pdfrwt>
<pdfrwt beam="2">  1       -2 0.15719869E-01 0.17928097E+03</pdfrwt>
<totfact> 0.74804662E+02</totfact>
</mgrwt>
</event>
<event>
 4    1  0.3757815E-001  0.1866036E+03  0.7546771E-02  0.1161561E+00
         -1   -1    0    0    0  501 -0.00000000000E+00  0.00000000000E+00  0.16577723489E+03  0.16577723489E+03  0.00000000000E+00 0. -1.
          1   -1    0    0  502    0  0.00000000000E+00 -0.00000000000E+00 -0.22351512771E+03  0.22351512771E+03  0.00000000000E+00 0.  1.
          6    1    1    2  502    0 -0.20946615024E+02  0.69268660858E+02 -0.76650034735E+02  0.20173283293E+03  0.17200000000E+03 0.  1.
         -6    1    1    2    0  501  0.20946615024E+02 -0.69268660858E+02  0.18912141906E+02  0.18755952967E+03  0.17200000000E+03 0.  1.
<mgrwt>
<rscale>  2 0.18660361E+03</rscale>
<asrwt>0</asrwt>
<pdfrwt beam="1">  1        1 0.55878782E-01 0.18660361E+03</pdfrwt>
<pdfrwt beam="2">  1       -1 0.41444309E-01 0.18660361E+03</pdfrwt>
<totfact> 0.40197133E+02</totfact>
</mgrwt>
</event>
<event>
 4    1  0.3757815E-001  0.4521749E+03  0.7546771E-02  0.1027075E+00
          1   -1    0    0  502    0  0.00000000000E+00  0.00000000000E+00  0.72021710492E+03  0.72021710492E+03  0.00000000000E+00 0.  1.
         -1   -1    0    0    0  501 -0.00000000000E+00 -0.00000000000E+00 -0.45510364707E+03  0.45510364707E+03  0.00000000000E+00 0. -1.
          6    1    1    2  502    0  0.26111430776E+03 -0.32664572079E+03  0.49300339489E+03  0.66896521284E+03  0.17200000000E+03 0.  1.
         -6    1    1    2    0  501 -0.26111430776E+03  0.32664572079E+03 -0.22788993704E+03  0.50635553915E+03  0.17200000000E+03 0. -1.
<mgrwt>
<rscale>  2 0.45217487E+03</rscale>
<asrwt>0</asrwt>
<pdfrwt beam="1">  1        1 0.18005427E+00 0.45217487E+03</pdfrwt>
<pdfrwt beam="2">  1       -1 0.11377591E+00 0.45217487E+03</pdfrwt>
<totfact> 0.86694885E+00</totfact>
</mgrwt>
</event>
<event>
 4    1  0.3757815E-001  0.1831392E+03  0.7546771E-02  0.1164799E+00
          1   -1    0    0  502    0  0.00000000000E+00  0.00000000000E+00  0.16974343604E+03  0.16974343604E+03  0.00000000000E+00 0.  1.
         -1   -1    0    0    0  501 -0.00000000000E+00 -0.00000000000E+00 -0.20916766935E+03  0.20916766935E+03  0.00000000000E+00 0. -1.
          6    1    1    2  502    0 -0.62891621234E+02  0.78960035529E+00  0.24856515564E+02  0.18481835909E+03  0.17200000000E+03 0. -1.
         -6    1    1    2    0  501  0.62891621234E+02 -0.78960035529E+00 -0.64280748883E+02  0.19409274630E+03  0.17200000000E+03 0. -1.
<mgrwt>
<rscale>  2 0.18313924E+03</rscale>
<asrwt>0</asrwt>
<pdfrwt beam="1">  1        1 0.42435859E-01 0.18313924E+03</pdfrwt>
<pdfrwt beam="2">  1       -1 0.52291917E-01 0.18313924E+03</pdfrwt>
<totfact> 0.37225667E+02</totfact>
</mgrwt>
</event>
<event>
 4    1  0.3757815E-001  0.1777164E+03  0.7546771E-02  0.1170032E+00
          2   -1    0    0  502    0  0.00000000000E+00  0.00000000000E+00  0.55263790805E+03  0.55263790805E+03  0.00000000000E+00 0. -1.
         -2   -1    0    0    0  501 -0.00000000000E+00 -0.00000000000E+00 -0.65717274094E+02  0.65717274094E+02  0.00000000000E+00 0.  1.
          6    1    1    2  502    0  0.37548122376E+02  0.24274699383E+02  0.13182651617E+03  0.22127212407E+03  0.17200000000E+03 0.  1.
         -6    1    1    2    0  501 -0.37548122376E+02 -0.24274699383E+02  0.35509411779E+03  0.39708305808E+03  0.17200000000E+03 0. -1.
<mgrwt>
<rscale>  2 0.17771641E+03</rscale>
<asrwt>0</asrwt>
<pdfrwt beam="1">  1        2 0.13815946E+00 0.17771641E+03</pdfrwt>
<pdfrwt beam="2">  1       -2 0.16429320E-01 0.17771641E+03</pdfrwt>
<totfact> 0.90034066E+02</totfact>
</mgrwt>
</event>
<event>
 4    1  0.3757815E-001  0.2139253E+03  0.7546771E-02  0.1138495E+00
         -2   -1    0    0    0  501 -0.00000000000E+00  0.00000000000E+00  0.52081966601E+02  0.52081966601E+02  0.00000000000E+00 0. -1.
          2   -1    0    0  502    0  0.00000000000E+00 -0.00000000000E+00 -0.87939463710E+03  0.87939463710E+03  0.00000000000E+00 0.  1.
          6    1    1    2  502    0 -0.12356584229E+03  0.30191628903E+02 -0.42681317932E+03  0.47742385977E+03  0.17200000000E+03 0. -1.
         -6    1    1    2    0  501  0.12356584229E+03 -0.30191628903E+02 -0.40049949118E+03  0.45405274393E+03  0.17200000000E+03 0.  1.
<mgrwt>
<rscale>  2 0.21392534E+03</rscale>
<asrwt>0</asrwt>
<pdfrwt beam="1">  1        2 0.21984866E+00 0.21392534E+03</pdfrwt>
<pdfrwt beam="2">  1       -2 0.13020492E-01 0.21392534E+03</pdfrwt>
<totfact> 0.65133940E+02</totfact>
</mgrwt>
</event>
<event>
 4    1  0.3757815E-001  0.1785819E+03  0.7546771E-02  0.1169183E+00
         -2   -1    0    0    0  501 -0.00000000000E+00  0.00000000000E+00  0.17776915221E+02  0.17776915221E+02  0.00000000000E+00 0.  1.
          2   -1    0    0  502    0  0.00000000000E+00 -0.00000000000E+00 -0.19506787040E+04  0.19506787040E+04  0.00000000000E+00 0. -1.
          6    1    1    2  502    0  0.16006505377E+02  0.45290943053E+02 -0.12454043658E+04  0.12581428822E+04  0.17200000000E+03 0.  1.
         -6    1    1    2    0  501 -0.16006505377E+02 -0.45290943053E+02 -0.68749742297E+03  0.71031273699E+03  0.17200000000E+03 0. -1.
<mgrwt>
<rscale>  2 0.17858185E+03</rscale>
<asrwt>0</asrwt>
<pdfrwt beam="1">  1        2 0.48766969E+00 0.17858185E+03</pdfrwt>
<pdfrwt beam="2">  1       -2 0.44442286E-02 0.17858185E+03</pdfrwt>
<totfact> 0.39766376E+02</totfact>
</mgrwt>
</event>
<event>
 4    1  0.3757815E-001  0.1866264E+03  0.7546771E-02  0.1161540E+00
         -1   -1    0    0    0  501 -0.00000000000E+00  0.00000000000E+00  0.54017445991E+02  0.54017445991E+02  0.00000000000E+00 0. -1.
          1   -1    0    0  502    0  0.00000000000E+00 -0.00000000000E+00 -0.70064958328E+03  0.70064958328E+03  0.00000000000E+00 0.  1.
          6    1    1    2  502    0 -0.71561439017E+02  0.11151881377E+02 -0.21676443050E+03  0.28603535156E+03  0.17200000000E+03 0. -1.
         -6    1    1    2    0  501  0.71561439017E+02 -0.11151881377E+02 -0.42986770680E+03  0.46863167772E+03  0.17200000000E+03 0.  1.
<mgrwt>
<rscale>  2 0.18662638E+03</rscale>
<asrwt>0</asrwt>
<pdfrwt beam="1">  1        1 0.17516239E+00 0.18662638E+03</pdfrwt>
<pdfrwt beam="2">  1       -1 0.13504362E-01 0.18662638E+03</pdfrwt>
<totfact> 0.48796602E+02</totfact>
</mgrwt>
</event>
<event>
 4    1  0.3757815E-001  0.1786401E+03  0.7546771E-02  0.1169126E+00
          1   -1    0    0  502    0  0.00000000000E+00  0.00000000000E+00  0.65191417266E+03  0.65191417266E+03  0.00000000000E+00 0. -1.
         -1   -1    0    0    0  501 -0.00000000000E+00 -0.00000000000E+00 -0.50716288639E+02  0.50716288639E+02  0.00000000000E+00 0.  1.
          6    1    1    2  502    0  0.33767848353E+02 -0.34467738759E+02  0.36613007927E+03  0.40738621423E+03  0.17200000000E+03 0. -1.
         -6    1    1    2    0  501 -0.33767848353E+02  0.34467738759E+02  0.23506780475E+03  0.29524424707E+03  0.17200000000E+03 0.  1.
<mgrwt>
<rscale>  2 0.17864012E+03</rscale>
<asrwt>0</asrwt>
<pdfrwt beam="1">  1        1 0.16297852E+00 0.17864012E+03</pdfrwt>
<pdfrwt beam="2">  1       -1 0.12679074E-01 0.17864012E+03</pdfrwt>
<totfact> 0.61387620E+02</totfact>
</mgrwt>
</event>
<event>
 4    1  0.3757815E-001  0.1736551E+03  0.7546771E-02  0.1174089E+00
         -2   -1    0    0    0  501 -0.00000000000E+00  0.00000000000E+00  0.42059629486E+02  0.42059629486E+02  0.00000000000E+00 0.  1.
          2   -1    0    0  502    0  0.00000000000E+00 -0.00000000000E+00 -0.78036652829E+03  0.78036652829E+03  0.00000000000E+00 0. -1.
          6    1    1    2  502    0  0.49042851972E+01  0.23410592508E+02 -0.25196083952E+03  0.30600714453E+03  0.17200000000E+03 0.  1.
         -6    1    1    2    0  501 -0.49042851972E+01 -0.23410592508E+02 -0.48634605929E+03  0.51641901324E+03  0.17200000000E+03 0. -1.
<mgrwt>
<rscale>  2 0.17365514E+03</rscale>
<asrwt>0</asrwt>
<pdfrwt beam="1">  1        2 0.19509163E+00 0.17365514E+03</pdfrwt>
<pdfrwt beam="2">  1       -2 0.10514908E-01 0.17365514E+03</pdfrwt>
<totfact> 0.11267998E+03</totfact>
</mgrwt>
</event>
<event>
 4    1  0.3757815E-001  0.2054766E+03  0.7546771E-02  0.1145199E+00
         -4   -1    0    0    0  501 -0.00000000000E+00  0.00000000000E+00  0.56316195987E+02  0.56316195987E+02  0.00000000000E+00 0.  1.
          4   -1    0    0  502    0  0.00000000000E+00 -0.00000000000E+00 -0.92518104777E+03  0.92518104777E+03  0.00000000000E+00 0. -1.
          6    1    1    2  502    0 -0.11163326758E+03 -0.13216124671E+02 -0.22070904320E+03  0.30155121312E+03  0.17200000000E+03 0.  1.
         -6    1    1    2    0  501  0.11163326758E+03  0.13216124671E+02 -0.64815580858E+03  0.67994603063E+03  0.17200000000E+03 0. -1.
<mgrwt>
<rscale>  2 0.20547665E+03</rscale>
<asrwt>0</asrwt>
<pdfrwt beam="1">  1        4 0.23129525E+00 0.20547665E+03</pdfrwt>
<pdfrwt beam="2">  1       -4 0.14079050E-01 0.20547665E+03</pdfrwt>
<totfact> 0.69953144E+00</totfact>
</mgrwt>
</event>
<event>
 4    1  0.3757815E-001  0.1827564E+03  0.7546771E-02  0.1165162E+00
          1   -1    0    0  502    0  0.00000000000E+00  0.00000000000E+00  0.59379840941E+03  0.59379840941E+03  0.00000000000E+00 0.  1.
         -1   -1    0    0    0  501 -0.00000000000E+00 -0.00000000000E+00 -0.69612282102E+02  0.69612282102E+02  0.00000000000E+00 0. -1.
          6    1    1    2  502    0 -0.33218352686E+02 -0.52080947314E+02  0.11675318782E+03  0.21686675839E+03  0.17200000000E+03 0. -1.
         -6    1    1    2    0  501  0.33218352686E+02  0.52080947314E+02  0.40743293949E+03  0.44654393312E+03  0.17200000000E+03 0.  1.
<mgrwt>
<rscale>  2 0.18275635E+03</rscale>
<asrwt>0</asrwt>
<pdfrwt beam="1">  1        1 0.14844959E+00 0.18275635E+03</pdfrwt>
<pdfrwt beam="2">  1       -1 0.17403072E-01 0.18275635E+03</pdfrwt>
<totfact> 0.43697052E+02</totfact>
</mgrwt>
</event>
<event>
 4    1  0.3757815E-001  0.2493861E+03  0.7546771E-02  0.1113693E+00
          2   -1    0    0  502    0  0.00000000000E+00  0.00000000000E+00  0.16634424101E+03  0.16634424101E+03  0.00000000000E+00 0. -1.
         -2   -1    0    0    0  501 -0.00000000000E+00 -0.00000000000E+00 -0.37390050494E+03  0.37390050494E+03  0.00000000000E+00 0.  1.
          6    1    1    2  502    0 -0.16453938349E+03 -0.74405669726E+02 -0.10197112992E+03  0.26942814208E+03  0.17200000000E+03 0. -1.
         -6    1    1    2    0  501  0.16453938349E+03  0.74405669726E+02 -0.10558513401E+03  0.27081660387E+03  0.17200000000E+03 0.  1.
<mgrwt>
<rscale>  2 0.24938607E+03</rscale>
<asrwt>0</asrwt>
<pdfrwt beam="1">  1        2 0.41586060E-01 0.24938607E+03</pdfrwt>
<pdfrwt beam="2">  1       -2 0.93475126E-01 0.24938607E+03</pdfrwt>
<totfact> 0.12400580E+02</totfact>
</mgrwt>
</event>
<event>
 4    1  0.3757815E-001  0.1928290E+03  0.7546771E-02  0.1155934E+00
         -1   -1    0    0    0  501 -0.00000000000E+00  0.00000000000E+00  0.38018950667E+03  0.38018950667E+03  0.00000000000E+00 0.  1.
          1   -1    0    0  502    0  0.00000000000E+00 -0.00000000000E+00 -0.13067691603E+03  0.13067691603E+03  0.00000000000E+00 0. -1.
          6    1    1    2  502    0  0.43439541477E+02  0.75577891827E+02  0.25287577362E+03  0.31800812628E+03  0.17200000000E+03 0.  1.
         -6    1    1    2    0  501 -0.43439541477E+02 -0.75577891827E+02 -0.33631829825E+01  0.19285829642E+03  0.17200000000E+03 0. -1.
<mgrwt>
<rscale>  2 0.19282897E+03</rscale>
<asrwt>0</asrwt>
<pdfrwt beam="1">  1        1 0.32669230E-01 0.19282897E+03</pdfrwt>
<pdfrwt beam="2">  1       -1 0.95047374E-01 0.19282897E+03</pdfrwt>
<totfact> 0.15606437E+02</totfact>
</mgrwt>
</event>
<event>
 4    1  0.3757815E-001  0.1911064E+03  0.7546771E-02  0.1157467E+00
          2   -1    0    0  502    0  0.00000000000E+00  0.00000000000E+00  0.12200950352E+04  0.12200950352E+04  0.00000000000E+00 0. -1.
         -2   -1    0    0    0  501 -0.00000000000E+00 -0.00000000000E+00 -0.30896659373E+02  0.30896659373E+02  0.00000000000E+00 0.  1.
          6    1    1    2  502    0  0.60222091449E+02 -0.57540867356E+02  0.70503994893E+03  0.73048133535E+03  0.17200000000E+03 0.  1.
         -6    1    1    2    0  501 -0.60222091449E+02  0.57540867356E+02  0.48415842685E+03  0.52051035917E+03  0.17200000000E+03 0.  1.
<mgrwt>
<rscale>  2 0.19110639E+03</rscale>
<asrwt>0</asrwt>
<pdfrwt beam="1">  1        2 0.30502360E+00 0.19110639E+03</pdfrwt>
<pdfrwt beam="2">  1       -2 0.77241689E-02 0.19110639E+03</pdfrwt>
<totfact> 0.76855076E+02</totfact>
</mgrwt>
</event>
<event>
 4    1  0.3757815E-001  0.1997549E+03  0.7546771E-02  0.1149946E+00
         -2   -1    0    0    0  501 -0.00000000000E+00  0.00000000000E+00  0.13499051105E+02  0.13499051105E+02  0.00000000000E+00 0.  1.
          2   -1    0    0  502    0  0.00000000000E+00 -0.00000000000E+00 -0.29618401451E+04  0.29618401451E+04  0.00000000000E+00 0. -1.
          6    1    1    2  502    0  0.97472058202E+02 -0.28587285601E+02 -0.14076264663E+04  0.14217293356E+04  0.17200000000E+03 0.  1.
         -6    1    1    2    0  501 -0.97472058202E+02  0.28587285601E+02 -0.15407146276E+04  0.15536098606E+04  0.17200000000E+03 0. -1.
<mgrwt>
<rscale>  2 0.19975494E+03</rscale>
<asrwt>0</asrwt>
<pdfrwt beam="1">  1        2 0.74046018E+00 0.19975494E+03</pdfrwt>
<pdfrwt beam="2">  1       -2 0.33747621E-02 0.19975494E+03</pdfrwt>
<totfact> 0.30770343E+01</totfact>
</mgrwt>
</event>
<event>
 4    1  0.3757815E-001  0.2031962E+03  0.7546771E-02  0.1147070E+00
         -1   -1    0    0    0  501 -0.00000000000E+00  0.00000000000E+00  0.63681998731E+02  0.63681998731E+02  0.00000000000E+00 0. -1.
          1   -1    0    0  502    0  0.00000000000E+00 -0.00000000000E+00 -0.70613650126E+03  0.70613650126E+03  0.00000000000E+00 0.  1.
          6    1    1    2  502    0  0.10804792649E+03  0.55067663609E+01 -0.21112394354E+03  0.29302218078E+03  0.17200000000E+03 0. -1.
         -6    1    1    2    0  501 -0.10804792649E+03 -0.55067663609E+01 -0.43133055899E+03  0.47679631921E+03  0.17200000000E+03 0. -1.
<mgrwt>
<rscale>  2 0.20319616E+03</rscale>
<asrwt>0</asrwt>
<pdfrwt beam="1">  1        1 0.17653412E+00 0.20319616E+03</pdfrwt>
<pdfrwt beam="2">  1       -1 0.15920500E-01 0.20319616E+03</pdfrwt>
<totfact> 0.36998403E+02</totfact>
</mgrwt>
</event>
<event>
 4    1  0.3757815E-001  0.3154293E+03  0.7546771E-02  0.1077772E+00
         -2   -1    0    0    0  501 -0.00000000000E+00  0.00000000000E+00  0.30704984430E+03  0.30704984430E+03  0.00000000000E+00 0.  1.
          2   -1    0    0  502    0  0.00000000000E+00 -0.00000000000E+00 -0.36146653171E+03  0.36146653171E+03  0.00000000000E+00 0. -1.
          6    1    1    2  502    0  0.25819617870E+03  0.56976970263E+02  0.80352133882E+02  0.32550285291E+03  0.17200000000E+03 0.  1.
         -6    1    1    2    0  501 -0.25819617870E+03 -0.56976970263E+02 -0.13476882129E+03  0.34301352310E+03  0.17200000000E+03 0.  1.
<mgrwt>
<rscale>  2 0.31542930E+03</rscale>
<asrwt>0</asrwt>
<pdfrwt beam="1">  1        2 0.90366632E-01 0.31542930E+03</pdfrwt>
<pdfrwt beam="2">  1       -2 0.76762461E-01 0.31542930E+03</pdfrwt>
<totfact> 0.81184311E+01</totfact>
</mgrwt>
</event>
<event>
 4    1  0.3757815E-001  0.2415267E+03  0.7546771E-02  0.1118780E+00
          2   -1    0    0  502    0  0.00000000000E+00  0.00000000000E+00  0.74268953771E+03  0.74268953771E+03  0.00000000000E+00 0.  1.
         -2   -1    0    0    0  501 -0.00000000000E+00 -0.00000000000E+00 -0.96583507296E+02  0.96583507296E+02  0.00000000000E+00 0. -1.
          6    1    1    2  502    0  0.48718676627E+02  0.16241198144E+03  0.50440076909E+03  0.55924529236E+03  0.17200000000E+03 0.  1.
         -6    1    1    2    0  501 -0.48718676627E+02 -0.16241198144E+03  0.14170526132E+03  0.28002775265E+03  0.17200000000E+03 0. -1.
<mgrwt>
<rscale>  2 0.24152673E+03</rscale>
<asrwt>0</asrwt>
<pdfrwt beam="1">  1        2 0.18567237E+00 0.24152673E+03</pdfrwt>
<pdfrwt beam="2">  1       -2 0.24145879E-01 0.24152673E+03</pdfrwt>
<totfact> 0.30306243E+02</totfact>
</mgrwt>
</event>
<event>
 4    1  0.3757815E-001  0.2272159E+03  0.7546771E-02  0.1128615E+00
         -1   -1    0    0    0  501 -0.00000000000E+00  0.00000000000E+00  0.11226009522E+03  0.11226009522E+03  0.00000000000E+00 0. -1.
          1   -1    0    0  502    0  0.00000000000E+00 -0.00000000000E+00 -0.47761585738E+03  0.47761585738E+03  0.00000000000E+00 0.  1.
          6    1    1    2  502    0 -0.95148155688E+02 -0.11397327755E+03 -0.12585562337E+03  0.25974356096E+03  0.17200000000E+03 0. -1.
         -6    1    1    2    0  501  0.95148155688E+02  0.11397327755E+03 -0.23950013879E+03  0.33013239164E+03  0.17200000000E+03 0.  1.
<mgrwt>
<rscale>  2 0.22721593E+03</rscale>
<asrwt>0</asrwt>
<pdfrwt beam="1">  1        1 0.11940396E+00 0.22721593E+03</pdfrwt>
<pdfrwt beam="2">  1       -1 0.28065024E-01 0.22721593E+03</pdfrwt>
<totfact> 0.28044269E+02</totfact>
</mgrwt>
</event>
<event>
 4    1  0.3757815E-001  0.1865703E+03  0.7546771E-02  0.1161592E+00
         -4   -1    0    0    0  501 -0.00000000000E+00  0.00000000000E+00  0.66486117605E+02  0.66486117605E+02  0.00000000000E+00 0. -1.
          4   -1    0    0  502    0  0.00000000000E+00 -0.00000000000E+00 -0.52437345746E+03  0.52437345746E+03  0.00000000000E+00 0.  1.
          6    1    1    2  502    0  0.19466545209E+02 -0.69609771771E+02 -0.24068722326E+03  0.30453046834E+03  0.17200000000E+03 0. -1.
         -6    1    1    2    0  501 -0.19466545209E+02  0.69609771771E+02 -0.21720011660E+03  0.28632910673E+03  0.17200000000E+03 0.  1.
<mgrwt>
<rscale>  2 0.18657027E+03</rscale>
<asrwt>0</asrwt>
<pdfrwt beam="1">  1        4 0.13109336E+00 0.18657027E+03</pdfrwt>
<pdfrwt beam="2">  1       -4 0.16621530E-01 0.18657027E+03</pdfrwt>
<totfact> 0.24726116E+01</totfact>
</mgrwt>
</event>
<event>
 4    1  0.3757815E-001  0.1855952E+03  0.7546771E-02  0.1162495E+00
          2   -1    0    0  502    0  0.00000000000E+00  0.00000000000E+00  0.15245063479E+04  0.15245063479E+04  0.00000000000E+00 0. -1.
         -2   -1    0    0    0  501 -0.00000000000E+00 -0.00000000000E+00 -0.39537898098E+02  0.39537898098E+02  0.00000000000E+00 0.  1.
          6    1    1    2  502    0  0.45794213222E+01  0.69574413591E+02  0.12544153921E+04  0.12680707969E+04  0.17200000000E+03 0. -1.
         -6    1    1    2    0  501 -0.45794213222E+01 -0.69574413591E+02  0.23055305768E+03  0.29597344903E+03  0.17200000000E+03 0.  1.
<mgrwt>
<rscale>  2 0.18559518E+03</rscale>
<asrwt>0</asrwt>
<pdfrwt beam="1">  1        2 0.38112639E+00 0.18559518E+03</pdfrwt>
<pdfrwt beam="2">  1       -2 0.98844796E-02 0.18559518E+03</pdfrwt>
<totfact> 0.28696997E+02</totfact>
</mgrwt>
</event>
<event>
 4    1  0.3757815E-001  0.1958062E+03  0.7546771E-02  0.1153326E+00
          2   -1    0    0  502    0  0.00000000000E+00  0.00000000000E+00  0.47311776929E+03  0.47311776929E+03  0.00000000000E+00 0. -1.
         -2   -1    0    0    0  501 -0.00000000000E+00 -0.00000000000E+00 -0.81780038494E+02  0.81780038494E+02  0.00000000000E+00 0.  1.
          6    1    1    2  502    0 -0.90312969902E+02 -0.24487336016E+02  0.22211451336E+03  0.29609950895E+03  0.17200000000E+03 0.  1.
         -6    1    1    2    0  501  0.90312969902E+02  0.24487336016E+02  0.16922321743E+03  0.25879829883E+03  0.17200000000E+03 0.  1.
<mgrwt>
<rscale>  2 0.19580619E+03</rscale>
<asrwt>0</asrwt>
<pdfrwt beam="1">  1        2 0.11827943E+00 0.19580619E+03</pdfrwt>
<pdfrwt beam="2">  1       -2 0.20445011E-01 0.19580619E+03</pdfrwt>
<totfact> 0.75954027E+02</totfact>
</mgrwt>
</event>
<event>
 4    1  0.3757815E-001  0.1891029E+03  0.7546771E-02  0.1159273E+00
         -1   -1    0    0    0  501 -0.00000000000E+00  0.00000000000E+00  0.37856651552E+03  0.37856651552E+03  0.00000000000E+00 0. -1.
          1   -1    0    0  502    0  0.00000000000E+00 -0.00000000000E+00 -0.94475297984E+02  0.94475297984E+02  0.00000000000E+00 0.  1.
          6    1    1    2  502    0 -0.75102953929E+02  0.23139538409E+02  0.13916842891E+03  0.23479298016E+03  0.17200000000E+03 0.  1.
         -6    1    1    2    0  501  0.75102953929E+02 -0.23139538409E+02  0.14492278862E+03  0.23824883334E+03  0.17200000000E+03 0.  1.
<mgrwt>
<rscale>  2 0.18910286E+03</rscale>
<asrwt>0</asrwt>
<pdfrwt beam="1">  1        1 0.23618825E-01 0.18910286E+03</pdfrwt>
<pdfrwt beam="2">  1       -1 0.94641625E-01 0.18910286E+03</pdfrwt>
<totfact> 0.23724953E+02</totfact>
</mgrwt>
</event>
<event>
 4    1  0.3757815E-001  0.1868685E+03  0.7546771E-02  0.1161316E+00
         -2   -1    0    0    0  501 -0.00000000000E+00  0.00000000000E+00  0.91812390054E+02  0.91812390054E+02  0.00000000000E+00 0. -1.
          2   -1    0    0  502    0  0.00000000000E+00 -0.00000000000E+00 -0.53180300327E+03  0.53180300327E+03  0.00000000000E+00 0.  1.
          6    1    1    2  502    0  0.54769016499E+02 -0.48334161496E+02 -0.38640020102E+03  0.42921434236E+03  0.17200000000E+03 0.  1.
         -6    1    1    2    0  501 -0.54769016499E+02  0.48334161496E+02 -0.53590412188E+02  0.19440105096E+03  0.17200000000E+03 0. -1.
<mgrwt>
<rscale>  2 0.18686850E+03</rscale>
<asrwt>0</asrwt>
<pdfrwt beam="1">  1        2 0.13295075E+00 0.18686850E+03</pdfrwt>
<pdfrwt beam="2">  1       -2 0.22953098E-01 0.18686850E+03</pdfrwt>
<totfact> 0.53650931E+02</totfact>
</mgrwt>
</event>
<event>
 4    1  0.3757815E-001  0.1878941E+03  0.7546771E-02  0.1160375E+00
         -1   -1    0    0    0  501 -0.00000000000E+00  0.00000000000E+00  0.15478379293E+03  0.15478379293E+03  0.00000000000E+00 0.  1.
          1   -1    0    0  502    0  0.00000000000E+00 -0.00000000000E+00 -0.25890149982E+03  0.25890149982E+03  0.00000000000E+00 0. -1.
          6    1    1    2  502    0  0.40504129781E+02 -0.63871764191E+02  0.19300292540E+02  0.18888273633E+03  0.17200000000E+03 0.  1.
         -6    1    1    2    0  501 -0.40504129781E+02  0.63871764191E+02 -0.12341799943E+03  0.22480255642E+03  0.17200000000E+03 0. -1.
<mgrwt>
<rscale>  2 0.18789408E+03</rscale>
<asrwt>0</asrwt>
<pdfrwt beam="1">  1        1 0.64725375E-01 0.18789408E+03</pdfrwt>
<pdfrwt beam="2">  1       -1 0.38695948E-01 0.18789408E+03</pdfrwt>
<totfact> 0.37639328E+02</totfact>
</mgrwt>
</event>
<event>
 4    1  0.3757815E-001  0.2682857E+03  0.7546771E-02  0.1102265E+00
          2   -1    0    0  502    0  0.00000000000E+00  0.00000000000E+00  0.47064996316E+03  0.47064996316E+03  0.00000000000E+00 0. -1.
         -2   -1    0    0    0  501 -0.00000000000E+00 -0.00000000000E+00 -0.15505462095E+03  0.15505462095E+03  0.00000000000E+00 0.  1.
          6    1    1    2  502    0 -0.18016005178E+03  0.99677373384E+02  0.12118930040E+03  0.29438761787E+03  0.17200000000E+03 0.  1.
         -6    1    1    2    0  501  0.18016005178E+03 -0.99677373384E+02  0.19440604181E+03  0.33131696623E+03  0.17200000000E+03 0. -1.
<mgrwt>
<rscale>  2 0.26828571E+03</rscale>
<asrwt>0</asrwt>
<pdfrwt beam="1">  1        2 0.11766249E+00 0.26828571E+03</pdfrwt>
<pdfrwt beam="2">  1       -2 0.38763656E-01 0.26828571E+03</pdfrwt>
<totfact> 0.24000580E+02</totfact>
</mgrwt>
</event>
<event>
 4    1  0.3757815E-001  0.1861425E+03  0.7546771E-02  0.1161987E+00
          1   -1    0    0  502    0  0.00000000000E+00  0.00000000000E+00  0.20490635832E+03  0.20490635832E+03  0.00000000000E+00 0. -1.
         -1   -1    0    0    0  501 -0.00000000000E+00 -0.00000000000E+00 -0.16945015312E+03  0.16945015312E+03  0.00000000000E+00 0.  1.
          6    1    1    2  502    0  0.67288162793E+02 -0.23180411033E+02  0.26274487358E+02  0.18798770437E+03  0.17200000000E+03 0.  1.
         -6    1    1    2    0  501 -0.67288162793E+02  0.23180411033E+02  0.91817178492E+01  0.18636880707E+03  0.17200000000E+03 0.  1.
<mgrwt>
<rscale>  2 0.18614249E+03</rscale>
<asrwt>0</asrwt>
<pdfrwt beam="1">  1        1 0.51226589E-01 0.18614249E+03</pdfrwt>
<pdfrwt beam="2">  1       -1 0.42362538E-01 0.18614249E+03</pdfrwt>
<totfact> 0.43133576E+02</totfact>
</mgrwt>
</event>
<event>
 4    1  0.3757815E-001  0.1865065E+03  0.7546771E-02  0.1161651E+00
         -1   -1    0    0    0  501 -0.00000000000E+00  0.00000000000E+00  0.53222157980E+03  0.53222157980E+03  0.00000000000E+00 0. -1.
          1   -1    0    0  502    0  0.00000000000E+00 -0.00000000000E+00 -0.74105803945E+02  0.74105803945E+02  0.00000000000E+00 0.  1.
          6    1    1    2  502    0  0.65098410003E+02 -0.31029892633E+02  0.12489483697E+03  0.22446241896E+03  0.17200000000E+03 0.  1.
         -6    1    1    2    0  501 -0.65098410003E+02  0.31029892633E+02  0.33322093888E+03  0.38186496479E+03  0.17200000000E+03 0. -1.
<mgrwt>
<rscale>  2 0.18650645E+03</rscale>
<asrwt>0</asrwt>
<pdfrwt beam="1">  1        1 0.18526453E-01 0.18650645E+03</pdfrwt>
<pdfrwt beam="2">  1       -1 0.13305538E+00 0.18650645E+03</pdfrwt>
<totfact> 0.14725150E+02</totfact>
</mgrwt>
</event>
<event>
 4    1  0.3757815E-001  0.3405031E+03  0.7546771E-02  0.1066582E+00
         -1   -1    0    0    0  501 -0.00000000000E+00  0.00000000000E+00  0.45799837499E+03  0.45799837499E+03  0.00000000000E+00 0. -1.
          1   -1    0    0  502    0  0.00000000000E+00 -0.00000000000E+00 -0.28121494648E+03  0.28121494648E+03  0.00000000000E+00 0.  1.
          6    1    1    2  502    0  0.24039990859E+03  0.16901552598E+03 -0.28370258512E+02  0.34168294608E+03  0.17200000000E+03 0.  1.
         -6    1    1    2    0  501 -0.24039990859E+03 -0.16901552598E+03  0.20515368702E+03  0.39753037540E+03  0.17200000000E+03 0. -1.
<mgrwt>
<rscale>  2 0.34050310E+03</rscale>
<asrwt>0</asrwt>
<pdfrwt beam="1">  1        1 0.70303737E-01 0.34050310E+03</pdfrwt>
<pdfrwt beam="2">  1       -1 0.11449959E+00 0.34050310E+03</pdfrwt>
<totfact> 0.37556193E+01</totfact>
</mgrwt>
</event>
<event>
 4    1  0.3757815E-001  0.3565497E+03  0.7546771E-02  0.1059958E+00
         -2   -1    0    0    0  501 -0.00000000000E+00  0.00000000000E+00  0.46706024892E+03  0.46706024892E+03  0.00000000000E+00 0.  1.
          2   -1    0    0  502    0  0.00000000000E+00 -0.00000000000E+00 -0.32321086572E+03  0.32321086572E+03  0.00000000000E+00 0. -1.
          6    1    1    2  502    0 -0.24278035547E+03 -0.19647239979E+03  0.22892121171E+03  0.42371290523E+03  0.17200000000E+03 0.  1.
         -6    1    1    2    0  501  0.24278035547E+03  0.19647239979E+03 -0.85071828509E+02  0.36655820941E+03  0.17200000000E+03 0. -1.
<mgrwt>
<rscale>  2 0.35654972E+03</rscale>
<asrwt>0</asrwt>
<pdfrwt beam="1">  1        2 0.80802717E-01 0.35654972E+03</pdfrwt>
<pdfrwt beam="2">  1       -2 0.11676506E+00 0.35654972E+03</pdfrwt>
<totfact> 0.34861216E+01</totfact>
</mgrwt>
</event>
<event>
 4    1  0.3757815E-001  0.2406910E+03  0.7546771E-02  0.1119333E+00
         -2   -1    0    0    0  501 -0.00000000000E+00  0.00000000000E+00  0.24694067499E+03  0.24694067499E+03  0.00000000000E+00 0. -1.
          2   -1    0    0  502    0  0.00000000000E+00 -0.00000000000E+00 -0.23752337610E+03  0.23752337610E+03  0.00000000000E+00 0.  1.
          6    1    1    2  502    0  0.11591605198E+03 -0.12211325168E+03  0.31583887068E+02  0.24275444232E+03  0.17200000000E+03 0. -1.
         -6    1    1    2    0  501 -0.11591605198E+03  0.12211325168E+03 -0.22166588175E+02  0.24170960878E+03  0.17200000000E+03 0.  1.
<mgrwt>
<rscale>  2 0.24069104E+03</rscale>
<asrwt>0</asrwt>
<pdfrwt beam="1">  1        2 0.59380844E-01 0.24069104E+03</pdfrwt>
<pdfrwt beam="2">  1       -2 0.61735169E-01 0.24069104E+03</pdfrwt>
<totfact> 0.20902381E+02</totfact>
</mgrwt>
</event>
<event>
 4    1  0.3757815E-001  0.1729207E+03  0.7546771E-02  0.1174836E+00
          2   -1    0    0  502    0  0.00000000000E+00  0.00000000000E+00  0.76291351821E+03  0.76291351821E+03  0.00000000000E+00 0. -1.
         -2   -1    0    0    0  501 -0.00000000000E+00 -0.00000000000E+00 -0.43551988395E+02  0.43551988395E+02  0.00000000000E+00 0.  1.
          6    1    1    2  502    0  0.74919689434E+00 -0.17805050785E+02  0.23212555766E+03  0.28945441031E+03  0.17200000000E+03 0.  1.
         -6    1    1    2    0  501 -0.74919689434E+00  0.17805050785E+02  0.48723597215E+03  0.51701109629E+03  0.17200000000E+03 0. -1.
<mgrwt>
<rscale>  2 0.17292074E+03</rscale>
<asrwt>0</asrwt>
<pdfrwt beam="1">  1        2 0.19072834E+00 0.17292074E+03</pdfrwt>
<pdfrwt beam="2">  1       -2 0.10888000E-01 0.17292074E+03</pdfrwt>
<totfact> 0.11051640E+03</totfact>
</mgrwt>
</event>
<event>
 4    1  0.3757815E-001  0.2017752E+03  0.7546771E-02  0.1148250E+00
         -2   -1    0    0    0  501 -0.00000000000E+00  0.00000000000E+00  0.12074952686E+03  0.12074952686E+03  0.00000000000E+00 0.  1.
          2   -1    0    0  502    0  0.00000000000E+00 -0.00000000000E+00 -0.43018596241E+03  0.43018596241E+03  0.00000000000E+00 0. -1.
          6    1    1    2  502    0 -0.81754421669E+02 -0.66674195098E+02 -0.28280937211E+03  0.34741095939E+03  0.17200000000E+03 0. -1.
         -6    1    1    2    0  501  0.81754421669E+02  0.66674195098E+02 -0.26627063443E+02  0.20352452988E+03  0.17200000000E+03 0.  1.
<mgrwt>
<rscale>  2 0.20177521E+03</rscale>
<asrwt>0</asrwt>
<pdfrwt beam="1">  1        2 0.10754649E+00 0.20177521E+03</pdfrwt>
<pdfrwt beam="2">  1       -2 0.30187382E-01 0.20177521E+03</pdfrwt>
<totfact> 0.42960223E+02</totfact>
</mgrwt>
</event>
<event>
 4    1  0.3757815E-001  0.1819830E+03  0.7546771E-02  0.1165898E+00
          2   -1    0    0  502    0  0.00000000000E+00  0.00000000000E+00  0.19872051886E+04  0.19872051886E+04  0.00000000000E+00 0.  1.
         -2   -1    0    0    0  501 -0.00000000000E+00 -0.00000000000E+00 -0.17959578075E+02  0.17959578075E+02  0.00000000000E+00 0. -1.
          6    1    1    2  502    0 -0.45075817556E+02  0.38755510980E+02  0.71550158276E+03  0.73828201515E+03  0.17200000000E+03 0. -1.
         -6    1    1    2    0  501  0.45075817556E+02 -0.38755510980E+02  0.12537440278E+04  0.12668827515E+04  0.17200000000E+03 0.  1.
<mgrwt>
<rscale>  2 0.18198302E+03</rscale>
<asrwt>0</asrwt>
<pdfrwt beam="1">  1        2 0.49680055E+00 0.18198302E+03</pdfrwt>
<pdfrwt beam="2">  1       -2 0.44899013E-02 0.18198302E+03</pdfrwt>
<totfact> 0.35982819E+02</totfact>
</mgrwt>
</event>
<event>
 4    1  0.3757815E-001  0.2020176E+03  0.7546771E-02  0.1148048E+00
         -2   -1    0    0    0  501 -0.00000000000E+00  0.00000000000E+00  0.11716713350E+03  0.11716713350E+03  0.00000000000E+00 0.  1.
          2   -1    0    0  502    0  0.00000000000E+00 -0.00000000000E+00 -0.47188515652E+03  0.47188515652E+03  0.00000000000E+00 0. -1.
          6    1    1    2  502    0 -0.71928066287E+02 -0.77804078347E+02 -0.26642190583E+02  0.20376684629E+03  0.17200000000E+03 0.  1.
         -6    1    1    2    0  501  0.71928066287E+02  0.77804078347E+02 -0.32807583243E+03  0.38528544373E+03  0.17200000000E+03 0. -1.
<mgrwt>
<rscale>  2 0.20201763E+03</rscale>
<asrwt>0</asrwt>
<pdfrwt beam="1">  1        2 0.11797129E+00 0.20201763E+03</pdfrwt>
<pdfrwt beam="2">  1       -2 0.29291784E-01 0.20201763E+03</pdfrwt>
<totfact> 0.40508130E+02</totfact>
</mgrwt>
</event>
<event>
 4    1  0.3757815E-001  0.1859530E+03  0.7546771E-02  0.1162163E+00
         -2   -1    0    0    0  501 -0.00000000000E+00  0.00000000000E+00  0.32792133126E+02  0.32792133126E+02  0.00000000000E+00 0. -1.
          2   -1    0    0  502    0  0.00000000000E+00 -0.00000000000E+00 -0.11084112613E+04  0.11084112613E+04  0.00000000000E+00 0.  1.
          6    1    1    2  502    0  0.63061105078E+02 -0.31903488311E+02 -0.66367797721E+03  0.68923652905E+03  0.17200000000E+03 0.  1.
         -6    1    1    2    0  501 -0.63061105078E+02  0.31903488311E+02 -0.41194115094E+03  0.45196686536E+03  0.17200000000E+03 0. -1.
<mgrwt>
<rscale>  2 0.18595305E+03</rscale>
<asrwt>0</asrwt>
<pdfrwt beam="1">  1        2 0.27710282E+00 0.18595305E+03</pdfrwt>
<pdfrwt beam="2">  1       -2 0.81980330E-02 0.18595305E+03</pdfrwt>
<totfact> 0.87063802E+02</totfact>
</mgrwt>
</event>
<event>
 4    1  0.3757815E-001  0.1841350E+03  0.7546771E-02  0.1163860E+00
          2   -1    0    0  502    0  0.00000000000E+00  0.00000000000E+00  0.24932301308E+03  0.24932301308E+03  0.00000000000E+00 0. -1.
         -2   -1    0    0    0  501 -0.00000000000E+00 -0.00000000000E+00 -0.18104056824E+03  0.18104056824E+03  0.00000000000E+00 0.  1.
          6    1    1    2  502    0 -0.65557796789E+02  0.48877051539E+01 -0.73198960361E+02  0.19815095806E+03  0.17200000000E+03 0.  1.
         -6    1    1    2    0  501  0.65557796789E+02 -0.48877051539E+01  0.14148140520E+03  0.23221262326E+03  0.17200000000E+03 0.  1.
<mgrwt>
<rscale>  2 0.18413504E+03</rscale>
<asrwt>0</asrwt>
<pdfrwt beam="1">  1        2 0.62330753E-01 0.18413504E+03</pdfrwt>
<pdfrwt beam="2">  1       -2 0.45260142E-01 0.18413504E+03</pdfrwt>
<totfact> 0.37223348E+02</totfact>
</mgrwt>
</event>
<event>
 4    1  0.3757815E-001  0.1729867E+03  0.7546771E-02  0.1174768E+00
         -1   -1    0    0    0  501 -0.00000000000E+00  0.00000000000E+00  0.36794500621E+02  0.36794500621E+02  0.00000000000E+00 0.  1.
          1   -1    0    0  502    0  0.00000000000E+00 -0.00000000000E+00 -0.81458128769E+03  0.81458128769E+03  0.00000000000E+00 0. -1.
          6    1    1    2  502    0  0.16182168862E+02  0.88626794346E+01 -0.40587586966E+03  0.44120248328E+03  0.17200000000E+03 0. -1.
         -6    1    1    2    0  501 -0.16182168862E+02 -0.88626794346E+01 -0.37191091741E+03  0.41017330504E+03  0.17200000000E+03 0. -1.
<mgrwt>
<rscale>  2 0.17298673E+03</rscale>
<asrwt>0</asrwt>
<pdfrwt beam="1">  1        1 0.20364532E+00 0.17298673E+03</pdfrwt>
<pdfrwt beam="2">  1       -1 0.91986252E-02 0.17298673E+03</pdfrwt>
<totfact> 0.66078103E+02</totfact>
</mgrwt>
</event>
<event>
 4    1  0.3757815E-001  0.1952572E+03  0.7546771E-02  0.1153803E+00
         -2   -1    0    0    0  501 -0.00000000000E+00  0.00000000000E+00  0.35835463907E+02  0.35835463907E+02  0.00000000000E+00 0. -1.
          2   -1    0    0  502    0  0.00000000000E+00 -0.00000000000E+00 -0.11639028409E+04  0.11639028409E+04  0.00000000000E+00 0.  1.
          6    1    1    2  502    0  0.50343129476E+02  0.77504393050E+02 -0.38819937401E+03  0.43453896904E+03  0.17200000000E+03 0.  1.
         -6    1    1    2    0  501 -0.50343129476E+02 -0.77504393050E+02 -0.73986800293E+03  0.76519933572E+03  0.17200000000E+03 0.  1.
<mgrwt>
<rscale>  2 0.19525717E+03</rscale>
<asrwt>0</asrwt>
<pdfrwt beam="1">  1        2 0.29097572E+00 0.19525717E+03</pdfrwt>
<pdfrwt beam="2">  1       -2 0.89588657E-02 0.19525717E+03</pdfrwt>
<totfact> 0.67938828E+02</totfact>
</mgrwt>
</event>
<event>
 4    1  0.3757815E-001  0.2369803E+03  0.7546771E-02  0.1121821E+00
         -2   -1    0    0    0  501 -0.00000000000E+00  0.00000000000E+00  0.17412089961E+03  0.17412089961E+03  0.00000000000E+00 0. -1.
          2   -1    0    0  502    0  0.00000000000E+00 -0.00000000000E+00 -0.46004724951E+03  0.46004724951E+03  0.00000000000E+00 0.  1.
          6    1    1    2  502    0 -0.11996922402E+02 -0.16257835754E+03  0.30396409467E+02  0.23892172399E+03  0.17200000000E+03 0.  1.
         -6    1    1    2    0  501  0.11996922402E+02  0.16257835754E+03 -0.31632275936E+03  0.39524642513E+03  0.17200000000E+03 0. -1.
<mgrwt>
<rscale>  2 0.23698027E+03</rscale>
<asrwt>0</asrwt>
<pdfrwt beam="1">  1        2 0.11501181E+00 0.23698027E+03</pdfrwt>
<pdfrwt beam="2">  1       -2 0.43530225E-01 0.23698027E+03</pdfrwt>
<totfact> 0.19831818E+02</totfact>
</mgrwt>
</event>
<event>
 4    1  0.3757815E-001  0.1856120E+03  0.7546771E-02  0.1162480E+00
          2   -1    0    0  502    0  0.00000000000E+00  0.00000000000E+00  0.11945564779E+04  0.11945564779E+04  0.00000000000E+00 0.  1.
         -2   -1    0    0    0  501 -0.00000000000E+00 -0.00000000000E+00 -0.29915051550E+02  0.29915051550E+02  0.00000000000E+00 0. -1.
          6    1    1    2  502    0  0.57722913960E+02  0.39190197672E+02  0.46629518333E+03  0.50187947197E+03  0.17200000000E+03 0.  1.
         -6    1    1    2    0  501 -0.57722913960E+02 -0.39190197672E+02  0.69834624301E+03  0.72259205747E+03  0.17200000000E+03 0.  1.
<mgrwt>
<rscale>  2 0.18561198E+03</rscale>
<asrwt>0</asrwt>
<pdfrwt beam="1">  1        2 0.29863896E+00 0.18561198E+03</pdfrwt>
<pdfrwt beam="2">  1       -2 0.74787669E-02 0.18561198E+03</pdfrwt>
<totfact> 0.84990976E+02</totfact>
</mgrwt>
</event>
<event>
 4    1  0.3757815E-001  0.1976406E+03  0.7546771E-02  0.1151745E+00
         -2   -1    0    0    0  501 -0.00000000000E+00  0.00000000000E+00  0.68154088064E+02  0.68154088064E+02  0.00000000000E+00 0.  1.
          2   -1    0    0  502    0  0.00000000000E+00 -0.00000000000E+00 -0.89646915353E+03  0.89646915353E+03  0.00000000000E+00 0. -1.
          6    1    1    2  502    0  0.83272989455E+02  0.50432262939E+02 -0.70381370016E+03  0.73103729621E+03  0.17200000000E+03 0. -1.
         -6    1    1    2    0  501 -0.83272989455E+02 -0.50432262939E+02 -0.12450136531E+03  0.23358594538E+03  0.17200000000E+03 0.  1.
<mgrwt>
<rscale>  2 0.19764059E+03</rscale>
<asrwt>0</asrwt>
<pdfrwt beam="1">  1        2 0.22411729E+00 0.19764059E+03</pdfrwt>
<pdfrwt beam="2">  1       -2 0.17038522E-01 0.19764059E+03</pdfrwt>
<totfact> 0.40509105E+02</totfact>
</mgrwt>
</event>
<event>
 4    1  0.3757815E-001  0.1961294E+03  0.7546771E-02  0.1153046E+00
          2   -1    0    0  502    0  0.00000000000E+00  0.00000000000E+00  0.98629373099E+03  0.98629373099E+03  0.00000000000E+00 0. -1.
         -2   -1    0    0    0  501 -0.00000000000E+00 -0.00000000000E+00 -0.39351153933E+02  0.39351153933E+02  0.00000000000E+00 0.  1.
          6    1    1    2  502    0  0.20593115939E+02 -0.91970898327E+02  0.52182626610E+03  0.55746692687E+03  0.17200000000E+03 0. -1.
         -6    1    1    2    0  501 -0.20593115939E+02  0.91970898327E+02  0.42511631095E+03  0.46817795804E+03  0.17200000000E+03 0. -1.
<mgrwt>
<rscale>  2 0.19612935E+03</rscale>
<asrwt>0</asrwt>
<pdfrwt beam="1">  1        2 0.24657335E+00 0.19612935E+03</pdfrwt>
<pdfrwt beam="2">  1       -2 0.98377917E-02 0.19612935E+03</pdfrwt>
<totfact> 0.82805539E+02</totfact>
</mgrwt>
</event>
<event>
 4    1  0.3757815E-001  0.1889013E+03  0.7546771E-02  0.1159456E+00
          2   -1    0    0  502    0  0.00000000000E+00  0.00000000000E+00  0.43902233277E+02  0.43902233277E+02  0.00000000000E+00 0.  1.
         -2   -1    0    0    0  501 -0.00000000000E+00 -0.00000000000E+00 -0.81697941339E+03  0.81697941339E+03  0.00000000000E+00 0. -1.
          6    1    1    2  502    0  0.21065591786E+02  0.75205903834E+02 -0.35574768507E+03  0.40279039532E+03  0.17200000000E+03 0.  1.
         -6    1    1    2    0  501 -0.21065591786E+02 -0.75205903834E+02 -0.41732949505E+03  0.45809125135E+03  0.17200000000E+03 0. -1.
<mgrwt>
<rscale>  2 0.18890126E+03</rscale>
<asrwt>0</asrwt>
<pdfrwt beam="1">  1        2 0.10975558E-01 0.18890126E+03</pdfrwt>
<pdfrwt beam="2">  1       -2 0.20424486E+00 0.18890126E+03</pdfrwt>
<totfact> 0.78019307E+01</totfact>
</mgrwt>
</event>
<event>
 4    1  0.3757815E-001  0.1765454E+03  0.7546771E-02  0.1171189E+00
         -1   -1    0    0    0  501 -0.00000000000E+00  0.00000000000E+00  0.31706241116E+03  0.31706241116E+03  0.00000000000E+00 0. -1.
          1   -1    0    0  502    0  0.00000000000E+00 -0.00000000000E+00 -0.10073257169E+03  0.10073257169E+03  0.00000000000E+00 0.  1.
          6    1    1    2  502    0 -0.35560147163E+02 -0.17881956210E+02  0.14060517823E+03  0.22569471542E+03  0.17200000000E+03 0.  1.
         -6    1    1    2    0  501  0.35560147163E+02  0.17881956210E+02  0.75724661248E+02  0.19210026743E+03  0.17200000000E+03 0. -1.
<mgrwt>
<rscale>  2 0.17654543E+03</rscale>
<asrwt>0</asrwt>
<pdfrwt beam="1">  1        1 0.25183144E-01 0.17654543E+03</pdfrwt>
<pdfrwt beam="2">  1       -1 0.79265601E-01 0.17654543E+03</pdfrwt>
<totfact> 0.31835925E+02</totfact>
</mgrwt>
</event>
<event>
 4    1  0.3757815E-001  0.2369575E+03  0.7546771E-02  0.1121836E+00
         -2   -1    0    0    0  501 -0.00000000000E+00  0.00000000000E+00  0.21904054421E+03  0.21904054421E+03  0.00000000000E+00 0. -1.
          2   -1    0    0  502    0  0.00000000000E+00 -0.00000000000E+00 -0.75793927644E+03  0.75793927644E+03  0.00000000000E+00 0.  1.
          6    1    1    2  502    0 -0.14597230070E+03  0.72504676040E+02  0.12794057219E+03  0.26929097763E+03  0.17200000000E+03 0. -1.
         -6    1    1    2    0  501  0.14597230070E+03 -0.72504676040E+02 -0.66683930442E+03  0.70768884302E+03  0.17200000000E+03 0.  1.
<mgrwt>
<rscale>  2 0.23695747E+03</rscale>
<asrwt>0</asrwt>
<pdfrwt beam="1">  1        2 0.18948482E+00 0.23695747E+03</pdfrwt>
<pdfrwt beam="2">  1       -2 0.54760136E-01 0.23695747E+03</pdfrwt>
<totfact> 0.62718481E+01</totfact>
</mgrwt>
</event>
<event>
 4    1  0.3757815E-001  0.1836260E+03  0.7546771E-02  0.1164339E+00
          2   -1    0    0  502    0  0.00000000000E+00  0.00000000000E+00  0.20750318796E+04  0.20750318796E+04  0.00000000000E+00 0. -1.
         -2   -1    0    0    0  501 -0.00000000000E+00 -0.00000000000E+00 -0.20076639208E+02  0.20076639208E+02  0.00000000000E+00 0.  1.
          6    1    1    2  502    0 -0.41131482701E+02 -0.49423859400E+02  0.57011536236E+03  0.59895746355E+03  0.17200000000E+03 0.  1.
         -6    1    1    2    0  501  0.41131482701E+02  0.49423859400E+02  0.14848398780E+04  0.14961510552E+04  0.17200000000E+03 0. -1.
<mgrwt>
<rscale>  2 0.18362602E+03</rscale>
<asrwt>0</asrwt>
<pdfrwt beam="1">  1        2 0.51875724E+00 0.18362602E+03</pdfrwt>
<pdfrwt beam="2">  1       -2 0.50191669E-02 0.18362602E+03</pdfrwt>
<totfact> 0.24765024E+02</totfact>
</mgrwt>
</event>
<event>
 4    1  0.3757815E-001  0.2275242E+03  0.7546771E-02  0.1128395E+00
         -2   -1    0    0    0  501 -0.00000000000E+00  0.00000000000E+00  0.17138074840E+03  0.17138074840E+03  0.00000000000E+00 0. -1.
          2   -1    0    0  502    0  0.00000000000E+00 -0.00000000000E+00 -0.35715500377E+03  0.35715500377E+03  0.00000000000E+00 0.  1.
          6    1    1    2  502    0  0.22262868112E+02  0.14726716740E+03 -0.19668117755E+03  0.30075029425E+03  0.17200000000E+03 0.  1.
         -6    1    1    2    0  501 -0.22262868112E+02 -0.14726716740E+03  0.10906922181E+02  0.22778545792E+03  0.17200000000E+03 0. -1.
<mgrwt>
<rscale>  2 0.22752418E+03</rscale>
<asrwt>0</asrwt>
<pdfrwt beam="1">  1        2 0.89288750E-01 0.22752418E+03</pdfrwt>
<pdfrwt beam="2">  1       -2 0.42845188E-01 0.22752418E+03</pdfrwt>
<totfact> 0.27689081E+02</totfact>
</mgrwt>
</event>
<event>
 4    1  0.3757815E-001  0.2060661E+03  0.7546771E-02  0.1144720E+00
         -2   -1    0    0    0  501 -0.00000000000E+00  0.00000000000E+00  0.40555960341E+02  0.40555960341E+02  0.00000000000E+00 0. -1.
          2   -1    0    0  502    0  0.00000000000E+00 -0.00000000000E+00 -0.10498892312E+04  0.10498892312E+04  0.00000000000E+00 0.  1.
          6    1    1    2  502    0  0.39212122064E+02 -0.10649712794E+03 -0.53312916303E+03  0.57156796031E+03  0.17200000000E+03 0. -1.
         -6    1    1    2    0  501 -0.39212122064E+02  0.10649712794E+03 -0.47620410778E+03  0.51887723119E+03  0.17200000000E+03 0.  1.
<mgrwt>
<rscale>  2 0.20606608E+03</rscale>
<asrwt>0</asrwt>
<pdfrwt beam="1">  1        2 0.26247231E+00 0.20606608E+03</pdfrwt>
<pdfrwt beam="2">  1       -2 0.10138990E-01 0.20606608E+03</pdfrwt>
<totfact> 0.69610657E+02</totfact>
</mgrwt>
</event>
<event>
 4    1  0.3757815E-001  0.1932080E+03  0.7546771E-02  0.1155599E+00
          2   -1    0    0  502    0  0.00000000000E+00  0.00000000000E+00  0.59121735076E+03  0.59121735076E+03  0.00000000000E+00 0. -1.
         -2   -1    0    0    0  501 -0.00000000000E+00 -0.00000000000E+00 -0.88260849286E+02  0.88260849286E+02  0.00000000000E+00 0.  1.
          6    1    1    2  502    0 -0.69068993273E+02  0.54541811316E+02  0.70227205857E+02  0.20557527929E+03  0.17200000000E+03 0.  1.
         -6    1    1    2    0  501  0.69068993273E+02 -0.54541811316E+02  0.43272929561E+03  0.47390292075E+03  0.17200000000E+03 0. -1.
<mgrwt>
<rscale>  2 0.19320801E+03</rscale>
<asrwt>0</asrwt>
<pdfrwt beam="1">  1        2 0.14780433E+00 0.19320801E+03</pdfrwt>
<pdfrwt beam="2">  1       -2 0.22065214E-01 0.19320801E+03</pdfrwt>
<totfact> 0.49850292E+02</totfact>
</mgrwt>
</event>
<event>
 4    1  0.3757815E-001  0.1933298E+03  0.7546771E-02  0.1155492E+00
         -1   -1    0    0    0  501 -0.00000000000E+00  0.00000000000E+00  0.36476568959E+02  0.36476568959E+02  0.00000000000E+00 0.  1.
          1   -1    0    0  502    0  0.00000000000E+00 -0.00000000000E+00 -0.10407140323E+04  0.10407140323E+04  0.00000000000E+00 0. -1.
          6    1    1    2  502    0  0.33385018677E+02 -0.81718174605E+02 -0.43524379145E+03  0.47624949084E+03  0.17200000000E+03 0.  1.
         -6    1    1    2    0  501 -0.33385018677E+02  0.81718174605E+02 -0.56899367186E+03  0.60094111038E+03  0.17200000000E+03 0. -1.
<mgrwt>
<rscale>  2 0.19332982E+03</rscale>
<asrwt>0</asrwt>
<pdfrwt beam="1">  1        1 0.26017850E+00 0.19332982E+03</pdfrwt>
<pdfrwt beam="2">  1       -1 0.91191424E-02 0.19332982E+03</pdfrwt>
<totfact> 0.38301125E+02</totfact>
</mgrwt>
</event>
<event>
 4    1  0.3757815E-001  0.1750927E+03  0.7546771E-02  0.1172639E+00
         -2   -1    0    0    0  501 -0.00000000000E+00  0.00000000000E+00  0.29986074014E+02  0.29986074014E+02  0.00000000000E+00 0. -1.
          2   -1    0    0  502    0  0.00000000000E+00 -0.00000000000E+00 -0.11737226733E+04  0.11737226733E+04  0.00000000000E+00 0.  1.
          6    1    1    2  502    0  0.29009981849E+02  0.15227926974E+02 -0.35575837585E+03  0.39651165278E+03  0.17200000000E+03 0. -1.
         -6    1    1    2    0  501 -0.29009981849E+02 -0.15227926974E+02 -0.78797822346E+03  0.80719709455E+03  0.17200000000E+03 0.  1.
<mgrwt>
<rscale>  2 0.17509274E+03</rscale>
<asrwt>0</asrwt>
<pdfrwt beam="1">  1        2 0.29343063E+00 0.17509274E+03</pdfrwt>
<pdfrwt beam="2">  1       -2 0.74965194E-02 0.17509274E+03</pdfrwt>
<totfact> 0.88324457E+02</totfact>
</mgrwt>
</event>
<event>
 4    1  0.3757815E-001  0.1757838E+03  0.7546771E-02  0.1171947E+00
         -2   -1    0    0    0  501 -0.00000000000E+00  0.00000000000E+00  0.82433085166E+02  0.82433085166E+02  0.00000000000E+00 0.  1.
          2   -1    0    0  502    0  0.00000000000E+00 -0.00000000000E+00 -0.14447398338E+04  0.14447398338E+04  0.00000000000E+00 0. -1.
          6    1    1    2  502    0  0.36063186905E+02 -0.39217279321E+01 -0.24050763559E+02  0.17742145481E+03  0.17200000000E+03 0.  1.
         -6    1    1    2    0  501 -0.36063186905E+02  0.39217279321E+01 -0.13382559851E+04  0.13497514642E+04  0.17200000000E+03 0. -1.
<mgrwt>
<rscale>  2 0.17578377E+03</rscale>
<asrwt>0</asrwt>
<pdfrwt beam="1">  1        2 0.36118495E+00 0.17578377E+03</pdfrwt>
<pdfrwt beam="2">  1       -2 0.20608272E-01 0.17578377E+03</pdfrwt>
<totfact> 0.10140290E+02</totfact>
</mgrwt>
</event>
<event>
 4    1  0.3757815E-001  0.2800657E+03  0.7546771E-02  0.1095653E+00
          2   -1    0    0  502    0  0.00000000000E+00  0.00000000000E+00  0.43462323570E+03  0.43462323570E+03  0.00000000000E+00 0.  1.
         -2   -1    0    0    0  501 -0.00000000000E+00 -0.00000000000E+00 -0.29333186474E+03  0.29333186474E+03  0.00000000000E+00 0. -1.
          6    1    1    2  502    0 -0.21808018187E+03 -0.35969525600E+02  0.29641617928E+03  0.40779814104E+03  0.17200000000E+03 0.  1.
         -6    1    1    2    0  501  0.21808018187E+03  0.35969525600E+02 -0.15512480832E+03  0.32015695940E+03  0.17200000000E+03 0. -1.
<mgrwt>
<rscale>  2 0.28006566E+03</rscale>
<asrwt>0</asrwt>
<pdfrwt beam="1">  1        2 0.10865581E+00 0.28006566E+03</pdfrwt>
<pdfrwt beam="2">  1       -2 0.73332966E-01 0.28006566E+03</pdfrwt>
<totfact> 0.72382760E+01</totfact>
</mgrwt>
</event>
<event>
 4    1  0.3757815E-001  0.2116067E+03  0.7546771E-02  0.1140300E+00
         -2   -1    0    0    0  501 -0.00000000000E+00  0.00000000000E+00  0.20882156439E+02  0.20882156439E+02  0.00000000000E+00 0. -1.
          2   -1    0    0  502    0  0.00000000000E+00 -0.00000000000E+00 -0.22020824651E+04  0.22020824651E+04  0.00000000000E+00 0.  1.
          6    1    1    2  502    0 -0.78961519040E+02 -0.94649241475E+02 -0.91053852932E+03  0.93480362311E+03  0.17200000000E+03 0. -1.
         -6    1    1    2    0  501  0.78961519040E+02  0.94649241475E+02 -0.12706617794E+04  0.12881609985E+04  0.17200000000E+03 0.  1.
<mgrwt>
<rscale>  2 0.21160671E+03</rscale>
<asrwt>0</asrwt>
<pdfrwt beam="1">  1        2 0.55052050E+00 0.21160671E+03</pdfrwt>
<pdfrwt beam="2">  1       -2 0.52205402E-02 0.21160671E+03</pdfrwt>
<totfact> 0.16892272E+02</totfact>
</mgrwt>
</event>
<event>
 4    1  0.3757815E-001  0.3791602E+03  0.7546771E-02  0.1051245E+00
          1   -1    0    0  502    0  0.00000000000E+00  0.00000000000E+00  0.25916389558E+03  0.25916389558E+03  0.00000000000E+00 0.  1.
         -1   -1    0    0    0  501 -0.00000000000E+00 -0.00000000000E+00 -0.85824997844E+03  0.85824997844E+03  0.00000000000E+00 0. -1.
          6    1    1    2  502    0  0.33552589157E+03 -0.40010357237E+02  0.32718873124E+02  0.38056928050E+03  0.17200000000E+03 0. -1.
         -6    1    1    2    0  501 -0.33552589157E+03  0.40010357237E+02 -0.63180495598E+03  0.73684459352E+03  0.17200000000E+03 0. -1.
<mgrwt>
<rscale>  2 0.37916019E+03</rscale>
<asrwt>0</asrwt>
<pdfrwt beam="1">  1        1 0.64790974E-01 0.37916019E+03</pdfrwt>
<pdfrwt beam="2">  1       -1 0.21456249E+00 0.37916019E+03</pdfrwt>
<totfact> 0.74306877E+00</totfact>
</mgrwt>
</event>
<event>
 4    1  0.3757815E-001  0.2476697E+03  0.7546771E-02  0.1114786E+00
         -2   -1    0    0    0  501 -0.00000000000E+00  0.00000000000E+00  0.49035314718E+02  0.49035314718E+02  0.00000000000E+00 0.  1.
          2   -1    0    0  502    0  0.00000000000E+00 -0.00000000000E+00 -0.12865986309E+04  0.12865986309E+04  0.00000000000E+00 0. -1.
          6    1    1    2  502    0 -0.13695267653E+03 -0.11401870182E+03 -0.72995748577E+03  0.77082957325E+03  0.17200000000E+03 0.  1.
         -6    1    1    2    0  501  0.13695267653E+03  0.11401870182E+03 -0.50760583043E+03  0.56480437238E+03  0.17200000000E+03 0. -1.
<mgrwt>
<rscale>  2 0.24766974E+03</rscale>
<asrwt>0</asrwt>
<pdfrwt beam="1">  1        2 0.32164966E+00 0.24766974E+03</pdfrwt>
<pdfrwt beam="2">  1       -2 0.12258829E-01 0.24766974E+03</pdfrwt>
<totfact> 0.32041562E+02</totfact>
</mgrwt>
</event>
<event>
 4    1  0.3757815E-001  0.1796468E+03  0.7546771E-02  0.1168145E+00
         -1   -1    0    0    0  501 -0.00000000000E+00  0.00000000000E+00  0.26957114783E+02  0.26957114783E+02  0.00000000000E+00 0.  1.
          1   -1    0    0  502    0  0.00000000000E+00 -0.00000000000E+00 -0.17045151407E+04  0.17045151407E+04  0.00000000000E+00 0. -1.
          6    1    1    2  502    0 -0.41982741549E+02  0.30437293165E+02 -0.13110869748E+04  0.13233374607E+04  0.17200000000E+03 0. -1.
         -6    1    1    2    0  501  0.41982741549E+02 -0.30437293165E+02 -0.36647105109E+03  0.40813479475E+03  0.17200000000E+03 0.  1.
<mgrwt>
<rscale>  2 0.17964682E+03</rscale>
<asrwt>0</asrwt>
<pdfrwt beam="1">  1        1 0.42612878E+00 0.17964682E+03</pdfrwt>
<pdfrwt beam="2">  1       -1 0.67392787E-02 0.17964682E+03</pdfrwt>
<totfact> 0.12079701E+02</totfact>
</mgrwt>
</event>
<event>
 4    1  0.3757815E-001  0.1849127E+03  0.7546771E-02  0.1163131E+00
          1   -1    0    0  502    0  0.00000000000E+00  0.00000000000E+00  0.88235543543E+03  0.88235543543E+03  0.00000000000E+00 0.  1.
         -1   -1    0    0    0  501 -0.00000000000E+00 -0.00000000000E+00 -0.50437372681E+02  0.50437372681E+02  0.00000000000E+00 0. -1.
          6    1    1    2  502    0 -0.50501396522E+02 -0.45368782812E+02  0.64045419825E+03  0.66661405443E+03  0.17200000000E+03 0.  1.
         -6    1    1    2    0  501  0.50501396522E+02  0.45368782812E+02  0.19146386450E+03  0.26617875369E+03  0.17200000000E+03 0. -1.
<mgrwt>
<rscale>  2 0.18491273E+03</rscale>
<asrwt>0</asrwt>
<pdfrwt beam="1">  1        1 0.22058881E+00 0.18491273E+03</pdfrwt>
<pdfrwt beam="2">  1       -1 0.12609346E-01 0.18491273E+03</pdfrwt>
<totfact> 0.34231225E+02</totfact>
</mgrwt>
</event>
<event>
 4    1  0.3757815E-001  0.1733111E+03  0.7546771E-02  0.1174438E+00
         -2   -1    0    0    0  501 -0.00000000000E+00  0.00000000000E+00  0.54082532223E+02  0.54082532223E+02  0.00000000000E+00 0.  1.
          2   -1    0    0  502    0  0.00000000000E+00 -0.00000000000E+00 -0.60525559033E+03  0.60525559033E+03  0.00000000000E+00 0. -1.
          6    1    1    2  502    0 -0.19929832904E+02  0.74527279532E+01 -0.18095805344E+03  0.25056447972E+03  0.17200000000E+03 0.  1.
         -6    1    1    2    0  501  0.19929832904E+02 -0.74527279532E+01 -0.37021500466E+03  0.40877364283E+03  0.17200000000E+03 0. -1.
<mgrwt>
<rscale>  2 0.17331111E+03</rscale>
<asrwt>0</asrwt>
<pdfrwt beam="1">  1        2 0.15131390E+00 0.17331111E+03</pdfrwt>
<pdfrwt beam="2">  1       -2 0.13520633E-01 0.17331111E+03</pdfrwt>
<totfact> 0.10969513E+03</totfact>
</mgrwt>
</event>
<event>
 4    1  0.3757815E-001  0.1858907E+03  0.7546771E-02  0.1162221E+00
         -1   -1    0    0    0  501 -0.00000000000E+00  0.00000000000E+00  0.61082651815E+02  0.61082651815E+02  0.00000000000E+00 0. -1.
          1   -1    0    0  502    0  0.00000000000E+00 -0.00000000000E+00 -0.71235921601E+03  0.71235921601E+03  0.00000000000E+00 0.  1.
          6    1    1    2  502    0 -0.47390238449E+02  0.52206645665E+02 -0.15017723375E+03  0.23897399459E+03  0.17200000000E+03 0. -1.
         -6    1    1    2    0  501  0.47390238449E+02 -0.52206645665E+02 -0.50109933044E+03  0.53446787323E+03  0.17200000000E+03 0.  1.
<mgrwt>
<rscale>  2 0.18589074E+03</rscale>
<asrwt>0</asrwt>
<pdfrwt beam="1">  1        1 0.17808980E+00 0.18589074E+03</pdfrwt>
<pdfrwt beam="2">  1       -1 0.15270663E-01 0.18589074E+03</pdfrwt>
<totfact> 0.38996661E+02</totfact>
</mgrwt>
</event>
<event>
 4    1  0.3757815E-001  0.1907950E+03  0.7546771E-02  0.1157746E+00
          4   -1    0    0  502    0  0.00000000000E+00  0.00000000000E+00  0.14831602849E+03  0.14831602849E+03  0.00000000000E+00 0. -1.
         -4   -1    0    0    0  501 -0.00000000000E+00 -0.00000000000E+00 -0.39646833211E+03  0.39646833211E+03  0.00000000000E+00 0.  1.
          6    1    1    2  502    0 -0.63767863802E+02  0.52463385805E+02  0.44043701796E+02  0.19581265274E+03  0.17200000000E+03 0. -1.
         -6    1    1    2    0  501  0.63767863802E+02 -0.52463385805E+02 -0.29219600542E+03  0.34897170786E+03  0.17200000000E+03 0.  1.
<mgrwt>
<rscale>  2 0.19079504E+03</rscale>
<asrwt>0</asrwt>
<pdfrwt beam="1">  1        4 0.37079008E-01 0.19079504E+03</pdfrwt>
<pdfrwt beam="2">  1       -4 0.99117082E-01 0.19079504E+03</pdfrwt>
<totfact> 0.10890007E+01</totfact>
</mgrwt>
</event>
<event>
 4    1  0.3757815E-001  0.1888621E+03  0.7546771E-02  0.1159492E+00
         -1   -1    0    0    0  501 -0.00000000000E+00  0.00000000000E+00  0.46129842270E+02  0.46129842270E+02  0.00000000000E+00 0.  1.
          1   -1    0    0  502    0  0.00000000000E+00 -0.00000000000E+00 -0.92057941542E+03  0.92057941542E+03  0.00000000000E+00 0. -1.
          6    1    1    2  502    0 -0.66165061726E+02 -0.41316699184E+02 -0.24384439780E+03  0.30842985485E+03  0.17200000000E+03 0.  1.
         -6    1    1    2    0  501  0.66165061726E+02  0.41316699184E+02 -0.63060517535E+03  0.65827940284E+03  0.17200000000E+03 0. -1.
<mgrwt>
<rscale>  2 0.18886208E+03</rscale>
<asrwt>0</asrwt>
<pdfrwt beam="1">  1        1 0.23014484E+00 0.18886208E+03</pdfrwt>
<pdfrwt beam="2">  1       -1 0.11532461E-01 0.18886208E+03</pdfrwt>
<totfact> 0.35765585E+02</totfact>
</mgrwt>
</event>
<event>
 4    1  0.3757815E-001  0.1811168E+03  0.7546771E-02  0.1166727E+00
         -2   -1    0    0    0  501 -0.00000000000E+00  0.00000000000E+00  0.98926012086E+02  0.98926012086E+02  0.00000000000E+00 0.  1.
          2   -1    0    0  502    0  0.00000000000E+00 -0.00000000000E+00 -0.51209985827E+03  0.51209985827E+03  0.00000000000E+00 0. -1.
          6    1    1    2  502    0 -0.94006573776E+01  0.55954638315E+02 -0.38797037376E+03  0.42816387613E+03  0.17200000000E+03 0. -1.
         -6    1    1    2    0  501  0.94006573776E+01 -0.55954638315E+02 -0.25203472418E+02  0.18286199422E+03  0.17200000000E+03 0.  1.
<mgrwt>
<rscale>  2 0.18111680E+03</rscale>
<asrwt>0</asrwt>
<pdfrwt beam="1">  1        2 0.12802496E+00 0.18111680E+03</pdfrwt>
<pdfrwt beam="2">  1       -2 0.24731504E-01 0.18111680E+03</pdfrwt>
<totfact> 0.49472848E+02</totfact>
</mgrwt>
</event>
<event>
 4    1  0.3757815E-001  0.1823163E+03  0.7546771E-02  0.1165580E+00
          2   -1    0    0  502    0  0.00000000000E+00  0.00000000000E+00  0.20297597415E+03  0.20297597415E+03  0.00000000000E+00 0. -1.
         -2   -1    0    0    0  501 -0.00000000000E+00 -0.00000000000E+00 -0.16887176290E+03  0.16887176290E+03  0.00000000000E+00 0.  1.
          6    1    1    2  502    0  0.67165549096E+01 -0.60084406226E+02  0.49401219842E+02  0.18889078459E+03  0.17200000000E+03 0. -1.
         -6    1    1    2    0  501 -0.67165549096E+01  0.60084406226E+02 -0.15297008584E+02  0.18295695246E+03  0.17200000000E+03 0. -1.
<mgrwt>
<rscale>  2 0.18231634E+03</rscale>
<asrwt>0</asrwt>
<pdfrwt beam="1">  1        2 0.50743993E-01 0.18231634E+03</pdfrwt>
<pdfrwt beam="2">  1       -2 0.42217941E-01 0.18231634E+03</pdfrwt>
<totfact> 0.53132531E+02</totfact>
</mgrwt>
</event>
<event>
 4    1  0.3757815E-001  0.2319141E+03  0.7546771E-02  0.1125300E+00
         -1   -1    0    0    0  501 -0.00000000000E+00  0.00000000000E+00  0.69251986050E+02  0.69251986050E+02  0.00000000000E+00 0.  1.
          1   -1    0    0  502    0  0.00000000000E+00 -0.00000000000E+00 -0.83300867166E+03  0.83300867166E+03  0.00000000000E+00 0. -1.
          6    1    1    2  502    0 -0.11618046366E+03 -0.10345177272E+03 -0.49922726032E+03  0.55046528216E+03  0.17200000000E+03 0. -1.
         -6    1    1    2    0  501  0.11618046366E+03  0.10345177272E+03 -0.26452942530E+03  0.35179537556E+03  0.17200000000E+03 0.  1.
<mgrwt>
<rscale>  2 0.23191414E+03</rscale>
<asrwt>0</asrwt>
<pdfrwt beam="1">  1        1 0.20825216E+00 0.23191414E+03</pdfrwt>
<pdfrwt beam="2">  1       -1 0.17312997E-01 0.23191414E+03</pdfrwt>
<totfact> 0.23216715E+02</totfact>
</mgrwt>
</event>
<event>
 4    1  0.3757815E-001  0.1824689E+03  0.7546771E-02  0.1165435E+00
         -2   -1    0    0    0  501 -0.00000000000E+00  0.00000000000E+00  0.28598843841E+02  0.28598843841E+02  0.00000000000E+00 0.  1.
          2   -1    0    0  502    0  0.00000000000E+00 -0.00000000000E+00 -0.11829238883E+04  0.11829238883E+04  0.00000000000E+00 0. -1.
          6    1    1    2  502    0  0.40519674373E+02  0.45487069039E+02 -0.50096111222E+03  0.53315753152E+03  0.17200000000E+03 0.  1.
         -6    1    1    2    0  501 -0.40519674373E+02 -0.45487069039E+02 -0.65336393224E+03  0.67836520062E+03  0.17200000000E+03 0. -1.
<mgrwt>
<rscale>  2 0.18246895E+03</rscale>
<asrwt>0</asrwt>
<pdfrwt beam="1">  1        2 0.29573095E+00 0.18246895E+03</pdfrwt>
<pdfrwt beam="2">  1       -2 0.71497114E-02 0.18246895E+03</pdfrwt>
<totfact> 0.93240377E+02</totfact>
</mgrwt>
</event>
<event>
 4    1  0.3757815E-001  0.2987493E+03  0.7546771E-02  0.1085868E+00
          2   -1    0    0  502    0  0.00000000000E+00  0.00000000000E+00  0.15676597570E+03  0.15676597570E+03  0.00000000000E+00 0.  1.
         -2   -1    0    0    0  501 -0.00000000000E+00 -0.00000000000E+00 -0.68448348671E+03  0.68448348671E+03  0.00000000000E+00 0. -1.
          6    1    1    2  502    0 -0.20220735570E+03 -0.13703767338E+03 -0.91331748993E+02  0.31239818661E+03  0.17200000000E+03 0.  1.
         -6    1    1    2    0  501  0.20220735570E+03  0.13703767338E+03 -0.43638576202E+03  0.52885127580E+03  0.17200000000E+03 0. -1.
<mgrwt>
<rscale>  2 0.29874929E+03</rscale>
<asrwt>0</asrwt>
<pdfrwt beam="1">  1        2 0.39191495E-01 0.29874929E+03</pdfrwt>
<pdfrwt beam="2">  1       -2 0.17112087E+00 0.29874929E+03</pdfrwt>
<totfact> 0.29313672E+01</totfact>
</mgrwt>
</event>
<event>
 4    1  0.3757815E-001  0.1745210E+03  0.7546771E-02  0.1173214E+00
         -2   -1    0    0    0  501 -0.00000000000E+00  0.00000000000E+00  0.65891651103E+02  0.65891651103E+02  0.00000000000E+00 0.  1.
          2   -1    0    0  502    0  0.00000000000E+00 -0.00000000000E+00 -0.46241658945E+03  0.46241658945E+03  0.00000000000E+00 0. -1.
          6    1    1    2  502    0  0.29409907236E+02  0.29391596046E+01 -0.19306162479E+03  0.26025059514E+03  0.17200000000E+03 0.  1.
         -6    1    1    2    0  501 -0.29409907236E+02 -0.29391596046E+01 -0.20346331356E+03  0.26805764542E+03  0.17200000000E+03 0.  1.
<mgrwt>
<rscale>  2 0.17452101E+03</rscale>
<asrwt>0</asrwt>
<pdfrwt beam="1">  1        2 0.11560415E+00 0.17452101E+03</pdfrwt>
<pdfrwt beam="2">  1       -2 0.16472913E-01 0.17452101E+03</pdfrwt>
<totfact> 0.11244487E+03</totfact>
</mgrwt>
</event>
<event>
 4    1  0.3757815E-001  0.1810210E+03  0.7546771E-02  0.1166819E+00
          2   -1    0    0  502    0  0.00000000000E+00  0.00000000000E+00  0.34211127733E+03  0.34211127733E+03  0.00000000000E+00 0. -1.
         -2   -1    0    0    0  501 -0.00000000000E+00 -0.00000000000E+00 -0.13982931054E+03  0.13982931054E+03  0.00000000000E+00 0.  1.
          6    1    1    2  502    0  0.11256846211E+02 -0.55298280309E+02  0.23638457328E+03  0.29773525635E+03  0.17200000000E+03 0. -1.
         -6    1    1    2    0  501 -0.11256846211E+02  0.55298280309E+02 -0.34102606490E+02  0.18420533152E+03  0.17200000000E+03 0.  1.
<mgrwt>
<rscale>  2 0.18102104E+03</rscale>
<asrwt>0</asrwt>
<pdfrwt beam="1">  1        2 0.85527818E-01 0.18102104E+03</pdfrwt>
<pdfrwt beam="2">  1       -2 0.34957328E-01 0.18102104E+03</pdfrwt>
<totfact> 0.42922662E+02</totfact>
</mgrwt>
</event>
<event>
 4    1  0.3757815E-001  0.2415345E+03  0.7546771E-02  0.1118775E+00
          2   -1    0    0  502    0  0.00000000000E+00  0.00000000000E+00  0.92121250280E+03  0.92121250280E+03  0.00000000000E+00 0.  1.
         -2   -1    0    0    0  501 -0.00000000000E+00 -0.00000000000E+00 -0.67096070329E+02  0.67096070329E+02  0.00000000000E+00 0. -1.
          6    1    1    2  502    0  0.14608180572E+03  0.86110631238E+02  0.54415613156E+03  0.59535269403E+03  0.17200000000E+03 0.  1.
         -6    1    1    2    0  501 -0.14608180572E+03 -0.86110631238E+02  0.30996030091E+03  0.39295587910E+03  0.17200000000E+03 0. -1.
<mgrwt>
<rscale>  2 0.24153454E+03</rscale>
<asrwt>0</asrwt>
<pdfrwt beam="1">  1        2 0.23030309E+00 0.24153454E+03</pdfrwt>
<pdfrwt beam="2">  1       -2 0.16774021E-01 0.24153454E+03</pdfrwt>
<totfact> 0.39266997E+02</totfact>
</mgrwt>
</event>
<event>
 4    1  0.3757815E-001  0.2060624E+03  0.7546771E-02  0.1144723E+00
         -2   -1    0    0    0  501 -0.00000000000E+00  0.00000000000E+00  0.24788991315E+02  0.24788991315E+02  0.00000000000E+00 0.  1.
          2   -1    0    0  502    0  0.00000000000E+00 -0.00000000000E+00 -0.17223607107E+04  0.17223607107E+04  0.00000000000E+00 0. -1.
          6    1    1    2  502    0 -0.51652865708E+02 -0.10104298203E+03 -0.78413013429E+03  0.81075382839E+03  0.17200000000E+03 0.  1.
         -6    1    1    2    0  501  0.51652865708E+02  0.10104298203E+03 -0.91344158512E+03  0.93639587364E+03  0.17200000000E+03 0. -1.
<mgrwt>
<rscale>  2 0.20606238E+03</rscale>
<asrwt>0</asrwt>
<pdfrwt beam="1">  1        2 0.43059016E+00 0.20606238E+03</pdfrwt>
<pdfrwt beam="2">  1       -2 0.61972481E-02 0.20606238E+03</pdfrwt>
<totfact> 0.39158862E+02</totfact>
</mgrwt>
</event>
<event>
 4    1  0.3757815E-001  0.2295445E+03  0.7546771E-02  0.1126961E+00
          2   -1    0    0  502    0  0.00000000000E+00  0.00000000000E+00  0.13491533609E+04  0.13491533609E+04  0.00000000000E+00 0.  1.
         -2   -1    0    0    0  501 -0.00000000000E+00 -0.00000000000E+00 -0.39646007939E+02  0.39646007939E+02  0.00000000000E+00 0. -1.
          6    1    1    2  502    0 -0.53754101141E+02 -0.14218716511E+03  0.73956232994E+03  0.77436627844E+03  0.17200000000E+03 0.  1.
         -6    1    1    2    0  501  0.53754101141E+02  0.14218716511E+03  0.56994502299E+03  0.61443309037E+03  0.17200000000E+03 0. -1.
<mgrwt>
<rscale>  2 0.22954453E+03</rscale>
<asrwt>0</asrwt>
<pdfrwt beam="1">  1        2 0.33728819E+00 0.22954453E+03</pdfrwt>
<pdfrwt beam="2">  1       -2 0.99115065E-02 0.22954453E+03</pdfrwt>
<totfact> 0.40008217E+02</totfact>
</mgrwt>
</event>
<event>
 4    1  0.3757815E-001  0.2804608E+03  0.7546771E-02  0.1095438E+00
         -1   -1    0    0    0  501 -0.00000000000E+00  0.00000000000E+00  0.69847316857E+03  0.69847316857E+03  0.00000000000E+00 0.  1.
          1   -1    0    0  502    0  0.00000000000E+00 -0.00000000000E+00 -0.35628555246E+03  0.35628555246E+03  0.00000000000E+00 0. -1.
          6    1    1    2  502    0 -0.14198318109E+03 -0.17004419990E+03 -0.26504620570E+03  0.38588566284E+03  0.17200000000E+03 0. -1.
         -6    1    1    2    0  501  0.14198318109E+03  0.17004419990E+03  0.60723382181E+03  0.66887305819E+03  0.17200000000E+03 0.  1.
<mgrwt>
<rscale>  2 0.28046079E+03</rscale>
<asrwt>0</asrwt>
<pdfrwt beam="1">  1        1 0.89071389E-01 0.28046079E+03</pdfrwt>
<pdfrwt beam="2">  1       -1 0.17461829E+00 0.28046079E+03</pdfrwt>
<totfact> 0.93476252E+00</totfact>
</mgrwt>
</event>
<event>
 4    1  0.3757815E-001  0.1720095E+03  0.7546771E-02  0.1175768E+00
         -2   -1    0    0    0  501 -0.00000000000E+00  0.00000000000E+00  0.39816739693E+02  0.39816739693E+02  0.00000000000E+00 0. -1.
          2   -1    0    0  502    0  0.00000000000E+00 -0.00000000000E+00 -0.88528605672E+03  0.88528605672E+03  0.00000000000E+00 0.  1.
          6    1    1    2  502    0  0.16538202192E+01  0.72873905188E+00 -0.23735251307E+03  0.29312707422E+03  0.17200000000E+03 0. -1.
         -6    1    1    2    0  501 -0.16538202192E+01 -0.72873905188E+00 -0.60811680396E+03  0.63197572219E+03  0.17200000000E+03 0.  1.
<mgrwt>
<rscale>  2 0.17200949E+03</rscale>
<asrwt>0</asrwt>
<pdfrwt beam="1">  1        2 0.22132150E+00 0.17200949E+03</pdfrwt>
<pdfrwt beam="2">  1       -2 0.99541855E-02 0.17200949E+03</pdfrwt>
<totfact> 0.99461224E+02</totfact>
</mgrwt>
</event>
<event>
 4    1  0.3757815E-001  0.1952876E+03  0.7546771E-02  0.1153777E+00
          2   -1    0    0  502    0  0.00000000000E+00  0.00000000000E+00  0.74406496382E+03  0.74406496382E+03  0.00000000000E+00 0. -1.
         -2   -1    0    0    0  501 -0.00000000000E+00 -0.00000000000E+00 -0.52914574375E+02  0.52914574375E+02  0.00000000000E+00 0.  1.
          6    1    1    2  502    0 -0.53909595055E+02 -0.75146497280E+02  0.41614100491E+03  0.45968530155E+03  0.17200000000E+03 0. -1.
         -6    1    1    2    0  501  0.53909595055E+02  0.75146497280E+02  0.27500938453E+03  0.33729423664E+03  0.17200000000E+03 0. -1.
<mgrwt>
<rscale>  2 0.19528758E+03</rscale>
<asrwt>0</asrwt>
<pdfrwt beam="1">  1        2 0.18601621E+00 0.19528758E+03</pdfrwt>
<pdfrwt beam="2">  1       -2 0.13228646E-01 0.19528758E+03</pdfrwt>
<totfact> 0.83911807E+02</totfact>
</mgrwt>
</event>
<event>
 4    1  0.3757815E-001  0.1910580E+03  0.7546771E-02  0.1157511E+00
         -2   -1    0    0    0  501 -0.00000000000E+00  0.00000000000E+00  0.79517263045E+02  0.79517263045E+02  0.00000000000E+00 0. -1.
          2   -1    0    0  502    0  0.00000000000E+00 -0.00000000000E+00 -0.71854740932E+03  0.71854740932E+03  0.00000000000E+00 0.  1.
          6    1    1    2  502    0  0.74257381559E+02  0.37483332999E+02 -0.79720749286E+02  0.20702308286E+03  0.17200000000E+03 0. -1.
         -6    1    1    2    0  501 -0.74257381559E+02 -0.37483332999E+02 -0.55930939699E+03  0.59104158951E+03  0.17200000000E+03 0.  1.
<mgrwt>
<rscale>  2 0.19105800E+03</rscale>
<asrwt>0</asrwt>
<pdfrwt beam="1">  1        2 0.17963685E+00 0.19105800E+03</pdfrwt>
<pdfrwt beam="2">  1       -2 0.19879316E-01 0.19105800E+03</pdfrwt>
<totfact> 0.45011898E+02</totfact>
</mgrwt>
</event>
<event>
 4    1  0.3757815E-001  0.2000184E+03  0.7546771E-02  0.1149723E+00
          2   -1    0    0  502    0  0.00000000000E+00  0.00000000000E+00  0.22186269490E+03  0.22186269490E+03  0.00000000000E+00 0. -1.
         -2   -1    0    0    0  501 -0.00000000000E+00 -0.00000000000E+00 -0.18032761351E+03  0.18032761351E+03  0.00000000000E+00 0.  1.
          6    1    1    2  502    0 -0.27151319676E+02 -0.98418365200E+02  0.19987788002E+02  0.20101462742E+03  0.17200000000E+03 0. -1.
         -6    1    1    2    0  501  0.27151319676E+02  0.98418365200E+02  0.21547293384E+02  0.20117568099E+03  0.17200000000E+03 0. -1.
<mgrwt>
<rscale>  2 0.20001842E+03</rscale>
<asrwt>0</asrwt>
<pdfrwt beam="1">  1        2 0.55465674E-01 0.20001842E+03</pdfrwt>
<pdfrwt beam="2">  1       -2 0.45081904E-01 0.20001842E+03</pdfrwt>
<totfact> 0.42524253E+02</totfact>
</mgrwt>
</event>
<event>
 4    1  0.3757815E-001  0.1738750E+03  0.7546771E-02  0.1173866E+00
          2   -1    0    0  502    0  0.00000000000E+00  0.00000000000E+00  0.21177344383E+03  0.21177344383E+03  0.00000000000E+00 0. -1.
         -2   -1    0    0    0  501 -0.00000000000E+00 -0.00000000000E+00 -0.19078936318E+03  0.19078936318E+03  0.00000000000E+00 0.  1.
          6    1    1    2  502    0  0.25046789162E+02  0.46018760713E+01  0.11148369631E+03  0.20654571759E+03  0.17200000000E+03 0. -1.
         -6    1    1    2    0  501 -0.25046789162E+02 -0.46018760713E+01 -0.90499615663E+02  0.19601708942E+03  0.17200000000E+03 0.  1.
<mgrwt>
<rscale>  2 0.17387501E+03</rscale>
<asrwt>0</asrwt>
<pdfrwt beam="1">  1        2 0.52943361E-01 0.17387501E+03</pdfrwt>
<pdfrwt beam="2">  1       -2 0.47697341E-01 0.17387501E+03</pdfrwt>
<totfact> 0.40043541E+02</totfact>
</mgrwt>
</event>
<event>
 4    1  0.3757815E-001  0.1759929E+03  0.7546771E-02  0.1171738E+00
          1   -1    0    0  502    0  0.00000000000E+00  0.00000000000E+00  0.11190170890E+03  0.11190170890E+03  0.00000000000E+00 0. -1.
         -1   -1    0    0    0  501 -0.00000000000E+00 -0.00000000000E+00 -0.31291102901E+03  0.31291102901E+03  0.00000000000E+00 0.  1.
          6    1    1    2  502    0  0.34173399911E+02  0.14888405694E+02 -0.28339800051E+02  0.17826000716E+03  0.17200000000E+03 0. -1.
         -6    1    1    2    0  501 -0.34173399911E+02 -0.14888405694E+02 -0.17266952005E+03  0.24655273075E+03  0.17200000000E+03 0.  1.
<mgrwt>
<rscale>  2 0.17599286E+03</rscale>
<asrwt>0</asrwt>
<pdfrwt beam="1">  1        1 0.27975427E-01 0.17599286E+03</pdfrwt>
<pdfrwt beam="2">  1       -1 0.78227757E-01 0.17599286E+03</pdfrwt>
<totfact> 0.28648002E+02</totfact>
</mgrwt>
</event>
<event>
 4    1  0.3757815E-001  0.1831124E+03  0.7546771E-02  0.1164824E+00
         -1   -1    0    0    0  501 -0.00000000000E+00  0.00000000000E+00  0.56123849689E+02  0.56123849689E+02  0.00000000000E+00 0.  1.
          1   -1    0    0  502    0  0.00000000000E+00 -0.00000000000E+00 -0.60011203579E+03  0.60011203579E+03  0.00000000000E+00 0. -1.
          6    1    1    2  502    0 -0.30753085089E+02 -0.54775852981E+02 -0.25006411617E+03  0.30993903999E+03  0.17200000000E+03 0.  1.
         -6    1    1    2    0  501  0.30753085089E+02  0.54775852981E+02 -0.29392406992E+03  0.34629684548E+03  0.17200000000E+03 0.  1.
<mgrwt>
<rscale>  2 0.18311239E+03</rscale>
<asrwt>0</asrwt>
<pdfrwt beam="1">  1        1 0.15002801E+00 0.18311239E+03</pdfrwt>
<pdfrwt beam="2">  1       -1 0.14030963E-01 0.18311239E+03</pdfrwt>
<totfact> 0.60378969E+02</totfact>
</mgrwt>
</event>
<event>
 4    1  0.3757815E-001  0.2982096E+03  0.7546771E-02  0.1086139E+00
          1   -1    0    0  502    0  0.00000000000E+00  0.00000000000E+00  0.71327702476E+03  0.71327702476E+03  0.00000000000E+00 0.  1.
         -1   -1    0    0    0  501 -0.00000000000E+00 -0.00000000000E+00 -0.12675557604E+03  0.12675557604E+03  0.00000000000E+00 0. -1.
          6    1    1    2  502    0  0.24240344343E+03 -0.24197619562E+02  0.23947000294E+03  0.38245893438E+03  0.17200000000E+03 0. -1.
         -6    1    1    2    0  501 -0.24240344343E+03  0.24197619562E+02  0.34705144578E+03  0.45757366642E+03  0.17200000000E+03 0.  1.
<mgrwt>
<rscale>  2 0.29820958E+03</rscale>
<asrwt>0</asrwt>
<pdfrwt beam="1">  1        1 0.17831925E+00 0.29820958E+03</pdfrwt>
<pdfrwt beam="2">  1       -1 0.31688896E-01 0.29820958E+03</pdfrwt>
<totfact> 0.11446124E+02</totfact>
</mgrwt>
</event>
<event>
 4    1  0.3757815E-001  0.1748652E+03  0.7546771E-02  0.1172867E+00
         -2   -1    0    0    0  501 -0.00000000000E+00  0.00000000000E+00  0.15455261012E+02  0.15455261012E+02  0.00000000000E+00 0. -1.
          2   -1    0    0  502    0  0.00000000000E+00 -0.00000000000E+00 -0.21651904045E+04  0.21651904045E+04  0.00000000000E+00 0.  1.
          6    1    1    2  502    0 -0.29911573817E+02 -0.99572207299E+01 -0.13950496820E+04  0.14059663807E+04  0.17200000000E+03 0.  1.
         -6    1    1    2    0  501  0.29911573817E+02  0.99572207299E+01 -0.75468546153E+03  0.77467928483E+03  0.17200000000E+03 0. -1.
<mgrwt>
<rscale>  2 0.17486523E+03</rscale>
<asrwt>0</asrwt>
<pdfrwt beam="1">  1        2 0.54129763E+00 0.17486523E+03</pdfrwt>
<pdfrwt beam="2">  1       -2 0.38638150E-02 0.17486523E+03</pdfrwt>
<totfact> 0.29646744E+02</totfact>
</mgrwt>
</event>
<event>
 4    1  0.3757815E-001  0.1881723E+03  0.7546771E-02  0.1160120E+00
          2   -1    0    0  502    0  0.00000000000E+00  0.00000000000E+00  0.48595622739E+03  0.48595622739E+03  0.00000000000E+00 0. -1.
         -2   -1    0    0    0  501 -0.00000000000E+00 -0.00000000000E+00 -0.75326384614E+02  0.75326384614E+02  0.00000000000E+00 0.  1.
          6    1    1    2  502    0  0.48103828411E+02  0.59252426750E+02  0.25605315195E+03  0.31776098724E+03  0.17200000000E+03 0. -1.
         -6    1    1    2    0  501 -0.48103828411E+02 -0.59252426750E+02  0.15457669082E+03  0.24352162477E+03  0.17200000000E+03 0.  1.
<mgrwt>
<rscale>  2 0.18817234E+03</rscale>
<asrwt>0</asrwt>
<pdfrwt beam="1">  1        2 0.12148905E+00 0.18817234E+03</pdfrwt>
<pdfrwt beam="2">  1       -2 0.18831598E-01 0.18817234E+03</pdfrwt>
<totfact> 0.84495489E+02</totfact>
</mgrwt>
</event>
<event>
 4    1  0.3757815E-001  0.1842235E+03  0.7546771E-02  0.1163777E+00
         -1   -1    0    0    0  501 -0.00000000000E+00  0.00000000000E+00  0.84489310433E+02  0.84489310433E+02  0.00000000000E+00 0.  1.
          1   -1    0    0  502    0  0.00000000000E+00 -0.00000000000E+00 -0.51160387052E+03  0.51160387052E+03  0.00000000000E+00 0. -1.
          6    1    1    2  502    0 -0.51827607428E+02 -0.40843686754E+02 -0.35170644230E+03  0.39703366255E+03  0.17200000000E+03 0. -1.
         -6    1    1    2    0  501  0.51827607428E+02  0.40843686754E+02 -0.75408117782E+02  0.19905951840E+03  0.17200000000E+03 0.  1.
<mgrwt>
<rscale>  2 0.18422353E+03</rscale>
<asrwt>0</asrwt>
<pdfrwt beam="1">  1        1 0.12790096E+00 0.18422353E+03</pdfrwt>
<pdfrwt beam="2">  1       -1 0.21122328E-01 0.18422353E+03</pdfrwt>
<totfact> 0.40631869E+02</totfact>
</mgrwt>
</event>
<event>
 4    1  0.3757815E-001  0.1880274E+03  0.7546771E-02  0.1160253E+00
         -2   -1    0    0    0  501 -0.00000000000E+00  0.00000000000E+00  0.34234880784E+02  0.34234880784E+02  0.00000000000E+00 0. -1.
          2   -1    0    0  502    0  0.00000000000E+00 -0.00000000000E+00 -0.10333872307E+04  0.10333872307E+04  0.00000000000E+00 0.  1.
          6    1    1    2  502    0 -0.31973424808E+02 -0.68905632142E+02 -0.51336418633E+03  0.54671480119E+03  0.17200000000E+03 0.  1.
         -6    1    1    2    0  501  0.31973424808E+02  0.68905632142E+02 -0.48578816356E+03  0.52090731026E+03  0.17200000000E+03 0. -1.
<mgrwt>
<rscale>  2 0.18802735E+03</rscale>
<asrwt>0</asrwt>
<pdfrwt beam="1">  1        2 0.25834680E+00 0.18802735E+03</pdfrwt>
<pdfrwt beam="2">  1       -2 0.85587205E-02 0.18802735E+03</pdfrwt>
<totfact> 0.94135527E+02</totfact>
</mgrwt>
</event>
<event>
 4    1  0.3757815E-001  0.2805707E+03  0.7546771E-02  0.1095378E+00
          1   -1    0    0  502    0  0.00000000000E+00  0.00000000000E+00  0.43277331898E+03  0.43277331898E+03  0.00000000000E+00 0. -1.
         -1   -1    0    0    0  501 -0.00000000000E+00 -0.00000000000E+00 -0.20470901996E+03  0.20470901996E+03  0.00000000000E+00 0.  1.
          6    1    1    2  502    0  0.24615766184E+02 -0.22029522570E+03  0.22043590445E+03  0.35680794607E+03  0.17200000000E+03 0. -1.
         -6    1    1    2    0  501 -0.24615766184E+02  0.22029522570E+03  0.76283945741E+01  0.28067439287E+03  0.17200000000E+03 0.  1.
<mgrwt>
<rscale>  2 0.28057071E+03</rscale>
<asrwt>0</asrwt>
<pdfrwt beam="1">  1        1 0.10819333E+00 0.28057071E+03</pdfrwt>
<pdfrwt beam="2">  1       -1 0.51177256E-01 0.28057071E+03</pdfrwt>
<totfact> 0.11135169E+02</totfact>
</mgrwt>
</event>
<event>
 4    1  0.3757815E-001  0.1901736E+03  0.7546771E-02  0.1158305E+00
         -2   -1    0    0    0  501 -0.00000000000E+00  0.00000000000E+00  0.59413707044E+02  0.59413707044E+02  0.00000000000E+00 0. -1.
          2   -1    0    0  502    0  0.00000000000E+00 -0.00000000000E+00 -0.74043993530E+03  0.74043993530E+03  0.00000000000E+00 0.  1.
          6    1    1    2  502    0 -0.38505998824E+02  0.71409333140E+02 -0.17183067000E+03  0.25630408494E+03  0.17200000000E+03 0. -1.
         -6    1    1    2    0  501  0.38505998824E+02 -0.71409333140E+02 -0.50919555826E+03  0.54354955740E+03  0.17200000000E+03 0.  1.
<mgrwt>
<rscale>  2 0.19017362E+03</rscale>
<asrwt>0</asrwt>
<pdfrwt beam="1">  1        2 0.18510998E+00 0.19017362E+03</pdfrwt>
<pdfrwt beam="2">  1       -2 0.14853427E-01 0.19017362E+03</pdfrwt>
<totfact> 0.69992845E+02</totfact>
</mgrwt>
</event>
<event>
 4    1  0.3757815E-001  0.1731436E+03  0.7546771E-02  0.1174609E+00
         -1   -1    0    0    0  501 -0.00000000000E+00  0.00000000000E+00  0.25693183636E+03  0.25693183636E+03  0.00000000000E+00 0. -1.
          1   -1    0    0  502    0  0.00000000000E+00 -0.00000000000E+00 -0.15022137257E+03  0.15022137257E+03  0.00000000000E+00 0.  1.
          6    1    1    2  502    0  0.11694857543E+02  0.16060816907E+02  0.14955070044E+03  0.22878839904E+03  0.17200000000E+03 0. -1.
         -6    1    1    2    0  501 -0.11694857543E+02 -0.16060816907E+02 -0.42840236652E+02  0.17836480990E+03  0.17200000000E+03 0.  1.
<mgrwt>
<rscale>  2 0.17314364E+03</rscale>
<asrwt>0</asrwt>
<pdfrwt beam="1">  1        1 0.37555343E-01 0.17314364E+03</pdfrwt>
<pdfrwt beam="2">  1       -1 0.64232959E-01 0.17314364E+03</pdfrwt>
<totfact> 0.29363827E+02</totfact>
</mgrwt>
</event>
<event>
 4    1  0.3757815E-001  0.1755549E+03  0.7546771E-02  0.1172176E+00
          2   -1    0    0  502    0  0.00000000000E+00  0.00000000000E+00  0.69539676956E+03  0.69539676956E+03  0.00000000000E+00 0. -1.
         -2   -1    0    0    0  501 -0.00000000000E+00 -0.00000000000E+00 -0.51306989885E+02  0.51306989885E+02  0.00000000000E+00 0.  1.
          6    1    1    2  502    0 -0.34480739507E+02  0.68268253852E+01  0.18426190320E+03  0.25450339077E+03  0.17200000000E+03 0.  1.
         -6    1    1    2    0  501  0.34480739507E+02 -0.68268253852E+01  0.45982787647E+03  0.49220036867E+03  0.17200000000E+03 0. -1.
<mgrwt>
<rscale>  2 0.17555491E+03</rscale>
<asrwt>0</asrwt>
<pdfrwt beam="1">  1        2 0.17384916E+00 0.17555491E+03</pdfrwt>
<pdfrwt beam="2">  1       -2 0.12826750E-01 0.17555491E+03</pdfrwt>
<totfact> 0.97930773E+02</totfact>
</mgrwt>
</event>
<event>
 4    1  0.3757815E-001  0.2019054E+03  0.7546771E-02  0.1148141E+00
         -2   -1    0    0    0  501 -0.00000000000E+00  0.00000000000E+00  0.18241633389E+03  0.18241633389E+03  0.00000000000E+00 0. -1.
          2   -1    0    0  502    0  0.00000000000E+00 -0.00000000000E+00 -0.16346256794E+04  0.16346256794E+04  0.00000000000E+00 0.  1.
          6    1    1    2  502    0 -0.82599642371E+02  0.66023283953E+02 -0.15702403757E+04  0.15831679040E+04  0.17200000000E+03 0.  1.
         -6    1    1    2    0  501  0.82599642371E+02 -0.66023283953E+02  0.11803103011E+03  0.23387410932E+03  0.17200000000E+03 0. -1.
<mgrwt>
<rscale>  2 0.20190536E+03</rscale>
<asrwt>0</asrwt>
<pdfrwt beam="1">  1        2 0.40865642E+00 0.20190536E+03</pdfrwt>
<pdfrwt beam="2">  1       -2 0.45604084E-01 0.20190536E+03</pdfrwt>
<totfact> 0.15990258E+01</totfact>
</mgrwt>
</event>
<event>
 4    1  0.3757815E-001  0.2185139E+03  0.7546771E-02  0.1134996E+00
         -2   -1    0    0    0  501 -0.00000000000E+00  0.00000000000E+00  0.73917881284E+02  0.73917881284E+02  0.00000000000E+00 0. -1.
          2   -1    0    0  502    0  0.00000000000E+00 -0.00000000000E+00 -0.80044512049E+03  0.80044512049E+03  0.00000000000E+00 0.  1.
          6    1    1    2  502    0 -0.42597589005E+02  0.12786625735E+03 -0.17120541579E+03  0.27759616127E+03  0.17200000000E+03 0. -1.
         -6    1    1    2    0  501  0.42597589005E+02 -0.12786625735E+03 -0.55532182342E+03  0.59676684050E+03  0.17200000000E+03 0.  1.
<mgrwt>
<rscale>  2 0.21851392E+03</rscale>
<asrwt>0</asrwt>
<pdfrwt beam="1">  1        2 0.20011128E+00 0.21851392E+03</pdfrwt>
<pdfrwt beam="2">  1       -2 0.18479471E-01 0.21851392E+03</pdfrwt>
<totfact> 0.42763132E+02</totfact>
</mgrwt>
</event>
<event>
 4    1  0.3757815E-001  0.2362604E+03  0.7546771E-02  0.1122309E+00
         -2   -1    0    0    0  501 -0.00000000000E+00  0.00000000000E+00  0.45965205594E+02  0.45965205594E+02  0.00000000000E+00 0.  1.
          2   -1    0    0  502    0  0.00000000000E+00 -0.00000000000E+00 -0.12809127913E+04  0.12809127913E+04  0.00000000000E+00 0. -1.
          6    1    1    2  502    0  0.87615476522E+02 -0.13622964292E+03 -0.76868224206E+03  0.80417123586E+03  0.17200000000E+03 0. -1.
         -6    1    1    2    0  501 -0.87615476522E+02  0.13622964292E+03 -0.46626534360E+03  0.52270676099E+03  0.17200000000E+03 0.  1.
<mgrwt>
<rscale>  2 0.23626042E+03</rscale>
<asrwt>0</asrwt>
<pdfrwt beam="1">  1        2 0.32022819E+00 0.23626042E+03</pdfrwt>
<pdfrwt beam="2">  1       -2 0.11491302E-01 0.23626042E+03</pdfrwt>
<totfact> 0.36068101E+02</totfact>
</mgrwt>
</event>
<event>
 4    1  0.3757815E-001  0.1793447E+03  0.7546771E-02  0.1168439E+00
          2   -1    0    0  502    0  0.00000000000E+00  0.00000000000E+00  0.11978441204E+04  0.11978441204E+04  0.00000000000E+00 0. -1.
         -2   -1    0    0    0  501 -0.00000000000E+00 -0.00000000000E+00 -0.66456397071E+02  0.66456397071E+02  0.00000000000E+00 0.  1.
          6    1    1    2  502    0  0.16247966001E+02  0.48130135183E+02  0.77689565613E+02  0.19544865033E+03  0.17200000000E+03 0.  1.
         -6    1    1    2    0  501 -0.16247966001E+02 -0.48130135183E+02  0.10536981577E+04  0.10688518672E+04  0.17200000000E+03 0. -1.
<mgrwt>
<rscale>  2 0.17934466E+03</rscale>
<asrwt>0</asrwt>
<pdfrwt beam="1">  1        2 0.29946096E+00 0.17934466E+03</pdfrwt>
<pdfrwt beam="2">  1       -2 0.16614103E-01 0.17934466E+03</pdfrwt>
<totfact> 0.23584669E+02</totfact>
</mgrwt>
</event>
<event>
 4    1  0.3757815E-001  0.1850742E+03  0.7546771E-02  0.1162981E+00
         -2   -1    0    0    0  501 -0.00000000000E+00  0.00000000000E+00  0.12818524384E+03  0.12818524384E+03  0.00000000000E+00 0.  1.
          2   -1    0    0  502    0  0.00000000000E+00 -0.00000000000E+00 -0.34949146265E+03  0.34949146265E+03  0.00000000000E+00 0. -1.
          6    1    1    2  502    0  0.64913997933E+02 -0.21321833348E+02  0.52340638876E+01  0.18514816534E+03  0.17200000000E+03 0.  1.
         -6    1    1    2    0  501 -0.64913997933E+02  0.21321833348E+02 -0.22654028269E+03  0.29252854115E+03  0.17200000000E+03 0. -1.
<mgrwt>
<rscale>  2 0.18507417E+03</rscale>
<asrwt>0</asrwt>
<pdfrwt beam="1">  1        2 0.87372865E-01 0.18507417E+03</pdfrwt>
<pdfrwt beam="2">  1       -2 0.32046311E-01 0.18507417E+03</pdfrwt>
<totfact> 0.49169236E+02</totfact>
</mgrwt>
</event>
<event>
 4    1  0.3757815E-001  0.1880253E+03  0.7546771E-02  0.1160254E+00
          2   -1    0    0  502    0  0.00000000000E+00  0.00000000000E+00  0.74019754689E+03  0.74019754689E+03  0.00000000000E+00 0. -1.
         -2   -1    0    0    0  501 -0.00000000000E+00 -0.00000000000E+00 -0.57643236457E+02  0.57643236457E+02  0.00000000000E+00 0.  1.
          6    1    1    2  502    0 -0.68847332830E+02 -0.32087005055E+02  0.50643959685E+03  0.54021717520E+03  0.17200000000E+03 0. -1.
         -6    1    1    2    0  501  0.68847332830E+02  0.32087005055E+02  0.17611471359E+03  0.25762360814E+03  0.17200000000E+03 0.  1.
<mgrwt>
<rscale>  2 0.18802535E+03</rscale>
<asrwt>0</asrwt>
<pdfrwt beam="1">  1        2 0.18504936E+00 0.18802535E+03</pdfrwt>
<pdfrwt beam="2">  1       -2 0.14410811E-01 0.18802535E+03</pdfrwt>
<totfact> 0.73610352E+02</totfact>
</mgrwt>
</event>
<event>
 4    1  0.3757815E-001  0.2368934E+03  0.7546771E-02  0.1121880E+00
         -2   -1    0    0    0  501 -0.00000000000E+00  0.00000000000E+00  0.37845606203E+03  0.37845606203E+03  0.00000000000E+00 0. -1.
          2   -1    0    0  502    0  0.00000000000E+00 -0.00000000000E+00 -0.17503219258E+03  0.17503219258E+03  0.00000000000E+00 0.  1.
          6    1    1    2  502    0 -0.42310260633E+02  0.15730335357E+03 -0.64755110158E+01  0.23698193063E+03  0.17200000000E+03 0.  1.
         -6    1    1    2    0  501  0.42310260633E+02 -0.15730335357E+03  0.20989938047E+03  0.31650632398E+03  0.17200000000E+03 0. -1.
<mgrwt>
<rscale>  2 0.23689344E+03</rscale>
<asrwt>0</asrwt>
<pdfrwt beam="1">  1        2 0.43758049E-01 0.23689344E+03</pdfrwt>
<pdfrwt beam="2">  1       -2 0.94614014E-01 0.23689344E+03</pdfrwt>
<totfact> 0.11430231E+02</totfact>
</mgrwt>
</event>
<event>
 4    1  0.3757815E-001  0.2383857E+03  0.7546771E-02  0.1120873E+00
          2   -1    0    0  502    0  0.00000000000E+00  0.00000000000E+00  0.10788458652E+04  0.10788458652E+04  0.00000000000E+00 0.  1.
         -2   -1    0    0    0  501 -0.00000000000E+00 -0.00000000000E+00 -0.58832711356E+02  0.58832711356E+02  0.00000000000E+00 0. -1.
          6    1    1    2  502    0  0.14962897370E+03  0.69677074882E+02  0.32596940468E+03  0.40383632492E+03  0.17200000000E+03 0. -1.
         -6    1    1    2    0  501 -0.14962897370E+03 -0.69677074882E+02  0.69404374919E+03  0.73384225166E+03  0.17200000000E+03 0.  1.
<mgrwt>
<rscale>  2 0.23838566E+03</rscale>
<asrwt>0</asrwt>
<pdfrwt beam="1">  1        2 0.26971140E+00 0.23838566E+03</pdfrwt>
<pdfrwt beam="2">  1       -2 0.14708181E-01 0.23838566E+03</pdfrwt>
<totfact> 0.35812398E+02</totfact>
</mgrwt>
</event>
<event>
 4    1  0.3757815E-001  0.1972458E+03  0.7546771E-02  0.1152084E+00
         -3   -1    0    0    0  501 -0.00000000000E+00  0.00000000000E+00  0.52526227278E+02  0.52526227278E+02  0.00000000000E+00 0. -1.
          3   -1    0    0  502    0  0.00000000000E+00 -0.00000000000E+00 -0.75721082759E+03  0.75721082759E+03  0.00000000000E+00 0.  1.
          6    1    1    2  502    0 -0.28657477434E+02 -0.92198960271E+02 -0.29254804760E+03  0.35283177215E+03  0.17200000000E+03 0.  1.
         -6    1    1    2    0  501  0.28657477434E+02  0.92198960271E+02 -0.41213655271E+03  0.45690528271E+03  0.17200000000E+03 0.  1.
<mgrwt>
<rscale>  2 0.19724578E+03</rscale>
<asrwt>0</asrwt>
<pdfrwt beam="1">  1        3 0.18930270E+00 0.19724578E+03</pdfrwt>
<pdfrwt beam="2">  1       -3 0.13131557E-01 0.19724578E+03</pdfrwt>
<totfact> 0.21329592E+01</totfact>
</mgrwt>
</event>
<event>
 4    1  0.3757815E-001  0.1835171E+03  0.7546771E-02  0.1164442E+00
         -2   -1    0    0    0  501 -0.00000000000E+00  0.00000000000E+00  0.65800480613E+02  0.65800480613E+02  0.00000000000E+00 0.  1.
          2   -1    0    0  502    0  0.00000000000E+00 -0.00000000000E+00 -0.55387549454E+03  0.55387549454E+03  0.00000000000E+00 0. -1.
          6    1    1    2  502    0  0.37117822307E+02 -0.52122912323E+02 -0.32940616732E+03  0.37707685395E+03  0.17200000000E+03 0.  1.
         -6    1    1    2    0  501 -0.37117822307E+02  0.52122912323E+02 -0.15866884661E+03  0.24259912120E+03  0.17200000000E+03 0.  1.
<mgrwt>
<rscale>  2 0.18351711E+03</rscale>
<asrwt>0</asrwt>
<pdfrwt beam="1">  1        2 0.13846887E+00 0.18351711E+03</pdfrwt>
<pdfrwt beam="2">  1       -2 0.16450120E-01 0.18351711E+03</pdfrwt>
<totfact> 0.89565785E+02</totfact>
</mgrwt>
</event>
<event>
 4    1  0.3757815E-001  0.1917363E+03  0.7546771E-02  0.1156905E+00
         -2   -1    0    0    0  501 -0.00000000000E+00  0.00000000000E+00  0.47402406932E+02  0.47402406932E+02  0.00000000000E+00 0.  1.
          2   -1    0    0  502    0  0.00000000000E+00 -0.00000000000E+00 -0.81721560163E+03  0.81721560163E+03  0.00000000000E+00 0. -1.
          6    1    1    2  502    0  0.51295319777E+02  0.67435909128E+02 -0.48252428833E+03  0.51922297763E+03  0.17200000000E+03 0. -1.
         -6    1    1    2    0  501 -0.51295319777E+02 -0.67435909128E+02 -0.28728890637E+03  0.34539503093E+03  0.17200000000E+03 0.  1.
<mgrwt>
<rscale>  2 0.19173631E+03</rscale>
<asrwt>0</asrwt>
<pdfrwt beam="1">  1        2 0.20430390E+00 0.19173631E+03</pdfrwt>
<pdfrwt beam="2">  1       -2 0.11850602E-01 0.19173631E+03</pdfrwt>
<totfact> 0.86213850E+02</totfact>
</mgrwt>
</event>
<event>
 4    1  0.3757815E-001  0.2212348E+03  0.7546771E-02  0.1132966E+00
         -2   -1    0    0    0  501 -0.00000000000E+00  0.00000000000E+00  0.30493305338E+03  0.30493305338E+03  0.00000000000E+00 0. -1.
          2   -1    0    0  502    0  0.00000000000E+00 -0.00000000000E+00 -0.18914056279E+03  0.18914056279E+03  0.00000000000E+00 0.  1.
          6    1    1    2  502    0 -0.12097148967E+03  0.68751125146E+02  0.15400964073E+03  0.26956221538E+03  0.17200000000E+03 0. -1.
         -6    1    1    2    0  501  0.12097148967E+03 -0.68751125146E+02 -0.38217150132E+02  0.22451140079E+03  0.17200000000E+03 0. -1.
<mgrwt>
<rscale>  2 0.22123476E+03</rscale>
<asrwt>0</asrwt>
<pdfrwt beam="1">  1        2 0.47285141E-01 0.22123476E+03</pdfrwt>
<pdfrwt beam="2">  1       -2 0.76233263E-01 0.22123476E+03</pdfrwt>
<totfact> 0.17069808E+02</totfact>
</mgrwt>
</event>
<event>
 4    1  0.3757815E-001  0.1945862E+03  0.7546771E-02  0.1154389E+00
          1   -1    0    0  502    0  0.00000000000E+00  0.00000000000E+00  0.52696241294E+03  0.52696241294E+03  0.00000000000E+00 0. -1.
         -1   -1    0    0    0  501 -0.00000000000E+00 -0.00000000000E+00 -0.73787494647E+02  0.73787494647E+02  0.00000000000E+00 0.  1.
          6    1    1    2  502    0  0.29013439904E+02  0.86243849858E+02  0.27522443034E+03  0.33706419031E+03  0.17200000000E+03 0. -1.
         -6    1    1    2    0  501 -0.29013439904E+02 -0.86243849858E+02  0.17795048795E+03  0.26368571728E+03  0.17200000000E+03 0.  1.
<mgrwt>
<rscale>  2 0.19458618E+03</rscale>
<asrwt>0</asrwt>
<pdfrwt beam="1">  1        1 0.13174059E+00 0.19458618E+03</pdfrwt>
<pdfrwt beam="2">  1       -1 0.18446875E-01 0.19458618E+03</pdfrwt>
<totfact> 0.48238214E+02</totfact>
</mgrwt>
</event>
<event>
 4    1  0.3757815E-001  0.2185647E+03  0.7546771E-02  0.1134958E+00
         -1   -1    0    0    0  501 -0.00000000000E+00  0.00000000000E+00  0.12323275017E+03  0.12323275017E+03  0.00000000000E+00 0.  1.
          1   -1    0    0  502    0  0.00000000000E+00 -0.00000000000E+00 -0.74217165522E+03  0.74217165522E+03  0.00000000000E+00 0. -1.
          6    1    1    2  502    0 -0.11611822290E+03  0.68578937078E+02 -0.10407196606E+02  0.21881229865E+03  0.17200000000E+03 0.  1.
         -6    1    1    2    0  501  0.11611822290E+03 -0.68578937078E+02 -0.60853170845E+03  0.64659210673E+03  0.17200000000E+03 0. -1.
<mgrwt>
<rscale>  2 0.21856466E+03</rscale>
<asrwt>0</asrwt>
<pdfrwt beam="1">  1        1 0.18554291E+00 0.21856466E+03</pdfrwt>
<pdfrwt beam="2">  1       -1 0.30808188E-01 0.21856466E+03</pdfrwt>
<totfact> 0.11348773E+02</totfact>
</mgrwt>
</event>
<event>
 4    1  0.3757815E-001  0.1863096E+03  0.7546771E-02  0.1161833E+00
         -2   -1    0    0    0  501 -0.00000000000E+00  0.00000000000E+00  0.57095636454E+02  0.57095636454E+02  0.00000000000E+00 0.  1.
          2   -1    0    0  502    0  0.00000000000E+00 -0.00000000000E+00 -0.61950939539E+03  0.61950939539E+03  0.00000000000E+00 0. -1.
          6    1    1    2  502    0 -0.70902396003E+02 -0.10006399449E+02 -0.23499500616E+03  0.29988986430E+03  0.17200000000E+03 0.  1.
         -6    1    1    2    0  501  0.70902396003E+02  0.10006399449E+02 -0.32741875277E+03  0.37671516754E+03  0.17200000000E+03 0. -1.
<mgrwt>
<rscale>  2 0.18630963E+03</rscale>
<asrwt>0</asrwt>
<pdfrwt beam="1">  1        2 0.15487735E+00 0.18630963E+03</pdfrwt>
<pdfrwt beam="2">  1       -2 0.14273909E-01 0.18630963E+03</pdfrwt>
<totfact> 0.97185674E+02</totfact>
</mgrwt>
</event>
<event>
 4    1  0.3757815E-001  0.2509581E+03  0.7546771E-02  0.1112701E+00
          2   -1    0    0  502    0  0.00000000000E+00  0.00000000000E+00  0.81367738587E+03  0.81367738587E+03  0.00000000000E+00 0. -1.
         -2   -1    0    0    0  501 -0.00000000000E+00 -0.00000000000E+00 -0.97264887178E+02  0.97264887178E+02  0.00000000000E+00 0.  1.
          6    1    1    2  502    0  0.16349658959E+03  0.81638410969E+02  0.15237660246E+03  0.29359597056E+03  0.17200000000E+03 0.  1.
         -6    1    1    2    0  501 -0.16349658959E+03 -0.81638410969E+02  0.56403589623E+03  0.61734630248E+03  0.17200000000E+03 0.  1.
<mgrwt>
<rscale>  2 0.25095809E+03</rscale>
<asrwt>0</asrwt>
<pdfrwt beam="1">  1        2 0.20341933E+00 0.25095809E+03</pdfrwt>
<pdfrwt beam="2">  1       -2 0.24316224E-01 0.25095809E+03</pdfrwt>
<totfact> 0.25767864E+02</totfact>
</mgrwt>
</event>
<event>
 4    1  0.3757815E-001  0.2541209E+03  0.7546771E-02  0.1110728E+00
         -1   -1    0    0    0  501 -0.00000000000E+00  0.00000000000E+00  0.16896681356E+03  0.16896681356E+03  0.00000000000E+00 0.  1.
          1   -1    0    0  502    0  0.00000000000E+00 -0.00000000000E+00 -0.46000271167E+03  0.46000271167E+03  0.00000000000E+00 0. -1.
          6    1    1    2  502    0  0.79594802645E+02  0.16928707588E+03 -0.27486137308E+03  0.37433437069E+03  0.17200000000E+03 0. -1.
         -6    1    1    2    0  501 -0.79594802645E+02 -0.16928707588E+03 -0.16174525036E+02  0.25463515454E+03  0.17200000000E+03 0.  1.
<mgrwt>
<rscale>  2 0.25412093E+03</rscale>
<asrwt>0</asrwt>
<pdfrwt beam="1">  1        1 0.11500068E+00 0.25412093E+03</pdfrwt>
<pdfrwt beam="2">  1       -1 0.42241704E-01 0.25412093E+03</pdfrwt>
<totfact> 0.14520543E+02</totfact>
</mgrwt>
</event>
<event>
 4    1  0.3757815E-001  0.1811332E+03  0.7546771E-02  0.1166711E+00
          2   -1    0    0  502    0  0.00000000000E+00  0.00000000000E+00  0.84950369845E+03  0.84950369845E+03  0.00000000000E+00 0.  1.
         -2   -1    0    0    0  501 -0.00000000000E+00 -0.00000000000E+00 -0.40430646364E+02  0.40430646364E+02  0.00000000000E+00 0. -1.
          6    1    1    2  502    0  0.19593890673E+02  0.53303841792E+02  0.31041401317E+03  0.35939682758E+03  0.17200000000E+03 0. -1.
         -6    1    1    2    0  501 -0.19593890673E+02 -0.53303841792E+02  0.49865903891E+03  0.53053751723E+03  0.17200000000E+03 0. -1.
<mgrwt>
<rscale>  2 0.18113316E+03</rscale>
<asrwt>0</asrwt>
<pdfrwt beam="1">  1        2 0.21237587E+00 0.18113316E+03</pdfrwt>
<pdfrwt beam="2">  1       -2 0.10107664E-01 0.18113316E+03</pdfrwt>
<totfact> 0.10419306E+03</totfact>
</mgrwt>
</event>
<event>
 4    1  0.3757815E-001  0.2207819E+03  0.7546771E-02  0.1133301E+00
         -2   -1    0    0    0  501 -0.00000000000E+00  0.00000000000E+00  0.39073953362E+03  0.39073953362E+03  0.00000000000E+00 0. -1.
          2   -1    0    0  502    0  0.00000000000E+00 -0.00000000000E+00 -0.22481113555E+03  0.22481113555E+03  0.00000000000E+00 0.  1.
          6    1    1    2  502    0  0.12911426146E+03  0.49901258068E+02  0.28829699985E+03  0.36312503107E+03  0.17200000000E+03 0. -1.
         -6    1    1    2    0  501 -0.12911426146E+03 -0.49901258068E+02 -0.12236860177E+03  0.25242563810E+03  0.17200000000E+03 0. -1.
<mgrwt>
<rscale>  2 0.22078186E+03</rscale>
<asrwt>0</asrwt>
<pdfrwt beam="1">  1        2 0.56202784E-01 0.22078186E+03</pdfrwt>
<pdfrwt beam="2">  1       -2 0.97684883E-01 0.22078186E+03</pdfrwt>
<totfact> 0.81240270E+01</totfact>
</mgrwt>
</event>
<event>
 4    1  0.3757815E-001  0.1912998E+03  0.7546771E-02  0.1157294E+00
         -2   -1    0    0    0  501 -0.00000000000E+00  0.00000000000E+00  0.18648183823E+03  0.18648183823E+03  0.00000000000E+00 0. -1.
          2   -1    0    0  502    0  0.00000000000E+00 -0.00000000000E+00 -0.19671865717E+03  0.19671865717E+03  0.00000000000E+00 0.  1.
          6    1    1    2  502    0 -0.73750914077E+02  0.39653475441E+02 -0.14548405328E+02  0.19185216063E+03  0.17200000000E+03 0. -1.
         -6    1    1    2    0  501  0.73750914077E+02 -0.39653475441E+02  0.43115863865E+01  0.19134833477E+03  0.17200000000E+03 0.  1.
<mgrwt>
<rscale>  2 0.19129975E+03</rscale>
<asrwt>0</asrwt>
<pdfrwt beam="1">  1        2 0.49179664E-01 0.19129975E+03</pdfrwt>
<pdfrwt beam="2">  1       -2 0.46620460E-01 0.19129975E+03</pdfrwt>
<totfact> 0.45319650E+02</totfact>
</mgrwt>
</event>
<event>
 4    1  0.3757815E-001  0.3322836E+03  0.7546771E-02  0.1070131E+00
         -2   -1    0    0    0  501 -0.00000000000E+00  0.00000000000E+00  0.19355734885E+03  0.19355734885E+03  0.00000000000E+00 0.  1.
          2   -1    0    0  502    0  0.00000000000E+00 -0.00000000000E+00 -0.89009015709E+03  0.89009015709E+03  0.00000000000E+00 0. -1.
          6    1    1    2  502    0 -0.33869455172E+02 -0.28227861864E+03 -0.23567934901E+02  0.33311830645E+03  0.17200000000E+03 0.  1.
         -6    1    1    2    0  501  0.33869455172E+02  0.28227861864E+03 -0.67296487334E+03  0.75052919949E+03  0.17200000000E+03 0. -1.
<mgrwt>
<rscale>  2 0.33228355E+03</rscale>
<asrwt>0</asrwt>
<pdfrwt beam="1">  1        2 0.22252254E+00 0.33228355E+03</pdfrwt>
<pdfrwt beam="2">  1       -2 0.48389338E-01 0.33228355E+03</pdfrwt>
<totfact> 0.59770235E+01</totfact>
</mgrwt>
</event>
<event>
 4    1  0.3757815E-001  0.1765062E+03  0.7546771E-02  0.1171228E+00
         -2   -1    0    0    0  501 -0.00000000000E+00  0.00000000000E+00  0.15795094738E+03  0.15795094738E+03  0.00000000000E+00 0. -1.
          2   -1    0    0  502    0  0.00000000000E+00 -0.00000000000E+00 -0.29716837506E+03  0.29716837506E+03  0.00000000000E+00 0.  1.
          6    1    1    2  502    0 -0.37719031853E+02  0.12153690137E+02 -0.20156672020E+03  0.26792457939E+03  0.17200000000E+03 0.  1.
         -6    1    1    2    0  501  0.37719031853E+02 -0.12153690137E+02  0.62349292525E+02  0.18719474305E+03  0.17200000000E+03 0. -1.
<mgrwt>
<rscale>  2 0.17650620E+03</rscale>
<asrwt>0</asrwt>
<pdfrwt beam="1">  1        2 0.74292093E-01 0.17650620E+03</pdfrwt>
<pdfrwt beam="2">  1       -2 0.39487737E-01 0.17650620E+03</pdfrwt>
<totfact> 0.39970004E+02</totfact>
</mgrwt>
</event>
<event>
 4    1  0.3757815E-001  0.2325914E+03  0.7546771E-02  0.1124829E+00
          2   -1    0    0  502    0  0.00000000000E+00  0.00000000000E+00  0.52032793533E+03  0.52032793533E+03  0.00000000000E+00 0.  1.
         -2   -1    0    0    0  501 -0.00000000000E+00 -0.00000000000E+00 -0.19248434449E+03  0.19248434449E+03  0.00000000000E+00 0. -1.
          6    1    1    2  502    0 -0.14642321546E+03 -0.55452521445E+02  0.40560871467E+03  0.46756515008E+03  0.17200000000E+03 0.  1.
         -6    1    1    2    0  501  0.14642321546E+03  0.55452521445E+02 -0.77765123832E+02  0.24524712974E+03  0.17200000000E+03 0. -1.
<mgrwt>
<rscale>  2 0.23259136E+03</rscale>
<asrwt>0</asrwt>
<pdfrwt beam="1">  1        2 0.13008198E+00 0.23259136E+03</pdfrwt>
<pdfrwt beam="2">  1       -2 0.48121087E-01 0.23259136E+03</pdfrwt>
<totfact> 0.13942118E+02</totfact>
</mgrwt>
</event>
<event>
 4    1  0.3757815E-001  0.2303510E+03  0.7546771E-02  0.1126393E+00
         -4   -1    0    0    0  501 -0.00000000000E+00  0.00000000000E+00  0.39698787817E+03  0.39698787817E+03  0.00000000000E+00 0.  1.
          4   -1    0    0  502    0  0.00000000000E+00 -0.00000000000E+00 -0.13726609068E+03  0.13726609068E+03  0.00000000000E+00 0. -1.
          6    1    1    2  502    0 -0.60487769522E+01 -0.15310451139E+03  0.17315484760E+03  0.28817387175E+03  0.17200000000E+03 0. -1.
         -6    1    1    2    0  501  0.60487769522E+01  0.15310451139E+03  0.86566939887E+02  0.24608009710E+03  0.17200000000E+03 0.  1.
<mgrwt>
<rscale>  2 0.23035099E+03</rscale>
<asrwt>0</asrwt>
<pdfrwt beam="1">  1        4 0.34316524E-01 0.23035099E+03</pdfrwt>
<pdfrwt beam="2">  1       -4 0.99246967E-01 0.23035099E+03</pdfrwt>
<totfact> 0.12842278E+01</totfact>
</mgrwt>
</event>
<event>
 4    1  0.3757815E-001  0.2196359E+03  0.7546771E-02  0.1134155E+00
          2   -1    0    0  502    0  0.00000000000E+00  0.00000000000E+00  0.17444615632E+03  0.17444615632E+03  0.00000000000E+00 0.  1.
         -2   -1    0    0    0  501 -0.00000000000E+00 -0.00000000000E+00 -0.27802392960E+03  0.27802392960E+03  0.00000000000E+00 0. -1.
          6    1    1    2  502    0 -0.60377433252E+02 -0.12251733119E+03 -0.35215765348E+02  0.22244118552E+03  0.17200000000E+03 0.  1.
         -6    1    1    2    0  501  0.60377433252E+02  0.12251733119E+03 -0.68362007934E+02  0.23002890039E+03  0.17200000000E+03 0.  1.
<mgrwt>
<rscale>  2 0.21963591E+03</rscale>
<asrwt>0</asrwt>
<pdfrwt beam="1">  1        2 0.43611539E-01 0.21963591E+03</pdfrwt>
<pdfrwt beam="2">  1       -2 0.69505982E-01 0.21963591E+03</pdfrwt>
<totfact> 0.22737922E+02</totfact>
</mgrwt>
</event>
<event>
 4    1  0.3757815E-001  0.1739073E+03  0.7546771E-02  0.1173833E+00
         -1   -1    0    0    0  501 -0.00000000000E+00  0.00000000000E+00  0.17597065838E+02  0.17597065838E+02  0.00000000000E+00 0.  1.
          1   -1    0    0  502    0  0.00000000000E+00 -0.00000000000E+00 -0.19121464474E+04  0.19121464474E+04  0.00000000000E+00 0. -1.
          6    1    1    2  502    0 -0.44186405897E+01 -0.25302600861E+02 -0.64036506112E+03  0.66355946041E+03  0.17200000000E+03 0.  1.
         -6    1    1    2    0  501  0.44186405897E+01  0.25302600861E+02 -0.12541843205E+04  0.12661840529E+04  0.17200000000E+03 0.  1.
<mgrwt>
<rscale>  2 0.17390729E+03</rscale>
<asrwt>0</asrwt>
<pdfrwt beam="1">  1        1 0.47803650E+00 0.17390729E+03</pdfrwt>
<pdfrwt beam="2">  1       -1 0.43992675E-02 0.17390729E+03</pdfrwt>
<totfact> 0.13427165E+02</totfact>
</mgrwt>
</event>
<event>
 4    1  0.3757815E-001  0.1758098E+03  0.7546771E-02  0.1171921E+00
          1   -1    0    0  502    0  0.00000000000E+00  0.00000000000E+00  0.46074270897E+03  0.46074270897E+03  0.00000000000E+00 0.  1.
         -1   -1    0    0    0  501 -0.00000000000E+00 -0.00000000000E+00 -0.95350826724E+02  0.95350826724E+02  0.00000000000E+00 0. -1.
          6    1    1    2  502    0  0.29570508105E+02  0.21229266689E+02  0.31310679257E+02  0.17857618920E+03  0.17200000000E+03 0. -1.
         -6    1    1    2    0  501 -0.29570508105E+02 -0.21229266689E+02  0.33408120299E+03  0.37751734649E+03  0.17200000000E+03 0.  1.
<mgrwt>
<rscale>  2 0.17580983E+03</rscale>
<asrwt>0</asrwt>
<pdfrwt beam="1">  1        1 0.11518567E+00 0.17580983E+03</pdfrwt>
<pdfrwt beam="2">  1       -1 0.23837708E-01 0.17580983E+03</pdfrwt>
<totfact> 0.39110391E+02</totfact>
</mgrwt>
</event>
<event>
 4    1  0.3757815E-001  0.3704805E+03  0.7546771E-02  0.1054509E+00
          2   -1    0    0  502    0  0.00000000000E+00  0.00000000000E+00  0.19217328002E+03  0.19217328002E+03  0.00000000000E+00 0.  1.
         -2   -1    0    0    0  501 -0.00000000000E+00 -0.00000000000E+00 -0.71786156325E+03  0.71786156325E+03  0.00000000000E+00 0. -1.
          6    1    1    2  502    0  0.83781455135E+02  0.31725773197E+03 -0.29521037402E+03  0.47371401251E+03  0.17200000000E+03 0. -1.
         -6    1    1    2    0  501 -0.83781455135E+02 -0.31725773197E+03 -0.23047790920E+03  0.43632083075E+03  0.17200000000E+03 0.  1.
<mgrwt>
<rscale>  2 0.37048050E+03</rscale>
<asrwt>0</asrwt>
<pdfrwt beam="1">  1        2 0.48043320E-01 0.37048050E+03</pdfrwt>
<pdfrwt beam="2">  1       -2 0.17946539E+00 0.37048050E+03</pdfrwt>
<totfact> 0.20343874E+01</totfact>
</mgrwt>
</event>
<event>
 4    1  0.3757815E-001  0.2828894E+03  0.7546771E-02  0.1094121E+00
         -2   -1    0    0    0  501 -0.00000000000E+00  0.00000000000E+00  0.36072809259E+02  0.36072809259E+02  0.00000000000E+00 0.  1.
          2   -1    0    0  502    0  0.00000000000E+00 -0.00000000000E+00 -0.24150667117E+04  0.24150667117E+04  0.00000000000E+00 0. -1.
          6    1    1    2  502    0  0.19532893351E+03  0.11085575720E+03 -0.15391708763E+04  0.15649515576E+04  0.17200000000E+03 0. -1.
         -6    1    1    2    0  501 -0.19532893351E+03 -0.11085575720E+03 -0.83982302611E+03  0.88618796333E+03  0.17200000000E+03 0.  1.
<mgrwt>
<rscale>  2 0.28288936E+03</rscale>
<asrwt>0</asrwt>
<pdfrwt beam="1">  1        2 0.60376665E+00 0.28288936E+03</pdfrwt>
<pdfrwt beam="2">  1       -2 0.90182027E-02 0.28288936E+03</pdfrwt>
<totfact> 0.39783901E+01</totfact>
</mgrwt>
</event>
<event>
 4    1  0.3757815E-001  0.1931557E+03  0.7546771E-02  0.1155646E+00
         -1   -1    0    0    0  501 -0.00000000000E+00  0.00000000000E+00  0.30302883800E+03  0.30302883800E+03  0.00000000000E+00 0. -1.
          1   -1    0    0  502    0  0.00000000000E+00 -0.00000000000E+00 -0.17371519056E+03  0.17371519056E+03  0.00000000000E+00 0.  1.
          6    1    1    2  502    0 -0.87156711569E+02  0.11349722386E+02  0.19330042253E+03  0.27326573499E+03  0.17200000000E+03 0. -1.
         -6    1    1    2    0  501  0.87156711569E+02 -0.11349722386E+02 -0.63986775085E+02  0.20347829357E+03  0.17200000000E+03 0.  1.
<mgrwt>
<rscale>  2 0.19315566E+03</rscale>
<asrwt>0</asrwt>
<pdfrwt beam="1">  1        1 0.43428798E-01 0.19315566E+03</pdfrwt>
<pdfrwt beam="2">  1       -1 0.75757209E-01 0.19315566E+03</pdfrwt>
<totfact> 0.17609530E+02</totfact>
</mgrwt>
</event>
<event>
 4    1  0.3757815E-001  0.2028947E+03  0.7546771E-02  0.1147319E+00
         -2   -1    0    0    0  501 -0.00000000000E+00  0.00000000000E+00  0.16916089693E+03  0.16916089693E+03  0.00000000000E+00 0. -1.
          2   -1    0    0  502    0  0.00000000000E+00 -0.00000000000E+00 -0.34626118926E+03  0.34626118926E+03  0.00000000000E+00 0.  1.
          6    1    1    2  502    0  0.51965048487E+02  0.94243788821E+02  0.51941506836E+02  0.20943776672E+03  0.17200000000E+03 0. -1.
         -6    1    1    2    0  501 -0.51965048487E+02 -0.94243788821E+02 -0.22904179917E+03  0.30598431947E+03  0.17200000000E+03 0.  1.
<mgrwt>
<rscale>  2 0.20289470E+03</rscale>
<asrwt>0</asrwt>
<pdfrwt beam="1">  1        2 0.86565297E-01 0.20289470E+03</pdfrwt>
<pdfrwt beam="2">  1       -2 0.42290224E-01 0.20289470E+03</pdfrwt>
<totfact> 0.29486433E+02</totfact>
</mgrwt>
</event>
<event>
 4    1  0.3757815E-001  0.1916417E+03  0.7546771E-02  0.1156989E+00
         -1   -1    0    0    0  501 -0.00000000000E+00  0.00000000000E+00  0.60456515142E+02  0.60456515142E+02  0.00000000000E+00 0.  1.
          1   -1    0    0  502    0  0.00000000000E+00 -0.00000000000E+00 -0.64538686806E+03  0.64538686806E+03  0.00000000000E+00 0. -1.
          6    1    1    2  502    0  0.79557415603E+02 -0.28515828732E+02 -0.37798923269E+03  0.42379522755E+03  0.17200000000E+03 0.  1.
         -6    1    1    2    0  501 -0.79557415603E+02  0.28515828732E+02 -0.20694112023E+03  0.28204815566E+03  0.17200000000E+03 0. -1.
<mgrwt>
<rscale>  2 0.19164168E+03</rscale>
<asrwt>0</asrwt>
<pdfrwt beam="1">  1        1 0.16134671E+00 0.19164168E+03</pdfrwt>
<pdfrwt beam="2">  1       -1 0.15114129E-01 0.19164168E+03</pdfrwt>
<totfact> 0.47350528E+02</totfact>
</mgrwt>
</event>
<event>
 4    1  0.3757815E-001  0.1858863E+03  0.7546771E-02  0.1162225E+00
          1   -1    0    0  502    0  0.00000000000E+00  0.00000000000E+00  0.61480894528E+03  0.61480894528E+03  0.00000000000E+00 0. -1.
         -1   -1    0    0    0  501 -0.00000000000E+00 -0.00000000000E+00 -0.65051906133E+02  0.65051906133E+02  0.00000000000E+00 0.  1.
          6    1    1    2  502    0 -0.21190841367E+02 -0.67235975187E+02  0.40025611811E+03  0.44131472693E+03  0.17200000000E+03 0. -1.
         -6    1    1    2    0  501  0.21190841367E+02  0.67235975187E+02  0.14950092104E+03  0.23854612449E+03  0.17200000000E+03 0.  1.
<mgrwt>
<rscale>  2 0.18588633E+03</rscale>
<asrwt>0</asrwt>
<pdfrwt beam="1">  1        1 0.15370222E+00 0.18588633E+03</pdfrwt>
<pdfrwt beam="2">  1       -1 0.16262978E-01 0.18588633E+03</pdfrwt>
<totfact> 0.45885332E+02</totfact>
</mgrwt>
</event>
<event>
 4    1  0.3757815E-001  0.1802391E+03  0.7546771E-02  0.1167572E+00
         -1   -1    0    0    0  501 -0.00000000000E+00  0.00000000000E+00  0.74749099325E+02  0.74749099325E+02  0.00000000000E+00 0.  1.
          1   -1    0    0  502    0  0.00000000000E+00 -0.00000000000E+00 -0.11180390847E+04  0.11180390847E+04  0.00000000000E+00 0. -1.
          6    1    1    2  502    0  0.24395501295E+02 -0.48031179622E+02 -0.55357252682E+02  0.18854856171E+03  0.17200000000E+03 0.  1.
         -6    1    1    2    0  501 -0.24395501295E+02  0.48031179622E+02 -0.98793273273E+03  0.10042396224E+04  0.17200000000E+03 0. -1.
<mgrwt>
<rscale>  2 0.18023910E+03</rscale>
<asrwt>0</asrwt>
<pdfrwt beam="1">  1        1 0.27950976E+00 0.18023910E+03</pdfrwt>
<pdfrwt beam="2">  1       -1 0.18687275E-01 0.18023910E+03</pdfrwt>
<totfact> 0.10380381E+02</totfact>
</mgrwt>
</event>
<event>
 4    1  0.3757815E-001  0.2096482E+03  0.7546771E-02  0.1141845E+00
         -1   -1    0    0    0  501 -0.00000000000E+00  0.00000000000E+00  0.11109651166E+03  0.11109651166E+03  0.00000000000E+00 0. -1.
          1   -1    0    0  502    0  0.00000000000E+00 -0.00000000000E+00 -0.39750897381E+03  0.39750897381E+03  0.00000000000E+00 0.  1.
          6    1    1    2  502    0 -0.32296350754E+02 -0.11543535775E+03 -0.12569151683E+03  0.24443963159E+03  0.17200000000E+03 0.  1.
         -6    1    1    2    0  501  0.32296350754E+02  0.11543535775E+03 -0.16072094532E+03  0.26416585388E+03  0.17200000000E+03 0. -1.
<mgrwt>
<rscale>  2 0.20964822E+03</rscale>
<asrwt>0</asrwt>
<pdfrwt beam="1">  1        1 0.99377242E-01 0.20964822E+03</pdfrwt>
<pdfrwt beam="2">  1       -1 0.27774128E-01 0.20964822E+03</pdfrwt>
<totfact> 0.37405737E+02</totfact>
</mgrwt>
</event>
<event>
 4    1  0.3757815E-001  0.1971239E+03  0.7546771E-02  0.1152189E+00
         -3   -1    0    0    0  501 -0.00000000000E+00  0.00000000000E+00  0.66260926151E+02  0.66260926151E+02  0.00000000000E+00 0.  1.
          3   -1    0    0  502    0  0.00000000000E+00 -0.00000000000E+00 -0.58693485634E+03  0.58693485634E+03  0.00000000000E+00 0. -1.
          6    1    1    2  502    0  0.78779317189E+02  0.55386300196E+02 -0.26985407761E+03  0.33418415023E+03  0.17200000000E+03 0. -1.
         -6    1    1    2    0  501 -0.78779317189E+02 -0.55386300196E+02 -0.25081985258E+03  0.31901163226E+03  0.17200000000E+03 0.  1.
<mgrwt>
<rscale>  2 0.19712388E+03</rscale>
<asrwt>0</asrwt>
<pdfrwt beam="1">  1        3 0.14673371E+00 0.19712388E+03</pdfrwt>
<pdfrwt beam="2">  1       -3 0.16565232E-01 0.19712388E+03</pdfrwt>
<totfact> 0.27715495E+01</totfact>
</mgrwt>
</event>
<event>
 4    1  0.3757815E-001  0.1766273E+03  0.7546771E-02  0.1171108E+00
         -2   -1    0    0    0  501 -0.00000000000E+00  0.00000000000E+00  0.14612721206E+03  0.14612721206E+03  0.00000000000E+00 0.  1.
          2   -1    0    0  502    0  0.00000000000E+00 -0.00000000000E+00 -0.21750372957E+03  0.21750372957E+03  0.00000000000E+00 0. -1.
          6    1    1    2  502    0  0.77324591325E+01 -0.39413134197E+02 -0.10999972404E+02  0.17696944783E+03  0.17200000000E+03 0.  1.
         -6    1    1    2    0  501 -0.77324591325E+01  0.39413134197E+02 -0.60376545107E+02  0.18666149381E+03  0.17200000000E+03 0. -1.
<mgrwt>
<rscale>  2 0.17662725E+03</rscale>
<asrwt>0</asrwt>
<pdfrwt beam="1">  1        2 0.54375932E-01 0.17662725E+03</pdfrwt>
<pdfrwt beam="2">  1       -2 0.36531803E-01 0.17662725E+03</pdfrwt>
<totfact> 0.64903688E+02</totfact>
</mgrwt>
</event>
<event>
 4    1  0.3757815E-001  0.1834487E+03  0.7546771E-02  0.1164506E+00
         -1   -1    0    0    0  501 -0.00000000000E+00  0.00000000000E+00  0.28153895430E+03  0.28153895430E+03  0.00000000000E+00 0.  1.
          1   -1    0    0  502    0  0.00000000000E+00 -0.00000000000E+00 -0.33078899636E+03  0.33078899636E+03  0.00000000000E+00 0. -1.
          6    1    1    2  502    0  0.41618440355E+02 -0.48346005004E+02 -0.26929586822E+03  0.32584305335E+03  0.17200000000E+03 0. -1.
         -6    1    1    2    0  501 -0.41618440355E+02  0.48346005004E+02  0.22004582616E+03  0.28648489731E+03  0.17200000000E+03 0.  1.
<mgrwt>
<rscale>  2 0.18344871E+03</rscale>
<asrwt>0</asrwt>
<pdfrwt beam="1">  1        1 0.82697248E-01 0.18344871E+03</pdfrwt>
<pdfrwt beam="2">  1       -1 0.70384739E-01 0.18344871E+03</pdfrwt>
<totfact> 0.89771007E+01</totfact>
</mgrwt>
</event>
<event>
 4    1  0.3757815E-001  0.1786521E+03  0.7546771E-02  0.1169114E+00
         -1   -1    0    0    0  501 -0.00000000000E+00  0.00000000000E+00  0.25259877596E+03  0.25259877596E+03  0.00000000000E+00 0. -1.
          1   -1    0    0  502    0  0.00000000000E+00 -0.00000000000E+00 -0.14502031371E+03  0.14502031371E+03  0.00000000000E+00 0.  1.
          6    1    1    2  502    0  0.33743229060E+02 -0.34554005538E+02  0.12511804935E+03  0.21810802617E+03  0.17200000000E+03 0. -1.
         -6    1    1    2    0  501 -0.33743229060E+02  0.34554005538E+02 -0.17539587101E+02  0.17951106351E+03  0.17200000000E+03 0.  1.
<mgrwt>
<rscale>  2 0.17865213E+03</rscale>
<asrwt>0</asrwt>
<pdfrwt beam="1">  1        1 0.36255079E-01 0.17865213E+03</pdfrwt>
<pdfrwt beam="2">  1       -1 0.63149693E-01 0.17865213E+03</pdfrwt>
<totfact> 0.31697527E+02</totfact>
</mgrwt>
</event>
<event>
 4    1  0.3757815E-001  0.1781532E+03  0.7546771E-02  0.1169602E+00
         -2   -1    0    0    0  501 -0.00000000000E+00  0.00000000000E+00  0.46278128323E+02  0.46278128323E+02  0.00000000000E+00 0. -1.
          2   -1    0    0  502    0  0.00000000000E+00 -0.00000000000E+00 -0.70273612294E+03  0.70273612294E+03  0.00000000000E+00 0.  1.
          6    1    1    2  502    0  0.17786287762E+02  0.42874486055E+02 -0.27012787672E+03  0.32358560439E+03  0.17200000000E+03 0.  1.
         -6    1    1    2    0  501 -0.17786287762E+02 -0.42874486055E+02 -0.38633011789E+03  0.42542864687E+03  0.17200000000E+03 0.  1.
<mgrwt>
<rscale>  2 0.17815323E+03</rscale>
<asrwt>0</asrwt>
<pdfrwt beam="1">  1        2 0.17568403E+00 0.17815323E+03</pdfrwt>
<pdfrwt beam="2">  1       -2 0.11569532E-01 0.17815323E+03</pdfrwt>
<totfact> 0.11379817E+03</totfact>
</mgrwt>
</event>
<event>
 4    1  0.3757815E-001  0.1733665E+03  0.7546771E-02  0.1174382E+00
         -1   -1    0    0    0  501 -0.00000000000E+00  0.00000000000E+00  0.15488813288E+03  0.15488813288E+03  0.00000000000E+00 0. -1.
          1   -1    0    0  502    0  0.00000000000E+00 -0.00000000000E+00 -0.19431104267E+03  0.19431104267E+03  0.00000000000E+00 0.  1.
          6    1    1    2  502    0 -0.13456979975E+01  0.21682160437E+02 -0.26120126957E+02  0.17532309607E+03  0.17200000000E+03 0. -1.
         -6    1    1    2    0  501  0.13456979975E+01 -0.21682160437E+02 -0.13302782835E+02  0.17387607948E+03  0.17200000000E+03 0.  1.
<mgrwt>
<rscale>  2 0.17336645E+03</rscale>
<asrwt>0</asrwt>
<pdfrwt beam="1">  1        1 0.48577760E-01 0.17336645E+03</pdfrwt>
<pdfrwt beam="2">  1       -1 0.38722033E-01 0.17336645E+03</pdfrwt>
<totfact> 0.54063581E+02</totfact>
</mgrwt>
</event>
<event>
 4    1  0.3757815E-001  0.2194626E+03  0.7546771E-02  0.1134284E+00
         -2   -1    0    0    0  501 -0.00000000000E+00  0.00000000000E+00  0.12918614332E+03  0.12918614332E+03  0.00000000000E+00 0. -1.
          2   -1    0    0  502    0  0.00000000000E+00 -0.00000000000E+00 -0.40335074084E+03  0.40335074084E+03  0.00000000000E+00 0.  1.
          6    1    1    2  502    0 -0.77981985111E+02 -0.11179732871E+03 -0.21033284848E+03  0.30397983463E+03  0.17200000000E+03 0.  1.
         -6    1    1    2    0  501  0.77981985111E+02  0.11179732871E+03 -0.63831749033E+02  0.22855704954E+03  0.17200000000E+03 0. -1.
<mgrwt>
<rscale>  2 0.21946260E+03</rscale>
<asrwt>0</asrwt>
<pdfrwt beam="1">  1        2 0.10083768E+00 0.21946260E+03</pdfrwt>
<pdfrwt beam="2">  1       -2 0.32296536E-01 0.21946260E+03</pdfrwt>
<totfact> 0.40960966E+02</totfact>
</mgrwt>
</event>
<event>
 4    1  0.3757815E-001  0.1920334E+03  0.7546771E-02  0.1156640E+00
         -1   -1    0    0    0  501 -0.00000000000E+00  0.00000000000E+00  0.15365093902E+03  0.15365093902E+03  0.00000000000E+00 0. -1.
          1   -1    0    0  502    0  0.00000000000E+00 -0.00000000000E+00 -0.26766445141E+03  0.26766445141E+03  0.00000000000E+00 0.  1.
          6    1    1    2  502    0 -0.85135443173E+02  0.66913607156E+01 -0.12472609898E+03  0.22898344429E+03  0.17200000000E+03 0.  1.
         -6    1    1    2    0  501  0.85135443173E+02 -0.66913607156E+01  0.10712586589E+02  0.19233194613E+03  0.17200000000E+03 0. -1.
<mgrwt>
<rscale>  2 0.19203338E+03</rscale>
<asrwt>0</asrwt>
<pdfrwt beam="1">  1        1 0.66916112E-01 0.19203338E+03</pdfrwt>
<pdfrwt beam="2">  1       -1 0.38412735E-01 0.19203338E+03</pdfrwt>
<totfact> 0.36518977E+02</totfact>
</mgrwt>
</event>
<event>
 4    1  0.3757815E-001  0.1951836E+03  0.7546771E-02  0.1153867E+00
          3   -1    0    0  502    0  0.00000000000E+00  0.00000000000E+00  0.32409822752E+03  0.32409822752E+03  0.00000000000E+00 0. -1.
         -3   -1    0    0    0  501 -0.00000000000E+00 -0.00000000000E+00 -0.12158764877E+03  0.12158764877E+03  0.00000000000E+00 0.  1.
          6    1    1    2  502    0  0.40230942075E+01  0.92176262452E+02  0.14188095964E+03  0.24130241473E+03  0.17200000000E+03 0. -1.
         -6    1    1    2    0  501 -0.40230942075E+01 -0.92176262452E+02  0.60629619110E+02  0.20438346156E+03  0.17200000000E+03 0.  1.
<mgrwt>
<rscale>  2 0.19518363E+03</rscale>
<asrwt>0</asrwt>
<pdfrwt beam="1">  1        3 0.81024555E-01 0.19518363E+03</pdfrwt>
<pdfrwt beam="2">  1       -3 0.30396913E-01 0.19518363E+03</pdfrwt>
<totfact> 0.37089491E+01</totfact>
</mgrwt>
</event>
<event>
 4    1  0.3757815E-001  0.1730629E+03  0.7546771E-02  0.1174691E+00
          2   -1    0    0  502    0  0.00000000000E+00  0.00000000000E+00  0.15152077021E+04  0.15152077021E+04  0.00000000000E+00 0.  1.
         -2   -1    0    0    0  501 -0.00000000000E+00 -0.00000000000E+00 -0.19770585539E+02  0.19770585539E+02  0.00000000000E+00 0. -1.
          6    1    1    2  502    0 -0.18223970667E+02  0.58860728402E+01  0.75838354062E+03  0.77787939531E+03  0.17200000000E+03 0.  1.
         -6    1    1    2    0  501  0.18223970667E+02 -0.58860728402E+01  0.73705357590E+03  0.75709889229E+03  0.17200000000E+03 0.  1.
<mgrwt>
<rscale>  2 0.17306288E+03</rscale>
<asrwt>0</asrwt>
<pdfrwt beam="1">  1        2 0.37880153E+00 0.17306288E+03</pdfrwt>
<pdfrwt beam="2">  1       -2 0.49426515E-02 0.17306288E+03</pdfrwt>
<totfact> 0.85481841E+02</totfact>
</mgrwt>
</event>
<event>
 4    1  0.3757815E-001  0.1813173E+03  0.7546771E-02  0.1166534E+00
          1   -1    0    0  502    0  0.00000000000E+00  0.00000000000E+00  0.10153223835E+03  0.10153223835E+03  0.00000000000E+00 0. -1.
         -1   -1    0    0    0  501 -0.00000000000E+00 -0.00000000000E+00 -0.53284213725E+03  0.53284213725E+03  0.00000000000E+00 0.  1.
          6    1    1    2  502    0 -0.66617291546E+01 -0.56987625550E+02 -0.16983701264E+02  0.18211099420E+03  0.17200000000E+03 0. -1.
         -6    1    1    2    0  501  0.66617291546E+01  0.56987625550E+02 -0.41432619764E+03  0.45226338140E+03  0.17200000000E+03 0.  1.
<mgrwt>
<rscale>  2 0.18131731E+03</rscale>
<asrwt>0</asrwt>
<pdfrwt beam="1">  1        1 0.25383060E-01 0.18131731E+03</pdfrwt>
<pdfrwt beam="2">  1       -1 0.13321053E+00 0.18131731E+03</pdfrwt>
<totfact> 0.98329141E+01</totfact>
</mgrwt>
</event>
<event>
 4    1  0.3757815E-001  0.2357617E+03  0.7546771E-02  0.1122649E+00
          2   -1    0    0  502    0  0.00000000000E+00  0.00000000000E+00  0.72732939539E+03  0.72732939539E+03  0.00000000000E+00 0. -1.
         -2   -1    0    0    0  501 -0.00000000000E+00 -0.00000000000E+00 -0.78858454868E+02  0.78858454868E+02  0.00000000000E+00 0.  1.
          6    1    1    2  502    0  0.13407114853E+03  0.89579515629E+02  0.39509705740E+03  0.46009265073E+03  0.17200000000E+03 0. -1.
         -6    1    1    2    0  501 -0.13407114853E+03 -0.89579515629E+02  0.25337388313E+03  0.34609519954E+03  0.17200000000E+03 0. -1.
<mgrwt>
<rscale>  2 0.23576166E+03</rscale>
<asrwt>0</asrwt>
<pdfrwt beam="1">  1        2 0.18183233E+00 0.23576166E+03</pdfrwt>
<pdfrwt beam="2">  1       -2 0.19714616E-01 0.23576166E+03</pdfrwt>
<totfact> 0.44536150E+02</totfact>
</mgrwt>
</event>
<event>
 4    1  0.3757815E-001  0.1796549E+03  0.7546771E-02  0.1168137E+00
          4   -1    0    0  502    0  0.00000000000E+00  0.00000000000E+00  0.34150084375E+03  0.34150084375E+03  0.00000000000E+00 0. -1.
         -4   -1    0    0    0  501 -0.00000000000E+00 -0.00000000000E+00 -0.10248686151E+03  0.10248686151E+03  0.00000000000E+00 0.  1.
          6    1    1    2  502    0  0.33041760587E+02  0.40001576972E+02  0.57581151183E+02  0.18865702498E+03  0.17200000000E+03 0. -1.
         -6    1    1    2    0  501 -0.33041760587E+02 -0.40001576972E+02  0.18143283106E+03  0.25533068027E+03  0.17200000000E+03 0.  1.
<mgrwt>
<rscale>  2 0.17965490E+03</rscale>
<asrwt>0</asrwt>
<pdfrwt beam="1">  1        4 0.85375209E-01 0.17965490E+03</pdfrwt>
<pdfrwt beam="2">  1       -4 0.25621716E-01 0.17965490E+03</pdfrwt>
<totfact> 0.30826120E+01</totfact>
</mgrwt>
</event>
<event>
 4    1  0.3757815E-001  0.3776987E+03  0.7546771E-02  0.1051788E+00
         -2   -1    0    0    0  501 -0.00000000000E+00  0.00000000000E+00  0.37777673067E+03  0.37777673067E+03  0.00000000000E+00 0. -1.
          2   -1    0    0  502    0  0.00000000000E+00 -0.00000000000E+00 -0.37779354520E+03  0.37779354520E+03  0.00000000000E+00 0.  1.
          6    1    1    2  502    0 -0.12765438537E+03  0.31108954054E+03 -0.80871468572E+01  0.37778531772E+03  0.17200000000E+03 0.  1.
         -6    1    1    2    0  501  0.12765438537E+03 -0.31108954054E+03  0.80703323298E+01  0.37778495815E+03  0.17200000000E+03 0. -1.
<mgrwt>
<rscale>  2 0.37769875E+03</rscale>
<asrwt>0</asrwt>
<pdfrwt beam="1">  1        2 0.94448386E-01 0.37769875E+03</pdfrwt>
<pdfrwt beam="2">  1       -2 0.94444183E-01 0.37769875E+03</pdfrwt>
<totfact> 0.47890811E+01</totfact>
</mgrwt>
</event>
<event>
 4    1  0.3757815E-001  0.1797150E+03  0.7546771E-02  0.1168079E+00
          2   -1    0    0  502    0  0.00000000000E+00  0.00000000000E+00  0.31812520026E+03  0.31812520026E+03  0.00000000000E+00 0.  1.
         -2   -1    0    0    0  501 -0.00000000000E+00 -0.00000000000E+00 -0.12083321120E+03  0.12083321120E+03  0.00000000000E+00 0. -1.
          6    1    1    2  502    0 -0.34267154142E+02  0.39233105200E+02  0.10909993261E+02  0.18004583402E+03  0.17200000000E+03 0. -1.
         -6    1    1    2    0  501  0.34267154142E+02 -0.39233105200E+02  0.18638199580E+03  0.25891257743E+03  0.17200000000E+03 0.  1.
<mgrwt>
<rscale>  2 0.17971498E+03</rscale>
<asrwt>0</asrwt>
<pdfrwt beam="1">  1        2 0.79531298E-01 0.17971498E+03</pdfrwt>
<pdfrwt beam="2">  1       -2 0.30208303E-01 0.17971498E+03</pdfrwt>
<totfact> 0.60873284E+02</totfact>
</mgrwt>
</event>
<event>
 4    1  0.3757815E-001  0.2075818E+03  0.7546771E-02  0.1143495E+00
         -2   -1    0    0    0  501 -0.00000000000E+00  0.00000000000E+00  0.81939575864E+02  0.81939575864E+02  0.00000000000E+00 0. -1.
          2   -1    0    0  502    0  0.00000000000E+00 -0.00000000000E+00 -0.53276899668E+03  0.53276899668E+03  0.00000000000E+00 0.  1.
          6    1    1    2  502    0  0.64462502255E+02  0.96699560920E+02 -0.19045955753E+03  0.28171805468E+03  0.17200000000E+03 0. -1.
         -6    1    1    2    0  501 -0.64462502255E+02 -0.96699560920E+02 -0.26036986328E+03  0.33299051786E+03  0.17200000000E+03 0.  1.
<mgrwt>
<rscale>  2 0.20758184E+03</rscale>
<asrwt>0</asrwt>
<pdfrwt beam="1">  1        2 0.13319225E+00 0.20758184E+03</pdfrwt>
<pdfrwt beam="2">  1       -2 0.20484894E-01 0.20758184E+03</pdfrwt>
<totfact> 0.65032376E+02</totfact>
</mgrwt>
</event>
<event>
 4    1  0.3757815E-001  0.2244141E+03  0.7546771E-02  0.1130634E+00
         -1   -1    0    0    0  501 -0.00000000000E+00  0.00000000000E+00  0.36312386105E+03  0.36312386105E+03  0.00000000000E+00 0. -1.
          1   -1    0    0  502    0  0.00000000000E+00 -0.00000000000E+00 -0.37360254581E+03  0.37360254581E+03  0.00000000000E+00 0.  1.
          6    1    1    2  502    0 -0.14414393102E+03  0.48478444259E+00 -0.29733444918E+03  0.37251776137E+03  0.17200000000E+03 0.  1.
         -6    1    1    2    0  501  0.14414393102E+03 -0.48478444259E+00  0.28685576442E+03  0.36420864549E+03  0.17200000000E+03 0. -1.
<mgrwt>
<rscale>  2 0.22441414E+03</rscale>
<asrwt>0</asrwt>
<pdfrwt beam="1">  1        1 0.93400636E-01 0.22441414E+03</pdfrwt>
<pdfrwt beam="2">  1       -1 0.90780965E-01 0.22441414E+03</pdfrwt>
<totfact> 0.44386452E+01</totfact>
</mgrwt>
</event>
<event>
 4    1  0.3757815E-001  0.1730077E+03  0.7546771E-02  0.1174747E+00
          2   -1    0    0  502    0  0.00000000000E+00  0.00000000000E+00  0.10993839721E+04  0.10993839721E+04  0.00000000000E+00 0. -1.
         -2   -1    0    0    0  501 -0.00000000000E+00 -0.00000000000E+00 -0.28243947919E+02  0.28243947919E+02  0.00000000000E+00 0.  1.
          6    1    1    2  502    0  0.36427731099E+01 -0.18286473156E+02  0.42852472446E+03  0.46213104675E+03  0.17200000000E+03 0.  1.
         -6    1    1    2    0  501 -0.36427731099E+01  0.18286473156E+02  0.64261529972E+03  0.66549687327E+03  0.17200000000E+03 0. -1.
<mgrwt>
<rscale>  2 0.17300770E+03</rscale>
<asrwt>0</asrwt>
<pdfrwt beam="1">  1        2 0.27484585E+00 0.17300770E+03</pdfrwt>
<pdfrwt beam="2">  1       -2 0.70609907E-02 0.17300770E+03</pdfrwt>
<totfact> 0.11186395E+03</totfact>
</mgrwt>
</event>
<event>
 4    1  0.3757815E-001  0.1886587E+03  0.7546771E-02  0.1159677E+00
         -3   -1    0    0    0  501 -0.00000000000E+00  0.00000000000E+00  0.60551696968E+03  0.60551696968E+03  0.00000000000E+00 0.  1.
          3   -1    0    0  502    0  0.00000000000E+00 -0.00000000000E+00 -0.65854705221E+02  0.65854705221E+02  0.00000000000E+00 0. -1.
          6    1    1    2  502    0  0.67137449619E+02  0.38738507831E+02  0.37985903333E+03  0.42412851158E+03  0.17200000000E+03 0.  1.
         -6    1    1    2    0  501 -0.67137449619E+02 -0.38738507831E+02  0.15980323112E+03  0.24724316332E+03  0.17200000000E+03 0. -1.
<mgrwt>
<rscale>  2 0.18865871E+03</rscale>
<asrwt>0</asrwt>
<pdfrwt beam="1">  1        3 0.16463678E-01 0.18865871E+03</pdfrwt>
<pdfrwt beam="2">  1       -3 0.15137923E+00 0.18865871E+03</pdfrwt>
<totfact> 0.25737312E+01</totfact>
</mgrwt>
</event>
<event>
 4    1  0.3757815E-001  0.2233044E+03  0.7546771E-02  0.1131443E+00
          2   -1    0    0  502    0  0.00000000000E+00  0.00000000000E+00  0.35063067072E+03  0.35063067072E+03  0.00000000000E+00 0. -1.
         -2   -1    0    0    0  501 -0.00000000000E+00 -0.00000000000E+00 -0.14791243294E+03  0.14791243294E+03  0.00000000000E+00 0.  1.
          6    1    1    2  502    0 -0.81662606929E+02  0.11667076040E+03  0.15028291090E+03  0.26916500703E+03  0.17200000000E+03 0. -1.
         -6    1    1    2    0  501  0.81662606929E+02 -0.11667076040E+03  0.52435326886E+02  0.22937809662E+03  0.17200000000E+03 0.  1.
<mgrwt>
<rscale>  2 0.22330438E+03</rscale>
<asrwt>0</asrwt>
<pdfrwt beam="1">  1        2 0.87657666E-01 0.22330438E+03</pdfrwt>
<pdfrwt beam="2">  1       -2 0.36978109E-01 0.22330438E+03</pdfrwt>
<totfact> 0.37477308E+02</totfact>
</mgrwt>
</event>
<event>
 4    1  0.3757815E-001  0.1761024E+03  0.7546771E-02  0.1171629E+00
         -2   -1    0    0    0  501 -0.00000000000E+00  0.00000000000E+00  0.55748006052E+02  0.55748006052E+02  0.00000000000E+00 0. -1.
          2   -1    0    0  502    0  0.00000000000E+00 -0.00000000000E+00 -0.57006168329E+03  0.57006168329E+03  0.00000000000E+00 0.  1.
          6    1    1    2  502    0 -0.26908954443E+02  0.26532076343E+02 -0.30579187284E+03  0.35287492458E+03  0.17200000000E+03 0.  1.
         -6    1    1    2    0  501  0.26908954443E+02 -0.26532076343E+02 -0.20852180440E+03  0.27293476476E+03  0.17200000000E+03 0.  1.
<mgrwt>
<rscale>  2 0.17610236E+03</rscale>
<asrwt>0</asrwt>
<pdfrwt beam="1">  1        2 0.14251542E+00 0.17610236E+03</pdfrwt>
<pdfrwt beam="2">  1       -2 0.13937001E-01 0.17610236E+03</pdfrwt>
<totfact> 0.11325868E+03</totfact>
</mgrwt>
</event>
<event>
 4    1  0.3757815E-001  0.2318498E+03  0.7546771E-02  0.1125345E+00
          2   -1    0    0  502    0  0.00000000000E+00  0.00000000000E+00  0.20535471492E+03  0.20535471492E+03  0.00000000000E+00 0. -1.
         -2   -1    0    0    0  501 -0.00000000000E+00 -0.00000000000E+00 -0.33685138058E+03  0.33685138058E+03  0.00000000000E+00 0.  1.
          6    1    1    2  502    0 -0.15982873183E+02  0.15464433084E+03  0.62248972824E+02  0.24006094208E+03  0.17200000000E+03 0. -1.
         -6    1    1    2    0  501  0.15982873183E+02 -0.15464433084E+03 -0.19374563849E+03  0.30214515341E+03  0.17200000000E+03 0.  1.
<mgrwt>
<rscale>  2 0.23184978E+03</rscale>
<asrwt>0</asrwt>
<pdfrwt beam="1">  1        2 0.51338679E-01 0.23184978E+03</pdfrwt>
<pdfrwt beam="2">  1       -2 0.84212845E-01 0.23184978E+03</pdfrwt>
<totfact> 0.12527373E+02</totfact>
</mgrwt>
</event>
<event>
 4    1  0.3757815E-001  0.2072107E+03  0.7546771E-02  0.1143794E+00
         -2   -1    0    0    0  501 -0.00000000000E+00  0.00000000000E+00  0.39014652311E+02  0.39014652311E+02  0.00000000000E+00 0.  1.
          2   -1    0    0  502    0  0.00000000000E+00 -0.00000000000E+00 -0.11025569922E+04  0.11025569922E+04  0.00000000000E+00 0. -1.
          6    1    1    2  502    0  0.76025851794E+02  0.87019116752E+02 -0.50721434152E+03  0.54790751506E+03  0.17200000000E+03 0. -1.
         -6    1    1    2    0  501 -0.76025851794E+02 -0.87019116752E+02 -0.55632799839E+03  0.59366412946E+03  0.17200000000E+03 0. -1.
<mgrwt>
<rscale>  2 0.20721066E+03</rscale>
<asrwt>0</asrwt>
<pdfrwt beam="1">  1        2 0.27563925E+00 0.20721066E+03</pdfrwt>
<pdfrwt beam="2">  1       -2 0.97536630E-02 0.20721066E+03</pdfrwt>
<totfact> 0.66791784E+02</totfact>
</mgrwt>
</event>
<event>
 4    1  0.3757815E-001  0.1738755E+03  0.7546771E-02  0.1173865E+00
          1   -1    0    0  502    0  0.00000000000E+00  0.00000000000E+00  0.65960738181E+03  0.65960738181E+03  0.00000000000E+00 0. -1.
         -1   -1    0    0    0  501 -0.00000000000E+00 -0.00000000000E+00 -0.51519294778E+02  0.51519294778E+02  0.00000000000E+00 0.  1.
          6    1    1    2  502    0 -0.23930162148E+02  0.87207758824E+01  0.42215589205E+03  0.45656138885E+03  0.17200000000E+03 0. -1.
         -6    1    1    2    0  501  0.23930162148E+02 -0.87207758824E+01  0.18593219498E+03  0.25456528774E+03  0.17200000000E+03 0.  1.
<mgrwt>
<rscale>  2 0.17387554E+03</rscale>
<asrwt>0</asrwt>
<pdfrwt beam="1">  1        1 0.16490182E+00 0.17387554E+03</pdfrwt>
<pdfrwt beam="2">  1       -1 0.12879826E-01 0.17387554E+03</pdfrwt>
<totfact> 0.58702828E+02</totfact>
</mgrwt>
</event>
<event>
 4    1  0.3757815E-001  0.1736864E+03  0.7546771E-02  0.1174057E+00
         -2   -1    0    0    0  501 -0.00000000000E+00  0.00000000000E+00  0.41411929674E+03  0.41411929674E+03  0.00000000000E+00 0. -1.
          2   -1    0    0  502    0  0.00000000000E+00 -0.00000000000E+00 -0.76323486491E+02  0.76323486491E+02  0.00000000000E+00 0.  1.
          6    1    1    2  502    0 -0.16777018984E+02 -0.17363202888E+02  0.11655476984E+03  0.20916970037E+03  0.17200000000E+03 0.  1.
         -6    1    1    2    0  501  0.16777018984E+02  0.17363202888E+02  0.22124104041E+03  0.28127308286E+03  0.17200000000E+03 0. -1.
<mgrwt>
<rscale>  2 0.17368635E+03</rscale>
<asrwt>0</asrwt>
<pdfrwt beam="1">  1        2 0.19080873E-01 0.17368635E+03</pdfrwt>
<pdfrwt beam="2">  1       -2 0.10352982E+00 0.17368635E+03</pdfrwt>
<totfact> 0.23280918E+02</totfact>
</mgrwt>
</event>
<event>
 4    1  0.3757815E-001  0.1759679E+03  0.7546771E-02  0.1171763E+00
          1   -1    0    0  502    0  0.00000000000E+00  0.00000000000E+00  0.45495342235E+03  0.45495342235E+03  0.00000000000E+00 0.  1.
         -1   -1    0    0    0  501 -0.00000000000E+00 -0.00000000000E+00 -0.91933053549E+02  0.91933053549E+02  0.00000000000E+00 0. -1.
          6    1    1    2  502    0  0.21027212551E+02 -0.30635652128E+02  0.32084966796E+03  0.36593605490E+03  0.17200000000E+03 0.  1.
         -6    1    1    2    0  501 -0.21027212551E+02  0.30635652128E+02  0.42170700843E+02  0.18095042100E+03  0.17200000000E+03 0. -1.
<mgrwt>
<rscale>  2 0.17596786E+03</rscale>
<asrwt>0</asrwt>
<pdfrwt beam="1">  1        1 0.11373835E+00 0.17596786E+03</pdfrwt>
<pdfrwt beam="2">  1       -1 0.22983265E-01 0.17596786E+03</pdfrwt>
<totfact> 0.42306879E+02</totfact>
</mgrwt>
</event>
<event>
 4    1  0.3757815E-001  0.2084902E+03  0.7546771E-02  0.1142767E+00
          2   -1    0    0  502    0  0.00000000000E+00  0.00000000000E+00  0.96378811569E+03  0.96378811569E+03  0.00000000000E+00 0. -1.
         -2   -1    0    0    0  501 -0.00000000000E+00 -0.00000000000E+00 -0.46030650557E+02  0.46030650557E+02  0.00000000000E+00 0.  1.
          6    1    1    2  502    0  0.42775158817E+02  0.10979284940E+03  0.38713919676E+03  0.43971006545E+03  0.17200000000E+03 0.  1.
         -6    1    1    2    0  501 -0.42775158817E+02 -0.10979284940E+03  0.53061826837E+03  0.57010870079E+03  0.17200000000E+03 0.  1.
<mgrwt>
<rscale>  2 0.20849025E+03</rscale>
<asrwt>0</asrwt>
<pdfrwt beam="1">  1        2 0.24094696E+00 0.20849025E+03</pdfrwt>
<pdfrwt beam="2">  1       -2 0.11507666E-01 0.20849025E+03</pdfrwt>
<totfact> 0.67291973E+02</totfact>
</mgrwt>
</event>
<event>
 4    1  0.3757815E-001  0.2033372E+03  0.7546771E-02  0.1146954E+00
          1   -1    0    0  502    0  0.00000000000E+00  0.00000000000E+00  0.10458819064E+03  0.10458819064E+03  0.00000000000E+00 0. -1.
         -1   -1    0    0    0  501 -0.00000000000E+00 -0.00000000000E+00 -0.42290995929E+03  0.42290995929E+03  0.00000000000E+00 0.  1.
          6    1    1    2  502    0 -0.22057889896E+02 -0.10618601152E+03 -0.91797133341E+02  0.22309803504E+03  0.17200000000E+03 0. -1.
         -6    1    1    2    0  501  0.22057889896E+02  0.10618601152E+03 -0.22652463530E+03  0.30440011489E+03  0.17200000000E+03 0.  1.
<mgrwt>
<rscale>  2 0.20333721E+03</rscale>
<asrwt>0</asrwt>
<pdfrwt beam="1">  1        1 0.26147048E-01 0.20333721E+03</pdfrwt>
<pdfrwt beam="2">  1       -1 0.10572749E+00 0.20333721E+03</pdfrwt>
<totfact> 0.16281993E+02</totfact>
</mgrwt>
</event>
<event>
 4    1  0.3757815E-001  0.2476728E+03  0.7546771E-02  0.1114784E+00
         -1   -1    0    0    0  501 -0.00000000000E+00  0.00000000000E+00  0.29389459943E+03  0.29389459943E+03  0.00000000000E+00 0. -1.
          1   -1    0    0  502    0  0.00000000000E+00 -0.00000000000E+00 -0.22104737292E+03  0.22104737292E+03  0.00000000000E+00 0.  1.
          6    1    1    2  502    0  0.10660521363E+03 -0.14280454551E+03 -0.24377727050E+02  0.24886961117E+03  0.17200000000E+03 0.  1.
         -6    1    1    2    0  501 -0.10660521363E+03  0.14280454551E+03  0.97224953561E+02  0.26607236118E+03  0.17200000000E+03 0. -1.
<mgrwt>
<rscale>  2 0.24767279E+03</rscale>
<asrwt>0</asrwt>
<pdfrwt beam="1">  1        1 0.55261843E-01 0.24767279E+03</pdfrwt>
<pdfrwt beam="2">  1       -1 0.73473650E-01 0.24767279E+03</pdfrwt>
<totfact> 0.13716258E+02</totfact>
</mgrwt>
</event>
<event>
 4    1  0.3757815E-001  0.2193856E+03  0.7546771E-02  0.1134342E+00
          2   -1    0    0  502    0  0.00000000000E+00  0.00000000000E+00  0.62902452577E+03  0.62902452577E+03  0.00000000000E+00 0. -1.
         -2   -1    0    0    0  501 -0.00000000000E+00 -0.00000000000E+00 -0.93237493920E+02  0.93237493920E+02  0.00000000000E+00 0.  1.
          6    1    1    2  502    0 -0.12907689143E+03  0.43418842839E+02  0.42083147781E+03  0.47458315660E+03  0.17200000000E+03 0. -1.
         -6    1    1    2    0  501  0.12907689143E+03 -0.43418842839E+02  0.11495555404E+03  0.24767886309E+03  0.17200000000E+03 0.  1.
<mgrwt>
<rscale>  2 0.21938560E+03</rscale>
<asrwt>0</asrwt>
<pdfrwt beam="1">  1        2 0.15725612E+00 0.21938560E+03</pdfrwt>
<pdfrwt beam="2">  1       -2 0.23309375E-01 0.21938560E+03</pdfrwt>
<totfact> 0.41443163E+02</totfact>
</mgrwt>
</event>
<event>
 4    1  0.3757815E-001  0.1777089E+03  0.7546771E-02  0.1170039E+00
          2   -1    0    0  502    0  0.00000000000E+00  0.00000000000E+00  0.33640953149E+03  0.33640953149E+03  0.00000000000E+00 0. -1.
         -2   -1    0    0    0  501 -0.00000000000E+00 -0.00000000000E+00 -0.94855716476E+02  0.94855716476E+02  0.00000000000E+00 0.  1.
          6    1    1    2  502    0  0.50081853303E+01 -0.44400091754E+02  0.98851334029E+02  0.20335200099E+03  0.17200000000E+03 0. -1.
         -6    1    1    2    0  501 -0.50081853303E+01  0.44400091754E+02  0.14270248099E+03  0.22791324698E+03  0.17200000000E+03 0. -1.
<mgrwt>
<rscale>  2 0.17770889E+03</rscale>
<asrwt>0</asrwt>
<pdfrwt beam="1">  1        2 0.84102380E-01 0.17770889E+03</pdfrwt>
<pdfrwt beam="2">  1       -2 0.23713930E-01 0.17770889E+03</pdfrwt>
<totfact> 0.87877843E+02</totfact>
</mgrwt>
</event>
<event>
 4    1  0.3757815E-001  0.1812640E+03  0.7546771E-02  0.1166585E+00
         -2   -1    0    0    0  501 -0.00000000000E+00  0.00000000000E+00  0.22957425502E+02  0.22957425502E+02  0.00000000000E+00 0. -1.
          2   -1    0    0  502    0  0.00000000000E+00 -0.00000000000E+00 -0.15102303736E+04  0.15102303736E+04  0.00000000000E+00 0.  1.
          6    1    1    2  502    0  0.53173059580E+02  0.21101131215E+02 -0.91900231810E+03  0.93670800823E+03  0.17200000000E+03 0.  1.
         -6    1    1    2    0  501 -0.53173059580E+02 -0.21101131215E+02 -0.56827063001E+03  0.59647979088E+03  0.17200000000E+03 0. -1.
<mgrwt>
<rscale>  2 0.18126398E+03</rscale>
<asrwt>0</asrwt>
<pdfrwt beam="1">  1        2 0.37755757E+00 0.18126398E+03</pdfrwt>
<pdfrwt beam="2">  1       -2 0.57393568E-02 0.18126398E+03</pdfrwt>
<totfact> 0.68691775E+02</totfact>
</mgrwt>
</event>
<event>
 4    1  0.3757815E-001  0.1737018E+03  0.7546771E-02  0.1174042E+00
          1   -1    0    0  502    0  0.00000000000E+00  0.00000000000E+00  0.13464090735E+04  0.13464090735E+04  0.00000000000E+00 0.  1.
         -1   -1    0    0    0  501 -0.00000000000E+00 -0.00000000000E+00 -0.23242827387E+02  0.23242827387E+02  0.00000000000E+00 0. -1.
          6    1    1    2  502    0 -0.11387196491E+02  0.21416091000E+02  0.53190978037E+03  0.55955368970E+03  0.17200000000E+03 0. -1.
         -6    1    1    2    0  501  0.11387196491E+02 -0.21416091000E+02  0.79125646579E+03  0.81009821124E+03  0.17200000000E+03 0.  1.
<mgrwt>
<rscale>  2 0.17370181E+03</rscale>
<asrwt>0</asrwt>
<pdfrwt beam="1">  1        1 0.33660201E+00 0.17370181E+03</pdfrwt>
<pdfrwt beam="2">  1       -1 0.58107114E-02 0.17370181E+03</pdfrwt>
<totfact> 0.36492031E+02</totfact>
</mgrwt>
</event>
<event>
 4    1  0.3757815E-001  0.1762832E+03  0.7546771E-02  0.1171449E+00
         -1   -1    0    0    0  501 -0.00000000000E+00  0.00000000000E+00  0.96598707786E+02  0.96598707786E+02  0.00000000000E+00 0. -1.
          1   -1    0    0  502    0  0.00000000000E+00 -0.00000000000E+00 -0.41256143676E+03  0.41256143676E+03  0.00000000000E+00 0.  1.
          6    1    1    2  502    0 -0.38151967020E+02  0.60155704336E+01 -0.27745470141E+03  0.32872004960E+03  0.17200000000E+03 0.  1.
         -6    1    1    2    0  501  0.38151967020E+02 -0.60155704336E+01 -0.38508027557E+02  0.18044009494E+03  0.17200000000E+03 0. -1.
<mgrwt>
<rscale>  2 0.17628318E+03</rscale>
<asrwt>0</asrwt>
<pdfrwt beam="1">  1        1 0.10314036E+00 0.17628318E+03</pdfrwt>
<pdfrwt beam="2">  1       -1 0.24149678E-01 0.17628318E+03</pdfrwt>
<totfact> 0.44928714E+02</totfact>
</mgrwt>
</event>
<event>
 4    1  0.3757815E-001  0.1810839E+03  0.7546771E-02  0.1166758E+00
          2   -1    0    0  502    0  0.00000000000E+00  0.00000000000E+00  0.45197035235E+03  0.45197035235E+03  0.00000000000E+00 0. -1.
         -2   -1    0    0    0  501 -0.00000000000E+00 -0.00000000000E+00 -0.11355264229E+03  0.11355264229E+03  0.00000000000E+00 0.  1.
          6    1    1    2  502    0  0.55966718778E+02  0.86656061830E+01 -0.70031728971E+00  0.18108521968E+03  0.17200000000E+03 0.  1.
         -6    1    1    2    0  501 -0.55966718778E+02 -0.86656061830E+01  0.33911802735E+03  0.38443777496E+03  0.17200000000E+03 0. -1.
<mgrwt>
<rscale>  2 0.18108387E+03</rscale>
<asrwt>0</asrwt>
<pdfrwt beam="1">  1        2 0.11299258E+00 0.18108387E+03</pdfrwt>
<pdfrwt beam="2">  1       -2 0.28388162E-01 0.18108387E+03</pdfrwt>
<totfact> 0.45279156E+02</totfact>
</mgrwt>
</event>
<event>
 4    1  0.3757815E-001  0.1834944E+03  0.7546771E-02  0.1164463E+00
         -2   -1    0    0    0  501 -0.00000000000E+00  0.00000000000E+00  0.26801456565E+03  0.26801456565E+03  0.00000000000E+00 0.  1.
          2   -1    0    0  502    0  0.00000000000E+00 -0.00000000000E+00 -0.19868136287E+03  0.19868136287E+03  0.00000000000E+00 0. -1.
          6    1    1    2  502    0 -0.58440064027E+02  0.25902805146E+02  0.17616282980E+03  0.25436890337E+03  0.17200000000E+03 0.  1.
         -6    1    1    2    0  501  0.58440064027E+02 -0.25902805146E+02 -0.10682962703E+03  0.21232702515E+03  0.17200000000E+03 0. -1.
<mgrwt>
<rscale>  2 0.18349440E+03</rscale>
<asrwt>0</asrwt>
<pdfrwt beam="1">  1        2 0.49670341E-01 0.18349440E+03</pdfrwt>
<pdfrwt beam="2">  1       -2 0.67003641E-01 0.18349440E+03</pdfrwt>
<totfact> 0.21428211E+02</totfact>
</mgrwt>
</event>
<event>
 4    1  0.3757815E-001  0.2013547E+03  0.7546771E-02  0.1148601E+00
         -2   -1    0    0    0  501 -0.00000000000E+00  0.00000000000E+00  0.86702257483E+02  0.86702257483E+02  0.00000000000E+00 0.  1.
          2   -1    0    0  502    0  0.00000000000E+00 -0.00000000000E+00 -0.56905487592E+03  0.56905487592E+03  0.00000000000E+00 0. -1.
          6    1    1    2  502    0  0.58189022320E+02 -0.87027408256E+02 -0.10274668180E+03  0.22605444638E+03  0.17200000000E+03 0. -1.
         -6    1    1    2    0  501 -0.58189022320E+02  0.87027408256E+02 -0.37960593664E+03  0.42970268703E+03  0.17200000000E+03 0. -1.
<mgrwt>
<rscale>  2 0.20135474E+03</rscale>
<asrwt>0</asrwt>
<pdfrwt beam="1">  1        2 0.14226372E+00 0.20135474E+03</pdfrwt>
<pdfrwt beam="2">  1       -2 0.21675565E-01 0.20135474E+03</pdfrwt>
<totfact> 0.54099727E+02</totfact>
</mgrwt>
</event>
<event>
 4    1  0.3757815E-001  0.1937709E+03  0.7546771E-02  0.1155104E+00
          1   -1    0    0  502    0  0.00000000000E+00  0.00000000000E+00  0.91198256651E+03  0.91198256651E+03  0.00000000000E+00 0.  1.
         -1   -1    0    0    0  501 -0.00000000000E+00 -0.00000000000E+00 -0.46714431553E+02  0.46714431553E+02  0.00000000000E+00 0. -1.
          6    1    1    2  502    0  0.76286151933E+02  0.46298946987E+02  0.26750711544E+03  0.33031382999E+03  0.17200000000E+03 0. -1.
         -6    1    1    2    0  501 -0.76286151933E+02 -0.46298946987E+02  0.59776101951E+03  0.62838316808E+03  0.17200000000E+03 0.  1.
<mgrwt>
<rscale>  2 0.19377092E+03</rscale>
<asrwt>0</asrwt>
<pdfrwt beam="1">  1        1 0.22799558E+00 0.19377092E+03</pdfrwt>
<pdfrwt beam="2">  1       -1 0.11678611E-01 0.19377092E+03</pdfrwt>
<totfact> 0.35785438E+02</totfact>
</mgrwt>
</event>
<event>
 4    1  0.3757815E-001  0.2028159E+03  0.7546771E-02  0.1147385E+00
          2   -1    0    0  502    0  0.00000000000E+00  0.00000000000E+00  0.14980422434E+04  0.14980422434E+04  0.00000000000E+00 0. -1.
         -2   -1    0    0    0  501 -0.00000000000E+00 -0.00000000000E+00 -0.43431647901E+02  0.43431647901E+02  0.00000000000E+00 0.  1.
          6    1    1    2  502    0  0.10600622138E+03  0.17690745961E+02  0.11947127817E+04  0.12118056413E+04  0.17200000000E+03 0. -1.
         -6    1    1    2    0  501 -0.10600622138E+03 -0.17690745961E+02  0.25989781384E+03  0.32966825007E+03  0.17200000000E+03 0. -1.
<mgrwt>
<rscale>  2 0.20281588E+03</rscale>
<asrwt>0</asrwt>
<pdfrwt beam="1">  1        2 0.37451039E+00 0.20281588E+03</pdfrwt>
<pdfrwt beam="2">  1       -2 0.10857917E-01 0.20281588E+03</pdfrwt>
<totfact> 0.25912126E+02</totfact>
</mgrwt>
</event>
<event>
 4    1  0.3757815E-001  0.1838536E+03  0.7546771E-02  0.1164125E+00
         -2   -1    0    0    0  501 -0.00000000000E+00  0.00000000000E+00  0.53285332300E+02  0.53285332300E+02  0.00000000000E+00 0.  1.
          2   -1    0    0  502    0  0.00000000000E+00 -0.00000000000E+00 -0.64996612803E+03  0.64996612803E+03  0.00000000000E+00 0. -1.
          6    1    1    2  502    0 -0.36216486923E+02  0.53912004765E+02 -0.24385645094E+03  0.30539827578E+03  0.17200000000E+03 0.  1.
         -6    1    1    2    0  501  0.36216486923E+02 -0.53912004765E+02 -0.35282434479E+03  0.39785318456E+03  0.17200000000E+03 0.  1.
<mgrwt>
<rscale>  2 0.18385358E+03</rscale>
<asrwt>0</asrwt>
<pdfrwt beam="1">  1        2 0.16249153E+00 0.18385358E+03</pdfrwt>
<pdfrwt beam="2">  1       -2 0.13321333E-01 0.18385358E+03</pdfrwt>
<totfact> 0.10163115E+03</totfact>
</mgrwt>
</event>
<event>
 4    1  0.3757815E-001  0.1999380E+03  0.7546771E-02  0.1149791E+00
         -2   -1    0    0    0  501 -0.00000000000E+00  0.00000000000E+00  0.13727129106E+03  0.13727129106E+03  0.00000000000E+00 0. -1.
          2   -1    0    0  502    0  0.00000000000E+00 -0.00000000000E+00 -0.29591752626E+03  0.29591752626E+03  0.00000000000E+00 0.  1.
          6    1    1    2  502    0 -0.10068451400E+03 -0.15931932888E+02 -0.52013516743E+02  0.20659284540E+03  0.17200000000E+03 0. -1.
         -6    1    1    2    0  501  0.10068451400E+03  0.15931932888E+02 -0.10663271846E+03  0.22659597192E+03  0.17200000000E+03 0.  1.
<mgrwt>
<rscale>  2 0.19993798E+03</rscale>
<asrwt>0</asrwt>
<pdfrwt beam="1">  1        2 0.73979381E-01 0.19993798E+03</pdfrwt>
<pdfrwt beam="2">  1       -2 0.34317823E-01 0.19993798E+03</pdfrwt>
<totfact> 0.52206859E+02</totfact>
</mgrwt>
</event>
<event>
 4    1  0.3757815E-001  0.2455942E+03  0.7546771E-02  0.1116121E+00
          1   -1    0    0  502    0  0.00000000000E+00  0.00000000000E+00  0.74039665966E+03  0.74039665966E+03  0.00000000000E+00 0. -1.
         -1   -1    0    0    0  501 -0.00000000000E+00 -0.00000000000E+00 -0.81885465679E+02  0.81885465679E+02  0.00000000000E+00 0.  1.
          6    1    1    2  502    0  0.16740776312E+03 -0.52030113182E+02  0.29979793058E+03  0.38755037222E+03  0.17200000000E+03 0.  1.
         -6    1    1    2    0  501 -0.16740776312E+03  0.52030113182E+02  0.35871326340E+03  0.43473175311E+03  0.17200000000E+03 0. -1.
<mgrwt>
<rscale>  2 0.24559416E+03</rscale>
<asrwt>0</asrwt>
<pdfrwt beam="1">  1        1 0.18509914E+00 0.24559416E+03</pdfrwt>
<pdfrwt beam="2">  1       -1 0.20471369E-01 0.24559416E+03</pdfrwt>
<totfact> 0.22387715E+02</totfact>
</mgrwt>
</event>
<event>
 4    1  0.3757815E-001  0.1927567E+03  0.7546771E-02  0.1155998E+00
         -2   -1    0    0    0  501 -0.00000000000E+00  0.00000000000E+00  0.23174770198E+02  0.23174770198E+02  0.00000000000E+00 0. -1.
          2   -1    0    0  502    0  0.00000000000E+00 -0.00000000000E+00 -0.16082884463E+04  0.16082884463E+04  0.00000000000E+00 0.  1.
          6    1    1    2  502    0  0.16168463384E+02  0.85496900981E+02 -0.74693613934E+03  0.77140698437E+03  0.17200000000E+03 0. -1.
         -6    1    1    2    0  501 -0.16168463384E+02 -0.85496900981E+02 -0.83817753677E+03  0.86005623213E+03  0.17200000000E+03 0. -1.
<mgrwt>
<rscale>  2 0.19275668E+03</rscale>
<asrwt>0</asrwt>
<pdfrwt beam="1">  1        2 0.40207207E+00 0.19275668E+03</pdfrwt>
<pdfrwt beam="2">  1       -2 0.57936932E-02 0.19275668E+03</pdfrwt>
<totfact> 0.55300144E+02</totfact>
</mgrwt>
</event>
<event>
 4    1  0.3757815E-001  0.2823725E+03  0.7546771E-02  0.1094400E+00
          1   -1    0    0  502    0  0.00000000000E+00  0.00000000000E+00  0.83442152437E+03  0.83442152437E+03  0.00000000000E+00 0.  1.
         -1   -1    0    0    0  501 -0.00000000000E+00 -0.00000000000E+00 -0.10880208081E+03  0.10880208081E+03  0.00000000000E+00 0. -1.
          6    1    1    2  502    0 -0.10415284813E+03 -0.19824841161E+03  0.52736224748E+03  0.59820162867E+03  0.17200000000E+03 0. -1.
         -6    1    1    2    0  501  0.10415284813E+03  0.19824841161E+03  0.19825719609E+03  0.34502197651E+03  0.17200000000E+03 0.  1.
<mgrwt>
<rscale>  2 0.28237253E+03</rscale>
<asrwt>0</asrwt>
<pdfrwt beam="1">  1        1 0.20860536E+00 0.28237253E+03</pdfrwt>
<pdfrwt beam="2">  1       -1 0.27200523E-01 0.28237253E+03</pdfrwt>
<totfact> 0.10882465E+02</totfact>
</mgrwt>
</event>
<event>
 4    1  0.3757815E-001  0.2012687E+03  0.7546771E-02  0.1148673E+00
          2   -1    0    0  502    0  0.00000000000E+00  0.00000000000E+00  0.60680890698E+03  0.60680890698E+03  0.00000000000E+00 0.  1.
         -2   -1    0    0    0  501 -0.00000000000E+00 -0.00000000000E+00 -0.94947305211E+02  0.94947305211E+02  0.00000000000E+00 0. -1.
          6    1    1    2  502    0 -0.55203943083E+02 -0.88755820685E+02  0.44711881549E+03  0.49033081303E+03  0.17200000000E+03 0.  1.
         -6    1    1    2    0  501  0.55203943083E+02  0.88755820685E+02  0.64742786280E+02  0.21142539917E+03  0.17200000000E+03 0. -1.
<mgrwt>
<rscale>  2 0.20126865E+03</rscale>
<asrwt>0</asrwt>
<pdfrwt beam="1">  1        2 0.15170222E+00 0.20126865E+03</pdfrwt>
<pdfrwt beam="2">  1       -2 0.23736828E-01 0.20126865E+03</pdfrwt>
<totfact> 0.42321597E+02</totfact>
</mgrwt>
</event>
<event>
 4    1  0.3757815E-001  0.2262756E+03  0.7546771E-02  0.1129289E+00
          2   -1    0    0  502    0  0.00000000000E+00  0.00000000000E+00  0.91253515492E+03  0.91253515492E+03  0.00000000000E+00 0.  1.
         -2   -1    0    0    0  501 -0.00000000000E+00 -0.00000000000E+00 -0.56331759961E+02  0.56331759961E+02  0.00000000000E+00 0. -1.
          6    1    1    2  502    0  0.32700140570E+02  0.14334338354E+03  0.39757781228E+03  0.45745900540E+03  0.17200000000E+03 0. -1.
         -6    1    1    2    0  501 -0.32700140570E+02 -0.14334338354E+03  0.45862558267E+03  0.51140790948E+03  0.17200000000E+03 0. -1.
<mgrwt>
<rscale>  2 0.22627555E+03</rscale>
<asrwt>0</asrwt>
<pdfrwt beam="1">  1        2 0.22813374E+00 0.22627555E+03</pdfrwt>
<pdfrwt beam="2">  1       -2 0.14082943E-01 0.22627555E+03</pdfrwt>
<totfact> 0.53526879E+02</totfact>
</mgrwt>
</event>
<event>
 4    1  0.3757815E-001  0.1868862E+03  0.7546771E-02  0.1161300E+00
          1   -1    0    0  502    0  0.00000000000E+00  0.00000000000E+00  0.19626654624E+03  0.19626654624E+03  0.00000000000E+00 0.  1.
         -1   -1    0    0    0  501 -0.00000000000E+00 -0.00000000000E+00 -0.21426823762E+03  0.21426823762E+03  0.00000000000E+00 0. -1.
          6    1    1    2  502    0 -0.60283954516E+02  0.41331449476E+02 -0.93505126700E+02  0.20897285136E+03  0.17200000000E+03 0. -1.
         -6    1    1    2    0  501  0.60283954516E+02 -0.41331449476E+02  0.75503435324E+02  0.20156193250E+03  0.17200000000E+03 0.  1.
<mgrwt>
<rscale>  2 0.18688618E+03</rscale>
<asrwt>0</asrwt>
<pdfrwt beam="1">  1        1 0.49066637E-01 0.18688618E+03</pdfrwt>
<pdfrwt beam="2">  1       -1 0.53567059E-01 0.18688618E+03</pdfrwt>
<totfact> 0.29679407E+02</totfact>
</mgrwt>
</event>
<event>
 4    1  0.3757815E-001  0.2271291E+03  0.7546771E-02  0.1128677E+00
          2   -1    0    0  502    0  0.00000000000E+00  0.00000000000E+00  0.83047780506E+02  0.83047780506E+02  0.00000000000E+00 0.  1.
         -2   -1    0    0    0  501 -0.00000000000E+00 -0.00000000000E+00 -0.84042524247E+03  0.84042524247E+03  0.00000000000E+00 0. -1.
          6    1    1    2  502    0 -0.11040626313E+03 -0.99066146640E+02 -0.61452439180E+03  0.65515484617E+03  0.17200000000E+03 0. -1.
         -6    1    1    2    0  501  0.11040626313E+03  0.99066146640E+02 -0.14285307017E+03  0.26831817680E+03  0.17200000000E+03 0.  1.
<mgrwt>
<rscale>  2 0.22712914E+03</rscale>
<asrwt>0</asrwt>
<pdfrwt beam="1">  1        2 0.20761945E-01 0.22712914E+03</pdfrwt>
<pdfrwt beam="2">  1       -2 0.21010631E+00 0.22712914E+03</pdfrwt>
<totfact> 0.33540759E+01</totfact>
</mgrwt>
</event>
<event>
 4    1  0.3757815E-001  0.2677128E+03  0.7546771E-02  0.1102596E+00
         -1   -1    0    0    0  501 -0.00000000000E+00  0.00000000000E+00  0.10962580633E+03  0.10962580633E+03  0.00000000000E+00 0. -1.
          1   -1    0    0  502    0  0.00000000000E+00 -0.00000000000E+00 -0.68910098218E+03  0.68910098218E+03  0.00000000000E+00 0.  1.
          6    1    1    2  502    0  0.11697037286E+03  0.16853514050E+03 -0.38016480474E+03  0.46496821448E+03  0.17200000000E+03 0.  1.
         -6    1    1    2    0  501 -0.11697037286E+03 -0.16853514050E+03 -0.19931037110E+03  0.33375857403E+03  0.17200000000E+03 0. -1.
<mgrwt>
<rscale>  2 0.26771283E+03</rscale>
<asrwt>0</asrwt>
<pdfrwt beam="1">  1        1 0.17227524E+00 0.26771283E+03</pdfrwt>
<pdfrwt beam="2">  1       -1 0.27406452E-01 0.26771283E+03</pdfrwt>
<totfact> 0.15738164E+02</totfact>
</mgrwt>
</event>
<event>
 4    1  0.3757815E-001  0.2477220E+03  0.7546771E-02  0.1114753E+00
          2   -1    0    0  502    0  0.00000000000E+00  0.00000000000E+00  0.21040394169E+03  0.21040394169E+03  0.00000000000E+00 0. -1.
         -2   -1    0    0    0  501 -0.00000000000E+00 -0.00000000000E+00 -0.46071256370E+03  0.46071256370E+03  0.00000000000E+00 0.  1.
          6    1    1    2  502    0  0.69647216122E+02 -0.16410801662E+03  0.78111917359E+02  0.25974535119E+03  0.17200000000E+03 0. -1.
         -6    1    1    2    0  501 -0.69647216122E+02  0.16410801662E+03 -0.32842053937E+03  0.41137115420E+03  0.17200000000E+03 0.  1.
<mgrwt>
<rscale>  2 0.24772197E+03</rscale>
<asrwt>0</asrwt>
<pdfrwt beam="1">  1        2 0.52600986E-01 0.24772197E+03</pdfrwt>
<pdfrwt beam="2">  1       -2 0.11517814E+00 0.24772197E+03</pdfrwt>
<totfact> 0.58946318E+01</totfact>
</mgrwt>
</event>
<event>
 4    1  0.3757815E-001  0.2706460E+03  0.7546771E-02  0.1100910E+00
          1   -1    0    0  502    0  0.00000000000E+00  0.00000000000E+00  0.41644758357E+03  0.41644758357E+03  0.00000000000E+00 0.  1.
         -1   -1    0    0    0  501 -0.00000000000E+00 -0.00000000000E+00 -0.23240695051E+03  0.23240695051E+03  0.00000000000E+00 0. -1.
          6    1    1    2  502    0 -0.19663197123E+03 -0.70718643961E+02 -0.67964750218E+02  0.27904921785E+03  0.17200000000E+03 0.  1.
         -6    1    1    2    0  501  0.19663197123E+03  0.70718643961E+02  0.25200538327E+03  0.36980531623E+03  0.17200000000E+03 0.  1.
<mgrwt>
<rscale>  2 0.27064600E+03</rscale>
<asrwt>0</asrwt>
<pdfrwt beam="1">  1        1 0.10411189E+00 0.27064600E+03</pdfrwt>
<pdfrwt beam="2">  1       -1 0.58101738E-01 0.27064600E+03</pdfrwt>
<totfact> 0.92842546E+01</totfact>
</mgrwt>
</event>
<event>
 4    1  0.3757815E-001  0.1764381E+03  0.7546771E-02  0.1171295E+00
         -4   -1    0    0    0  501 -0.00000000000E+00  0.00000000000E+00  0.36342655489E+02  0.36342655489E+02  0.00000000000E+00 0.  1.
          4   -1    0    0  502    0  0.00000000000E+00 -0.00000000000E+00 -0.90759308887E+03  0.90759308887E+03  0.00000000000E+00 0. -1.
          6    1    1    2  502    0 -0.75455449109E+01  0.38593818895E+02 -0.54751864497E+03  0.57524523875E+03  0.17200000000E+03 0. -1.
         -6    1    1    2    0  501  0.75455449109E+01 -0.38593818895E+02 -0.32373178841E+03  0.36869050562E+03  0.17200000000E+03 0.  1.
<mgrwt>
<rscale>  2 0.17643814E+03</rscale>
<asrwt>0</asrwt>
<pdfrwt beam="1">  1        4 0.22689828E+00 0.17643814E+03</pdfrwt>
<pdfrwt beam="2">  1       -4 0.90856636E-02 0.17643814E+03</pdfrwt>
<totfact> 0.15582302E+01</totfact>
</mgrwt>
</event>
<event>
 4    1  0.3757815E-001  0.2584351E+03  0.7546771E-02  0.1108087E+00
         -2   -1    0    0    0  501 -0.00000000000E+00  0.00000000000E+00  0.11847829779E+04  0.11847829779E+04  0.00000000000E+00 0. -1.
          2   -1    0    0  502    0  0.00000000000E+00 -0.00000000000E+00 -0.77254903473E+02  0.77254903473E+02  0.00000000000E+00 0.  1.
          6    1    1    2  502    0  0.13182590549E+03 -0.14080714542E+03  0.22568867336E+03  0.34310945606E+03  0.17200000000E+03 0.  1.
         -6    1    1    2    0  501 -0.13182590549E+03  0.14080714542E+03  0.88183940104E+03  0.91892842528E+03  0.17200000000E+03 0. -1.
<mgrwt>
<rscale>  2 0.25843514E+03</rscale>
<asrwt>0</asrwt>
<pdfrwt beam="1">  1        2 0.19313730E-01 0.25843514E+03</pdfrwt>
<pdfrwt beam="2">  1       -2 0.29619569E+00 0.25843514E+03</pdfrwt>
<totfact> 0.11208199E+01</totfact>
</mgrwt>
</event>
<event>
 4    1  0.3757815E-001  0.1971317E+03  0.7546771E-02  0.1152182E+00
          2   -1    0    0  502    0  0.00000000000E+00  0.00000000000E+00  0.42444276649E+03  0.42444276649E+03  0.00000000000E+00 0.  1.
         -2   -1    0    0    0  501 -0.00000000000E+00 -0.00000000000E+00 -0.97593880770E+02  0.97593880770E+02  0.00000000000E+00 0. -1.
          6    1    1    2  502    0  0.75164289677E+02  0.60226620532E+02  0.98508971771E+02  0.22037453070E+03  0.17200000000E+03 0.  1.
         -6    1    1    2    0  501 -0.75164289677E+02 -0.60226620532E+02  0.22833991395E+03  0.30166211656E+03  0.17200000000E+03 0.  1.
<mgrwt>
<rscale>  2 0.19713172E+03</rscale>
<asrwt>0</asrwt>
<pdfrwt beam="1">  1        2 0.10611069E+00 0.19713172E+03</pdfrwt>
<pdfrwt beam="2">  1       -2 0.24398471E-01 0.19713172E+03</pdfrwt>
<totfact> 0.63844267E+02</totfact>
</mgrwt>
</event>
<event>
 4    1  0.3757815E-001  0.2391163E+03  0.7546771E-02  0.1120383E+00
          2   -1    0    0  502    0  0.00000000000E+00  0.00000000000E+00  0.12900985141E+04  0.12900985141E+04  0.00000000000E+00 0.  1.
         -2   -1    0    0    0  501 -0.00000000000E+00 -0.00000000000E+00 -0.50189405743E+02  0.50189405743E+02  0.00000000000E+00 0. -1.
          6    1    1    2  502    0 -0.44383499735E+02 -0.16007096997E+03  0.39077541620E+03  0.45812884255E+03  0.17200000000E+03 0. -1.
         -6    1    1    2    0  501  0.44383499735E+02  0.16007096997E+03  0.84913369214E+03  0.88215907727E+03  0.17200000000E+03 0.  1.
<mgrwt>
<rscale>  2 0.23911631E+03</rscale>
<asrwt>0</asrwt>
<pdfrwt beam="1">  1        2 0.32252452E+00 0.23911631E+03</pdfrwt>
<pdfrwt beam="2">  1       -2 0.12547356E-01 0.23911631E+03</pdfrwt>
<totfact> 0.30705733E+02</totfact>
</mgrwt>
</event>
<event>
 4    1  0.3757815E-001  0.1798591E+03  0.7546771E-02  0.1167939E+00
         -2   -1    0    0    0  501 -0.00000000000E+00  0.00000000000E+00  0.21770628796E+03  0.21770628796E+03  0.00000000000E+00 0. -1.
          2   -1    0    0  502    0  0.00000000000E+00 -0.00000000000E+00 -0.14859231071E+03  0.14859231071E+03  0.00000000000E+00 0.  1.
          6    1    1    2  502    0 -0.42428566796E+01  0.52414696224E+02  0.34127165651E+02  0.18306819945E+03  0.17200000000E+03 0.  1.
         -6    1    1    2    0  501  0.42428566796E+01 -0.52414696224E+02  0.34986811596E+02  0.18323039922E+03  0.17200000000E+03 0.  1.
<mgrwt>
<rscale>  2 0.17985912E+03</rscale>
<asrwt>0</asrwt>
<pdfrwt beam="1">  1        2 0.37148078E-01 0.17985912E+03</pdfrwt>
<pdfrwt beam="2">  1       -2 0.54426572E-01 0.17985912E+03</pdfrwt>
<totfact> 0.44966463E+02</totfact>
</mgrwt>
</event>
<event>
 4    1  0.3757815E-001  0.2374161E+03  0.7546771E-02  0.1121526E+00
          1   -1    0    0  502    0  0.00000000000E+00  0.00000000000E+00  0.24285777009E+04  0.24285777009E+04  0.00000000000E+00 0.  1.
         -1   -1    0    0    0  501 -0.00000000000E+00 -0.00000000000E+00 -0.23861900712E+02  0.23861900712E+02  0.00000000000E+00 0. -1.
          6    1    1    2  502    0  0.16246327278E+03  0.19700045127E+02  0.99962350869E+03  0.10274305650E+04  0.17200000000E+03 0. -1.
         -6    1    1    2    0  501 -0.16246327278E+03 -0.19700045127E+02  0.14050922915E+04  0.14250090366E+04  0.17200000000E+03 0.  1.
<mgrwt>
<rscale>  2 0.23741610E+03</rscale>
<asrwt>0</asrwt>
<pdfrwt beam="1">  1        1 0.60714358E+00 0.23741610E+03</pdfrwt>
<pdfrwt beam="2">  1       -1 0.59654834E-02 0.23741610E+03</pdfrwt>
<totfact> 0.19061507E+01</totfact>
</mgrwt>
</event>
<event>
 4    1  0.3757815E-001  0.2167785E+03  0.7546771E-02  0.1136308E+00
          2   -1    0    0  502    0  0.00000000000E+00  0.00000000000E+00  0.10636054365E+04  0.10636054365E+04  0.00000000000E+00 0.  1.
         -2   -1    0    0    0  501 -0.00000000000E+00 -0.00000000000E+00 -0.52042493861E+02  0.52042493861E+02  0.00000000000E+00 0. -1.
          6    1    1    2  502    0 -0.72452080418E+02  0.11027059614E+03  0.72256437879E+03  0.75438199198E+03  0.17200000000E+03 0. -1.
         -6    1    1    2    0  501  0.72452080418E+02 -0.11027059614E+03  0.28899856388E+03  0.36126593841E+03  0.17200000000E+03 0. -1.
<mgrwt>
<rscale>  2 0.21677848E+03</rscale>
<asrwt>0</asrwt>
<pdfrwt beam="1">  1        2 0.26590129E+00 0.21677848E+03</pdfrwt>
<pdfrwt beam="2">  1       -2 0.13010627E-01 0.21677848E+03</pdfrwt>
<totfact> 0.45308338E+02</totfact>
</mgrwt>
</event>
<event>
 4    1  0.3757815E-001  0.2275125E+03  0.7546771E-02  0.1128403E+00
         -1   -1    0    0    0  501 -0.00000000000E+00  0.00000000000E+00  0.69625913452E+02  0.69625913452E+02  0.00000000000E+00 0. -1.
          1   -1    0    0  502    0  0.00000000000E+00 -0.00000000000E+00 -0.81531075415E+03  0.81531075415E+03  0.00000000000E+00 0.  1.
          6    1    1    2  502    0  0.92510197010E+02 -0.11670396487E+03 -0.24146259043E+03  0.33176216563E+03  0.17200000000E+03 0. -1.
         -6    1    1    2    0  501 -0.92510197010E+02  0.11670396487E+03 -0.50422225026E+03  0.55317450196E+03  0.17200000000E+03 0.  1.
<mgrwt>
<rscale>  2 0.22751253E+03</rscale>
<asrwt>0</asrwt>
<pdfrwt beam="1">  1        1 0.20382769E+00 0.22751253E+03</pdfrwt>
<pdfrwt beam="2">  1       -1 0.17406478E-01 0.22751253E+03</pdfrwt>
<totfact> 0.24092968E+02</totfact>
</mgrwt>
</event>
<event>
 4    1  0.3757815E-001  0.2265007E+03  0.7546771E-02  0.1129127E+00
          1   -1    0    0  502    0  0.00000000000E+00  0.00000000000E+00  0.63278772163E+03  0.63278772163E+03  0.00000000000E+00 0. -1.
         -1   -1    0    0    0  501 -0.00000000000E+00 -0.00000000000E+00 -0.10766391135E+03  0.10766391135E+03  0.00000000000E+00 0.  1.
          6    1    1    2  502    0  0.13864591855E+03  0.49958633192E+02  0.44655056166E+03  0.50070945655E+03  0.17200000000E+03 0. -1.
         -6    1    1    2    0  501 -0.13864591855E+03 -0.49958633192E+02  0.78573248626E+02  0.23974217643E+03  0.17200000000E+03 0.  1.
<mgrwt>
<rscale>  2 0.22650067E+03</rscale>
<asrwt>0</asrwt>
<pdfrwt beam="1">  1        1 0.15819692E+00 0.22650067E+03</pdfrwt>
<pdfrwt beam="2">  1       -1 0.26915980E-01 0.22650067E+03</pdfrwt>
<totfact> 0.19067854E+02</totfact>
</mgrwt>
</event>
<event>
 4    1  0.3757815E-001  0.3139860E+03  0.7546771E-02  0.1078451E+00
         -2   -1    0    0    0  501 -0.00000000000E+00  0.00000000000E+00  0.16734493015E+03  0.16734493015E+03  0.00000000000E+00 0. -1.
          2   -1    0    0  502    0  0.00000000000E+00 -0.00000000000E+00 -0.59824958071E+03  0.59824958071E+03  0.00000000000E+00 0.  1.
          6    1    1    2  502    0 -0.24664119250E+03  0.90395266256E+02 -0.16817859775E+03  0.35618986895E+03  0.17200000000E+03 0.  1.
         -6    1    1    2    0  501  0.24664119250E+03 -0.90395266256E+02 -0.26272605280E+03  0.40940464192E+03  0.17200000000E+03 0.  1.
<mgrwt>
<rscale>  2 0.31398596E+03</rscale>
<asrwt>0</asrwt>
<pdfrwt beam="1">  1        2 0.14956239E+00 0.31398596E+03</pdfrwt>
<pdfrwt beam="2">  1       -2 0.41836233E-01 0.31398596E+03</pdfrwt>
<totfact> 0.14992166E+02</totfact>
</mgrwt>
</event>
<event>
 4    1  0.3757815E-001  0.2229634E+03  0.7546771E-02  0.1131693E+00
          1   -1    0    0  502    0  0.00000000000E+00  0.00000000000E+00  0.15282483684E+03  0.15282483684E+03  0.00000000000E+00 0.  1.
         -1   -1    0    0    0  501 -0.00000000000E+00 -0.00000000000E+00 -0.33419518084E+03  0.33419518084E+03  0.00000000000E+00 0. -1.
          6    1    1    2  502    0  0.25374757129E+02 -0.13958798942E+03 -0.50939376332E+02  0.22870834080E+03  0.17200000000E+03 0.  1.
         -6    1    1    2    0  501 -0.25374757129E+02  0.13958798942E+03 -0.13043096767E+03  0.25831167689E+03  0.17200000000E+03 0. -1.
<mgrwt>
<rscale>  2 0.22296342E+03</rscale>
<asrwt>0</asrwt>
<pdfrwt beam="1">  1        1 0.38206210E-01 0.22296342E+03</pdfrwt>
<pdfrwt beam="2">  1       -1 0.83548794E-01 0.22296342E+03</pdfrwt>
<totfact> 0.16819242E+02</totfact>
</mgrwt>
</event>
<event>
 4    1  0.3757815E-001  0.2150293E+03  0.7546771E-02  0.1137644E+00
          2   -1    0    0  502    0  0.00000000000E+00  0.00000000000E+00  0.38938651473E+03  0.38938651473E+03  0.00000000000E+00 0. -1.
         -2   -1    0    0    0  501 -0.00000000000E+00 -0.00000000000E+00 -0.12722643332E+03  0.12722643332E+03  0.00000000000E+00 0.  1.
          6    1    1    2  502    0 -0.40169806207E+01 -0.12898632249E+03  0.19777414322E+03  0.29215102130E+03  0.17200000000E+03 0. -1.
         -6    1    1    2    0  501  0.40169806207E+01  0.12898632249E+03  0.64385938195E+02  0.22446192675E+03  0.17200000000E+03 0.  1.
<mgrwt>
<rscale>  2 0.21502932E+03</rscale>
<asrwt>0</asrwt>
<pdfrwt beam="1">  1        2 0.97346626E-01 0.21502932E+03</pdfrwt>
<pdfrwt beam="2">  1       -2 0.31806609E-01 0.21502932E+03</pdfrwt>
<totfact> 0.43928390E+02</totfact>
</mgrwt>
</event>
<event>
 4    1  0.3757815E-001  0.2573270E+03  0.7546771E-02  0.1108760E+00
         -1   -1    0    0    0  501 -0.00000000000E+00  0.00000000000E+00  0.16395870112E+03  0.16395870112E+03  0.00000000000E+00 0.  1.
          1   -1    0    0  502    0  0.00000000000E+00 -0.00000000000E+00 -0.42217331418E+03  0.42217331418E+03  0.00000000000E+00 0. -1.
          6    1    1    2  502    0 -0.69932352050E+02  0.17816473944E+03 -0.68077463298E+02  0.26617991895E+03  0.17200000000E+03 0.  1.
         -6    1    1    2    0  501  0.69932352050E+02 -0.17816473944E+03 -0.19013714976E+03  0.31995209635E+03  0.17200000000E+03 0.  1.
<mgrwt>
<rscale>  2 0.25732705E+03</rscale>
<asrwt>0</asrwt>
<pdfrwt beam="1">  1        1 0.10554333E+00 0.25732705E+03</pdfrwt>
<pdfrwt beam="2">  1       -1 0.40989676E-01 0.25732705E+03</pdfrwt>
<totfact> 0.17382449E+02</totfact>
</mgrwt>
</event>
<event>
 4    1  0.3757815E-001  0.2661693E+03  0.7546771E-02  0.1103492E+00
         -1   -1    0    0    0  501 -0.00000000000E+00  0.00000000000E+00  0.26245684874E+03  0.26245684874E+03  0.00000000000E+00 0. -1.
          1   -1    0    0  502    0  0.00000000000E+00 -0.00000000000E+00 -0.28791319609E+03  0.28791319609E+03  0.00000000000E+00 0.  1.
          6    1    1    2  502    0 -0.95748385693E+01  0.20290501119E+03 -0.81494339800E+02  0.27836567410E+03  0.17200000000E+03 0.  1.
         -6    1    1    2    0  501  0.95748385693E+01 -0.20290501119E+03  0.56037992447E+02  0.27200437073E+03  0.17200000000E+03 0. -1.
<mgrwt>
<rscale>  2 0.26616935E+03</rscale>
<asrwt>0</asrwt>
<pdfrwt beam="1">  1        1 0.71978299E-01 0.26616935E+03</pdfrwt>
<pdfrwt beam="2">  1       -1 0.65614212E-01 0.26616935E+03</pdfrwt>
<totfact> 0.12184910E+02</totfact>
</mgrwt>
</event>
<event>
 4    1  0.3757815E-001  0.2716161E+03  0.7546771E-02  0.1100358E+00
          2   -1    0    0  502    0  0.00000000000E+00  0.00000000000E+00  0.32038263742E+03  0.32038263742E+03  0.00000000000E+00 0.  1.
         -2   -1    0    0    0  501 -0.00000000000E+00 -0.00000000000E+00 -0.25706626777E+03  0.25706626777E+03  0.00000000000E+00 0. -1.
          6    1    1    2  502    0 -0.16806800088E+03  0.12627128910E+03  0.12487159749E+03  0.29894515756E+03  0.17200000000E+03 0.  1.
         -6    1    1    2    0  501  0.16806800088E+03 -0.12627128910E+03 -0.61555227837E+02  0.27850374763E+03  0.17200000000E+03 0. -1.
<mgrwt>
<rscale>  2 0.27161607E+03</rscale>
<asrwt>0</asrwt>
<pdfrwt beam="1">  1        2 0.80095659E-01 0.27161607E+03</pdfrwt>
<pdfrwt beam="2">  1       -2 0.64266567E-01 0.27161607E+03</pdfrwt>
<totfact> 0.13752670E+02</totfact>
</mgrwt>
</event>
<event>
 4    1  0.3757815E-001  0.2737158E+03  0.7546771E-02  0.1099172E+00
          1   -1    0    0  502    0  0.00000000000E+00  0.00000000000E+00  0.53141716175E+03  0.53141716175E+03  0.00000000000E+00 0. -1.
         -1   -1    0    0    0  501 -0.00000000000E+00 -0.00000000000E+00 -0.15206707436E+03  0.15206707436E+03  0.00000000000E+00 0.  1.
          6    1    1    2  502    0  0.99421043678E+02  0.18828651464E+03  0.28194206187E+03  0.39295251847E+03  0.17200000000E+03 0. -1.
         -6    1    1    2    0  501 -0.99421043678E+02 -0.18828651464E+03  0.97408025520E+02  0.29053171764E+03  0.17200000000E+03 0.  1.
<mgrwt>
<rscale>  2 0.27371583E+03</rscale>
<asrwt>0</asrwt>
<pdfrwt beam="1">  1        1 0.13285429E+00 0.27371583E+03</pdfrwt>
<pdfrwt beam="2">  1       -1 0.38016770E-01 0.27371583E+03</pdfrwt>
<totfact> 0.13961966E+02</totfact>
</mgrwt>
</event>
<event>
 4    1  0.3757815E-001  0.1738607E+03  0.7546771E-02  0.1173881E+00
          2   -1    0    0  502    0  0.00000000000E+00  0.00000000000E+00  0.10748764854E+04  0.10748764854E+04  0.00000000000E+00 0. -1.
         -2   -1    0    0    0  501 -0.00000000000E+00 -0.00000000000E+00 -0.31248691258E+02  0.31248691258E+02  0.00000000000E+00 0.  1.
          6    1    1    2  502    0  0.15309797472E+02 -0.20227480439E+02  0.34686563610E+03  0.38799911130E+03  0.17200000000E+03 0.  1.
         -6    1    1    2    0  501 -0.15309797472E+02  0.20227480439E+02  0.69676215802E+03  0.71812606533E+03  0.17200000000E+03 0. -1.
<mgrwt>
<rscale>  2 0.17386069E+03</rscale>
<asrwt>0</asrwt>
<pdfrwt beam="1">  1        2 0.26871900E+00 0.17386069E+03</pdfrwt>
<pdfrwt beam="2">  1       -2 0.78121764E-02 0.17386069E+03</pdfrwt>
<totfact> 0.10031077E+03</totfact>
</mgrwt>
</event>
<event>
 4    1  0.3757815E-001  0.2039005E+03  0.7546771E-02  0.1146489E+00
         -2   -1    0    0    0  501 -0.00000000000E+00  0.00000000000E+00  0.32644168138E+03  0.32644168138E+03  0.00000000000E+00 0.  1.
          2   -1    0    0  502    0  0.00000000000E+00 -0.00000000000E+00 -0.13671544656E+03  0.13671544656E+03  0.00000000000E+00 0. -1.
          6    1    1    2  502    0  0.65023267160E+02 -0.88110159138E+02  0.34282299913E+02  0.20676242769E+03  0.17200000000E+03 0. -1.
         -6    1    1    2    0  501 -0.65023267160E+02  0.88110159138E+02  0.15544393490E+03  0.25639470025E+03  0.17200000000E+03 0. -1.
<mgrwt>
<rscale>  2 0.20390053E+03</rscale>
<asrwt>0</asrwt>
<pdfrwt beam="1">  1        2 0.34178862E-01 0.20390053E+03</pdfrwt>
<pdfrwt beam="2">  1       -2 0.81610419E-01 0.20390053E+03</pdfrwt>
<totfact> 0.20879055E+02</totfact>
</mgrwt>
</event>
<event>
 4    1  0.3757815E-001  0.2013076E+03  0.7546771E-02  0.1148640E+00
         -2   -1    0    0    0  501 -0.00000000000E+00  0.00000000000E+00  0.45917468806E+02  0.45917468806E+02  0.00000000000E+00 0.  1.
          2   -1    0    0  502    0  0.00000000000E+00 -0.00000000000E+00 -0.98214614863E+03  0.98214614863E+03  0.00000000000E+00 0. -1.
          6    1    1    2  502    0  0.47169749435E+02 -0.93358190566E+02 -0.30442886088E+03  0.36496803743E+03  0.17200000000E+03 0.  1.
         -6    1    1    2    0  501 -0.47169749435E+02  0.93358190566E+02 -0.63179981895E+03  0.66309558001E+03  0.17200000000E+03 0. -1.
<mgrwt>
<rscale>  2 0.20130757E+03</rscale>
<asrwt>0</asrwt>
<pdfrwt beam="1">  1        2 0.24553653E+00 0.20130757E+03</pdfrwt>
<pdfrwt beam="2">  1       -2 0.11479367E-01 0.20130757E+03</pdfrwt>
<totfact> 0.65232426E+02</totfact>
</mgrwt>
</event>
<event>
 4    1  0.3757815E-001  0.2910158E+03  0.7546771E-02  0.1089820E+00
         -1   -1    0    0    0  501 -0.00000000000E+00  0.00000000000E+00  0.49048768151E+02  0.49048768151E+02  0.00000000000E+00 0.  1.
          1   -1    0    0  502    0  0.00000000000E+00 -0.00000000000E+00 -0.17381192777E+04  0.17381192777E+04  0.00000000000E+00 0. -1.
          6    1    1    2  502    0  0.22388332397E+03 -0.70586641740E+02 -0.77195785534E+03  0.82499039217E+03  0.17200000000E+03 0. -1.
         -6    1    1    2    0  501 -0.22388332397E+03  0.70586641740E+02 -0.91711265421E+03  0.96217765369E+03  0.17200000000E+03 0.  1.
<mgrwt>
<rscale>  2 0.29101584E+03</rscale>
<asrwt>0</asrwt>
<pdfrwt beam="1">  1        1 0.43452982E+00 0.29101584E+03</pdfrwt>
<pdfrwt beam="2">  1       -1 0.12262192E-01 0.29101584E+03</pdfrwt>
<totfact> 0.42243551E+01</totfact>
</mgrwt>
</event>
<event>
 4    1  0.3757815E-001  0.1968041E+03  0.7546771E-02  0.1152464E+00
         -1   -1    0    0    0  501 -0.00000000000E+00  0.00000000000E+00  0.95944483227E+02  0.95944483227E+02  0.00000000000E+00 0.  1.
          1   -1    0    0  502    0  0.00000000000E+00 -0.00000000000E+00 -0.40983516777E+03  0.40983516777E+03  0.00000000000E+00 0. -1.
          6    1    1    2  502    0 -0.85376506396E+01  0.95262676118E+02 -0.12597979936E+03  0.23367237489E+03  0.17200000000E+03 0.  1.
         -6    1    1    2    0  501  0.85376506396E+01 -0.95262676118E+02 -0.18791088518E+03  0.27210727610E+03  0.17200000000E+03 0.  1.
<mgrwt>
<rscale>  2 0.19680414E+03</rscale>
<asrwt>0</asrwt>
<pdfrwt beam="1">  1        1 0.10245879E+00 0.19680414E+03</pdfrwt>
<pdfrwt beam="2">  1       -1 0.23986121E-01 0.19680414E+03</pdfrwt>
<totfact> 0.45782050E+02</totfact>
</mgrwt>
</event>
<event>
 4    1  0.3757815E-001  0.2128393E+03  0.7546771E-02  0.1139337E+00
          2   -1    0    0  502    0  0.00000000000E+00  0.00000000000E+00  0.56558851839E+02  0.56558851839E+02  0.00000000000E+00 0. -1.
         -2   -1    0    0    0  501 -0.00000000000E+00 -0.00000000000E+00 -0.80351458275E+03  0.80351458275E+03  0.00000000000E+00 0.  1.
          6    1    1    2  502    0 -0.98746549750E+02  0.77237990255E+02 -0.34916409416E+03  0.40892071711E+03  0.17200000000E+03 0.  1.
         -6    1    1    2    0  501  0.98746549750E+02 -0.77237990255E+02 -0.39779163675E+03  0.45115271748E+03  0.17200000000E+03 0. -1.
<mgrwt>
<rscale>  2 0.21283935E+03</rscale>
<asrwt>0</asrwt>
<pdfrwt beam="1">  1        2 0.14139713E-01 0.21283935E+03</pdfrwt>
<pdfrwt beam="2">  1       -2 0.20087864E+00 0.21283935E+03</pdfrwt>
<totfact> 0.60099647E+01</totfact>
</mgrwt>
</event>
<event>
 4    1  0.3757815E-001  0.1991083E+03  0.7546771E-02  0.1150494E+00
         -1   -1    0    0    0  501 -0.00000000000E+00  0.00000000000E+00  0.54838375489E+03  0.54838375489E+03  0.00000000000E+00 0. -1.
          1   -1    0    0  502    0  0.00000000000E+00 -0.00000000000E+00 -0.87073870422E+02  0.87073870422E+02  0.00000000000E+00 0.  1.
          6    1    1    2  502    0 -0.84825247719E+02  0.53523724164E+02  0.99746424165E+02  0.22269589317E+03  0.17200000000E+03 0. -1.
         -6    1    1    2    0  501  0.84825247719E+02 -0.53523724164E+02  0.36156346031E+03  0.41276173215E+03  0.17200000000E+03 0.  1.
<mgrwt>
<rscale>  2 0.19910829E+03</rscale>
<asrwt>0</asrwt>
<pdfrwt beam="1">  1        1 0.21768469E-01 0.19910829E+03</pdfrwt>
<pdfrwt beam="2">  1       -1 0.13709593E+00 0.19910829E+03</pdfrwt>
<totfact> 0.11092024E+02</totfact>
</mgrwt>
</event>
<event>
 4    1  0.3757815E-001  0.1920143E+03  0.7546771E-02  0.1156657E+00
          2   -1    0    0  502    0  0.00000000000E+00  0.00000000000E+00  0.89648290293E+03  0.89648290293E+03  0.00000000000E+00 0. -1.
         -2   -1    0    0    0  501 -0.00000000000E+00 -0.00000000000E+00 -0.43918691842E+02  0.43918691842E+02  0.00000000000E+00 0.  1.
          6    1    1    2  502    0  0.77284004535E+02 -0.36230920528E+02  0.54483328636E+03  0.57767880945E+03  0.17200000000E+03 0. -1.
         -6    1    1    2    0  501 -0.77284004535E+02  0.36230920528E+02  0.30773092473E+03  0.36272278533E+03  0.17200000000E+03 0. -1.
<mgrwt>
<rscale>  2 0.19201431E+03</rscale>
<asrwt>0</asrwt>
<pdfrwt beam="1">  1        2 0.22412067E+00 0.19201431E+03</pdfrwt>
<pdfrwt beam="2">  1       -2 0.10979676E-01 0.19201431E+03</pdfrwt>
<totfact> 0.83068592E+02</totfact>
</mgrwt>
</event>
<event>
 4    1  0.3757815E-001  0.1825435E+03  0.7546771E-02  0.1165364E+00
          1   -1    0    0  502    0  0.00000000000E+00  0.00000000000E+00  0.29471400841E+03  0.29471400841E+03  0.00000000000E+00 0. -1.
         -1   -1    0    0    0  501 -0.00000000000E+00 -0.00000000000E+00 -0.12322048928E+03  0.12322048928E+03  0.00000000000E+00 0.  1.
          6    1    1    2  502    0  0.60983471843E+02  0.43773667421E+01  0.25758674631E+02  0.18435198533E+03  0.17200000000E+03 0.  1.
         -6    1    1    2    0  501 -0.60983471843E+02 -0.43773667421E+01  0.14573484450E+03  0.23358251236E+03  0.17200000000E+03 0. -1.
<mgrwt>
<rscale>  2 0.18254354E+03</rscale>
<asrwt>0</asrwt>
<pdfrwt beam="1">  1        1 0.73678501E-01 0.18254354E+03</pdfrwt>
<pdfrwt beam="2">  1       -1 0.30805123E-01 0.18254354E+03</pdfrwt>
<totfact> 0.47202274E+02</totfact>
</mgrwt>
</event>
<event>
 4    1  0.3757815E-001  0.3823719E+03  0.7546771E-02  0.1050061E+00
          2   -1    0    0  502    0  0.00000000000E+00  0.00000000000E+00  0.11888252495E+04  0.11888252495E+04  0.00000000000E+00 0. -1.
         -2   -1    0    0    0  501 -0.00000000000E+00 -0.00000000000E+00 -0.12469050562E+03  0.12469050562E+03  0.00000000000E+00 0.  1.
          6    1    1    2  502    0  0.18233586840E+03 -0.28875232743E+03  0.45526923726E+03  0.59454045606E+03  0.17200000000E+03 0. -1.
         -6    1    1    2    0  501 -0.18233586840E+03  0.28875232743E+03  0.60886550660E+03  0.71897529904E+03  0.17200000000E+03 0.  1.
<mgrwt>
<rscale>  2 0.38237191E+03</rscale>
<asrwt>0</asrwt>
<pdfrwt beam="1">  1        2 0.29720628E+00 0.38237191E+03</pdfrwt>
<pdfrwt beam="2">  1       -2 0.31172630E-01 0.38237191E+03</pdfrwt>
<totfact> 0.75538552E+01</totfact>
</mgrwt>
</event>
<event>
 4    1  0.3757815E-001  0.2784393E+03  0.7546771E-02  0.1096544E+00
         -1   -1    0    0    0  501 -0.00000000000E+00  0.00000000000E+00  0.22112521652E+03  0.22112521652E+03  0.00000000000E+00 0. -1.
          1   -1    0    0  502    0  0.00000000000E+00 -0.00000000000E+00 -0.35062252115E+03  0.35062252115E+03  0.00000000000E+00 0.  1.
          6    1    1    2  502    0  0.13301897755E+03  0.17392641975E+03 -0.66536678438E+02  0.28627884562E+03  0.17200000000E+03 0. -1.
         -6    1    1    2    0  501 -0.13301897755E+03 -0.17392641975E+03 -0.62960626191E+02  0.28546889204E+03  0.17200000000E+03 0.  1.
<mgrwt>
<rscale>  2 0.27843931E+03</rscale>
<asrwt>0</asrwt>
<pdfrwt beam="1">  1        1 0.87655630E-01 0.27843931E+03</pdfrwt>
<pdfrwt beam="2">  1       -1 0.55281305E-01 0.27843931E+03</pdfrwt>
<totfact> 0.12992387E+02</totfact>
</mgrwt>
</event>
<event>
 4    1  0.3757815E-001  0.2201828E+03  0.7546771E-02  0.1133747E+00
          2   -1    0    0  502    0  0.00000000000E+00  0.00000000000E+00  0.26396935677E+03  0.26396935677E+03  0.00000000000E+00 0. -1.
         -2   -1    0    0    0  501 -0.00000000000E+00 -0.00000000000E+00 -0.21260218137E+03  0.21260218137E+03  0.00000000000E+00 0.  1.
          6    1    1    2  502    0  0.11613524462E+03 -0.73546386294E+02 -0.62235673616E+02  0.22880940770E+03  0.17200000000E+03 0.  1.
         -6    1    1    2    0  501 -0.11613524462E+03  0.73546386294E+02  0.11360284902E+03  0.24776213045E+03  0.17200000000E+03 0.  1.
<mgrwt>
<rscale>  2 0.22018280E+03</rscale>
<asrwt>0</asrwt>
<pdfrwt beam="1">  1        2 0.65992339E-01 0.22018280E+03</pdfrwt>
<pdfrwt beam="2">  1       -2 0.53150546E-01 0.22018280E+03</pdfrwt>
<totfact> 0.25376159E+02</totfact>
</mgrwt>
</event>
<event>
 4    1  0.3757815E-001  0.1976605E+03  0.7546771E-02  0.1151728E+00
          2   -1    0    0  502    0  0.00000000000E+00  0.00000000000E+00  0.12235736636E+04  0.12235736636E+04  0.00000000000E+00 0. -1.
         -2   -1    0    0    0  501 -0.00000000000E+00 -0.00000000000E+00 -0.39646458439E+02  0.39646458439E+02  0.00000000000E+00 0.  1.
          6    1    1    2  502    0 -0.93771272287E+02  0.26318020761E+02  0.87059705103E+03  0.89275355781E+03  0.17200000000E+03 0. -1.
         -6    1    1    2    0  501  0.93771272287E+02 -0.26318020761E+02  0.31333015414E+03  0.37046656424E+03  0.17200000000E+03 0.  1.
<mgrwt>
<rscale>  2 0.19766054E+03</rscale>
<asrwt>0</asrwt>
<pdfrwt beam="1">  1        2 0.30589329E+00 0.19766054E+03</pdfrwt>
<pdfrwt beam="2">  1       -2 0.99116187E-02 0.19766054E+03</pdfrwt>
<totfact> 0.51561531E+02</totfact>
</mgrwt>
</event>
<event>
 4    1  0.3757815E-001  0.1745153E+03  0.7546771E-02  0.1173219E+00
          2   -1    0    0  502    0  0.00000000000E+00  0.00000000000E+00  0.13948316694E+04  0.13948316694E+04  0.00000000000E+00 0.  1.
         -2   -1    0    0    0  501 -0.00000000000E+00 -0.00000000000E+00 -0.21867418055E+02  0.21867418055E+02  0.00000000000E+00 0. -1.
          6    1    1    2  502    0  0.12996474060E+02  0.26508412602E+02  0.65904459713E+03  0.68175903755E+03  0.17200000000E+03 0.  1.
         -6    1    1    2    0  501 -0.12996474060E+02 -0.26508412602E+02  0.71391965420E+03  0.73494004989E+03  0.17200000000E+03 0. -1.
<mgrwt>
<rscale>  2 0.17451534E+03</rscale>
<asrwt>0</asrwt>
<pdfrwt beam="1">  1        2 0.34870762E+00 0.17451534E+03</pdfrwt>
<pdfrwt beam="2">  1       -2 0.54668592E-02 0.17451534E+03</pdfrwt>
<totfact> 0.93183768E+02</totfact>
</mgrwt>
</event>
<event>
 4    1  0.3757815E-001  0.3267964E+03  0.7546771E-02  0.1072563E+00
          2   -1    0    0  502    0  0.00000000000E+00  0.00000000000E+00  0.23063323300E+03  0.23063323300E+03  0.00000000000E+00 0.  1.
         -2   -1    0    0    0  501 -0.00000000000E+00 -0.00000000000E+00 -0.61018290234E+03  0.61018290234E+03  0.00000000000E+00 0. -1.
          6    1    1    2  502    0  0.56693859588E+02  0.27202515774E+03 -0.39621228755E+03  0.51359522677E+03  0.17200000000E+03 0. -1.
         -6    1    1    2    0  501 -0.56693859588E+02 -0.27202515774E+03  0.16662618210E+02  0.32722090857E+03  0.17200000000E+03 0.  1.
<mgrwt>
<rscale>  2 0.32679639E+03</rscale>
<asrwt>0</asrwt>
<pdfrwt beam="1">  1        2 0.57658309E-01 0.32679639E+03</pdfrwt>
<pdfrwt beam="2">  1       -2 0.15254572E+00 0.32679639E+03</pdfrwt>
<totfact> 0.26043246E+01</totfact>
</mgrwt>
</event>
<event>
 4    1  0.3757815E-001  0.2155636E+03  0.7546771E-02  0.1137234E+00
          2   -1    0    0  502    0  0.00000000000E+00  0.00000000000E+00  0.26026105246E+03  0.26026105246E+03  0.00000000000E+00 0.  1.
         -2   -1    0    0    0  501 -0.00000000000E+00 -0.00000000000E+00 -0.29022748319E+03  0.29022748319E+03  0.00000000000E+00 0. -1.
          6    1    1    2  502    0 -0.24216525603E+02 -0.12766060957E+03 -0.18572755466E+03  0.28453891809E+03  0.17200000000E+03 0.  1.
         -6    1    1    2    0  501  0.24216525603E+02  0.12766060957E+03  0.15576112393E+03  0.26594961755E+03  0.17200000000E+03 0. -1.
<mgrwt>
<rscale>  2 0.21556361E+03</rscale>
<asrwt>0</asrwt>
<pdfrwt beam="1">  1        2 0.65065263E-01 0.21556361E+03</pdfrwt>
<pdfrwt beam="2">  1       -2 0.72556871E-01 0.21556361E+03</pdfrwt>
<totfact> 0.13464291E+02</totfact>
</mgrwt>
</event>
<event>
 4    1  0.3757815E-001  0.1779979E+03  0.7546771E-02  0.1169755E+00
         -2   -1    0    0    0  501 -0.00000000000E+00  0.00000000000E+00  0.67901713296E+02  0.67901713296E+02  0.00000000000E+00 0. -1.
          2   -1    0    0  502    0  0.00000000000E+00 -0.00000000000E+00 -0.50444430603E+03  0.50444430603E+03  0.00000000000E+00 0.  1.
          6    1    1    2  502    0 -0.16295629780E+01  0.45788531752E+02 -0.29664971526E+03  0.34595418581E+03  0.17200000000E+03 0.  1.
         -6    1    1    2    0  501  0.16295629780E+01 -0.45788531752E+02 -0.13989287748E+03  0.22639183352E+03  0.17200000000E+03 0. -1.
<mgrwt>
<rscale>  2 0.17799788E+03</rscale>
<asrwt>0</asrwt>
<pdfrwt beam="1">  1        2 0.12611108E+00 0.17799788E+03</pdfrwt>
<pdfrwt beam="2">  1       -2 0.16975428E-01 0.17799788E+03</pdfrwt>
<totfact> 0.95956100E+02</totfact>
</mgrwt>
</event>
<event>
 4    1  0.3757815E-001  0.2132142E+03  0.7546771E-02  0.1139046E+00
          2   -1    0    0  502    0  0.00000000000E+00  0.00000000000E+00  0.11584597042E+04  0.11584597042E+04  0.00000000000E+00 0.  1.
         -2   -1    0    0    0  501 -0.00000000000E+00 -0.00000000000E+00 -0.46826050507E+02  0.46826050507E+02  0.00000000000E+00 0. -1.
          6    1    1    2  502    0  0.91040069991E+02 -0.87109186386E+02  0.79834721141E+03  0.82632836976E+03  0.17200000000E+03 0. -1.
         -6    1    1    2    0  501 -0.91040069991E+02  0.87109186386E+02  0.31328644233E+03  0.37895738500E+03  0.17200000000E+03 0.  1.
<mgrwt>
<rscale>  2 0.21321422E+03</rscale>
<asrwt>0</asrwt>
<pdfrwt beam="1">  1        2 0.28961483E+00 0.21321422E+03</pdfrwt>
<pdfrwt beam="2">  1       -2 0.11706516E-01 0.21321422E+03</pdfrwt>
<totfact> 0.44712542E+02</totfact>
</mgrwt>
</event>
<event>
 4    1  0.3757815E-001  0.1899646E+03  0.7546771E-02  0.1158493E+00
          2   -1    0    0  502    0  0.00000000000E+00  0.00000000000E+00  0.79211818408E+02  0.79211818408E+02  0.00000000000E+00 0. -1.
         -2   -1    0    0    0  501 -0.00000000000E+00 -0.00000000000E+00 -0.47910552879E+03  0.47910552879E+03  0.00000000000E+00 0.  1.
          6    1    1    2  502    0 -0.78740868384E+02  0.17390351377E+02 -0.26181899270E+03  0.32347447135E+03  0.17200000000E+03 0.  1.
         -6    1    1    2    0  501  0.78740868384E+02 -0.17390351377E+02 -0.13807471768E+03  0.23484287585E+03  0.17200000000E+03 0. -1.
<mgrwt>
<rscale>  2 0.18996460E+03</rscale>
<asrwt>0</asrwt>
<pdfrwt beam="1">  1        2 0.19802955E-01 0.18996460E+03</pdfrwt>
<pdfrwt beam="2">  1       -2 0.11977638E+00 0.18996460E+03</pdfrwt>
<totfact> 0.15787275E+02</totfact>
</mgrwt>
</event>
<event>
 4    1  0.3757815E-001  0.2068191E+03  0.7546771E-02  0.1144110E+00
          2   -1    0    0  502    0  0.00000000000E+00  0.00000000000E+00  0.80267627553E+03  0.80267627553E+03  0.00000000000E+00 0. -1.
         -2   -1    0    0    0  501 -0.00000000000E+00 -0.00000000000E+00 -0.55624072179E+02  0.55624072179E+02  0.00000000000E+00 0.  1.
          6    1    1    2  502    0 -0.11225237351E+03  0.24280167191E+02  0.28560510091E+03  0.35262500697E+03  0.17200000000E+03 0. -1.
         -6    1    1    2    0  501  0.11225237351E+03 -0.24280167191E+02  0.46144710244E+03  0.50567534074E+03  0.17200000000E+03 0. -1.
<mgrwt>
<rscale>  2 0.20681906E+03</rscale>
<asrwt>0</asrwt>
<pdfrwt beam="1">  1        2 0.20066903E+00 0.20681906E+03</pdfrwt>
<pdfrwt beam="2">  1       -2 0.13906021E-01 0.20681906E+03</pdfrwt>
<totfact> 0.68414366E+02</totfact>
</mgrwt>
</event>
<event>
 4    1  0.3757815E-001  0.2478809E+03  0.7546771E-02  0.1114651E+00
         -2   -1    0    0    0  501 -0.00000000000E+00  0.00000000000E+00  0.90770515735E+03  0.90770515735E+03  0.00000000000E+00 0.  1.
          2   -1    0    0  502    0  0.00000000000E+00 -0.00000000000E+00 -0.86835678264E+02  0.86835678264E+02  0.00000000000E+00 0. -1.
          6    1    1    2  502    0  0.14677697196E+03 -0.10157501532E+03  0.64391431642E+03  0.68997870266E+03  0.17200000000E+03 0. -1.
         -6    1    1    2    0  501 -0.14677697196E+03  0.10157501532E+03  0.17695516267E+03  0.30456213295E+03  0.17200000000E+03 0. -1.
<mgrwt>
<rscale>  2 0.24788095E+03</rscale>
<asrwt>0</asrwt>
<pdfrwt beam="1">  1        2 0.21708922E-01 0.24788095E+03</pdfrwt>
<pdfrwt beam="2">  1       -2 0.22692626E+00 0.24788095E+03</pdfrwt>
<totfact> 0.25069982E+01</totfact>
</mgrwt>
</event>
<event>
 4    1  0.3757815E-001  0.2134303E+03  0.7546771E-02  0.1138878E+00
          2   -1    0    0  502    0  0.00000000000E+00  0.00000000000E+00  0.26535942511E+03  0.26535942511E+03  0.00000000000E+00 0.  1.
         -2   -1    0    0    0  501 -0.00000000000E+00 -0.00000000000E+00 -0.18338127314E+03  0.18338127314E+03  0.00000000000E+00 0. -1.
          6    1    1    2  502    0 -0.59300105408E+02 -0.11158843444E+03 -0.15727990460E+02  0.21400899721E+03  0.17200000000E+03 0.  1.
         -6    1    1    2    0  501  0.59300105408E+02  0.11158843444E+03  0.97706142435E+02  0.23473170104E+03  0.17200000000E+03 0. -1.
<mgrwt>
<rscale>  2 0.21343027E+03</rscale>
<asrwt>0</asrwt>
<pdfrwt beam="1">  1        2 0.66339856E-01 0.21343027E+03</pdfrwt>
<pdfrwt beam="2">  1       -2 0.45845319E-01 0.21343027E+03</pdfrwt>
<totfact> 0.33875421E+02</totfact>
</mgrwt>
</event>
<event>
 4    1  0.3757815E-001  0.1734631E+03  0.7546771E-02  0.1174284E+00
          1   -1    0    0  502    0  0.00000000000E+00  0.00000000000E+00  0.43960514204E+02  0.43960514204E+02  0.00000000000E+00 0. -1.
         -1   -1    0    0    0  501 -0.00000000000E+00 -0.00000000000E+00 -0.81589039220E+03  0.81589039220E+03  0.00000000000E+00 0.  1.
          6    1    1    2  502    0  0.20612424873E+02  0.89771637509E+01 -0.21341459469E+03  0.27501863710E+03  0.17200000000E+03 0. -1.
         -6    1    1    2    0  501 -0.20612424873E+02 -0.89771637509E+01 -0.55851528331E+03  0.58483226931E+03  0.17200000000E+03 0.  1.
<mgrwt>
<rscale>  2 0.17346314E+03</rscale>
<asrwt>0</asrwt>
<pdfrwt beam="1">  1        1 0.10990129E-01 0.17346314E+03</pdfrwt>
<pdfrwt beam="2">  1       -1 0.20397259E+00 0.17346314E+03</pdfrwt>
<totfact> 0.90402564E+01</totfact>
</mgrwt>
</event>
<event>
 4    1  0.3757815E-001  0.1807757E+03  0.7546771E-02  0.1167054E+00
         -2   -1    0    0    0  501 -0.00000000000E+00  0.00000000000E+00  0.32835544005E+02  0.32835544005E+02  0.00000000000E+00 0. -1.
          2   -1    0    0  502    0  0.00000000000E+00 -0.00000000000E+00 -0.12639905840E+04  0.12639905840E+04  0.00000000000E+00 0.  1.
          6    1    1    2  502    0 -0.56958472949E+00  0.55637588465E+02 -0.91455557781E+03  0.93225091611E+03  0.17200000000E+03 0.  1.
         -6    1    1    2    0  501  0.56958472949E+00 -0.55637588465E+02 -0.31659946220E+03  0.36457521191E+03  0.17200000000E+03 0.  1.
<mgrwt>
<rscale>  2 0.18077573E+03</rscale>
<asrwt>0</asrwt>
<pdfrwt beam="1">  1        2 0.31599763E+00 0.18077573E+03</pdfrwt>
<pdfrwt beam="2">  1       -2 0.82088864E-02 0.18077573E+03</pdfrwt>
<totfact> 0.64337819E+02</totfact>
</mgrwt>
</event>
<event>
 4    1  0.3757815E-001  0.1783268E+03  0.7546771E-02  0.1169432E+00
         -1   -1    0    0    0  501 -0.00000000000E+00  0.00000000000E+00  0.63463244613E+02  0.63463244613E+02  0.00000000000E+00 0. -1.
          1   -1    0    0  502    0  0.00000000000E+00 -0.00000000000E+00 -0.62992328561E+03  0.62992328561E+03  0.00000000000E+00 0.  1.
          6    1    1    2  502    0 -0.25071663745E+02  0.39847903503E+02 -0.44002241893E+03  0.47478434357E+03  0.17200000000E+03 0. -1.
         -6    1    1    2    0  501  0.25071663745E+02 -0.39847903503E+02 -0.12643762207E+03  0.21860218666E+03  0.17200000000E+03 0. -1.
<mgrwt>
<rscale>  2 0.17832679E+03</rscale>
<asrwt>0</asrwt>
<pdfrwt beam="1">  1        1 0.15748082E+00 0.17832679E+03</pdfrwt>
<pdfrwt beam="2">  1       -1 0.15865812E-01 0.17832679E+03</pdfrwt>
<totfact> 0.45820538E+02</totfact>
</mgrwt>
</event>
<event>
 4    1  0.3757815E-001  0.1787243E+03  0.7546771E-02  0.1169043E+00
         -2   -1    0    0    0  501 -0.00000000000E+00  0.00000000000E+00  0.19078213052E+03  0.19078213052E+03  0.00000000000E+00 0.  1.
          2   -1    0    0  502    0  0.00000000000E+00 -0.00000000000E+00 -0.21266900047E+03  0.21266900047E+03  0.00000000000E+00 0. -1.
          6    1    1    2  502    0  0.42608257866E+02 -0.23300303487E+02  0.82097164644E+02  0.19667819458E+03  0.17200000000E+03 0.  1.
         -6    1    1    2    0  501 -0.42608257866E+02  0.23300303487E+02 -0.10398403460E+03  0.20677293641E+03  0.17200000000E+03 0. -1.
<mgrwt>
<rscale>  2 0.17872428E+03</rscale>
<asrwt>0</asrwt>
<pdfrwt beam="1">  1        2 0.53167250E-01 0.17872428E+03</pdfrwt>
<pdfrwt beam="2">  1       -2 0.47695533E-01 0.17872428E+03</pdfrwt>
<totfact> 0.39862975E+02</totfact>
</mgrwt>
</event>
<event>
 4    1  0.3757815E-001  0.2053257E+03  0.7546771E-02  0.1145322E+00
         -1   -1    0    0    0  501 -0.00000000000E+00  0.00000000000E+00  0.17608038318E+03  0.17608038318E+03  0.00000000000E+00 0.  1.
          1   -1    0    0  502    0  0.00000000000E+00 -0.00000000000E+00 -0.23962387444E+03  0.23962387444E+03  0.00000000000E+00 0. -1.
          6    1    1    2  502    0 -0.76646228755E+02 -0.81853537104E+02 -0.37708169942E+02  0.20875955547E+03  0.17200000000E+03 0. -1.
         -6    1    1    2    0  501  0.76646228755E+02  0.81853537104E+02 -0.25835321320E+02  0.20694470215E+03  0.17200000000E+03 0.  1.
<mgrwt>
<rscale>  2 0.20532571E+03</rscale>
<asrwt>0</asrwt>
<pdfrwt beam="1">  1        1 0.59905968E-01 0.20532571E+03</pdfrwt>
<pdfrwt beam="2">  1       -1 0.44020096E-01 0.20532571E+03</pdfrwt>
<totfact> 0.32990971E+02</totfact>
</mgrwt>
</event>
<event>
 4    1  0.3757815E-001  0.1975754E+03  0.7546771E-02  0.1151801E+00
          1   -1    0    0  502    0  0.00000000000E+00  0.00000000000E+00  0.28034175787E+03  0.28034175787E+03  0.00000000000E+00 0.  1.
         -1   -1    0    0    0  501 -0.00000000000E+00 -0.00000000000E+00 -0.14774969747E+03  0.14774969747E+03  0.00000000000E+00 0. -1.
          6    1    1    2  502    0 -0.96883072198E+02 -0.81056496575E+01  0.11765153262E+03  0.22995198273E+03  0.17200000000E+03 0.  1.
         -6    1    1    2    0  501  0.96883072198E+02  0.81056496575E+01  0.14940527774E+02  0.19813947261E+03  0.17200000000E+03 0.  1.
<mgrwt>
<rscale>  2 0.19757538E+03</rscale>
<asrwt>0</asrwt>
<pdfrwt beam="1">  1        1 0.70085439E-01 0.19757538E+03</pdfrwt>
<pdfrwt beam="2">  1       -1 0.36937425E-01 0.19757538E+03</pdfrwt>
<totfact> 0.36819613E+02</totfact>
</mgrwt>
</event>
<event>
 4    1  0.3757815E-001  0.1976200E+03  0.7546771E-02  0.1151763E+00
          2   -1    0    0  502    0  0.00000000000E+00  0.00000000000E+00  0.96161704968E+02  0.96161704968E+02  0.00000000000E+00 0.  1.
         -2   -1    0    0    0  501 -0.00000000000E+00 -0.00000000000E+00 -0.45988042083E+03  0.45988042083E+03  0.00000000000E+00 0. -1.
          6    1    1    2  502    0 -0.95546995742E+02  0.18450878826E+02 -0.27691256071E+03  0.34019733921E+03  0.17200000000E+03 0. -1.
         -6    1    1    2    0  501  0.95546995742E+02 -0.18450878826E+02 -0.86806155144E+02  0.21584478658E+03  0.17200000000E+03 0.  1.
<mgrwt>
<rscale>  2 0.19762000E+03</rscale>
<asrwt>0</asrwt>
<pdfrwt beam="1">  1        2 0.24040426E-01 0.19762000E+03</pdfrwt>
<pdfrwt beam="2">  1       -2 0.11497010E+00 0.19762000E+03</pdfrwt>
<totfact> 0.13983589E+02</totfact>
</mgrwt>
</event>
<event>
 4    1  0.3757815E-001  0.3098820E+03  0.7546771E-02  0.1080402E+00
         -2   -1    0    0    0  501 -0.00000000000E+00  0.00000000000E+00  0.26016192030E+03  0.26016192030E+03  0.00000000000E+00 0. -1.
          2   -1    0    0  502    0  0.00000000000E+00 -0.00000000000E+00 -0.41502503885E+03  0.41502503885E+03  0.00000000000E+00 0.  1.
          6    1    1    2  502    0  0.21817432755E+03  0.13726902770E+03 -0.18972707917E+03  0.36334995217E+03  0.17200000000E+03 0.  1.
         -6    1    1    2    0  501 -0.21817432755E+03 -0.13726902770E+03  0.34863960616E+02  0.31183700698E+03  0.17200000000E+03 0. -1.
<mgrwt>
<rscale>  2 0.30988195E+03</rscale>
<asrwt>0</asrwt>
<pdfrwt beam="1">  1        2 0.10375626E+00 0.30988195E+03</pdfrwt>
<pdfrwt beam="2">  1       -2 0.65040480E-01 0.30988195E+03</pdfrwt>
<totfact> 0.98589744E+01</totfact>
</mgrwt>
</event>
<event>
 4    1  0.3757815E-001  0.2760197E+03  0.7546771E-02  0.1097883E+00
          1   -1    0    0  502    0  0.00000000000E+00  0.00000000000E+00  0.19365498727E+03  0.19365498727E+03  0.00000000000E+00 0. -1.
         -1   -1    0    0    0  501 -0.00000000000E+00 -0.00000000000E+00 -0.43283022748E+03  0.43283022748E+03  0.00000000000E+00 0.  1.
          6    1    1    2  502    0 -0.21461165873E+03 -0.23339056136E+02 -0.25061627378E+02  0.27715512041E+03  0.17200000000E+03 0.  1.
         -6    1    1    2    0  501  0.21461165873E+03  0.23339056136E+02 -0.21411361284E+03  0.34933009433E+03  0.17200000000E+03 0. -1.
<mgrwt>
<rscale>  2 0.27601970E+03</rscale>
<asrwt>0</asrwt>
<pdfrwt beam="1">  1        1 0.48413747E-01 0.27601970E+03</pdfrwt>
<pdfrwt beam="2">  1       -1 0.10820756E+00 0.27601970E+03</pdfrwt>
<totfact> 0.70171509E+01</totfact>
</mgrwt>
</event>
<event>
 4    1  0.3757815E-001  0.1909805E+03  0.7546771E-02  0.1157580E+00
         -1   -1    0    0    0  501 -0.00000000000E+00  0.00000000000E+00  0.10250383876E+03  0.10250383876E+03  0.00000000000E+00 0. -1.
          1   -1    0    0  502    0  0.00000000000E+00 -0.00000000000E+00 -0.36211138540E+03  0.36211138540E+03  0.00000000000E+00 0.  1.
          6    1    1    2  502    0  0.81731234540E+02  0.14476550142E+02 -0.99198465308E+02  0.21520664656E+03  0.17200000000E+03 0.  1.
         -6    1    1    2    0  501 -0.81731234540E+02 -0.14476550142E+02 -0.16040908134E+03  0.24940857760E+03  0.17200000000E+03 0.  1.
<mgrwt>
<rscale>  2 0.19098054E+03</rscale>
<asrwt>0</asrwt>
<pdfrwt beam="1">  1        1 0.90527845E-01 0.19098054E+03</pdfrwt>
<pdfrwt beam="2">  1       -1 0.25625960E-01 0.19098054E+03</pdfrwt>
<totfact> 0.48801443E+02</totfact>
</mgrwt>
</event>
<event>
 4    1  0.3757815E-001  0.1901281E+03  0.7546771E-02  0.1158346E+00
          2   -1    0    0  502    0  0.00000000000E+00  0.00000000000E+00  0.16619444231E+04  0.16619444231E+04  0.00000000000E+00 0. -1.
         -2   -1    0    0    0  501 -0.00000000000E+00 -0.00000000000E+00 -0.26461560865E+02  0.26461560865E+02  0.00000000000E+00 0.  1.
          6    1    1    2  502    0 -0.59883211863E+02 -0.54577546927E+02  0.11739318852E+04  0.11892286486E+04  0.17200000000E+03 0.  1.
         -6    1    1    2    0  501  0.59883211863E+02  0.54577546927E+02  0.46155097711E+03  0.49917733539E+03  0.17200000000E+03 0.  1.
<mgrwt>
<rscale>  2 0.19012813E+03</rscale>
<asrwt>0</asrwt>
<pdfrwt beam="1">  1        2 0.41548575E+00 0.19012813E+03</pdfrwt>
<pdfrwt beam="2">  1       -2 0.66153958E-02 0.19012813E+03</pdfrwt>
<totfact> 0.40426035E+02</totfact>
</mgrwt>
</event>
<event>
 4    1  0.3757815E-001  0.1752309E+03  0.7546771E-02  0.1172500E+00
          3   -1    0    0  502    0  0.00000000000E+00  0.00000000000E+00  0.76118260395E+02  0.76118260395E+02  0.00000000000E+00 0.  1.
         -3   -1    0    0    0  501 -0.00000000000E+00 -0.00000000000E+00 -0.40362011369E+03  0.40362011369E+03  0.00000000000E+00 0. -1.
          6    1    1    2  502    0 -0.22130063047E+02  0.25142216760E+02 -0.15811010485E+03  0.23601838066E+03  0.17200000000E+03 0. -1.
         -6    1    1    2    0  501  0.22130063047E+02 -0.25142216760E+02 -0.16939174845E+03  0.24371999343E+03  0.17200000000E+03 0. -1.
<mgrwt>
<rscale>  2 0.17523091E+03</rscale>
<asrwt>0</asrwt>
<pdfrwt beam="1">  1        3 0.19029565E-01 0.17523091E+03</pdfrwt>
<pdfrwt beam="2">  1       -3 0.10090503E+00 0.17523091E+03</pdfrwt>
<totfact> 0.52508937E+01</totfact>
</mgrwt>
</event>
<event>
 4    1  0.3757815E-001  0.2230870E+03  0.7546771E-02  0.1131602E+00
         -1   -1    0    0    0  501 -0.00000000000E+00  0.00000000000E+00  0.13849295069E+03  0.13849295069E+03  0.00000000000E+00 0.  1.
          1   -1    0    0  502    0  0.00000000000E+00 -0.00000000000E+00 -0.39517160080E+03  0.39517160080E+03  0.00000000000E+00 0. -1.
          6    1    1    2  502    0  0.13036733580E+03 -0.56463768124E+02 -0.20867387081E+03  0.30547108490E+03  0.17200000000E+03 0. -1.
         -6    1    1    2    0  501 -0.13036733580E+03  0.56463768124E+02 -0.48004779305E+02  0.22819346658E+03  0.17200000000E+03 0. -1.
<mgrwt>
<rscale>  2 0.22308698E+03</rscale>
<asrwt>0</asrwt>
<pdfrwt beam="1">  1        1 0.98792899E-01 0.22308698E+03</pdfrwt>
<pdfrwt beam="2">  1       -1 0.34623238E-01 0.22308698E+03</pdfrwt>
<totfact> 0.25850543E+02</totfact>
</mgrwt>
</event>
<event>
 4    1  0.3757815E-001  0.1826466E+03  0.7546771E-02  0.1165266E+00
         -2   -1    0    0    0  501 -0.00000000000E+00  0.00000000000E+00  0.11328158398E+03  0.11328158398E+03  0.00000000000E+00 0. -1.
          2   -1    0    0  502    0  0.00000000000E+00 -0.00000000000E+00 -0.31929121043E+03  0.31929121043E+03  0.00000000000E+00 0.  1.
          6    1    1    2  502    0  0.60796698790E+02  0.89177415472E+01 -0.42719288794E+02  0.18757585754E+03  0.17200000000E+03 0.  1.
         -6    1    1    2    0  501 -0.60796698790E+02 -0.89177415472E+01 -0.16329033766E+03  0.24499693686E+03  0.17200000000E+03 0.  1.
<mgrwt>
<rscale>  2 0.18264656E+03</rscale>
<asrwt>0</asrwt>
<pdfrwt beam="1">  1        2 0.79822802E-01 0.18264656E+03</pdfrwt>
<pdfrwt beam="2">  1       -2 0.28320396E-01 0.18264656E+03</pdfrwt>
<totfact> 0.68099798E+02</totfact>
</mgrwt>
</event>
<event>
 4    1  0.3757815E-001  0.1898363E+03  0.7546771E-02  0.1158609E+00
         -1   -1    0    0    0  501 -0.00000000000E+00  0.00000000000E+00  0.10583841074E+03  0.10583841074E+03  0.00000000000E+00 0.  1.
          1   -1    0    0  502    0  0.00000000000E+00 -0.00000000000E+00 -0.74463897281E+03  0.74463897281E+03  0.00000000000E+00 0. -1.
          6    1    1    2  502    0  0.65306607073E+02  0.46785443707E+02 -0.63267547755E+03  0.66054227008E+03  0.17200000000E+03 0. -1.
         -6    1    1    2    0  501 -0.65306607073E+02 -0.46785443707E+02 -0.61250845159E+01  0.18993511347E+03  0.17200000000E+03 0.  1.
<mgrwt>
<rscale>  2 0.18983633E+03</rscale>
<asrwt>0</asrwt>
<pdfrwt beam="1">  1        1 0.18615974E+00 0.18983633E+03</pdfrwt>
<pdfrwt beam="2">  1       -1 0.26459604E-01 0.18983633E+03</pdfrwt>
<totfact> 0.14696082E+02</totfact>
</mgrwt>
</event>
<event>
 4    1  0.3757815E-001  0.2305266E+03  0.7546771E-02  0.1126270E+00
          1   -1    0    0  502    0  0.00000000000E+00  0.00000000000E+00  0.39709917879E+03  0.39709917879E+03  0.00000000000E+00 0. -1.
         -1   -1    0    0    0  501 -0.00000000000E+00 -0.00000000000E+00 -0.13737597119E+03  0.13737597119E+03  0.00000000000E+00 0.  1.
          6    1    1    2  502    0 -0.24583929411E+02 -0.15150627984E+03  0.86907559406E+02  0.24636445827E+03  0.17200000000E+03 0. -1.
         -6    1    1    2    0  501  0.24583929411E+02  0.15150627984E+03  0.17281564820E+03  0.28811069171E+03  0.17200000000E+03 0. -1.
<mgrwt>
<rscale>  2 0.23052662E+03</rscale>
<asrwt>0</asrwt>
<pdfrwt beam="1">  1        1 0.99274792E-01 0.23052662E+03</pdfrwt>
<pdfrwt beam="2">  1       -1 0.34343994E-01 0.23052662E+03</pdfrwt>
<totfact> 0.26010190E+02</totfact>
</mgrwt>
</event>
<event>
 4    1  0.3757815E-001  0.2884859E+03  0.7546771E-02  0.1091142E+00
         -2   -1    0    0    0  501 -0.00000000000E+00  0.00000000000E+00  0.12633598193E+03  0.12633598193E+03  0.00000000000E+00 0.  1.
          2   -1    0    0  502    0  0.00000000000E+00 -0.00000000000E+00 -0.78825126729E+03  0.78825126729E+03  0.00000000000E+00 0. -1.
          6    1    1    2  502    0  0.16343990311E+03  0.16409609831E+03 -0.14560627656E+03  0.32314906650E+03  0.17200000000E+03 0.  1.
         -6    1    1    2    0  501 -0.16343990311E+03 -0.16409609831E+03 -0.51630900881E+03  0.59143818272E+03  0.17200000000E+03 0. -1.
<mgrwt>
<rscale>  2 0.28848593E+03</rscale>
<asrwt>0</asrwt>
<pdfrwt beam="1">  1        2 0.19706281E+00 0.28848593E+03</pdfrwt>
<pdfrwt beam="2">  1       -2 0.31583996E-01 0.28848593E+03</pdfrwt>
<totfact> 0.16848819E+02</totfact>
</mgrwt>
</event>
<event>
 4    1  0.3757815E-001  0.2855708E+03  0.7546771E-02  0.1092685E+00
          2   -1    0    0  502    0  0.00000000000E+00  0.00000000000E+00  0.28716023330E+03  0.28716023330E+03  0.00000000000E+00 0. -1.
         -2   -1    0    0    0  501 -0.00000000000E+00 -0.00000000000E+00 -0.40690165439E+03  0.40690165439E+03  0.00000000000E+00 0.  1.
          6    1    1    2  502    0  0.19151804488E+03  0.12364260944E+03 -0.25060108969E+03  0.37993626115E+03  0.17200000000E+03 0.  1.
         -6    1    1    2    0  501 -0.19151804488E+03 -0.12364260944E+03  0.13085966860E+03  0.31412562654E+03  0.17200000000E+03 0. -1.
<mgrwt>
<rscale>  2 0.28557076E+03</rscale>
<asrwt>0</asrwt>
<pdfrwt beam="1">  1        2 0.71790059E-01 0.28557076E+03</pdfrwt>
<pdfrwt beam="2">  1       -2 0.10172541E+00 0.28557076E+03</pdfrwt>
<totfact> 0.55973564E+01</totfact>
</mgrwt>
</event>
<event>
 4    1  0.3757815E-001  0.1924355E+03  0.7546771E-02  0.1156283E+00
         -4   -1    0    0    0  501 -0.00000000000E+00  0.00000000000E+00  0.29574957399E+03  0.29574957399E+03  0.00000000000E+00 0. -1.
          4   -1    0    0  502    0  0.00000000000E+00 -0.00000000000E+00 -0.14950458299E+03  0.14950458299E+03  0.00000000000E+00 0.  1.
          6    1    1    2  502    0  0.10396624611E+02  0.85669976891E+02 -0.16617573757E+02  0.19315169816E+03  0.17200000000E+03 0.  1.
         -6    1    1    2    0  501 -0.10396624611E+02 -0.85669976891E+02  0.16286256476E+03  0.25210245882E+03  0.17200000000E+03 0. -1.
<mgrwt>
<rscale>  2 0.19243553E+03</rscale>
<asrwt>0</asrwt>
<pdfrwt beam="1">  1        4 0.37376146E-01 0.19243553E+03</pdfrwt>
<pdfrwt beam="2">  1       -4 0.73937393E-01 0.19243553E+03</pdfrwt>
<totfact> 0.20792181E+01</totfact>
</mgrwt>
</event>
<event>
 4    1  0.3757815E-001  0.1906297E+03  0.7546771E-02  0.1157895E+00
          3   -1    0    0  502    0  0.00000000000E+00  0.00000000000E+00  0.32815413992E+03  0.32815413992E+03  0.00000000000E+00 0. -1.
         -3   -1    0    0    0  501 -0.00000000000E+00 -0.00000000000E+00 -0.14649134395E+03  0.14649134395E+03  0.00000000000E+00 0.  1.
          6    1    1    2  502    0  0.64254366738E+02 -0.51254905627E+02 -0.26410116870E+02  0.19245046965E+03  0.17200000000E+03 0.  1.
         -6    1    1    2    0  501 -0.64254366738E+02  0.51254905627E+02  0.20807291283E+03  0.28219501422E+03  0.17200000000E+03 0. -1.
<mgrwt>
<rscale>  2 0.19062972E+03</rscale>
<asrwt>0</asrwt>
<pdfrwt beam="1">  1        3 0.82038534E-01 0.19062972E+03</pdfrwt>
<pdfrwt beam="2">  1       -3 0.36622837E-01 0.19062972E+03</pdfrwt>
<totfact> 0.25336098E+01</totfact>
</mgrwt>
</event>
<event>
 4    1  0.3757815E-001  0.2078821E+03  0.7546771E-02  0.1143254E+00
          1   -1    0    0  502    0  0.00000000000E+00  0.00000000000E+00  0.33453280600E+04  0.33453280600E+04  0.00000000000E+00 0. -1.
         -1   -1    0    0    0  501 -0.00000000000E+00 -0.00000000000E+00 -0.33413487157E+02  0.33413487157E+02  0.00000000000E+00 0.  1.
          6    1    1    2  502    0  0.69173168223E+02  0.94053393495E+02  0.33285587058E+03  0.39243852845E+03  0.17200000000E+03 0.  1.
         -6    1    1    2    0  501 -0.69173168223E+02 -0.94053393495E+02  0.29790587023E+04  0.29863030187E+04  0.17200000000E+03 0. -1.
<mgrwt>
<rscale>  2 0.20788210E+03</rscale>
<asrwt>0</asrwt>
<pdfrwt beam="1">  1        1 0.83633088E+00 0.20788210E+03</pdfrwt>
<pdfrwt beam="2">  1       -1 0.83533832E-02 0.20788210E+03</pdfrwt>
<totfact> 0.26370237E-01</totfact>
</mgrwt>
</event>
<event>
 4    1  0.3757815E-001  0.3032839E+03  0.7546771E-02  0.1083610E+00
         -1   -1    0    0    0  501 -0.00000000000E+00  0.00000000000E+00  0.10298645228E+03  0.10298645228E+03  0.00000000000E+00 0.  1.
          1   -1    0    0  502    0  0.00000000000E+00 -0.00000000000E+00 -0.13389036049E+04  0.13389036049E+04  0.00000000000E+00 0. -1.
          6    1    1    2  502    0  0.36605597587E+01 -0.24976733150E+03 -0.10339465233E+04  0.10775094118E+04  0.17200000000E+03 0. -1.
         -6    1    1    2    0  501 -0.36605597587E+01  0.24976733150E+03 -0.20197062931E+03  0.36438064532E+03  0.17200000000E+03 0.  1.
<mgrwt>
<rscale>  2 0.30328389E+03</rscale>
<asrwt>0</asrwt>
<pdfrwt beam="1">  1        1 0.33472590E+00 0.30328389E+03</pdfrwt>
<pdfrwt beam="2">  1       -1 0.25746613E-01 0.30328389E+03</pdfrwt>
<totfact> 0.34298406E+01</totfact>
</mgrwt>
</event>
<event>
 4    1  0.3757815E-001  0.2238244E+03  0.7546771E-02  0.1131064E+00
          1   -1    0    0  502    0  0.00000000000E+00  0.00000000000E+00  0.57773391107E+03  0.57773391107E+03  0.00000000000E+00 0.  1.
         -1   -1    0    0    0  501 -0.00000000000E+00 -0.00000000000E+00 -0.93240887839E+02  0.93240887839E+02  0.00000000000E+00 0. -1.
          6    1    1    2  502    0  0.13614882670E+03  0.44461671806E+02  0.33101154666E+03  0.39958226599E+03  0.17200000000E+03 0. -1.
         -6    1    1    2    0  501 -0.13614882670E+03 -0.44461671806E+02  0.15348147656E+03  0.27139253291E+03  0.17200000000E+03 0.  1.
<mgrwt>
<rscale>  2 0.22382436E+03</rscale>
<asrwt>0</asrwt>
<pdfrwt beam="1">  1        1 0.14443347E+00 0.22382436E+03</pdfrwt>
<pdfrwt beam="2">  1       -1 0.23310224E-01 0.22382436E+03</pdfrwt>
<totfact> 0.28291343E+02</totfact>
</mgrwt>
</event>
<event>
 4    1  0.3757815E-001  0.2257894E+03  0.7546771E-02  0.1129639E+00
         -2   -1    0    0    0  501 -0.00000000000E+00  0.00000000000E+00  0.48270118302E+02  0.48270118302E+02  0.00000000000E+00 0.  1.
          2   -1    0    0  502    0  0.00000000000E+00 -0.00000000000E+00 -0.11826596829E+04  0.11826596829E+04  0.00000000000E+00 0. -1.
          6    1    1    2  502    0 -0.14510989119E+03  0.18438217839E+02 -0.36590470277E+03  0.42996174238E+03  0.17200000000E+03 0.  1.
         -6    1    1    2    0  501  0.14510989119E+03 -0.18438217839E+02 -0.76848486186E+03  0.80096805885E+03  0.17200000000E+03 0. -1.
<mgrwt>
<rscale>  2 0.22578939E+03</rscale>
<asrwt>0</asrwt>
<pdfrwt beam="1">  1        2 0.29566493E+00 0.22578939E+03</pdfrwt>
<pdfrwt beam="2">  1       -2 0.12067529E-01 0.22578939E+03</pdfrwt>
<totfact> 0.40500120E+02</totfact>
</mgrwt>
</event>
<event>
 4    1  0.3757815E-001  0.3355303E+03  0.7546771E-02  0.1068716E+00
          1   -1    0    0  502    0  0.00000000000E+00  0.00000000000E+00  0.15080708115E+04  0.15080708115E+04  0.00000000000E+00 0. -1.
         -1   -1    0    0    0  501 -0.00000000000E+00 -0.00000000000E+00 -0.75943732868E+02  0.75943732868E+02  0.00000000000E+00 0.  1.
          6    1    1    2  502    0 -0.19123115940E+03 -0.21546974841E+03  0.61277262260E+03  0.69862068092E+03  0.17200000000E+03 0.  1.
         -6    1    1    2    0  501  0.19123115940E+03  0.21546974841E+03  0.81935445604E+03  0.88539386345E+03  0.17200000000E+03 0.  1.
<mgrwt>
<rscale>  2 0.33553028E+03</rscale>
<asrwt>0</asrwt>
<pdfrwt beam="1">  1        1 0.37701761E+00 0.33553028E+03</pdfrwt>
<pdfrwt beam="2">  1       -1 0.18985938E-01 0.33553028E+03</pdfrwt>
<totfact> 0.36996873E+01</totfact>
</mgrwt>
</event>
<event>
 4    1  0.3757815E-001  0.3383600E+03  0.7546771E-02  0.1067497E+00
         -2   -1    0    0    0  501 -0.00000000000E+00  0.00000000000E+00  0.34357413508E+03  0.34357413508E+03  0.00000000000E+00 0. -1.
          2   -1    0    0  502    0  0.00000000000E+00 -0.00000000000E+00 -0.43529494529E+03  0.43529494529E+03  0.00000000000E+00 0.  1.
          6    1    1    2  502    0  0.28915488055E+03 -0.35957162584E+02 -0.23443873030E+03  0.41164181122E+03  0.17200000000E+03 0. -1.
         -6    1    1    2    0  501 -0.28915488055E+03  0.35957162584E+02  0.14271792009E+03  0.36722726914E+03  0.17200000000E+03 0.  1.
<mgrwt>
<rscale>  2 0.33835996E+03</rscale>
<asrwt>0</asrwt>
<pdfrwt beam="1">  1        2 0.10882374E+00 0.33835996E+03</pdfrwt>
<pdfrwt beam="2">  1       -2 0.85893534E-01 0.33835996E+03</pdfrwt>
<totfact> 0.50403650E+01</totfact>
</mgrwt>
</event>
<event>
 4    1  0.3757815E-001  0.1738133E+03  0.7546771E-02  0.1173929E+00
          4   -1    0    0  502    0  0.00000000000E+00  0.00000000000E+00  0.42000080250E+03  0.42000080250E+03  0.00000000000E+00 0.  1.
         -4   -1    0    0    0  501 -0.00000000000E+00 -0.00000000000E+00 -0.79813803981E+02  0.79813803981E+02  0.00000000000E+00 0. -1.
          6    1    1    2  502    0  0.15459742001E+02  0.19699040186E+02  0.91555154476E+02  0.19645203516E+03  0.17200000000E+03 0. -1.
         -6    1    1    2    0  501 -0.15459742001E+02 -0.19699040186E+02  0.24863184404E+03  0.30336257132E+03  0.17200000000E+03 0.  1.
<mgrwt>
<rscale>  2 0.17381328E+03</rscale>
<asrwt>0</asrwt>
<pdfrwt beam="1">  1        4 0.10500019E+00 0.17381328E+03</pdfrwt>
<pdfrwt beam="2">  1       -4 0.19953452E-01 0.17381328E+03</pdfrwt>
<totfact> 0.30184188E+01</totfact>
</mgrwt>
</event>
<event>
 4    1  0.3757815E-001  0.1793482E+03  0.7546771E-02  0.1168435E+00
          2   -1    0    0  502    0  0.00000000000E+00  0.00000000000E+00  0.72910452396E+02  0.72910452396E+02  0.00000000000E+00 0.  1.
         -2   -1    0    0    0  501 -0.00000000000E+00 -0.00000000000E+00 -0.53240923566E+03  0.53240923566E+03  0.00000000000E+00 0. -1.
          6    1    1    2  502    0 -0.39092660210E+02  0.32458366451E+02 -0.35504239980E+03  0.39776989239E+03  0.17200000000E+03 0.  1.
         -6    1    1    2    0  501  0.39092660210E+02 -0.32458366451E+02 -0.10445638346E+03  0.20754979567E+03  0.17200000000E+03 0.  1.
<mgrwt>
<rscale>  2 0.17934821E+03</rscale>
<asrwt>0</asrwt>
<pdfrwt beam="1">  1        2 0.18227613E-01 0.17934821E+03</pdfrwt>
<pdfrwt beam="2">  1       -2 0.13310231E+00 0.17934821E+03</pdfrwt>
<totfact> 0.13413668E+02</totfact>
</mgrwt>
</event>
<event>
 4    1  0.3757815E-001  0.3285053E+03  0.7546771E-02  0.1071800E+00
         -3   -1    0    0    0  501 -0.00000000000E+00  0.00000000000E+00  0.41824089184E+03  0.41824089184E+03  0.00000000000E+00 0.  1.
          3   -1    0    0  502    0  0.00000000000E+00 -0.00000000000E+00 -0.28782125527E+03  0.28782125527E+03  0.00000000000E+00 0. -1.
          6    1    1    2  502    0 -0.16642202684E+02 -0.27938279957E+03  0.17880186665E+03  0.37401312694E+03  0.17200000000E+03 0.  1.
         -6    1    1    2    0  501  0.16642202684E+02  0.27938279957E+03 -0.48382230079E+02  0.33204902017E+03  0.17200000000E+03 0. -1.
<mgrwt>
<rscale>  2 0.32850527E+03</rscale>
<asrwt>0</asrwt>
<pdfrwt beam="1">  1        3 0.71955314E-01 0.32850527E+03</pdfrwt>
<pdfrwt beam="2">  1       -3 0.10456022E+00 0.32850527E+03</pdfrwt>
<totfact> 0.37744005E+00</totfact>
</mgrwt>
</event>
<event>
 4    1  0.3757815E-001  0.4578547E+03  0.7546771E-02  0.1025405E+00
          2   -1    0    0  502    0  0.00000000000E+00  0.00000000000E+00  0.37492548892E+03  0.37492548892E+03  0.00000000000E+00 0. -1.
         -2   -1    0    0    0  501 -0.00000000000E+00 -0.00000000000E+00 -0.80421622339E+03  0.80421622339E+03  0.00000000000E+00 0.  1.
          6    1    1    2  502    0 -0.42431197506E+03 -0.25135458285E+01 -0.54011590791E+03  0.70806508463E+03  0.17200000000E+03 0.  1.
         -6    1    1    2    0  501  0.42431197506E+03  0.25135458285E+01  0.11082517344E+03  0.47107662769E+03  0.17200000000E+03 0.  1.
<mgrwt>
<rscale>  2 0.45785475E+03</rscale>
<asrwt>0</asrwt>
<pdfrwt beam="1">  1        2 0.93731373E-01 0.45785475E+03</pdfrwt>
<pdfrwt beam="2">  1       -2 0.20105405E+00 0.45785475E+03</pdfrwt>
<totfact> 0.68002344E+00</totfact>
</mgrwt>
</event>
<event>
 4    1  0.3757815E-001  0.2483373E+03  0.7546771E-02  0.1114360E+00
         -1   -1    0    0    0  501 -0.00000000000E+00  0.00000000000E+00  0.15511215382E+03  0.15511215382E+03  0.00000000000E+00 0.  1.
          1   -1    0    0  502    0  0.00000000000E+00 -0.00000000000E+00 -0.48357543172E+03  0.48357543172E+03  0.00000000000E+00 0. -1.
          6    1    1    2  502    0  0.11417904108E+03 -0.13802380813E+03 -0.29888976125E+03  0.38859556664E+03  0.17200000000E+03 0. -1.
         -6    1    1    2    0  501 -0.11417904108E+03  0.13802380813E+03 -0.29573516647E+02  0.25009201891E+03  0.17200000000E+03 0.  1.
<mgrwt>
<rscale>  2 0.24833732E+03</rscale>
<asrwt>0</asrwt>
<pdfrwt beam="1">  1        1 0.12089386E+00 0.24833732E+03</pdfrwt>
<pdfrwt beam="2">  1       -1 0.38778039E-01 0.24833732E+03</pdfrwt>
<totfact> 0.15697633E+02</totfact>
</mgrwt>
</event>
<event>
 4    1  0.3757815E-001  0.1856092E+03  0.7546771E-02  0.1162482E+00
         -1   -1    0    0    0  501 -0.00000000000E+00  0.00000000000E+00  0.72530947327E+02  0.72530947327E+02  0.00000000000E+00 0.  1.
          1   -1    0    0  502    0  0.00000000000E+00 -0.00000000000E+00 -0.71801643046E+03  0.71801643046E+03  0.00000000000E+00 0. -1.
          6    1    1    2  502    0 -0.32386575585E+02 -0.61789124747E+02 -0.55270996974E+03  0.58304296313E+03  0.17200000000E+03 0. -1.
         -6    1    1    2    0  501  0.32386575585E+02  0.61789124747E+02 -0.92775513402E+02  0.20750441466E+03  0.17200000000E+03 0.  1.
<mgrwt>
<rscale>  2 0.18560923E+03</rscale>
<asrwt>0</asrwt>
<pdfrwt beam="1">  1        1 0.17950410E+00 0.18560923E+03</pdfrwt>
<pdfrwt beam="2">  1       -1 0.18132737E-01 0.18560923E+03</pdfrwt>
<totfact> 0.29230422E+02</totfact>
</mgrwt>
</event>
<event>
 4    1  0.3757815E-001  0.1897194E+03  0.7546771E-02  0.1158715E+00
         -1   -1    0    0    0  501 -0.00000000000E+00  0.00000000000E+00  0.68135701043E+02  0.68135701043E+02  0.00000000000E+00 0. -1.
          1   -1    0    0  502    0  0.00000000000E+00 -0.00000000000E+00 -0.53504014312E+03  0.53504014312E+03  0.00000000000E+00 0.  1.
          6    1    1    2  502    0  0.74860540996E+02 -0.28378971154E+02 -0.19950590639E+03  0.27531086663E+03  0.17200000000E+03 0. -1.
         -6    1    1    2    0  501 -0.74860540996E+02  0.28378971154E+02 -0.26739853569E+03  0.32786497753E+03  0.17200000000E+03 0.  1.
<mgrwt>
<rscale>  2 0.18971944E+03</rscale>
<asrwt>0</asrwt>
<pdfrwt beam="1">  1        1 0.13376003E+00 0.18971944E+03</pdfrwt>
<pdfrwt beam="2">  1       -1 0.17033926E-01 0.18971944E+03</pdfrwt>
<totfact> 0.53529494E+02</totfact>
</mgrwt>
</event>
<event>
 4    1  0.3757815E-001  0.2490493E+03  0.7546771E-02  0.1113907E+00
          2   -1    0    0  502    0  0.00000000000E+00  0.00000000000E+00  0.10288621208E+03  0.10288621208E+03  0.00000000000E+00 0.  1.
         -2   -1    0    0    0  501 -0.00000000000E+00 -0.00000000000E+00 -0.84085932405E+03  0.84085932405E+03  0.00000000000E+00 0. -1.
          6    1    1    2  502    0 -0.19615297804E+01 -0.18010466591E+03 -0.11793955505E+03  0.27556356241E+03  0.17200000000E+03 0.  1.
         -6    1    1    2    0  501  0.19615297804E+01  0.18010466591E+03 -0.62003355693E+03  0.66818197372E+03  0.17200000000E+03 0. -1.
<mgrwt>
<rscale>  2 0.24904927E+03</rscale>
<asrwt>0</asrwt>
<pdfrwt beam="1">  1        2 0.25721554E-01 0.24904927E+03</pdfrwt>
<pdfrwt beam="2">  1       -2 0.21021483E+00 0.24904927E+03</pdfrwt>
<totfact> 0.26171826E+01</totfact>
</mgrwt>
</event>
<event>
 4    1  0.3757815E-001  0.2040165E+03  0.7546771E-02  0.1146394E+00
          3   -1    0    0  502    0  0.00000000000E+00  0.00000000000E+00  0.56081857871E+03  0.56081857871E+03  0.00000000000E+00 0. -1.
         -3   -1    0    0    0  501 -0.00000000000E+00 -0.00000000000E+00 -0.76443471536E+02  0.76443471536E+02  0.00000000000E+00 0.  1.
          6    1    1    2  502    0  0.65477629077E+02 -0.88041992175E+02  0.18781873081E+03  0.27730594645E+03  0.17200000000E+03 0.  1.
         -6    1    1    2    0  501 -0.65477629077E+02  0.88041992175E+02  0.29655637637E+03  0.35995610380E+03  0.17200000000E+03 0. -1.
<mgrwt>
<rscale>  2 0.20401645E+03</rscale>
<asrwt>0</asrwt>
<pdfrwt beam="1">  1        3 0.14020463E+00 0.20401645E+03</pdfrwt>
<pdfrwt beam="2">  1       -3 0.19110870E-01 0.20401645E+03</pdfrwt>
<totfact> 0.24199014E+01</totfact>
</mgrwt>
</event>
<event>
 4    1  0.3757815E-001  0.2025845E+03  0.7546771E-02  0.1147577E+00
         -1   -1    0    0    0  501 -0.00000000000E+00  0.00000000000E+00  0.21657199005E+03  0.21657199005E+03  0.00000000000E+00 0.  1.
          1   -1    0    0  502    0  0.00000000000E+00 -0.00000000000E+00 -0.19784700596E+03  0.19784700596E+03  0.00000000000E+00 0. -1.
          6    1    1    2  502    0 -0.48828806656E+02 -0.95248240300E+02  0.51922310348E+02  0.20913250812E+03  0.17200000000E+03 0.  1.
         -6    1    1    2    0  501  0.48828806656E+02  0.95248240300E+02 -0.33197326256E+02  0.20528648789E+03  0.17200000000E+03 0. -1.
<mgrwt>
<rscale>  2 0.20258450E+03</rscale>
<asrwt>0</asrwt>
<pdfrwt beam="1">  1        1 0.49461751E-01 0.20258450E+03</pdfrwt>
<pdfrwt beam="2">  1       -1 0.54142998E-01 0.20258450E+03</pdfrwt>
<totfact> 0.28757797E+02</totfact>
</mgrwt>
</event>
<event>
 4    1  0.3757815E-001  0.1818667E+03  0.7546771E-02  0.1166009E+00
          2   -1    0    0  502    0  0.00000000000E+00  0.00000000000E+00  0.33140510505E+03  0.33140510505E+03  0.00000000000E+00 0.  1.
         -2   -1    0    0    0  501 -0.00000000000E+00 -0.00000000000E+00 -0.15137916245E+03  0.15137916245E+03  0.00000000000E+00 0. -1.
          6    1    1    2  502    0 -0.58969639435E+02 -0.37518383564E+01  0.23091301724E+03  0.29393250279E+03  0.17200000000E+03 0.  1.
         -6    1    1    2    0  501  0.58969639435E+02  0.37518383564E+01 -0.50887074642E+02  0.18885176470E+03  0.17200000000E+03 0. -1.
<mgrwt>
<rscale>  2 0.18186669E+03</rscale>
<asrwt>0</asrwt>
<pdfrwt beam="1">  1        2 0.82851275E-01 0.18186669E+03</pdfrwt>
<pdfrwt beam="2">  1       -2 0.37844791E-01 0.18186669E+03</pdfrwt>
<totfact> 0.38351007E+02</totfact>
</mgrwt>
</event>
<event>
 4    1  0.3757815E-001  0.1740011E+03  0.7546771E-02  0.1173738E+00
         -1   -1    0    0    0  501 -0.00000000000E+00  0.00000000000E+00  0.24960019333E+03  0.24960019333E+03  0.00000000000E+00 0. -1.
          1   -1    0    0  502    0  0.00000000000E+00 -0.00000000000E+00 -0.14759652940E+03  0.14759652940E+03  0.00000000000E+00 0.  1.
          6    1    1    2  502    0  0.13923911931E+02  0.22327000625E+02 -0.32826574565E+02  0.17707047828E+03  0.17200000000E+03 0.  1.
         -6    1    1    2    0  501 -0.13923911931E+02 -0.22327000625E+02  0.13483023850E+03  0.22012624445E+03  0.17200000000E+03 0. -1.
<mgrwt>
<rscale>  2 0.17400106E+03</rscale>
<asrwt>0</asrwt>
<pdfrwt beam="1">  1        1 0.36899133E-01 0.17400106E+03</pdfrwt>
<pdfrwt beam="2">  1       -1 0.62400048E-01 0.17400106E+03</pdfrwt>
<totfact> 0.31743827E+02</totfact>
</mgrwt>
</event>
<event>
 4    1  0.3757815E-001  0.1974344E+03  0.7546771E-02  0.1151922E+00
          2   -1    0    0  502    0  0.00000000000E+00  0.00000000000E+00  0.87658988589E+03  0.87658988589E+03  0.00000000000E+00 0.  1.
         -2   -1    0    0    0  501 -0.00000000000E+00 -0.00000000000E+00 -0.48497285548E+02  0.48497285548E+02  0.00000000000E+00 0. -1.
          6    1    1    2  502    0  0.87040105619E+02  0.42665731056E+02  0.54736744120E+03  0.58188612312E+03  0.17200000000E+03 0. -1.
         -6    1    1    2    0  501 -0.87040105619E+02 -0.42665731056E+02  0.28072515915E+03  0.34320104832E+03  0.17200000000E+03 0.  1.
<mgrwt>
<rscale>  2 0.19743441E+03</rscale>
<asrwt>0</asrwt>
<pdfrwt beam="1">  1        2 0.21914742E+00 0.19743441E+03</pdfrwt>
<pdfrwt beam="2">  1       -2 0.12124324E-01 0.19743441E+03</pdfrwt>
<totfact> 0.73672098E+02</totfact>
</mgrwt>
</event>
<event>
 4    1  0.3757815E-001  0.3520248E+03  0.7546771E-02  0.1061787E+00
         -1   -1    0    0    0  501 -0.00000000000E+00  0.00000000000E+00  0.15255042529E+03  0.15255042529E+03  0.00000000000E+00 0.  1.
          1   -1    0    0  502    0  0.00000000000E+00 -0.00000000000E+00 -0.87230600779E+03  0.87230600779E+03  0.00000000000E+00 0. -1.
          6    1    1    2  502    0 -0.30703434387E+03  0.82086312116E+01 -0.22551375586E+03  0.41806449745E+03  0.17200000000E+03 0.  1.
         -6    1    1    2    0  501  0.30703434387E+03 -0.82086312116E+01 -0.49424182664E+03  0.60679193563E+03  0.17200000000E+03 0. -1.
<mgrwt>
<rscale>  2 0.35202481E+03</rscale>
<asrwt>0</asrwt>
<pdfrwt beam="1">  1        1 0.21807650E+00 0.35202481E+03</pdfrwt>
<pdfrwt beam="2">  1       -1 0.38137606E-01 0.35202481E+03</pdfrwt>
<totfact> 0.54187714E+01</totfact>
</mgrwt>
</event>
<event>
 4    1  0.3757815E-001  0.2129191E+03  0.7546771E-02  0.1139275E+00
         -2   -1    0    0    0  501 -0.00000000000E+00  0.00000000000E+00  0.10571982743E+03  0.10571982743E+03  0.00000000000E+00 0. -1.
          2   -1    0    0  502    0  0.00000000000E+00 -0.00000000000E+00 -0.43213205818E+03  0.43213205818E+03  0.00000000000E+00 0.  1.
          6    1    1    2  502    0 -0.95399077363E+02 -0.81544951843E+02 -0.18675691479E+03  0.28321848166E+03  0.17200000000E+03 0. -1.
         -6    1    1    2    0  501  0.95399077363E+02  0.81544951843E+02 -0.13965531595E+03  0.25463340395E+03  0.17200000000E+03 0.  1.
<mgrwt>
<rscale>  2 0.21291915E+03</rscale>
<asrwt>0</asrwt>
<pdfrwt beam="1">  1        2 0.10803301E+00 0.21291915E+03</pdfrwt>
<pdfrwt beam="2">  1       -2 0.26429957E-01 0.21291915E+03</pdfrwt>
<totfact> 0.54209611E+02</totfact>
</mgrwt>
</event>
<event>
 4    1  0.3757815E-001  0.1755497E+03  0.7546771E-02  0.1172181E+00
         -1   -1    0    0    0  501 -0.00000000000E+00  0.00000000000E+00  0.83099485463E+02  0.83099485463E+02  0.00000000000E+00 0.  1.
          1   -1    0    0  502    0  0.00000000000E+00 -0.00000000000E+00 -0.37975742941E+03  0.37975742941E+03  0.00000000000E+00 0. -1.
          6    1    1    2  502    0 -0.21394220306E+02  0.27856530505E+02 -0.18376663408E+03  0.25414144636E+03  0.17200000000E+03 0. -1.
         -6    1    1    2    0  501  0.21394220306E+02 -0.27856530505E+02 -0.11289130986E+03  0.20871546851E+03  0.17200000000E+03 0. -1.
<mgrwt>
<rscale>  2 0.17554971E+03</rscale>
<asrwt>0</asrwt>
<pdfrwt beam="1">  1        1 0.94939356E-01 0.17554971E+03</pdfrwt>
<pdfrwt beam="2">  1       -1 0.20774872E-01 0.17554971E+03</pdfrwt>
<totfact> 0.64544790E+02</totfact>
</mgrwt>
</event>
<event>
 4    1  0.3757815E-001  0.1961594E+03  0.7546771E-02  0.1153020E+00
          4   -1    0    0  502    0  0.00000000000E+00  0.00000000000E+00  0.17472323973E+03  0.17472323973E+03  0.00000000000E+00 0. -1.
         -4   -1    0    0    0  501 -0.00000000000E+00 -0.00000000000E+00 -0.33765317315E+03  0.33765317315E+03  0.00000000000E+00 0.  1.
          6    1    1    2  502    0  0.81099655003E+02 -0.48138741973E+02 -0.23254572577E+03  0.30423018768E+03  0.17200000000E+03 0.  1.
         -6    1    1    2    0  501 -0.81099655003E+02  0.48138741973E+02  0.69615792349E+02  0.20814622520E+03  0.17200000000E+03 0. -1.
<mgrwt>
<rscale>  2 0.19615935E+03</rscale>
<asrwt>0</asrwt>
<pdfrwt beam="1">  1        4 0.43680811E-01 0.19615935E+03</pdfrwt>
<pdfrwt beam="2">  1       -4 0.84413292E-01 0.19615935E+03</pdfrwt>
<totfact> 0.11386138E+01</totfact>
</mgrwt>
</event>
<event>
 4    1  0.3757815E-001  0.1866870E+03  0.7546771E-02  0.1161484E+00
          2   -1    0    0  502    0  0.00000000000E+00  0.00000000000E+00  0.16693108184E+03  0.16693108184E+03  0.00000000000E+00 0. -1.
         -2   -1    0    0    0  501 -0.00000000000E+00 -0.00000000000E+00 -0.21009836520E+03  0.21009836520E+03  0.00000000000E+00 0.  1.
          6    1    1    2  502    0  0.66645204940E+02  0.28748339285E+02 -0.66565558923E+01  0.18680567467E+03  0.17200000000E+03 0.  1.
         -6    1    1    2    0  501 -0.66645204940E+02 -0.28748339285E+02 -0.36510727471E+02  0.19022377237E+03  0.17200000000E+03 0. -1.
<mgrwt>
<rscale>  2 0.18668704E+03</rscale>
<asrwt>0</asrwt>
<pdfrwt beam="1">  1        2 0.41732771E-01 0.18668704E+03</pdfrwt>
<pdfrwt beam="2">  1       -2 0.52524591E-01 0.18668704E+03</pdfrwt>
<totfact> 0.42639205E+02</totfact>
</mgrwt>
</event>
<event>
 4    1  0.3757815E-001  0.1741925E+03  0.7546771E-02  0.1173545E+00
          2   -1    0    0  502    0  0.00000000000E+00  0.00000000000E+00  0.56164135894E+03  0.56164135894E+03  0.00000000000E+00 0.  1.
         -2   -1    0    0    0  501 -0.00000000000E+00 -0.00000000000E+00 -0.61874432699E+02  0.61874432699E+02  0.00000000000E+00 0. -1.
          6    1    1    2  502    0 -0.16574348791E+02  0.22007395754E+02  0.13884760727E+03  0.22275927040E+03  0.17200000000E+03 0. -1.
         -6    1    1    2    0  501  0.16574348791E+02 -0.22007395754E+02  0.36091931898E+03  0.40075652124E+03  0.17200000000E+03 0.  1.
<mgrwt>
<rscale>  2 0.17419252E+03</rscale>
<asrwt>0</asrwt>
<pdfrwt beam="1">  1        2 0.14041032E+00 0.17419252E+03</pdfrwt>
<pdfrwt beam="2">  1       -2 0.15468610E-01 0.17419252E+03</pdfrwt>
<totfact> 0.97375106E+02</totfact>
</mgrwt>
</event>
<event>
 4    1  0.3757815E-001  0.1723131E+03  0.7546771E-02  0.1175457E+00
         -1   -1    0    0    0  501 -0.00000000000E+00  0.00000000000E+00  0.87095158754E+02  0.87095158754E+02  0.00000000000E+00 0. -1.
          1   -1    0    0  502    0  0.00000000000E+00 -0.00000000000E+00 -0.47408243161E+03  0.47408243161E+03  0.00000000000E+00 0.  1.
          6    1    1    2  502    0 -0.34342881419E+00 -0.10376810886E+02 -0.44781270211E+02  0.17803695771E+03  0.17200000000E+03 0. -1.
         -6    1    1    2    0  501  0.34342881419E+00  0.10376810886E+02 -0.34220600264E+03  0.38314063266E+03  0.17200000000E+03 0.  1.
<mgrwt>
<rscale>  2 0.17231308E+03</rscale>
<asrwt>0</asrwt>
<pdfrwt beam="1">  1        1 0.11852061E+00 0.17231308E+03</pdfrwt>
<pdfrwt beam="2">  1       -1 0.21773790E-01 0.17231308E+03</pdfrwt>
<totfact> 0.43491182E+02</totfact>
</mgrwt>
</event>
<event>
 4    1  0.3757815E-001  0.1847592E+03  0.7546771E-02  0.1163275E+00
          2   -1    0    0  502    0  0.00000000000E+00  0.00000000000E+00  0.62409589545E+03  0.62409589545E+03  0.00000000000E+00 0. -1.
         -2   -1    0    0    0  501 -0.00000000000E+00 -0.00000000000E+00 -0.55939709402E+02  0.55939709402E+02  0.00000000000E+00 0.  1.
          6    1    1    2  502    0 -0.66722079119E+02  0.10005723538E+02  0.33476417600E+03  0.38236501393E+03  0.17200000000E+03 0. -1.
         -6    1    1    2    0  501  0.66722079119E+02 -0.10005723538E+02  0.23339201005E+03  0.29767059093E+03  0.17200000000E+03 0.  1.
<mgrwt>
<rscale>  2 0.18475917E+03</rscale>
<asrwt>0</asrwt>
<pdfrwt beam="1">  1        2 0.15602395E+00 0.18475917E+03</pdfrwt>
<pdfrwt beam="2">  1       -2 0.13984929E-01 0.18475917E+03</pdfrwt>
<totfact> 0.99462428E+02</totfact>
</mgrwt>
</event>
<event>
 4    1  0.3757815E-001  0.2817312E+03  0.7546771E-02  0.1094747E+00
         -2   -1    0    0    0  501 -0.00000000000E+00  0.00000000000E+00  0.19841229796E+03  0.19841229796E+03  0.00000000000E+00 0. -1.
          2   -1    0    0  502    0  0.00000000000E+00 -0.00000000000E+00 -0.41900299440E+03  0.41900299440E+03  0.00000000000E+00 0.  1.
          6    1    1    2  502    0 -0.21920551063E+03 -0.41682183193E+02 -0.44618077111E+02  0.28524241110E+03  0.17200000000E+03 0. -1.
         -6    1    1    2    0  501  0.21920551063E+03  0.41682183193E+02 -0.17597261933E+03  0.33217288125E+03  0.17200000000E+03 0.  1.
<mgrwt>
<rscale>  2 0.28173118E+03</rscale>
<asrwt>0</asrwt>
<pdfrwt beam="1">  1        2 0.10475075E+00 0.28173118E+03</pdfrwt>
<pdfrwt beam="2">  1       -2 0.49603075E-01 0.28173118E+03</pdfrwt>
<totfact> 0.17089138E+02</totfact>
</mgrwt>
</event>
<event>
 4    1  0.3757815E-001  0.1847703E+03  0.7546771E-02  0.1163265E+00
         -1   -1    0    0    0  501 -0.00000000000E+00  0.00000000000E+00  0.36865711952E+02  0.36865711952E+02  0.00000000000E+00 0. -1.
          1   -1    0    0  502    0  0.00000000000E+00 -0.00000000000E+00 -0.11650624082E+04  0.11650624082E+04  0.00000000000E+00 0.  1.
          6    1    1    2  502    0 -0.36227086253E+01 -0.67401313324E+02 -0.29190963097E+03  0.34547256578E+03  0.17200000000E+03 0. -1.
         -6    1    1    2    0  501  0.36227086253E+01  0.67401313324E+02 -0.83628706524E+03  0.85645555433E+03  0.17200000000E+03 0.  1.
<mgrwt>
<rscale>  2 0.18477029E+03</rscale>
<asrwt>0</asrwt>
<pdfrwt beam="1">  1        1 0.29126561E+00 0.18477029E+03</pdfrwt>
<pdfrwt beam="2">  1       -1 0.92164278E-02 0.18477029E+03</pdfrwt>
<totfact> 0.27990778E+02</totfact>
</mgrwt>
</event>
<event>
 4    1  0.3757815E-001  0.2023116E+03  0.7546771E-02  0.1147803E+00
         -1   -1    0    0    0  501 -0.00000000000E+00  0.00000000000E+00  0.27076017530E+03  0.27076017530E+03  0.00000000000E+00 0. -1.
          1   -1    0    0  502    0  0.00000000000E+00 -0.00000000000E+00 -0.15992887719E+03  0.15992887719E+03  0.00000000000E+00 0.  1.
          6    1    1    2  502    0 -0.10588601803E+03 -0.11582081630E+02  0.10582021605E+03  0.22831537739E+03  0.17200000000E+03 0.  1.
         -6    1    1    2    0  501  0.10588601803E+03  0.11582081630E+02  0.50110820684E+01  0.20237367510E+03  0.17200000000E+03 0.  1.
<mgrwt>
<rscale>  2 0.20231162E+03</rscale>
<asrwt>0</asrwt>
<pdfrwt beam="1">  1        1 0.39982220E-01 0.20231162E+03</pdfrwt>
<pdfrwt beam="2">  1       -1 0.67690043E-01 0.20231162E+03</pdfrwt>
<totfact> 0.24437340E+02</totfact>
</mgrwt>
</event>
<event>
 4    1  0.3757815E-001  0.1848707E+03  0.7546771E-02  0.1163171E+00
         -2   -1    0    0    0  501 -0.00000000000E+00  0.00000000000E+00  0.18916080404E+03  0.18916080404E+03  0.00000000000E+00 0. -1.
          2   -1    0    0  502    0  0.00000000000E+00 -0.00000000000E+00 -0.25239528793E+03  0.25239528793E+03  0.00000000000E+00 0.  1.
          6    1    1    2  502    0  0.23557592826E+02 -0.63546879248E+02  0.86069534821E+02  0.20392432632E+03  0.17200000000E+03 0. -1.
         -6    1    1    2    0  501 -0.23557592826E+02  0.63546879248E+02 -0.14930401871E+03  0.23763176565E+03  0.17200000000E+03 0.  1.
<mgrwt>
<rscale>  2 0.18487067E+03</rscale>
<asrwt>0</asrwt>
<pdfrwt beam="1">  1        2 0.63098821E-01 0.18487067E+03</pdfrwt>
<pdfrwt beam="2">  1       -2 0.47290202E-01 0.18487067E+03</pdfrwt>
<totfact> 0.33708067E+02</totfact>
</mgrwt>
</event>
<event>
 4    1  0.3757815E-001  0.2676069E+03  0.7546771E-02  0.1102657E+00
         -1   -1    0    0    0  501 -0.00000000000E+00  0.00000000000E+00  0.24722199133E+03  0.24722199133E+03  0.00000000000E+00 0. -1.
          1   -1    0    0  502    0  0.00000000000E+00 -0.00000000000E+00 -0.34966481121E+03  0.34966481121E+03  0.00000000000E+00 0.  1.
          6    1    1    2  502    0 -0.19174014170E+03 -0.72561372702E+02  0.72397094251E+02  0.27722693593E+03  0.17200000000E+03 0. -1.
         -6    1    1    2    0  501  0.19174014170E+03  0.72561372702E+02 -0.17483991413E+03  0.31965986661E+03  0.17200000000E+03 0.  1.
<mgrwt>
<rscale>  2 0.26760687E+03</rscale>
<asrwt>0</asrwt>
<pdfrwt beam="1">  1        1 0.87416202E-01 0.26760687E+03</pdfrwt>
<pdfrwt beam="2">  1       -1 0.61805498E-01 0.26760687E+03</pdfrwt>
<totfact> 0.10547573E+02</totfact>
</mgrwt>
</event>
<event>
 4    1  0.3757815E-001  0.1757635E+03  0.7546771E-02  0.1171967E+00
          2   -1    0    0  502    0  0.00000000000E+00  0.00000000000E+00  0.10272408176E+04  0.10272408176E+04  0.00000000000E+00 0.  1.
         -2   -1    0    0    0  501 -0.00000000000E+00 -0.00000000000E+00 -0.49902448269E+02  0.49902448269E+02  0.00000000000E+00 0. -1.
          6    1    1    2  502    0 -0.61011057829E+01  0.35659307232E+02  0.82816271615E+03  0.84660870188E+03  0.17200000000E+03 0.  1.
         -6    1    1    2    0  501  0.61011057829E+01 -0.35659307232E+02  0.14917565315E+03  0.23053456395E+03  0.17200000000E+03 0. -1.
<mgrwt>
<rscale>  2 0.17576350E+03</rscale>
<asrwt>0</asrwt>
<pdfrwt beam="1">  1        2 0.25681014E+00 0.17576350E+03</pdfrwt>
<pdfrwt beam="2">  1       -2 0.12475615E-01 0.17576350E+03</pdfrwt>
<totfact> 0.52494242E+02</totfact>
</mgrwt>
</event>
<event>
 4    1  0.3757815E-001  0.2709334E+03  0.7546771E-02  0.1100747E+00
         -1   -1    0    0    0  501 -0.00000000000E+00  0.00000000000E+00  0.12404058982E+03  0.12404058982E+03  0.00000000000E+00 0. -1.
          1   -1    0    0  502    0  0.00000000000E+00 -0.00000000000E+00 -0.73019150937E+03  0.73019150937E+03  0.00000000000E+00 0.  1.
          6    1    1    2  502    0  0.82845622749E+02 -0.19224331276E+03 -0.48903211620E+03  0.55906824197E+03  0.17200000000E+03 0. -1.
         -6    1    1    2    0  501 -0.82845622749E+02  0.19224331276E+03 -0.11711880335E+03  0.29516385722E+03  0.17200000000E+03 0. -1.
<mgrwt>
<rscale>  2 0.27093337E+03</rscale>
<asrwt>0</asrwt>
<pdfrwt beam="1">  1        1 0.18254788E+00 0.27093337E+03</pdfrwt>
<pdfrwt beam="2">  1       -1 0.31010148E-01 0.27093337E+03</pdfrwt>
<totfact> 0.11427019E+02</totfact>
</mgrwt>
</event>
<event>
 4    1  0.3757815E-001  0.2210287E+03  0.7546771E-02  0.1133118E+00
         -2   -1    0    0    0  501 -0.00000000000E+00  0.00000000000E+00  0.16120192503E+03  0.16120192503E+03  0.00000000000E+00 0.  1.
          2   -1    0    0  502    0  0.00000000000E+00 -0.00000000000E+00 -0.31219629609E+03  0.31219629609E+03  0.00000000000E+00 0. -1.
          6    1    1    2  502    0  0.38941298466E+02 -0.13324144117E+03 -0.35003266757E+02  0.22378323229E+03  0.17200000000E+03 0.  1.
         -6    1    1    2    0  501 -0.38941298466E+02  0.13324144117E+03 -0.11599110430E+03  0.24961498883E+03  0.17200000000E+03 0. -1.
<mgrwt>
<rscale>  2 0.22102875E+03</rscale>
<asrwt>0</asrwt>
<pdfrwt beam="1">  1        2 0.78049073E-01 0.22102875E+03</pdfrwt>
<pdfrwt beam="2">  1       -2 0.40300482E-01 0.22102875E+03</pdfrwt>
<totfact> 0.36309477E+02</totfact>
</mgrwt>
</event>
<event>
 4    1  0.3757815E-001  0.2780332E+03  0.7546771E-02  0.1096768E+00
         -1   -1    0    0    0  501 -0.00000000000E+00  0.00000000000E+00  0.31105827262E+03  0.31105827262E+03  0.00000000000E+00 0.  1.
          1   -1    0    0  502    0  0.00000000000E+00 -0.00000000000E+00 -0.28239247600E+03  0.28239247600E+03  0.00000000000E+00 0. -1.
          6    1    1    2  502    0  0.21717523405E+03  0.23523606191E+02  0.11710798658E+03  0.30168977917E+03  0.17200000000E+03 0.  1.
         -6    1    1    2    0  501 -0.21717523405E+03 -0.23523606191E+02 -0.88442189955E+02  0.29176096945E+03  0.17200000000E+03 0. -1.
<mgrwt>
<rscale>  2 0.27803317E+03</rscale>
<asrwt>0</asrwt>
<pdfrwt beam="1">  1        1 0.70598119E-01 0.27803317E+03</pdfrwt>
<pdfrwt beam="2">  1       -1 0.77764568E-01 0.27803317E+03</pdfrwt>
<totfact> 0.88558436E+01</totfact>
</mgrwt>
</event>
<event>
 4    1  0.3757815E-001  0.3002315E+03  0.7546771E-02  0.1085125E+00
          1   -1    0    0  502    0  0.00000000000E+00  0.00000000000E+00  0.66032262385E+03  0.66032262385E+03  0.00000000000E+00 0.  1.
         -1   -1    0    0    0  501 -0.00000000000E+00 -0.00000000000E+00 -0.14145468861E+03  0.14145468861E+03  0.00000000000E+00 0. -1.
          6    1    1    2  502    0 -0.24204345546E+03 -0.44383754561E+02  0.18446234818E+03  0.35237098333E+03  0.17200000000E+03 0.  1.
         -6    1    1    2    0  501  0.24204345546E+03  0.44383754561E+02  0.33440558706E+03  0.44940632912E+03  0.17200000000E+03 0.  1.
<mgrwt>
<rscale>  2 0.30023150E+03</rscale>
<asrwt>0</asrwt>
<pdfrwt beam="1">  1        1 0.16508065E+00 0.30023150E+03</pdfrwt>
<pdfrwt beam="2">  1       -1 0.35363674E-01 0.30023150E+03</pdfrwt>
<totfact> 0.10908868E+02</totfact>
</mgrwt>
</event>
<event>
 4    1  0.3757815E-001  0.2198919E+03  0.7546771E-02  0.1133964E+00
         -2   -1    0    0    0  501 -0.00000000000E+00  0.00000000000E+00  0.45525029811E+02  0.45525029811E+02  0.00000000000E+00 0.  1.
          2   -1    0    0  502    0  0.00000000000E+00 -0.00000000000E+00 -0.11241430819E+04  0.11241430819E+04  0.00000000000E+00 0. -1.
          6    1    1    2  502    0 -0.10349479833E+03  0.89762430911E+02 -0.40192288414E+03  0.45814241462E+03  0.17200000000E+03 0.  1.
         -6    1    1    2    0  501  0.10349479833E+03 -0.89762430911E+02 -0.67669516793E+03  0.71152569707E+03  0.17200000000E+03 0. -1.
<mgrwt>
<rscale>  2 0.21989194E+03</rscale>
<asrwt>0</asrwt>
<pdfrwt beam="1">  1        2 0.28103577E+00 0.21989194E+03</pdfrwt>
<pdfrwt beam="2">  1       -2 0.11381258E-01 0.21989194E+03</pdfrwt>
<totfact> 0.49951111E+02</totfact>
</mgrwt>
</event>
<event>
 4    1  0.3757815E-001  0.1784884E+03  0.7546771E-02  0.1169274E+00
         -2   -1    0    0    0  501 -0.00000000000E+00  0.00000000000E+00  0.10885627913E+03  0.10885627913E+03  0.00000000000E+00 0. -1.
          2   -1    0    0  502    0  0.00000000000E+00 -0.00000000000E+00 -0.29465642595E+03  0.29465642595E+03  0.00000000000E+00 0.  1.
          6    1    1    2  502    0 -0.39284693734E+02  0.27034024480E+02 -0.76302334431E+02  0.19411381167E+03  0.17200000000E+03 0. -1.
         -6    1    1    2    0  501  0.39284693734E+02 -0.27034024480E+02 -0.10949781239E+03  0.20939889341E+03  0.17200000000E+03 0.  1.
<mgrwt>
<rscale>  2 0.17848845E+03</rscale>
<asrwt>0</asrwt>
<pdfrwt beam="1">  1        2 0.73664106E-01 0.17848845E+03</pdfrwt>
<pdfrwt beam="2">  1       -2 0.27214070E-01 0.17848845E+03</pdfrwt>
<totfact> 0.79929603E+02</totfact>
</mgrwt>
</event>
<event>
 4    1  0.3757815E-001  0.2224279E+03  0.7546771E-02  0.1132086E+00
         -2   -1    0    0    0  501 -0.00000000000E+00  0.00000000000E+00  0.52304698330E+02  0.52304698330E+02  0.00000000000E+00 0.  1.
          2   -1    0    0  502    0  0.00000000000E+00 -0.00000000000E+00 -0.94632294562E+03  0.94632294562E+03  0.00000000000E+00 0. -1.
          6    1    1    2  502    0  0.11781158531E+03 -0.77528163465E+02 -0.43625737834E+03  0.48968835592E+03  0.17200000000E+03 0. -1.
         -6    1    1    2    0  501 -0.11781158531E+03  0.77528163465E+02 -0.45776086895E+03  0.50893928804E+03  0.17200000000E+03 0.  1.
<mgrwt>
<rscale>  2 0.22242793E+03</rscale>
<asrwt>0</asrwt>
<pdfrwt beam="1">  1        2 0.23658074E+00 0.22242793E+03</pdfrwt>
<pdfrwt beam="2">  1       -2 0.13076174E-01 0.22242793E+03</pdfrwt>
<totfact> 0.56534385E+02</totfact>
</mgrwt>
</event>
<event>
 4    1  0.3757815E-001  0.2278886E+03  0.7546771E-02  0.1128135E+00
         -1   -1    0    0    0  501 -0.00000000000E+00  0.00000000000E+00  0.15646182447E+03  0.15646182447E+03  0.00000000000E+00 0. -1.
          1   -1    0    0  502    0  0.00000000000E+00 -0.00000000000E+00 -0.45063005856E+03  0.45063005856E+03  0.00000000000E+00 0.  1.
          6    1    1    2  502    0 -0.12911953127E+03  0.75348173427E+02  0.87108884091E+01  0.22805499374E+03  0.17200000000E+03 0. -1.
         -6    1    1    2    0  501  0.12911953127E+03 -0.75348173427E+02 -0.30287912250E+03  0.37903688929E+03  0.17200000000E+03 0.  1.
<mgrwt>
<rscale>  2 0.22788857E+03</rscale>
<asrwt>0</asrwt>
<pdfrwt beam="1">  1        1 0.11265751E+00 0.22788857E+03</pdfrwt>
<pdfrwt beam="2">  1       -1 0.39115456E-01 0.22788857E+03</pdfrwt>
<totfact> 0.17255008E+02</totfact>
</mgrwt>
</event>
<event>
 4    1  0.3757815E-001  0.1833704E+03  0.7546771E-02  0.1164580E+00
         -2   -1    0    0    0  501 -0.00000000000E+00  0.00000000000E+00  0.13149112575E+03  0.13149112575E+03  0.00000000000E+00 0.  1.
          2   -1    0    0  502    0  0.00000000000E+00 -0.00000000000E+00 -0.25577699774E+03  0.25577699774E+03  0.00000000000E+00 0. -1.
          6    1    1    2  502    0  0.39318423452E+02  0.49947737197E+02 -0.59214875186E+02  0.19269435985E+03  0.17200000000E+03 0.  1.
         -6    1    1    2    0  501 -0.39318423452E+02 -0.49947737197E+02 -0.65070996796E+02  0.19457376364E+03  0.17200000000E+03 0. -1.
<mgrwt>
<rscale>  2 0.18337043E+03</rscale>
<asrwt>0</asrwt>
<pdfrwt beam="1">  1        2 0.63944249E-01 0.18337043E+03</pdfrwt>
<pdfrwt beam="2">  1       -2 0.32872782E-01 0.18337043E+03</pdfrwt>
<totfact> 0.66300654E+02</totfact>
</mgrwt>
</event>
<event>
 4    1  0.3757815E-001  0.2084198E+03  0.7546771E-02  0.1142824E+00
         -3   -1    0    0    0  501 -0.00000000000E+00  0.00000000000E+00  0.50008182352E+03  0.50008182352E+03  0.00000000000E+00 0.  1.
          3   -1    0    0  502    0  0.00000000000E+00 -0.00000000000E+00 -0.12671768857E+03  0.12671768857E+03  0.00000000000E+00 0. -1.
          6    1    1    2  502    0  0.10487075330E+03 -0.53450176698E+02  0.10923022046E+02  0.20870579460E+03  0.17200000000E+03 0. -1.
         -6    1    1    2    0  501 -0.10487075330E+03  0.53450176698E+02  0.36244111290E+03  0.41809371750E+03  0.17200000000E+03 0.  1.
<mgrwt>
<rscale>  2 0.20841976E+03</rscale>
<asrwt>0</asrwt>
<pdfrwt beam="1">  1        3 0.31679423E-01 0.20841976E+03</pdfrwt>
<pdfrwt beam="2">  1       -3 0.12502045E+00 0.20841976E+03</pdfrwt>
<totfact> 0.12718471E+01</totfact>
</mgrwt>
</event>
<event>
 4    1  0.3757815E-001  0.1924765E+03  0.7546771E-02  0.1156246E+00
          2   -1    0    0  502    0  0.00000000000E+00  0.00000000000E+00  0.25100907698E+04  0.25100907698E+04  0.00000000000E+00 0.  1.
         -2   -1    0    0    0  501 -0.00000000000E+00 -0.00000000000E+00 -0.14790853929E+02  0.14790853929E+02  0.00000000000E+00 0. -1.
          6    1    1    2  502    0  0.74633543311E+02 -0.43509199376E+02  0.13059473610E+04  0.13200551981E+04  0.17200000000E+03 0. -1.
         -6    1    1    2    0  501 -0.74633543311E+02  0.43509199376E+02  0.11893525548E+04  0.12048264256E+04  0.17200000000E+03 0.  1.
<mgrwt>
<rscale>  2 0.19247653E+03</rscale>
<asrwt>0</asrwt>
<pdfrwt beam="1">  1        2 0.62752124E+00 0.19247653E+03</pdfrwt>
<pdfrwt beam="2">  1       -2 0.36977220E-02 0.19247653E+03</pdfrwt>
<totfact> 0.12494703E+02</totfact>
</mgrwt>
</event>
<event>
 4    1  0.3757815E-001  0.1960807E+03  0.7546771E-02  0.1153089E+00
         -2   -1    0    0    0  501 -0.00000000000E+00  0.00000000000E+00  0.20215005159E+02  0.20215005159E+02  0.00000000000E+00 0. -1.
          2   -1    0    0  502    0  0.00000000000E+00 -0.00000000000E+00 -0.19355386589E+04  0.19355386589E+04  0.00000000000E+00 0.  1.
          6    1    1    2  502    0 -0.75454281110E+02  0.56305221467E+02 -0.10865094179E+04  0.11040608415E+04  0.17200000000E+03 0.  1.
         -6    1    1    2    0  501  0.75454281110E+02 -0.56305221467E+02 -0.82881423586E+03  0.85169282260E+03  0.17200000000E+03 0. -1.
<mgrwt>
<rscale>  2 0.19608066E+03</rscale>
<asrwt>0</asrwt>
<pdfrwt beam="1">  1        2 0.48388466E+00 0.19608066E+03</pdfrwt>
<pdfrwt beam="2">  1       -2 0.50537513E-02 0.19608066E+03</pdfrwt>
<totfact> 0.33656690E+02</totfact>
</mgrwt>
</event>
<event>
 4    1  0.3757815E-001  0.1830042E+03  0.7546771E-02  0.1164927E+00
          1   -1    0    0  502    0  0.00000000000E+00  0.00000000000E+00  0.19093059953E+03  0.19093059953E+03  0.00000000000E+00 0. -1.
         -1   -1    0    0    0  501 -0.00000000000E+00 -0.00000000000E+00 -0.18776761780E+03  0.18776761780E+03  0.00000000000E+00 0.  1.
          6    1    1    2  502    0 -0.60454584869E+02  0.15867049968E+02  0.50163672610E+02  0.18975487914E+03  0.17200000000E+03 0.  1.
         -6    1    1    2    0  501  0.60454584869E+02 -0.15867049968E+02 -0.47000690883E+02  0.18894333820E+03  0.17200000000E+03 0.  1.
<mgrwt>
<rscale>  2 0.18300415E+03</rscale>
<asrwt>0</asrwt>
<pdfrwt beam="1">  1        1 0.47732650E-01 0.18300415E+03</pdfrwt>
<pdfrwt beam="2">  1       -1 0.46941904E-01 0.18300415E+03</pdfrwt>
<totfact> 0.39183011E+02</totfact>
</mgrwt>
</event>
<event>
 4    1  0.3757815E-001  0.1895632E+03  0.7546771E-02  0.1158856E+00
          1   -1    0    0  502    0  0.00000000000E+00  0.00000000000E+00  0.83308727349E+03  0.83308727349E+03  0.00000000000E+00 0. -1.
         -1   -1    0    0    0  501 -0.00000000000E+00 -0.00000000000E+00 -0.44178181325E+02  0.44178181325E+02  0.00000000000E+00 0.  1.
          6    1    1    2  502    0 -0.67457771734E+02 -0.42422548091E+02  0.46189581556E+03  0.49928145167E+03  0.17200000000E+03 0. -1.
         -6    1    1    2    0  501  0.67457771734E+02  0.42422548091E+02  0.32701327661E+03  0.37798400314E+03  0.17200000000E+03 0. -1.
<mgrwt>
<rscale>  2 0.18956324E+03</rscale>
<asrwt>0</asrwt>
<pdfrwt beam="1">  1        1 0.20827177E+00 0.18956324E+03</pdfrwt>
<pdfrwt beam="2">  1       -1 0.11044548E-01 0.18956324E+03</pdfrwt>
<totfact> 0.47500743E+02</totfact>
</mgrwt>
</event>
<event>
 4    1  0.3757815E-001  0.1910760E+03  0.7546771E-02  0.1157494E+00
          2   -1    0    0  502    0  0.00000000000E+00  0.00000000000E+00  0.31220683621E+03  0.31220683621E+03  0.00000000000E+00 0.  1.
         -2   -1    0    0    0  501 -0.00000000000E+00 -0.00000000000E+00 -0.13327701937E+03  0.13327701937E+03  0.00000000000E+00 0. -1.
          6    1    1    2  502    0 -0.83153853463E+02 -0.33851928876E+01  0.16744560342E+03  0.25406308858E+03  0.17200000000E+03 0.  1.
         -6    1    1    2    0  501  0.83153853463E+02  0.33851928876E+01  0.11484213424E+02  0.19142076699E+03  0.17200000000E+03 0.  1.
<mgrwt>
<rscale>  2 0.19107596E+03</rscale>
<asrwt>0</asrwt>
<pdfrwt beam="1">  1        2 0.78051708E-01 0.19107596E+03</pdfrwt>
<pdfrwt beam="2">  1       -2 0.33319255E-01 0.19107596E+03</pdfrwt>
<totfact> 0.51962047E+02</totfact>
</mgrwt>
</event>
<event>
 4    1  0.3757815E-001  0.1785854E+03  0.7546771E-02  0.1169179E+00
          2   -1    0    0  502    0  0.00000000000E+00  0.00000000000E+00  0.17997625661E+03  0.17997625661E+03  0.00000000000E+00 0.  1.
         -2   -1    0    0    0  501 -0.00000000000E+00 -0.00000000000E+00 -0.17731126639E+03  0.17731126639E+03  0.00000000000E+00 0. -1.
          6    1    1    2  502    0 -0.48002935870E+02 -0.21154301207E+01  0.56985165905E+01  0.17867632744E+03  0.17200000000E+03 0.  1.
         -6    1    1    2    0  501  0.48002935870E+02  0.21154301207E+01 -0.30335263774E+01  0.17861119556E+03  0.17200000000E+03 0.  1.
<mgrwt>
<rscale>  2 0.17858543E+03</rscale>
<asrwt>0</asrwt>
<pdfrwt beam="1">  1        2 0.44994064E-01 0.17858543E+03</pdfrwt>
<pdfrwt beam="2">  1       -2 0.44327817E-01 0.17858543E+03</pdfrwt>
<totfact> 0.54987803E+02</totfact>
</mgrwt>
</event>
<event>
 4    1  0.3757815E-001  0.1811346E+03  0.7546771E-02  0.1166709E+00
          2   -1    0    0  502    0  0.00000000000E+00  0.00000000000E+00  0.34629352445E+02  0.34629352445E+02  0.00000000000E+00 0. -1.
         -2   -1    0    0    0  501 -0.00000000000E+00 -0.00000000000E+00 -0.13616313015E+04  0.13616313015E+04  0.00000000000E+00 0.  1.
          6    1    1    2  502    0 -0.26572916800E+02 -0.50195997596E+02 -0.10485351586E+04  0.10640656639E+04  0.17200000000E+03 0.  1.
         -6    1    1    2    0  501  0.26572916800E+02  0.50195997596E+02 -0.27846679043E+03  0.33219499011E+03  0.17200000000E+03 0. -1.
<mgrwt>
<rscale>  2 0.18113464E+03</rscale>
<asrwt>0</asrwt>
<pdfrwt beam="1">  1        2 0.86573384E-02 0.18113464E+03</pdfrwt>
<pdfrwt beam="2">  1       -2 0.34040782E+00 0.18113464E+03</pdfrwt>
<totfact> 0.16650515E+01</totfact>
</mgrwt>
</event>
<event>
 4    1  0.3757815E-001  0.1737114E+03  0.7546771E-02  0.1174032E+00
          2   -1    0    0  502    0  0.00000000000E+00  0.00000000000E+00  0.18728819775E+03  0.18728819775E+03  0.00000000000E+00 0. -1.
         -2   -1    0    0    0  501 -0.00000000000E+00 -0.00000000000E+00 -0.16113147625E+03  0.16113147625E+03  0.00000000000E+00 0.  1.
          6    1    1    2  502    0 -0.80329268884E+01  0.22959325445E+02  0.11536072504E+02  0.17409405363E+03  0.17200000000E+03 0.  1.
         -6    1    1    2    0  501  0.80329268884E+01 -0.22959325445E+02  0.14620648996E+02  0.17432562037E+03  0.17200000000E+03 0. -1.
<mgrwt>
<rscale>  2 0.17371142E+03</rscale>
<asrwt>0</asrwt>
<pdfrwt beam="1">  1        2 0.46822049E-01 0.17371142E+03</pdfrwt>
<pdfrwt beam="2">  1       -2 0.40282869E-01 0.17371142E+03</pdfrwt>
<totfact> 0.63326843E+02</totfact>
</mgrwt>
</event>
<event>
 4    1  0.3757815E-001  0.1868139E+03  0.7546771E-02  0.1161367E+00
          2   -1    0    0  502    0  0.00000000000E+00  0.00000000000E+00  0.51575265528E+03  0.51575265528E+03  0.00000000000E+00 0.  1.
         -2   -1    0    0    0  501 -0.00000000000E+00 -0.00000000000E+00 -0.67891425251E+02  0.67891425251E+02  0.00000000000E+00 0. -1.
          6    1    1    2  502    0  0.72881779358E+02  0.19209848477E+01  0.24070820448E+03  0.30469637945E+03  0.17200000000E+03 0.  1.
         -6    1    1    2    0  501 -0.72881779358E+02 -0.19209848477E+01  0.20715302555E+03  0.27894770108E+03  0.17200000000E+03 0. -1.
<mgrwt>
<rscale>  2 0.18681393E+03</rscale>
<asrwt>0</asrwt>
<pdfrwt beam="1">  1        2 0.12893815E+00 0.18681393E+03</pdfrwt>
<pdfrwt beam="2">  1       -2 0.16972858E-01 0.18681393E+03</pdfrwt>
<totfact> 0.93293693E+02</totfact>
</mgrwt>
</event>
<event>
 4    1  0.3757815E-001  0.1820993E+03  0.7546771E-02  0.1165787E+00
         -1   -1    0    0    0  501 -0.00000000000E+00  0.00000000000E+00  0.13191837400E+03  0.13191837400E+03  0.00000000000E+00 0.  1.
          1   -1    0    0  502    0  0.00000000000E+00 -0.00000000000E+00 -0.25558048365E+03  0.25558048365E+03  0.00000000000E+00 0. -1.
          6    1    1    2  502    0 -0.49475058895E+02  0.33591113626E+02 -0.86703122200E+02  0.20168682596E+03  0.17200000000E+03 0.  1.
         -6    1    1    2    0  501  0.49475058895E+02 -0.33591113626E+02 -0.36958987442E+02  0.18581203169E+03  0.17200000000E+03 0.  1.
<mgrwt>
<rscale>  2 0.18209927E+03</rscale>
<asrwt>0</asrwt>
<pdfrwt beam="1">  1        1 0.63895120E-01 0.18209927E+03</pdfrwt>
<pdfrwt beam="2">  1       -1 0.32979594E-01 0.18209927E+03</pdfrwt>
<totfact> 0.50510586E+02</totfact>
</mgrwt>
</event>
<event>
 4    1  0.3757815E-001  0.2025200E+03  0.7546771E-02  0.1147630E+00
          1   -1    0    0  502    0  0.00000000000E+00  0.00000000000E+00  0.15063718214E+03  0.15063718214E+03  0.00000000000E+00 0. -1.
         -1   -1    0    0    0  501 -0.00000000000E+00 -0.00000000000E+00 -0.34822406524E+03  0.34822406524E+03  0.00000000000E+00 0.  1.
          6    1    1    2  502    0 -0.21743261091E+02  0.10467846378E+03  0.17696646590E+02  0.20329171523E+03  0.17200000000E+03 0. -1.
         -6    1    1    2    0  501  0.21743261091E+02 -0.10467846378E+03 -0.21528352969E+03  0.29556953215E+03  0.17200000000E+03 0.  1.
<mgrwt>
<rscale>  2 0.20252000E+03</rscale>
<asrwt>0</asrwt>
<pdfrwt beam="1">  1        1 0.37659296E-01 0.20252000E+03</pdfrwt>
<pdfrwt beam="2">  1       -1 0.87056016E-01 0.20252000E+03</pdfrwt>
<totfact> 0.15749478E+02</totfact>
</mgrwt>
</event>
<event>
 4    1  0.3757815E-001  0.1786549E+03  0.7546771E-02  0.1169111E+00
          1   -1    0    0  502    0  0.00000000000E+00  0.00000000000E+00  0.12175452661E+03  0.12175452661E+03  0.00000000000E+00 0.  1.
         -1   -1    0    0    0  501 -0.00000000000E+00 -0.00000000000E+00 -0.26515335312E+03  0.26515335312E+03  0.00000000000E+00 0. -1.
          6    1    1    2  502    0 -0.15842849721E+02 -0.45635223415E+02 -0.51099872149E+02  0.18581917672E+03  0.17200000000E+03 0. -1.
         -6    1    1    2    0  501  0.15842849721E+02  0.45635223415E+02 -0.92298954365E+02  0.20108870302E+03  0.17200000000E+03 0. -1.
<mgrwt>
<rscale>  2 0.17865489E+03</rscale>
<asrwt>0</asrwt>
<pdfrwt beam="1">  1        1 0.30438632E-01 0.17865489E+03</pdfrwt>
<pdfrwt beam="2">  1       -1 0.66288338E-01 0.17865489E+03</pdfrwt>
<totfact> 0.35888203E+02</totfact>
</mgrwt>
</event>
<event>
 4    1  0.3757815E-001  0.1725092E+03  0.7546771E-02  0.1175256E+00
         -1   -1    0    0    0  501 -0.00000000000E+00  0.00000000000E+00  0.71390802624E+03  0.71390802624E+03  0.00000000000E+00 0.  1.
          1   -1    0    0  502    0  0.00000000000E+00 -0.00000000000E+00 -0.41708412045E+02  0.41708412045E+02  0.00000000000E+00 0. -1.
          6    1    1    2  502    0 -0.95640245008E+01 -0.91620027084E+01  0.34500888400E+03  0.38573377205E+03  0.17200000000E+03 0.  1.
         -6    1    1    2    0  501  0.95640245008E+01  0.91620027084E+01  0.32719073019E+03  0.36988266624E+03  0.17200000000E+03 0. -1.
<mgrwt>
<rscale>  2 0.17250917E+03</rscale>
<asrwt>0</asrwt>
<pdfrwt beam="1">  1        1 0.10427105E-01 0.17250917E+03</pdfrwt>
<pdfrwt beam="2">  1       -1 0.17847697E+00 0.17250917E+03</pdfrwt>
<totfact> 0.14404296E+02</totfact>
</mgrwt>
</event>
<event>
 4    1  0.3757815E-001  0.1735208E+03  0.7546771E-02  0.1174225E+00
         -2   -1    0    0    0  501 -0.00000000000E+00  0.00000000000E+00  0.14617656927E+03  0.14617656927E+03  0.00000000000E+00 0. -1.
          2   -1    0    0  502    0  0.00000000000E+00 -0.00000000000E+00 -0.23006839383E+03  0.23006839383E+03  0.00000000000E+00 0.  1.
          6    1    1    2  502    0 -0.22606033410E+02 -0.38015532319E+01  0.18925586222E+02  0.17454988504E+03  0.17200000000E+03 0. -1.
         -6    1    1    2    0  501  0.22606033410E+02  0.38015532319E+01 -0.10281741078E+03  0.20169507806E+03  0.17200000000E+03 0.  1.
<mgrwt>
<rscale>  2 0.17352085E+03</rscale>
<asrwt>0</asrwt>
<pdfrwt beam="1">  1        2 0.57517098E-01 0.17352085E+03</pdfrwt>
<pdfrwt beam="2">  1       -2 0.36544143E-01 0.17352085E+03</pdfrwt>
<totfact> 0.61062725E+02</totfact>
</mgrwt>
</event>
<event>
 4    1  0.3757815E-001  0.2172475E+03  0.7546771E-02  0.1135952E+00
         -1   -1    0    0    0  501 -0.00000000000E+00  0.00000000000E+00  0.21672495912E+03  0.21672495912E+03  0.00000000000E+00 0.  1.
          1   -1    0    0  502    0  0.00000000000E+00 -0.00000000000E+00 -0.30254013812E+03  0.30254013812E+03  0.00000000000E+00 0. -1.
          6    1    1    2  502    0  0.36661446703E+02 -0.12754761125E+03 -0.18033899971E+03  0.28234484169E+03  0.17200000000E+03 0. -1.
         -6    1    1    2    0  501 -0.36661446703E+02  0.12754761125E+03  0.94523820709E+02  0.23692025555E+03  0.17200000000E+03 0.  1.
<mgrwt>
<rscale>  2 0.21724745E+03</rscale>
<asrwt>0</asrwt>
<pdfrwt beam="1">  1        1 0.75635034E-01 0.21724745E+03</pdfrwt>
<pdfrwt beam="2">  1       -1 0.54181240E-01 0.21724745E+03</pdfrwt>
<totfact> 0.16629366E+02</totfact>
</mgrwt>
</event>
<event>
 4    1  0.3757815E-001  0.3258917E+03  0.7546771E-02  0.1072969E+00
          2   -1    0    0  502    0  0.00000000000E+00  0.00000000000E+00  0.30546340887E+03  0.30546340887E+03  0.00000000000E+00 0.  1.
         -2   -1    0    0    0  501 -0.00000000000E+00 -0.00000000000E+00 -0.35084557582E+03  0.35084557582E+03  0.00000000000E+00 0. -1.
          6    1    1    2  502    0  0.11518365226E+03 -0.25170246055E+03  0.84492406465E+01  0.32600121481E+03  0.17200000000E+03 0.  1.
         -6    1    1    2    0  501 -0.11518365226E+03  0.25170246055E+03 -0.53831407600E+02  0.33030776987E+03  0.17200000000E+03 0. -1.
<mgrwt>
<rscale>  2 0.32589170E+03</rscale>
<asrwt>0</asrwt>
<pdfrwt beam="1">  1        2 0.76365853E-01 0.32589170E+03</pdfrwt>
<pdfrwt beam="2">  1       -2 0.87711394E-01 0.32589170E+03</pdfrwt>
<totfact> 0.73044406E+01</totfact>
</mgrwt>
</event>
<event>
 4    1  0.3757815E-001  0.1765385E+03  0.7546771E-02  0.1171196E+00
         -2   -1    0    0    0  501 -0.00000000000E+00  0.00000000000E+00  0.32811764281E+02  0.32811764281E+02  0.00000000000E+00 0. -1.
          2   -1    0    0  502    0  0.00000000000E+00 -0.00000000000E+00 -0.10566584900E+04  0.10566584900E+04  0.00000000000E+00 0.  1.
          6    1    1    2  502    0 -0.39763650029E+02  0.83432873606E+00 -0.68512275716E+03  0.70750196914E+03  0.17200000000E+03 0.  1.
         -6    1    1    2    0  501  0.39763650029E+02 -0.83432873606E+00 -0.33872396852E+03  0.38196828510E+03  0.17200000000E+03 0. -1.
<mgrwt>
<rscale>  2 0.17653851E+03</rscale>
<asrwt>0</asrwt>
<pdfrwt beam="1">  1        2 0.26416464E+00 0.17653851E+03</pdfrwt>
<pdfrwt beam="2">  1       -2 0.82029405E-02 0.17653851E+03</pdfrwt>
<totfact> 0.96286416E+02</totfact>
</mgrwt>
</event>
<event>
 4    1  0.3757815E-001  0.3219031E+03  0.7546771E-02  0.1074777E+00
          1   -1    0    0  502    0  0.00000000000E+00  0.00000000000E+00  0.13545575684E+04  0.13545575684E+04  0.00000000000E+00 0. -1.
         -1   -1    0    0    0  501 -0.00000000000E+00 -0.00000000000E+00 -0.19130008425E+03  0.19130008425E+03  0.00000000000E+00 0.  1.
          6    1    1    2  502    0  0.14700065786E+03 -0.22897252446E+03  0.11803930178E+04  0.12234987891E+04  0.17200000000E+03 0. -1.
         -6    1    1    2    0  501 -0.14700065786E+03  0.22897252446E+03 -0.17135533720E+02  0.32235886351E+03  0.17200000000E+03 0.  1.
<mgrwt>
<rscale>  2 0.32190311E+03</rscale>
<asrwt>0</asrwt>
<pdfrwt beam="1">  1        1 0.33863936E+00 0.32190311E+03</pdfrwt>
<pdfrwt beam="2">  1       -1 0.47825025E-01 0.32190311E+03</pdfrwt>
<totfact> 0.11057879E+01</totfact>
</mgrwt>
</event>
<event>
 4    1  0.3757815E-001  0.2118040E+03  0.7546771E-02  0.1140145E+00
         -1   -1    0    0    0  501 -0.00000000000E+00  0.00000000000E+00  0.29427982150E+02  0.29427982150E+02  0.00000000000E+00 0.  1.
          1   -1    0    0  502    0  0.00000000000E+00 -0.00000000000E+00 -0.26636792108E+04  0.26636792108E+04  0.00000000000E+00 0. -1.
          6    1    1    2  502    0  0.11310651869E+03 -0.49838156624E+02 -0.21977523635E+04  0.22079348671E+04  0.17200000000E+03 0. -1.
         -6    1    1    2    0  501 -0.11310651869E+03  0.49838156624E+02 -0.43649886522E+03  0.48517232584E+03  0.17200000000E+03 0.  1.
<mgrwt>
<rscale>  2 0.21180398E+03</rscale>
<asrwt>0</asrwt>
<pdfrwt beam="1">  1        1 0.66591970E+00 0.21180398E+03</pdfrwt>
<pdfrwt beam="2">  1       -1 0.73569966E-02 0.21180398E+03</pdfrwt>
<totfact> 0.65483399E+00</totfact>
</mgrwt>
</event>
<event>
 4    1  0.3757815E-001  0.2202242E+03  0.7546771E-02  0.1133716E+00
          2   -1    0    0  502    0  0.00000000000E+00  0.00000000000E+00  0.10665203306E+04  0.10665203306E+04  0.00000000000E+00 0.  1.
         -2   -1    0    0    0  501 -0.00000000000E+00 -0.00000000000E+00 -0.48690855094E+02  0.48690855094E+02  0.00000000000E+00 0. -1.
          6    1    1    2  502    0 -0.13184755718E+03  0.39126770116E+02  0.36558516138E+03  0.42679174394E+03  0.17200000000E+03 0. -1.
         -6    1    1    2    0  501  0.13184755718E+03 -0.39126770116E+02  0.65224431415E+03  0.68841944177E+03  0.17200000000E+03 0.  1.
<mgrwt>
<rscale>  2 0.22022416E+03</rscale>
<asrwt>0</asrwt>
<pdfrwt beam="1">  1        2 0.26663001E+00 0.22022416E+03</pdfrwt>
<pdfrwt beam="2">  1       -2 0.12172717E-01 0.22022416E+03</pdfrwt>
<totfact> 0.50153374E+02</totfact>
</mgrwt>
</event>
<event>
 4    1  0.3757815E-001  0.2124619E+03  0.7546771E-02  0.1139631E+00
         -1   -1    0    0    0  501 -0.00000000000E+00  0.00000000000E+00  0.60763855427E+02  0.60763855427E+02  0.00000000000E+00 0. -1.
          1   -1    0    0  502    0  0.00000000000E+00 -0.00000000000E+00 -0.10971784296E+04  0.10971784296E+04  0.00000000000E+00 0.  1.
          6    1    1    2  502    0  0.11407727552E+03  0.50422694975E+02 -0.18920060669E+03  0.28449418717E+03  0.17200000000E+03 0.  1.
         -6    1    1    2    0  501 -0.11407727552E+03 -0.50422694975E+02 -0.84721396750E+03  0.87344809788E+03  0.17200000000E+03 0. -1.
<mgrwt>
<rscale>  2 0.21246193E+03</rscale>
<asrwt>0</asrwt>
<pdfrwt beam="1">  1        1 0.27429462E+00 0.21246193E+03</pdfrwt>
<pdfrwt beam="2">  1       -1 0.15190963E-01 0.21246193E+03</pdfrwt>
<totfact> 0.15018683E+02</totfact>
</mgrwt>
</event>
<event>
 4    1  0.3757815E-001  0.1984719E+03  0.7546771E-02  0.1151035E+00
          1   -1    0    0  502    0  0.00000000000E+00  0.00000000000E+00  0.25295951728E+03  0.25295951728E+03  0.00000000000E+00 0.  1.
         -1   -1    0    0    0  501 -0.00000000000E+00 -0.00000000000E+00 -0.15856774861E+03  0.15856774861E+03  0.00000000000E+00 0. -1.
          6    1    1    2  502    0 -0.59379934027E+01  0.98852542339E+02  0.19625487694E+02  0.19943982717E+03  0.17200000000E+03 0. -1.
         -6    1    1    2    0  501  0.59379934027E+01 -0.98852542339E+02  0.74766280982E+02  0.21208743872E+03  0.17200000000E+03 0. -1.
<mgrwt>
<rscale>  2 0.19847187E+03</rscale>
<asrwt>0</asrwt>
<pdfrwt beam="1">  1        1 0.63239879E-01 0.19847187E+03</pdfrwt>
<pdfrwt beam="2">  1       -1 0.39641937E-01 0.19847187E+03</pdfrwt>
<totfact> 0.37130458E+02</totfact>
</mgrwt>
</event>
<event>
 4    1  0.3757815E-001  0.2049491E+03  0.7546771E-02  0.1145629E+00
          2   -1    0    0  502    0  0.00000000000E+00  0.00000000000E+00  0.45633200424E+03  0.45633200424E+03  0.00000000000E+00 0. -1.
         -2   -1    0    0    0  501 -0.00000000000E+00 -0.00000000000E+00 -0.92047344576E+02  0.92047344576E+02  0.00000000000E+00 0.  1.
          6    1    1    2  502    0 -0.81127418271E+02  0.76410020542E+02  0.18214352256E+03  0.27419046673E+03  0.17200000000E+03 0. -1.
         -6    1    1    2    0  501  0.81127418271E+02 -0.76410020542E+02  0.18214113710E+03  0.27418888208E+03  0.17200000000E+03 0.  1.
<mgrwt>
<rscale>  2 0.20494914E+03</rscale>
<asrwt>0</asrwt>
<pdfrwt beam="1">  1        2 0.11408300E+00 0.20494914E+03</pdfrwt>
<pdfrwt beam="2">  1       -2 0.23011837E-01 0.20494914E+03</pdfrwt>
<totfact> 0.64739370E+02</totfact>
</mgrwt>
</event>
<event>
 4    1  0.3757815E-001  0.1796406E+03  0.7546771E-02  0.1168151E+00
          2   -1    0    0  502    0  0.00000000000E+00  0.00000000000E+00  0.22112067350E+03  0.22112067350E+03  0.00000000000E+00 0.  1.
         -2   -1    0    0    0  501 -0.00000000000E+00 -0.00000000000E+00 -0.14659263934E+03  0.14659263934E+03  0.00000000000E+00 0. -1.
          6    1    1    2  502    0 -0.34245961234E+01 -0.51720651743E+02  0.49514502097E+02  0.18633958139E+03  0.17200000000E+03 0.  1.
         -6    1    1    2    0  501  0.34245961234E+01  0.51720651743E+02  0.25013532061E+02  0.18137373145E+03  0.17200000000E+03 0. -1.
<mgrwt>
<rscale>  2 0.17964062E+03</rscale>
<asrwt>0</asrwt>
<pdfrwt beam="1">  1        2 0.55280168E-01 0.17964062E+03</pdfrwt>
<pdfrwt beam="2">  1       -2 0.36648160E-01 0.17964062E+03</pdfrwt>
<totfact> 0.63393169E+02</totfact>
</mgrwt>
</event>
<event>
 4    1  0.3757815E-001  0.1954020E+03  0.7546771E-02  0.1153677E+00
         -1   -1    0    0    0  501 -0.00000000000E+00  0.00000000000E+00  0.37312500300E+02  0.37312500300E+02  0.00000000000E+00 0. -1.
          1   -1    0    0  502    0  0.00000000000E+00 -0.00000000000E+00 -0.10300059733E+04  0.10300059733E+04  0.00000000000E+00 0.  1.
          6    1    1    2  502    0  0.36410618417E+02  0.85277225409E+02 -0.45329151632E+03  0.49361436068E+03  0.17200000000E+03 0. -1.
         -6    1    1    2    0  501 -0.36410618417E+02 -0.85277225409E+02 -0.53940195670E+03  0.57370411293E+03  0.17200000000E+03 0.  1.
<mgrwt>
<rscale>  2 0.19540199E+03</rscale>
<asrwt>0</asrwt>
<pdfrwt beam="1">  1        1 0.25750148E+00 0.19540199E+03</pdfrwt>
<pdfrwt beam="2">  1       -1 0.93281255E-02 0.19540199E+03</pdfrwt>
<totfact> 0.37948297E+02</totfact>
</mgrwt>
</event>
<event>
 4    1  0.3757815E-001  0.1748357E+03  0.7546771E-02  0.1172897E+00
          2   -1    0    0  502    0  0.00000000000E+00  0.00000000000E+00  0.18995070980E+04  0.18995070980E+04  0.00000000000E+00 0.  1.
         -2   -1    0    0    0  501 -0.00000000000E+00 -0.00000000000E+00 -0.21620692421E+02  0.21620692421E+02  0.00000000000E+00 0. -1.
          6    1    1    2  502    0 -0.18816389804E+02 -0.25088833809E+02  0.14246671148E+04  0.14353549714E+04  0.17200000000E+03 0.  1.
         -6    1    1    2    0  501  0.18816389804E+02  0.25088833809E+02  0.45321929082E+03  0.48577281900E+03  0.17200000000E+03 0. -1.
<mgrwt>
<rscale>  2 0.17483565E+03</rscale>
<asrwt>0</asrwt>
<pdfrwt beam="1">  1        2 0.47487621E+00 0.17483565E+03</pdfrwt>
<pdfrwt beam="2">  1       -2 0.54051796E-02 0.17483565E+03</pdfrwt>
<totfact> 0.33240403E+02</totfact>
</mgrwt>
</event>
<event>
 4    1  0.3757815E-001  0.2252001E+03  0.7546771E-02  0.1130064E+00
         -1   -1    0    0    0  501 -0.00000000000E+00  0.00000000000E+00  0.56179028715E+02  0.56179028715E+02  0.00000000000E+00 0.  1.
          1   -1    0    0  502    0  0.00000000000E+00 -0.00000000000E+00 -0.97189207114E+03  0.97189207114E+03  0.00000000000E+00 0. -1.
          6    1    1    2  502    0 -0.10889518934E+03  0.96296110359E+02 -0.59497125303E+03  0.63616499045E+03  0.17200000000E+03 0. -1.
         -6    1    1    2    0  501  0.10889518934E+03 -0.96296110359E+02 -0.32074178939E+03  0.39190610941E+03  0.17200000000E+03 0.  1.
<mgrwt>
<rscale>  2 0.22520014E+03</rscale>
<asrwt>0</asrwt>
<pdfrwt beam="1">  1        1 0.24297302E+00 0.22520014E+03</pdfrwt>
<pdfrwt beam="2">  1       -1 0.14044757E-01 0.22520014E+03</pdfrwt>
<totfact> 0.22979525E+02</totfact>
</mgrwt>
</event>
<event>
 4    1  0.3757815E-001  0.2192601E+03  0.7546771E-02  0.1134436E+00
         -1   -1    0    0    0  501 -0.00000000000E+00  0.00000000000E+00  0.80962633969E+02  0.80962633969E+02  0.00000000000E+00 0. -1.
          1   -1    0    0  502    0  0.00000000000E+00 -0.00000000000E+00 -0.61187611647E+03  0.61187611647E+03  0.00000000000E+00 0.  1.
          6    1    1    2  502    0 -0.28037412158E+02  0.13305979056E+03 -0.20590243919E+03  0.30078367444E+03  0.17200000000E+03 0. -1.
         -6    1    1    2    0  501  0.28037412158E+02 -0.13305979056E+03 -0.32501104331E+03  0.39205507600E+03  0.17200000000E+03 0.  1.
<mgrwt>
<rscale>  2 0.21926013E+03</rscale>
<asrwt>0</asrwt>
<pdfrwt beam="1">  1        1 0.15296903E+00 0.21926013E+03</pdfrwt>
<pdfrwt beam="2">  1       -1 0.20240659E-01 0.21926013E+03</pdfrwt>
<totfact> 0.32390920E+02</totfact>
</mgrwt>
</event>
<event>
 4    1  0.3757815E-001  0.1730114E+03  0.7546771E-02  0.1174743E+00
         -2   -1    0    0    0  501 -0.00000000000E+00  0.00000000000E+00  0.13610375626E+03  0.13610375626E+03  0.00000000000E+00 0.  1.
          2   -1    0    0  502    0  0.00000000000E+00 -0.00000000000E+00 -0.24937799673E+03  0.24937799673E+03  0.00000000000E+00 0. -1.
          6    1    1    2  502    0 -0.77930440159E+01  0.16976715971E+02 -0.12287281170E+03  0.21220430786E+03  0.17200000000E+03 0. -1.
         -6    1    1    2    0  501  0.77930440159E+01 -0.16976715971E+02  0.95985712386E+01  0.17327744513E+03  0.17200000000E+03 0.  1.
<mgrwt>
<rscale>  2 0.17301139E+03</rscale>
<asrwt>0</asrwt>
<pdfrwt beam="1">  1        2 0.62344499E-01 0.17301139E+03</pdfrwt>
<pdfrwt beam="2">  1       -2 0.34025939E-01 0.17301139E+03</pdfrwt>
<totfact> 0.63934239E+02</totfact>
</mgrwt>
</event>
<event>
 4    1  0.3757815E-001  0.1754412E+03  0.7546771E-02  0.1172289E+00
          2   -1    0    0  502    0  0.00000000000E+00  0.00000000000E+00  0.50227362954E+03  0.50227362954E+03  0.00000000000E+00 0.  1.
         -2   -1    0    0    0  501 -0.00000000000E+00 -0.00000000000E+00 -0.61736702973E+02  0.61736702973E+02  0.00000000000E+00 0. -1.
          6    1    1    2  502    0  0.25684144898E+02 -0.23150256113E+02  0.19602830250E+03  0.26307167281E+03  0.17200000000E+03 0. -1.
         -6    1    1    2    0  501 -0.25684144898E+02  0.23150256113E+02  0.24450862407E+03  0.30093865970E+03  0.17200000000E+03 0. -1.
<mgrwt>
<rscale>  2 0.17544119E+03</rscale>
<asrwt>0</asrwt>
<pdfrwt beam="1">  1        2 0.12556840E+00 0.17544119E+03</pdfrwt>
<pdfrwt beam="2">  1       -2 0.15434177E-01 0.17544119E+03</pdfrwt>
<totfact> 0.11297333E+03</totfact>
</mgrwt>
</event>
<event>
 4    1  0.3757815E-001  0.2537278E+03  0.7546771E-02  0.1110971E+00
          2   -1    0    0  502    0  0.00000000000E+00  0.00000000000E+00  0.59576786766E+03  0.59576786766E+03  0.00000000000E+00 0.  1.
         -2   -1    0    0    0  501 -0.00000000000E+00 -0.00000000000E+00 -0.11689857526E+03  0.11689857526E+03  0.00000000000E+00 0. -1.
          6    1    1    2  502    0  0.18060480599E+03 -0.46644648967E+02  0.33742383376E+03  0.42217610403E+03  0.17200000000E+03 0. -1.
         -6    1    1    2    0  501 -0.18060480599E+03  0.46644648967E+02  0.14144545864E+03  0.29049033890E+03  0.17200000000E+03 0. -1.
<mgrwt>
<rscale>  2 0.25372784E+03</rscale>
<asrwt>0</asrwt>
<pdfrwt beam="1">  1        2 0.14894196E+00 0.25372784E+03</pdfrwt>
<pdfrwt beam="2">  1       -2 0.29224645E-01 0.25372784E+03</pdfrwt>
<totfact> 0.29784603E+02</totfact>
</mgrwt>
</event>
<event>
 4    1  0.3757815E-001  0.1768650E+03  0.7546771E-02  0.1170872E+00
          1   -1    0    0  502    0  0.00000000000E+00  0.00000000000E+00  0.51658426618E+03  0.51658426618E+03  0.00000000000E+00 0. -1.
         -1   -1    0    0    0  501 -0.00000000000E+00 -0.00000000000E+00 -0.60555007955E+02  0.60555007955E+02  0.00000000000E+00 0.  1.
          6    1    1    2  502    0  0.41197509816E+02 -0.90016615311E-01  0.22919278570E+03  0.28950056292E+03  0.17200000000E+03 0.  1.
         -6    1    1    2    0  501 -0.41197509816E+02  0.90016615311E-01  0.22683647253E+03  0.28763871121E+03  0.17200000000E+03 0. -1.
<mgrwt>
<rscale>  2 0.17686504E+03</rscale>
<asrwt>0</asrwt>
<pdfrwt beam="1">  1        1 0.12914605E+00 0.17686504E+03</pdfrwt>
<pdfrwt beam="2">  1       -1 0.15138754E-01 0.17686504E+03</pdfrwt>
<totfact> 0.68273324E+02</totfact>
</mgrwt>
</event>
<event>
 4    1  0.3757815E-001  0.1746521E+03  0.7546771E-02  0.1173081E+00
         -1   -1    0    0    0  501 -0.00000000000E+00  0.00000000000E+00  0.33648466068E+03  0.33648466068E+03  0.00000000000E+00 0.  1.
          1   -1    0    0  502    0  0.00000000000E+00 -0.00000000000E+00 -0.15084954860E+03  0.15084954860E+03  0.00000000000E+00 0. -1.
          6    1    1    2  502    0 -0.13863763588E+02  0.26965621836E+02 -0.61107967745E+02  0.18503386832E+03  0.17200000000E+03 0. -1.
         -6    1    1    2    0  501  0.13863763588E+02 -0.26965621836E+02  0.24674307983E+03  0.30230034096E+03  0.17200000000E+03 0.  1.
<mgrwt>
<rscale>  2 0.17465208E+03</rscale>
<asrwt>0</asrwt>
<pdfrwt beam="1">  1        1 0.37712388E-01 0.17465208E+03</pdfrwt>
<pdfrwt beam="2">  1       -1 0.84121164E-01 0.17465208E+03</pdfrwt>
<totfact> 0.16971950E+02</totfact>
</mgrwt>
</event>
<event>
 4    1  0.3757815E-001  0.1754002E+03  0.7546771E-02  0.1172331E+00
         -2   -1    0    0    0  501 -0.00000000000E+00  0.00000000000E+00  0.40400146489E+03  0.40400146489E+03  0.00000000000E+00 0.  1.
          2   -1    0    0  502    0  0.00000000000E+00 -0.00000000000E+00 -0.90688016122E+02  0.90688016122E+02  0.00000000000E+00 0. -1.
          6    1    1    2  502    0  0.20934919395E+02  0.27257073451E+02  0.25568553068E+03  0.31006500851E+03  0.17200000000E+03 0.  1.
         -6    1    1    2    0  501 -0.20934919395E+02 -0.27257073451E+02  0.57627918087E+02  0.18462447250E+03  0.17200000000E+03 0. -1.
<mgrwt>
<rscale>  2 0.17540017E+03</rscale>
<asrwt>0</asrwt>
<pdfrwt beam="1">  1        2 0.22672005E-01 0.17540017E+03</pdfrwt>
<pdfrwt beam="2">  1       -2 0.10100036E+00 0.17540017E+03</pdfrwt>
<totfact> 0.20282580E+02</totfact>
</mgrwt>
</event>
<event>
 4    1  0.3757815E-001  0.1757200E+03  0.7546771E-02  0.1172011E+00
         -2   -1    0    0    0  501 -0.00000000000E+00  0.00000000000E+00  0.30068064837E+02  0.30068064837E+02  0.00000000000E+00 0.  1.
          2   -1    0    0  502    0  0.00000000000E+00 -0.00000000000E+00 -0.10334599981E+04  0.10334599981E+04  0.00000000000E+00 0. -1.
          6    1    1    2  502    0  0.27429374616E+02 -0.23262660660E+02 -0.54399529923E+03  0.57167159065E+03  0.17200000000E+03 0. -1.
         -6    1    1    2    0  501 -0.27429374616E+02  0.23262660660E+02 -0.45939663408E+03  0.49185647233E+03  0.17200000000E+03 0.  1.
<mgrwt>
<rscale>  2 0.17572001E+03</rscale>
<asrwt>0</asrwt>
<pdfrwt beam="1">  1        2 0.25836498E+00 0.17572001E+03</pdfrwt>
<pdfrwt beam="2">  1       -2 0.75170168E-02 0.17572001E+03</pdfrwt>
<totfact> 0.11534632E+03</totfact>
</mgrwt>
</event>
<event>
 4    1  0.3757815E-001  0.2141568E+03  0.7546771E-02  0.1138316E+00
         -1   -1    0    0    0  501 -0.00000000000E+00  0.00000000000E+00  0.51888971062E+03  0.51888971062E+03  0.00000000000E+00 0.  1.
          1   -1    0    0  502    0  0.00000000000E+00 -0.00000000000E+00 -0.27482297679E+03  0.27482297679E+03  0.00000000000E+00 0. -1.
          6    1    1    2  502    0 -0.59014686701E+02  0.11312120579E+03  0.44890075180E+03  0.49736809851E+03  0.17200000000E+03 0.  1.
         -6    1    1    2    0  501  0.59014686701E+02 -0.11312120579E+03 -0.20483401798E+03  0.29634458890E+03  0.17200000000E+03 0. -1.
<mgrwt>
<rscale>  2 0.21415681E+03</rscale>
<asrwt>0</asrwt>
<pdfrwt beam="1">  1        1 0.68705745E-01 0.21415681E+03</pdfrwt>
<pdfrwt beam="2">  1       -1 0.12972243E+00 0.21415681E+03</pdfrwt>
<totfact> 0.29641849E+01</totfact>
</mgrwt>
</event>
<event>
 4    1  0.3757815E-001  0.1745647E+03  0.7546771E-02  0.1173169E+00
         -2   -1    0    0    0  501 -0.00000000000E+00  0.00000000000E+00  0.26167866932E+02  0.26167866932E+02  0.00000000000E+00 0.  1.
          2   -1    0    0  502    0  0.00000000000E+00 -0.00000000000E+00 -0.11647879479E+04  0.11647879479E+04  0.00000000000E+00 0. -1.
          6    1    1    2  502    0 -0.16075601518E+02  0.25108043552E+02 -0.56017236242E+03  0.58674177833E+03  0.17200000000E+03 0. -1.
         -6    1    1    2    0  501  0.16075601518E+02 -0.25108043552E+02 -0.57844771851E+03  0.60421403647E+03  0.17200000000E+03 0.  1.
<mgrwt>
<rscale>  2 0.17456471E+03</rscale>
<asrwt>0</asrwt>
<pdfrwt beam="1">  1        2 0.29119696E+00 0.17456471E+03</pdfrwt>
<pdfrwt beam="2">  1       -2 0.65419672E-02 0.17456471E+03</pdfrwt>
<totfact> 0.11084424E+03</totfact>
</mgrwt>
</event>
<event>
 4    1  0.3757815E-001  0.2317571E+03  0.7546771E-02  0.1125409E+00
          1   -1    0    0  502    0  0.00000000000E+00  0.00000000000E+00  0.44962360803E+03  0.44962360803E+03  0.00000000000E+00 0. -1.
         -1   -1    0    0    0  501 -0.00000000000E+00 -0.00000000000E+00 -0.12037094940E+03  0.12037094940E+03  0.00000000000E+00 0.  1.
          6    1    1    2  502    0  0.48611852696E+02 -0.14752715344E+03  0.18943926828E+03  0.29933026841E+03  0.17200000000E+03 0. -1.
         -6    1    1    2    0  501 -0.48611852696E+02  0.14752715344E+03  0.13981339035E+03  0.27066428901E+03  0.17200000000E+03 0. -1.
<mgrwt>
<rscale>  2 0.23175714E+03</rscale>
<asrwt>0</asrwt>
<pdfrwt beam="1">  1        1 0.11240590E+00 0.23175714E+03</pdfrwt>
<pdfrwt beam="2">  1       -1 0.30092738E-01 0.23175714E+03</pdfrwt>
<totfact> 0.27259296E+02</totfact>
</mgrwt>
</event>
<event>
 4    1  0.3757815E-001  0.2346808E+03  0.7546771E-02  0.1123388E+00
          3   -1    0    0  502    0  0.00000000000E+00  0.00000000000E+00  0.56272658652E+02  0.56272658652E+02  0.00000000000E+00 0. -1.
         -3   -1    0    0    0  501 -0.00000000000E+00 -0.00000000000E+00 -0.10916230528E+04  0.10916230528E+04  0.00000000000E+00 0.  1.
          6    1    1    2  502    0 -0.30065181115E+02  0.15680297108E+03 -0.70225832202E+03  0.74043354712E+03  0.17200000000E+03 0.  1.
         -6    1    1    2    0  501  0.30065181115E+02 -0.15680297108E+03 -0.33309207217E+03  0.40746216438E+03  0.17200000000E+03 0. -1.
<mgrwt>
<rscale>  2 0.23468082E+03</rscale>
<asrwt>0</asrwt>
<pdfrwt beam="1">  1        3 0.14068164E-01 0.23468082E+03</pdfrwt>
<pdfrwt beam="2">  1       -3 0.27290577E+00 0.23468082E+03</pdfrwt>
<totfact> 0.62847202E+00</totfact>
</mgrwt>
</event>
<event>
 4    1  0.3757815E-001  0.4353525E+03  0.7546771E-02  0.1032182E+00
          1   -1    0    0  502    0  0.00000000000E+00  0.00000000000E+00  0.37400683256E+03  0.37400683256E+03  0.00000000000E+00 0. -1.
         -1   -1    0    0    0  501 -0.00000000000E+00 -0.00000000000E+00 -0.52907488174E+03  0.52907488174E+03  0.00000000000E+00 0.  1.
          6    1    1    2  502    0  0.41241147423E+02 -0.39780267071E+03  0.15198762963E+02  0.43561772170E+03  0.17200000000E+03 0.  1.
         -6    1    1    2    0  501 -0.41241147423E+02  0.39780267071E+03 -0.17026681214E+03  0.46746399260E+03  0.17200000000E+03 0. -1.
<mgrwt>
<rscale>  2 0.43535250E+03</rscale>
<asrwt>0</asrwt>
<pdfrwt beam="1">  1        1 0.93501709E-01 0.43535250E+03</pdfrwt>
<pdfrwt beam="2">  1       -1 0.13226872E+00 0.43535250E+03</pdfrwt>
<totfact> 0.17571026E+01</totfact>
</mgrwt>
</event>
<event>
 4    1  0.3757815E-001  0.3032414E+03  0.7546771E-02  0.1083631E+00
          1   -1    0    0  502    0  0.00000000000E+00  0.00000000000E+00  0.17043348986E+04  0.17043348986E+04  0.00000000000E+00 0. -1.
         -1   -1    0    0    0  501 -0.00000000000E+00 -0.00000000000E+00 -0.62513948040E+02  0.62513948040E+02  0.00000000000E+00 0.  1.
          6    1    1    2  502    0 -0.21364659432E+03 -0.12933093159E+03  0.11478153405E+04  0.11871964508E+04  0.17200000000E+03 0. -1.
         -6    1    1    2    0  501  0.21364659432E+03  0.12933093159E+03  0.49400561010E+03  0.57965239579E+03  0.17200000000E+03 0.  1.
<mgrwt>
<rscale>  2 0.30324142E+03</rscale>
<asrwt>0</asrwt>
<pdfrwt beam="1">  1        1 0.42608357E+00 0.30324142E+03</pdfrwt>
<pdfrwt beam="2">  1       -1 0.15628493E-01 0.30324142E+03</pdfrwt>
<totfact> 0.31209899E+01</totfact>
</mgrwt>
</event>
<event>
 4    1  0.3757815E-001  0.1933419E+03  0.7546771E-02  0.1155481E+00
         -2   -1    0    0    0  501 -0.00000000000E+00  0.00000000000E+00  0.72894072674E+02  0.72894072674E+02  0.00000000000E+00 0.  1.
          2   -1    0    0  502    0  0.00000000000E+00 -0.00000000000E+00 -0.51407651528E+03  0.51407651528E+03  0.00000000000E+00 0. -1.
          6    1    1    2  502    0 -0.28692098161E+02  0.83509543703E+02 -0.20604536210E+03  0.28255224584E+03  0.17200000000E+03 0.  1.
         -6    1    1    2    0  501  0.28692098161E+02 -0.83509543703E+02 -0.23513708050E+03  0.30441834211E+03  0.17200000000E+03 0.  1.
<mgrwt>
<rscale>  2 0.19334187E+03</rscale>
<asrwt>0</asrwt>
<pdfrwt beam="1">  1        2 0.12851913E+00 0.19334187E+03</pdfrwt>
<pdfrwt beam="2">  1       -2 0.18223518E-01 0.19334187E+03</pdfrwt>
<totfact> 0.83145632E+02</totfact>
</mgrwt>
</event>
<event>
 4    1  0.3757815E-001  0.2184591E+03  0.7546771E-02  0.1135037E+00
         -2   -1    0    0    0  501 -0.00000000000E+00  0.00000000000E+00  0.40744713534E+02  0.40744713534E+02  0.00000000000E+00 0.  1.
          2   -1    0    0  502    0  0.00000000000E+00 -0.00000000000E+00 -0.14716770514E+04  0.14716770514E+04  0.00000000000E+00 0. -1.
          6    1    1    2  502    0 -0.40537141650E+02 -0.12844102850E+03 -0.10571061693E+04  0.10794432874E+04  0.17200000000E+03 0.  1.
         -6    1    1    2    0  501  0.40537141650E+02  0.12844102850E+03 -0.37382616857E+03  0.43297847748E+03  0.17200000000E+03 0.  1.
<mgrwt>
<rscale>  2 0.21845905E+03</rscale>
<asrwt>0</asrwt>
<pdfrwt beam="1">  1        2 0.36791924E+00 0.21845905E+03</pdfrwt>
<pdfrwt beam="2">  1       -2 0.10186179E-01 0.21845905E+03</pdfrwt>
<totfact> 0.30099876E+02</totfact>
</mgrwt>
</event>
<event>
 4    1  0.3757815E-001  0.1841257E+03  0.7546771E-02  0.1163869E+00
          2   -1    0    0  502    0  0.00000000000E+00  0.00000000000E+00  0.77721407392E+03  0.77721407392E+03  0.00000000000E+00 0.  1.
         -2   -1    0    0    0  501 -0.00000000000E+00 -0.00000000000E+00 -0.51585079167E+02  0.51585079167E+02  0.00000000000E+00 0. -1.
          6    1    1    2  502    0  0.19848418130E+02 -0.62644321762E+02  0.19998033068E+03  0.27183525049E+03  0.17200000000E+03 0. -1.
         -6    1    1    2    0  501 -0.19848418130E+02  0.62644321762E+02  0.52564866407E+03  0.55696390259E+03  0.17200000000E+03 0.  1.
<mgrwt>
<rscale>  2 0.18412569E+03</rscale>
<asrwt>0</asrwt>
<pdfrwt beam="1">  1        2 0.19430348E+00 0.18412569E+03</pdfrwt>
<pdfrwt beam="2">  1       -2 0.12896272E-01 0.18412569E+03</pdfrwt>
<totfact> 0.81701053E+02</totfact>
</mgrwt>
</event>
<event>
 4    1  0.3757815E-001  0.2238974E+03  0.7546771E-02  0.1131010E+00
         -2   -1    0    0    0  501 -0.00000000000E+00  0.00000000000E+00  0.51282214761E+02  0.51282214761E+02  0.00000000000E+00 0.  1.
          2   -1    0    0  502    0  0.00000000000E+00 -0.00000000000E+00 -0.99934442303E+03  0.99934442303E+03  0.00000000000E+00 0. -1.
          6    1    1    2  502    0  0.12437261712E+03 -0.71256427269E+02 -0.55163952014E+03  0.59534543460E+03  0.17200000000E+03 0.  1.
         -6    1    1    2    0  501 -0.12437261712E+03  0.71256427269E+02 -0.39642268813E+03  0.45528120319E+03  0.17200000000E+03 0.  1.
<mgrwt>
<rscale>  2 0.22389736E+03</rscale>
<asrwt>0</asrwt>
<pdfrwt beam="1">  1        2 0.24983610E+00 0.22389736E+03</pdfrwt>
<pdfrwt beam="2">  1       -2 0.12820554E-01 0.22389736E+03</pdfrwt>
<totfact> 0.52565350E+02</totfact>
</mgrwt>
</event>
<event>
 4    1  0.3757815E-001  0.2929015E+03  0.7546771E-02  0.1088844E+00
          2   -1    0    0  502    0  0.00000000000E+00  0.00000000000E+00  0.30669829468E+03  0.30669829468E+03  0.00000000000E+00 0.  1.
         -2   -1    0    0    0  501 -0.00000000000E+00 -0.00000000000E+00 -0.47868627801E+03  0.47868627801E+03  0.00000000000E+00 0. -1.
          6    1    1    2  502    0 -0.20804921424E+03 -0.11367852070E+03 -0.33916315273E+03  0.44813271001E+03  0.17200000000E+03 0. -1.
         -6    1    1    2    0  501  0.20804921424E+03  0.11367852070E+03  0.16717516940E+03  0.33725186268E+03  0.17200000000E+03 0.  1.
<mgrwt>
<rscale>  2 0.29290149E+03</rscale>
<asrwt>0</asrwt>
<pdfrwt beam="1">  1        2 0.76674574E-01 0.29290149E+03</pdfrwt>
<pdfrwt beam="2">  1       -2 0.11967157E+00 0.29290149E+03</pdfrwt>
<totfact> 0.35234133E+01</totfact>
</mgrwt>
</event>
<event>
 4    1  0.3757815E-001  0.2531634E+03  0.7546771E-02  0.1111322E+00
         -1   -1    0    0    0  501 -0.00000000000E+00  0.00000000000E+00  0.33548080037E+03  0.33548080037E+03  0.00000000000E+00 0. -1.
          1   -1    0    0  502    0  0.00000000000E+00 -0.00000000000E+00 -0.27470783491E+03  0.27470783491E+03  0.00000000000E+00 0.  1.
          6    1    1    2  502    0  0.89784838255E+02  0.16262351400E+03  0.19875716449E+03  0.32186353462E+03  0.17200000000E+03 0. -1.
         -6    1    1    2    0  501 -0.89784838255E+02 -0.16262351400E+03 -0.13798419903E+03  0.28832510065E+03  0.17200000000E+03 0.  1.
<mgrwt>
<rscale>  2 0.25316343E+03</rscale>
<asrwt>0</asrwt>
<pdfrwt beam="1">  1        1 0.68676959E-01 0.25316343E+03</pdfrwt>
<pdfrwt beam="2">  1       -1 0.83870200E-01 0.25316343E+03</pdfrwt>
<totfact> 0.78815070E+01</totfact>
</mgrwt>
</event>
<event>
 4    1  0.3757815E-001  0.1820092E+03  0.7546771E-02  0.1165873E+00
         -1   -1    0    0    0  501 -0.00000000000E+00  0.00000000000E+00  0.43125593241E+02  0.43125593241E+02  0.00000000000E+00 0. -1.
          1   -1    0    0  502    0  0.00000000000E+00 -0.00000000000E+00 -0.92900878202E+03  0.92900878202E+03  0.00000000000E+00 0.  1.
          6    1    1    2  502    0  0.23630364165E+02  0.54634876016E+02 -0.24068856737E+03  0.30175876168E+03  0.17200000000E+03 0. -1.
         -6    1    1    2    0  501 -0.23630364165E+02 -0.54634876016E+02 -0.64519462142E+03  0.67037561359E+03  0.17200000000E+03 0.  1.
<mgrwt>
<rscale>  2 0.18200924E+03</rscale>
<asrwt>0</asrwt>
<pdfrwt beam="1">  1        1 0.23225220E+00 0.18200924E+03</pdfrwt>
<pdfrwt beam="2">  1       -1 0.10781398E-01 0.18200924E+03</pdfrwt>
<totfact> 0.38939079E+02</totfact>
</mgrwt>
</event>
<event>
 4    1  0.3757815E-001  0.2132793E+03  0.7546771E-02  0.1138995E+00
         -1   -1    0    0    0  501 -0.00000000000E+00  0.00000000000E+00  0.30481157013E+02  0.30481157013E+02  0.00000000000E+00 0.  1.
          1   -1    0    0  502    0  0.00000000000E+00 -0.00000000000E+00 -0.16634480889E+04  0.16634480889E+04  0.00000000000E+00 0. -1.
          6    1    1    2  502    0 -0.70339825617E+02 -0.10467274683E+03 -0.54483754075E+03  0.58509488189E+03  0.17200000000E+03 0.  1.
         -6    1    1    2    0  501  0.70339825617E+02  0.10467274683E+03 -0.10881293911E+04  0.11088343640E+04  0.17200000000E+03 0. -1.
<mgrwt>
<rscale>  2 0.21327934E+03</rscale>
<asrwt>0</asrwt>
<pdfrwt beam="1">  1        1 0.41586202E+00 0.21327934E+03</pdfrwt>
<pdfrwt beam="2">  1       -1 0.76202893E-02 0.21327934E+03</pdfrwt>
<totfact> 0.10969961E+02</totfact>
</mgrwt>
</event>
<event>
 4    1  0.3757815E-001  0.2158453E+03  0.7546771E-02  0.1137019E+00
          1   -1    0    0  502    0  0.00000000000E+00  0.00000000000E+00  0.54946008301E+03  0.54946008301E+03  0.00000000000E+00 0. -1.
         -1   -1    0    0    0  501 -0.00000000000E+00 -0.00000000000E+00 -0.10952339348E+03  0.10952339348E+03  0.00000000000E+00 0.  1.
          6    1    1    2  502    0  0.46501204548E+02  0.12183122479E+03  0.37654431975E+03  0.43402169772E+03  0.17200000000E+03 0. -1.
         -6    1    1    2    0  501 -0.46501204548E+02 -0.12183122479E+03  0.63392369782E+02  0.22496177876E+03  0.17200000000E+03 0.  1.
<mgrwt>
<rscale>  2 0.21584534E+03</rscale>
<asrwt>0</asrwt>
<pdfrwt beam="1">  1        1 0.13736501E+00 0.21584534E+03</pdfrwt>
<pdfrwt beam="2">  1       -1 0.27380850E-01 0.21584534E+03</pdfrwt>
<totfact> 0.23526443E+02</totfact>
</mgrwt>
</event>
<event>
 4    1  0.3757815E-001  0.1897090E+03  0.7546771E-02  0.1158724E+00
         -2   -1    0    0    0  501 -0.00000000000E+00  0.00000000000E+00  0.29198175722E+03  0.29198175722E+03  0.00000000000E+00 0.  1.
          2   -1    0    0  502    0  0.00000000000E+00 -0.00000000000E+00 -0.22662243972E+03  0.22662243972E+03  0.00000000000E+00 0. -1.
          6    1    1    2  502    0  0.18597674236E+02  0.77843551551E+02 -0.14244094370E+03  0.23723177369E+03  0.17200000000E+03 0. -1.
         -6    1    1    2    0  501 -0.18597674236E+02 -0.77843551551E+02  0.20780026121E+03  0.28137242324E+03  0.17200000000E+03 0.  1.
<mgrwt>
<rscale>  2 0.18970897E+03</rscale>
<asrwt>0</asrwt>
<pdfrwt beam="1">  1        2 0.56655610E-01 0.18970897E+03</pdfrwt>
<pdfrwt beam="2">  1       -2 0.72995439E-01 0.18970897E+03</pdfrwt>
<totfact> 0.15487101E+02</totfact>
</mgrwt>
</event>
<event>
 4    1  0.3757815E-001  0.1784317E+03  0.7546771E-02  0.1169329E+00
         -1   -1    0    0    0  501 -0.00000000000E+00  0.00000000000E+00  0.99334858914E+02  0.99334858914E+02  0.00000000000E+00 0. -1.
          1   -1    0    0  502    0  0.00000000000E+00 -0.00000000000E+00 -0.40927523646E+03  0.40927523646E+03  0.00000000000E+00 0.  1.
          6    1    1    2  502    0  0.44931456726E+02 -0.15331386558E+02 -0.36538767637E+02  0.18213447987E+03  0.17200000000E+03 0. -1.
         -6    1    1    2    0  501 -0.44931456726E+02  0.15331386558E+02 -0.27340160990E+03  0.32647561550E+03  0.17200000000E+03 0.  1.
<mgrwt>
<rscale>  2 0.17843174E+03</rscale>
<asrwt>0</asrwt>
<pdfrwt beam="1">  1        1 0.10231881E+00 0.17843174E+03</pdfrwt>
<pdfrwt beam="2">  1       -1 0.24833715E-01 0.17843174E+03</pdfrwt>
<totfact> 0.43386649E+02</totfact>
</mgrwt>
</event>
<event>
 4    1  0.3757815E-001  0.2055952E+03  0.7546771E-02  0.1145102E+00
         -1   -1    0    0    0  501 -0.00000000000E+00  0.00000000000E+00  0.81687920409E+02  0.81687920409E+02  0.00000000000E+00 0.  1.
          1   -1    0    0  502    0  0.00000000000E+00 -0.00000000000E+00 -0.55606943013E+03  0.55606943013E+03  0.00000000000E+00 0. -1.
          6    1    1    2  502    0 -0.11166066875E+03 -0.14740856497E+02 -0.32122669082E+03  0.38138692255E+03  0.17200000000E+03 0.  1.
         -6    1    1    2    0  501  0.11166066875E+03  0.14740856497E+02 -0.15315481890E+03  0.25637042799E+03  0.17200000000E+03 0. -1.
<mgrwt>
<rscale>  2 0.20559523E+03</rscale>
<asrwt>0</asrwt>
<pdfrwt beam="1">  1        1 0.13901736E+00 0.20559523E+03</pdfrwt>
<pdfrwt beam="2">  1       -1 0.20421980E-01 0.20559523E+03</pdfrwt>
<totfact> 0.37506160E+02</totfact>
</mgrwt>
</event>
<event>
 4    1  0.3757815E-001  0.2073018E+03  0.7546771E-02  0.1143721E+00
         -2   -1    0    0    0  501 -0.00000000000E+00  0.00000000000E+00  0.64861172305E+02  0.64861172305E+02  0.00000000000E+00 0. -1.
          2   -1    0    0  502    0  0.00000000000E+00 -0.00000000000E+00 -0.71366648678E+03  0.71366648678E+03  0.00000000000E+00 0.  1.
          6    1    1    2  502    0  0.10988556358E+03 -0.36265856071E+02 -0.22022883985E+03  0.30244799768E+03  0.17200000000E+03 0. -1.
         -6    1    1    2    0  501 -0.10988556358E+03  0.36265856071E+02 -0.42857647463E+03  0.47607966141E+03  0.17200000000E+03 0.  1.
<mgrwt>
<rscale>  2 0.20730183E+03</rscale>
<asrwt>0</asrwt>
<pdfrwt beam="1">  1        2 0.17841662E+00 0.20730183E+03</pdfrwt>
<pdfrwt beam="2">  1       -2 0.16215293E-01 0.20730183E+03</pdfrwt>
<totfact> 0.63956662E+02</totfact>
</mgrwt>
</event>
<event>
 4    1  0.3757815E-001  0.2014978E+03  0.7546771E-02  0.1148481E+00
         -2   -1    0    0    0  501 -0.00000000000E+00  0.00000000000E+00  0.60318095005E+02  0.60318095005E+02  0.00000000000E+00 0. -1.
          2   -1    0    0  502    0  0.00000000000E+00 -0.00000000000E+00 -0.70688271608E+03  0.70688271608E+03  0.00000000000E+00 0.  1.
          6    1    1    2  502    0  0.10079634689E+03  0.29282212176E+02 -0.40711633044E+03  0.45425219648E+03  0.17200000000E+03 0.  1.
         -6    1    1    2    0  501 -0.10079634689E+03 -0.29282212176E+02 -0.23944829064E+03  0.31294861461E+03  0.17200000000E+03 0. -1.
<mgrwt>
<rscale>  2 0.20149777E+03</rscale>
<asrwt>0</asrwt>
<pdfrwt beam="1">  1        2 0.17672068E+00 0.20149777E+03</pdfrwt>
<pdfrwt beam="2">  1       -2 0.15079524E-01 0.20149777E+03</pdfrwt>
<totfact> 0.73227665E+02</totfact>
</mgrwt>
</event>
<event>
 4    1  0.3757815E-001  0.2427481E+03  0.7546771E-02  0.1117976E+00
         -2   -1    0    0    0  501 -0.00000000000E+00  0.00000000000E+00  0.12382717525E+03  0.12382717525E+03  0.00000000000E+00 0. -1.
          2   -1    0    0  502    0  0.00000000000E+00 -0.00000000000E+00 -0.51649311406E+03  0.51649311406E+03  0.00000000000E+00 0.  1.
          6    1    1    2  502    0  0.12204025996E+03 -0.12020330288E+03 -0.28611253882E+03  0.37521599639E+03  0.17200000000E+03 0.  1.
         -6    1    1    2    0  501 -0.12204025996E+03  0.12020330288E+03 -0.10655339999E+03  0.26510429292E+03  0.17200000000E+03 0. -1.
<mgrwt>
<rscale>  2 0.24274814E+03</rscale>
<asrwt>0</asrwt>
<pdfrwt beam="1">  1        2 0.12912328E+00 0.24274814E+03</pdfrwt>
<pdfrwt beam="2">  1       -2 0.30956794E-01 0.24274814E+03</pdfrwt>
<totfact> 0.32525930E+02</totfact>
</mgrwt>
</event>
<event>
 4    1  0.3757815E-001  0.2018814E+03  0.7546771E-02  0.1148161E+00
          2   -1    0    0  502    0  0.00000000000E+00  0.00000000000E+00  0.37235108839E+03  0.37235108839E+03  0.00000000000E+00 0. -1.
         -2   -1    0    0    0  501 -0.00000000000E+00 -0.00000000000E+00 -0.61367234984E+03  0.61367234984E+03  0.00000000000E+00 0.  1.
          6    1    1    2  502    0 -0.10398385937E+03 -0.18959779814E+02  0.32622600044E+03  0.38363983060E+03  0.17200000000E+03 0. -1.
         -6    1    1    2    0  501  0.10398385937E+03  0.18959779814E+02 -0.56754726189E+03  0.60238360763E+03  0.17200000000E+03 0.  1.
<mgrwt>
<rscale>  2 0.20188144E+03</rscale>
<asrwt>0</asrwt>
<pdfrwt beam="1">  1        2 0.93087772E-01 0.20188144E+03</pdfrwt>
<pdfrwt beam="2">  1       -2 0.15341809E+00 0.20188144E+03</pdfrwt>
<totfact> 0.15487938E+01</totfact>
</mgrwt>
</event>
<event>
 4    1  0.3757815E-001  0.2596543E+03  0.7546771E-02  0.1107351E+00
          2   -1    0    0  502    0  0.00000000000E+00  0.00000000000E+00  0.70234276203E+03  0.70234276203E+03  0.00000000000E+00 0. -1.
         -2   -1    0    0    0  501 -0.00000000000E+00 -0.00000000000E+00 -0.31825555137E+03  0.31825555137E+03  0.00000000000E+00 0.  1.
          6    1    1    2  502    0  0.19421264433E+03  0.10854201276E+02 -0.23440773247E+03  0.34981044859E+03  0.17200000000E+03 0.  1.
         -6    1    1    2    0  501 -0.19421264433E+03 -0.10854201276E+02  0.61849494313E+03  0.67078786481E+03  0.17200000000E+03 0. -1.
<mgrwt>
<rscale>  2 0.25965432E+03</rscale>
<asrwt>0</asrwt>
<pdfrwt beam="1">  1        2 0.17558569E+00 0.25965432E+03</pdfrwt>
<pdfrwt beam="2">  1       -2 0.79563889E-01 0.25965432E+03</pdfrwt>
<totfact> 0.31773025E+01</totfact>
</mgrwt>
</event>
<event>
 4    1  0.3757815E-001  0.1861622E+03  0.7546771E-02  0.1161969E+00
         -1   -1    0    0    0  501 -0.00000000000E+00  0.00000000000E+00  0.99736784839E+03  0.99736784839E+03  0.00000000000E+00 0. -1.
          1   -1    0    0  502    0  0.00000000000E+00 -0.00000000000E+00 -0.45979552821E+02  0.45979552821E+02  0.00000000000E+00 0.  1.
          6    1    1    2  502    0  0.23270330642E+02 -0.67311561147E+02  0.73352805461E+03  0.75678250604E+03  0.17200000000E+03 0. -1.
         -6    1    1    2    0  501 -0.23270330642E+02  0.67311561147E+02  0.21786024096E+03  0.28656489517E+03  0.17200000000E+03 0.  1.
<mgrwt>
<rscale>  2 0.18616217E+03</rscale>
<asrwt>0</asrwt>
<pdfrwt beam="1">  1        1 0.11494891E-01 0.18616217E+03</pdfrwt>
<pdfrwt beam="2">  1       -1 0.24934189E+00 0.18616217E+03</pdfrwt>
<totfact> 0.43582847E+01</totfact>
</mgrwt>
</event>
<event>
 4    1  0.3757815E-001  0.1995469E+03  0.7546771E-02  0.1150122E+00
         -2   -1    0    0    0  501 -0.00000000000E+00  0.00000000000E+00  0.28790273150E+03  0.28790273150E+03  0.00000000000E+00 0.  1.
          2   -1    0    0  502    0  0.00000000000E+00 -0.00000000000E+00 -0.31574551765E+03  0.31574551765E+03  0.00000000000E+00 0. -1.
          6    1    1    2  502    0  0.31248903319E+02  0.96221036901E+02  0.21233935726E+03  0.29138803088E+03  0.17200000000E+03 0.  1.
         -6    1    1    2    0  501 -0.31248903319E+02 -0.96221036901E+02 -0.24018214340E+03  0.31226021827E+03  0.17200000000E+03 0. -1.
<mgrwt>
<rscale>  2 0.19954694E+03</rscale>
<asrwt>0</asrwt>
<pdfrwt beam="1">  1        2 0.78936379E-01 0.19954694E+03</pdfrwt>
<pdfrwt beam="2">  1       -2 0.71975683E-01 0.19954694E+03</pdfrwt>
<totfact> 0.11093880E+02</totfact>
</mgrwt>
</event>
<event>
 4    1  0.3757815E-001  0.2180291E+03  0.7546771E-02  0.1135361E+00
         -2   -1    0    0    0  501 -0.00000000000E+00  0.00000000000E+00  0.28402184572E+03  0.28402184572E+03  0.00000000000E+00 0.  1.
          2   -1    0    0  502    0  0.00000000000E+00 -0.00000000000E+00 -0.19834946384E+03  0.19834946384E+03  0.00000000000E+00 0. -1.
          6    1    1    2  502    0  0.24266077550E+02 -0.13177201573E+03  0.13815390945E+03  0.25811472128E+03  0.17200000000E+03 0.  1.
         -6    1    1    2    0  501 -0.24266077550E+02  0.13177201573E+03 -0.52481527569E+02  0.22425658827E+03  0.17200000000E+03 0. -1.
<mgrwt>
<rscale>  2 0.21802914E+03</rscale>
<asrwt>0</asrwt>
<pdfrwt beam="1">  1        2 0.49587366E-01 0.21802914E+03</pdfrwt>
<pdfrwt beam="2">  1       -2 0.71005461E-01 0.21802914E+03</pdfrwt>
<totfact> 0.18920585E+02</totfact>
</mgrwt>
</event>
<event>
 4    1  0.3757815E-001  0.2347305E+03  0.7546771E-02  0.1123354E+00
         -1   -1    0    0    0  501 -0.00000000000E+00  0.00000000000E+00  0.25644176520E+03  0.25644176520E+03  0.00000000000E+00 0.  1.
          1   -1    0    0  502    0  0.00000000000E+00 -0.00000000000E+00 -0.21582238551E+03  0.21582238551E+03  0.00000000000E+00 0. -1.
          6    1    1    2  502    0 -0.19636799169E+02  0.15852072521E+03  0.45206586369E+01  0.23477406278E+03  0.17200000000E+03 0.  1.
         -6    1    1    2    0  501  0.19636799169E+02 -0.15852072521E+03  0.36098721061E+02  0.23749008793E+03  0.17200000000E+03 0.  1.
<mgrwt>
<rscale>  2 0.23473054E+03</rscale>
<asrwt>0</asrwt>
<pdfrwt beam="1">  1        1 0.53955596E-01 0.23473054E+03</pdfrwt>
<pdfrwt beam="2">  1       -1 0.64110441E-01 0.23473054E+03</pdfrwt>
<totfact> 0.18580731E+02</totfact>
</mgrwt>
</event>
<event>
 4    1  0.3757815E-001  0.2106848E+03  0.7546771E-02  0.1141025E+00
          2   -1    0    0  502    0  0.00000000000E+00  0.00000000000E+00  0.87115043399E+03  0.87115043399E+03  0.00000000000E+00 0.  1.
         -2   -1    0    0    0  501 -0.00000000000E+00 -0.00000000000E+00 -0.52468546493E+02  0.52468546493E+02  0.00000000000E+00 0. -1.
          6    1    1    2  502    0  0.51343213196E+02  0.11030841722E+03  0.33086413771E+03  0.39224883693E+03  0.17200000000E+03 0. -1.
         -6    1    1    2    0  501 -0.51343213196E+02 -0.11030841722E+03  0.48781774979E+03  0.53137014355E+03  0.17200000000E+03 0. -1.
<mgrwt>
<rscale>  2 0.21068477E+03</rscale>
<asrwt>0</asrwt>
<pdfrwt beam="1">  1        2 0.21778756E+00 0.21068477E+03</pdfrwt>
<pdfrwt beam="2">  1       -2 0.13117139E-01 0.21068477E+03</pdfrwt>
<totfact> 0.65457053E+02</totfact>
</mgrwt>
</event>
<event>
 4    1  0.3757815E-001  0.2101413E+03  0.7546771E-02  0.1141454E+00
          2   -1    0    0  502    0  0.00000000000E+00  0.00000000000E+00  0.61283768977E+03  0.61283768977E+03  0.00000000000E+00 0.  1.
         -2   -1    0    0    0  501 -0.00000000000E+00 -0.00000000000E+00 -0.72601768549E+02  0.72601768549E+02  0.00000000000E+00 0. -1.
          6    1    1    2  502    0  0.61205840722E+02 -0.10406349579E+03  0.24043597092E+03  0.31932557400E+03  0.17200000000E+03 0.  1.
         -6    1    1    2    0  501 -0.61205840722E+02  0.10406349579E+03  0.29979995030E+03  0.36611388432E+03  0.17200000000E+03 0. -1.
<mgrwt>
<rscale>  2 0.21014130E+03</rscale>
<asrwt>0</asrwt>
<pdfrwt beam="1">  1        2 0.15320941E+00 0.21014130E+03</pdfrwt>
<pdfrwt beam="2">  1       -2 0.18150444E-01 0.21014130E+03</pdfrwt>
<totfact> 0.66105777E+02</totfact>
</mgrwt>
</event>
<event>
 4    1  0.3757815E-001  0.1923604E+03  0.7546771E-02  0.1156349E+00
          1   -1    0    0  502    0  0.00000000000E+00  0.00000000000E+00  0.11928740501E+04  0.11928740501E+04  0.00000000000E+00 0.  1.
         -1   -1    0    0    0  501 -0.00000000000E+00 -0.00000000000E+00 -0.31026652053E+02  0.31026652053E+02  0.00000000000E+00 0. -1.
          6    1    1    2  502    0 -0.30369129265E+02 -0.80599243801E+02  0.59012416632E+03  0.62068434311E+03  0.17200000000E+03 0.  1.
         -6    1    1    2    0  501  0.30369129265E+02  0.80599243801E+02  0.57172323170E+03  0.60321635901E+03  0.17200000000E+03 0. -1.
<mgrwt>
<rscale>  2 0.19236040E+03</rscale>
<asrwt>0</asrwt>
<pdfrwt beam="1">  1        1 0.29821836E+00 0.19236040E+03</pdfrwt>
<pdfrwt beam="2">  1       -1 0.77566670E-02 0.19236040E+03</pdfrwt>
<totfact> 0.33987881E+02</totfact>
</mgrwt>
</event>
<event>
 4    1  0.3757815E-001  0.3134766E+03  0.7546771E-02  0.1078691E+00
         -1   -1    0    0    0  501 -0.00000000000E+00  0.00000000000E+00  0.40573634900E+03  0.40573634900E+03  0.00000000000E+00 0.  1.
          1   -1    0    0  502    0  0.00000000000E+00 -0.00000000000E+00 -0.25076669297E+03  0.25076669297E+03  0.00000000000E+00 0. -1.
          6    1    1    2  502    0 -0.24921560317E+03 -0.81087306630E+02  0.13817094075E+03  0.34257667321E+03  0.17200000000E+03 0. -1.
         -6    1    1    2    0  501  0.24921560317E+03  0.81087306630E+02  0.16798715282E+02  0.31392636875E+03  0.17200000000E+03 0.  1.
<mgrwt>
<rscale>  2 0.31347658E+03</rscale>
<asrwt>0</asrwt>
<pdfrwt beam="1">  1        1 0.62691674E-01 0.31347658E+03</pdfrwt>
<pdfrwt beam="2">  1       -1 0.10143409E+00 0.31347658E+03</pdfrwt>
<totfact> 0.57985693E+01</totfact>
</mgrwt>
</event>
<event>
 4    1  0.3757815E-001  0.2074888E+03  0.7546771E-02  0.1143570E+00
         -1   -1    0    0    0  501 -0.00000000000E+00  0.00000000000E+00  0.33351801128E+02  0.33351801128E+02  0.00000000000E+00 0.  1.
          1   -1    0    0  502    0  0.00000000000E+00 -0.00000000000E+00 -0.13963061183E+04  0.13963061183E+04  0.00000000000E+00 0. -1.
          6    1    1    2  502    0  0.14437831092E+02  0.11514839722E+03 -0.48501324885E+03  0.52753147385E+03  0.17200000000E+03 0.  1.
         -6    1    1    2    0  501 -0.14437831092E+02 -0.11514839722E+03 -0.87794106828E+03  0.90212644553E+03  0.17200000000E+03 0. -1.
<mgrwt>
<rscale>  2 0.20748881E+03</rscale>
<asrwt>0</asrwt>
<pdfrwt beam="1">  1        1 0.34907650E+00 0.20748881E+03</pdfrwt>
<pdfrwt beam="2">  1       -1 0.83379510E-02 0.20748881E+03</pdfrwt>
<totfact> 0.18545004E+02</totfact>
</mgrwt>
</event>
<event>
 4    1  0.3757815E-001  0.1888489E+03  0.7546771E-02  0.1159504E+00
          2   -1    0    0  502    0  0.00000000000E+00  0.00000000000E+00  0.15208333696E+04  0.15208333696E+04  0.00000000000E+00 0. -1.
         -2   -1    0    0    0  501 -0.00000000000E+00 -0.00000000000E+00 -0.23861400987E+02  0.23861400987E+02  0.00000000000E+00 0.  1.
          6    1    1    2  502    0 -0.36476167821E+01  0.77888505467E+02  0.64710306301E+03  0.67409665371E+03  0.17200000000E+03 0.  1.
         -6    1    1    2    0  501  0.36476167821E+01 -0.77888505467E+02  0.84986890564E+03  0.87059811691E+03  0.17200000000E+03 0.  1.
<mgrwt>
<rscale>  2 0.18884895E+03</rscale>
<asrwt>0</asrwt>
<pdfrwt beam="1">  1        2 0.38020802E+00 0.18884895E+03</pdfrwt>
<pdfrwt beam="2">  1       -2 0.59653554E-02 0.18884895E+03</pdfrwt>
<totfact> 0.63266147E+02</totfact>
</mgrwt>
</event>
<event>
 4    1  0.3757815E-001  0.2317605E+03  0.7546771E-02  0.1125407E+00
          1   -1    0    0  502    0  0.00000000000E+00  0.00000000000E+00  0.55280017787E+03  0.55280017787E+03  0.00000000000E+00 0. -1.
         -1   -1    0    0    0  501 -0.00000000000E+00 -0.00000000000E+00 -0.22989202583E+03  0.22989202583E+03  0.00000000000E+00 0.  1.
          6    1    1    2  502    0 -0.14104514670E+03  0.65078425890E+02  0.45881125454E+03  0.51402402883E+03  0.17200000000E+03 0. -1.
         -6    1    1    2    0  501  0.14104514670E+03 -0.65078425890E+02 -0.13590310249E+03  0.26866817488E+03  0.17200000000E+03 0.  1.
<mgrwt>
<rscale>  2 0.23176051E+03</rscale>
<asrwt>0</asrwt>
<pdfrwt beam="1">  1        1 0.13820004E+00 0.23176051E+03</pdfrwt>
<pdfrwt beam="2">  1       -1 0.57473007E-01 0.23176051E+03</pdfrwt>
<totfact> 0.62092786E+01</totfact>
</mgrwt>
</event>
<event>
 4    1  0.3757815E-001  0.2026254E+03  0.7546771E-02  0.1147543E+00
         -2   -1    0    0    0  501 -0.00000000000E+00  0.00000000000E+00  0.58989648630E+02  0.58989648630E+02  0.00000000000E+00 0.  1.
          2   -1    0    0  502    0  0.00000000000E+00 -0.00000000000E+00 -0.71694166923E+03  0.71694166923E+03  0.00000000000E+00 0. -1.
          6    1    1    2  502    0 -0.10027174646E+03 -0.37664549348E+02 -0.39527604890E+03  0.44418486720E+03  0.17200000000E+03 0. -1.
         -6    1    1    2    0  501  0.10027174646E+03  0.37664549348E+02 -0.26267597170E+03  0.33174645066E+03  0.17200000000E+03 0. -1.
<mgrwt>
<rscale>  2 0.20262537E+03</rscale>
<asrwt>0</asrwt>
<pdfrwt beam="1">  1        2 0.17923542E+00 0.20262537E+03</pdfrwt>
<pdfrwt beam="2">  1       -2 0.14747412E-01 0.20262537E+03</pdfrwt>
<totfact> 0.74342825E+02</totfact>
</mgrwt>
</event>
<event>
 4    1  0.3757815E-001  0.2523133E+03  0.7546771E-02  0.1111852E+00
          1   -1    0    0  502    0  0.00000000000E+00  0.00000000000E+00  0.10771252852E+04  0.10771252852E+04  0.00000000000E+00 0.  1.
         -1   -1    0    0    0  501 -0.00000000000E+00 -0.00000000000E+00 -0.61895815697E+02  0.61895815697E+02  0.00000000000E+00 0. -1.
          6    1    1    2  502    0  0.17608853833E+03 -0.55415117269E+02  0.62857526834E+03  0.67732479396E+03  0.17200000000E+03 0. -1.
         -6    1    1    2    0  501 -0.17608853833E+03  0.55415117269E+02  0.38665420114E+03  0.46169630690E+03  0.17200000000E+03 0. -1.
<mgrwt>
<rscale>  2 0.25231331E+03</rscale>
<asrwt>0</asrwt>
<pdfrwt beam="1">  1        1 0.26928126E+00 0.25231331E+03</pdfrwt>
<pdfrwt beam="2">  1       -1 0.15473957E-01 0.25231331E+03</pdfrwt>
<totfact> 0.15141488E+02</totfact>
</mgrwt>
</event>
<event>
 4    1  0.3757815E-001  0.3941362E+03  0.7546771E-02  0.1045829E+00
         -2   -1    0    0    0  501 -0.00000000000E+00  0.00000000000E+00  0.63948049182E+03  0.63948049182E+03  0.00000000000E+00 0.  1.
          2   -1    0    0  502    0  0.00000000000E+00 -0.00000000000E+00 -0.31126286706E+03  0.31126286706E+03  0.00000000000E+00 0. -1.
          6    1    1    2  502    0  0.77596997633E+02  0.34603191551E+03 -0.58638448333E+02  0.39847440096E+03  0.17200000000E+03 0. -1.
         -6    1    1    2    0  501 -0.77596997633E+02 -0.34603191551E+03  0.38685607309E+03  0.55226895792E+03  0.17200000000E+03 0.  1.
<mgrwt>
<rscale>  2 0.39413625E+03</rscale>
<asrwt>0</asrwt>
<pdfrwt beam="1">  1        2 0.77815718E-01 0.39413625E+03</pdfrwt>
<pdfrwt beam="2">  1       -2 0.15987012E+00 0.39413625E+03</pdfrwt>
<totfact> 0.16275357E+01</totfact>
</mgrwt>
</event>
<event>
 4    1  0.3757815E-001  0.2122983E+03  0.7546771E-02  0.1139759E+00
          2   -1    0    0  502    0  0.00000000000E+00  0.00000000000E+00  0.82878188748E+03  0.82878188748E+03  0.00000000000E+00 0.  1.
         -2   -1    0    0    0  501 -0.00000000000E+00 -0.00000000000E+00 -0.54824957365E+02  0.54824957365E+02  0.00000000000E+00 0. -1.
          6    1    1    2  502    0 -0.11728849095E+03 -0.41593053383E+02  0.42670360222E+03  0.47659892609E+03  0.17200000000E+03 0.  1.
         -6    1    1    2    0  501  0.11728849095E+03  0.41593053383E+02  0.34725332789E+03  0.40700791876E+03  0.17200000000E+03 0. -1.
<mgrwt>
<rscale>  2 0.21229831E+03</rscale>
<asrwt>0</asrwt>
<pdfrwt beam="1">  1        2 0.20719543E+00 0.21229831E+03</pdfrwt>
<pdfrwt beam="2">  1       -2 0.13706242E-01 0.21229831E+03</pdfrwt>
<totfact> 0.66370030E+02</totfact>
</mgrwt>
</event>
<event>
 4    1  0.3757815E-001  0.1728631E+03  0.7546771E-02  0.1174895E+00
          3   -1    0    0  502    0  0.00000000000E+00  0.00000000000E+00  0.79535111777E+02  0.79535111777E+02  0.00000000000E+00 0.  1.
         -3   -1    0    0    0  501 -0.00000000000E+00 -0.00000000000E+00 -0.47347459565E+03  0.47347459565E+03  0.00000000000E+00 0. -1.
          6    1    1    2  502    0  0.15968496211E+02 -0.65315411018E+01 -0.71320836701E+02  0.18699817017E+03  0.17200000000E+03 0.  1.
         -6    1    1    2    0  501 -0.15968496211E+02  0.65315411018E+01 -0.32261864717E+03  0.36601153725E+03  0.17200000000E+03 0. -1.
<mgrwt>
<rscale>  2 0.17286311E+03</rscale>
<asrwt>0</asrwt>
<pdfrwt beam="1">  1        3 0.19883778E-01 0.17286311E+03</pdfrwt>
<pdfrwt beam="2">  1       -3 0.11836865E+00 0.17286311E+03</pdfrwt>
<totfact> 0.33493772E+01</totfact>
</mgrwt>
</event>
<event>
 4    1  0.3757815E-001  0.2278645E+03  0.7546771E-02  0.1128152E+00
         -1   -1    0    0    0  501 -0.00000000000E+00  0.00000000000E+00  0.89007999114E+02  0.89007999114E+02  0.00000000000E+00 0. -1.
          1   -1    0    0  502    0  0.00000000000E+00 -0.00000000000E+00 -0.79286274210E+03  0.79286274210E+03  0.00000000000E+00 0.  1.
          6    1    1    2  502    0 -0.66391583176E+02  0.13390441429E+03 -0.12526056386E+03  0.26002392840E+03  0.17200000000E+03 0. -1.
         -6    1    1    2    0  501  0.66391583176E+02 -0.13390441429E+03 -0.57859417912E+03  0.62184681281E+03  0.17200000000E+03 0.  1.
<mgrwt>
<rscale>  2 0.22786451E+03</rscale>
<asrwt>0</asrwt>
<pdfrwt beam="1">  1        1 0.19821569E+00 0.22786451E+03</pdfrwt>
<pdfrwt beam="2">  1       -1 0.22252000E-01 0.22786451E+03</pdfrwt>
<totfact> 0.17119203E+02</totfact>
</mgrwt>
</event>
<event>
 4    1  0.3757815E-001  0.1881940E+03  0.7546771E-02  0.1160100E+00
          1   -1    0    0  502    0  0.00000000000E+00  0.00000000000E+00  0.27439648739E+03  0.27439648739E+03  0.00000000000E+00 0. -1.
         -1   -1    0    0    0  501 -0.00000000000E+00 -0.00000000000E+00 -0.13326511650E+03  0.13326511650E+03  0.00000000000E+00 0.  1.
          6    1    1    2  502    0  0.76242054704E+02  0.44871133408E+01  0.34410997151E+02  0.19131414432E+03  0.17200000000E+03 0.  1.
         -6    1    1    2    0  501 -0.76242054704E+02 -0.44871133408E+01  0.10672037375E+03  0.21634745957E+03  0.17200000000E+03 0. -1.
<mgrwt>
<rscale>  2 0.18819401E+03</rscale>
<asrwt>0</asrwt>
<pdfrwt beam="1">  1        1 0.68599121E-01 0.18819401E+03</pdfrwt>
<pdfrwt beam="2">  1       -1 0.33316280E-01 0.18819401E+03</pdfrwt>
<totfact> 0.45292411E+02</totfact>
</mgrwt>
</event>
<event>
 4    1  0.3757815E-001  0.2198460E+03  0.7546771E-02  0.1133998E+00
          3   -1    0    0  502    0  0.00000000000E+00  0.00000000000E+00  0.20540355937E+03  0.20540355937E+03  0.00000000000E+00 0.  1.
         -3   -1    0    0    0  501 -0.00000000000E+00 -0.00000000000E+00 -0.32704144310E+03  0.32704144310E+03  0.00000000000E+00 0. -1.
          6    1    1    2  502    0 -0.53934798510E+02 -0.12585434564E+03 -0.20181815326E+03  0.29843398900E+03  0.17200000000E+03 0. -1.
         -6    1    1    2    0  501  0.53934798510E+02  0.12585434564E+03  0.80180269524E+02  0.23401101347E+03  0.17200000000E+03 0.  1.
<mgrwt>
<rscale>  2 0.21984603E+03</rscale>
<asrwt>0</asrwt>
<pdfrwt beam="1">  1        3 0.51350890E-01 0.21984603E+03</pdfrwt>
<pdfrwt beam="2">  1       -3 0.81760360E-01 0.21984603E+03</pdfrwt>
<totfact> 0.13211697E+01</totfact>
</mgrwt>
</event>
<event>
 4    1  0.3757815E-001  0.2082424E+03  0.7546771E-02  0.1142965E+00
         -1   -1    0    0    0  501 -0.00000000000E+00  0.00000000000E+00  0.17092587488E+03  0.17092587488E+03  0.00000000000E+00 0.  1.
          1   -1    0    0  502    0  0.00000000000E+00 -0.00000000000E+00 -0.25600925263E+03  0.25600925263E+03  0.00000000000E+00 0. -1.
          6    1    1    2  502    0 -0.97316954264E+02  0.65653028834E+02 -0.22293765275E+02  0.20943237990E+03  0.17200000000E+03 0.  1.
         -6    1    1    2    0  501  0.97316954264E+02 -0.65653028834E+02 -0.62789612477E+02  0.21750274761E+03  0.17200000000E+03 0. -1.
<mgrwt>
<rscale>  2 0.20824243E+03</rscale>
<asrwt>0</asrwt>
<pdfrwt beam="1">  1        1 0.64002313E-01 0.20824243E+03</pdfrwt>
<pdfrwt beam="2">  1       -1 0.42731469E-01 0.20824243E+03</pdfrwt>
<totfact> 0.31966988E+02</totfact>
</mgrwt>
</event>
<event>
 4    1  0.3757815E-001  0.1957189E+03  0.7546771E-02  0.1153402E+00
          2   -1    0    0  502    0  0.00000000000E+00  0.00000000000E+00  0.85242306566E+03  0.85242306566E+03  0.00000000000E+00 0. -1.
         -2   -1    0    0    0  501 -0.00000000000E+00 -0.00000000000E+00 -0.46604870303E+02  0.46604870303E+02  0.00000000000E+00 0.  1.
          6    1    1    2  502    0 -0.57754525521E+02 -0.73391349943E+02  0.31788810715E+03  0.37330781419E+03  0.17200000000E+03 0.  1.
         -6    1    1    2    0  501  0.57754525521E+02  0.73391349943E+02  0.48793008821E+03  0.52572012178E+03  0.17200000000E+03 0. -1.
<mgrwt>
<rscale>  2 0.19571887E+03</rscale>
<asrwt>0</asrwt>
<pdfrwt beam="1">  1        2 0.21310572E+00 0.19571887E+03</pdfrwt>
<pdfrwt beam="2">  1       -2 0.11651220E-01 0.19571887E+03</pdfrwt>
<totfact> 0.82467284E+02</totfact>
</mgrwt>
</event>
<event>
 4    1  0.3757815E-001  0.2287881E+03  0.7546771E-02  0.1127496E+00
          2   -1    0    0  502    0  0.00000000000E+00  0.00000000000E+00  0.11093532779E+04  0.11093532779E+04  0.00000000000E+00 0.  1.
         -2   -1    0    0    0  501 -0.00000000000E+00 -0.00000000000E+00 -0.47219236247E+02  0.47219236247E+02  0.00000000000E+00 0. -1.
          6    1    1    2  502    0  0.99715976136E+02 -0.11321100036E+03  0.54680718120E+03  0.59274117447E+03  0.17200000000E+03 0. -1.
         -6    1    1    2    0  501 -0.99715976136E+02  0.11321100036E+03  0.51532686046E+03  0.56383133968E+03  0.17200000000E+03 0. -1.
<mgrwt>
<rscale>  2 0.22878813E+03</rscale>
<asrwt>0</asrwt>
<pdfrwt beam="1">  1        2 0.27733823E+00 0.22878813E+03</pdfrwt>
<pdfrwt beam="2">  1       -2 0.11804813E-01 0.22878813E+03</pdfrwt>
<totfact> 0.48393046E+02</totfact>
</mgrwt>
</event>
<event>
 4    1  0.3757815E-001  0.4071126E+03  0.7546771E-02  0.1041344E+00
         -2   -1    0    0    0  501 -0.00000000000E+00  0.00000000000E+00  0.14725475955E+03  0.14725475955E+03  0.00000000000E+00 0. -1.
          2   -1    0    0  502    0  0.00000000000E+00 -0.00000000000E+00 -0.11256176122E+04  0.11256176122E+04  0.00000000000E+00 0.  1.
          6    1    1    2  502    0 -0.25140575646E+03 -0.27009598284E+03 -0.48379869133E+03  0.63229887558E+03  0.17200000000E+03 0.  1.
         -6    1    1    2    0  501  0.25140575646E+03  0.27009598284E+03 -0.49456416129E+03  0.64057349614E+03  0.17200000000E+03 0. -1.
<mgrwt>
<rscale>  2 0.40711263E+03</rscale>
<asrwt>0</asrwt>
<pdfrwt beam="1">  1        2 0.28140440E+00 0.40711263E+03</pdfrwt>
<pdfrwt beam="2">  1       -2 0.36813691E-01 0.40711263E+03</pdfrwt>
<totfact> 0.62408240E+01</totfact>
</mgrwt>
</event>
<event>
 4    1  0.3757815E-001  0.1890744E+03  0.7546771E-02  0.1159299E+00
         -1   -1    0    0    0  501 -0.00000000000E+00  0.00000000000E+00  0.18822345337E+02  0.18822345337E+02  0.00000000000E+00 0. -1.
          1   -1    0    0  502    0  0.00000000000E+00 -0.00000000000E+00 -0.19892881279E+04  0.19892881279E+04  0.00000000000E+00 0.  1.
          6    1    1    2  502    0 -0.69657006511E+02 -0.36235690611E+02 -0.11987936489E+04  0.12136125150E+04  0.17200000000E+03 0.  1.
         -6    1    1    2    0  501  0.69657006511E+02  0.36235690611E+02 -0.77167213361E+03  0.79449795822E+03  0.17200000000E+03 0. -1.
<mgrwt>
<rscale>  2 0.18907439E+03</rscale>
<asrwt>0</asrwt>
<pdfrwt beam="1">  1        1 0.49732204E+00 0.18907439E+03</pdfrwt>
<pdfrwt beam="2">  1       -1 0.47055863E-02 0.18907439E+03</pdfrwt>
<totfact> 0.98317357E+01</totfact>
</mgrwt>
</event>
<event>
 4    1  0.3757815E-001  0.1888897E+03  0.7546771E-02  0.1159467E+00
          1   -1    0    0  502    0  0.00000000000E+00  0.00000000000E+00  0.73917971168E+03  0.73917971168E+03  0.00000000000E+00 0. -1.
         -1   -1    0    0    0  501 -0.00000000000E+00 -0.00000000000E+00 -0.48689713070E+02  0.48689713070E+02  0.00000000000E+00 0.  1.
          6    1    1    2  502    0 -0.32698883348E+02  0.70894991571E+02  0.30861790612E+03  0.36183467050E+03  0.17200000000E+03 0.  1.
         -6    1    1    2    0  501  0.32698883348E+02 -0.70894991571E+02  0.38187209250E+03  0.42603475425E+03  0.17200000000E+03 0. -1.
<mgrwt>
<rscale>  2 0.18888969E+03</rscale>
<asrwt>0</asrwt>
<pdfrwt beam="1">  1        1 0.18479489E+00 0.18888969E+03</pdfrwt>
<pdfrwt beam="2">  1       -1 0.12172431E-01 0.18888969E+03</pdfrwt>
<totfact> 0.51879422E+02</totfact>
</mgrwt>
</event>
<event>
 4    1  0.3757815E-001  0.2304039E+03  0.7546771E-02  0.1126356E+00
         -4   -1    0    0    0  501 -0.00000000000E+00  0.00000000000E+00  0.21545869603E+03  0.21545869603E+03  0.00000000000E+00 0.  1.
          4   -1    0    0  502    0  0.00000000000E+00 -0.00000000000E+00 -0.29416383830E+03  0.29416383830E+03  0.00000000000E+00 0. -1.
          6    1    1    2  502    0  0.12880747827E+03 -0.83129960834E+02  0.63339822467E+02  0.23895164774E+03  0.17200000000E+03 0.  1.
         -6    1    1    2    0  501 -0.12880747827E+03  0.83129960834E+02 -0.14204496473E+03  0.27067088660E+03  0.17200000000E+03 0. -1.
<mgrwt>
<rscale>  2 0.23040390E+03</rscale>
<asrwt>0</asrwt>
<pdfrwt beam="1">  1        4 0.73540959E-01 0.23040390E+03</pdfrwt>
<pdfrwt beam="2">  1       -4 0.53864674E-01 0.23040390E+03</pdfrwt>
<totfact> 0.10223870E+01</totfact>
</mgrwt>
</event>
<event>
 4    1  0.3757815E-001  0.4035706E+03  0.7546771E-02  0.1042550E+00
         -2   -1    0    0    0  501 -0.00000000000E+00  0.00000000000E+00  0.28933231056E+03  0.28933231056E+03  0.00000000000E+00 0.  1.
          2   -1    0    0  502    0  0.00000000000E+00 -0.00000000000E+00 -0.11278478332E+04  0.11278478332E+04  0.00000000000E+00 0. -1.
          6    1    1    2  502    0  0.31369748817E+03  0.18675947226E+03 -0.92075505348E+03  0.10053154147E+04  0.17200000000E+03 0. -1.
         -6    1    1    2    0  501 -0.31369748817E+03 -0.18675947226E+03  0.82239530878E+02  0.41186472901E+03  0.17200000000E+03 0.  1.
<mgrwt>
<rscale>  2 0.40357058E+03</rscale>
<asrwt>0</asrwt>
<pdfrwt beam="1">  1        2 0.28196196E+00 0.40357058E+03</pdfrwt>
<pdfrwt beam="2">  1       -2 0.72333078E-01 0.40357058E+03</pdfrwt>
<totfact> 0.15756526E+01</totfact>
</mgrwt>
</event>
<event>
 4    1  0.3757815E-001  0.2391370E+03  0.7546771E-02  0.1120369E+00
          2   -1    0    0  502    0  0.00000000000E+00  0.00000000000E+00  0.25592340168E+03  0.25592340168E+03  0.00000000000E+00 0.  1.
         -2   -1    0    0    0  501 -0.00000000000E+00 -0.00000000000E+00 -0.63981327492E+03  0.63981327492E+03  0.00000000000E+00 0. -1.
          6    1    1    2  502    0  0.16096046944E+03  0.41160799269E+02 -0.55323759021E+03  0.60270914656E+03  0.17200000000E+03 0. -1.
         -6    1    1    2    0  501 -0.16096046944E+03 -0.41160799269E+02  0.16934771698E+03  0.29302753005E+03  0.17200000000E+03 0.  1.
<mgrwt>
<rscale>  2 0.23913696E+03</rscale>
<asrwt>0</asrwt>
<pdfrwt beam="1">  1        2 0.63980851E-01 0.23913696E+03</pdfrwt>
<pdfrwt beam="2">  1       -2 0.15995332E+00 0.23913696E+03</pdfrwt>
<totfact> 0.20894569E+01</totfact>
</mgrwt>
</event>
<event>
 4    1  0.3757815E-001  0.1788769E+03  0.7546771E-02  0.1168894E+00
         -2   -1    0    0    0  501 -0.00000000000E+00  0.00000000000E+00  0.12698919768E+03  0.12698919768E+03  0.00000000000E+00 0.  1.
          2   -1    0    0  502    0  0.00000000000E+00 -0.00000000000E+00 -0.25918695513E+03  0.25918695513E+03  0.00000000000E+00 0. -1.
          6    1    1    2  502    0  0.83234671592E+01 -0.48411507574E+02 -0.33869819202E+02  0.18205526310E+03  0.17200000000E+03 0. -1.
         -6    1    1    2    0  501 -0.83234671592E+01  0.48411507574E+02 -0.98327938253E+02  0.20412088970E+03  0.17200000000E+03 0. -1.
<mgrwt>
<rscale>  2 0.17887692E+03</rscale>
<asrwt>0</asrwt>
<pdfrwt beam="1">  1        2 0.64796738E-01 0.17887692E+03</pdfrwt>
<pdfrwt beam="2">  1       -2 0.31747300E-01 0.17887692E+03</pdfrwt>
<totfact> 0.69653653E+02</totfact>
</mgrwt>
</event>
<event>
 4    1  0.3757815E-001  0.2066578E+03  0.7546771E-02  0.1144240E+00
         -1   -1    0    0    0  501 -0.00000000000E+00  0.00000000000E+00  0.12915388339E+03  0.12915388339E+03  0.00000000000E+00 0. -1.
          1   -1    0    0  502    0  0.00000000000E+00 -0.00000000000E+00 -0.40415539842E+03  0.40415539842E+03  0.00000000000E+00 0.  1.
          6    1    1    2  502    0  0.76628947798E+02  0.85155337172E+02 -0.25120401524E+03  0.32528585024E+03  0.17200000000E+03 0.  1.
         -6    1    1    2    0  501 -0.76628947798E+02 -0.85155337172E+02 -0.23797499781E+02  0.20802343158E+03  0.17200000000E+03 0. -1.
<mgrwt>
<rscale>  2 0.20665775E+03</rscale>
<asrwt>0</asrwt>
<pdfrwt beam="1">  1        1 0.10103885E+00 0.20665775E+03</pdfrwt>
<pdfrwt beam="2">  1       -1 0.32288471E-01 0.20665775E+03</pdfrwt>
<totfact> 0.28305959E+02</totfact>
</mgrwt>
</event>
<event>
 4    1  0.3757815E-001  0.2484370E+03  0.7546771E-02  0.1114297E+00
         -2   -1    0    0    0  501 -0.00000000000E+00  0.00000000000E+00  0.34040942519E+03  0.34040942519E+03  0.00000000000E+00 0. -1.
          2   -1    0    0  502    0  0.00000000000E+00 -0.00000000000E+00 -0.18263070934E+03  0.18263070934E+03  0.00000000000E+00 0.  1.
          6    1    1    2  502    0  0.17915338484E+03 -0.64049227249E+01  0.56682832900E+02  0.25482131363E+03  0.17200000000E+03 0. -1.
         -6    1    1    2    0  501 -0.17915338484E+03  0.64049227249E+01  0.10109588295E+03  0.26821882090E+03  0.17200000000E+03 0. -1.
<mgrwt>
<rscale>  2 0.24843703E+03</rscale>
<asrwt>0</asrwt>
<pdfrwt beam="1">  1        2 0.45657678E-01 0.24843703E+03</pdfrwt>
<pdfrwt beam="2">  1       -2 0.85102355E-01 0.24843703E+03</pdfrwt>
<totfact> 0.13864720E+02</totfact>
</mgrwt>
</event>
<event>
 4    1  0.3757815E-001  0.2376213E+03  0.7546771E-02  0.1121388E+00
         -2   -1    0    0    0  501 -0.00000000000E+00  0.00000000000E+00  0.13043069019E+03  0.13043069019E+03  0.00000000000E+00 0. -1.
          2   -1    0    0  502    0  0.00000000000E+00 -0.00000000000E+00 -0.10426530172E+04  0.10426530172E+04  0.00000000000E+00 0.  1.
          6    1    1    2  502    0  0.10675665459E+03 -0.12443034642E+03 -0.75673621926E+01  0.23774179141E+03  0.17200000000E+03 0. -1.
         -6    1    1    2    0  501 -0.10675665459E+03  0.12443034642E+03 -0.90465496479E+03  0.93534191595E+03  0.17200000000E+03 0.  1.
<mgrwt>
<rscale>  2 0.23762133E+03</rscale>
<asrwt>0</asrwt>
<pdfrwt beam="1">  1        2 0.26066325E+00 0.23762133E+03</pdfrwt>
<pdfrwt beam="2">  1       -2 0.32607673E-01 0.23762133E+03</pdfrwt>
<totfact> 0.96350949E+01</totfact>
</mgrwt>
</event>
<event>
 4    1  0.3757815E-001  0.2368058E+03  0.7546771E-02  0.1121939E+00
          2   -1    0    0  502    0  0.00000000000E+00  0.00000000000E+00  0.53546820047E+03  0.53546820047E+03  0.00000000000E+00 0.  1.
         -2   -1    0    0    0  501 -0.00000000000E+00 -0.00000000000E+00 -0.12089223304E+03  0.12089223304E+03  0.00000000000E+00 0. -1.
          6    1    1    2  502    0  0.14526756152E+03  0.73418925602E+02  0.32730108111E+03  0.40398391152E+03  0.17200000000E+03 0.  1.
         -6    1    1    2    0  501 -0.14526756152E+03 -0.73418925602E+02  0.87274886318E+02  0.25237652199E+03  0.17200000000E+03 0. -1.
<mgrwt>
<rscale>  2 0.23680583E+03</rscale>
<asrwt>0</asrwt>
<pdfrwt beam="1">  1        2 0.13386704E+00 0.23680583E+03</pdfrwt>
<pdfrwt beam="2">  1       -2 0.30223060E-01 0.23680583E+03</pdfrwt>
<totfact> 0.32437527E+02</totfact>
</mgrwt>
</event>
<event>
 4    1  0.3757815E-001  0.2473180E+03  0.7546771E-02  0.1115012E+00
         -2   -1    0    0    0  501 -0.00000000000E+00  0.00000000000E+00  0.16391021037E+03  0.16391021037E+03  0.00000000000E+00 0.  1.
          2   -1    0    0  502    0  0.00000000000E+00 -0.00000000000E+00 -0.41950096447E+03  0.41950096447E+03  0.00000000000E+00 0. -1.
          6    1    1    2  502    0 -0.83556705851E+02 -0.15684540560E+03 -0.22473889255E+03  0.33417626214E+03  0.17200000000E+03 0. -1.
         -6    1    1    2    0  501  0.83556705851E+02  0.15684540560E+03 -0.30851861556E+02  0.24923491271E+03  0.17200000000E+03 0.  1.
<mgrwt>
<rscale>  2 0.24731802E+03</rscale>
<asrwt>0</asrwt>
<pdfrwt beam="1">  1        2 0.10487524E+00 0.24731802E+03</pdfrwt>
<pdfrwt beam="2">  1       -2 0.40977553E-01 0.24731802E+03</pdfrwt>
<totfact> 0.24918989E+02</totfact>
</mgrwt>
</event>
<event>
 4    1  0.3757815E-001  0.2214431E+03  0.7546771E-02  0.1132812E+00
          1   -1    0    0  502    0  0.00000000000E+00  0.00000000000E+00  0.23066873210E+03  0.23066873210E+03  0.00000000000E+00 0.  1.
         -1   -1    0    0    0  501 -0.00000000000E+00 -0.00000000000E+00 -0.25136949429E+03  0.25136949429E+03  0.00000000000E+00 0. -1.
          6    1    1    2  502    0  0.12643842495E+03  0.58876011336E+02  0.84320371119E+02  0.23695355030E+03  0.17200000000E+03 0.  1.
         -6    1    1    2    0  501 -0.12643842495E+03 -0.58876011336E+02 -0.10502113330E+03  0.24508467609E+03  0.17200000000E+03 0. -1.
<mgrwt>
<rscale>  2 0.22144313E+03</rscale>
<asrwt>0</asrwt>
<pdfrwt beam="1">  1        1 0.57667183E-01 0.22144313E+03</pdfrwt>
<pdfrwt beam="2">  1       -1 0.62842373E-01 0.22144313E+03</pdfrwt>
<totfact> 0.17783930E+02</totfact>
</mgrwt>
</event>
<event>
 4    1  0.3757815E-001  0.2435166E+03  0.7546771E-02  0.1117472E+00
         -2   -1    0    0    0  501 -0.00000000000E+00  0.00000000000E+00  0.35748663271E+02  0.35748663271E+02  0.00000000000E+00 0.  1.
          2   -1    0    0  502    0  0.00000000000E+00 -0.00000000000E+00 -0.16761942873E+04  0.16761942873E+04  0.00000000000E+00 0. -1.
          6    1    1    2  502    0  0.11628867069E+03 -0.12725284295E+03 -0.73305817646E+03  0.77244717039E+03  0.17200000000E+03 0.  1.
         -6    1    1    2    0  501 -0.11628867069E+03  0.12725284295E+03 -0.90738744754E+03  0.93949578016E+03  0.17200000000E+03 0.  1.
<mgrwt>
<rscale>  2 0.24351661E+03</rscale>
<asrwt>0</asrwt>
<pdfrwt beam="1">  1        2 0.41904853E+00 0.24351661E+03</pdfrwt>
<pdfrwt beam="2">  1       -2 0.89371668E-02 0.24351661E+03</pdfrwt>
<totfact> 0.24135291E+02</totfact>
</mgrwt>
</event>
<event>
 4    1  0.3757815E-001  0.2356049E+03  0.7546771E-02  0.1122756E+00
          2   -1    0    0  502    0  0.00000000000E+00  0.00000000000E+00  0.10183950797E+04  0.10183950797E+04  0.00000000000E+00 0.  1.
         -2   -1    0    0    0  501 -0.00000000000E+00 -0.00000000000E+00 -0.59281531233E+02  0.59281531233E+02  0.00000000000E+00 0. -1.
          6    1    1    2  502    0 -0.36707876344E+02 -0.15677439987E+03  0.63247640120E+03  0.67493412917E+03  0.17200000000E+03 0.  1.
         -6    1    1    2    0  501  0.36707876344E+02  0.15677439987E+03  0.32663714726E+03  0.40274248176E+03  0.17200000000E+03 0. -1.
<mgrwt>
<rscale>  2 0.23560492E+03</rscale>
<asrwt>0</asrwt>
<pdfrwt beam="1">  1        2 0.25459871E+00 0.23560492E+03</pdfrwt>
<pdfrwt beam="2">  1       -2 0.14820386E-01 0.23560492E+03</pdfrwt>
<totfact> 0.39842592E+02</totfact>
</mgrwt>
</event>
<event>
 4    1  0.3757815E-001  0.2064229E+03  0.7546771E-02  0.1144430E+00
         -2   -1    0    0    0  501 -0.00000000000E+00  0.00000000000E+00  0.29335391895E+03  0.29335391895E+03  0.00000000000E+00 0. -1.
          2   -1    0    0  502    0  0.00000000000E+00 -0.00000000000E+00 -0.15670440479E+03  0.15670440479E+03  0.00000000000E+00 0.  1.
          6    1    1    2  502    0 -0.11329302710E+03 -0.13823546008E+02  0.74921542134E+01  0.20655878773E+03  0.17200000000E+03 0. -1.
         -6    1    1    2    0  501  0.11329302710E+03  0.13823546008E+02  0.12915735995E+03  0.24349953602E+03  0.17200000000E+03 0. -1.
<mgrwt>
<rscale>  2 0.20642287E+03</rscale>
<asrwt>0</asrwt>
<pdfrwt beam="1">  1        2 0.39176102E-01 0.20642287E+03</pdfrwt>
<pdfrwt beam="2">  1       -2 0.73338479E-01 0.20642287E+03</pdfrwt>
<totfact> 0.22754192E+02</totfact>
</mgrwt>
</event>
<event>
 4    1  0.3757815E-001  0.2257886E+03  0.7546771E-02  0.1129640E+00
         -1   -1    0    0    0  501 -0.00000000000E+00  0.00000000000E+00  0.78077454380E+02  0.78077454380E+02  0.00000000000E+00 0.  1.
          1   -1    0    0  502    0  0.00000000000E+00 -0.00000000000E+00 -0.65388153888E+03  0.65388153888E+03  0.00000000000E+00 0. -1.
          6    1    1    2  502    0  0.10441330473E+02 -0.14590224671E+03 -0.27407068241E+03  0.35509889599E+03  0.17200000000E+03 0.  1.
         -6    1    1    2    0  501 -0.10441330473E+02  0.14590224671E+03 -0.30173340208E+03  0.37686009727E+03  0.17200000000E+03 0. -1.
<mgrwt>
<rscale>  2 0.22578859E+03</rscale>
<asrwt>0</asrwt>
<pdfrwt beam="1">  1        1 0.16347038E+00 0.22578859E+03</pdfrwt>
<pdfrwt beam="2">  1       -1 0.19519364E-01 0.22578859E+03</pdfrwt>
<totfact> 0.30568324E+02</totfact>
</mgrwt>
</event>
<event>
 4    1  0.3757815E-001  0.2205714E+03  0.7546771E-02  0.1133458E+00
         -2   -1    0    0    0  501 -0.00000000000E+00  0.00000000000E+00  0.31334922345E+03  0.31334922345E+03  0.00000000000E+00 0. -1.
          2   -1    0    0  502    0  0.00000000000E+00 -0.00000000000E+00 -0.15596980318E+03  0.15596980318E+03  0.00000000000E+00 0.  1.
          6    1    1    2  502    0 -0.20905206413E+02  0.13649431610E+03  0.94479821715E+02  0.23995450130E+03  0.17200000000E+03 0.  1.
         -6    1    1    2    0  501  0.20905206413E+02 -0.13649431610E+03  0.62899598553E+02  0.22936452533E+03  0.17200000000E+03 0. -1.
<mgrwt>
<rscale>  2 0.22057136E+03</rscale>
<asrwt>0</asrwt>
<pdfrwt beam="1">  1        2 0.38992451E-01 0.22057136E+03</pdfrwt>
<pdfrwt beam="2">  1       -2 0.78337305E-01 0.22057136E+03</pdfrwt>
<totfact> 0.19794415E+02</totfact>
</mgrwt>
</event>
<event>
 4    1  0.3757815E-001  0.1839663E+03  0.7546771E-02  0.1164019E+00
          2   -1    0    0  502    0  0.00000000000E+00  0.00000000000E+00  0.30683895381E+03  0.30683895381E+03  0.00000000000E+00 0. -1.
         -2   -1    0    0    0  501 -0.00000000000E+00 -0.00000000000E+00 -0.12588357604E+03  0.12588357604E+03  0.00000000000E+00 0.  1.
          6    1    1    2  502    0 -0.58574511240E+02  0.28785777455E+02  0.14346564608E+02  0.18452484458E+03  0.17200000000E+03 0.  1.
         -6    1    1    2    0  501  0.58574511240E+02 -0.28785777455E+02  0.16660881316E+03  0.24819768527E+03  0.17200000000E+03 0. -1.
<mgrwt>
<rscale>  2 0.18396629E+03</rscale>
<asrwt>0</asrwt>
<pdfrwt beam="1">  1        2 0.76709737E-01 0.18396629E+03</pdfrwt>
<pdfrwt beam="2">  1       -2 0.31470895E-01 0.18396629E+03</pdfrwt>
<totfact> 0.58824063E+02</totfact>
</mgrwt>
</event>
<event>
 4    1  0.3757815E-001  0.1967247E+03  0.7546771E-02  0.1152532E+00
          1   -1    0    0  502    0  0.00000000000E+00  0.00000000000E+00  0.28655510813E+03  0.28655510813E+03  0.00000000000E+00 0.  1.
         -1   -1    0    0    0  501 -0.00000000000E+00 -0.00000000000E+00 -0.14264448975E+03  0.14264448975E+03  0.00000000000E+00 0. -1.
          6    1    1    2  502    0  0.65716022808E+02 -0.69267814194E+02  0.22454131922E+02  0.19800205498E+03  0.17200000000E+03 0. -1.
         -6    1    1    2    0  501 -0.65716022808E+02  0.69267814194E+02  0.12145648646E+03  0.23119754290E+03  0.17200000000E+03 0.  1.
<mgrwt>
<rscale>  2 0.19672475E+03</rscale>
<asrwt>0</asrwt>
<pdfrwt beam="1">  1        1 0.71638776E-01 0.19672475E+03</pdfrwt>
<pdfrwt beam="2">  1       -1 0.35661123E-01 0.19672475E+03</pdfrwt>
<totfact> 0.38046022E+02</totfact>
</mgrwt>
</event>
<event>
 4    1  0.3757815E-001  0.1881047E+03  0.7546771E-02  0.1160182E+00
          1   -1    0    0  502    0  0.00000000000E+00  0.00000000000E+00  0.31118195996E+03  0.31118195996E+03  0.00000000000E+00 0.  1.
         -1   -1    0    0    0  501 -0.00000000000E+00 -0.00000000000E+00 -0.13645043123E+03  0.13645043123E+03  0.00000000000E+00 0. -1.
          6    1    1    2  502    0 -0.58084810182E+02  0.49249730671E+02 -0.40114158431E+01  0.18814747567E+03  0.17200000000E+03 0. -1.
         -6    1    1    2    0  501  0.58084810182E+02 -0.49249730671E+02  0.17874294458E+03  0.25948491552E+03  0.17200000000E+03 0.  1.
<mgrwt>
<rscale>  2 0.18810471E+03</rscale>
<asrwt>0</asrwt>
<pdfrwt beam="1">  1        1 0.77795489E-01 0.18810471E+03</pdfrwt>
<pdfrwt beam="2">  1       -1 0.34112608E-01 0.18810471E+03</pdfrwt>
<totfact> 0.36896755E+02</totfact>
</mgrwt>
</event>
<event>
 4    1  0.3757815E-001  0.2207960E+03  0.7546771E-02  0.1133291E+00
          1   -1    0    0  502    0  0.00000000000E+00  0.00000000000E+00  0.67130693423E+03  0.67130693423E+03  0.00000000000E+00 0.  1.
         -1   -1    0    0    0  501 -0.00000000000E+00 -0.00000000000E+00 -0.73615969168E+02  0.73615969168E+02  0.00000000000E+00 0. -1.
          6    1    1    2  502    0  0.13843443514E+03  0.16650288789E+01  0.34215045266E+03  0.40720731503E+03  0.17200000000E+03 0. -1.
         -6    1    1    2    0  501 -0.13843443514E+03 -0.16650288789E+01  0.25554051240E+03  0.33771558837E+03  0.17200000000E+03 0.  1.
<mgrwt>
<rscale>  2 0.22079598E+03</rscale>
<asrwt>0</asrwt>
<pdfrwt beam="1">  1        1 0.16782671E+00 0.22079598E+03</pdfrwt>
<pdfrwt beam="2">  1       -1 0.18403994E-01 0.22079598E+03</pdfrwt>
<totfact> 0.32096390E+02</totfact>
</mgrwt>
</event>
<event>
 4    1  0.3757815E-001  0.1767070E+03  0.7546771E-02  0.1171029E+00
          2   -1    0    0  502    0  0.00000000000E+00  0.00000000000E+00  0.17620905744E+03  0.17620905744E+03  0.00000000000E+00 0.  1.
         -2   -1    0    0    0  501 -0.00000000000E+00 -0.00000000000E+00 -0.21617521636E+03  0.21617521636E+03  0.00000000000E+00 0. -1.
          6    1    1    2  502    0 -0.22846106964E+02  0.33457542444E+02  0.63315561663E+02  0.18770778380E+03  0.17200000000E+03 0.  1.
         -6    1    1    2    0  501  0.22846106964E+02 -0.33457542444E+02 -0.10328172059E+03  0.20467649000E+03  0.17200000000E+03 0. -1.
<mgrwt>
<rscale>  2 0.17670697E+03</rscale>
<asrwt>0</asrwt>
<pdfrwt beam="1">  1        2 0.44052264E-01 0.17670697E+03</pdfrwt>
<pdfrwt beam="2">  1       -2 0.54043804E-01 0.17670697E+03</pdfrwt>
<totfact> 0.37993880E+02</totfact>
</mgrwt>
</event>
<event>
 4    1  0.3757815E-001  0.3325469E+03  0.7546771E-02  0.1070015E+00
          2   -1    0    0  502    0  0.00000000000E+00  0.00000000000E+00  0.10604402062E+04  0.10604402062E+04  0.00000000000E+00 0. -1.
         -2   -1    0    0    0  501 -0.00000000000E+00 -0.00000000000E+00 -0.10824581460E+03  0.10824581460E+03  0.00000000000E+00 0.  1.
          6    1    1    2  502    0  0.16973932408E+03 -0.22845567928E+03  0.58788234005E+03  0.67542066986E+03  0.17200000000E+03 0. -1.
         -6    1    1    2    0  501 -0.16973932408E+03  0.22845567928E+03  0.36431205158E+03  0.49326535096E+03  0.17200000000E+03 0.  1.
<mgrwt>
<rscale>  2 0.33254689E+03</rscale>
<asrwt>0</asrwt>
<pdfrwt beam="1">  1        2 0.26511002E+00 0.33254689E+03</pdfrwt>
<pdfrwt beam="2">  1       -2 0.27061457E-01 0.33254689E+03</pdfrwt>
<totfact> 0.12753645E+02</totfact>
</mgrwt>
</event>
<event>
 4    1  0.3757815E-001  0.1734560E+03  0.7546771E-02  0.1174291E+00
         -1   -1    0    0    0  501 -0.00000000000E+00  0.00000000000E+00  0.56813832330E+03  0.56813832330E+03  0.00000000000E+00 0. -1.
          1   -1    0    0  502    0  0.00000000000E+00 -0.00000000000E+00 -0.53342596008E+02  0.53342596008E+02  0.00000000000E+00 0.  1.
          6    1    1    2  502    0  0.22335460830E+02  0.20261028879E+01  0.23098284394E+03  0.28885991778E+03  0.17200000000E+03 0.  1.
         -6    1    1    2    0  501 -0.22335460830E+02 -0.20261028879E+01  0.28381288335E+03  0.33262100153E+03  0.17200000000E+03 0.  1.
<mgrwt>
<rscale>  2 0.17345598E+03</rscale>
<asrwt>0</asrwt>
<pdfrwt beam="1">  1        1 0.13335651E-01 0.17345598E+03</pdfrwt>
<pdfrwt beam="2">  1       -1 0.14203456E+00 0.17345598E+03</pdfrwt>
<totfact> 0.19208325E+02</totfact>
</mgrwt>
</event>
<event>
 4    1  0.3757815E-001  0.1759200E+03  0.7546771E-02  0.1171811E+00
          2   -1    0    0  502    0  0.00000000000E+00  0.00000000000E+00  0.33058083475E+03  0.33058083475E+03  0.00000000000E+00 0. -1.
         -2   -1    0    0    0  501 -0.00000000000E+00 -0.00000000000E+00 -0.99084199756E+02  0.99084199756E+02  0.00000000000E+00 0.  1.
          6    1    1    2  502    0  0.36199619908E+02 -0.73094219596E+01  0.16621419288E+03  0.24202272217E+03  0.17200000000E+03 0.  1.
         -6    1    1    2    0  501 -0.36199619908E+02  0.73094219596E+01  0.65282442114E+02  0.18764231234E+03  0.17200000000E+03 0.  1.
<mgrwt>
<rscale>  2 0.17591998E+03</rscale>
<asrwt>0</asrwt>
<pdfrwt beam="1">  1        2 0.82645206E-01 0.17591998E+03</pdfrwt>
<pdfrwt beam="2">  1       -2 0.24771051E-01 0.17591998E+03</pdfrwt>
<totfact> 0.83038524E+02</totfact>
</mgrwt>
</event>
<event>
 4    1  0.3757815E-001  0.1872797E+03  0.7546771E-02  0.1160938E+00
         -2   -1    0    0    0  501 -0.00000000000E+00  0.00000000000E+00  0.14715854853E+03  0.14715854853E+03  0.00000000000E+00 0. -1.
          2   -1    0    0  502    0  0.00000000000E+00 -0.00000000000E+00 -0.29355087627E+03  0.29355087627E+03  0.00000000000E+00 0.  1.
          6    1    1    2  502    0 -0.50447663252E+02  0.54265343187E+02 -0.16876030405E+03  0.25209866009E+03  0.17200000000E+03 0.  1.
         -6    1    1    2    0  501  0.50447663252E+02 -0.54265343187E+02  0.22367976310E+02  0.18861076471E+03  0.17200000000E+03 0. -1.
<mgrwt>
<rscale>  2 0.18727972E+03</rscale>
<asrwt>0</asrwt>
<pdfrwt beam="1">  1        2 0.73387719E-01 0.18727972E+03</pdfrwt>
<pdfrwt beam="2">  1       -2 0.36789637E-01 0.18727972E+03</pdfrwt>
<totfact> 0.46280904E+02</totfact>
</mgrwt>
</event>
<event>
 4    1  0.3757815E-001  0.1958527E+03  0.7546771E-02  0.1153286E+00
         -2   -1    0    0    0  501 -0.00000000000E+00  0.00000000000E+00  0.94863588873E+02  0.94863588873E+02  0.00000000000E+00 0. -1.
          2   -1    0    0  502    0  0.00000000000E+00 -0.00000000000E+00 -0.67998545137E+03  0.67998545137E+03  0.00000000000E+00 0.  1.
          6    1    1    2  502    0 -0.17035443968E+02 -0.92109021144E+02 -0.53922352058E+03  0.57369005855E+03  0.17200000000E+03 0.  1.
         -6    1    1    2    0  501  0.17035443968E+02  0.92109021144E+02 -0.45898341919E+02  0.20115898170E+03  0.17200000000E+03 0. -1.
<mgrwt>
<rscale>  2 0.19585269E+03</rscale>
<asrwt>0</asrwt>
<pdfrwt beam="1">  1        2 0.16999636E+00 0.19585269E+03</pdfrwt>
<pdfrwt beam="2">  1       -2 0.23715898E-01 0.19585269E+03</pdfrwt>
<totfact> 0.36039974E+02</totfact>
</mgrwt>
</event>
<event>
 4    1  0.3757815E-001  0.1845748E+03  0.7546771E-02  0.1163448E+00
          2   -1    0    0  502    0  0.00000000000E+00  0.00000000000E+00  0.10245268164E+04  0.10245268164E+04  0.00000000000E+00 0.  1.
         -2   -1    0    0    0  501 -0.00000000000E+00 -0.00000000000E+00 -0.33304721184E+02  0.33304721184E+02  0.00000000000E+00 0. -1.
          6    1    1    2  502    0 -0.50852534372E+02 -0.43564774391E+02  0.47462647597E+03  0.50925255179E+03  0.17200000000E+03 0.  1.
         -6    1    1    2    0  501  0.50852534372E+02  0.43564774391E+02  0.51659561921E+03  0.54857898575E+03  0.17200000000E+03 0. -1.
<mgrwt>
<rscale>  2 0.18457484E+03</rscale>
<asrwt>0</asrwt>
<pdfrwt beam="1">  1        2 0.25613160E+00 0.18457484E+03</pdfrwt>
<pdfrwt beam="2">  1       -2 0.83261837E-02 0.18457484E+03</pdfrwt>
<totfact> 0.10002719E+03</totfact>
</mgrwt>
</event>
<event>
 4    1  0.3757815E-001  0.2595025E+03  0.7546771E-02  0.1107443E+00
         -2   -1    0    0    0  501 -0.00000000000E+00  0.00000000000E+00  0.18245517973E+03  0.18245517973E+03  0.00000000000E+00 0.  1.
          2   -1    0    0  502    0  0.00000000000E+00 -0.00000000000E+00 -0.73387643180E+03  0.73387643180E+03  0.00000000000E+00 0. -1.
          6    1    1    2  502    0  0.69411566351E+02 -0.18149258257E+03 -0.59873355037E+03  0.65255144426E+03  0.17200000000E+03 0. -1.
         -6    1    1    2    0  501 -0.69411566351E+02  0.18149258257E+03  0.47312298309E+02  0.26378016726E+03  0.17200000000E+03 0.  1.
<mgrwt>
<rscale>  2 0.25950245E+03</rscale>
<asrwt>0</asrwt>
<pdfrwt beam="1">  1        2 0.18346911E+00 0.25950245E+03</pdfrwt>
<pdfrwt beam="2">  1       -2 0.45613795E-01 0.25950245E+03</pdfrwt>
<totfact> 0.94553850E+01</totfact>
</mgrwt>
</event>
<event>
 4    1  0.3757815E-001  0.2612357E+03  0.7546771E-02  0.1106403E+00
          2   -1    0    0  502    0  0.00000000000E+00  0.00000000000E+00  0.10167026838E+04  0.10167026838E+04  0.00000000000E+00 0. -1.
         -2   -1    0    0    0  501 -0.00000000000E+00 -0.00000000000E+00 -0.67247338726E+02  0.67247338726E+02  0.00000000000E+00 0.  1.
          6    1    1    2  502    0 -0.57528083847E+01 -0.19653757906E+03  0.49803424092E+03  0.56238974023E+03  0.17200000000E+03 0. -1.
         -6    1    1    2    0  501  0.57528083847E+01  0.19653757906E+03  0.45142110412E+03  0.52156028226E+03  0.17200000000E+03 0.  1.
<mgrwt>
<rscale>  2 0.26123575E+03</rscale>
<asrwt>0</asrwt>
<pdfrwt beam="1">  1        2 0.25417562E+00 0.26123575E+03</pdfrwt>
<pdfrwt beam="2">  1       -2 0.16811838E-01 0.26123575E+03</pdfrwt>
<totfact> 0.32248469E+02</totfact>
</mgrwt>
</event>
<event>
 4    1  0.3757815E-001  0.3236699E+03  0.7546771E-02  0.1073973E+00
          2   -1    0    0  502    0  0.00000000000E+00  0.00000000000E+00  0.10745584442E+04  0.10745584442E+04  0.00000000000E+00 0. -1.
         -2   -1    0    0    0  501 -0.00000000000E+00 -0.00000000000E+00 -0.14707226097E+03  0.14707226097E+03  0.00000000000E+00 0.  1.
          6    1    1    2  502    0 -0.15537723815E+03 -0.22591168101E+03  0.81838787509E+03  0.88006868359E+03  0.17200000000E+03 0. -1.
         -6    1    1    2    0  501  0.15537723815E+03  0.22591168101E+03  0.10909830815E+03  0.34156202159E+03  0.17200000000E+03 0.  1.
<mgrwt>
<rscale>  2 0.32366985E+03</rscale>
<asrwt>0</asrwt>
<pdfrwt beam="1">  1        2 0.26863959E+00 0.32366985E+03</pdfrwt>
<pdfrwt beam="2">  1       -2 0.36768068E-01 0.32366985E+03</pdfrwt>
<totfact> 0.70572202E+01</totfact>
</mgrwt>
</event>
<event>
 4    1  0.3757815E-001  0.1797922E+03  0.7546771E-02  0.1168004E+00
          2   -1    0    0  502    0  0.00000000000E+00  0.00000000000E+00  0.22943235256E+03  0.22943235256E+03  0.00000000000E+00 0.  1.
         -2   -1    0    0    0  501 -0.00000000000E+00 -0.00000000000E+00 -0.14571127434E+03  0.14571127434E+03  0.00000000000E+00 0. -1.
          6    1    1    2  502    0 -0.52265401796E+02  0.30898685102E+01  0.75972340659E+02  0.19518456921E+03  0.17200000000E+03 0.  1.
         -6    1    1    2    0  501  0.52265401796E+02 -0.30898685102E+01  0.77487375583E+01  0.17995905769E+03  0.17200000000E+03 0. -1.
<mgrwt>
<rscale>  2 0.17979216E+03</rscale>
<asrwt>0</asrwt>
<pdfrwt beam="1">  1        2 0.57358088E-01 0.17979216E+03</pdfrwt>
<pdfrwt beam="2">  1       -2 0.36427819E-01 0.17979216E+03</pdfrwt>
<totfact> 0.61620204E+02</totfact>
</mgrwt>
</event>
<event>
 4    1  0.3757815E-001  0.3619547E+03  0.7546771E-02  0.1057813E+00
          1   -1    0    0  502    0  0.00000000000E+00  0.00000000000E+00  0.53066954959E+03  0.53066954959E+03  0.00000000000E+00 0.  1.
         -1   -1    0    0    0  501 -0.00000000000E+00 -0.00000000000E+00 -0.37720142636E+03  0.37720142636E+03  0.00000000000E+00 0. -1.
          6    1    1    2  502    0  0.24437287472E+03  0.20422800917E+03 -0.19008509576E+03  0.40883190342E+03  0.17200000000E+03 0. -1.
         -6    1    1    2    0  501 -0.24437287472E+03 -0.20422800917E+03  0.34355321899E+03  0.49903907252E+03  0.17200000000E+03 0.  1.
<mgrwt>
<rscale>  2 0.36195467E+03</rscale>
<asrwt>0</asrwt>
<pdfrwt beam="1">  1        1 0.13266739E+00 0.36195467E+03</pdfrwt>
<pdfrwt beam="2">  1       -1 0.94300357E-01 0.36195467E+03</pdfrwt>
<totfact> 0.23312170E+01</totfact>
</mgrwt>
</event>
<event>
 4    1  0.3757815E-001  0.2122109E+03  0.7546771E-02  0.1139827E+00
          2   -1    0    0  502    0  0.00000000000E+00  0.00000000000E+00  0.14743125363E+04  0.14743125363E+04  0.00000000000E+00 0. -1.
         -2   -1    0    0    0  501 -0.00000000000E+00 -0.00000000000E+00 -0.30607309257E+02  0.30607309257E+02  0.00000000000E+00 0.  1.
          6    1    1    2  502    0  0.39005385139E+02 -0.11801707858E+03  0.68800836731E+03  0.71999233635E+03  0.17200000000E+03 0.  1.
         -6    1    1    2    0  501 -0.39005385139E+02  0.11801707858E+03  0.75569685972E+03  0.78492750920E+03  0.17200000000E+03 0. -1.
<mgrwt>
<rscale>  2 0.21221086E+03</rscale>
<asrwt>0</asrwt>
<pdfrwt beam="1">  1        2 0.36857790E+00 0.21221086E+03</pdfrwt>
<pdfrwt beam="2">  1       -2 0.76518323E-02 0.21221086E+03</pdfrwt>
<totfact> 0.47040205E+02</totfact>
</mgrwt>
</event>
<event>
 4    1  0.3757815E-001  0.1878674E+03  0.7546771E-02  0.1160399E+00
          2   -1    0    0  502    0  0.00000000000E+00  0.00000000000E+00  0.16842722793E+04  0.16842722793E+04  0.00000000000E+00 0. -1.
         -2   -1    0    0    0  501 -0.00000000000E+00 -0.00000000000E+00 -0.20957649513E+02  0.20957649513E+02  0.00000000000E+00 0.  1.
          6    1    1    2  502    0  0.73120851976E+02 -0.19065937463E+02  0.82233576793E+03  0.84352254515E+03  0.17200000000E+03 0. -1.
         -6    1    1    2    0  501 -0.73120851976E+02  0.19065937463E+02  0.84097886189E+03  0.86170738369E+03  0.17200000000E+03 0.  1.
<mgrwt>
<rscale>  2 0.18786742E+03</rscale>
<asrwt>0</asrwt>
<pdfrwt beam="1">  1        2 0.42106761E+00 0.18786742E+03</pdfrwt>
<pdfrwt beam="2">  1       -2 0.52394181E-02 0.18786742E+03</pdfrwt>
<totfact> 0.55130796E+02</totfact>
</mgrwt>
</event>
<event>
 4    1  0.3757815E-001  0.1903503E+03  0.7546771E-02  0.1158146E+00
         -2   -1    0    0    0  501 -0.00000000000E+00  0.00000000000E+00  0.21165415779E+03  0.21165415779E+03  0.00000000000E+00 0.  1.
          2   -1    0    0  502    0  0.00000000000E+00 -0.00000000000E+00 -0.21301658678E+03  0.21301658678E+03  0.00000000000E+00 0. -1.
          6    1    1    2  502    0  0.80227151693E+02 -0.14588626753E+02  0.93407645036E+02  0.21203351634E+03  0.17200000000E+03 0.  1.
         -6    1    1    2    0  501 -0.80227151693E+02  0.14588626753E+02 -0.94770074028E+02  0.21263722823E+03  0.17200000000E+03 0.  1.
<mgrwt>
<rscale>  2 0.19035027E+03</rscale>
<asrwt>0</asrwt>
<pdfrwt beam="1">  1        2 0.53254147E-01 0.19035027E+03</pdfrwt>
<pdfrwt beam="2">  1       -2 0.52913540E-01 0.19035027E+03</pdfrwt>
<totfact> 0.32352644E+02</totfact>
</mgrwt>
</event>
<event>
 4    1  0.3757815E-001  0.2054384E+03  0.7546771E-02  0.1145230E+00
         -2   -1    0    0    0  501 -0.00000000000E+00  0.00000000000E+00  0.14338183510E+03  0.14338183510E+03  0.00000000000E+00 0. -1.
          2   -1    0    0  502    0  0.00000000000E+00 -0.00000000000E+00 -0.34600520096E+03  0.34600520096E+03  0.00000000000E+00 0.  1.
          6    1    1    2  502    0 -0.90577475092E+02 -0.66457962921E+02 -0.67699372642E+01  0.20554992552E+03  0.17200000000E+03 0. -1.
         -6    1    1    2    0  501  0.90577475092E+02  0.66457962921E+02 -0.19585342860E+03  0.28383711055E+03  0.17200000000E+03 0. -1.
<mgrwt>
<rscale>  2 0.20543841E+03</rscale>
<asrwt>0</asrwt>
<pdfrwt beam="1">  1        2 0.86501300E-01 0.20543841E+03</pdfrwt>
<pdfrwt beam="2">  1       -2 0.35845459E-01 0.20543841E+03</pdfrwt>
<totfact> 0.40382891E+02</totfact>
</mgrwt>
</event>
<event>
 4    1  0.3757815E-001  0.1875468E+03  0.7546771E-02  0.1160693E+00
         -1   -1    0    0    0  501 -0.00000000000E+00  0.00000000000E+00  0.25874092705E+02  0.25874092705E+02  0.00000000000E+00 0. -1.
          1   -1    0    0  502    0  0.00000000000E+00 -0.00000000000E+00 -0.13730899277E+04  0.13730899277E+04  0.00000000000E+00 0.  1.
          6    1    1    2  502    0 -0.74004938794E+02  0.10633196707E+02 -0.74339702019E+03  0.76668958873E+03  0.17200000000E+03 0.  1.
         -6    1    1    2    0  501  0.74004938794E+02 -0.10633196707E+02 -0.60381881478E+03  0.63227443165E+03  0.17200000000E+03 0. -1.
<mgrwt>
<rscale>  2 0.18754678E+03</rscale>
<asrwt>0</asrwt>
<pdfrwt beam="1">  1        1 0.34327246E+00 0.18754678E+03</pdfrwt>
<pdfrwt beam="2">  1       -1 0.64685237E-02 0.18754678E+03</pdfrwt>
<totfact> 0.29009633E+02</totfact>
</mgrwt>
</event>
<event>
 4    1  0.3757815E-001  0.1987087E+03  0.7546771E-02  0.1150833E+00
          2   -1    0    0  502    0  0.00000000000E+00  0.00000000000E+00  0.30986281571E+02  0.30986281571E+02  0.00000000000E+00 0. -1.
         -2   -1    0    0    0  501 -0.00000000000E+00 -0.00000000000E+00 -0.13557594333E+04  0.13557594333E+04  0.00000000000E+00 0.  1.
          6    1    1    2  502    0 -0.54769405035E+02 -0.83075009001E+02 -0.49240409384E+03  0.53098675735E+03  0.17200000000E+03 0. -1.
         -6    1    1    2    0  501  0.54769405035E+02  0.83075009001E+02 -0.83236905787E+03  0.85575895750E+03  0.17200000000E+03 0. -1.
<mgrwt>
<rscale>  2 0.19870869E+03</rscale>
<asrwt>0</asrwt>
<pdfrwt beam="1">  1        2 0.77465706E-02 0.19870869E+03</pdfrwt>
<pdfrwt beam="2">  1       -2 0.33893985E+00 0.19870869E+03</pdfrwt>
<totfact> 0.19430955E+01</totfact>
</mgrwt>
</event>
<event>
 4    1  0.3757815E-001  0.1880823E+03  0.7546771E-02  0.1160202E+00
          2   -1    0    0  502    0  0.00000000000E+00  0.00000000000E+00  0.52582991180E+03  0.52582991180E+03  0.00000000000E+00 0. -1.
         -2   -1    0    0    0  501 -0.00000000000E+00 -0.00000000000E+00 -0.67418999239E+02  0.67418999239E+02  0.00000000000E+00 0.  1.
          6    1    1    2  502    0  0.16507670850E+02  0.74286148820E+02  0.24293876413E+03  0.30723635563E+03  0.17200000000E+03 0.  1.
         -6    1    1    2    0  501 -0.16507670850E+02 -0.74286148820E+02  0.21547214844E+03  0.28601255542E+03  0.17200000000E+03 0.  1.
<mgrwt>
<rscale>  2 0.18808226E+03</rscale>
<asrwt>0</asrwt>
<pdfrwt beam="1">  1        2 0.13145747E+00 0.18808226E+03</pdfrwt>
<pdfrwt beam="2">  1       -2 0.16854751E-01 0.18808226E+03</pdfrwt>
<totfact> 0.92059286E+02</totfact>
</mgrwt>
</event>
<event>
 4    1  0.3757815E-001  0.1794851E+03  0.7546771E-02  0.1168302E+00
          1   -1    0    0  502    0  0.00000000000E+00  0.00000000000E+00  0.26773211177E+03  0.26773211177E+03  0.00000000000E+00 0. -1.
         -1   -1    0    0    0  501 -0.00000000000E+00 -0.00000000000E+00 -0.12417674519E+03  0.12417674519E+03  0.00000000000E+00 0.  1.
          6    1    1    2  502    0  0.26247017316E+02 -0.44068025132E+02  0.37266701249E+02  0.18331313041E+03  0.17200000000E+03 0.  1.
         -6    1    1    2    0  501 -0.26247017316E+02  0.44068025132E+02  0.10628866533E+03  0.20859572655E+03  0.17200000000E+03 0. -1.
<mgrwt>
<rscale>  2 0.17948509E+03</rscale>
<asrwt>0</asrwt>
<pdfrwt beam="1">  1        1 0.66933027E-01 0.17948509E+03</pdfrwt>
<pdfrwt beam="2">  1       -1 0.31044187E-01 0.17948509E+03</pdfrwt>
<totfact> 0.52768189E+02</totfact>
</mgrwt>
</event>
<event>
 4    1  0.3757815E-001  0.2104687E+03  0.7546771E-02  0.1141195E+00
          2   -1    0    0  502    0  0.00000000000E+00  0.00000000000E+00  0.10480239079E+04  0.10480239079E+04  0.00000000000E+00 0.  1.
         -2   -1    0    0    0  501 -0.00000000000E+00 -0.00000000000E+00 -0.50052330540E+02  0.50052330540E+02  0.00000000000E+00 0. -1.
          6    1    1    2  502    0  0.12115932508E+03 -0.57887298719E+01  0.71551765711E+03  0.74583014761E+03  0.17200000000E+03 0.  1.
         -6    1    1    2    0  501 -0.12115932508E+03  0.57887298719E+01  0.28245392029E+03  0.35224609087E+03  0.17200000000E+03 0. -1.
<mgrwt>
<rscale>  2 0.21046874E+03</rscale>
<asrwt>0</asrwt>
<pdfrwt beam="1">  1        2 0.26200591E+00 0.21046874E+03</pdfrwt>
<pdfrwt beam="2">  1       -2 0.12513086E-01 0.21046874E+03</pdfrwt>
<totfact> 0.49820890E+02</totfact>
</mgrwt>
</event>
<event>
 4    1  0.3757815E-001  0.2641548E+03  0.7546771E-02  0.1104672E+00
          2   -1    0    0  502    0  0.00000000000E+00  0.00000000000E+00  0.60341019649E+03  0.60341019649E+03  0.00000000000E+00 0. -1.
         -2   -1    0    0    0  501 -0.00000000000E+00 -0.00000000000E+00 -0.29456615912E+03  0.29456615912E+03  0.00000000000E+00 0.  1.
          6    1    1    2  502    0  0.58232404901E+02  0.19184039000E+03 -0.19550833859E+03  0.32863544951E+03  0.17200000000E+03 0.  1.
         -6    1    1    2    0  501 -0.58232404901E+02 -0.19184039000E+03  0.50435237597E+03  0.56934090610E+03  0.17200000000E+03 0. -1.
<mgrwt>
<rscale>  2 0.26415478E+03</rscale>
<asrwt>0</asrwt>
<pdfrwt beam="1">  1        2 0.15085255E+00 0.26415478E+03</pdfrwt>
<pdfrwt beam="2">  1       -2 0.73641541E-01 0.26415478E+03</pdfrwt>
<totfact> 0.46918046E+01</totfact>
</mgrwt>
</event>
<event>
 4    1  0.3757815E-001  0.1887696E+03  0.7546771E-02  0.1159576E+00
          2   -1    0    0  502    0  0.00000000000E+00  0.00000000000E+00  0.34624908960E+03  0.34624908960E+03  0.00000000000E+00 0. -1.
         -2   -1    0    0    0  501 -0.00000000000E+00 -0.00000000000E+00 -0.10790393167E+03  0.10790393167E+03  0.00000000000E+00 0.  1.
          6    1    1    2  502    0 -0.41252412275E+02  0.65940877430E+02  0.70342146912E+02  0.20144969215E+03  0.17200000000E+03 0.  1.
         -6    1    1    2    0  501  0.41252412275E+02 -0.65940877430E+02  0.16800301102E+03  0.25270332911E+03  0.17200000000E+03 0. -1.
<mgrwt>
<rscale>  2 0.18876960E+03</rscale>
<asrwt>0</asrwt>
<pdfrwt beam="1">  1        2 0.86562270E-01 0.18876960E+03</pdfrwt>
<pdfrwt beam="2">  1       -2 0.26975984E-01 0.18876960E+03</pdfrwt>
<totfact> 0.67800500E+02</totfact>
</mgrwt>
</event>
<event>
 4    1  0.3757815E-001  0.2086890E+03  0.7546771E-02  0.1142608E+00
         -1   -1    0    0    0  501 -0.00000000000E+00  0.00000000000E+00  0.89131683781E+02  0.89131683781E+02  0.00000000000E+00 0.  1.
          1   -1    0    0  502    0  0.00000000000E+00 -0.00000000000E+00 -0.59571153854E+03  0.59571153854E+03  0.00000000000E+00 0. -1.
          6    1    1    2  502    0  0.11548693777E+03 -0.25097486053E+02 -0.10810217174E+03  0.23502594780E+03  0.17200000000E+03 0.  1.
         -6    1    1    2    0  501 -0.11548693777E+03  0.25097486053E+02 -0.39847768301E+03  0.44981727452E+03  0.17200000000E+03 0. -1.
<mgrwt>
<rscale>  2 0.20868904E+03</rscale>
<asrwt>0</asrwt>
<pdfrwt beam="1">  1        1 0.14892788E+00 0.20868904E+03</pdfrwt>
<pdfrwt beam="2">  1       -1 0.22282922E-01 0.20868904E+03</pdfrwt>
<totfact> 0.29020351E+02</totfact>
</mgrwt>
</event>
<event>
 4    1  0.3757815E-001  0.2370932E+03  0.7546771E-02  0.1121745E+00
         -2   -1    0    0    0  501 -0.00000000000E+00  0.00000000000E+00  0.15248322263E+03  0.15248322263E+03  0.00000000000E+00 0.  1.
          2   -1    0    0  502    0  0.00000000000E+00 -0.00000000000E+00 -0.39263740645E+03  0.39263740645E+03  0.00000000000E+00 0. -1.
          6    1    1    2  502    0 -0.72804257900E+02  0.14604356443E+03 -0.18744359842E+03  0.30223878849E+03  0.17200000000E+03 0.  1.
         -6    1    1    2    0  501  0.72804257900E+02 -0.14604356443E+03 -0.52710585397E+02  0.24288184060E+03  0.17200000000E+03 0. -1.
<mgrwt>
<rscale>  2 0.23709319E+03</rscale>
<asrwt>0</asrwt>
<pdfrwt beam="1">  1        2 0.98159351E-01 0.23709319E+03</pdfrwt>
<pdfrwt beam="2">  1       -2 0.38120806E-01 0.23709319E+03</pdfrwt>
<totfact> 0.30987773E+02</totfact>
</mgrwt>
</event>
<event>
 4    1  0.3757815E-001  0.1729314E+03  0.7546771E-02  0.1174825E+00
          1   -1    0    0  502    0  0.00000000000E+00  0.00000000000E+00  0.13040017823E+03  0.13040017823E+03  0.00000000000E+00 0. -1.
         -1   -1    0    0    0  501 -0.00000000000E+00 -0.00000000000E+00 -0.23087263508E+03  0.23087263508E+03  0.00000000000E+00 0.  1.
          6    1    1    2  502    0  0.50744893543E+01 -0.17191013734E+02 -0.35492993814E+02  0.17653621160E+03  0.17200000000E+03 0. -1.
         -6    1    1    2    0  501 -0.50744893543E+01  0.17191013734E+02 -0.64979463040E+02  0.18473660171E+03  0.17200000000E+03 0.  1.
<mgrwt>
<rscale>  2 0.17293144E+03</rscale>
<asrwt>0</asrwt>
<pdfrwt beam="1">  1        1 0.32600045E-01 0.17293144E+03</pdfrwt>
<pdfrwt beam="2">  1       -1 0.57718158E-01 0.17293144E+03</pdfrwt>
<totfact> 0.43008583E+02</totfact>
</mgrwt>
</event>
<event>
 4    1  0.3757815E-001  0.1751077E+03  0.7546771E-02  0.1172624E+00
          2   -1    0    0  502    0  0.00000000000E+00  0.00000000000E+00  0.29910239592E+03  0.29910239592E+03  0.00000000000E+00 0. -1.
         -2   -1    0    0    0  501 -0.00000000000E+00 -0.00000000000E+00 -0.10634836457E+03  0.10634836457E+03  0.00000000000E+00 0.  1.
          6    1    1    2  502    0 -0.31265201715E+02  0.10059910934E+02  0.13486177151E+03  0.22102129323E+03  0.17200000000E+03 0. -1.
         -6    1    1    2    0  501  0.31265201715E+02 -0.10059910934E+02  0.57892259842E+02  0.18442946727E+03  0.17200000000E+03 0.  1.
<mgrwt>
<rscale>  2 0.17510772E+03</rscale>
<asrwt>0</asrwt>
<pdfrwt beam="1">  1        2 0.74775597E-01 0.17510772E+03</pdfrwt>
<pdfrwt beam="2">  1       -2 0.26587092E-01 0.17510772E+03</pdfrwt>
<totfact> 0.81933845E+02</totfact>
</mgrwt>
</event>
<event>
 4    1  0.3757815E-001  0.2116901E+03  0.7546771E-02  0.1140235E+00
         -1   -1    0    0    0  501 -0.00000000000E+00  0.00000000000E+00  0.50549644947E+03  0.50549644947E+03  0.00000000000E+00 0.  1.
          1   -1    0    0  502    0  0.00000000000E+00 -0.00000000000E+00 -0.94973214227E+02  0.94973214227E+02  0.00000000000E+00 0. -1.
          6    1    1    2  502    0  0.10373882729E+03 -0.66835277222E+02  0.28272557423E+03  0.35319463316E+03  0.17200000000E+03 0.  1.
         -6    1    1    2    0  501 -0.10373882729E+03  0.66835277222E+02  0.12779766102E+03  0.24727503054E+03  0.17200000000E+03 0. -1.
<mgrwt>
<rscale>  2 0.21169010E+03</rscale>
<asrwt>0</asrwt>
<pdfrwt beam="1">  1        1 0.23743305E-01 0.21169010E+03</pdfrwt>
<pdfrwt beam="2">  1       -1 0.12637410E+00 0.21169010E+03</pdfrwt>
<totfact> 0.12107785E+02</totfact>
</mgrwt>
</event>
<event>
 4    1  0.3757815E-001  0.5894447E+03  0.7546771E-02  0.9927550E-01
         -2   -1    0    0    0  501 -0.00000000000E+00  0.00000000000E+00  0.49102868736E+03  0.49102868736E+03  0.00000000000E+00 0. -1.
          2   -1    0    0  502    0  0.00000000000E+00 -0.00000000000E+00 -0.12046819440E+04  0.12046819440E+04  0.00000000000E+00 0.  1.
          6    1    1    2  502    0  0.56342277009E+03  0.20392154306E+02 -0.90146172880E+03  0.10770693136E+04  0.17200000000E+03 0.  1.
         -6    1    1    2    0  501 -0.56342277009E+03 -0.20392154306E+02  0.18780847217E+03  0.61864131775E+03  0.17200000000E+03 0. -1.
<mgrwt>
<rscale>  2 0.58944470E+03</rscale>
<asrwt>0</asrwt>
<pdfrwt beam="1">  1        2 0.30117048E+00 0.58944470E+03</pdfrwt>
<pdfrwt beam="2">  1       -2 0.12275717E+00 0.58944470E+03</pdfrwt>
<totfact> 0.37801498E+00</totfact>
</mgrwt>
</event>
<event>
 4    1  0.3757815E-001  0.2168103E+03  0.7546771E-02  0.1136284E+00
          2   -1    0    0  502    0  0.00000000000E+00  0.00000000000E+00  0.10197256334E+04  0.10197256334E+04  0.00000000000E+00 0. -1.
         -2   -1    0    0    0  501 -0.00000000000E+00 -0.00000000000E+00 -0.48528175574E+02  0.48528175574E+02  0.00000000000E+00 0.  1.
          6    1    1    2  502    0 -0.48711065960E+02  0.12267827209E+03  0.60513993369E+03  0.64280717617E+03  0.17200000000E+03 0.  1.
         -6    1    1    2    0  501  0.48711065960E+02 -0.12267827209E+03  0.36605752416E+03  0.42544663283E+03  0.17200000000E+03 0. -1.
<mgrwt>
<rscale>  2 0.21681035E+03</rscale>
<asrwt>0</asrwt>
<pdfrwt beam="1">  1        2 0.25493134E+00 0.21681035E+03</pdfrwt>
<pdfrwt beam="2">  1       -2 0.12132047E-01 0.21681035E+03</pdfrwt>
<totfact> 0.55294798E+02</totfact>
</mgrwt>
</event>
<event>
 4    1  0.3757815E-001  0.3557685E+03  0.7546771E-02  0.1060272E+00
         -2   -1    0    0    0  501 -0.00000000000E+00  0.00000000000E+00  0.12647678620E+03  0.12647678620E+03  0.00000000000E+00 0. -1.
          2   -1    0    0  502    0  0.00000000000E+00 -0.00000000000E+00 -0.10305839683E+04  0.10305839683E+04  0.00000000000E+00 0.  1.
          6    1    1    2  502    0 -0.25554763630E+03  0.17799612738E+03 -0.35361517472E+03  0.50161230804E+03  0.17200000000E+03 0. -1.
         -6    1    1    2    0  501  0.25554763630E+03 -0.17799612738E+03 -0.55049200743E+03  0.65544844650E+03  0.17200000000E+03 0.  1.
<mgrwt>
<rscale>  2 0.35576849E+03</rscale>
<asrwt>0</asrwt>
<pdfrwt beam="1">  1        2 0.25764599E+00 0.35576849E+03</pdfrwt>
<pdfrwt beam="2">  1       -2 0.31619197E-01 0.35576849E+03</pdfrwt>
<totfact> 0.10140728E+02</totfact>
</mgrwt>
</event>
<event>
 4    1  0.3757815E-001  0.2260582E+03  0.7546771E-02  0.1129445E+00
         -2   -1    0    0    0  501 -0.00000000000E+00  0.00000000000E+00  0.10449910577E+03  0.10449910577E+03  0.00000000000E+00 0. -1.
          2   -1    0    0  502    0  0.00000000000E+00 -0.00000000000E+00 -0.54342826167E+03  0.54342826167E+03  0.00000000000E+00 0.  1.
          6    1    1    2  502    0 -0.41985411770E+02  0.14055442698E+03 -0.32197102653E+03  0.39340521561E+03  0.17200000000E+03 0. -1.
         -6    1    1    2    0  501  0.41985411770E+02 -0.14055442698E+03 -0.11695812937E+03  0.25452215182E+03  0.17200000000E+03 0. -1.
<mgrwt>
<rscale>  2 0.22605823E+03</rscale>
<asrwt>0</asrwt>
<pdfrwt beam="1">  1        2 0.13585706E+00 0.22605823E+03</pdfrwt>
<pdfrwt beam="2">  1       -2 0.26124777E-01 0.22605823E+03</pdfrwt>
<totfact> 0.41393139E+02</totfact>
</mgrwt>
</event>
<event>
 4    1  0.3757815E-001  0.2039944E+03  0.7546771E-02  0.1146412E+00
          1   -1    0    0  502    0  0.00000000000E+00  0.00000000000E+00  0.78381894296E+02  0.78381894296E+02  0.00000000000E+00 0.  1.
         -1   -1    0    0    0  501 -0.00000000000E+00 -0.00000000000E+00 -0.54482404956E+03  0.54482404956E+03  0.00000000000E+00 0. -1.
          6    1    1    2  502    0  0.62638654808E+02 -0.90034072745E+02 -0.28301765188E+03  0.34887351090E+03  0.17200000000E+03 0. -1.
         -6    1    1    2    0  501 -0.62638654808E+02  0.90034072745E+02 -0.18342450339E+03  0.27433243296E+03  0.17200000000E+03 0.  1.
<mgrwt>
<rscale>  2 0.20399445E+03</rscale>
<asrwt>0</asrwt>
<pdfrwt beam="1">  1        1 0.19595474E-01 0.20399445E+03</pdfrwt>
<pdfrwt beam="2">  1       -1 0.13620601E+00 0.20399445E+03</pdfrwt>
<totfact> 0.12892297E+02</totfact>
</mgrwt>
</event>
<event>
 4    1  0.3757815E-001  0.2061478E+03  0.7546771E-02  0.1144653E+00
         -2   -1    0    0    0  501 -0.00000000000E+00  0.00000000000E+00  0.21841491373E+02  0.21841491373E+02  0.00000000000E+00 0. -1.
          2   -1    0    0  502    0  0.00000000000E+00 -0.00000000000E+00 -0.20784308278E+04  0.20784308278E+04  0.00000000000E+00 0.  1.
          6    1    1    2  502    0 -0.92088854074E+02 -0.66577602521E+02 -0.76291485231E+03  0.79027590503E+03  0.17200000000E+03 0. -1.
         -6    1    1    2    0  501  0.92088854074E+02  0.66577602521E+02 -0.12936744841E+04  0.13099964142E+04  0.17200000000E+03 0. -1.
<mgrwt>
<rscale>  2 0.20614785E+03</rscale>
<asrwt>0</asrwt>
<pdfrwt beam="1">  1        2 0.51960768E+00 0.20614785E+03</pdfrwt>
<pdfrwt beam="2">  1       -2 0.54603731E-02 0.20614785E+03</pdfrwt>
<totfact> 0.21395979E+02</totfact>
</mgrwt>
</event>
<event>
 4    1  0.3757815E-001  0.1760396E+03  0.7546771E-02  0.1171692E+00
          1   -1    0    0  502    0  0.00000000000E+00  0.00000000000E+00  0.31099957672E+03  0.31099957672E+03  0.00000000000E+00 0.  1.
         -1   -1    0    0    0  501 -0.00000000000E+00 -0.00000000000E+00 -0.10506177456E+03  0.10506177456E+03  0.00000000000E+00 0. -1.
          6    1    1    2  502    0  0.52173886945E+01 -0.37131102629E+02  0.55738080552E+02  0.18465284604E+03  0.17200000000E+03 0. -1.
         -6    1    1    2    0  501 -0.52173886945E+01  0.37131102629E+02  0.15019972161E+03  0.23140850524E+03  0.17200000000E+03 0.  1.
<mgrwt>
<rscale>  2 0.17603960E+03</rscale>
<asrwt>0</asrwt>
<pdfrwt beam="1">  1        1 0.77749892E-01 0.17603960E+03</pdfrwt>
<pdfrwt beam="2">  1       -1 0.26265444E-01 0.17603960E+03</pdfrwt>
<totfact> 0.57511808E+02</totfact>
</mgrwt>
</event>
<event>
 4    1  0.3757815E-001  0.1787736E+03  0.7546771E-02  0.1168995E+00
          1   -1    0    0  502    0  0.00000000000E+00  0.00000000000E+00  0.69340363796E+02  0.69340363796E+02  0.00000000000E+00 0.  1.
         -1   -1    0    0    0  501 -0.00000000000E+00 -0.00000000000E+00 -0.46806287599E+03  0.46806287599E+03  0.00000000000E+00 0. -1.
          6    1    1    2  502    0 -0.43999129906E+02  0.20978415749E+02 -0.23256638130E+03  0.29333792641E+03  0.17200000000E+03 0. -1.
         -6    1    1    2    0  501  0.43999129906E+02 -0.20978415749E+02 -0.16615613090E+03  0.24406531338E+03  0.17200000000E+03 0.  1.
<mgrwt>
<rscale>  2 0.17877365E+03</rscale>
<asrwt>0</asrwt>
<pdfrwt beam="1">  1        1 0.17335091E-01 0.17877365E+03</pdfrwt>
<pdfrwt beam="2">  1       -1 0.11701572E+00 0.17877365E+03</pdfrwt>
<totfact> 0.21873670E+02</totfact>
</mgrwt>
</event>
<event>
 4    1  0.3757815E-001  0.2000255E+03  0.7546771E-02  0.1149717E+00
          2   -1    0    0  502    0  0.00000000000E+00  0.00000000000E+00  0.13834912657E+03  0.13834912657E+03  0.00000000000E+00 0. -1.
         -2   -1    0    0    0  501 -0.00000000000E+00 -0.00000000000E+00 -0.29011250081E+03  0.29011250081E+03  0.00000000000E+00 0.  1.
          6    1    1    2  502    0 -0.22263902837E+01  0.10208450063E+03 -0.87913825302E+02  0.21849266066E+03  0.17200000000E+03 0.  1.
         -6    1    1    2    0  501  0.22263902837E+01 -0.10208450063E+03 -0.63849548939E+02  0.20996896671E+03  0.17200000000E+03 0. -1.
<mgrwt>
<rscale>  2 0.20002550E+03</rscale>
<asrwt>0</asrwt>
<pdfrwt beam="1">  1        2 0.34587282E-01 0.20002550E+03</pdfrwt>
<pdfrwt beam="2">  1       -2 0.72528125E-01 0.20002550E+03</pdfrwt>
<totfact> 0.26674394E+02</totfact>
</mgrwt>
</event>
<event>
 4    1  0.3757815E-001  0.1875130E+03  0.7546771E-02  0.1160724E+00
          1   -1    0    0  502    0  0.00000000000E+00  0.00000000000E+00  0.13605009153E+03  0.13605009153E+03  0.00000000000E+00 0. -1.
         -1   -1    0    0    0  501 -0.00000000000E+00 -0.00000000000E+00 -0.26050309999E+03  0.26050309999E+03  0.00000000000E+00 0.  1.
          6    1    1    2  502    0 -0.10337342587E+02 -0.73961352960E+02 -0.44592579118E+02  0.19274242007E+03  0.17200000000E+03 0.  1.
         -6    1    1    2    0  501  0.10337342587E+02  0.73961352960E+02 -0.79860429336E+02  0.20381077145E+03  0.17200000000E+03 0. -1.
<mgrwt>
<rscale>  2 0.18751305E+03</rscale>
<asrwt>0</asrwt>
<pdfrwt beam="1">  1        1 0.34012523E-01 0.18751305E+03</pdfrwt>
<pdfrwt beam="2">  1       -1 0.65125774E-01 0.18751305E+03</pdfrwt>
<totfact> 0.32314090E+02</totfact>
</mgrwt>
</event>
<event>
 4    1  0.3757815E-001  0.3412944E+03  0.7546771E-02  0.1066246E+00
         -1   -1    0    0    0  501 -0.00000000000E+00  0.00000000000E+00  0.16989270486E+03  0.16989270486E+03  0.00000000000E+00 0. -1.
          1   -1    0    0  502    0  0.00000000000E+00 -0.00000000000E+00 -0.86878254452E+03  0.86878254452E+03  0.00000000000E+00 0.  1.
          6    1    1    2  502    0  0.20147768073E+03  0.21518502373E+03 -0.11098659944E+03  0.35888699549E+03  0.17200000000E+03 0. -1.
         -6    1    1    2    0  501 -0.20147768073E+03 -0.21518502373E+03 -0.58790324022E+03  0.67978825390E+03  0.17200000000E+03 0.  1.
<mgrwt>
<rscale>  2 0.34129437E+03</rscale>
<asrwt>0</asrwt>
<pdfrwt beam="1">  1        1 0.21719563E+00 0.34129437E+03</pdfrwt>
<pdfrwt beam="2">  1       -1 0.42473177E-01 0.34129437E+03</pdfrwt>
<totfact> 0.45188941E+01</totfact>
</mgrwt>
</event>
<event>
 4    1  0.3757815E-001  0.2497473E+03  0.7546771E-02  0.1113465E+00
          2   -1    0    0  502    0  0.00000000000E+00  0.00000000000E+00  0.75705552003E+03  0.75705552003E+03  0.00000000000E+00 0. -1.
         -2   -1    0    0    0  501 -0.00000000000E+00 -0.00000000000E+00 -0.82830118724E+02  0.82830118724E+02  0.00000000000E+00 0.  1.
          6    1    1    2  502    0 -0.14826465248E+03  0.10395818458E+03  0.30649718857E+03  0.39536595442E+03  0.17200000000E+03 0.  1.
         -6    1    1    2    0  501  0.14826465248E+03 -0.10395818458E+03  0.36772821273E+03  0.44451968433E+03  0.17200000000E+03 0.  1.
<mgrwt>
<rscale>  2 0.24974729E+03</rscale>
<asrwt>0</asrwt>
<pdfrwt beam="1">  1        2 0.18926386E+00 0.24974729E+03</pdfrwt>
<pdfrwt beam="2">  1       -2 0.20707532E-01 0.24974729E+03</pdfrwt>
<totfact> 0.38362767E+02</totfact>
</mgrwt>
</event>
<event>
 4    1  0.3757815E-001  0.2766531E+03  0.7546771E-02  0.1097531E+00
         -2   -1    0    0    0  501 -0.00000000000E+00  0.00000000000E+00  0.74641981659E+02  0.74641981659E+02  0.00000000000E+00 0. -1.
          2   -1    0    0  502    0  0.00000000000E+00 -0.00000000000E+00 -0.10720426901E+04  0.10720426901E+04  0.00000000000E+00 0.  1.
          6    1    1    2  502    0 -0.15533449826E+03  0.15107655455E+03 -0.37909258096E+03  0.46930599466E+03  0.17200000000E+03 0. -1.
         -6    1    1    2    0  501  0.15533449826E+03 -0.15107655455E+03 -0.61830812751E+03  0.67737867713E+03  0.17200000000E+03 0.  1.
<mgrwt>
<rscale>  2 0.27665309E+03</rscale>
<asrwt>0</asrwt>
<pdfrwt beam="1">  1        2 0.26801067E+00 0.27665309E+03</pdfrwt>
<pdfrwt beam="2">  1       -2 0.18660496E-01 0.27665309E+03</pdfrwt>
<totfact> 0.24163256E+02</totfact>
</mgrwt>
</event>
<event>
 4    1  0.3757815E-001  0.2029131E+03  0.7546771E-02  0.1147304E+00
         -2   -1    0    0    0  501 -0.00000000000E+00  0.00000000000E+00  0.19628710570E+03  0.19628710570E+03  0.00000000000E+00 0. -1.
          2   -1    0    0  502    0  0.00000000000E+00 -0.00000000000E+00 -0.23521453410E+03  0.23521453410E+03  0.00000000000E+00 0.  1.
          6    1    1    2  502    0  0.91240929838E+02  0.57138710229E+02  0.51506935400E+02  0.20934828368E+03  0.17200000000E+03 0. -1.
         -6    1    1    2    0  501 -0.91240929838E+02 -0.57138710229E+02 -0.90434363798E+02  0.22215335613E+03  0.17200000000E+03 0.  1.
<mgrwt>
<rscale>  2 0.20291313E+03</rscale>
<asrwt>0</asrwt>
<pdfrwt beam="1">  1        2 0.58803633E-01 0.20291313E+03</pdfrwt>
<pdfrwt beam="2">  1       -2 0.49071777E-01 0.20291313E+03</pdfrwt>
<totfact> 0.33786347E+02</totfact>
</mgrwt>
</event>
<event>
 4    1  0.3757815E-001  0.1728374E+03  0.7546771E-02  0.1174921E+00
          1   -1    0    0  502    0  0.00000000000E+00  0.00000000000E+00  0.10087026855E+04  0.10087026855E+04  0.00000000000E+00 0. -1.
         -1   -1    0    0    0  501 -0.00000000000E+00 -0.00000000000E+00 -0.59295103791E+02  0.59295103791E+02  0.00000000000E+00 0.  1.
          6    1    1    2  502    0  0.10108197602E+02 -0.13660135036E+02  0.85250498225E+03  0.86984913618E+03  0.17200000000E+03 0. -1.
         -6    1    1    2    0  501 -0.10108197602E+02  0.13660135036E+02  0.96902599455E+02  0.19814865311E+03  0.17200000000E+03 0.  1.
<mgrwt>
<rscale>  2 0.17283742E+03</rscale>
<asrwt>0</asrwt>
<pdfrwt beam="1">  1        1 0.25217562E+00 0.17283742E+03</pdfrwt>
<pdfrwt beam="2">  1       -1 0.14823779E-01 0.17283742E+03</pdfrwt>
<totfact> 0.19575661E+02</totfact>
</mgrwt>
</event>
<event>
 4    1  0.3757815E-001  0.1799123E+03  0.7546771E-02  0.1167888E+00
          2   -1    0    0  502    0  0.00000000000E+00  0.00000000000E+00  0.65418588767E+03  0.65418588767E+03  0.00000000000E+00 0. -1.
         -2   -1    0    0    0  501 -0.00000000000E+00 -0.00000000000E+00 -0.49552339082E+02  0.49552339082E+02  0.00000000000E+00 0.  1.
          6    1    1    2  502    0  0.49071651939E+02 -0.19400988605E+02  0.28877456834E+03  0.34023400286E+03  0.17200000000E+03 0.  1.
         -6    1    1    2    0  501 -0.49071651939E+02  0.19400988605E+02  0.31585898024E+03  0.36350422389E+03  0.17200000000E+03 0.  1.
<mgrwt>
<rscale>  2 0.17991227E+03</rscale>
<asrwt>0</asrwt>
<pdfrwt beam="1">  1        2 0.16354644E+00 0.17991227E+03</pdfrwt>
<pdfrwt beam="2">  1       -2 0.12388087E-01 0.17991227E+03</pdfrwt>
<totfact> 0.11326336E+03</totfact>
</mgrwt>
</event>
<event>
 4    1  0.3757815E-001  0.2339458E+03  0.7546771E-02  0.1123893E+00
          2   -1    0    0  502    0  0.00000000000E+00  0.00000000000E+00  0.19366687598E+03  0.19366687598E+03  0.00000000000E+00 0.  1.
         -2   -1    0    0    0  501 -0.00000000000E+00 -0.00000000000E+00 -0.28313305009E+03  0.28313305009E+03  0.00000000000E+00 0. -1.
          6    1    1    2  502    0 -0.48878838697E+02 -0.15085587674E+03 -0.34407853309E+02  0.23646254839E+03  0.17200000000E+03 0.  1.
         -6    1    1    2    0  501  0.48878838697E+02  0.15085587674E+03 -0.55058320804E+02  0.24033737768E+03  0.17200000000E+03 0. -1.
<mgrwt>
<rscale>  2 0.23394580E+03</rscale>
<asrwt>0</asrwt>
<pdfrwt beam="1">  1        2 0.48416720E-01 0.23394580E+03</pdfrwt>
<pdfrwt beam="2">  1       -2 0.70783262E-01 0.23394580E+03</pdfrwt>
<totfact> 0.19522603E+02</totfact>
</mgrwt>
</event>
<event>
 4    1  0.3757815E-001  0.1885622E+03  0.7546771E-02  0.1159765E+00
          2   -1    0    0  502    0  0.00000000000E+00  0.00000000000E+00  0.17027238628E+04  0.17027238628E+04  0.00000000000E+00 0.  1.
         -2   -1    0    0    0  501 -0.00000000000E+00 -0.00000000000E+00 -0.20888735743E+02  0.20888735743E+02  0.00000000000E+00 0. -1.
          6    1    1    2  502    0  0.60422326554E+02 -0.48175121630E+02  0.85677947840E+03  0.87728374800E+03  0.17200000000E+03 0.  1.
         -6    1    1    2    0  501 -0.60422326554E+02  0.48175121630E+02  0.82505564868E+03  0.84632885057E+03  0.17200000000E+03 0. -1.
<mgrwt>
<rscale>  2 0.18856219E+03</rscale>
<asrwt>0</asrwt>
<pdfrwt beam="1">  1        2 0.42568050E+00 0.18856219E+03</pdfrwt>
<pdfrwt beam="2">  1       -2 0.52221897E-02 0.18856219E+03</pdfrwt>
<totfact> 0.53292028E+02</totfact>
</mgrwt>
</event>
<event>
 4    1  0.3757815E-001  0.2251357E+03  0.7546771E-02  0.1130111E+00
         -2   -1    0    0    0  501 -0.00000000000E+00  0.00000000000E+00  0.10934836527E+03  0.10934836527E+03  0.00000000000E+00 0. -1.
          2   -1    0    0  502    0  0.00000000000E+00 -0.00000000000E+00 -0.47990982084E+03  0.47990982084E+03  0.00000000000E+00 0.  1.
          6    1    1    2  502    0  0.10149550664E+03 -0.10392669060E+03 -0.23971456071E+03  0.32886040428E+03  0.17200000000E+03 0.  1.
         -6    1    1    2    0  501 -0.10149550664E+03  0.10392669060E+03 -0.13084689486E+03  0.26039778183E+03  0.17200000000E+03 0. -1.
<mgrwt>
<rscale>  2 0.22513573E+03</rscale>
<asrwt>0</asrwt>
<pdfrwt beam="1">  1        2 0.11997745E+00 0.22513573E+03</pdfrwt>
<pdfrwt beam="2">  1       -2 0.27337092E-01 0.22513573E+03</pdfrwt>
<totfact> 0.44816195E+02</totfact>
</mgrwt>
</event>
<event>
 4    1  0.3757815E-001  0.1951921E+03  0.7546771E-02  0.1153860E+00
         -1   -1    0    0    0  501 -0.00000000000E+00  0.00000000000E+00  0.66533442840E+02  0.66533442840E+02  0.00000000000E+00 0. -1.
          1   -1    0    0  502    0  0.00000000000E+00 -0.00000000000E+00 -0.59203788931E+03  0.59203788931E+03  0.00000000000E+00 0.  1.
          6    1    1    2  502    0 -0.58686150268E+02 -0.71217254165E+02 -0.20315402790E+03  0.28172951670E+03  0.17200000000E+03 0. -1.
         -6    1    1    2    0  501  0.58686150268E+02  0.71217254165E+02 -0.32235041856E+03  0.37684181545E+03  0.17200000000E+03 0.  1.
<mgrwt>
<rscale>  2 0.19519211E+03</rscale>
<asrwt>0</asrwt>
<pdfrwt beam="1">  1        1 0.14800947E+00 0.19519211E+03</pdfrwt>
<pdfrwt beam="2">  1       -1 0.16633360E-01 0.19519211E+03</pdfrwt>
<totfact> 0.47127649E+02</totfact>
</mgrwt>
</event>
<event>
 4    1  0.3757815E-001  0.2210765E+03  0.7546771E-02  0.1133083E+00
         -2   -1    0    0    0  501 -0.00000000000E+00  0.00000000000E+00  0.78925030219E+02  0.78925030219E+02  0.00000000000E+00 0. -1.
          2   -1    0    0  502    0  0.00000000000E+00 -0.00000000000E+00 -0.75043230114E+03  0.75043230114E+03  0.00000000000E+00 0.  1.
          6    1    1    2  502    0 -0.13115581608E+03  0.45705096013E+02 -0.16237981864E+03  0.27430276958E+03  0.17200000000E+03 0. -1.
         -6    1    1    2    0  501  0.13115581608E+03 -0.45705096013E+02 -0.50912745227E+03  0.55505456178E+03  0.17200000000E+03 0.  1.
<mgrwt>
<rscale>  2 0.22107647E+03</rscale>
<asrwt>0</asrwt>
<pdfrwt beam="1">  1        2 0.18760807E+00 0.22107647E+03</pdfrwt>
<pdfrwt beam="2">  1       -2 0.19731258E-01 0.22107647E+03</pdfrwt>
<totfact> 0.42432861E+02</totfact>
</mgrwt>
</event>
<event>
 4    1  0.3757815E-001  0.1819493E+03  0.7546771E-02  0.1165930E+00
          2   -1    0    0  502    0  0.00000000000E+00  0.00000000000E+00  0.51218529006E+03  0.51218529006E+03  0.00000000000E+00 0.  1.
         -2   -1    0    0    0  501 -0.00000000000E+00 -0.00000000000E+00 -0.10522743397E+03  0.10522743397E+03  0.00000000000E+00 0. -1.
          6    1    1    2  502    0  0.45844406037E+02  0.37680752914E+02  0.11745026231E+02  0.18232798564E+03  0.17200000000E+03 0. -1.
         -6    1    1    2    0  501 -0.45844406037E+02 -0.37680752914E+02  0.39521282985E+03  0.43508473839E+03  0.17200000000E+03 0.  1.
<mgrwt>
<rscale>  2 0.18194930E+03</rscale>
<asrwt>0</asrwt>
<pdfrwt beam="1">  1        2 0.12804632E+00 0.18194930E+03</pdfrwt>
<pdfrwt beam="2">  1       -2 0.26306860E-01 0.18194930E+03</pdfrwt>
<totfact> 0.44358150E+02</totfact>
</mgrwt>
</event>
<event>
 4    1  0.3757815E-001  0.2678341E+03  0.7546771E-02  0.1102526E+00
          2   -1    0    0  502    0  0.00000000000E+00  0.00000000000E+00  0.10775764392E+04  0.10775764392E+04  0.00000000000E+00 0.  1.
         -2   -1    0    0    0  501 -0.00000000000E+00 -0.00000000000E+00 -0.68697277294E+02  0.68697277294E+02  0.00000000000E+00 0. -1.
          6    1    1    2  502    0  0.74757904939E+02 -0.19121287446E+03  0.60527675087E+03  0.66188749260E+03  0.17200000000E+03 0. -1.
         -6    1    1    2    0  501 -0.74757904939E+02  0.19121287446E+03  0.40360241103E+03  0.48438622390E+03  0.17200000000E+03 0. -1.
<mgrwt>
<rscale>  2 0.26783410E+03</rscale>
<asrwt>0</asrwt>
<pdfrwt beam="1">  1        2 0.26939406E+00 0.26783410E+03</pdfrwt>
<pdfrwt beam="2">  1       -2 0.17174323E-01 0.26783410E+03</pdfrwt>
<totfact> 0.27557618E+02</totfact>
</mgrwt>
</event>
<event>
 4    1  0.3757815E-001  0.3386659E+03  0.7546771E-02  0.1067366E+00
          1   -1    0    0  502    0  0.00000000000E+00  0.00000000000E+00  0.64292897622E+03  0.64292897622E+03  0.00000000000E+00 0. -1.
         -1   -1    0    0    0  501 -0.00000000000E+00 -0.00000000000E+00 -0.26421777513E+03  0.26421777513E+03  0.00000000000E+00 0.  1.
          6    1    1    2  502    0 -0.29026249862E+03 -0.29296109261E+02  0.44786164720E+03  0.56149321915E+03  0.17200000000E+03 0. -1.
         -6    1    1    2    0  501  0.29026249862E+03  0.29296109261E+02 -0.69150446113E+02  0.34565353220E+03  0.17200000000E+03 0.  1.
<mgrwt>
<rscale>  2 0.33866588E+03</rscale>
<asrwt>0</asrwt>
<pdfrwt beam="1">  1        1 0.16073224E+00 0.33866588E+03</pdfrwt>
<pdfrwt beam="2">  1       -1 0.66054445E-01 0.33866588E+03</pdfrwt>
<totfact> 0.35584638E+01</totfact>
</mgrwt>
</event>
<event>
 4    1  0.3757815E-001  0.1909722E+03  0.7546771E-02  0.1157587E+00
          2   -1    0    0  502    0  0.00000000000E+00  0.00000000000E+00  0.15076582931E+04  0.15076582931E+04  0.00000000000E+00 0.  1.
         -2   -1    0    0    0  501 -0.00000000000E+00 -0.00000000000E+00 -0.24690098850E+02  0.24690098850E+02  0.00000000000E+00 0. -1.
          6    1    1    2  502    0 -0.48472884823E+02 -0.67355417500E+02  0.85051756881E+03  0.87169404476E+03  0.17200000000E+03 0. -1.
         -6    1    1    2    0  501  0.48472884823E+02  0.67355417500E+02  0.63245062541E+03  0.66065434715E+03  0.17200000000E+03 0.  1.
<mgrwt>
<rscale>  2 0.19097218E+03</rscale>
<asrwt>0</asrwt>
<pdfrwt beam="1">  1        2 0.37691426E+00 0.19097218E+03</pdfrwt>
<pdfrwt beam="2">  1       -2 0.61725298E-02 0.19097218E+03</pdfrwt>
<totfact> 0.61627159E+02</totfact>
</mgrwt>
</event>
<event>
 4    1  0.3757815E-001  0.1798728E+03  0.7546771E-02  0.1167926E+00
          2   -1    0    0  502    0  0.00000000000E+00  0.00000000000E+00  0.62639913775E+03  0.62639913775E+03  0.00000000000E+00 0.  1.
         -2   -1    0    0    0  501 -0.00000000000E+00 -0.00000000000E+00 -0.55884801771E+02  0.55884801771E+02  0.00000000000E+00 0. -1.
          6    1    1    2  502    0 -0.39757049084E+02  0.34490729000E+02  0.19136138984E+03  0.26262790191E+03  0.17200000000E+03 0. -1.
         -6    1    1    2    0  501  0.39757049084E+02 -0.34490729000E+02  0.37915294615E+03  0.41965603762E+03  0.17200000000E+03 0.  1.
<mgrwt>
<rscale>  2 0.17987283E+03</rscale>
<asrwt>0</asrwt>
<pdfrwt beam="1">  1        2 0.15659976E+00 0.17987283E+03</pdfrwt>
<pdfrwt beam="2">  1       -2 0.13971202E-01 0.17987283E+03</pdfrwt>
<totfact> 0.99123556E+02</totfact>
</mgrwt>
</event>
<event>
 4    1  0.3757815E-001  0.1975975E+03  0.7546771E-02  0.1151782E+00
          2   -1    0    0  502    0  0.00000000000E+00  0.00000000000E+00  0.12660997723E+04  0.12660997723E+04  0.00000000000E+00 0. -1.
         -2   -1    0    0    0  501 -0.00000000000E+00 -0.00000000000E+00 -0.15418686724E+03  0.15418686724E+03  0.00000000000E+00 0.  1.
          6    1    1    2  502    0  0.67282693177E+02  0.70241079741E+02 -0.79211832042E+02  0.21288326477E+03  0.17200000000E+03 0.  1.
         -6    1    1    2    0  501 -0.67282693177E+02 -0.70241079741E+02  0.11911247371E+04  0.12074033748E+04  0.17200000000E+03 0. -1.
<mgrwt>
<rscale>  2 0.19759750E+03</rscale>
<asrwt>0</asrwt>
<pdfrwt beam="1">  1        2 0.31652491E+00 0.19759750E+03</pdfrwt>
<pdfrwt beam="2">  1       -2 0.38546721E-01 0.19759750E+03</pdfrwt>
<totfact> 0.46306017E+01</totfact>
</mgrwt>
</event>
<event>
 4    1  0.3757815E-001  0.1787468E+03  0.7546771E-02  0.1169021E+00
          2   -1    0    0  502    0  0.00000000000E+00  0.00000000000E+00  0.97173966206E+03  0.97173966206E+03  0.00000000000E+00 0.  1.
         -2   -1    0    0    0  501 -0.00000000000E+00 -0.00000000000E+00 -0.33162977548E+02  0.33162977548E+02  0.00000000000E+00 0. -1.
          6    1    1    2  502    0  0.47087811325E+02  0.12213249945E+02  0.42284335298E+03  0.45907180986E+03  0.17200000000E+03 0. -1.
         -6    1    1    2    0  501 -0.47087811325E+02 -0.12213249945E+02  0.51573333153E+03  0.54583082975E+03  0.17200000000E+03 0.  1.
<mgrwt>
<rscale>  2 0.17874682E+03</rscale>
<asrwt>0</asrwt>
<pdfrwt beam="1">  1        2 0.24293482E+00 0.17874682E+03</pdfrwt>
<pdfrwt beam="2">  1       -2 0.82907476E-02 0.17874682E+03</pdfrwt>
<totfact> 0.11168752E+03</totfact>
</mgrwt>
</event>
<event>
 4    1  0.3757815E-001  0.2674639E+03  0.7546771E-02  0.1102740E+00
          2   -1    0    0  502    0  0.00000000000E+00  0.00000000000E+00  0.10047784251E+04  0.10047784251E+04  0.00000000000E+00 0.  1.
         -2   -1    0    0    0  501 -0.00000000000E+00 -0.00000000000E+00 -0.87907853939E+02  0.87907853939E+02  0.00000000000E+00 0. -1.
          6    1    1    2  502    0 -0.20025406890E+03  0.43026308068E+02  0.22022842546E+03  0.34646430506E+03  0.17200000000E+03 0. -1.
         -6    1    1    2    0  501  0.20025406890E+03 -0.43026308068E+02  0.69664214575E+03  0.74622197403E+03  0.17200000000E+03 0.  1.
<mgrwt>
<rscale>  2 0.26746393E+03</rscale>
<asrwt>0</asrwt>
<pdfrwt beam="1">  1        2 0.25119457E+00 0.26746393E+03</pdfrwt>
<pdfrwt beam="2">  1       -2 0.21976967E-01 0.26746393E+03</pdfrwt>
<totfact> 0.20867054E+02</totfact>
</mgrwt>
</event>
<event>
 4    1  0.3757815E-001  0.1820000E+03  0.7546771E-02  0.1165881E+00
         -2   -1    0    0    0  501 -0.00000000000E+00  0.00000000000E+00  0.90823774557E+02  0.90823774557E+02  0.00000000000E+00 0.  1.
          2   -1    0    0  502    0  0.00000000000E+00 -0.00000000000E+00 -0.42656612243E+03  0.42656612243E+03  0.00000000000E+00 0. -1.
          6    1    1    2  502    0 -0.57315221158E+02  0.15968094947E+02 -0.69357017277E+02  0.19476758067E+03  0.17200000000E+03 0. -1.
         -6    1    1    2    0  501  0.57315221158E+02 -0.15968094947E+02 -0.26638533060E+03  0.32262231632E+03  0.17200000000E+03 0. -1.
<mgrwt>
<rscale>  2 0.18200004E+03</rscale>
<asrwt>0</asrwt>
<pdfrwt beam="1">  1        2 0.10664153E+00 0.18200004E+03</pdfrwt>
<pdfrwt beam="2">  1       -2 0.22705944E-01 0.18200004E+03</pdfrwt>
<totfact> 0.71967562E+02</totfact>
</mgrwt>
</event>
<event>
 4    1  0.3757815E-001  0.1771860E+03  0.7546771E-02  0.1170555E+00
         -2   -1    0    0    0  501 -0.00000000000E+00  0.00000000000E+00  0.62178899699E+02  0.62178899699E+02  0.00000000000E+00 0. -1.
          2   -1    0    0  502    0  0.00000000000E+00 -0.00000000000E+00 -0.50558499918E+03  0.50558499918E+03  0.00000000000E+00 0.  1.
          6    1    1    2  502    0 -0.77969449324E+00  0.42547213825E+02 -0.21134580577E+03  0.27579326124E+03  0.17200000000E+03 0. -1.
         -6    1    1    2    0  501  0.77969449324E+00 -0.42547213825E+02 -0.23206029372E+03  0.29197063765E+03  0.17200000000E+03 0. -1.
<mgrwt>
<rscale>  2 0.17718599E+03</rscale>
<asrwt>0</asrwt>
<pdfrwt beam="1">  1        2 0.12639625E+00 0.17718599E+03</pdfrwt>
<pdfrwt beam="2">  1       -2 0.15544725E-01 0.17718599E+03</pdfrwt>
<totfact> 0.11072661E+03</totfact>
</mgrwt>
</event>
<event>
 4    1  0.3757815E-001  0.1988677E+03  0.7546771E-02  0.1150698E+00
         -1   -1    0    0    0  501 -0.00000000000E+00  0.00000000000E+00  0.14294916224E+03  0.14294916224E+03  0.00000000000E+00 0. -1.
          1   -1    0    0  502    0  0.00000000000E+00 -0.00000000000E+00 -0.10381487854E+04  0.10381487854E+04  0.00000000000E+00 0.  1.
          6    1    1    2  502    0  0.21757773150E+02 -0.97421666752E+02 -0.95337525798E+03  0.97389566401E+03  0.17200000000E+03 0.  1.
         -6    1    1    2    0  501 -0.21757773150E+02  0.97421666752E+02  0.58175634847E+02  0.20720228361E+03  0.17200000000E+03 0. -1.
<mgrwt>
<rscale>  2 0.19886775E+03</rscale>
<asrwt>0</asrwt>
<pdfrwt beam="1">  1        1 0.25953720E+00 0.19886775E+03</pdfrwt>
<pdfrwt beam="2">  1       -1 0.35737290E-01 0.19886775E+03</pdfrwt>
<totfact> 0.42384402E+01</totfact>
</mgrwt>
</event>
<event>
 4    1  0.3757815E-001  0.1985849E+03  0.7546771E-02  0.1150938E+00
          1   -1    0    0  502    0  0.00000000000E+00  0.00000000000E+00  0.32231014124E+03  0.32231014124E+03  0.00000000000E+00 0.  1.
         -1   -1    0    0    0  501 -0.00000000000E+00 -0.00000000000E+00 -0.12239578110E+03  0.12239578110E+03  0.00000000000E+00 0. -1.
          6    1    1    2  502    0  0.18750012312E+00 -0.99256788393E+02  0.95850551218E+02  0.22050685560E+03  0.17200000000E+03 0. -1.
         -6    1    1    2    0  501 -0.18750012312E+00  0.99256788393E+02  0.10406380892E+03  0.22419906674E+03  0.17200000000E+03 0.  1.
<mgrwt>
<rscale>  2 0.19858486E+03</rscale>
<asrwt>0</asrwt>
<pdfrwt beam="1">  1        1 0.80577534E-01 0.19858486E+03</pdfrwt>
<pdfrwt beam="2">  1       -1 0.30598946E-01 0.19858486E+03</pdfrwt>
<totfact> 0.42377259E+02</totfact>
</mgrwt>
</event>
<event>
 4    1  0.3757815E-001  0.1933132E+03  0.7546771E-02  0.1155507E+00
          1   -1    0    0  502    0  0.00000000000E+00  0.00000000000E+00  0.15143339113E+04  0.15143339113E+04  0.00000000000E+00 0. -1.
         -1   -1    0    0    0  501 -0.00000000000E+00 -0.00000000000E+00 -0.25287340805E+02  0.25287340805E+02  0.00000000000E+00 0.  1.
          6    1    1    2  502    0 -0.84900390308E+02 -0.24039772820E+02  0.62497653549E+03  0.65419084132E+03  0.17200000000E+03 0.  1.
         -6    1    1    2    0  501  0.84900390308E+02  0.24039772820E+02  0.86407003501E+03  0.88543041079E+03  0.17200000000E+03 0. -1.
<mgrwt>
<rscale>  2 0.19331318E+03</rscale>
<asrwt>0</asrwt>
<pdfrwt beam="1">  1        1 0.37858317E+00 0.19331318E+03</pdfrwt>
<pdfrwt beam="2">  1       -1 0.63218403E-02 0.19331318E+03</pdfrwt>
<totfact> 0.21239331E+02</totfact>
</mgrwt>
</event>
<event>
 4    1  0.3757815E-001  0.1866035E+03  0.7546771E-02  0.1161561E+00
         -2   -1    0    0    0  501 -0.00000000000E+00  0.00000000000E+00  0.67856553095E+02  0.67856553095E+02  0.00000000000E+00 0.  1.
          2   -1    0    0  502    0  0.00000000000E+00 -0.00000000000E+00 -0.51938510076E+03  0.51938510076E+03  0.00000000000E+00 0. -1.
          6    1    1    2  502    0 -0.71000720645E+02  0.13991449528E+02 -0.25792484921E+03  0.31834900790E+03  0.17200000000E+03 0. -1.
         -6    1    1    2    0  501  0.71000720645E+02 -0.13991449528E+02 -0.19360369845E+03  0.26889264595E+03  0.17200000000E+03 0.  1.
<mgrwt>
<rscale>  2 0.18660349E+03</rscale>
<asrwt>0</asrwt>
<pdfrwt beam="1">  1        2 0.12984628E+00 0.18660349E+03</pdfrwt>
<pdfrwt beam="2">  1       -2 0.16964138E-01 0.18660349E+03</pdfrwt>
<totfact> 0.92535063E+02</totfact>
</mgrwt>
</event>
<event>
 4    1  0.3757815E-001  0.4242711E+03  0.7546771E-02  0.1035685E+00
         -2   -1    0    0    0  501 -0.00000000000E+00  0.00000000000E+00  0.73277143616E+03  0.73277143616E+03  0.00000000000E+00 0.  1.
          2   -1    0    0  502    0  0.00000000000E+00 -0.00000000000E+00 -0.42986984308E+03  0.42986984308E+03  0.00000000000E+00 0. -1.
          6    1    1    2  502    0  0.38729842715E+03 -0.20539419820E+02 -0.22910157610E+03  0.48217576838E+03  0.17200000000E+03 0. -1.
         -6    1    1    2    0  501 -0.38729842715E+03  0.20539419820E+02  0.53200316919E+03  0.68046551085E+03  0.17200000000E+03 0.  1.
<mgrwt>
<rscale>  2 0.42427107E+03</rscale>
<asrwt>0</asrwt>
<pdfrwt beam="1">  1        2 0.10746746E+00 0.42427107E+03</pdfrwt>
<pdfrwt beam="2">  1       -2 0.18319286E+00 0.42427107E+03</pdfrwt>
<totfact> 0.75925418E+00</totfact>
</mgrwt>
</event>
<event>
 4    1  0.3757815E-001  0.1727031E+03  0.7546771E-02  0.1175058E+00
          1   -1    0    0  502    0  0.00000000000E+00  0.00000000000E+00  0.80048528354E+03  0.80048528354E+03  0.00000000000E+00 0.  1.
         -1   -1    0    0    0  501 -0.00000000000E+00 -0.00000000000E+00 -0.67844128938E+02  0.67844128938E+02  0.00000000000E+00 0. -1.
          6    1    1    2  502    0 -0.48821753811E+01  0.14782992516E+02  0.74817019876E+02  0.18821253669E+03  0.17200000000E+03 0. -1.
         -6    1    1    2    0  501  0.48821753811E+01 -0.14782992516E+02  0.65782413473E+03  0.68011687579E+03  0.17200000000E+03 0.  1.
<mgrwt>
<rscale>  2 0.17270313E+03</rscale>
<asrwt>0</asrwt>
<pdfrwt beam="1">  1        1 0.20012129E+00 0.17270313E+03</pdfrwt>
<pdfrwt beam="2">  1       -1 0.16961035E-01 0.17270313E+03</pdfrwt>
<totfact> 0.26399055E+02</totfact>
</mgrwt>
</event>
<event>
 4    1  0.3757815E-001  0.2175530E+03  0.7546771E-02  0.1135721E+00
         -2   -1    0    0    0  501 -0.00000000000E+00  0.00000000000E+00  0.15769122679E+03  0.15769122679E+03  0.00000000000E+00 0.  1.
          2   -1    0    0  502    0  0.00000000000E+00 -0.00000000000E+00 -0.31266609916E+03  0.31266609916E+03  0.00000000000E+00 0. -1.
          6    1    1    2  502    0 -0.28202253807E+02  0.13019191215E+03 -0.30413421439E+02  0.21966856241E+03  0.17200000000E+03 0.  1.
         -6    1    1    2    0  501  0.28202253807E+02 -0.13019191215E+03 -0.12456145093E+03  0.25068876354E+03  0.17200000000E+03 0. -1.
<mgrwt>
<rscale>  2 0.21755298E+03</rscale>
<asrwt>0</asrwt>
<pdfrwt beam="1">  1        2 0.78166524E-01 0.21755298E+03</pdfrwt>
<pdfrwt beam="2">  1       -2 0.39422807E-01 0.21755298E+03</pdfrwt>
<totfact> 0.37811785E+02</totfact>
</mgrwt>
</event>
<event>
 4    1  0.3757815E-001  0.2703508E+03  0.7546771E-02  0.1101079E+00
          1   -1    0    0  502    0  0.00000000000E+00  0.00000000000E+00  0.44759057029E+03  0.44759057029E+03  0.00000000000E+00 0.  1.
         -1   -1    0    0    0  501 -0.00000000000E+00 -0.00000000000E+00 -0.18230502564E+03  0.18230502564E+03  0.00000000000E+00 0. -1.
          6    1    1    2  502    0 -0.12067938061E+03  0.17012360397E+03  0.30942013797E+02  0.27211571390E+03  0.17200000000E+03 0.  1.
         -6    1    1    2    0  501  0.12067938061E+03 -0.17012360397E+03  0.23434353085E+03  0.35777988203E+03  0.17200000000E+03 0. -1.
<mgrwt>
<rscale>  2 0.27035080E+03</rscale>
<asrwt>0</asrwt>
<pdfrwt beam="1">  1        1 0.11189764E+00 0.27035080E+03</pdfrwt>
<pdfrwt beam="2">  1       -1 0.45576257E-01 0.27035080E+03</pdfrwt>
<totfact> 0.13143697E+02</totfact>
</mgrwt>
</event>
<event>
 4    1  0.3757815E-001  0.2079845E+03  0.7546771E-02  0.1143172E+00
         -1   -1    0    0    0  501 -0.00000000000E+00  0.00000000000E+00  0.43304391828E+02  0.43304391828E+02  0.00000000000E+00 0. -1.
          1   -1    0    0  502    0  0.00000000000E+00 -0.00000000000E+00 -0.10034683748E+04  0.10034683748E+04  0.00000000000E+00 0.  1.
          6    1    1    2  502    0 -0.11297584775E+03 -0.30166695217E+02 -0.51532357135E+03  0.55571211510E+03  0.17200000000E+03 0.  1.
         -6    1    1    2    0  501  0.11297584775E+03  0.30166695217E+02 -0.44484041167E+03  0.49106065158E+03  0.17200000000E+03 0. -1.
<mgrwt>
<rscale>  2 0.20798455E+03</rscale>
<asrwt>0</asrwt>
<pdfrwt beam="1">  1        1 0.25086710E+00 0.20798455E+03</pdfrwt>
<pdfrwt beam="2">  1       -1 0.10826098E-01 0.20798455E+03</pdfrwt>
<totfact> 0.32084619E+02</totfact>
</mgrwt>
</event>
<event>
 4    1  0.3757815E-001  0.1940456E+03  0.7546771E-02  0.1154862E+00
         -1   -1    0    0    0  501 -0.00000000000E+00  0.00000000000E+00  0.30217955916E+03  0.30217955916E+03  0.00000000000E+00 0. -1.
          1   -1    0    0  502    0  0.00000000000E+00 -0.00000000000E+00 -0.13705024143E+03  0.13705024143E+03  0.00000000000E+00 0.  1.
          6    1    1    2  502    0  0.72668939592E+02  0.52810081217E+02  0.16390386268E+02  0.19473655081E+03  0.17200000000E+03 0.  1.
         -6    1    1    2    0  501 -0.72668939592E+02 -0.52810081217E+02  0.14873893146E+03  0.24449324979E+03  0.17200000000E+03 0. -1.
<mgrwt>
<rscale>  2 0.19404556E+03</rscale>
<asrwt>0</asrwt>
<pdfrwt beam="1">  1        1 0.34262561E-01 0.19404556E+03</pdfrwt>
<pdfrwt beam="2">  1       -1 0.75544889E-01 0.19404556E+03</pdfrwt>
<totfact> 0.23816331E+02</totfact>
</mgrwt>
</event>
<event>
 4    1  0.3757815E-001  0.1894224E+03  0.7546771E-02  0.1158983E+00
          1   -1    0    0  502    0  0.00000000000E+00  0.00000000000E+00  0.32107392346E+03  0.32107392346E+03  0.00000000000E+00 0. -1.
         -1   -1    0    0    0  501 -0.00000000000E+00 -0.00000000000E+00 -0.12236805936E+03  0.12236805936E+03  0.00000000000E+00 0.  1.
          6    1    1    2  502    0 -0.77660176447E+02  0.16301409946E+02  0.34048508133E+02  0.19245815098E+03  0.17200000000E+03 0.  1.
         -6    1    1    2    0  501  0.77660176447E+02 -0.16301409946E+02  0.16465735597E+03  0.25098383184E+03  0.17200000000E+03 0. -1.
<mgrwt>
<rscale>  2 0.18942238E+03</rscale>
<asrwt>0</asrwt>
<pdfrwt beam="1">  1        1 0.80268479E-01 0.18942238E+03</pdfrwt>
<pdfrwt beam="2">  1       -1 0.30592015E-01 0.18942238E+03</pdfrwt>
<totfact> 0.42641356E+02</totfact>
</mgrwt>
</event>
<event>
 4    1  0.3757815E-001  0.1987856E+03  0.7546771E-02  0.1150768E+00
         -2   -1    0    0    0  501 -0.00000000000E+00  0.00000000000E+00  0.82454787706E+03  0.82454787706E+03  0.00000000000E+00 0.  1.
          2   -1    0    0  502    0  0.00000000000E+00 -0.00000000000E+00 -0.57667027674E+02  0.57667027674E+02  0.00000000000E+00 0. -1.
          6    1    1    2  502    0 -0.97103171545E+02 -0.22420964095E+02  0.20212904478E+03  0.28349934092E+03  0.17200000000E+03 0. -1.
         -6    1    1    2    0  501  0.97103171545E+02  0.22420964095E+02  0.56475180461E+03  0.59871556382E+03  0.17200000000E+03 0.  1.
<mgrwt>
<rscale>  2 0.19878563E+03</rscale>
<asrwt>0</asrwt>
<pdfrwt beam="1">  1        2 0.14416760E-01 0.19878563E+03</pdfrwt>
<pdfrwt beam="2">  1       -2 0.20613693E+00 0.19878563E+03</pdfrwt>
<totfact> 0.54561103E+01</totfact>
</mgrwt>
</event>
<event>
 4    1  0.3757815E-001  0.2033556E+03  0.7546771E-02  0.1146938E+00
          1   -1    0    0  502    0  0.00000000000E+00  0.00000000000E+00  0.35351913596E+03  0.35351913596E+03  0.00000000000E+00 0.  1.
         -1   -1    0    0    0  501 -0.00000000000E+00 -0.00000000000E+00 -0.12728454097E+03  0.12728454097E+03  0.00000000000E+00 0. -1.
          6    1    1    2  502    0 -0.22243016652E+02  0.10618255963E+03  0.44704924909E+02  0.20821147440E+03  0.17200000000E+03 0.  1.
         -6    1    1    2    0  501  0.22243016652E+02 -0.10618255963E+03  0.18152967009E+03  0.27259220253E+03  0.17200000000E+03 0. -1.
<mgrwt>
<rscale>  2 0.20335557E+03</rscale>
<asrwt>0</asrwt>
<pdfrwt beam="1">  1        1 0.88379782E-01 0.20335557E+03</pdfrwt>
<pdfrwt beam="2">  1       -1 0.31821136E-01 0.20335557E+03</pdfrwt>
<totfact> 0.34977221E+02</totfact>
</mgrwt>
</event>
<event>
 4    1  0.3757815E-001  0.2684382E+03  0.7546771E-02  0.1102177E+00
         -2   -1    0    0    0  501 -0.00000000000E+00  0.00000000000E+00  0.10995106794E+03  0.10995106794E+03  0.00000000000E+00 0.  1.
          2   -1    0    0  502    0  0.00000000000E+00 -0.00000000000E+00 -0.65803877235E+03  0.65803877235E+03  0.00000000000E+00 0. -1.
          6    1    1    2  502    0  0.24691347429E+02 -0.20461032789E+03 -0.24960694116E+03  0.36655514455E+03  0.17200000000E+03 0.  1.
         -6    1    1    2    0  501 -0.24691347429E+02  0.20461032789E+03 -0.29848076325E+03  0.40143469574E+03  0.17200000000E+03 0. -1.
<mgrwt>
<rscale>  2 0.26843817E+03</rscale>
<asrwt>0</asrwt>
<pdfrwt beam="1">  1        2 0.16450969E+00 0.26843817E+03</pdfrwt>
<pdfrwt beam="2">  1       -2 0.27487767E-01 0.26843817E+03</pdfrwt>
<totfact> 0.28811484E+02</totfact>
</mgrwt>
</event>
<event>
 4    1  0.3757815E-001  0.1765317E+03  0.7546771E-02  0.1171203E+00
          1   -1    0    0  502    0  0.00000000000E+00  0.00000000000E+00  0.35109367740E+03  0.35109367740E+03  0.00000000000E+00 0. -1.
         -1   -1    0    0    0  501 -0.00000000000E+00 -0.00000000000E+00 -0.11224379195E+03  0.11224379195E+03  0.00000000000E+00 0.  1.
          6    1    1    2  502    0 -0.29485263159E+02 -0.26646955024E+02  0.22538952497E+03  0.28629334418E+03  0.17200000000E+03 0.  1.
         -6    1    1    2    0  501  0.29485263159E+02  0.26646955024E+02  0.13460360479E+02  0.17704412518E+03  0.17200000000E+03 0.  1.
<mgrwt>
<rscale>  2 0.17653170E+03</rscale>
<asrwt>0</asrwt>
<pdfrwt beam="1">  1        1 0.87773417E-01 0.17653170E+03</pdfrwt>
<pdfrwt beam="2">  1       -1 0.28060949E-01 0.17653170E+03</pdfrwt>
<totfact> 0.43793486E+02</totfact>
</mgrwt>
</event>
<event>
 4    1  0.3757815E-001  0.1733966E+03  0.7546771E-02  0.1174351E+00
          1   -1    0    0  502    0  0.00000000000E+00  0.00000000000E+00  0.73287690320E+03  0.73287690320E+03  0.00000000000E+00 0.  1.
         -1   -1    0    0    0  501 -0.00000000000E+00 -0.00000000000E+00 -0.56833178020E+02  0.56833178020E+02  0.00000000000E+00 0. -1.
          6    1    1    2  502    0  0.14253943839E+02  0.16709321908E+02  0.54626740985E+03  0.57312691388E+03  0.17200000000E+03 0.  1.
         -6    1    1    2    0  501 -0.14253943839E+02 -0.16709321908E+02  0.12977631534E+03  0.21658316734E+03  0.17200000000E+03 0. -1.
<mgrwt>
<rscale>  2 0.17339659E+03</rscale>
<asrwt>0</asrwt>
<pdfrwt beam="1">  1        1 0.18321920E+00 0.17339659E+03</pdfrwt>
<pdfrwt beam="2">  1       -1 0.14208297E-01 0.17339659E+03</pdfrwt>
<totfact> 0.41505321E+02</totfact>
</mgrwt>
</event>
<event>
 4    1  0.3757815E-001  0.1745803E+03  0.7546771E-02  0.1173154E+00
         -2   -1    0    0    0  501 -0.00000000000E+00  0.00000000000E+00  0.13768932700E+02  0.13768932700E+02  0.00000000000E+00 0.  1.
          2   -1    0    0  502    0  0.00000000000E+00 -0.00000000000E+00 -0.23825822853E+04  0.23825822853E+04  0.00000000000E+00 0. -1.
          6    1    1    2  502    0 -0.24163654448E+02 -0.17617995929E+02 -0.86527036539E+03  0.88270667903E+03  0.17200000000E+03 0. -1.
         -6    1    1    2    0  501  0.24163654448E+02  0.17617995929E+02 -0.15035429873E+04  0.15136445390E+04  0.17200000000E+03 0. -1.
<mgrwt>
<rscale>  2 0.17458029E+03</rscale>
<asrwt>0</asrwt>
<pdfrwt beam="1">  1        2 0.59564547E+00 0.17458029E+03</pdfrwt>
<pdfrwt beam="2">  1       -2 0.34422338E-02 0.17458029E+03</pdfrwt>
<totfact> 0.20107641E+02</totfact>
</mgrwt>
</event>
<event>
 4    1  0.3757815E-001  0.1728999E+03  0.7546771E-02  0.1174857E+00
          1   -1    0    0  502    0  0.00000000000E+00  0.00000000000E+00  0.22314069165E+03  0.22314069165E+03  0.00000000000E+00 0.  1.
         -1   -1    0    0    0  501 -0.00000000000E+00 -0.00000000000E+00 -0.18125830397E+03  0.18125830397E+03  0.00000000000E+00 0. -1.
          6    1    1    2  502    0  0.63829851922E+01  0.16420152995E+02  0.12421822794E+03  0.21289558961E+03  0.17200000000E+03 0.  1.
         -6    1    1    2    0  501 -0.63829851922E+01 -0.16420152995E+02 -0.82335840257E+02  0.19150340601E+03  0.17200000000E+03 0. -1.
<mgrwt>
<rscale>  2 0.17289987E+03</rscale>
<asrwt>0</asrwt>
<pdfrwt beam="1">  1        1 0.55785173E-01 0.17289987E+03</pdfrwt>
<pdfrwt beam="2">  1       -1 0.45314576E-01 0.17289987E+03</pdfrwt>
<totfact> 0.34367848E+02</totfact>
</mgrwt>
</event>
<event>
 4    1  0.3757815E-001  0.2220934E+03  0.7546771E-02  0.1132332E+00
         -2   -1    0    0    0  501 -0.00000000000E+00  0.00000000000E+00  0.69357744055E+02  0.69357744055E+02  0.00000000000E+00 0.  1.
          2   -1    0    0  502    0  0.00000000000E+00 -0.00000000000E+00 -0.10112669663E+04  0.10112669663E+04  0.00000000000E+00 0. -1.
          6    1    1    2  502    0 -0.53086988760E+02 -0.13008944744E+03 -0.76528776377E+03  0.79686313385E+03  0.17200000000E+03 0. -1.
         -6    1    1    2    0  501  0.53086988760E+02  0.13008944744E+03 -0.17662145849E+03  0.28376157652E+03  0.17200000000E+03 0.  1.
<mgrwt>
<rscale>  2 0.22209343E+03</rscale>
<asrwt>0</asrwt>
<pdfrwt beam="1">  1        2 0.25281674E+00 0.22209343E+03</pdfrwt>
<pdfrwt beam="2">  1       -2 0.17339436E-01 0.22209343E+03</pdfrwt>
<totfact> 0.31195021E+02</totfact>
</mgrwt>
</event>
<event>
 4    1  0.3757815E-001  0.2590593E+03  0.7546771E-02  0.1107710E+00
         -2   -1    0    0    0  501 -0.00000000000E+00  0.00000000000E+00  0.88121159489E+02  0.88121159489E+02  0.00000000000E+00 0.  1.
          2   -1    0    0  502    0  0.00000000000E+00 -0.00000000000E+00 -0.86666566486E+03  0.86666566486E+03  0.00000000000E+00 0. -1.
          6    1    1    2  502    0  0.17967349045E+03  0.72423318185E+02 -0.55550373453E+03  0.61294053485E+03  0.17200000000E+03 0. -1.
         -6    1    1    2    0  501 -0.17967349045E+03 -0.72423318185E+02 -0.22304077085E+03  0.34184628950E+03  0.17200000000E+03 0. -1.
<mgrwt>
<rscale>  2 0.25905926E+03</rscale>
<asrwt>0</asrwt>
<pdfrwt beam="1">  1        2 0.21666642E+00 0.25905926E+03</pdfrwt>
<pdfrwt beam="2">  1       -2 0.22030290E-01 0.25905926E+03</pdfrwt>
<totfact> 0.27441727E+02</totfact>
</mgrwt>
</event>
<event>
 4    1  0.3757815E-001  0.1985109E+03  0.7546771E-02  0.1151001E+00
          2   -1    0    0  502    0  0.00000000000E+00  0.00000000000E+00  0.44642260030E+03  0.44642260030E+03  0.00000000000E+00 0.  1.
         -2   -1    0    0    0  501 -0.00000000000E+00 -0.00000000000E+00 -0.10254337599E+03  0.10254337599E+03  0.00000000000E+00 0. -1.
          6    1    1    2  502    0  0.47743985001E+02  0.86851063325E+02  0.69540722130E+02  0.21033902952E+03  0.17200000000E+03 0. -1.
         -6    1    1    2    0  501 -0.47743985001E+02 -0.86851063325E+02  0.27433850218E+03  0.33862694677E+03  0.17200000000E+03 0.  1.
<mgrwt>
<rscale>  2 0.19851095E+03</rscale>
<asrwt>0</asrwt>
<pdfrwt beam="1">  1        2 0.11160565E+00 0.19851095E+03</pdfrwt>
<pdfrwt beam="2">  1       -2 0.25635845E-01 0.19851095E+03</pdfrwt>
<totfact> 0.55049209E+02</totfact>
</mgrwt>
</event>
<event>
 4    1  0.3757815E-001  0.1989902E+03  0.7546771E-02  0.1150594E+00
         -2   -1    0    0    0  501 -0.00000000000E+00  0.00000000000E+00  0.28463507809E+03  0.28463507809E+03  0.00000000000E+00 0. -1.
          2   -1    0    0  502    0  0.00000000000E+00 -0.00000000000E+00 -0.15530196003E+03  0.15530196003E+03  0.00000000000E+00 0.  1.
          6    1    1    2  502    0 -0.55904090309E+02 -0.82992976398E+02 -0.63484828335E+01  0.19909144803E+03  0.17200000000E+03 0.  1.
         -6    1    1    2    0  501  0.55904090309E+02  0.82992976398E+02  0.13568160090E+03  0.24084559009E+03  0.17200000000E+03 0. -1.
<mgrwt>
<rscale>  2 0.19899020E+03</rscale>
<asrwt>0</asrwt>
<pdfrwt beam="1">  1        2 0.38825490E-01 0.19899020E+03</pdfrwt>
<pdfrwt beam="2">  1       -2 0.71158769E-01 0.19899020E+03</pdfrwt>
<totfact> 0.24527072E+02</totfact>
</mgrwt>
</event>
<event>
 4    1  0.3757815E-001  0.2438985E+03  0.7546771E-02  0.1117223E+00
          2   -1    0    0  502    0  0.00000000000E+00  0.00000000000E+00  0.15456810407E+03  0.15456810407E+03  0.00000000000E+00 0.  1.
         -2   -1    0    0    0  501 -0.00000000000E+00 -0.00000000000E+00 -0.42940797447E+03  0.42940797447E+03  0.00000000000E+00 0. -1.
          6    1    1    2  502    0 -0.18742230493E+02 -0.17190459302E+03 -0.23147096361E+03  0.33625179152E+03  0.17200000000E+03 0.  1.
         -6    1    1    2    0  501  0.18742230493E+02  0.17190459302E+03 -0.43368906803E+02  0.24772428702E+03  0.17200000000E+03 0.  1.
<mgrwt>
<rscale>  2 0.24389846E+03</rscale>
<asrwt>0</asrwt>
<pdfrwt beam="1">  1        2 0.38642026E-01 0.24389846E+03</pdfrwt>
<pdfrwt beam="2">  1       -2 0.10735199E+00 0.24389846E+03</pdfrwt>
<totfact> 0.97317420E+01</totfact>
</mgrwt>
</event>
<event>
 4    1  0.3757815E-001  0.1872139E+03  0.7546771E-02  0.1160998E+00
          2   -1    0    0  502    0  0.00000000000E+00  0.00000000000E+00  0.57714204842E+03  0.57714204842E+03  0.00000000000E+00 0. -1.
         -2   -1    0    0    0  501 -0.00000000000E+00 -0.00000000000E+00 -0.14140693170E+03  0.14140693170E+03  0.00000000000E+00 0.  1.
          6    1    1    2  502    0 -0.72478574074E+02 -0.14556628422E+02  0.48924230915E+03  0.52383878837E+03  0.17200000000E+03 0. -1.
         -6    1    1    2    0  501  0.72478574074E+02  0.14556628422E+02 -0.53507192433E+02  0.19471019175E+03  0.17200000000E+03 0.  1.
<mgrwt>
<rscale>  2 0.18721389E+03</rscale>
<asrwt>0</asrwt>
<pdfrwt beam="1">  1        2 0.14428551E+00 0.18721389E+03</pdfrwt>
<pdfrwt beam="2">  1       -2 0.35351734E-01 0.18721389E+03</pdfrwt>
<totfact> 0.22159540E+02</totfact>
</mgrwt>
</event>
<event>
 4    1  0.3757815E-001  0.1769425E+03  0.7546771E-02  0.1170795E+00
         -1   -1    0    0    0  501 -0.00000000000E+00  0.00000000000E+00  0.21198924838E+03  0.21198924838E+03  0.00000000000E+00 0. -1.
          1   -1    0    0  502    0  0.00000000000E+00 -0.00000000000E+00 -0.15593157238E+03  0.15593157238E+03  0.00000000000E+00 0.  1.
          6    1    1    2  502    0 -0.40223284862E+02  0.10330904211E+02  0.70321870451E+02  0.19040432162E+03  0.17200000000E+03 0. -1.
         -6    1    1    2    0  501  0.40223284862E+02 -0.10330904211E+02 -0.14264194451E+02  0.17751649915E+03  0.17200000000E+03 0.  1.
<mgrwt>
<rscale>  2 0.17694248E+03</rscale>
<asrwt>0</asrwt>
<pdfrwt beam="1">  1        1 0.38982893E-01 0.17694248E+03</pdfrwt>
<pdfrwt beam="2">  1       -1 0.52997312E-01 0.17694248E+03</pdfrwt>
<totfact> 0.40374640E+02</totfact>
</mgrwt>
</event>
<event>
 4    1  0.3757815E-001  0.2235814E+03  0.7546771E-02  0.1131241E+00
         -4   -1    0    0    0  501 -0.00000000000E+00  0.00000000000E+00  0.78850901228E+03  0.78850901228E+03  0.00000000000E+00 0.  1.
          4   -1    0    0  502    0  0.00000000000E+00 -0.00000000000E+00 -0.69389893292E+02  0.69389893292E+02  0.00000000000E+00 0. -1.
          6    1    1    2  502    0  0.97694387738E+02  0.10421348068E+03  0.23349368197E+03  0.32327688205E+03  0.17200000000E+03 0. -1.
         -6    1    1    2    0  501 -0.97694387738E+02 -0.10421348068E+03  0.48562543703E+03  0.53462202352E+03  0.17200000000E+03 0. -1.
<mgrwt>
<rscale>  2 0.22358140E+03</rscale>
<asrwt>0</asrwt>
<pdfrwt beam="1">  1        4 0.17347476E-01 0.22358140E+03</pdfrwt>
<pdfrwt beam="2">  1       -4 0.19712722E+00 0.22358140E+03</pdfrwt>
<totfact> 0.78783488E+00</totfact>
</mgrwt>
</event>
<event>
 4    1  0.3757815E-001  0.2369031E+03  0.7546771E-02  0.1121873E+00
         -2   -1    0    0    0  501 -0.00000000000E+00  0.00000000000E+00  0.98944448730E+02  0.98944448730E+02  0.00000000000E+00 0. -1.
          2   -1    0    0  502    0  0.00000000000E+00 -0.00000000000E+00 -0.62347169345E+03  0.62347169345E+03  0.00000000000E+00 0.  1.
          6    1    1    2  502    0  0.68979163921E+02  0.14758376050E+03 -0.37076215172E+03  0.43998598224E+03  0.17200000000E+03 0.  1.
         -6    1    1    2    0  501 -0.68979163921E+02 -0.14758376050E+03 -0.15376509300E+03  0.28243015994E+03  0.17200000000E+03 0. -1.
<mgrwt>
<rscale>  2 0.23690313E+03</rscale>
<asrwt>0</asrwt>
<pdfrwt beam="1">  1        2 0.15586792E+00 0.23690313E+03</pdfrwt>
<pdfrwt beam="2">  1       -2 0.24736112E-01 0.23690313E+03</pdfrwt>
<totfact> 0.37732070E+02</totfact>
</mgrwt>
</event>
<event>
 4    1  0.3757815E-001  0.1756245E+03  0.7546771E-02  0.1172106E+00
          1   -1    0    0  502    0  0.00000000000E+00  0.00000000000E+00  0.26940647770E+03  0.26940647770E+03  0.00000000000E+00 0.  1.
         -1   -1    0    0    0  501 -0.00000000000E+00 -0.00000000000E+00 -0.24381907155E+03  0.24381907155E+03  0.00000000000E+00 0. -1.
          6    1    1    2  502    0 -0.69874609865E+01 -0.34801519096E+02 -0.17410008523E+03  0.24729498584E+03  0.17200000000E+03 0. -1.
         -6    1    1    2    0  501  0.69874609865E+01  0.34801519096E+02  0.19968749139E+03  0.26593056342E+03  0.17200000000E+03 0.  1.
<mgrwt>
<rscale>  2 0.17562452E+03</rscale>
<asrwt>0</asrwt>
<pdfrwt beam="1">  1        1 0.67351619E-01 0.17562452E+03</pdfrwt>
<pdfrwt beam="2">  1       -1 0.60954768E-01 0.17562452E+03</pdfrwt>
<totfact> 0.15588454E+02</totfact>
</mgrwt>
</event>
<event>
 4    1  0.3757815E-001  0.4375927E+03  0.7546771E-02  0.1031488E+00
         -2   -1    0    0    0  501 -0.00000000000E+00  0.00000000000E+00  0.34641373152E+03  0.34641373152E+03  0.00000000000E+00 0.  1.
          2   -1    0    0  502    0  0.00000000000E+00 -0.00000000000E+00 -0.13734943907E+04  0.13734943907E+04  0.00000000000E+00 0. -1.
          6    1    1    2  502    0  0.61607353283E+02 -0.39762787458E+03  0.15121261132E+03  0.46298233924E+03  0.17200000000E+03 0.  1.
         -6    1    1    2    0  501 -0.61607353283E+02  0.39762787458E+03 -0.11782932705E+04  0.12569257830E+04  0.17200000000E+03 0. -1.
<mgrwt>
<rscale>  2 0.43759272E+03</rscale>
<asrwt>0</asrwt>
<pdfrwt beam="1">  1        2 0.34337359E+00 0.43759272E+03</pdfrwt>
<pdfrwt beam="2">  1       -2 0.86603434E-01 0.43759272E+03</pdfrwt>
<totfact> 0.63864430E+00</totfact>
</mgrwt>
</event>
<event>
 4    1  0.3757815E-001  0.1728524E+03  0.7546771E-02  0.1174905E+00
          2   -1    0    0  502    0  0.00000000000E+00  0.00000000000E+00  0.43635675922E+03  0.43635675922E+03  0.00000000000E+00 0. -1.
         -2   -1    0    0    0  501 -0.00000000000E+00 -0.00000000000E+00 -0.76856991383E+02  0.76856991383E+02  0.00000000000E+00 0.  1.
          6    1    1    2  502    0 -0.16231608645E+02 -0.55215350136E+01  0.26451043796E+03  0.31598057576E+03  0.17200000000E+03 0. -1.
         -6    1    1    2    0  501  0.16231608645E+02  0.55215350136E+01  0.94989329878E+02  0.19723317484E+03  0.17200000000E+03 0.  1.
<mgrwt>
<rscale>  2 0.17285240E+03</rscale>
<asrwt>0</asrwt>
<pdfrwt beam="1">  1        2 0.10908918E+00 0.17285240E+03</pdfrwt>
<pdfrwt beam="2">  1       -2 0.19214249E-01 0.17285240E+03</pdfrwt>
<totfact> 0.93218442E+02</totfact>
</mgrwt>
</event>
<event>
 4    1  0.3757815E-001  0.2137508E+03  0.7546771E-02  0.1138630E+00
         -1   -1    0    0    0  501 -0.00000000000E+00  0.00000000000E+00  0.33322075452E+02  0.33322075452E+02  0.00000000000E+00 0.  1.
          1   -1    0    0  502    0  0.00000000000E+00 -0.00000000000E+00 -0.13786969663E+04  0.13786969663E+04  0.00000000000E+00 0. -1.
          6    1    1    2  502    0 -0.43375186017E+02 -0.11926435922E+03 -0.62043474219E+03  0.65622302875E+03  0.17200000000E+03 0.  1.
         -6    1    1    2    0  501  0.43375186017E+02  0.11926435922E+03 -0.72494014870E+03  0.75579601305E+03  0.17200000000E+03 0.  1.
<mgrwt>
<rscale>  2 0.21375078E+03</rscale>
<asrwt>0</asrwt>
<pdfrwt beam="1">  1        1 0.34467424E+00 0.21375078E+03</pdfrwt>
<pdfrwt beam="2">  1       -1 0.83305189E-02 0.21375078E+03</pdfrwt>
<totfact> 0.19345879E+02</totfact>
</mgrwt>
</event>
<event>
 4    1  0.3757815E-001  0.1885334E+03  0.7546771E-02  0.1159791E+00
          2   -1    0    0  502    0  0.00000000000E+00  0.00000000000E+00  0.78365065761E+03  0.78365065761E+03  0.00000000000E+00 0.  1.
         -2   -1    0    0    0  501 -0.00000000000E+00 -0.00000000000E+00 -0.45372951107E+02  0.45372951107E+02  0.00000000000E+00 0. -1.
          6    1    1    2  502    0 -0.74025616516E+02  0.21933018025E+02  0.36162167549E+03  0.40781746574E+03  0.17200000000E+03 0.  1.
         -6    1    1    2    0  501  0.74025616516E+02 -0.21933018025E+02  0.37665603101E+03  0.42120614297E+03  0.17200000000E+03 0. -1.
<mgrwt>
<rscale>  2 0.18853342E+03</rscale>
<asrwt>0</asrwt>
<pdfrwt beam="1">  1        2 0.19591262E+00 0.18853342E+03</pdfrwt>
<pdfrwt beam="2">  1       -2 0.11343240E-01 0.18853342E+03</pdfrwt>
<totfact> 0.99087696E+02</totfact>
</mgrwt>
</event>
<event>
 4    1  0.3757815E-001  0.1795011E+03  0.7546771E-02  0.1168287E+00
          1   -1    0    0  502    0  0.00000000000E+00  0.00000000000E+00  0.10258230846E+04  0.10258230846E+04  0.00000000000E+00 0. -1.
         -1   -1    0    0    0  501 -0.00000000000E+00 -0.00000000000E+00 -0.33162231082E+02  0.33162231082E+02  0.00000000000E+00 0.  1.
          6    1    1    2  502    0 -0.29937601550E+02 -0.41717962961E+02  0.61805792085E+03  0.64359633463E+03  0.17200000000E+03 0. -1.
         -6    1    1    2    0  501  0.29937601550E+02  0.41717962961E+02  0.37460293269E+03  0.41538898108E+03  0.17200000000E+03 0.  1.
<mgrwt>
<rscale>  2 0.17950111E+03</rscale>
<asrwt>0</asrwt>
<pdfrwt beam="1">  1        1 0.25645567E+00 0.17950111E+03</pdfrwt>
<pdfrwt beam="2">  1       -1 0.82905612E-02 0.17950111E+03</pdfrwt>
<totfact> 0.46054102E+02</totfact>
</mgrwt>
</event>
<event>
 4    1  0.3757815E-001  0.2328165E+03  0.7546771E-02  0.1124673E+00
          4   -1    0    0  502    0  0.00000000000E+00  0.00000000000E+00  0.83834925737E+03  0.83834925737E+03  0.00000000000E+00 0. -1.
         -4   -1    0    0    0  501 -0.00000000000E+00 -0.00000000000E+00 -0.20649682080E+03  0.20649682080E+03  0.00000000000E+00 0.  1.
          6    1    1    2  502    0  0.13031873639E+03  0.87387232948E+02 -0.11705367583E+03  0.26058600223E+03  0.17200000000E+03 0.  1.
         -6    1    1    2    0  501 -0.13031873639E+03 -0.87387232948E+02  0.74890611239E+03  0.78426007594E+03  0.17200000000E+03 0. -1.
<mgrwt>
<rscale>  2 0.23281645E+03</rscale>
<asrwt>0</asrwt>
<pdfrwt beam="1">  1        4 0.20958731E+00 0.23281645E+03</pdfrwt>
<pdfrwt beam="2">  1       -4 0.51624207E-01 0.23281645E+03</pdfrwt>
<totfact> 0.81576315E-01</totfact>
</mgrwt>
</event>
<event>
 4    1  0.3757815E-001  0.2098838E+03  0.7546771E-02  0.1141658E+00
         -2   -1    0    0    0  501 -0.00000000000E+00  0.00000000000E+00  0.52031563172E+02  0.52031563172E+02  0.00000000000E+00 0. -1.
          2   -1    0    0  502    0  0.00000000000E+00 -0.00000000000E+00 -0.86791488091E+03  0.86791488091E+03  0.00000000000E+00 0.  1.
          6    1    1    2  502    0 -0.47546323343E+02  0.11048328532E+03 -0.47998322424E+03  0.52386554072E+03  0.17200000000E+03 0.  1.
         -6    1    1    2    0  501  0.47546323343E+02 -0.11048328532E+03 -0.33590009350E+03  0.39608090337E+03  0.17200000000E+03 0. -1.
<mgrwt>
<rscale>  2 0.20988380E+03</rscale>
<asrwt>0</asrwt>
<pdfrwt beam="1">  1        2 0.21697872E+00 0.20988380E+03</pdfrwt>
<pdfrwt beam="2">  1       -2 0.13007891E-01 0.20988380E+03</pdfrwt>
<totfact> 0.66793722E+02</totfact>
</mgrwt>
</event>
<event>
 4    1  0.3757815E-001  0.1780544E+03  0.7546771E-02  0.1169699E+00
          2   -1    0    0  502    0  0.00000000000E+00  0.00000000000E+00  0.17292389579E+03  0.17292389579E+03  0.00000000000E+00 0.  1.
         -2   -1    0    0    0  501 -0.00000000000E+00 -0.00000000000E+00 -0.24187712364E+03  0.24187712364E+03  0.00000000000E+00 0. -1.
          6    1    1    2  502    0  0.42666115700E+02 -0.17290511811E+02  0.67555998066E+02  0.19043941846E+03  0.17200000000E+03 0.  1.
         -6    1    1    2    0  501 -0.42666115700E+02  0.17290511811E+02 -0.13650922592E+03  0.22436160097E+03  0.17200000000E+03 0. -1.
<mgrwt>
<rscale>  2 0.17805437E+03</rscale>
<asrwt>0</asrwt>
<pdfrwt beam="1">  1        2 0.43230974E-01 0.17805437E+03</pdfrwt>
<pdfrwt beam="2">  1       -2 0.60469281E-01 0.17805437E+03</pdfrwt>
<totfact> 0.30814751E+02</totfact>
</mgrwt>
</event>
<event>
 4    1  0.3757815E-001  0.1722289E+03  0.7546771E-02  0.1175543E+00
          2   -1    0    0  502    0  0.00000000000E+00  0.00000000000E+00  0.15169041221E+04  0.15169041221E+04  0.00000000000E+00 0. -1.
         -2   -1    0    0    0  501 -0.00000000000E+00 -0.00000000000E+00 -0.19555950258E+02  0.19555950258E+02  0.00000000000E+00 0.  1.
          6    1    1    2  502    0 -0.74439924535E+01 -0.48362414318E+01  0.74285964251E+03  0.76256360438E+03  0.17200000000E+03 0.  1.
         -6    1    1    2    0  501  0.74439924535E+01  0.48362414318E+01  0.75448852935E+03  0.77389646800E+03  0.17200000000E+03 0.  1.
<mgrwt>
<rscale>  2 0.17222892E+03</rscale>
<asrwt>0</asrwt>
<pdfrwt beam="1">  1        2 0.37922563E+00 0.17222892E+03</pdfrwt>
<pdfrwt beam="2">  1       -2 0.48889927E-02 0.17222892E+03</pdfrwt>
<totfact> 0.86623601E+02</totfact>
</mgrwt>
</event>
<event>
 4    1  0.3757815E-001  0.2045324E+03  0.7546771E-02  0.1145970E+00
         -2   -1    0    0    0  501 -0.00000000000E+00  0.00000000000E+00  0.70731787928E+03  0.70731787928E+03  0.00000000000E+00 0.  1.
          2   -1    0    0  502    0  0.00000000000E+00 -0.00000000000E+00 -0.82337105172E+02  0.82337105172E+02  0.00000000000E+00 0. -1.
          6    1    1    2  502    0 -0.24480117832E+02  0.10793616323E+03  0.52204179725E+03  0.56067916813E+03  0.17200000000E+03 0.  1.
         -6    1    1    2    0  501  0.24480117832E+02 -0.10793616323E+03  0.10293897686E+03  0.22897581632E+03  0.17200000000E+03 0. -1.
<mgrwt>
<rscale>  2 0.20453237E+03</rscale>
<asrwt>0</asrwt>
<pdfrwt beam="1">  1        2 0.20584278E-01 0.20453237E+03</pdfrwt>
<pdfrwt beam="2">  1       -2 0.17682945E+00 0.20453237E+03</pdfrwt>
<totfact> 0.55625756E+01</totfact>
</mgrwt>
</event>
<event>
 4    1  0.3757815E-001  0.1757409E+03  0.7546771E-02  0.1171990E+00
          2   -1    0    0  502    0  0.00000000000E+00  0.00000000000E+00  0.10280177731E+04  0.10280177731E+04  0.00000000000E+00 0. -1.
         -2   -1    0    0    0  501 -0.00000000000E+00 -0.00000000000E+00 -0.61643654007E+02  0.61643654007E+02  0.00000000000E+00 0.  1.
          6    1    1    2  502    0  0.35809777459E+02 -0.43032605978E+01  0.93097230950E+02  0.19887672721E+03  0.17200000000E+03 0.  1.
         -6    1    1    2    0  501 -0.35809777459E+02  0.43032605978E+01  0.87327688816E+03  0.89078469992E+03  0.17200000000E+03 0. -1.
<mgrwt>
<rscale>  2 0.17574088E+03</rscale>
<asrwt>0</asrwt>
<pdfrwt beam="1">  1        2 0.25700439E+00 0.17574088E+03</pdfrwt>
<pdfrwt beam="2">  1       -2 0.15410917E-01 0.17574088E+03</pdfrwt>
<totfact> 0.37141876E+02</totfact>
</mgrwt>
</event>
<event>
 4    1  0.3757815E-001  0.1824033E+03  0.7546771E-02  0.1165497E+00
          3   -1    0    0  502    0  0.00000000000E+00  0.00000000000E+00  0.16434565303E+04  0.16434565303E+04  0.00000000000E+00 0. -1.
         -3   -1    0    0    0  501 -0.00000000000E+00 -0.00000000000E+00 -0.20524620129E+02  0.20524620129E+02  0.00000000000E+00 0.  1.
          6    1    1    2  502    0  0.52364419273E+02 -0.30739761440E+02  0.90866197199E+03  0.92678883500E+03  0.17200000000E+03 0. -1.
         -6    1    1    2    0  501 -0.52364419273E+02  0.30739761440E+02  0.71426993818E+03  0.73719231543E+03  0.17200000000E+03 0. -1.
<mgrwt>
<rscale>  2 0.18240330E+03</rscale>
<asrwt>0</asrwt>
<pdfrwt beam="1">  1        3 0.41086369E+00 0.18240330E+03</pdfrwt>
<pdfrwt beam="2">  1       -3 0.51311606E-02 0.18240330E+03</pdfrwt>
<totfact> 0.64757871E+00</totfact>
</mgrwt>
</event>
<event>
 4    1  0.3757815E-001  0.3691213E+03  0.7546771E-02  0.1055029E+00
         -1   -1    0    0    0  501 -0.00000000000E+00  0.00000000000E+00  0.26239450229E+03  0.26239450229E+03  0.00000000000E+00 0. -1.
          1   -1    0    0  502    0  0.00000000000E+00 -0.00000000000E+00 -0.11576153259E+04  0.11576153259E+04  0.00000000000E+00 0.  1.
          6    1    1    2  502    0 -0.32575134686E+03  0.23507612406E+02 -0.97485363954E+03  0.10423963576E+04  0.17200000000E+03 0.  1.
         -6    1    1    2    0  501  0.32575134686E+03 -0.23507612406E+02  0.79632815898E+02  0.37761347061E+03  0.17200000000E+03 0. -1.
<mgrwt>
<rscale>  2 0.36912132E+03</rscale>
<asrwt>0</asrwt>
<pdfrwt beam="1">  1        1 0.28940383E+00 0.36912132E+03</pdfrwt>
<pdfrwt beam="2">  1       -1 0.65598626E-01 0.36912132E+03</pdfrwt>
<totfact> 0.96279612E+00</totfact>
</mgrwt>
</event>
<event>
 4    1  0.3757815E-001  0.2663711E+03  0.7546771E-02  0.1103375E+00
         -2   -1    0    0    0  501 -0.00000000000E+00  0.00000000000E+00  0.81173317236E+02  0.81173317236E+02  0.00000000000E+00 0. -1.
          2   -1    0    0  502    0  0.00000000000E+00 -0.00000000000E+00 -0.89692702677E+03  0.89692702677E+03  0.00000000000E+00 0.  1.
          6    1    1    2  502    0 -0.17930436362E+03  0.96018139415E+02 -0.48589693849E+03  0.55412035944E+03  0.17200000000E+03 0. -1.
         -6    1    1    2    0  501  0.17930436362E+03 -0.96018139415E+02 -0.32985677105E+03  0.42397998457E+03  0.17200000000E+03 0. -1.
<mgrwt>
<rscale>  2 0.26637105E+03</rscale>
<asrwt>0</asrwt>
<pdfrwt beam="1">  1        2 0.22423176E+00 0.26637105E+03</pdfrwt>
<pdfrwt beam="2">  1       -2 0.20293329E-01 0.26637105E+03</pdfrwt>
<totfact> 0.29712160E+02</totfact>
</mgrwt>
</event>
<event>
 4    1  0.3757815E-001  0.1826361E+03  0.7546771E-02  0.1165276E+00
          1   -1    0    0  502    0  0.00000000000E+00  0.00000000000E+00  0.59387791853E+03  0.59387791853E+03  0.00000000000E+00 0. -1.
         -1   -1    0    0    0  501 -0.00000000000E+00 -0.00000000000E+00 -0.56178649551E+02  0.56178649551E+02  0.00000000000E+00 0.  1.
          6    1    1    2  502    0 -0.45007720061E+02 -0.41788261123E+02  0.26403989387E+03  0.32104987025E+03  0.17200000000E+03 0.  1.
         -6    1    1    2    0  501  0.45007720061E+02  0.41788261123E+02  0.27365937511E+03  0.32900669783E+03  0.17200000000E+03 0. -1.
<mgrwt>
<rscale>  2 0.18263612E+03</rscale>
<asrwt>0</asrwt>
<pdfrwt beam="1">  1        1 0.14846946E+00 0.18263612E+03</pdfrwt>
<pdfrwt beam="2">  1       -1 0.14044664E-01 0.18263612E+03</pdfrwt>
<totfact> 0.61353230E+02</totfact>
</mgrwt>
</event>
<event>
 4    1  0.3757815E-001  0.2224246E+03  0.7546771E-02  0.1132088E+00
         -2   -1    0    0    0  501 -0.00000000000E+00  0.00000000000E+00  0.42787989526E+02  0.42787989526E+02  0.00000000000E+00 0.  1.
          2   -1    0    0  502    0  0.00000000000E+00 -0.00000000000E+00 -0.18246361210E+04  0.18246361210E+04  0.00000000000E+00 0. -1.
          6    1    1    2  502    0  0.12752398351E+03 -0.60219194263E+02 -0.14560501332E+04  0.14729408366E+04  0.17200000000E+03 0. -1.
         -6    1    1    2    0  501 -0.12752398351E+03  0.60219194263E+02 -0.32579799827E+03  0.39448327392E+03  0.17200000000E+03 0.  1.
<mgrwt>
<rscale>  2 0.22242463E+03</rscale>
<asrwt>0</asrwt>
<pdfrwt beam="1">  1        2 0.45615901E+00 0.22242463E+03</pdfrwt>
<pdfrwt beam="2">  1       -2 0.10696998E-01 0.22242463E+03</pdfrwt>
<totfact> 0.13294044E+02</totfact>
</mgrwt>
</event>
<event>
 4    1  0.3757815E-001  0.1884171E+03  0.7546771E-02  0.1159897E+00
         -2   -1    0    0    0  501 -0.00000000000E+00  0.00000000000E+00  0.79923998578E+02  0.79923998578E+02  0.00000000000E+00 0.  1.
          2   -1    0    0  502    0  0.00000000000E+00 -0.00000000000E+00 -0.54104246943E+03  0.54104246943E+03  0.00000000000E+00 0. -1.
          6    1    1    2  502    0  0.68988461277E+02  0.34023713309E+02 -0.36192724140E+03  0.40803473985E+03  0.17200000000E+03 0. -1.
         -6    1    1    2    0  501 -0.68988461277E+02 -0.34023713309E+02 -0.99191229455E+02  0.21293172816E+03  0.17200000000E+03 0.  1.
<mgrwt>
<rscale>  2 0.18841715E+03</rscale>
<asrwt>0</asrwt>
<pdfrwt beam="1">  1        2 0.13526062E+00 0.18841715E+03</pdfrwt>
<pdfrwt beam="2">  1       -2 0.19981000E-01 0.18841715E+03</pdfrwt>
<totfact> 0.66582790E+02</totfact>
</mgrwt>
</event>
<event>
 4    1  0.3757815E-001  0.2618420E+03  0.7546771E-02  0.1106042E+00
         -1   -1    0    0    0  501 -0.00000000000E+00  0.00000000000E+00  0.21576222841E+03  0.21576222841E+03  0.00000000000E+00 0. -1.
          1   -1    0    0  502    0  0.00000000000E+00 -0.00000000000E+00 -0.34574294676E+03  0.34574294676E+03  0.00000000000E+00 0.  1.
          6    1    1    2  502    0  0.12605884653E+03  0.15194205330E+03 -0.14485815865E+03  0.29924088370E+03  0.17200000000E+03 0.  1.
         -6    1    1    2    0  501 -0.12605884653E+03 -0.15194205330E+03  0.14877440297E+02  0.26226429147E+03  0.17200000000E+03 0. -1.
<mgrwt>
<rscale>  2 0.26184198E+03</rscale>
<asrwt>0</asrwt>
<pdfrwt beam="1">  1        1 0.86435736E-01 0.26184198E+03</pdfrwt>
<pdfrwt beam="2">  1       -1 0.53940558E-01 0.26184198E+03</pdfrwt>
<totfact> 0.13911111E+02</totfact>
</mgrwt>
</event>
<event>
 4    1  0.3757815E-001  0.2038350E+03  0.7546771E-02  0.1146543E+00
          1   -1    0    0  502    0  0.00000000000E+00  0.00000000000E+00  0.13518233663E+03  0.13518233663E+03  0.00000000000E+00 0. -1.
         -1   -1    0    0    0  501 -0.00000000000E+00 -0.00000000000E+00 -0.32722286742E+03  0.32722286742E+03  0.00000000000E+00 0.  1.
          6    1    1    2  502    0  0.99011702926E+02  0.46490621315E+02 -0.15299318850E+03  0.25486390665E+03  0.17200000000E+03 0.  1.
         -6    1    1    2    0  501 -0.99011702926E+02 -0.46490621315E+02 -0.39047342287E+02  0.20754129740E+03  0.17200000000E+03 0.  1.
<mgrwt>
<rscale>  2 0.20383497E+03</rscale>
<asrwt>0</asrwt>
<pdfrwt beam="1">  1        1 0.33795585E-01 0.20383497E+03</pdfrwt>
<pdfrwt beam="2">  1       -1 0.81805716E-01 0.20383497E+03</pdfrwt>
<totfact> 0.20549795E+02</totfact>
</mgrwt>
</event>
<event>
 4    1  0.3757815E-001  0.2170780E+03  0.7546771E-02  0.1136080E+00
         -1   -1    0    0    0  501 -0.00000000000E+00  0.00000000000E+00  0.30433640636E+03  0.30433640636E+03  0.00000000000E+00 0.  1.
          1   -1    0    0  502    0  0.00000000000E+00 -0.00000000000E+00 -0.15506611027E+03  0.15506611027E+03  0.00000000000E+00 0. -1.
          6    1    1    2  502    0  0.11384480818E+03 -0.67662620065E+02  0.83443272390E+02  0.23256321766E+03  0.17200000000E+03 0.  1.
         -6    1    1    2    0  501 -0.11384480818E+03  0.67662620065E+02  0.65827023703E+02  0.22683929896E+03  0.17200000000E+03 0. -1.
<mgrwt>
<rscale>  2 0.21707803E+03</rscale>
<asrwt>0</asrwt>
<pdfrwt beam="1">  1        1 0.38766528E-01 0.21707803E+03</pdfrwt>
<pdfrwt beam="2">  1       -1 0.76084101E-01 0.21707803E+03</pdfrwt>
<totfact> 0.20056332E+02</totfact>
</mgrwt>
</event>
<event>
 4    1  0.3757815E-001  0.2985634E+03  0.7546771E-02  0.1085961E+00
         -2   -1    0    0    0  501 -0.00000000000E+00  0.00000000000E+00  0.45280924648E+02  0.45280924648E+02  0.00000000000E+00 0. -1.
          2   -1    0    0  502    0  0.00000000000E+00 -0.00000000000E+00 -0.20948124071E+04  0.20948124071E+04  0.00000000000E+00 0.  1.
          6    1    1    2  502    0  0.21470359586E+03 -0.11601075694E+03 -0.12874156875E+04  0.13215821133E+04  0.17200000000E+03 0.  1.
         -6    1    1    2    0  501 -0.21470359586E+03  0.11601075694E+03 -0.76211579499E+03  0.81851121848E+03  0.17200000000E+03 0. -1.
<mgrwt>
<rscale>  2 0.29856344E+03</rscale>
<asrwt>0</asrwt>
<pdfrwt beam="1">  1        2 0.52370306E+00 0.29856344E+03</pdfrwt>
<pdfrwt beam="2">  1       -2 0.11320232E-01 0.29856344E+03</pdfrwt>
<totfact> 0.63186699E+01</totfact>
</mgrwt>
</event>
<event>
 4    1  0.3757815E-001  0.2874245E+03  0.7546771E-02  0.1091702E+00
         -2   -1    0    0    0  501 -0.00000000000E+00  0.00000000000E+00  0.43304981029E+03  0.43304981029E+03  0.00000000000E+00 0.  1.
          2   -1    0    0  502    0  0.00000000000E+00 -0.00000000000E+00 -0.20048236158E+03  0.20048236158E+03  0.00000000000E+00 0. -1.
          6    1    1    2  502    0  0.48769347750E+02 -0.22505645757E+03  0.46562372465E+02  0.29117162105E+03  0.17200000000E+03 0. -1.
         -6    1    1    2    0  501 -0.48769347750E+02  0.22505645757E+03  0.18600507625E+03  0.34236055083E+03  0.17200000000E+03 0.  1.
<mgrwt>
<rscale>  2 0.28742453E+03</rscale>
<asrwt>0</asrwt>
<pdfrwt beam="1">  1        2 0.50120591E-01 0.28742453E+03</pdfrwt>
<pdfrwt beam="2">  1       -2 0.10826245E+00 0.28742453E+03</pdfrwt>
<totfact> 0.71618860E+01</totfact>
</mgrwt>
</event>
<event>
 4    1  0.3757815E-001  0.2957192E+03  0.7546771E-02  0.1087400E+00
          2   -1    0    0  502    0  0.00000000000E+00  0.00000000000E+00  0.17828439054E+04  0.17828439054E+04  0.00000000000E+00 0.  1.
         -2   -1    0    0    0  501 -0.00000000000E+00 -0.00000000000E+00 -0.87766079079E+02  0.87766079079E+02  0.00000000000E+00 0. -1.
          6    1    1    2  502    0  0.18495127482E+03 -0.15381440358E+03  0.14687387560E+04  0.14982133954E+04  0.17200000000E+03 0.  1.
         -6    1    1    2    0  501 -0.18495127482E+03  0.15381440358E+03  0.22633907035E+03  0.37239658910E+03  0.17200000000E+03 0. -1.
<mgrwt>
<rscale>  2 0.29571920E+03</rscale>
<asrwt>0</asrwt>
<pdfrwt beam="1">  1        2 0.44571086E+00 0.29571920E+03</pdfrwt>
<pdfrwt beam="2">  1       -2 0.21941526E-01 0.29571920E+03</pdfrwt>
<totfact> 0.42770091E+01</totfact>
</mgrwt>
</event>
<event>
 4    1  0.3757815E-001  0.3840214E+03  0.7546771E-02  0.1049457E+00
         -1   -1    0    0    0  501 -0.00000000000E+00  0.00000000000E+00  0.16597713694E+03  0.16597713694E+03  0.00000000000E+00 0.  1.
          1   -1    0    0  502    0  0.00000000000E+00 -0.00000000000E+00 -0.89983394363E+03  0.89983394363E+03  0.00000000000E+00 0. -1.
          6    1    1    2  502    0  0.19249532285E+03 -0.28431317995E+03 -0.30714814745E+03  0.49174426086E+03  0.17200000000E+03 0. -1.
         -6    1    1    2    0  501 -0.19249532285E+03  0.28431317995E+03 -0.42670865925E+03  0.57406681971E+03  0.17200000000E+03 0.  1.
<mgrwt>
<rscale>  2 0.38402140E+03</rscale>
<asrwt>0</asrwt>
<pdfrwt beam="1">  1        1 0.22495848E+00 0.38402140E+03</pdfrwt>
<pdfrwt beam="2">  1       -1 0.41494285E-01 0.38402140E+03</pdfrwt>
<totfact> 0.43136847E+01</totfact>
</mgrwt>
</event>
<event>
 4    1  0.3757815E-001  0.1855138E+03  0.7546771E-02  0.1162571E+00
         -2   -1    0    0    0  501 -0.00000000000E+00  0.00000000000E+00  0.33156348874E+03  0.33156348874E+03  0.00000000000E+00 0. -1.
          2   -1    0    0  502    0  0.00000000000E+00 -0.00000000000E+00 -0.10390649962E+03  0.10390649962E+03  0.00000000000E+00 0.  1.
          6    1    1    2  502    0  0.67205478028E+02 -0.17742381950E+02  0.12088966029E+03  0.22142646265E+03  0.17200000000E+03 0.  1.
         -6    1    1    2    0  501 -0.67205478028E+02  0.17742381950E+02  0.10676732883E+03  0.21404352571E+03  0.17200000000E+03 0. -1.
<mgrwt>
<rscale>  2 0.18551380E+03</rscale>
<asrwt>0</asrwt>
<pdfrwt beam="1">  1        2 0.25976626E-01 0.18551380E+03</pdfrwt>
<pdfrwt beam="2">  1       -2 0.82890870E-01 0.18551380E+03</pdfrwt>
<totfact> 0.27261182E+02</totfact>
</mgrwt>
</event>
<event>
 4    1  0.3757815E-001  0.2135928E+03  0.7546771E-02  0.1138752E+00
         -2   -1    0    0    0  501 -0.00000000000E+00  0.00000000000E+00  0.59743492097E+03  0.59743492097E+03  0.00000000000E+00 0. -1.
          2   -1    0    0  502    0  0.00000000000E+00 -0.00000000000E+00 -0.12992841306E+03  0.12992841306E+03  0.00000000000E+00 0.  1.
          6    1    1    2  502    0  0.93793231965E+02 -0.85092492675E+02  0.46726660069E+03  0.51377035609E+03  0.17200000000E+03 0. -1.
         -6    1    1    2    0  501 -0.93793231965E+02  0.85092492675E+02  0.23990722481E+00  0.21359297795E+03  0.17200000000E+03 0. -1.
<mgrwt>
<rscale>  2 0.21359284E+03</rscale>
<asrwt>0</asrwt>
<pdfrwt beam="1">  1        2 0.32482105E-01 0.21359284E+03</pdfrwt>
<pdfrwt beam="2">  1       -2 0.14935872E+00 0.21359284E+03</pdfrwt>
<totfact> 0.52311180E+01</totfact>
</mgrwt>
</event>
<event>
 4    1  0.3757815E-001  0.1851613E+03  0.7546771E-02  0.1162899E+00
         -2   -1    0    0    0  501 -0.00000000000E+00  0.00000000000E+00  0.13786934082E+03  0.13786934082E+03  0.00000000000E+00 0.  1.
          2   -1    0    0  502    0  0.00000000000E+00 -0.00000000000E+00 -0.26842730120E+03  0.26842730120E+03  0.00000000000E+00 0. -1.
          6    1    1    2  502    0  0.84254490743E+01 -0.68042064476E+02 -0.10172259685E+02  0.18544051768E+03  0.17200000000E+03 0.  1.
         -6    1    1    2    0  501 -0.84254490743E+01  0.68042064476E+02 -0.12038570069E+03  0.22085612435E+03  0.17200000000E+03 0. -1.
<mgrwt>
<rscale>  2 0.18516131E+03</rscale>
<asrwt>0</asrwt>
<pdfrwt beam="1">  1        2 0.67106825E-01 0.18516131E+03</pdfrwt>
<pdfrwt beam="2">  1       -2 0.34467336E-01 0.18516131E+03</pdfrwt>
<totfact> 0.57648416E+02</totfact>
</mgrwt>
</event>
<event>
 4    1  0.3757815E-001  0.1775530E+03  0.7546771E-02  0.1170192E+00
          1   -1    0    0  502    0  0.00000000000E+00  0.00000000000E+00  0.18532320284E+03  0.18532320284E+03  0.00000000000E+00 0.  1.
         -1   -1    0    0    0  501 -0.00000000000E+00 -0.00000000000E+00 -0.18463519226E+03  0.18463519226E+03  0.00000000000E+00 0. -1.
          6    1    1    2  502    0  0.61537622614E+01  0.43625748471E+02  0.52229646624E+02  0.18507568913E+03  0.17200000000E+03 0.  1.
         -6    1    1    2    0  501 -0.61537622614E+01 -0.43625748471E+02 -0.51541636049E+02  0.18488270597E+03  0.17200000000E+03 0. -1.
<mgrwt>
<rscale>  2 0.17755302E+03</rscale>
<asrwt>0</asrwt>
<pdfrwt beam="1">  1        1 0.46330801E-01 0.17755302E+03</pdfrwt>
<pdfrwt beam="2">  1       -1 0.46158798E-01 0.17755302E+03</pdfrwt>
<totfact> 0.41941656E+02</totfact>
</mgrwt>
</event>
<event>
 4    1  0.3757815E-001  0.2052252E+03  0.7546771E-02  0.1145404E+00
          2   -1    0    0  502    0  0.00000000000E+00  0.00000000000E+00  0.32433821876E+03  0.32433821876E+03  0.00000000000E+00 0. -1.
         -2   -1    0    0    0  501 -0.00000000000E+00 -0.00000000000E+00 -0.13112890551E+03  0.13112890551E+03  0.00000000000E+00 0.  1.
          6    1    1    2  502    0  0.94981138963E+02  0.59261918918E+02  0.74170562352E+02  0.21821701151E+03  0.17200000000E+03 0.  1.
         -6    1    1    2    0  501 -0.94981138963E+02 -0.59261918918E+02  0.11903875090E+03  0.23725011277E+03  0.17200000000E+03 0. -1.
<mgrwt>
<rscale>  2 0.20522522E+03</rscale>
<asrwt>0</asrwt>
<pdfrwt beam="1">  1        2 0.81084553E-01 0.20522522E+03</pdfrwt>
<pdfrwt beam="2">  1       -2 0.32782227E-01 0.20522522E+03</pdfrwt>
<totfact> 0.51281027E+02</totfact>
</mgrwt>
</event>
<event>
 4    1  0.3757815E-001  0.2028489E+03  0.7546771E-02  0.1147357E+00
         -2   -1    0    0    0  501 -0.00000000000E+00  0.00000000000E+00  0.69332459548E+02  0.69332459548E+02  0.00000000000E+00 0.  1.
          2   -1    0    0  502    0  0.00000000000E+00 -0.00000000000E+00 -0.61371983493E+03  0.61371983493E+03  0.00000000000E+00 0. -1.
          6    1    1    2  502    0 -0.93660741603E+02 -0.52833332590E+02 -0.33420929071E+03  0.39095210135E+03  0.17200000000E+03 0.  1.
         -6    1    1    2    0  501  0.93660741603E+02  0.52833332590E+02 -0.21017808467E+03  0.29210019313E+03  0.17200000000E+03 0.  1.
<mgrwt>
<rscale>  2 0.20284895E+03</rscale>
<asrwt>0</asrwt>
<pdfrwt beam="1">  1        2 0.15342996E+00 0.20284895E+03</pdfrwt>
<pdfrwt beam="2">  1       -2 0.17333115E-01 0.20284895E+03</pdfrwt>
<totfact> 0.71325612E+02</totfact>
</mgrwt>
</event>
<event>
 4    1  0.3757815E-001  0.2052936E+03  0.7546771E-02  0.1145348E+00
          2   -1    0    0  502    0  0.00000000000E+00  0.00000000000E+00  0.18999507840E+03  0.18999507840E+03  0.00000000000E+00 0.  1.
         -2   -1    0    0    0  501 -0.00000000000E+00 -0.00000000000E+00 -0.23568016260E+03  0.23568016260E+03  0.00000000000E+00 0. -1.
          6    1    1    2  502    0  0.29967252588E+01  0.11203786777E+03 -0.74449552789E+02  0.21837628096E+03  0.17200000000E+03 0. -1.
         -6    1    1    2    0  501 -0.29967252588E+01 -0.11203786777E+03  0.28764468588E+02  0.20729896003E+03  0.17200000000E+03 0.  1.
<mgrwt>
<rscale>  2 0.20529360E+03</rscale>
<asrwt>0</asrwt>
<pdfrwt beam="1">  1        2 0.47498770E-01 0.20529360E+03</pdfrwt>
<pdfrwt beam="2">  1       -2 0.58920041E-01 0.20529360E+03</pdfrwt>
<totfact> 0.29365273E+02</totfact>
</mgrwt>
</event>
<event>
 4    1  0.3757815E-001  0.2004486E+03  0.7546771E-02  0.1149361E+00
         -1   -1    0    0    0  501 -0.00000000000E+00  0.00000000000E+00  0.27306666893E+03  0.27306666893E+03  0.00000000000E+00 0.  1.
          1   -1    0    0  502    0  0.00000000000E+00 -0.00000000000E+00 -0.19660924036E+03  0.19660924036E+03  0.00000000000E+00 0. -1.
          6    1    1    2  502    0  0.17644961957E+01  0.10291994548E+03  0.15602302599E+03  0.25401341159E+03  0.17200000000E+03 0.  1.
         -6    1    1    2    0  501 -0.17644961957E+01 -0.10291994548E+03 -0.79565597425E+02  0.21566249771E+03  0.17200000000E+03 0. -1.
<mgrwt>
<rscale>  2 0.20044857E+03</rscale>
<asrwt>0</asrwt>
<pdfrwt beam="1">  1        1 0.49152310E-01 0.20044857E+03</pdfrwt>
<pdfrwt beam="2">  1       -1 0.68266667E-01 0.20044857E+03</pdfrwt>
<totfact> 0.18560140E+02</totfact>
</mgrwt>
</event>
<event>
 4    1  0.3757815E-001  0.2447923E+03  0.7546771E-02  0.1116641E+00
         -2   -1    0    0    0  501 -0.00000000000E+00  0.00000000000E+00  0.11045689010E+03  0.11045689010E+03  0.00000000000E+00 0.  1.
          2   -1    0    0  502    0  0.00000000000E+00 -0.00000000000E+00 -0.56719037688E+03  0.56719037688E+03  0.00000000000E+00 0. -1.
          6    1    1    2  502    0 -0.12035078673E+03 -0.12591656677E+03 -0.15767986121E+03  0.29118075535E+03  0.17200000000E+03 0. -1.
         -6    1    1    2    0  501  0.12035078673E+03  0.12591656677E+03 -0.29905362556E+03  0.38646651164E+03  0.17200000000E+03 0. -1.
<mgrwt>
<rscale>  2 0.24479235E+03</rscale>
<asrwt>0</asrwt>
<pdfrwt beam="1">  1        2 0.14179759E+00 0.24479235E+03</pdfrwt>
<pdfrwt beam="2">  1       -2 0.27614223E-01 0.24479235E+03</pdfrwt>
<totfact> 0.35331308E+02</totfact>
</mgrwt>
</event>
<event>
 4    1  0.3757815E-001  0.2089242E+03  0.7546771E-02  0.1142421E+00
         -2   -1    0    0    0  501 -0.00000000000E+00  0.00000000000E+00  0.45631002614E+03  0.45631002614E+03  0.00000000000E+00 0.  1.
          2   -1    0    0  502    0  0.00000000000E+00 -0.00000000000E+00 -0.12014465595E+03  0.12014465595E+03  0.00000000000E+00 0. -1.
          6    1    1    2  502    0 -0.13614631524E+02  0.11781330665E+03  0.37959436518E+02  0.21234465436E+03  0.17200000000E+03 0. -1.
         -6    1    1    2    0  501  0.13614631524E+02 -0.11781330665E+03  0.29820593367E+03  0.36411002773E+03  0.17200000000E+03 0.  1.
<mgrwt>
<rscale>  2 0.20892423E+03</rscale>
<asrwt>0</asrwt>
<pdfrwt beam="1">  1        2 0.30036165E-01 0.20892423E+03</pdfrwt>
<pdfrwt beam="2">  1       -2 0.11407750E+00 0.20892423E+03</pdfrwt>
<totfact> 0.11122339E+02</totfact>
</mgrwt>
</event>
<event>
 4    1  0.3757815E-001  0.1892045E+03  0.7546771E-02  0.1159181E+00
          2   -1    0    0  502    0  0.00000000000E+00  0.00000000000E+00  0.58866075630E+03  0.58866075630E+03  0.00000000000E+00 0.  1.
         -2   -1    0    0    0  501 -0.00000000000E+00 -0.00000000000E+00 -0.74820047364E+02  0.74820047364E+02  0.00000000000E+00 0. -1.
          6    1    1    2  502    0  0.45397044426E+02  0.64447380221E+02  0.40045583081E+03  0.44290318230E+03  0.17200000000E+03 0.  1.
         -6    1    1    2    0  501 -0.45397044426E+02 -0.64447380221E+02  0.11338487813E+03  0.22057762137E+03  0.17200000000E+03 0. -1.
<mgrwt>
<rscale>  2 0.18920454E+03</rscale>
<asrwt>0</asrwt>
<pdfrwt beam="1">  1        2 0.14716518E+00 0.18920454E+03</pdfrwt>
<pdfrwt beam="2">  1       -2 0.18705014E-01 0.18920454E+03</pdfrwt>
<totfact> 0.66527477E+02</totfact>
</mgrwt>
</event>
<event>
 4    1  0.3757815E-001  0.1926278E+03  0.7546771E-02  0.1156112E+00
         -2   -1    0    0    0  501 -0.00000000000E+00  0.00000000000E+00  0.48896849063E+02  0.48896849063E+02  0.00000000000E+00 0.  1.
          2   -1    0    0  502    0  0.00000000000E+00 -0.00000000000E+00 -0.10041686559E+04  0.10041686559E+04  0.00000000000E+00 0. -1.
          6    1    1    2  502    0 -0.65390774819E+02 -0.56969598139E+02 -0.21738917795E+03  0.29045402946E+03  0.17200000000E+03 0.  1.
         -6    1    1    2    0  501  0.65390774819E+02  0.56969598139E+02 -0.73788262890E+03  0.76261147551E+03  0.17200000000E+03 0. -1.
<mgrwt>
<rscale>  2 0.19262785E+03</rscale>
<asrwt>0</asrwt>
<pdfrwt beam="1">  1        2 0.25104215E+00 0.19262785E+03</pdfrwt>
<pdfrwt beam="2">  1       -2 0.12224213E-01 0.19262785E+03</pdfrwt>
<totfact> 0.56551625E+02</totfact>
</mgrwt>
</event>
<event>
 4    1  0.3757815E-001  0.2120570E+03  0.7546771E-02  0.1139947E+00
          1   -1    0    0  502    0  0.00000000000E+00  0.00000000000E+00  0.77208096355E+03  0.77208096355E+03  0.00000000000E+00 0. -1.
         -1   -1    0    0    0  501 -0.00000000000E+00 -0.00000000000E+00 -0.59982781522E+02  0.59982781522E+02  0.00000000000E+00 0.  1.
          6    1    1    2  502    0 -0.10083474503E+03 -0.72225459632E+02  0.42690640792E+03  0.47667309967E+03  0.17200000000E+03 0. -1.
         -6    1    1    2    0  501  0.10083474503E+03  0.72225459632E+02  0.28519177411E+03  0.35539064541E+03  0.17200000000E+03 0.  1.
<mgrwt>
<rscale>  2 0.21205698E+03</rscale>
<asrwt>0</asrwt>
<pdfrwt beam="1">  1        1 0.19302021E+00 0.21205698E+03</pdfrwt>
<pdfrwt beam="2">  1       -1 0.14995698E-01 0.21205698E+03</pdfrwt>
<totfact> 0.34223069E+02</totfact>
</mgrwt>
</event>
<event>
 4    1  0.3757815E-001  0.1778552E+03  0.7546771E-02  0.1169895E+00
          1   -1    0    0  502    0  0.00000000000E+00  0.00000000000E+00  0.96321510226E+03  0.96321510226E+03  0.00000000000E+00 0.  1.
         -1   -1    0    0    0  501 -0.00000000000E+00 -0.00000000000E+00 -0.36516286452E+02  0.36516286452E+02  0.00000000000E+00 0. -1.
          6    1    1    2  502    0 -0.52035714171E+01  0.44960102031E+02  0.62194232753E+03  0.64687305301E+03  0.17200000000E+03 0.  1.
         -6    1    1    2    0  501  0.52035714171E+01 -0.44960102031E+02  0.30475648827E+03  0.35285833570E+03  0.17200000000E+03 0. -1.
<mgrwt>
<rscale>  2 0.17785524E+03</rscale>
<asrwt>0</asrwt>
<pdfrwt beam="1">  1        1 0.24080369E+00 0.17785524E+03</pdfrwt>
<pdfrwt beam="2">  1       -1 0.91290748E-02 0.17785524E+03</pdfrwt>
<totfact> 0.46290814E+02</totfact>
</mgrwt>
</event>
<event>
 4    1  0.3757815E-001  0.1841839E+03  0.7546771E-02  0.1163814E+00
         -2   -1    0    0    0  501 -0.00000000000E+00  0.00000000000E+00  0.32785056319E+02  0.32785056319E+02  0.00000000000E+00 0. -1.
          2   -1    0    0  502    0  0.00000000000E+00 -0.00000000000E+00 -0.11129628535E+04  0.11129628535E+04  0.00000000000E+00 0.  1.
          6    1    1    2  502    0 -0.58344326948E+02  0.30588172586E+02 -0.69197289629E+03  0.71606576932E+03  0.17200000000E+03 0. -1.
         -6    1    1    2    0  501  0.58344326948E+02 -0.30588172586E+02 -0.38820490088E+03  0.42968214049E+03  0.17200000000E+03 0.  1.
<mgrwt>
<rscale>  2 0.18418387E+03</rscale>
<asrwt>0</asrwt>
<pdfrwt beam="1">  1        2 0.27824069E+00 0.18418387E+03</pdfrwt>
<pdfrwt beam="2">  1       -2 0.81962647E-02 0.18418387E+03</pdfrwt>
<totfact> 0.86352794E+02</totfact>
</mgrwt>
</event>
<event>
 4    1  0.3757815E-001  0.2024921E+03  0.7546771E-02  0.1147653E+00
          4   -1    0    0  502    0  0.00000000000E+00  0.00000000000E+00  0.61997472851E+03  0.61997472851E+03  0.00000000000E+00 0. -1.
         -4   -1    0    0    0  501 -0.00000000000E+00 -0.00000000000E+00 -0.75959026744E+02  0.75959026744E+02  0.00000000000E+00 0.  1.
          6    1    1    2  502    0  0.43589107557E+02 -0.97565670167E+02  0.39713623573E+03  0.44578050655E+03  0.17200000000E+03 0. -1.
         -6    1    1    2    0  501 -0.43589107557E+02  0.97565670167E+02  0.14687946604E+03  0.25015324870E+03  0.17200000000E+03 0.  1.
<mgrwt>
<rscale>  2 0.20249215E+03</rscale>
<asrwt>0</asrwt>
<pdfrwt beam="1">  1        4 0.15499367E+00 0.20249215E+03</pdfrwt>
<pdfrwt beam="2">  1       -4 0.18989759E-01 0.20249215E+03</pdfrwt>
<totfact> 0.12839587E+01</totfact>
</mgrwt>
</event>
<event>
 4    1  0.3757815E-001  0.3270254E+03  0.7546771E-02  0.1072461E+00
          1   -1    0    0  502    0  0.00000000000E+00  0.00000000000E+00  0.82845138042E+03  0.82845138042E+03  0.00000000000E+00 0.  1.
         -1   -1    0    0    0  501 -0.00000000000E+00 -0.00000000000E+00 -0.14756758375E+03  0.14756758375E+03  0.00000000000E+00 0. -1.
          6    1    1    2  502    0 -0.25501894830E+03  0.11102675240E+03  0.51312260015E+03  0.60847383389E+03  0.17200000000E+03 0. -1.
         -6    1    1    2    0  501  0.25501894830E+03 -0.11102675240E+03  0.16776119651E+03  0.36754513028E+03  0.17200000000E+03 0. -1.
<mgrwt>
<rscale>  2 0.32702539E+03</rscale>
<asrwt>0</asrwt>
<pdfrwt beam="1">  1        1 0.20711283E+00 0.32702539E+03</pdfrwt>
<pdfrwt beam="2">  1       -1 0.36891898E-01 0.32702539E+03</pdfrwt>
<totfact> 0.64631088E+01</totfact>
</mgrwt>
</event>
<event>
 4    1  0.3757815E-001  0.1772343E+03  0.7546771E-02  0.1170507E+00
          4   -1    0    0  502    0  0.00000000000E+00  0.00000000000E+00  0.30150458436E+03  0.30150458436E+03  0.00000000000E+00 0.  1.
         -4   -1    0    0    0  501 -0.00000000000E+00 -0.00000000000E+00 -0.13853196042E+03  0.13853196042E+03  0.00000000000E+00 0. -1.
          6    1    1    2  502    0 -0.28348704068E+02 -0.32005394849E+02  0.19104160973E+03  0.26059334407E+03  0.17200000000E+03 0.  1.
         -6    1    1    2    0  501  0.28348704068E+02  0.32005394849E+02 -0.28068985795E+02  0.17944320072E+03  0.17200000000E+03 0. -1.
<mgrwt>
<rscale>  2 0.17723429E+03</rscale>
<asrwt>0</asrwt>
<pdfrwt beam="1">  1        4 0.75376145E-01 0.17723429E+03</pdfrwt>
<pdfrwt beam="2">  1       -4 0.34632991E-01 0.17723429E+03</pdfrwt>
<totfact> 0.22911613E+01</totfact>
</mgrwt>
</event>
<event>
 4    1  0.3757815E-001  0.2307153E+03  0.7546771E-02  0.1126137E+00
         -2   -1    0    0    0  501 -0.00000000000E+00  0.00000000000E+00  0.95055195596E+02  0.95055195596E+02  0.00000000000E+00 0.  1.
          2   -1    0    0  502    0  0.00000000000E+00 -0.00000000000E+00 -0.58701382556E+03  0.58701382556E+03  0.00000000000E+00 0. -1.
          6    1    1    2  502    0 -0.13996872685E+03 -0.63673529924E+02 -0.17280122706E+03  0.28825306067E+03  0.17200000000E+03 0.  1.
         -6    1    1    2    0  501  0.13996872685E+03  0.63673529924E+02 -0.31915740290E+03  0.39381596049E+03  0.17200000000E+03 0.  1.
<mgrwt>
<rscale>  2 0.23071533E+03</rscale>
<asrwt>0</asrwt>
<pdfrwt beam="1">  1        2 0.14675345E+00 0.23071533E+03</pdfrwt>
<pdfrwt beam="2">  1       -2 0.23763799E-01 0.23071533E+03</pdfrwt>
<totfact> 0.44071165E+02</totfact>
</mgrwt>
</event>
<event>
 4    1  0.3757815E-001  0.2079164E+03  0.7546771E-02  0.1143227E+00
         -2   -1    0    0    0  501 -0.00000000000E+00  0.00000000000E+00  0.14303512562E+03  0.14303512562E+03  0.00000000000E+00 0.  1.
          2   -1    0    0  502    0  0.00000000000E+00 -0.00000000000E+00 -0.43793291283E+03  0.43793291283E+03  0.00000000000E+00 0. -1.
          6    1    1    2  502    0 -0.11611664865E+03  0.12734755525E+02  0.14253295743E+02  0.20840443021E+03  0.17200000000E+03 0.  1.
         -6    1    1    2    0  501  0.11611664865E+03 -0.12734755525E+02 -0.30915108296E+03  0.37256360824E+03  0.17200000000E+03 0. -1.
<mgrwt>
<rscale>  2 0.20791645E+03</rscale>
<asrwt>0</asrwt>
<pdfrwt beam="1">  1        2 0.10948323E+00 0.20791645E+03</pdfrwt>
<pdfrwt beam="2">  1       -2 0.35758782E-01 0.20791645E+03</pdfrwt>
<totfact> 0.30759079E+02</totfact>
</mgrwt>
</event>
<event>
 4    1  0.3757815E-001  0.1890816E+03  0.7546771E-02  0.1159292E+00
          1   -1    0    0  502    0  0.00000000000E+00  0.00000000000E+00  0.99552691884E+03  0.99552691884E+03  0.00000000000E+00 0.  1.
         -1   -1    0    0    0  501 -0.00000000000E+00 -0.00000000000E+00 -0.37301279431E+02  0.37301279431E+02  0.00000000000E+00 0. -1.
          6    1    1    2  502    0  0.26075173005E+02  0.74080593451E+02  0.37946801262E+03  0.42396676942E+03  0.17200000000E+03 0. -1.
         -6    1    1    2    0  501 -0.26075173005E+02 -0.74080593451E+02  0.57875762679E+03  0.60886142885E+03  0.17200000000E+03 0.  1.
<mgrwt>
<rscale>  2 0.18908159E+03</rscale>
<asrwt>0</asrwt>
<pdfrwt beam="1">  1        1 0.24888164E+00 0.18908159E+03</pdfrwt>
<pdfrwt beam="2">  1       -1 0.93253232E-02 0.18908159E+03</pdfrwt>
<totfact> 0.41330748E+02</totfact>
</mgrwt>
</event>
<event>
 4    1  0.3757815E-001  0.1892866E+03  0.7546771E-02  0.1159106E+00
         -1   -1    0    0    0  501 -0.00000000000E+00  0.00000000000E+00  0.29220834768E+03  0.29220834768E+03  0.00000000000E+00 0.  1.
          1   -1    0    0  502    0  0.00000000000E+00 -0.00000000000E+00 -0.16689842044E+03  0.16689842044E+03  0.00000000000E+00 0. -1.
          6    1    1    2  502    0  0.38293398360E+01  0.78935010450E+02  0.18089745759E+03  0.26182683186E+03  0.17200000000E+03 0.  1.
         -6    1    1    2    0  501 -0.38293398360E+01 -0.78935010450E+02 -0.55587530349E+02  0.19727993625E+03  0.17200000000E+03 0. -1.
<mgrwt>
<rscale>  2 0.18928655E+03</rscale>
<asrwt>0</asrwt>
<pdfrwt beam="1">  1        1 0.41724606E-01 0.18928655E+03</pdfrwt>
<pdfrwt beam="2">  1       -1 0.73052086E-01 0.18928655E+03</pdfrwt>
<totfact> 0.19935112E+02</totfact>
</mgrwt>
</event>
<event>
 4    1  0.3757815E-001  0.2666958E+03  0.7546771E-02  0.1103186E+00
          2   -1    0    0  502    0  0.00000000000E+00  0.00000000000E+00  0.87651196042E+02  0.87651196042E+02  0.00000000000E+00 0. -1.
         -2   -1    0    0    0  501 -0.00000000000E+00 -0.00000000000E+00 -0.84558044754E+03  0.84558044754E+03  0.00000000000E+00 0.  1.
          6    1    1    2  502    0  0.81382389561E+02 -0.18686779193E+03 -0.28525151402E+03  0.39050619872E+03  0.17200000000E+03 0. -1.
         -6    1    1    2    0  501 -0.81382389561E+02  0.18686779193E+03 -0.47267773748E+03  0.54272544486E+03  0.17200000000E+03 0. -1.
<mgrwt>
<rscale>  2 0.26669583E+03</rscale>
<asrwt>0</asrwt>
<pdfrwt beam="1">  1        2 0.21912799E-01 0.26669583E+03</pdfrwt>
<pdfrwt beam="2">  1       -2 0.21139511E+00 0.26669583E+03</pdfrwt>
<totfact> 0.30734769E+01</totfact>
</mgrwt>
</event>
<event>
 4    1  0.3757815E-001  0.2405675E+03  0.7546771E-02  0.1119415E+00
          2   -1    0    0  502    0  0.00000000000E+00  0.00000000000E+00  0.28939794172E+03  0.28939794172E+03  0.00000000000E+00 0. -1.
         -2   -1    0    0    0  501 -0.00000000000E+00 -0.00000000000E+00 -0.35610176967E+03  0.35610176967E+03  0.00000000000E+00 0.  1.
          6    1    1    2  502    0  0.13216469143E+03  0.10402514573E+03 -0.24705748122E+03  0.34483348972E+03  0.17200000000E+03 0.  1.
         -6    1    1    2    0  501 -0.13216469143E+03 -0.10402514573E+03  0.18035365327E+03  0.30066622167E+03  0.17200000000E+03 0. -1.
<mgrwt>
<rscale>  2 0.24056753E+03</rscale>
<asrwt>0</asrwt>
<pdfrwt beam="1">  1        2 0.72349485E-01 0.24056753E+03</pdfrwt>
<pdfrwt beam="2">  1       -2 0.89025442E-01 0.24056753E+03</pdfrwt>
<totfact> 0.75967022E+01</totfact>
</mgrwt>
</event>
<event>
 4    1  0.3757815E-001  0.8099164E+03  0.7546771E-02  0.9545773E-01
          2   -1    0    0  502    0  0.00000000000E+00  0.00000000000E+00  0.14570246277E+04  0.14570246277E+04  0.00000000000E+00 0. -1.
         -2   -1    0    0    0  501 -0.00000000000E+00 -0.00000000000E+00 -0.13905474149E+04  0.13905474149E+04  0.00000000000E+00 0.  1.
          6    1    1    2  502    0 -0.38898668662E+03 -0.68925312932E+03  0.12040692604E+04  0.14511193275E+04  0.17200000000E+03 0. -1.
         -6    1    1    2    0  501  0.38898668662E+03  0.68925312932E+03 -0.11375920477E+04  0.13964527151E+04  0.17200000000E+03 0.  1.
<mgrwt>
<rscale>  2 0.80991637E+03</rscale>
<asrwt>0</asrwt>
<pdfrwt beam="1">  1        2 0.36425616E+00 0.80991637E+03</pdfrwt>
<pdfrwt beam="2">  1       -2 0.34763685E+00 0.80991637E+03</pdfrwt>
<totfact> 0.71559660E-02</totfact>
</mgrwt>
</event>
<event>
 4    1  0.3757815E-001  0.1907118E+03  0.7546771E-02  0.1157821E+00
          2   -1    0    0  502    0  0.00000000000E+00  0.00000000000E+00  0.99511563449E+03  0.99511563449E+03  0.00000000000E+00 0. -1.
         -2   -1    0    0    0  501 -0.00000000000E+00 -0.00000000000E+00 -0.47347075011E+02  0.47347075011E+02  0.00000000000E+00 0.  1.
          6    1    1    2  502    0  0.67237229876E+01 -0.82108408610E+02  0.22497180676E+03  0.29492933569E+03  0.17200000000E+03 0.  1.
         -6    1    1    2    0  501 -0.67237229876E+01  0.82108408610E+02  0.72279675272E+03  0.74753337381E+03  0.17200000000E+03 0. -1.
<mgrwt>
<rscale>  2 0.19071182E+03</rscale>
<asrwt>0</asrwt>
<pdfrwt beam="1">  1        2 0.24877884E+00 0.19071182E+03</pdfrwt>
<pdfrwt beam="2">  1       -2 0.11836772E-01 0.19071182E+03</pdfrwt>
<totfact> 0.60645380E+02</totfact>
</mgrwt>
</event>
<event>
 4    1  0.3757815E-001  0.1958168E+03  0.7546771E-02  0.1153317E+00
         -1   -1    0    0    0  501 -0.00000000000E+00  0.00000000000E+00  0.28814109189E+02  0.28814109189E+02  0.00000000000E+00 0.  1.
          1   -1    0    0  502    0  0.00000000000E+00 -0.00000000000E+00 -0.13803219059E+04  0.13803219059E+04  0.00000000000E+00 0. -1.
          6    1    1    2  502    0  0.92030608640E+02 -0.17047077841E+02 -0.54222605898E+03  0.57650094087E+03  0.17200000000E+03 0.  1.
         -6    1    1    2    0  501 -0.92030608640E+02  0.17047077841E+02 -0.80928173770E+03  0.83263507419E+03  0.17200000000E+03 0. -1.
<mgrwt>
<rscale>  2 0.19581684E+03</rscale>
<asrwt>0</asrwt>
<pdfrwt beam="1">  1        1 0.34508046E+00 0.19581684E+03</pdfrwt>
<pdfrwt beam="2">  1       -1 0.72035277E-02 0.19581684E+03</pdfrwt>
<totfact> 0.24168631E+02</totfact>
</mgrwt>
</event>
<event>
 4    1  0.3757815E-001  0.2584974E+03  0.7546771E-02  0.1108049E+00
         -2   -1    0    0    0  501 -0.00000000000E+00  0.00000000000E+00  0.25688248798E+03  0.25688248798E+03  0.00000000000E+00 0.  1.
          2   -1    0    0  502    0  0.00000000000E+00 -0.00000000000E+00 -0.28242605055E+03  0.28242605055E+03  0.00000000000E+00 0. -1.
          6    1    1    2  502    0 -0.18264099006E+03  0.62282843508E+02 -0.88549775656E+02  0.27324338347E+03  0.17200000000E+03 0. -1.
         -6    1    1    2    0  501  0.18264099006E+03 -0.62282843508E+02  0.63006213085E+02  0.26606515505E+03  0.17200000000E+03 0.  1.
<mgrwt>
<rscale>  2 0.25849736E+03</rscale>
<asrwt>0</asrwt>
<pdfrwt beam="1">  1        2 0.70606513E-01 0.25849736E+03</pdfrwt>
<pdfrwt beam="2">  1       -2 0.64220622E-01 0.25849736E+03</pdfrwt>
<totfact> 0.15887213E+02</totfact>
</mgrwt>
</event>
<event>
 4    1  0.3757815E-001  0.2268347E+03  0.7546771E-02  0.1128888E+00
         -1   -1    0    0    0  501 -0.00000000000E+00  0.00000000000E+00  0.55787447868E+02  0.55787447868E+02  0.00000000000E+00 0. -1.
          1   -1    0    0  502    0  0.00000000000E+00 -0.00000000000E+00 -0.10706900713E+04  0.10706900713E+04  0.00000000000E+00 0.  1.
          6    1    1    2  502    0 -0.12141280101E+03  0.84432816023E+02 -0.71711896958E+03  0.75213933895E+03  0.17200000000E+03 0.  1.
         -6    1    1    2    0  501  0.12141280101E+03 -0.84432816023E+02 -0.29778365388E+03  0.37433818024E+03  0.17200000000E+03 0. -1.
<mgrwt>
<rscale>  2 0.22683467E+03</rscale>
<asrwt>0</asrwt>
<pdfrwt beam="1">  1        1 0.26767252E+00 0.22683467E+03</pdfrwt>
<pdfrwt beam="2">  1       -1 0.13946862E-01 0.22683467E+03</pdfrwt>
<totfact> 0.18256276E+02</totfact>
</mgrwt>
</event>
<event>
 4    1  0.3757815E-001  0.2360292E+03  0.7546771E-02  0.1122467E+00
          2   -1    0    0  502    0  0.00000000000E+00  0.00000000000E+00  0.29153745365E+03  0.29153745365E+03  0.00000000000E+00 0.  1.
         -2   -1    0    0    0  501 -0.00000000000E+00 -0.00000000000E+00 -0.19286082268E+03  0.19286082268E+03  0.00000000000E+00 0. -1.
          6    1    1    2  502    0  0.15040172168E+03 -0.59203929203E+02  0.72548784943E+02  0.24692733610E+03  0.17200000000E+03 0.  1.
         -6    1    1    2    0  501 -0.15040172168E+03  0.59203929203E+02  0.26127846032E+02  0.23747094023E+03  0.17200000000E+03 0.  1.
<mgrwt>
<rscale>  2 0.23602920E+03</rscale>
<asrwt>0</asrwt>
<pdfrwt beam="1">  1        2 0.72884363E-01 0.23602920E+03</pdfrwt>
<pdfrwt beam="2">  1       -2 0.48215206E-01 0.23602920E+03</pdfrwt>
<totfact> 0.27611987E+02</totfact>
</mgrwt>
</event>
<event>
 4    1  0.3757815E-001  0.1890265E+03  0.7546771E-02  0.1159342E+00
          4   -1    0    0  502    0  0.00000000000E+00  0.00000000000E+00  0.16593871518E+03  0.16593871518E+03  0.00000000000E+00 0.  1.
         -4   -1    0    0    0  501 -0.00000000000E+00 -0.00000000000E+00 -0.21547740112E+03  0.21547740112E+03  0.00000000000E+00 0. -1.
          6    1    1    2  502    0 -0.66520568383E+02  0.41497563090E+02 -0.29812997750E+02  0.19136313280E+03  0.17200000000E+03 0. -1.
         -6    1    1    2    0  501  0.66520568383E+02 -0.41497563090E+02 -0.19725688190E+02  0.19005298349E+03  0.17200000000E+03 0.  1.
<mgrwt>
<rscale>  2 0.18902654E+03</rscale>
<asrwt>0</asrwt>
<pdfrwt beam="1">  1        4 0.41484679E-01 0.18902654E+03</pdfrwt>
<pdfrwt beam="2">  1       -4 0.53869350E-01 0.18902654E+03</pdfrwt>
<totfact> 0.33187561E+01</totfact>
</mgrwt>
</event>
<event>
 4    1  0.3757815E-001  0.3651019E+03  0.7546771E-02  0.1056582E+00
          2   -1    0    0  502    0  0.00000000000E+00  0.00000000000E+00  0.17399473228E+04  0.17399473228E+04  0.00000000000E+00 0.  1.
         -2   -1    0    0    0  501 -0.00000000000E+00 -0.00000000000E+00 -0.77783333632E+02  0.77783333632E+02  0.00000000000E+00 0. -1.
          6    1    1    2  502    0 -0.31562125882E+03 -0.64020295756E+02  0.71951061220E+03  0.80684254868E+03  0.17200000000E+03 0.  1.
         -6    1    1    2    0  501  0.31562125882E+03  0.64020295756E+02  0.94265337697E+03  0.10108881078E+04  0.17200000000E+03 0. -1.
<mgrwt>
<rscale>  2 0.36510187E+03</rscale>
<asrwt>0</asrwt>
<pdfrwt beam="1">  1        2 0.43498670E+00 0.36510187E+03</pdfrwt>
<pdfrwt beam="2">  1       -2 0.19445839E-01 0.36510187E+03</pdfrwt>
<totfact> 0.56534786E+01</totfact>
</mgrwt>
</event>
<event>
 4    1  0.3757815E-001  0.2105219E+03  0.7546771E-02  0.1141153E+00
         -2   -1    0    0    0  501 -0.00000000000E+00  0.00000000000E+00  0.73484399007E+02  0.73484399007E+02  0.00000000000E+00 0.  1.
          2   -1    0    0  502    0  0.00000000000E+00 -0.00000000000E+00 -0.80670220277E+03  0.80670220277E+03  0.00000000000E+00 0. -1.
          6    1    1    2  502    0 -0.12136867392E+03 -0.22634855999E+01 -0.14552133689E+03  0.25592174168E+03  0.17200000000E+03 0.  1.
         -6    1    1    2    0  501  0.12136867392E+03  0.22634855999E+01 -0.58769646687E+03  0.62426486009E+03  0.17200000000E+03 0. -1.
<mgrwt>
<rscale>  2 0.21052192E+03</rscale>
<asrwt>0</asrwt>
<pdfrwt beam="1">  1        2 0.20167555E+00 0.21052192E+03</pdfrwt>
<pdfrwt beam="2">  1       -2 0.18371100E-01 0.21052192E+03</pdfrwt>
<totfact> 0.42692245E+02</totfact>
</mgrwt>
</event>
<event>
 4    1  0.3757815E-001  0.3350848E+03  0.7546771E-02  0.1068909E+00
          2   -1    0    0  502    0  0.00000000000E+00  0.00000000000E+00  0.10280146747E+04  0.10280146747E+04  0.00000000000E+00 0.  1.
         -2   -1    0    0    0  501 -0.00000000000E+00 -0.00000000000E+00 -0.10984891884E+03  0.10984891884E+03  0.00000000000E+00 0. -1.
          6    1    1    2  502    0 -0.80573591822E+02  0.27605385101E+03  0.50206258047E+03  0.60361301101E+03  0.17200000000E+03 0.  1.
         -6    1    1    2    0  501  0.80573591822E+02 -0.27605385101E+03  0.41610317538E+03  0.53425058252E+03  0.17200000000E+03 0. -1.
<mgrwt>
<rscale>  2 0.33508481E+03</rscale>
<asrwt>0</asrwt>
<pdfrwt beam="1">  1        2 0.25700364E+00 0.33508481E+03</pdfrwt>
<pdfrwt beam="2">  1       -2 0.27462233E-01 0.33508481E+03</pdfrwt>
<totfact> 0.13240983E+02</totfact>
</mgrwt>
</event>
<event>
 4    1  0.3757815E-001  0.2578449E+03  0.7546771E-02  0.1108445E+00
         -1   -1    0    0    0  501 -0.00000000000E+00  0.00000000000E+00  0.90580516101E+02  0.90580516101E+02  0.00000000000E+00 0.  1.
          1   -1    0    0  502    0  0.00000000000E+00 -0.00000000000E+00 -0.89138772447E+03  0.89138772447E+03  0.00000000000E+00 0. -1.
          6    1    1    2  502    0  0.43236013341E+02 -0.18716476068E+03 -0.60672844019E+03  0.65924456814E+03  0.17200000000E+03 0. -1.
         -6    1    1    2    0  501 -0.43236013341E+02  0.18716476068E+03 -0.19407876818E+03  0.32272367243E+03  0.17200000000E+03 0.  1.
<mgrwt>
<rscale>  2 0.25784492E+03</rscale>
<asrwt>0</asrwt>
<pdfrwt beam="1">  1        1 0.22284693E+00 0.25784492E+03</pdfrwt>
<pdfrwt beam="2">  1       -1 0.22645129E-01 0.25784492E+03</pdfrwt>
<totfact> 0.12877989E+02</totfact>
</mgrwt>
</event>
<event>
 4    1  0.3757815E-001  0.2696039E+03  0.7546771E-02  0.1101507E+00
         -1   -1    0    0    0  501 -0.00000000000E+00  0.00000000000E+00  0.25292579176E+03  0.25292579176E+03  0.00000000000E+00 0.  1.
          1   -1    0    0  502    0  0.00000000000E+00 -0.00000000000E+00 -0.28836346301E+03  0.28836346301E+03  0.00000000000E+00 0. -1.
          6    1    1    2  502    0 -0.20706878932E+03 -0.14992545754E+02 -0.19275060505E+01  0.26961078469E+03  0.17200000000E+03 0.  1.
         -6    1    1    2    0  501  0.20706878932E+03  0.14992545754E+02 -0.33510165200E+02  0.27167847009E+03  0.17200000000E+03 0. -1.
<mgrwt>
<rscale>  2 0.26960389E+03</rscale>
<asrwt>0</asrwt>
<pdfrwt beam="1">  1        1 0.72090865E-01 0.26960389E+03</pdfrwt>
<pdfrwt beam="2">  1       -1 0.63231448E-01 0.26960389E+03</pdfrwt>
<totfact> 0.13068410E+02</totfact>
</mgrwt>
</event>
<event>
 4    1  0.3757815E-001  0.1991291E+03  0.7546771E-02  0.1150476E+00
          1   -1    0    0  502    0  0.00000000000E+00  0.00000000000E+00  0.41968502775E+03  0.41968502775E+03  0.00000000000E+00 0. -1.
         -1   -1    0    0    0  501 -0.00000000000E+00 -0.00000000000E+00 -0.14419200695E+03  0.14419200695E+03  0.00000000000E+00 0.  1.
          6    1    1    2  502    0  0.58835021795E+02 -0.81282430568E+02  0.30328871036E+03  0.36281735783E+03  0.17200000000E+03 0. -1.
         -6    1    1    2    0  501 -0.58835021795E+02  0.81282430568E+02 -0.27795689557E+02  0.20105967688E+03  0.17200000000E+03 0.  1.
<mgrwt>
<rscale>  2 0.19912909E+03</rscale>
<asrwt>0</asrwt>
<pdfrwt beam="1">  1        1 0.10492125E+00 0.19912909E+03</pdfrwt>
<pdfrwt beam="2">  1       -1 0.36048003E-01 0.19912909E+03</pdfrwt>
<totfact> 0.22202737E+02</totfact>
</mgrwt>
</event>
<event>
 4    1  0.3757815E-001  0.3077785E+03  0.7546771E-02  0.1081416E+00
          1   -1    0    0  502    0  0.00000000000E+00  0.00000000000E+00  0.37168998410E+02  0.37168998410E+02  0.00000000000E+00 0.  1.
         -1   -1    0    0    0  501 -0.00000000000E+00 -0.00000000000E+00 -0.26878002484E+04  0.26878002484E+04  0.00000000000E+00 0. -1.
          6    1    1    2  502    0 -0.18781076466E+03 -0.17283139622E+03 -0.10152103733E+04  0.10608391381E+04  0.17200000000E+03 0.  1.
         -6    1    1    2    0  501  0.18781076466E+03  0.17283139622E+03 -0.16354208768E+04  0.16641301088E+04  0.17200000000E+03 0. -1.
<mgrwt>
<rscale>  2 0.30777845E+03</rscale>
<asrwt>0</asrwt>
<pdfrwt beam="1">  1        1 0.92922510E-02 0.30777845E+03</pdfrwt>
<pdfrwt beam="2">  1       -1 0.67194996E+00 0.30777845E+03</pdfrwt>
<totfact> 0.20894822E-01</totfact>
</mgrwt>
</event>
<event>
 4    1  0.3757815E-001  0.1929718E+03  0.7546771E-02  0.1155808E+00
          2   -1    0    0  502    0  0.00000000000E+00  0.00000000000E+00  0.49867721472E+03  0.49867721472E+03  0.00000000000E+00 0. -1.
         -2   -1    0    0    0  501 -0.00000000000E+00 -0.00000000000E+00 -0.74763530280E+02  0.74763530280E+02  0.00000000000E+00 0.  1.
          6    1    1    2  502    0  0.57804424554E+02  0.65671732488E+02  0.22188931084E+03  0.29406290860E+03  0.17200000000E+03 0.  1.
         -6    1    1    2    0  501 -0.57804424554E+02 -0.65671732488E+02  0.20202437360E+03  0.27937783640E+03  0.17200000000E+03 0. -1.
<mgrwt>
<rscale>  2 0.19297183E+03</rscale>
<asrwt>0</asrwt>
<pdfrwt beam="1">  1        2 0.12466929E+00 0.19297183E+03</pdfrwt>
<pdfrwt beam="2">  1       -2 0.18690884E-01 0.19297183E+03</pdfrwt>
<totfact> 0.82821941E+02</totfact>
</mgrwt>
</event>
<event>
 4    1  0.3757815E-001  0.1798194E+03  0.7546771E-02  0.1167978E+00
         -2   -1    0    0    0  501 -0.00000000000E+00  0.00000000000E+00  0.41585646297E+02  0.41585646297E+02  0.00000000000E+00 0. -1.
          2   -1    0    0  502    0  0.00000000000E+00 -0.00000000000E+00 -0.80140792605E+03  0.80140792605E+03  0.00000000000E+00 0.  1.
          6    1    1    2  502    0 -0.19558380414E+02  0.48667190260E+02 -0.30719002773E+03  0.35595047238E+03  0.17200000000E+03 0. -1.
         -6    1    1    2    0  501  0.19558380414E+02 -0.48667190260E+02 -0.45263225202E+03  0.48704309996E+03  0.17200000000E+03 0.  1.
<mgrwt>
<rscale>  2 0.17981943E+03</rscale>
<asrwt>0</asrwt>
<pdfrwt beam="1">  1        2 0.20035198E+00 0.17981943E+03</pdfrwt>
<pdfrwt beam="2">  1       -2 0.10396411E-01 0.17981943E+03</pdfrwt>
<totfact> 0.10984652E+03</totfact>
</mgrwt>
</event>
<event>
 4    1  0.3757815E-001  0.2746850E+03  0.7546771E-02  0.1098628E+00
          1   -1    0    0  502    0  0.00000000000E+00  0.00000000000E+00  0.16136852988E+04  0.16136852988E+04  0.00000000000E+00 0.  1.
         -1   -1    0    0    0  501 -0.00000000000E+00 -0.00000000000E+00 -0.50685921648E+02  0.50685921648E+02  0.00000000000E+00 0. -1.
          6    1    1    2  502    0 -0.34116117476E+02 -0.21143303109E+03  0.10131790962E+04  0.10497541222E+04  0.17200000000E+03 0.  1.
         -6    1    1    2    0  501  0.34116117476E+02  0.21143303109E+03  0.54982028096E+03  0.61461709825E+03  0.17200000000E+03 0.  1.
<mgrwt>
<rscale>  2 0.27468498E+03</rscale>
<asrwt>0</asrwt>
<pdfrwt beam="1">  1        1 0.40342115E+00 0.27468498E+03</pdfrwt>
<pdfrwt beam="2">  1       -1 0.12671486E-01 0.27468498E+03</pdfrwt>
<totfact> 0.55360666E+01</totfact>
</mgrwt>
</event>
<event>
 4    1  0.3757815E-001  0.1835220E+03  0.7546771E-02  0.1164437E+00
          2   -1    0    0  502    0  0.00000000000E+00  0.00000000000E+00  0.85809582642E+03  0.85809582642E+03  0.00000000000E+00 0.  1.
         -2   -1    0    0    0  501 -0.00000000000E+00 -0.00000000000E+00 -0.39715766306E+02  0.39715766306E+02  0.00000000000E+00 0. -1.
          6    1    1    2  502    0 -0.63823651982E+02  0.47819123574E+01  0.36058032662E+03  0.40459670931E+03  0.17200000000E+03 0. -1.
         -6    1    1    2    0  501  0.63823651982E+02 -0.47819123574E+01  0.45779973350E+03  0.49321488342E+03  0.17200000000E+03 0.  1.
<mgrwt>
<rscale>  2 0.18352200E+03</rscale>
<asrwt>0</asrwt>
<pdfrwt beam="1">  1        2 0.21452390E+00 0.18352200E+03</pdfrwt>
<pdfrwt beam="2">  1       -2 0.99289444E-02 0.18352200E+03</pdfrwt>
<totfact> 0.10532350E+03</totfact>
</mgrwt>
</event>
<event>
 4    1  0.3757815E-001  0.1800260E+03  0.7546771E-02  0.1167778E+00
          2   -1    0    0  502    0  0.00000000000E+00  0.00000000000E+00  0.41458293838E+03  0.41458293838E+03  0.00000000000E+00 0. -1.
         -2   -1    0    0    0  501 -0.00000000000E+00 -0.00000000000E+00 -0.12870382666E+03  0.12870382666E+03  0.00000000000E+00 0.  1.
          6    1    1    2  502    0  0.16095197251E+02  0.50658808021E+02 -0.27268360291E+02  0.18207947077E+03  0.17200000000E+03 0.  1.
         -6    1    1    2    0  501 -0.16095197251E+02 -0.50658808021E+02  0.31314747201E+03  0.36120729426E+03  0.17200000000E+03 0. -1.
<mgrwt>
<rscale>  2 0.18002603E+03</rscale>
<asrwt>0</asrwt>
<pdfrwt beam="1">  1        2 0.10364573E+00 0.18002603E+03</pdfrwt>
<pdfrwt beam="2">  1       -2 0.32175958E-01 0.18002603E+03</pdfrwt>
<totfact> 0.40043080E+02</totfact>
</mgrwt>
</event>
<event>
 4    1  0.3757815E-001  0.2058664E+03  0.7546771E-02  0.1144882E+00
          2   -1    0    0  502    0  0.00000000000E+00  0.00000000000E+00  0.10426826563E+04  0.10426826563E+04  0.00000000000E+00 0.  1.
         -2   -1    0    0    0  501 -0.00000000000E+00 -0.00000000000E+00 -0.62118370906E+02  0.62118370906E+02  0.00000000000E+00 0. -1.
          6    1    1    2  502    0  0.44092023218E+02 -0.10417719249E+03  0.81505739786E+03  0.84065424269E+03  0.17200000000E+03 0.  1.
         -6    1    1    2    0  501 -0.44092023218E+02  0.10417719249E+03  0.16550688752E+03  0.26414678451E+03  0.17200000000E+03 0.  1.
<mgrwt>
<rscale>  2 0.20586645E+03</rscale>
<asrwt>0</asrwt>
<pdfrwt beam="1">  1        2 0.26067061E+00 0.20586645E+03</pdfrwt>
<pdfrwt beam="2">  1       -2 0.15529596E-01 0.20586645E+03</pdfrwt>
<totfact> 0.35382678E+02</totfact>
</mgrwt>
</event>
<event>
 4    1  0.3757815E-001  0.1752675E+03  0.7546771E-02  0.1172463E+00
          1   -1    0    0  502    0  0.00000000000E+00  0.00000000000E+00  0.41460124918E+03  0.41460124918E+03  0.00000000000E+00 0. -1.
         -1   -1    0    0    0  501 -0.00000000000E+00 -0.00000000000E+00 -0.14289962722E+03  0.14289962722E+03  0.00000000000E+00 0.  1.
          6    1    1    2  502    0 -0.32807633162E+02  0.76402150674E+01  0.32927808378E+03  0.37301845817E+03  0.17200000000E+03 0. -1.
         -6    1    1    2    0  501  0.32807633162E+02 -0.76402150674E+01 -0.57576461825E+02  0.18448241823E+03  0.17200000000E+03 0.  1.
<mgrwt>
<rscale>  2 0.17526755E+03</rscale>
<asrwt>0</asrwt>
<pdfrwt beam="1">  1        1 0.10365031E+00 0.17526755E+03</pdfrwt>
<pdfrwt beam="2">  1       -1 0.35724908E-01 0.17526755E+03</pdfrwt>
<totfact> 0.23047691E+02</totfact>
</mgrwt>
</event>
<event>
 4    1  0.3757815E-001  0.2412515E+03  0.7546771E-02  0.1118962E+00
         -2   -1    0    0    0  501 -0.00000000000E+00  0.00000000000E+00  0.11502432930E+03  0.11502432930E+03  0.00000000000E+00 0.  1.
          2   -1    0    0  502    0  0.00000000000E+00 -0.00000000000E+00 -0.50769486788E+03  0.50769486788E+03  0.00000000000E+00 0. -1.
          6    1    1    2  502    0  0.45509921832E+02  0.16293296984E+03 -0.21432540096E+03  0.32270370798E+03  0.17200000000E+03 0. -1.
         -6    1    1    2    0  501 -0.45509921832E+02 -0.16293296984E+03 -0.17834513763E+03  0.30001548921E+03  0.17200000000E+03 0.  1.
<mgrwt>
<rscale>  2 0.24125154E+03</rscale>
<asrwt>0</asrwt>
<pdfrwt beam="1">  1        2 0.12692372E+00 0.24125154E+03</pdfrwt>
<pdfrwt beam="2">  1       -2 0.28756083E-01 0.24125154E+03</pdfrwt>
<totfact> 0.38033863E+02</totfact>
</mgrwt>
</event>
<event>
 4    1  0.3757815E-001  0.1754644E+03  0.7546771E-02  0.1172266E+00
         -1   -1    0    0    0  501 -0.00000000000E+00  0.00000000000E+00  0.54111187105E+02  0.54111187105E+02  0.00000000000E+00 0. -1.
          1   -1    0    0  502    0  0.00000000000E+00 -0.00000000000E+00 -0.56900132503E+03  0.56900132503E+03  0.00000000000E+00 0.  1.
          6    1    1    2  502    0  0.23810630704E+02  0.25235250473E+02 -0.25521805507E+03  0.30971603064E+03  0.17200000000E+03 0. -1.
         -6    1    1    2    0  501 -0.23810630704E+02 -0.25235250473E+02 -0.25967208285E+03  0.31339648150E+03  0.17200000000E+03 0. -1.
<mgrwt>
<rscale>  2 0.17546442E+03</rscale>
<asrwt>0</asrwt>
<pdfrwt beam="1">  1        1 0.14225033E+00 0.17546442E+03</pdfrwt>
<pdfrwt beam="2">  1       -1 0.13527797E-01 0.17546442E+03</pdfrwt>
<totfact> 0.69870043E+02</totfact>
</mgrwt>
</event>
<event>
 4    1  0.3757815E-001  0.2108681E+03  0.7546771E-02  0.1140880E+00
          2   -1    0    0  502    0  0.00000000000E+00  0.00000000000E+00  0.57606023969E+03  0.57606023969E+03  0.00000000000E+00 0.  1.
         -2   -1    0    0    0  501 -0.00000000000E+00 -0.00000000000E+00 -0.10858200224E+03  0.10858200224E+03  0.00000000000E+00 0. -1.
          6    1    1    2  502    0  0.17129890059E+02 -0.12078050904E+03  0.49673365868E+02  0.21663981115E+03  0.17200000000E+03 0. -1.
         -6    1    1    2    0  501 -0.17129890059E+02  0.12078050904E+03  0.41780487158E+03  0.46800243078E+03  0.17200000000E+03 0.  1.
<mgrwt>
<rscale>  2 0.21086812E+03</rscale>
<asrwt>0</asrwt>
<pdfrwt beam="1">  1        2 0.14401505E+00 0.21086812E+03</pdfrwt>
<pdfrwt beam="2">  1       -2 0.27145502E-01 0.21086812E+03</pdfrwt>
<totfact> 0.35819059E+02</totfact>
</mgrwt>
</event>
<event>
 4    1  0.3757815E-001  0.2502698E+03  0.7546771E-02  0.1113134E+00
          1   -1    0    0  502    0  0.00000000000E+00  0.00000000000E+00  0.37185068522E+03  0.37185068522E+03  0.00000000000E+00 0. -1.
         -1   -1    0    0    0  501 -0.00000000000E+00 -0.00000000000E+00 -0.26254220136E+03  0.26254220136E+03  0.00000000000E+00 0.  1.
          6    1    1    2  502    0  0.64785756079E+02  0.16986399099E+03 -0.13524617033E+03  0.28447582712E+03  0.17200000000E+03 0.  1.
         -6    1    1    2    0  501 -0.64785756079E+02 -0.16986399099E+03  0.24455465419E+03  0.34991705947E+03  0.17200000000E+03 0. -1.
<mgrwt>
<rscale>  2 0.25026979E+03</rscale>
<asrwt>0</asrwt>
<pdfrwt beam="1">  1        1 0.92962671E-01 0.25026979E+03</pdfrwt>
<pdfrwt beam="2">  1       -1 0.65635551E-01 0.25026979E+03</pdfrwt>
<totfact> 0.86422102E+01</totfact>
</mgrwt>
</event>
<event>
 4    1  0.3757815E-001  0.2822102E+03  0.7546771E-02  0.1094488E+00
         -1   -1    0    0    0  501 -0.00000000000E+00  0.00000000000E+00  0.94522712678E+02  0.94522712678E+02  0.00000000000E+00 0.  1.
          1   -1    0    0  502    0  0.00000000000E+00 -0.00000000000E+00 -0.11471546304E+04  0.11471546304E+04  0.00000000000E+00 0. -1.
          6    1    1    2  502    0 -0.10795489715E+03  0.19597029887E+03 -0.84621808545E+03  0.89203568650E+03  0.17200000000E+03 0.  1.
         -6    1    1    2    0  501  0.10795489715E+03 -0.19597029887E+03 -0.20641383227E+03  0.34964165657E+03  0.17200000000E+03 0.  1.
<mgrwt>
<rscale>  2 0.28221024E+03</rscale>
<asrwt>0</asrwt>
<pdfrwt beam="1">  1        1 0.28678865E+00 0.28221024E+03</pdfrwt>
<pdfrwt beam="2">  1       -1 0.23630679E-01 0.28221024E+03</pdfrwt>
<totfact> 0.63610328E+01</totfact>
</mgrwt>
</event>
<event>
 4    1  0.3757815E-001  0.2016789E+03  0.7546771E-02  0.1148330E+00
          2   -1    0    0  502    0  0.00000000000E+00  0.00000000000E+00  0.10825208114E+04  0.10825208114E+04  0.00000000000E+00 0.  1.
         -2   -1    0    0    0  501 -0.00000000000E+00 -0.00000000000E+00 -0.41596926616E+02  0.41596926616E+02  0.00000000000E+00 0. -1.
          6    1    1    2  502    0 -0.10108377514E+03  0.29537418093E+02  0.69525920174E+03  0.72391970982E+03  0.17200000000E+03 0.  1.
         -6    1    1    2    0  501  0.10108377514E+03 -0.29537418093E+02  0.34566468303E+03  0.40019802818E+03  0.17200000000E+03 0. -1.
<mgrwt>
<rscale>  2 0.20167892E+03</rscale>
<asrwt>0</asrwt>
<pdfrwt beam="1">  1        2 0.27063011E+00 0.20167892E+03</pdfrwt>
<pdfrwt beam="2">  1       -2 0.10399235E-01 0.20167892E+03</pdfrwt>
<totfact> 0.62789612E+02</totfact>
</mgrwt>
</event>
<event>
 4    1  0.3757815E-001  0.1999451E+03  0.7546771E-02  0.1149785E+00
         -2   -1    0    0    0  501 -0.00000000000E+00  0.00000000000E+00  0.14797117246E+03  0.14797117246E+03  0.00000000000E+00 0.  1.
          2   -1    0    0  502    0  0.00000000000E+00 -0.00000000000E+00 -0.54382284374E+03  0.54382284374E+03  0.00000000000E+00 0. -1.
          6    1    1    2  502    0 -0.95224597045E+02  0.36418558552E+02  0.47440233978E+02  0.20549601234E+03  0.17200000000E+03 0. -1.
         -6    1    1    2    0  501  0.95224597045E+02 -0.36418558552E+02 -0.44329190526E+03  0.48629800386E+03  0.17200000000E+03 0.  1.
<mgrwt>
<rscale>  2 0.19994508E+03</rscale>
<asrwt>0</asrwt>
<pdfrwt beam="1">  1        2 0.13595571E+00 0.19994508E+03</pdfrwt>
<pdfrwt beam="2">  1       -2 0.36992793E-01 0.19994508E+03</pdfrwt>
<totfact> 0.21985452E+02</totfact>
</mgrwt>
</event>
<event>
 4    1  0.3757815E-001  0.3171094E+03  0.7546771E-02  0.1076987E+00
         -1   -1    0    0    0  501 -0.00000000000E+00  0.00000000000E+00  0.94593885762E+02  0.94593885762E+02  0.00000000000E+00 0. -1.
          1   -1    0    0  502    0  0.00000000000E+00 -0.00000000000E+00 -0.10983934601E+04  0.10983934601E+04  0.00000000000E+00 0.  1.
          6    1    1    2  502    0 -0.24544565706E+03  0.10358961850E+03 -0.39490596269E+03  0.50646727337E+03  0.17200000000E+03 0.  1.
         -6    1    1    2    0  501  0.24544565706E+03 -0.10358961850E+03 -0.60889361166E+03  0.68652007250E+03  0.17200000000E+03 0. -1.
<mgrwt>
<rscale>  2 0.31710941E+03</rscale>
<asrwt>0</asrwt>
<pdfrwt beam="1">  1        1 0.27459836E+00 0.31710941E+03</pdfrwt>
<pdfrwt beam="2">  1       -1 0.23648472E-01 0.31710941E+03</pdfrwt>
<totfact> 0.70871338E+01</totfact>
</mgrwt>
</event>
<event>
 4    1  0.3757815E-001  0.2008223E+03  0.7546771E-02  0.1149047E+00
         -2   -1    0    0    0  501 -0.00000000000E+00  0.00000000000E+00  0.31187299684E+02  0.31187299684E+02  0.00000000000E+00 0. -1.
          2   -1    0    0  502    0  0.00000000000E+00 -0.00000000000E+00 -0.12931949527E+04  0.12931949527E+04  0.00000000000E+00 0.  1.
          6    1    1    2  502    0 -0.90811915839E+02  0.49988037833E+02 -0.63524003557E+03  0.66622782198E+03  0.17200000000E+03 0.  1.
         -6    1    1    2    0  501  0.90811915839E+02 -0.49988037833E+02 -0.62676761743E+03  0.65815443039E+03  0.17200000000E+03 0.  1.
<mgrwt>
<rscale>  2 0.20082233E+03</rscale>
<asrwt>0</asrwt>
<pdfrwt beam="1">  1        2 0.32329872E+00 0.20082233E+03</pdfrwt>
<pdfrwt beam="2">  1       -2 0.77968253E-02 0.20082233E+03</pdfrwt>
<totfact> 0.65562871E+02</totfact>
</mgrwt>
</event>
<event>
 4    1  0.3757815E-001  0.2452063E+03  0.7546771E-02  0.1116372E+00
          2   -1    0    0  502    0  0.00000000000E+00  0.00000000000E+00  0.34926281780E+03  0.34926281780E+03  0.00000000000E+00 0.  1.
         -2   -1    0    0    0  501 -0.00000000000E+00 -0.00000000000E+00 -0.18553720709E+03  0.18553720709E+03  0.00000000000E+00 0. -1.
          6    1    1    2  502    0  0.54611943092E+02 -0.16601105688E+03  0.10039437080E+02  0.24541174714E+03  0.17200000000E+03 0. -1.
         -6    1    1    2    0  501 -0.54611943092E+02  0.16601105688E+03  0.15368617362E+03  0.28938827775E+03  0.17200000000E+03 0.  1.
<mgrwt>
<rscale>  2 0.24520631E+03</rscale>
<asrwt>0</asrwt>
<pdfrwt beam="1">  1        2 0.87315704E-01 0.24520631E+03</pdfrwt>
<pdfrwt beam="2">  1       -2 0.46384302E-01 0.24520631E+03</pdfrwt>
<totfact> 0.24290426E+02</totfact>
</mgrwt>
</event>
<event>
 4    1  0.3757815E-001  0.1732933E+03  0.7546771E-02  0.1174456E+00
          2   -1    0    0  502    0  0.00000000000E+00  0.00000000000E+00  0.16213052594E+04  0.16213052594E+04  0.00000000000E+00 0. -1.
         -2   -1    0    0    0  501 -0.00000000000E+00 -0.00000000000E+00 -0.19785746815E+02  0.19785746815E+02  0.00000000000E+00 0.  1.
          6    1    1    2  502    0  0.18317913192E+02  0.10536427303E+02  0.59342248322E+03  0.61820773679E+03  0.17200000000E+03 0.  1.
         -6    1    1    2    0  501 -0.18317913192E+02 -0.10536427303E+02  0.10080970294E+04  0.10228832695E+04  0.17200000000E+03 0. -1.
<mgrwt>
<rscale>  2 0.17329328E+03</rscale>
<asrwt>0</asrwt>
<pdfrwt beam="1">  1        2 0.40532586E+00 0.17329328E+03</pdfrwt>
<pdfrwt beam="2">  1       -2 0.49464422E-02 0.17329328E+03</pdfrwt>
<totfact> 0.68834663E+02</totfact>
</mgrwt>
</event>
<event>
 4    1  0.3757815E-001  0.2307890E+03  0.7546771E-02  0.1126086E+00
          1   -1    0    0  502    0  0.00000000000E+00  0.00000000000E+00  0.10916892194E+04  0.10916892194E+04  0.00000000000E+00 0. -1.
         -1   -1    0    0    0  501 -0.00000000000E+00 -0.00000000000E+00 -0.63861411337E+02  0.63861411337E+02  0.00000000000E+00 0.  1.
          6    1    1    2  502    0 -0.58657086335E+02  0.14226355482E+03  0.79459680233E+03  0.82743437872E+03  0.17200000000E+03 0. -1.
         -6    1    1    2    0  501  0.58657086335E+02 -0.14226355482E+03  0.23323100575E+03  0.32811625204E+03  0.17200000000E+03 0.  1.
<mgrwt>
<rscale>  2 0.23078902E+03</rscale>
<asrwt>0</asrwt>
<pdfrwt beam="1">  1        1 0.27292224E+00 0.23078902E+03</pdfrwt>
<pdfrwt beam="2">  1       -1 0.15965356E-01 0.23078902E+03</pdfrwt>
<totfact> 0.13985570E+02</totfact>
</mgrwt>
</event>
<event>
 4    1  0.3757815E-001  0.1779464E+03  0.7546771E-02  0.1169805E+00
          2   -1    0    0  502    0  0.00000000000E+00  0.00000000000E+00  0.44630543609E+03  0.44630543609E+03  0.00000000000E+00 0.  1.
         -2   -1    0    0    0  501 -0.00000000000E+00 -0.00000000000E+00 -0.71334302979E+02  0.71334302979E+02  0.00000000000E+00 0. -1.
          6    1    1    2  502    0 -0.43719322269E+02  0.13020433600E+02  0.16846310558E+03  0.24504025949E+03  0.17200000000E+03 0. -1.
         -6    1    1    2    0  501  0.43719322269E+02 -0.13020433600E+02  0.20650802753E+03  0.27259947957E+03  0.17200000000E+03 0.  1.
<mgrwt>
<rscale>  2 0.17794637E+03</rscale>
<asrwt>0</asrwt>
<pdfrwt beam="1">  1        2 0.11157635E+00 0.17794637E+03</pdfrwt>
<pdfrwt beam="2">  1       -2 0.17833577E-01 0.17794637E+03</pdfrwt>
<totfact> 0.10286208E+03</totfact>
</mgrwt>
</event>
<event>
 4    1  0.3757815E-001  0.1944381E+03  0.7546771E-02  0.1154518E+00
          2   -1    0    0  502    0  0.00000000000E+00  0.00000000000E+00  0.48145856683E+03  0.48145856683E+03  0.00000000000E+00 0.  1.
         -2   -1    0    0    0  501 -0.00000000000E+00 -0.00000000000E+00 -0.95465879735E+02  0.95465879735E+02  0.00000000000E+00 0. -1.
          6    1    1    2  502    0  0.35515778626E+01 -0.90606673632E+02  0.71477905177E+02  0.20716002013E+03  0.17200000000E+03 0. -1.
         -6    1    1    2    0  501 -0.35515778626E+01  0.90606673632E+02  0.31451478191E+03  0.36976442643E+03  0.17200000000E+03 0.  1.
<mgrwt>
<rscale>  2 0.19443812E+03</rscale>
<asrwt>0</asrwt>
<pdfrwt beam="1">  1        2 0.12036464E+00 0.19443812E+03</pdfrwt>
<pdfrwt beam="2">  1       -2 0.23866471E-01 0.19443812E+03</pdfrwt>
<totfact> 0.56874160E+02</totfact>
</mgrwt>
</event>
<event>
 4    1  0.3757815E-001  0.3486444E+03  0.7546771E-02  0.1063173E+00
         -1   -1    0    0    0  501 -0.00000000000E+00  0.00000000000E+00  0.24248687189E+03  0.24248687189E+03  0.00000000000E+00 0.  1.
          1   -1    0    0  502    0  0.00000000000E+00 -0.00000000000E+00 -0.52992980031E+03  0.52992980031E+03  0.00000000000E+00 0. -1.
          6    1    1    2  502    0  0.13086427270E+03 -0.27357533001E+03 -0.23352664754E+03  0.41962794732E+03  0.17200000000E+03 0. -1.
         -6    1    1    2    0  501 -0.13086427270E+03  0.27357533001E+03 -0.53916280878E+02  0.35278872488E+03  0.17200000000E+03 0.  1.
<mgrwt>
<rscale>  2 0.34864440E+03</rscale>
<asrwt>0</asrwt>
<pdfrwt beam="1">  1        1 0.13248245E+00 0.34864440E+03</pdfrwt>
<pdfrwt beam="2">  1       -1 0.60621718E-01 0.34864440E+03</pdfrwt>
<totfact> 0.58317416E+01</totfact>
</mgrwt>
</event>
<event>
 4    1  0.3757815E-001  0.1920058E+03  0.7546771E-02  0.1156665E+00
         -2   -1    0    0    0  501 -0.00000000000E+00  0.00000000000E+00  0.11545039167E+03  0.11545039167E+03  0.00000000000E+00 0.  1.
          2   -1    0    0  502    0  0.00000000000E+00 -0.00000000000E+00 -0.35337232571E+03  0.35337232571E+03  0.00000000000E+00 0. -1.
          6    1    1    2  502    0 -0.16844355652E+02 -0.83657106748E+02 -0.19172240327E+03  0.27133691924E+03  0.17200000000E+03 0. -1.
         -6    1    1    2    0  501  0.16844355652E+02  0.83657106748E+02 -0.46199530775E+02  0.19748579815E+03  0.17200000000E+03 0.  1.
<mgrwt>
<rscale>  2 0.19200584E+03</rscale>
<asrwt>0</asrwt>
<pdfrwt beam="1">  1        2 0.88343081E-01 0.19200584E+03</pdfrwt>
<pdfrwt beam="2">  1       -2 0.28862598E-01 0.19200584E+03</pdfrwt>
<totfact> 0.58695370E+02</totfact>
</mgrwt>
</event>
<event>
 4    1  0.3757815E-001  0.2362172E+03  0.7546771E-02  0.1122339E+00
         -2   -1    0    0    0  501 -0.00000000000E+00  0.00000000000E+00  0.39947682186E+02  0.39947682186E+02  0.00000000000E+00 0.  1.
          2   -1    0    0  502    0  0.00000000000E+00 -0.00000000000E+00 -0.14741453930E+04  0.14741453930E+04  0.00000000000E+00 0. -1.
          6    1    1    2  502    0 -0.15897471989E+03  0.30685946959E+02 -0.89051642096E+03  0.92131323930E+03  0.17200000000E+03 0. -1.
         -6    1    1    2    0  501  0.15897471989E+03 -0.30685946959E+02 -0.54368128990E+03  0.59277983593E+03  0.17200000000E+03 0. -1.
<mgrwt>
<rscale>  2 0.23621725E+03</rscale>
<asrwt>0</asrwt>
<pdfrwt beam="1">  1        2 0.36853632E+00 0.23621725E+03</pdfrwt>
<pdfrwt beam="2">  1       -2 0.99869213E-02 0.23621725E+03</pdfrwt>
<totfact> 0.30747663E+02</totfact>
</mgrwt>
</event>
<event>
 4    1  0.3757815E-001  0.1727638E+03  0.7546771E-02  0.1174996E+00
         -2   -1    0    0    0  501 -0.00000000000E+00  0.00000000000E+00  0.33105833468E+02  0.33105833468E+02  0.00000000000E+00 0. -1.
          2   -1    0    0  502    0  0.00000000000E+00 -0.00000000000E+00 -0.93984241987E+03  0.93984241987E+03  0.00000000000E+00 0.  1.
          6    1    1    2  502    0  0.86751095764E+01  0.13714223312E+02 -0.35520341459E+03  0.39498962415E+03  0.17200000000E+03 0. -1.
         -6    1    1    2    0  501 -0.86751095764E+01 -0.13714223312E+02 -0.55153317181E+03  0.57795862919E+03  0.17200000000E+03 0.  1.
<mgrwt>
<rscale>  2 0.17276382E+03</rscale>
<asrwt>0</asrwt>
<pdfrwt beam="1">  1        2 0.23496060E+00 0.17276382E+03</pdfrwt>
<pdfrwt beam="2">  1       -2 0.82764584E-02 0.17276382E+03</pdfrwt>
<totfact> 0.11927581E+03</totfact>
</mgrwt>
</event>
<event>
 4    1  0.3757815E-001  0.1812863E+03  0.7546771E-02  0.1166564E+00
         -1   -1    0    0    0  501 -0.00000000000E+00  0.00000000000E+00  0.55962007535E+02  0.55962007535E+02  0.00000000000E+00 0.  1.
          1   -1    0    0  502    0  0.00000000000E+00 -0.00000000000E+00 -0.84438148184E+03  0.84438148184E+03  0.00000000000E+00 0. -1.
          6    1    1    2  502    0  0.33842891481E+02 -0.46210276712E+02 -0.64262071434E+03  0.66770211432E+03  0.17200000000E+03 0. -1.
         -6    1    1    2    0  501 -0.33842891481E+02  0.46210276712E+02 -0.14579875997E+03  0.23264137505E+03  0.17200000000E+03 0.  1.
<mgrwt>
<rscale>  2 0.18128632E+03</rscale>
<asrwt>0</asrwt>
<pdfrwt beam="1">  1        1 0.21109536E+00 0.18128632E+03</pdfrwt>
<pdfrwt beam="2">  1       -1 0.13990502E-01 0.18128632E+03</pdfrwt>
<totfact> 0.31994369E+02</totfact>
</mgrwt>
</event>
<event>
 4    1  0.3757815E-001  0.1825195E+03  0.7546771E-02  0.1165387E+00
          1   -1    0    0  502    0  0.00000000000E+00  0.00000000000E+00  0.54430566429E+02  0.54430566429E+02  0.00000000000E+00 0. -1.
         -1   -1    0    0    0  501 -0.00000000000E+00 -0.00000000000E+00 -0.64882954200E+03  0.64882954200E+03  0.00000000000E+00 0.  1.
          6    1    1    2  502    0 -0.55487196055E+02 -0.25505970024E+02 -0.38093611187E+03  0.42240466944E+03  0.17200000000E+03 0. -1.
         -6    1    1    2    0  501  0.55487196055E+02  0.25505970024E+02 -0.21346286370E+03  0.28085543899E+03  0.17200000000E+03 0. -1.
<mgrwt>
<rscale>  2 0.18251954E+03</rscale>
<asrwt>0</asrwt>
<pdfrwt beam="1">  1        1 0.13607642E-01 0.18251954E+03</pdfrwt>
<pdfrwt beam="2">  1       -1 0.16220738E+00 0.18251954E+03</pdfrwt>
<totfact> 0.13190331E+02</totfact>
</mgrwt>
</event>
<event>
 4    1  0.3757815E-001  0.1734372E+03  0.7546771E-02  0.1174310E+00
         -1   -1    0    0    0  501 -0.00000000000E+00  0.00000000000E+00  0.43615187387E+02  0.43615187387E+02  0.00000000000E+00 0. -1.
          1   -1    0    0  502    0  0.00000000000E+00 -0.00000000000E+00 -0.73672493596E+03  0.73672493596E+03  0.00000000000E+00 0.  1.
          6    1    1    2  502    0  0.17776074853E+02 -0.13434224470E+02 -0.44515183805E+03  0.47774535701E+03  0.17200000000E+03 0.  1.
         -6    1    1    2    0  501 -0.17776074853E+02  0.13434224470E+02 -0.24795791052E+03  0.30259476634E+03  0.17200000000E+03 0.  1.
<mgrwt>
<rscale>  2 0.17343721E+03</rscale>
<asrwt>0</asrwt>
<pdfrwt beam="1">  1        1 0.18418123E+00 0.17343721E+03</pdfrwt>
<pdfrwt beam="2">  1       -1 0.10903797E-01 0.17343721E+03</pdfrwt>
<totfact> 0.62043789E+02</totfact>
</mgrwt>
</event>
<event>
 4    1  0.3757815E-001  0.2105533E+03  0.7546771E-02  0.1141129E+00
          1   -1    0    0  502    0  0.00000000000E+00  0.00000000000E+00  0.51080379225E+03  0.51080379225E+03  0.00000000000E+00 0. -1.
         -1   -1    0    0    0  501 -0.00000000000E+00 -0.00000000000E+00 -0.10037015809E+03  0.10037015809E+03  0.00000000000E+00 0.  1.
          6    1    1    2  502    0  0.10268470357E+03  0.64842359313E+02  0.31762148855E+03  0.38107228959E+03  0.17200000000E+03 0. -1.
         -6    1    1    2    0  501 -0.10268470357E+03 -0.64842359313E+02  0.92812145611E+02  0.23010166075E+03  0.17200000000E+03 0.  1.
<mgrwt>
<rscale>  2 0.21055327E+03</rscale>
<asrwt>0</asrwt>
<pdfrwt beam="1">  1        1 0.12770094E+00 0.21055327E+03</pdfrwt>
<pdfrwt beam="2">  1       -1 0.25092541E-01 0.21055327E+03</pdfrwt>
<totfact> 0.30579193E+02</totfact>
</mgrwt>
</event>
<event>
 4    1  0.3757815E-001  0.2005319E+03  0.7546771E-02  0.1149291E+00
          2   -1    0    0  502    0  0.00000000000E+00  0.00000000000E+00  0.46819653212E+03  0.46819653212E+03  0.00000000000E+00 0. -1.
         -2   -1    0    0    0  501 -0.00000000000E+00 -0.00000000000E+00 -0.92606862279E+02  0.92606862279E+02  0.00000000000E+00 0.  1.
          6    1    1    2  502    0 -0.59645135074E+02 -0.84092303954E+02  0.26331551944E+03  0.33098054399E+03  0.17200000000E+03 0.  1.
         -6    1    1    2    0  501  0.59645135074E+02  0.84092303954E+02  0.11227415040E+03  0.22982285041E+03  0.17200000000E+03 0.  1.
<mgrwt>
<rscale>  2 0.20053194E+03</rscale>
<asrwt>0</asrwt>
<pdfrwt beam="1">  1        2 0.11704913E+00 0.20053194E+03</pdfrwt>
<pdfrwt beam="2">  1       -2 0.23151717E-01 0.20053194E+03</pdfrwt>
<totfact> 0.62074055E+02</totfact>
</mgrwt>
</event>
<event>
 4    1  0.3757815E-001  0.2502690E+03  0.7546771E-02  0.1113135E+00
         -2   -1    0    0    0  501 -0.00000000000E+00  0.00000000000E+00  0.63107144949E+02  0.63107144949E+02  0.00000000000E+00 0. -1.
          2   -1    0    0  502    0  0.00000000000E+00 -0.00000000000E+00 -0.10033588229E+04  0.10033588229E+04  0.00000000000E+00 0.  1.
          6    1    1    2  502    0 -0.18099358763E+03  0.17085292573E+02 -0.41468316606E+03  0.48435184959E+03  0.17200000000E+03 0.  1.
         -6    1    1    2    0  501  0.18099358763E+03 -0.17085292573E+02 -0.52556851185E+03  0.58211411822E+03  0.17200000000E+03 0.  1.
<mgrwt>
<rscale>  2 0.25026903E+03</rscale>
<asrwt>0</asrwt>
<pdfrwt beam="1">  1        2 0.25083970E+00 0.25026903E+03</pdfrwt>
<pdfrwt beam="2">  1       -2 0.15776786E-01 0.25026903E+03</pdfrwt>
<totfact> 0.36896985E+02</totfact>
</mgrwt>
</event>
<event>
 4    1  0.3757815E-001  0.1971816E+03  0.7546771E-02  0.1152139E+00
         -2   -1    0    0    0  501 -0.00000000000E+00  0.00000000000E+00  0.35860878634E+02  0.35860878634E+02  0.00000000000E+00 0. -1.
          2   -1    0    0  502    0  0.00000000000E+00 -0.00000000000E+00 -0.10849925313E+04  0.10849925313E+04  0.00000000000E+00 0.  1.
          6    1    1    2  502    0 -0.24174386833E+02 -0.93339014099E+02 -0.53965686942E+03  0.57455209446E+03  0.17200000000E+03 0.  1.
         -6    1    1    2    0  501  0.24174386833E+02  0.93339014099E+02 -0.50947478328E+03  0.54630131551E+03  0.17200000000E+03 0. -1.
<mgrwt>
<rscale>  2 0.19718157E+03</rscale>
<asrwt>0</asrwt>
<pdfrwt beam="1">  1        2 0.27124814E+00 0.19718157E+03</pdfrwt>
<pdfrwt beam="2">  1       -2 0.89652194E-02 0.19718157E+03</pdfrwt>
<totfact> 0.79070914E+02</totfact>
</mgrwt>
</event>
<event>
 4    1  0.3757815E-001  0.1850876E+03  0.7546771E-02  0.1162968E+00
          2   -1    0    0  502    0  0.00000000000E+00  0.00000000000E+00  0.75919466528E+03  0.75919466528E+03  0.00000000000E+00 0. -1.
         -2   -1    0    0    0  501 -0.00000000000E+00 -0.00000000000E+00 -0.66814498216E+02  0.66814498216E+02  0.00000000000E+00 0.  1.
          6    1    1    2  502    0 -0.17013793822E+02 -0.66211293383E+02  0.11086901486E+03  0.21575296755E+03  0.17200000000E+03 0.  1.
         -6    1    1    2    0  501  0.17013793822E+02  0.66211293383E+02  0.58151115220E+03  0.61025619594E+03  0.17200000000E+03 0. -1.
<mgrwt>
<rscale>  2 0.18508756E+03</rscale>
<asrwt>0</asrwt>
<pdfrwt beam="1">  1        2 0.18979864E+00 0.18508756E+03</pdfrwt>
<pdfrwt beam="2">  1       -2 0.16703627E-01 0.18508756E+03</pdfrwt>
<totfact> 0.55451621E+02</totfact>
</mgrwt>
</event>
<event>
 4    1  0.3757815E-001  0.2825946E+03  0.7546771E-02  0.1094280E+00
          2   -1    0    0  502    0  0.00000000000E+00  0.00000000000E+00  0.12584754479E+04  0.12584754479E+04  0.00000000000E+00 0. -1.
         -2   -1    0    0    0  501 -0.00000000000E+00 -0.00000000000E+00 -0.82237346664E+02  0.82237346664E+02  0.00000000000E+00 0.  1.
          6    1    1    2  502    0  0.59058672818E+02 -0.21630480396E+03  0.90846359526E+03  0.95140201753E+03  0.17200000000E+03 0. -1.
         -6    1    1    2    0  501 -0.59058672818E+02  0.21630480396E+03  0.26777450593E+03  0.38931077698E+03  0.17200000000E+03 0.  1.
<mgrwt>
<rscale>  2 0.28259458E+03</rscale>
<asrwt>0</asrwt>
<pdfrwt beam="1">  1        2 0.31461880E+00 0.28259458E+03</pdfrwt>
<pdfrwt beam="2">  1       -2 0.20559341E-01 0.28259458E+03</pdfrwt>
<totfact> 0.14153974E+02</totfact>
</mgrwt>
</event>
<event>
 4    1  0.3757815E-001  0.2241983E+03  0.7546771E-02  0.1130791E+00
          2   -1    0    0  502    0  0.00000000000E+00  0.00000000000E+00  0.50653074437E+03  0.50653074437E+03  0.00000000000E+00 0.  1.
         -2   -1    0    0    0  501 -0.00000000000E+00 -0.00000000000E+00 -0.10103239149E+03  0.10103239149E+03  0.00000000000E+00 0. -1.
          6    1    1    2  502    0  0.11894997245E+03 -0.80819337114E+02  0.16221480529E+03  0.27672821369E+03  0.17200000000E+03 0.  1.
         -6    1    1    2    0  501 -0.11894997245E+03  0.80819337114E+02  0.24328354760E+03  0.33083492217E+03  0.17200000000E+03 0. -1.
<mgrwt>
<rscale>  2 0.22419826E+03</rscale>
<asrwt>0</asrwt>
<pdfrwt beam="1">  1        2 0.12663268E+00 0.22419826E+03</pdfrwt>
<pdfrwt beam="2">  1       -2 0.25258099E-01 0.22419826E+03</pdfrwt>
<totfact> 0.48168651E+02</totfact>
</mgrwt>
</event>
<event>
 4    1  0.3757815E-001  0.2251683E+03  0.7546771E-02  0.1130087E+00
          1   -1    0    0  502    0  0.00000000000E+00  0.00000000000E+00  0.43481423508E+03  0.43481423508E+03  0.00000000000E+00 0.  1.
         -1   -1    0    0    0  501 -0.00000000000E+00 -0.00000000000E+00 -0.11680991400E+03  0.11680991400E+03  0.00000000000E+00 0. -1.
          6    1    1    2  502    0 -0.11909196475E+03  0.83269867096E+02  0.14740177816E+03  0.26912460133E+03  0.17200000000E+03 0. -1.
         -6    1    1    2    0  501  0.11909196475E+03 -0.83269867096E+02  0.17060254291E+03  0.28249954776E+03  0.17200000000E+03 0.  1.
<mgrwt>
<rscale>  2 0.22516831E+03</rscale>
<asrwt>0</asrwt>
<pdfrwt beam="1">  1        1 0.10870355E+00 0.22516831E+03</pdfrwt>
<pdfrwt beam="2">  1       -1 0.29202480E-01 0.22516831E+03</pdfrwt>
<totfact> 0.30159779E+02</totfact>
</mgrwt>
</event>
<event>
 4    1  0.3757815E-001  0.2020683E+03  0.7546771E-02  0.1148006E+00
         -2   -1    0    0    0  501 -0.00000000000E+00  0.00000000000E+00  0.49964151254E+02  0.49964151254E+02  0.00000000000E+00 0.  1.
          2   -1    0    0  502    0  0.00000000000E+00 -0.00000000000E+00 -0.11035840820E+04  0.11035840820E+04  0.00000000000E+00 0. -1.
          6    1    1    2  502    0 -0.10584578471E+03 -0.66523442368E+01 -0.82061831940E+03  0.84513076501E+03  0.17200000000E+03 0. -1.
         -6    1    1    2    0  501  0.10584578471E+03  0.66523442368E+01 -0.23300161130E+03  0.30841746821E+03  0.17200000000E+03 0.  1.
<mgrwt>
<rscale>  2 0.20206827E+03</rscale>
<asrwt>0</asrwt>
<pdfrwt beam="1">  1        2 0.27589601E+00 0.20206827E+03</pdfrwt>
<pdfrwt beam="2">  1       -2 0.12491038E-01 0.20206827E+03</pdfrwt>
<totfact> 0.44914631E+02</totfact>
</mgrwt>
</event>
<event>
 4    1  0.3757815E-001  0.2197552E+03  0.7546771E-02  0.1134066E+00
          1   -1    0    0  502    0  0.00000000000E+00  0.00000000000E+00  0.20454320054E+04  0.20454320054E+04  0.00000000000E+00 0. -1.
         -1   -1    0    0    0  501 -0.00000000000E+00 -0.00000000000E+00 -0.24119958605E+02  0.24119958605E+02  0.00000000000E+00 0.  1.
          6    1    1    2  502    0  0.31924933329E+02  0.13300051925E+03  0.86017210836E+03  0.88779974965E+03  0.17200000000E+03 0.  1.
         -6    1    1    2    0  501 -0.31924933329E+02 -0.13300051925E+03  0.11611399384E+04  0.11817522143E+04  0.17200000000E+03 0.  1.
<mgrwt>
<rscale>  2 0.21975518E+03</rscale>
<asrwt>0</asrwt>
<pdfrwt beam="1">  1        1 0.51135741E+00 0.21975518E+03</pdfrwt>
<pdfrwt beam="2">  1       -1 0.60299966E-02 0.21975518E+03</pdfrwt>
<totfact> 0.57453492E+01</totfact>
</mgrwt>
</event>
<event>
 4    1  0.3757815E-001  0.1726033E+03  0.7546771E-02  0.1175160E+00
          2   -1    0    0  502    0  0.00000000000E+00  0.00000000000E+00  0.29695786877E+04  0.29695786877E+04  0.00000000000E+00 0.  1.
         -2   -1    0    0    0  501 -0.00000000000E+00 -0.00000000000E+00 -0.10069199360E+02  0.10069199360E+02  0.00000000000E+00 0. -1.
          6    1    1    2  502    0 -0.76485672120E+01  0.12222539938E+02  0.15698654537E+04  0.15793256263E+04  0.17200000000E+03 0.  1.
         -6    1    1    2    0  501  0.76485672120E+01 -0.12222539938E+02  0.13896440346E+04  0.14003222607E+04  0.17200000000E+03 0. -1.
<mgrwt>
<rscale>  2 0.17260328E+03</rscale>
<asrwt>0</asrwt>
<pdfrwt beam="1">  1        2 0.74239167E+00 0.17260328E+03</pdfrwt>
<pdfrwt beam="2">  1       -2 0.25173100E-02 0.17260328E+03</pdfrwt>
<totfact> 0.47066376E+01</totfact>
</mgrwt>
</event>
<event>
 4    1  0.3757815E-001  0.3058226E+03  0.7546771E-02  0.1082366E+00
          2   -1    0    0  502    0  0.00000000000E+00  0.00000000000E+00  0.37363689788E+03  0.37363689788E+03  0.00000000000E+00 0.  1.
         -2   -1    0    0    0  501 -0.00000000000E+00 -0.00000000000E+00 -0.25514228311E+03  0.25514228311E+03  0.00000000000E+00 0. -1.
          6    1    1    2  502    0  0.16770945715E+03 -0.18925384795E+03  0.10248482846E+03  0.32253778236E+03  0.17200000000E+03 0.  1.
         -6    1    1    2    0  501 -0.16770945715E+03  0.18925384795E+03  0.16009786314E+02  0.30624139864E+03  0.17200000000E+03 0. -1.
<mgrwt>
<rscale>  2 0.30582263E+03</rscale>
<asrwt>0</asrwt>
<pdfrwt beam="1">  1        2 0.93409224E-01 0.30582263E+03</pdfrwt>
<pdfrwt beam="2">  1       -2 0.63785571E-01 0.30582263E+03</pdfrwt>
<totfact> 0.11652327E+02</totfact>
</mgrwt>
</event>
<event>
 4    1  0.3757815E-001  0.1819749E+03  0.7546771E-02  0.1165905E+00
          1   -1    0    0  502    0  0.00000000000E+00  0.00000000000E+00  0.62434059372E+03  0.62434059372E+03  0.00000000000E+00 0.  1.
         -1   -1    0    0    0  501 -0.00000000000E+00 -0.00000000000E+00 -0.63313333068E+02  0.63313333068E+02  0.00000000000E+00 0. -1.
          6    1    1    2  502    0 -0.54301588966E+02 -0.24128978851E+02  0.14201251472E+03  0.23082986055E+03  0.17200000000E+03 0. -1.
         -6    1    1    2    0  501  0.54301588966E+02  0.24128978851E+02  0.41901474594E+03  0.45682406624E+03  0.17200000000E+03 0.  1.
<mgrwt>
<rscale>  2 0.18197492E+03</rscale>
<asrwt>0</asrwt>
<pdfrwt beam="1">  1        1 0.15608513E+00 0.18197492E+03</pdfrwt>
<pdfrwt beam="2">  1       -1 0.15828335E-01 0.18197492E+03</pdfrwt>
<totfact> 0.46680254E+02</totfact>
</mgrwt>
</event>
<event>
 4    1  0.3757815E-001  0.2036102E+03  0.7546771E-02  0.1146728E+00
          2   -1    0    0  502    0  0.00000000000E+00  0.00000000000E+00  0.20701334784E+03  0.20701334784E+03  0.00000000000E+00 0. -1.
         -2   -1    0    0    0  501 -0.00000000000E+00 -0.00000000000E+00 -0.21993073009E+03  0.21993073009E+03  0.00000000000E+00 0.  1.
          6    1    1    2  502    0  0.10661420663E+03  0.22506321123E+02  0.57378630186E+02  0.21154061253E+03  0.17200000000E+03 0.  1.
         -6    1    1    2    0  501 -0.10661420663E+03 -0.22506321123E+02 -0.70296012429E+02  0.21540346541E+03  0.17200000000E+03 0. -1.
<mgrwt>
<rscale>  2 0.20361022E+03</rscale>
<asrwt>0</asrwt>
<pdfrwt beam="1">  1        2 0.51753337E-01 0.20361022E+03</pdfrwt>
<pdfrwt beam="2">  1       -2 0.54982682E-01 0.20361022E+03</pdfrwt>
<totfact> 0.30854092E+02</totfact>
</mgrwt>
</event>
<event>
 4    1  0.3757815E-001  0.2009310E+03  0.7546771E-02  0.1148956E+00
          2   -1    0    0  502    0  0.00000000000E+00  0.00000000000E+00  0.36079363556E+03  0.36079363556E+03  0.00000000000E+00 0.  1.
         -2   -1    0    0    0  501 -0.00000000000E+00 -0.00000000000E+00 -0.16988723089E+03  0.16988723089E+03  0.00000000000E+00 0. -1.
          6    1    1    2  502    0  0.58198807803E+02  0.86035820220E+02 -0.59565650804E+02  0.20957416431E+03  0.17200000000E+03 0. -1.
         -6    1    1    2    0  501 -0.58198807803E+02 -0.86035820220E+02  0.25047205547E+03  0.32110670214E+03  0.17200000000E+03 0.  1.
<mgrwt>
<rscale>  2 0.20093099E+03</rscale>
<asrwt>0</asrwt>
<pdfrwt beam="1">  1        2 0.90198408E-01 0.20093099E+03</pdfrwt>
<pdfrwt beam="2">  1       -2 0.42471808E-01 0.20093099E+03</pdfrwt>
<totfact> 0.27905803E+02</totfact>
</mgrwt>
</event>
<event>
 4    1  0.3757815E-001  0.2618458E+03  0.7546771E-02  0.1106039E+00
          2   -1    0    0  502    0  0.00000000000E+00  0.00000000000E+00  0.20482670177E+03  0.20482670177E+03  0.00000000000E+00 0. -1.
         -2   -1    0    0    0  501 -0.00000000000E+00 -0.00000000000E+00 -0.35270780380E+03  0.35270780380E+03  0.00000000000E+00 0.  1.
          6    1    1    2  502    0 -0.60073783844E+02 -0.18807009560E+03 -0.13686355327E+03  0.29545702323E+03  0.17200000000E+03 0. -1.
         -6    1    1    2    0  501  0.60073783844E+02  0.18807009560E+03 -0.11017548759E+02  0.26207748233E+03  0.17200000000E+03 0. -1.
<mgrwt>
<rscale>  2 0.26184580E+03</rscale>
<asrwt>0</asrwt>
<pdfrwt beam="1">  1        2 0.51206676E-01 0.26184580E+03</pdfrwt>
<pdfrwt beam="2">  1       -2 0.88176950E-01 0.26184580E+03</pdfrwt>
<totfact> 0.11293560E+02</totfact>
</mgrwt>
</event>
<event>
 4    1  0.3757815E-001  0.2101942E+03  0.7546771E-02  0.1141412E+00
          2   -1    0    0  502    0  0.00000000000E+00  0.00000000000E+00  0.12602799049E+03  0.12602799049E+03  0.00000000000E+00 0. -1.
         -2   -1    0    0    0  501 -0.00000000000E+00 -0.00000000000E+00 -0.36383501189E+03  0.36383501189E+03  0.00000000000E+00 0.  1.
          6    1    1    2  502    0 -0.88785284616E+02 -0.81943835613E+02 -0.72135596987E+02  0.22222772849E+03  0.17200000000E+03 0. -1.
         -6    1    1    2    0  501  0.88785284616E+02  0.81943835613E+02 -0.16567142441E+03  0.26763527388E+03  0.17200000000E+03 0.  1.
<mgrwt>
<rscale>  2 0.21019424E+03</rscale>
<asrwt>0</asrwt>
<pdfrwt beam="1">  1        2 0.31506998E-01 0.21019424E+03</pdfrwt>
<pdfrwt beam="2">  1       -2 0.90958752E-01 0.21019424E+03</pdfrwt>
<totfact> 0.17890367E+02</totfact>
</mgrwt>
</event>
<event>
 4    1  0.3757815E-001  0.1725483E+03  0.7546771E-02  0.1175216E+00
          1   -1    0    0  502    0  0.00000000000E+00  0.00000000000E+00  0.39787742965E+02  0.39787742965E+02  0.00000000000E+00 0.  1.
         -1   -1    0    0    0  501 -0.00000000000E+00 -0.00000000000E+00 -0.74890330976E+03  0.74890330976E+03  0.00000000000E+00 0. -1.
          6    1    1    2  502    0 -0.27812804097E+01 -0.13460519733E+02 -0.34330767409E+03  0.38423050399E+03  0.17200000000E+03 0. -1.
         -6    1    1    2    0  501  0.27812804097E+01  0.13460519733E+02 -0.36580789271E+03  0.40446054873E+03  0.17200000000E+03 0.  1.
<mgrwt>
<rscale>  2 0.17254832E+03</rscale>
<asrwt>0</asrwt>
<pdfrwt beam="1">  1        1 0.99469359E-02 0.17254832E+03</pdfrwt>
<pdfrwt beam="2">  1       -1 0.18722582E+00 0.17254832E+03</pdfrwt>
<totfact> 0.13358718E+02</totfact>
</mgrwt>
</event>
<event>
 4    1  0.3757815E-001  0.3229557E+03  0.7546771E-02  0.1074297E+00
         -2   -1    0    0    0  501 -0.00000000000E+00  0.00000000000E+00  0.41251639826E+03  0.41251639826E+03  0.00000000000E+00 0. -1.
          2   -1    0    0  502    0  0.00000000000E+00 -0.00000000000E+00 -0.39000704603E+03  0.39000704603E+03  0.00000000000E+00 0.  1.
          6    1    1    2  502    0  0.22686382235E+03  0.15247676606E+03  0.24922209746E+03  0.40793628417E+03  0.17200000000E+03 0. -1.
         -6    1    1    2    0  501 -0.22686382235E+03 -0.15247676606E+03 -0.22671274523E+03  0.39458716012E+03  0.17200000000E+03 0. -1.
<mgrwt>
<rscale>  2 0.32295566E+03</rscale>
<asrwt>0</asrwt>
<pdfrwt beam="1">  1        2 0.97501762E-01 0.32295566E+03</pdfrwt>
<pdfrwt beam="2">  1       -2 0.10312910E+00 0.32295566E+03</pdfrwt>
<totfact> 0.37881948E+01</totfact>
</mgrwt>
</event>
<event>
 4    1  0.3757815E-001  0.6277692E+03  0.7546771E-02  0.9849412E-01
          2   -1    0    0  502    0  0.00000000000E+00  0.00000000000E+00  0.36140053127E+03  0.36140053127E+03  0.00000000000E+00 0.  1.
         -2   -1    0    0    0  501 -0.00000000000E+00 -0.00000000000E+00 -0.12345411845E+04  0.12345411845E+04  0.00000000000E+00 0. -1.
          6    1    1    2  502    0  0.39257276242E+03 -0.45869035579E+03 -0.16396642594E+03  0.64882910317E+03  0.17200000000E+03 0. -1.
         -6    1    1    2    0  501 -0.39257276242E+03  0.45869035579E+03 -0.70917422729E+03  0.94711261259E+03  0.17200000000E+03 0.  1.
<mgrwt>
<rscale>  2 0.62776924E+03</rscale>
<asrwt>0</asrwt>
<pdfrwt beam="1">  1        2 0.90350133E-01 0.62776924E+03</pdfrwt>
<pdfrwt beam="2">  1       -2 0.30863529E+00 0.62776924E+03</pdfrwt>
<totfact> 0.15296362E+00</totfact>
</mgrwt>
</event>
<event>
 4    1  0.3757815E-001  0.1972398E+03  0.7546771E-02  0.1152089E+00
          2   -1    0    0  502    0  0.00000000000E+00  0.00000000000E+00  0.39901233397E+03  0.39901233397E+03  0.00000000000E+00 0. -1.
         -2   -1    0    0    0  501 -0.00000000000E+00 -0.00000000000E+00 -0.11929577415E+03  0.11929577415E+03  0.00000000000E+00 0.  1.
          6    1    1    2  502    0  0.96247092526E+02  0.74852402935E+01  0.25063178411E+03  0.31893545248E+03  0.17200000000E+03 0. -1.
         -6    1    1    2    0  501 -0.96247092526E+02 -0.74852402935E+01  0.29084775715E+02  0.19937265565E+03  0.17200000000E+03 0.  1.
<mgrwt>
<rscale>  2 0.19723978E+03</rscale>
<asrwt>0</asrwt>
<pdfrwt beam="1">  1        2 0.99753080E-01 0.19723978E+03</pdfrwt>
<pdfrwt beam="2">  1       -2 0.29823944E-01 0.19723978E+03</pdfrwt>
<totfact> 0.48047440E+02</totfact>
</mgrwt>
</event>
<event>
 4    1  0.3757815E-001  0.2076612E+03  0.7546771E-02  0.1143432E+00
         -2   -1    0    0    0  501 -0.00000000000E+00  0.00000000000E+00  0.33976680722E+02  0.33976680722E+02  0.00000000000E+00 0. -1.
          2   -1    0    0  502    0  0.00000000000E+00 -0.00000000000E+00 -0.12958948804E+04  0.12958948804E+04  0.00000000000E+00 0.  1.
          6    1    1    2  502    0 -0.97865262669E+02 -0.62940804668E+02 -0.72639690690E+03  0.75549693638E+03  0.17200000000E+03 0.  1.
         -6    1    1    2    0  501  0.97865262669E+02  0.62940804668E+02 -0.53552129281E+03  0.57437462477E+03  0.17200000000E+03 0. -1.
<mgrwt>
<rscale>  2 0.20766115E+03</rscale>
<asrwt>0</asrwt>
<pdfrwt beam="1">  1        2 0.32397371E+00 0.20766115E+03</pdfrwt>
<pdfrwt beam="2">  1       -2 0.84941704E-02 0.20766115E+03</pdfrwt>
<totfact> 0.56969751E+02</totfact>
</mgrwt>
</event>
<event>
 4    1  0.3757815E-001  0.3629739E+03  0.7546771E-02  0.1057413E+00
          2   -1    0    0  502    0  0.00000000000E+00  0.00000000000E+00  0.21347947349E+03  0.21347947349E+03  0.00000000000E+00 0.  1.
         -2   -1    0    0    0  501 -0.00000000000E+00 -0.00000000000E+00 -0.61772883380E+03  0.61772883380E+03  0.00000000000E+00 0. -1.
          6    1    1    2  502    0  0.25785076634E+03 -0.18888889407E+03 -0.18946323467E+03  0.40944639368E+03  0.17200000000E+03 0.  1.
         -6    1    1    2    0  501 -0.25785076634E+03  0.18888889407E+03 -0.21478612564E+03  0.42176191361E+03  0.17200000000E+03 0. -1.
<mgrwt>
<rscale>  2 0.36297387E+03</rscale>
<asrwt>0</asrwt>
<pdfrwt beam="1">  1        2 0.53369869E-01 0.36297387E+03</pdfrwt>
<pdfrwt beam="2">  1       -2 0.15443221E+00 0.36297387E+03</pdfrwt>
<totfact> 0.27286529E+01</totfact>
</mgrwt>
</event>
<event>
 4    1  0.3757815E-001  0.1928080E+03  0.7546771E-02  0.1155953E+00
         -2   -1    0    0    0  501 -0.00000000000E+00  0.00000000000E+00  0.43312546681E+03  0.43312546681E+03  0.00000000000E+00 0. -1.
          2   -1    0    0  502    0  0.00000000000E+00 -0.00000000000E+00 -0.86031134751E+02  0.86031134751E+02  0.00000000000E+00 0.  1.
          6    1    1    2  502    0 -0.21528502955E+01 -0.87099308602E+02  0.18611521396E+03  0.26798096423E+03  0.17200000000E+03 0. -1.
         -6    1    1    2    0  501  0.21528502955E+01  0.87099308602E+02  0.16097911810E+03  0.25117563733E+03  0.17200000000E+03 0. -1.
<mgrwt>
<rscale>  2 0.19280800E+03</rscale>
<asrwt>0</asrwt>
<pdfrwt beam="1">  1        2 0.21507785E-01 0.19280800E+03</pdfrwt>
<pdfrwt beam="2">  1       -2 0.10828136E+00 0.19280800E+03</pdfrwt>
<totfact> 0.18279076E+02</totfact>
</mgrwt>
</event>
<event>
 4    1  0.3757815E-001  0.2160899E+03  0.7546771E-02  0.1136832E+00
          2   -1    0    0  502    0  0.00000000000E+00  0.00000000000E+00  0.41212066576E+03  0.41212066576E+03  0.00000000000E+00 0. -1.
         -2   -1    0    0    0  501 -0.00000000000E+00 -0.00000000000E+00 -0.14519413870E+03  0.14519413870E+03  0.00000000000E+00 0.  1.
          6    1    1    2  502    0  0.42041135776E+02 -0.12386849693E+03  0.26405786029E+03  0.34120582529E+03  0.17200000000E+03 0. -1.
         -6    1    1    2    0  501 -0.42041135776E+02  0.12386849693E+03  0.28686667654E+01  0.21610897917E+03  0.17200000000E+03 0.  1.
<mgrwt>
<rscale>  2 0.21608994E+03</rscale>
<asrwt>0</asrwt>
<pdfrwt beam="1">  1        2 0.10303016E+00 0.21608994E+03</pdfrwt>
<pdfrwt beam="2">  1       -2 0.36298536E-01 0.21608994E+03</pdfrwt>
<totfact> 0.32149493E+02</totfact>
</mgrwt>
</event>
<event>
 4    1  0.3757815E-001  0.2016879E+03  0.7546771E-02  0.1148323E+00
         -2   -1    0    0    0  501 -0.00000000000E+00  0.00000000000E+00  0.71104040705E+03  0.71104040705E+03  0.00000000000E+00 0. -1.
          2   -1    0    0  502    0  0.00000000000E+00 -0.00000000000E+00 -0.60520142726E+02  0.60520142726E+02  0.00000000000E+00 0.  1.
          6    1    1    2  502    0 -0.95713682154E+01 -0.10489237034E+03  0.23502641052E+03  0.30970216997E+03  0.17200000000E+03 0.  1.
         -6    1    1    2    0  501  0.95713682154E+01  0.10489237034E+03  0.41549385380E+03  0.46185837980E+03  0.17200000000E+03 0. -1.
<mgrwt>
<rscale>  2 0.20168793E+03</rscale>
<asrwt>0</asrwt>
<pdfrwt beam="1">  1        2 0.15130038E-01 0.20168793E+03</pdfrwt>
<pdfrwt beam="2">  1       -2 0.17776008E+00 0.20168793E+03</pdfrwt>
<totfact> 0.78416634E+01</totfact>
</mgrwt>
</event>
<event>
 4    1  0.3757815E-001  0.1844153E+03  0.7546771E-02  0.1163597E+00
          2   -1    0    0  502    0  0.00000000000E+00  0.00000000000E+00  0.88214221133E+03  0.88214221133E+03  0.00000000000E+00 0. -1.
         -2   -1    0    0    0  501 -0.00000000000E+00 -0.00000000000E+00 -0.66526412746E+02  0.66526412746E+02  0.00000000000E+00 0.  1.
          6    1    1    2  502    0 -0.14822422940E+01 -0.66504275469E+02  0.10022506870E+03  0.20989063841E+03  0.17200000000E+03 0.  1.
         -6    1    1    2    0  501  0.14822422940E+01  0.66504275469E+02  0.71539072989E+03  0.73877798567E+03  0.17200000000E+03 0. -1.
<mgrwt>
<rscale>  2 0.18441533E+03</rscale>
<asrwt>0</asrwt>
<pdfrwt beam="1">  1        2 0.22053552E+00 0.18441533E+03</pdfrwt>
<pdfrwt beam="2">  1       -2 0.16631606E-01 0.18441533E+03</pdfrwt>
<totfact> 0.43509139E+02</totfact>
</mgrwt>
</event>
<event>
 4    1  0.3757815E-001  0.1809842E+03  0.7546771E-02  0.1166854E+00
         -1   -1    0    0    0  501 -0.00000000000E+00  0.00000000000E+00  0.94094355567E+02  0.94094355567E+02  0.00000000000E+00 0. -1.
          1   -1    0    0  502    0  0.00000000000E+00 -0.00000000000E+00 -0.39355417524E+03  0.39355417524E+03  0.00000000000E+00 0.  1.
          6    1    1    2  502    0 -0.46481234467E+02 -0.31792429609E+02 -0.66876605520E+02  0.19294492505E+03  0.17200000000E+03 0. -1.
         -6    1    1    2    0  501  0.46481234467E+02  0.31792429609E+02 -0.23258321415E+03  0.29470360575E+03  0.17200000000E+03 0.  1.
<mgrwt>
<rscale>  2 0.18098415E+03</rscale>
<asrwt>0</asrwt>
<pdfrwt beam="1">  1        1 0.98388543E-01 0.18098415E+03</pdfrwt>
<pdfrwt beam="2">  1       -1 0.23523589E-01 0.18098415E+03</pdfrwt>
<totfact> 0.50123755E+02</totfact>
</mgrwt>
</event>
<event>
 4    1  0.3757815E-001  0.2410596E+03  0.7546771E-02  0.1119089E+00
         -2   -1    0    0    0  501 -0.00000000000E+00  0.00000000000E+00  0.44242335762E+03  0.44242335762E+03  0.00000000000E+00 0. -1.
          2   -1    0    0  502    0  0.00000000000E+00 -0.00000000000E+00 -0.13260676375E+03  0.13260676375E+03  0.00000000000E+00 0.  1.
          6    1    1    2  502    0 -0.40357526702E+02 -0.16400309122E+03  0.18296287038E+03  0.30263039475E+03  0.17200000000E+03 0. -1.
         -6    1    1    2    0  501  0.40357526702E+02  0.16400309122E+03  0.12685372349E+03  0.27239972661E+03  0.17200000000E+03 0.  1.
<mgrwt>
<rscale>  2 0.24105963E+03</rscale>
<asrwt>0</asrwt>
<pdfrwt beam="1">  1        2 0.33151692E-01 0.24105963E+03</pdfrwt>
<pdfrwt beam="2">  1       -2 0.11060584E+00 0.24105963E+03</pdfrwt>
<totfact> 0.10714836E+02</totfact>
</mgrwt>
</event>
<event>
 4    1  0.3757815E-001  0.1885584E+03  0.7546771E-02  0.1159768E+00
          2   -1    0    0  502    0  0.00000000000E+00  0.00000000000E+00  0.70447504697E+03  0.70447504697E+03  0.00000000000E+00 0.  1.
         -2   -1    0    0    0  501 -0.00000000000E+00 -0.00000000000E+00 -0.82934036673E+02  0.82934036673E+02  0.00000000000E+00 0. -1.
          6    1    1    2  502    0 -0.77098138814E+02  0.51148369158E+01  0.64444249771E+02  0.19926702159E+03  0.17200000000E+03 0. -1.
         -6    1    1    2    0  501  0.77098138814E+02 -0.51148369158E+01  0.55709676052E+03  0.58814206205E+03  0.17200000000E+03 0.  1.
<mgrwt>
<rscale>  2 0.18855844E+03</rscale>
<asrwt>0</asrwt>
<pdfrwt beam="1">  1        2 0.17611874E+00 0.18855844E+03</pdfrwt>
<pdfrwt beam="2">  1       -2 0.20733511E-01 0.18855844E+03</pdfrwt>
<totfact> 0.43181257E+02</totfact>
</mgrwt>
</event>
<event>
 4    1  0.3757815E-001  0.2117042E+03  0.7546771E-02  0.1140224E+00
         -2   -1    0    0    0  501 -0.00000000000E+00  0.00000000000E+00  0.35856788313E+03  0.35856788313E+03  0.00000000000E+00 0. -1.
          2   -1    0    0  502    0  0.00000000000E+00 -0.00000000000E+00 -0.13640950177E+03  0.13640950177E+03  0.00000000000E+00 0.  1.
          6    1    1    2  502    0  0.12297358466E+03  0.10590448860E+02  0.39483023187E+02  0.21535451992E+03  0.17200000000E+03 0.  1.
         -6    1    1    2    0  501 -0.12297358466E+03 -0.10590448860E+02  0.18267535817E+03  0.27962286497E+03  0.17200000000E+03 0. -1.
<mgrwt>
<rscale>  2 0.21170418E+03</rscale>
<asrwt>0</asrwt>
<pdfrwt beam="1">  1        2 0.34102376E-01 0.21170418E+03</pdfrwt>
<pdfrwt beam="2">  1       -2 0.89641969E-01 0.21170418E+03</pdfrwt>
<totfact> 0.16960860E+02</totfact>
</mgrwt>
</event>
<event>
 4    1  0.3757815E-001  0.2520628E+03  0.7546771E-02  0.1112008E+00
         -1   -1    0    0    0  501 -0.00000000000E+00  0.00000000000E+00  0.10948111167E+03  0.10948111167E+03  0.00000000000E+00 0.  1.
          1   -1    0    0  502    0  0.00000000000E+00 -0.00000000000E+00 -0.14016869851E+04  0.14016869851E+04  0.00000000000E+00 0. -1.
          6    1    1    2  502    0 -0.17975443952E+03  0.40496943788E+02 -0.12244946480E+04  0.12501691101E+04  0.17200000000E+03 0. -1.
         -6    1    1    2    0  501  0.17975443952E+03 -0.40496943788E+02 -0.67711225476E+02  0.26099898666E+03  0.17200000000E+03 0.  1.
<mgrwt>
<rscale>  2 0.25206281E+03</rscale>
<asrwt>0</asrwt>
<pdfrwt beam="1">  1        1 0.35042174E+00 0.25206281E+03</pdfrwt>
<pdfrwt beam="2">  1       -1 0.27370278E-01 0.25206281E+03</pdfrwt>
<totfact> 0.27058992E+01</totfact>
</mgrwt>
</event>
<event>
 4    1  0.3757815E-001  0.1944758E+03  0.7546771E-02  0.1154485E+00
         -2   -1    0    0    0  501 -0.00000000000E+00  0.00000000000E+00  0.52207535716E+03  0.52207535716E+03  0.00000000000E+00 0. -1.
          2   -1    0    0  502    0  0.00000000000E+00 -0.00000000000E+00 -0.93187458038E+02  0.93187458038E+02  0.00000000000E+00 0.  1.
          6    1    1    2  502    0  0.72225166634E+02  0.54957937830E+02  0.69299614955E+02  0.20645407784E+03  0.17200000000E+03 0.  1.
         -6    1    1    2    0  501 -0.72225166634E+02 -0.54957937830E+02  0.35958828417E+03  0.40880873735E+03  0.17200000000E+03 0. -1.
<mgrwt>
<rscale>  2 0.19447583E+03</rscale>
<asrwt>0</asrwt>
<pdfrwt beam="1">  1        2 0.23296866E-01 0.19447583E+03</pdfrwt>
<pdfrwt beam="2">  1       -2 0.13051883E+00 0.19447583E+03</pdfrwt>
<totfact> 0.10640907E+02</totfact>
</mgrwt>
</event>
<event>
 4    1  0.3757815E-001  0.1744383E+03  0.7546771E-02  0.1173297E+00
         -2   -1    0    0    0  501 -0.00000000000E+00  0.00000000000E+00  0.37460508844E+02  0.37460508844E+02  0.00000000000E+00 0. -1.
          2   -1    0    0  502    0  0.00000000000E+00 -0.00000000000E+00 -0.82921279155E+03  0.82921279155E+03  0.00000000000E+00 0.  1.
          6    1    1    2  502    0 -0.12328612725E+02 -0.26319997876E+02 -0.45778444344E+03  0.48989318594E+03  0.17200000000E+03 0.  1.
         -6    1    1    2    0  501  0.12328612725E+02  0.26319997876E+02 -0.33396783927E+03  0.37678011445E+03  0.17200000000E+03 0. -1.
<mgrwt>
<rscale>  2 0.17443835E+03</rscale>
<asrwt>0</asrwt>
<pdfrwt beam="1">  1        2 0.20730319E+00 0.17443835E+03</pdfrwt>
<pdfrwt beam="2">  1       -2 0.93651274E-02 0.17443835E+03</pdfrwt>
<totfact> 0.12248233E+03</totfact>
</mgrwt>
</event>
<event>
 4    1  0.3757815E-001  0.1892696E+03  0.7546771E-02  0.1159122E+00
          2   -1    0    0  502    0  0.00000000000E+00  0.00000000000E+00  0.19476470957E+03  0.19476470957E+03  0.00000000000E+00 0. -1.
         -2   -1    0    0    0  501 -0.00000000000E+00 -0.00000000000E+00 -0.18399104202E+03  0.18399104202E+03  0.00000000000E+00 0.  1.
          6    1    1    2  502    0  0.64645364678E+02 -0.45386970580E+02  0.19268805302E+01  0.18927945779E+03  0.17200000000E+03 0.  1.
         -6    1    1    2    0  501 -0.64645364678E+02  0.45386970580E+02  0.88467870198E+01  0.18947629380E+03  0.17200000000E+03 0.  1.
<mgrwt>
<rscale>  2 0.18926965E+03</rscale>
<asrwt>0</asrwt>
<pdfrwt beam="1">  1        2 0.48691177E-01 0.18926965E+03</pdfrwt>
<pdfrwt beam="2">  1       -2 0.45997761E-01 0.18926965E+03</pdfrwt>
<totfact> 0.47029487E+02</totfact>
</mgrwt>
</event>
<event>
 4    1  0.3757815E-001  0.1861530E+03  0.7546771E-02  0.1161978E+00
         -2   -1    0    0    0  501 -0.00000000000E+00  0.00000000000E+00  0.15623000045E+03  0.15623000045E+03  0.00000000000E+00 0.  1.
          2   -1    0    0  502    0  0.00000000000E+00 -0.00000000000E+00 -0.22490002048E+03  0.22490002048E+03  0.00000000000E+00 0. -1.
          6    1    1    2  502    0  0.66375507854E+02 -0.25753399530E+02 -0.11987827722E+02  0.18653861167E+03  0.17200000000E+03 0.  1.
         -6    1    1    2    0  501 -0.66375507854E+02  0.25753399530E+02 -0.56682192312E+02  0.19459140925E+03  0.17200000000E+03 0. -1.
<mgrwt>
<rscale>  2 0.18615302E+03</rscale>
<asrwt>0</asrwt>
<pdfrwt beam="1">  1        2 0.56225005E-01 0.18615302E+03</pdfrwt>
<pdfrwt beam="2">  1       -2 0.39057500E-01 0.18615302E+03</pdfrwt>
<totfact> 0.55220952E+02</totfact>
</mgrwt>
</event>
<event>
 4    1  0.3757815E-001  0.2349121E+03  0.7546771E-02  0.1123229E+00
          2   -1    0    0  502    0  0.00000000000E+00  0.00000000000E+00  0.90068343490E+03  0.90068343490E+03  0.00000000000E+00 0. -1.
         -2   -1    0    0    0  501 -0.00000000000E+00 -0.00000000000E+00 -0.64664662935E+02  0.64664662935E+02  0.00000000000E+00 0.  1.
          6    1    1    2  502    0  0.28873348529E+02 -0.15737222765E+03  0.30739720198E+03  0.38688076726E+03  0.17200000000E+03 0.  1.
         -6    1    1    2    0  501 -0.28873348529E+02  0.15737222765E+03  0.52862156999E+03  0.57846733058E+03  0.17200000000E+03 0. -1.
<mgrwt>
<rscale>  2 0.23491209E+03</rscale>
<asrwt>0</asrwt>
<pdfrwt beam="1">  1        2 0.22517082E+00 0.23491209E+03</pdfrwt>
<pdfrwt beam="2">  1       -2 0.16166169E-01 0.23491209E+03</pdfrwt>
<totfact> 0.43566329E+02</totfact>
</mgrwt>
</event>
<event>
 4    1  0.3757815E-001  0.2383016E+03  0.7546771E-02  0.1120929E+00
         -2   -1    0    0    0  501 -0.00000000000E+00  0.00000000000E+00  0.24474178865E+03  0.24474178865E+03  0.00000000000E+00 0.  1.
          2   -1    0    0  502    0  0.00000000000E+00 -0.00000000000E+00 -0.25043511488E+03  0.25043511488E+03  0.00000000000E+00 0. -1.
          6    1    1    2  502    0  0.24284524225E+02 -0.16313771267E+03 -0.69965081314E+02  0.24836014981E+03  0.17200000000E+03 0. -1.
         -6    1    1    2    0  501 -0.24284524225E+02  0.16313771267E+03  0.64271755085E+02  0.24681675371E+03  0.17200000000E+03 0.  1.
<mgrwt>
<rscale>  2 0.23830160E+03</rscale>
<asrwt>0</asrwt>
<pdfrwt beam="1">  1        2 0.62608779E-01 0.23830160E+03</pdfrwt>
<pdfrwt beam="2">  1       -2 0.61185447E-01 0.23830160E+03</pdfrwt>
<totfact> 0.20107205E+02</totfact>
</mgrwt>
</event>
<event>
 4    1  0.3757815E-001  0.2325135E+03  0.7546771E-02  0.1124883E+00
         -2   -1    0    0    0  501 -0.00000000000E+00  0.00000000000E+00  0.11052295122E+03  0.11052295122E+03  0.00000000000E+00 0.  1.
          2   -1    0    0  502    0  0.00000000000E+00 -0.00000000000E+00 -0.49032370249E+03  0.49032370249E+03  0.00000000000E+00 0. -1.
          6    1    1    2  502    0  0.12453378351E+03  0.94709268121E+02 -0.20458707649E+03  0.30970692690E+03  0.17200000000E+03 0.  1.
         -6    1    1    2    0  501 -0.12453378351E+03 -0.94709268121E+02 -0.17521367478E+03  0.29113972682E+03  0.17200000000E+03 0. -1.
<mgrwt>
<rscale>  2 0.23251346E+03</rscale>
<asrwt>0</asrwt>
<pdfrwt beam="1">  1        2 0.12258092E+00 0.23251346E+03</pdfrwt>
<pdfrwt beam="2">  1       -2 0.27630738E-01 0.23251346E+03</pdfrwt>
<totfact> 0.42764160E+02</totfact>
</mgrwt>
</event>
<event>
 4    1  0.3757815E-001  0.1732644E+03  0.7546771E-02  0.1174486E+00
         -1   -1    0    0    0  501 -0.00000000000E+00  0.00000000000E+00  0.24041825513E+03  0.24041825513E+03  0.00000000000E+00 0.  1.
          1   -1    0    0  502    0  0.00000000000E+00 -0.00000000000E+00 -0.12897745660E+03  0.12897745660E+03  0.00000000000E+00 0. -1.
          6    1    1    2  502    0  0.39142527565E+01 -0.20524177476E+02  0.88688468224E+02  0.19464379680E+03  0.17200000000E+03 0.  1.
         -6    1    1    2    0  501 -0.39142527565E+01  0.20524177476E+02  0.22752330309E+02  0.17475191493E+03  0.17200000000E+03 0. -1.
<mgrwt>
<rscale>  2 0.17326443E+03</rscale>
<asrwt>0</asrwt>
<pdfrwt beam="1">  1        1 0.32244364E-01 0.17326443E+03</pdfrwt>
<pdfrwt beam="2">  1       -1 0.60104563E-01 0.17326443E+03</pdfrwt>
<totfact> 0.40366546E+02</totfact>
</mgrwt>
</event>
<event>
 4    1  0.3757815E-001  0.1951883E+03  0.7546771E-02  0.1153863E+00
          2   -1    0    0  502    0  0.00000000000E+00  0.00000000000E+00  0.54194245822E+03  0.54194245822E+03  0.00000000000E+00 0.  1.
         -2   -1    0    0    0  501 -0.00000000000E+00 -0.00000000000E+00 -0.74597269594E+02  0.74597269594E+02  0.00000000000E+00 0. -1.
          6    1    1    2  502    0 -0.91900178275E+02  0.82970473190E+01  0.15968267905E+03  0.25218453908E+03  0.17200000000E+03 0. -1.
         -6    1    1    2    0  501  0.91900178275E+02 -0.82970473190E+01  0.30766250957E+03  0.36435518873E+03  0.17200000000E+03 0.  1.
<mgrwt>
<rscale>  2 0.19518833E+03</rscale>
<asrwt>0</asrwt>
<pdfrwt beam="1">  1        2 0.13548560E+00 0.19518833E+03</pdfrwt>
<pdfrwt beam="2">  1       -2 0.18649319E-01 0.19518833E+03</pdfrwt>
<totfact> 0.74662818E+02</totfact>
</mgrwt>
</event>
<event>
 4    1  0.3757815E-001  0.2103193E+03  0.7546771E-02  0.1141313E+00
         -1   -1    0    0    0  501 -0.00000000000E+00  0.00000000000E+00  0.85881222867E+02  0.85881222867E+02  0.00000000000E+00 0.  1.
          1   -1    0    0  502    0  0.00000000000E+00 -0.00000000000E+00 -0.55366416628E+03  0.55366416628E+03  0.00000000000E+00 0. -1.
          6    1    1    2  502    0  0.27455913995E+02  0.11788299940E+03 -0.14945712706E+03  0.25801484761E+03  0.17200000000E+03 0.  1.
         -6    1    1    2    0  501 -0.27455913995E+02 -0.11788299940E+03 -0.31832581635E+03  0.38153054153E+03  0.17200000000E+03 0. -1.
<mgrwt>
<rscale>  2 0.21031935E+03</rscale>
<asrwt>0</asrwt>
<pdfrwt beam="1">  1        1 0.13841604E+00 0.21031935E+03</pdfrwt>
<pdfrwt beam="2">  1       -1 0.21470306E-01 0.21031935E+03</pdfrwt>
<totfact> 0.34788913E+02</totfact>
</mgrwt>
</event>
<event>
 4    1  0.3757815E-001  0.1724688E+03  0.7546771E-02  0.1175297E+00
          1   -1    0    0  502    0  0.00000000000E+00  0.00000000000E+00  0.31525009121E+03  0.31525009121E+03  0.00000000000E+00 0. -1.
         -1   -1    0    0    0  501 -0.00000000000E+00 -0.00000000000E+00 -0.94620287010E+02  0.94620287010E+02  0.00000000000E+00 0.  1.
          6    1    1    2  502    0 -0.16637529006E+01 -0.12598786270E+02  0.99468461791E+02  0.19909664081E+03  0.17200000000E+03 0.  1.
         -6    1    1    2    0  501  0.16637529006E+01  0.12598786270E+02  0.12116134241E+03  0.21077373741E+03  0.17200000000E+03 0. -1.
<mgrwt>
<rscale>  2 0.17246883E+03</rscale>
<asrwt>0</asrwt>
<pdfrwt beam="1">  1        1 0.78812520E-01 0.17246883E+03</pdfrwt>
<pdfrwt beam="2">  1       -1 0.23655073E-01 0.17246883E+03</pdfrwt>
<totfact> 0.67163511E+02</totfact>
</mgrwt>
</event>
<event>
 4    1  0.3757815E-001  0.1723991E+03  0.7546771E-02  0.1175369E+00
          1   -1    0    0  502    0  0.00000000000E+00  0.00000000000E+00  0.12854772488E+04  0.12854772488E+04  0.00000000000E+00 0. -1.
         -1   -1    0    0    0  501 -0.00000000000E+00 -0.00000000000E+00 -0.23242185348E+02  0.23242185348E+02  0.00000000000E+00 0.  1.
          6    1    1    2  502    0  0.60418854553E+01 -0.10046750221E+02  0.67837948782E+03  0.69994297701E+03  0.17200000000E+03 0. -1.
         -6    1    1    2    0  501 -0.60418854553E+01  0.10046750221E+02  0.58385557563E+03  0.60877645714E+03  0.17200000000E+03 0.  1.
<mgrwt>
<rscale>  2 0.17239908E+03</rscale>
<asrwt>0</asrwt>
<pdfrwt beam="1">  1        1 0.32136907E+00 0.17239908E+03</pdfrwt>
<pdfrwt beam="2">  1       -1 0.58105507E-02 0.17239908E+03</pdfrwt>
<totfact> 0.42270939E+02</totfact>
</mgrwt>
</event>
<event>
 4    1  0.3757815E-001  0.2423923E+03  0.7546771E-02  0.1118209E+00
         -2   -1    0    0    0  501 -0.00000000000E+00  0.00000000000E+00  0.11917374687E+03  0.11917374687E+03  0.00000000000E+00 0.  1.
          2   -1    0    0  502    0  0.00000000000E+00 -0.00000000000E+00 -0.69669320880E+03  0.69669320880E+03  0.00000000000E+00 0. -1.
          6    1    1    2  502    0 -0.11681913322E+03  0.12459259693E+03 -0.50932879368E+03  0.56406546177E+03  0.17200000000E+03 0.  1.
         -6    1    1    2    0  501  0.11681913322E+03 -0.12459259693E+03 -0.68190668251E+02  0.25180149390E+03  0.17200000000E+03 0. -1.
<mgrwt>
<rscale>  2 0.24239230E+03</rscale>
<asrwt>0</asrwt>
<pdfrwt beam="1">  1        2 0.17417330E+00 0.24239230E+03</pdfrwt>
<pdfrwt beam="2">  1       -2 0.29793437E-01 0.24239230E+03</pdfrwt>
<totfact> 0.22969683E+02</totfact>
</mgrwt>
</event>
<event>
 4    1  0.3757815E-001  0.1815052E+03  0.7546771E-02  0.1166354E+00
         -1   -1    0    0    0  501 -0.00000000000E+00  0.00000000000E+00  0.36051411479E+02  0.36051411479E+02  0.00000000000E+00 0.  1.
          1   -1    0    0  502    0  0.00000000000E+00 -0.00000000000E+00 -0.10016703692E+04  0.10016703692E+04  0.00000000000E+00 0. -1.
          6    1    1    2  502    0 -0.32424653832E+02 -0.48049936968E+02 -0.32914126088E+03  0.37586982352E+03  0.17200000000E+03 0.  1.
         -6    1    1    2    0  501  0.32424653832E+02  0.48049936968E+02 -0.63647769680E+03  0.66185195712E+03  0.17200000000E+03 0. -1.
<mgrwt>
<rscale>  2 0.18150525E+03</rscale>
<asrwt>0</asrwt>
<pdfrwt beam="1">  1        1 0.25041759E+00 0.18150525E+03</pdfrwt>
<pdfrwt beam="2">  1       -1 0.90128530E-02 0.18150525E+03</pdfrwt>
<totfact> 0.42967307E+02</totfact>
</mgrwt>
</event>
<event>
 4    1  0.3757815E-001  0.1832051E+03  0.7546771E-02  0.1164737E+00
         -2   -1    0    0    0  501 -0.00000000000E+00  0.00000000000E+00  0.91263222416E+02  0.91263222416E+02  0.00000000000E+00 0.  1.
          2   -1    0    0  502    0  0.00000000000E+00 -0.00000000000E+00 -0.41918197683E+03  0.41918197683E+03  0.00000000000E+00 0. -1.
          6    1    1    2  502    0  0.27559579791E+02 -0.56750033367E+02 -0.25333924982E+03  0.31264176340E+03  0.17200000000E+03 0.  1.
         -6    1    1    2    0  501 -0.27559579791E+02  0.56750033367E+02 -0.74579504596E+02  0.19780343584E+03  0.17200000000E+03 0.  1.
<mgrwt>
<rscale>  2 0.18320507E+03</rscale>
<asrwt>0</asrwt>
<pdfrwt beam="1">  1        2 0.10479549E+00 0.18320507E+03</pdfrwt>
<pdfrwt beam="2">  1       -2 0.22815806E-01 0.18320507E+03</pdfrwt>
<totfact> 0.72870796E+02</totfact>
</mgrwt>
</event>
<event>
 4    1  0.3757815E-001  0.1805938E+03  0.7546771E-02  0.1167230E+00
         -1   -1    0    0    0  501 -0.00000000000E+00  0.00000000000E+00  0.89066476087E+02  0.89066476087E+02  0.00000000000E+00 0. -1.
          1   -1    0    0  502    0  0.00000000000E+00 -0.00000000000E+00 -0.38100241977E+03  0.38100241977E+03  0.00000000000E+00 0.  1.
          6    1    1    2  502    0  0.24183500688E+02  0.49449649425E+02 -0.19233067658E+03  0.26382797177E+03  0.17200000000E+03 0. -1.
         -6    1    1    2    0  501 -0.24183500688E+02 -0.49449649425E+02 -0.99605267099E+02  0.20624092409E+03  0.17200000000E+03 0. -1.
<mgrwt>
<rscale>  2 0.18059377E+03</rscale>
<asrwt>0</asrwt>
<pdfrwt beam="1">  1        1 0.95250603E-01 0.18059377E+03</pdfrwt>
<pdfrwt beam="2">  1       -1 0.22266619E-01 0.18059377E+03</pdfrwt>
<totfact> 0.57381049E+02</totfact>
</mgrwt>
</event>
<event>
 4    1  0.3757815E-001  0.2567614E+03  0.7546771E-02  0.1109105E+00
         -3   -1    0    0    0  501 -0.00000000000E+00  0.00000000000E+00  0.16312010996E+04  0.16312010996E+04  0.00000000000E+00 0.  1.
          3   -1    0    0  502    0  0.00000000000E+00 -0.00000000000E+00 -0.54049098780E+02  0.54049098780E+02  0.00000000000E+00 0. -1.
          6    1    1    2  502    0  0.18888999554E+03 -0.25748376785E+02  0.12117700439E+04  0.12386739073E+04  0.17200000000E+03 0.  1.
         -6    1    1    2    0  501 -0.18888999554E+03  0.25748376785E+02  0.36538195696E+03  0.44657629113E+03  0.17200000000E+03 0. -1.
<mgrwt>
<rscale>  2 0.25676139E+03</rscale>
<asrwt>0</asrwt>
<pdfrwt beam="1">  1        3 0.13512280E-01 0.25676139E+03</pdfrwt>
<pdfrwt beam="2">  1       -3 0.40780011E+00 0.25676139E+03</pdfrwt>
<totfact> 0.12824493E+00</totfact>
</mgrwt>
</event>
<event>
 4    1  0.3757815E-001  0.1733115E+03  0.7546771E-02  0.1174438E+00
         -2   -1    0    0    0  501 -0.00000000000E+00  0.00000000000E+00  0.26291399133E+03  0.26291399133E+03  0.00000000000E+00 0.  1.
          2   -1    0    0  502    0  0.00000000000E+00 -0.00000000000E+00 -0.11896983483E+03  0.11896983483E+03  0.00000000000E+00 0. -1.
          6    1    1    2  502    0  0.16644109040E+02 -0.13261214673E+02  0.11001971504E+03  0.20528327715E+03  0.17200000000E+03 0.  1.
         -6    1    1    2    0  501 -0.16644109040E+02  0.13261214673E+02  0.33924441460E+02  0.17660054900E+03  0.17200000000E+03 0. -1.
<mgrwt>
<rscale>  2 0.17331153E+03</rscale>
<asrwt>0</asrwt>
<pdfrwt beam="1">  1        2 0.29742459E-01 0.17331153E+03</pdfrwt>
<pdfrwt beam="2">  1       -2 0.65728497E-01 0.17331153E+03</pdfrwt>
<totfact> 0.38764296E+02</totfact>
</mgrwt>
</event>
<event>
 4    1  0.3757815E-001  0.2351609E+03  0.7546771E-02  0.1123059E+00
          2   -1    0    0  502    0  0.00000000000E+00  0.00000000000E+00  0.20682764001E+03  0.20682764001E+03  0.00000000000E+00 0.  1.
         -2   -1    0    0    0  501 -0.00000000000E+00 -0.00000000000E+00 -0.39170397740E+03  0.39170397740E+03  0.00000000000E+00 0. -1.
          6    1    1    2  502    0 -0.14800527024E+03  0.61733891053E+02 -0.26104047281E+03  0.35134422120E+03  0.17200000000E+03 0. -1.
         -6    1    1    2    0  501  0.14800527024E+03 -0.61733891053E+02  0.76164135415E+02  0.24718739621E+03  0.17200000000E+03 0.  1.
<mgrwt>
<rscale>  2 0.23516087E+03</rscale>
<asrwt>0</asrwt>
<pdfrwt beam="1">  1        2 0.51706911E-01 0.23516087E+03</pdfrwt>
<pdfrwt beam="2">  1       -2 0.97925993E-01 0.23516087E+03</pdfrwt>
<totfact> 0.88219355E+01</totfact>
</mgrwt>
</event>
<event>
 4    1  0.3757815E-001  0.4051800E+03  0.7546771E-02  0.1042001E+00
         -1   -1    0    0    0  501 -0.00000000000E+00  0.00000000000E+00  0.19571918617E+03  0.19571918617E+03  0.00000000000E+00 0. -1.
          1   -1    0    0  502    0  0.00000000000E+00 -0.00000000000E+00 -0.90606489430E+03  0.90606489430E+03  0.00000000000E+00 0.  1.
          6    1    1    2  502    0  0.86773125666E+02  0.35645093100E+03 -0.50526393315E+03  0.64765923423E+03  0.17200000000E+03 0. -1.
         -6    1    1    2    0  501 -0.86773125666E+02 -0.35645093100E+03 -0.20508177498E+03  0.45412484624E+03  0.17200000000E+03 0.  1.
<mgrwt>
<rscale>  2 0.40518001E+03</rscale>
<asrwt>0</asrwt>
<pdfrwt beam="1">  1        1 0.22651622E+00 0.40518001E+03</pdfrwt>
<pdfrwt beam="2">  1       -1 0.48929797E-01 0.40518001E+03</pdfrwt>
<totfact> 0.31231331E+01</totfact>
</mgrwt>
</event>
<event>
 4    1  0.3757815E-001  0.1925400E+03  0.7546771E-02  0.1156190E+00
          2   -1    0    0  502    0  0.00000000000E+00  0.00000000000E+00  0.11820717938E+04  0.11820717938E+04  0.00000000000E+00 0. -1.
         -2   -1    0    0    0  501 -0.00000000000E+00 -0.00000000000E+00 -0.45702080562E+02  0.45702080562E+02  0.00000000000E+00 0.  1.
          6    1    1    2  502    0 -0.78524376136E+01 -0.86174215316E+02  0.22430847870E+03  0.29561114623E+03  0.17200000000E+03 0.  1.
         -6    1    1    2    0  501  0.78524376136E+01  0.86174215316E+02  0.91206123451E+03  0.93216272810E+03  0.17200000000E+03 0. -1.
<mgrwt>
<rscale>  2 0.19254001E+03</rscale>
<asrwt>0</asrwt>
<pdfrwt beam="1">  1        2 0.29551785E+00 0.19254001E+03</pdfrwt>
<pdfrwt beam="2">  1       -2 0.11425524E-01 0.19254001E+03</pdfrwt>
<totfact> 0.44617783E+02</totfact>
</mgrwt>
</event>
<event>
 4    1  0.3757815E-001  0.1732062E+03  0.7546771E-02  0.1174545E+00
          1   -1    0    0  502    0  0.00000000000E+00  0.00000000000E+00  0.97755388195E+02  0.97755388195E+02  0.00000000000E+00 0.  1.
         -1   -1    0    0    0  501 -0.00000000000E+00 -0.00000000000E+00 -0.32428591893E+03  0.32428591893E+03  0.00000000000E+00 0. -1.
          6    1    1    2  502    0 -0.20405933735E+02 -0.55393151487E-02 -0.16213641354E+03  0.23725222603E+03  0.17200000000E+03 0. -1.
         -6    1    1    2    0  501  0.20405933735E+02  0.55393151487E-02 -0.64394117198E+02  0.18478908110E+03  0.17200000000E+03 0.  1.
<mgrwt>
<rscale>  2 0.17320624E+03</rscale>
<asrwt>0</asrwt>
<pdfrwt beam="1">  1        1 0.24438847E-01 0.17320624E+03</pdfrwt>
<pdfrwt beam="2">  1       -1 0.81071479E-01 0.17320624E+03</pdfrwt>
<totfact> 0.31574114E+02</totfact>
</mgrwt>
</event>
<event>
 4    1  0.3757815E-001  0.2256964E+03  0.7546771E-02  0.1129706E+00
         -1   -1    0    0    0  501 -0.00000000000E+00  0.00000000000E+00  0.20366914842E+03  0.20366914842E+03  0.00000000000E+00 0.  1.
          1   -1    0    0  502    0  0.00000000000E+00 -0.00000000000E+00 -0.26721509175E+03  0.26721509175E+03  0.00000000000E+00 0. -1.
          6    1    1    2  502    0 -0.12812457268E+03 -0.70277822701E+02  0.27802431944E+02  0.22740240480E+03  0.17200000000E+03 0.  1.
         -6    1    1    2    0  501  0.12812457268E+03  0.70277822701E+02 -0.91348375274E+02  0.24348183537E+03  0.17200000000E+03 0. -1.
<mgrwt>
<rscale>  2 0.22569643E+03</rscale>
<asrwt>0</asrwt>
<pdfrwt beam="1">  1        1 0.66803772E-01 0.22569643E+03</pdfrwt>
<pdfrwt beam="2">  1       -1 0.50917287E-01 0.22569643E+03</pdfrwt>
<totfact> 0.21936710E+02</totfact>
</mgrwt>
</event>
<event>
 4    1  0.3757815E-001  0.1838027E+03  0.7546771E-02  0.1164173E+00
          2   -1    0    0  502    0  0.00000000000E+00  0.00000000000E+00  0.13863413497E+04  0.13863413497E+04  0.00000000000E+00 0. -1.
         -2   -1    0    0    0  501 -0.00000000000E+00 -0.00000000000E+00 -0.24565762602E+02  0.24565762602E+02  0.00000000000E+00 0.  1.
          6    1    1    2  502    0 -0.47310479270E+02 -0.44284755245E+02  0.61771381966E+03  0.64447946748E+03  0.17200000000E+03 0. -1.
         -6    1    1    2    0  501  0.47310479270E+02  0.44284755245E+02  0.74406176746E+03  0.76642764485E+03  0.17200000000E+03 0. -1.
<mgrwt>
<rscale>  2 0.18380267E+03</rscale>
<asrwt>0</asrwt>
<pdfrwt beam="1">  1        2 0.34658507E+00 0.18380267E+03</pdfrwt>
<pdfrwt beam="2">  1       -2 0.61414453E-02 0.18380267E+03</pdfrwt>
<totfact> 0.79204486E+02</totfact>
</mgrwt>
</event>
<event>
 4    1  0.3757815E-001  0.1752528E+03  0.7546771E-02  0.1172478E+00
         -2   -1    0    0    0  501 -0.00000000000E+00  0.00000000000E+00  0.14482161754E+03  0.14482161754E+03  0.00000000000E+00 0. -1.
          2   -1    0    0  502    0  0.00000000000E+00 -0.00000000000E+00 -0.25882959036E+03  0.25882959036E+03  0.00000000000E+00 0.  1.
          6    1    1    2  502    0  0.25992929631E+02 -0.21305109089E+02  0.28771963135E+02  0.17759889056E+03  0.17200000000E+03 0. -1.
         -6    1    1    2    0  501 -0.25992929631E+02  0.21305109089E+02 -0.14277993596E+03  0.22605231735E+03  0.17200000000E+03 0.  1.
<mgrwt>
<rscale>  2 0.17525279E+03</rscale>
<asrwt>0</asrwt>
<pdfrwt beam="1">  1        2 0.64707397E-01 0.17525279E+03</pdfrwt>
<pdfrwt beam="2">  1       -2 0.36205405E-01 0.17525279E+03</pdfrwt>
<totfact> 0.54728658E+02</totfact>
</mgrwt>
</event>
<event>
 4    1  0.3757815E-001  0.2135550E+03  0.7546771E-02  0.1138781E+00
          1   -1    0    0  502    0  0.00000000000E+00  0.00000000000E+00  0.29256102281E+03  0.29256102281E+03  0.00000000000E+00 0.  1.
         -1   -1    0    0    0  501 -0.00000000000E+00 -0.00000000000E+00 -0.15868753225E+03  0.15868753225E+03  0.00000000000E+00 0. -1.
          6    1    1    2  502    0  0.23432546998E+02 -0.12438916371E+03  0.36950416628E+02  0.21672812830E+03  0.17200000000E+03 0. -1.
         -6    1    1    2    0  501 -0.23432546998E+02  0.12438916371E+03  0.96923073931E+02  0.23452042676E+03  0.17200000000E+03 0.  1.
<mgrwt>
<rscale>  2 0.21355502E+03</rscale>
<asrwt>0</asrwt>
<pdfrwt beam="1">  1        1 0.73140255E-01 0.21355502E+03</pdfrwt>
<pdfrwt beam="2">  1       -1 0.39671883E-01 0.21355502E+03</pdfrwt>
<totfact> 0.30670418E+02</totfact>
</mgrwt>
</event>
<event>
 4    1  0.3757815E-001  0.1724940E+03  0.7546771E-02  0.1175272E+00
         -1   -1    0    0    0  501 -0.00000000000E+00  0.00000000000E+00  0.13807668193E+03  0.13807668193E+03  0.00000000000E+00 0.  1.
          1   -1    0    0  502    0  0.00000000000E+00 -0.00000000000E+00 -0.25412085162E+03  0.25412085162E+03  0.00000000000E+00 0. -1.
          6    1    1    2  502    0  0.11193303824E+02  0.66989303250E+01  0.18435570568E+02  0.17347632686E+03  0.17200000000E+03 0.  1.
         -6    1    1    2    0  501 -0.11193303824E+02 -0.66989303250E+01 -0.13447974026E+03  0.21872120669E+03  0.17200000000E+03 0. -1.
<mgrwt>
<rscale>  2 0.17249396E+03</rscale>
<asrwt>0</asrwt>
<pdfrwt beam="1">  1        1 0.63530213E-01 0.17249396E+03</pdfrwt>
<pdfrwt beam="2">  1       -1 0.34519171E-01 0.17249396E+03</pdfrwt>
<totfact> 0.47065005E+02</totfact>
</mgrwt>
</event>
<event>
 4    1  0.3757815E-001  0.1737104E+03  0.7546771E-02  0.1174033E+00
          1   -1    0    0  502    0  0.00000000000E+00  0.00000000000E+00  0.27587257989E+03  0.27587257989E+03  0.00000000000E+00 0. -1.
         -1   -1    0    0    0  501 -0.00000000000E+00 -0.00000000000E+00 -0.10940895146E+03  0.10940895146E+03  0.00000000000E+00 0.  1.
          6    1    1    2  502    0 -0.52793238725E+00 -0.24310803838E+02  0.86295857871E+02  0.19396460755E+03  0.17200000000E+03 0. -1.
         -6    1    1    2    0  501  0.52793238725E+00  0.24310803838E+02  0.80167770560E+02  0.19131692380E+03  0.17200000000E+03 0.  1.
<mgrwt>
<rscale>  2 0.17371037E+03</rscale>
<asrwt>0</asrwt>
<pdfrwt beam="1">  1        1 0.68968144E-01 0.17371037E+03</pdfrwt>
<pdfrwt beam="2">  1       -1 0.27352238E-01 0.17371037E+03</pdfrwt>
<totfact> 0.62851107E+02</totfact>
</mgrwt>
</event>
<event>
 4    1  0.3757815E-001  0.2070159E+03  0.7546771E-02  0.1143951E+00
         -1   -1    0    0    0  501 -0.00000000000E+00  0.00000000000E+00  0.81897426884E+02  0.81897426884E+02  0.00000000000E+00 0. -1.
          1   -1    0    0  502    0  0.00000000000E+00 -0.00000000000E+00 -0.52467434802E+03  0.52467434802E+03  0.00000000000E+00 0.  1.
          6    1    1    2  502    0 -0.10118097382E+03 -0.55081713926E+02 -0.20577413212E+03  0.29188795474E+03  0.17200000000E+03 0.  1.
         -6    1    1    2    0  501  0.10118097382E+03  0.55081713926E+02 -0.23700278902E+03  0.31468382017E+03  0.17200000000E+03 0. -1.
<mgrwt>
<rscale>  2 0.20701590E+03</rscale>
<asrwt>0</asrwt>
<pdfrwt beam="1">  1        1 0.13116858E+00 0.20701590E+03</pdfrwt>
<pdfrwt beam="2">  1       -1 0.20474357E-01 0.20701590E+03</pdfrwt>
<totfact> 0.40976753E+02</totfact>
</mgrwt>
</event>
<event>
 4    1  0.3757815E-001  0.3559884E+03  0.7546771E-02  0.1060184E+00
          2   -1    0    0  502    0  0.00000000000E+00  0.00000000000E+00  0.16832363338E+03  0.16832363338E+03  0.00000000000E+00 0. -1.
         -2   -1    0    0    0  501 -0.00000000000E+00 -0.00000000000E+00 -0.75380766798E+03  0.75380766798E+03  0.00000000000E+00 0.  1.
          6    1    1    2  502    0 -0.26901375991E+03 -0.15740188898E+03 -0.30890293837E+03  0.47132662030E+03  0.17200000000E+03 0.  1.
         -6    1    1    2    0  501  0.26901375991E+03  0.15740188898E+03 -0.27658109624E+03  0.45080468106E+03  0.17200000000E+03 0. -1.
<mgrwt>
<rscale>  2 0.35598842E+03</rscale>
<asrwt>0</asrwt>
<pdfrwt beam="1">  1        2 0.42080909E-01 0.35598842E+03</pdfrwt>
<pdfrwt beam="2">  1       -2 0.18845192E+00 0.35598842E+03</pdfrwt>
<totfact> 0.20528762E+01</totfact>
</mgrwt>
</event>
<event>
 4    1  0.3757815E-001  0.2013281E+03  0.7546771E-02  0.1148623E+00
         -2   -1    0    0    0  501 -0.00000000000E+00  0.00000000000E+00  0.35439802971E+02  0.35439802971E+02  0.00000000000E+00 0.  1.
          2   -1    0    0  502    0  0.00000000000E+00 -0.00000000000E+00 -0.13015689846E+04  0.13015689846E+04  0.00000000000E+00 0. -1.
          6    1    1    2  502    0  0.51227764689E+02  0.91239817123E+02 -0.86587384325E+03  0.88897159714E+03  0.17200000000E+03 0. -1.
         -6    1    1    2    0  501 -0.51227764689E+02 -0.91239817123E+02 -0.40025533836E+03  0.44803719041E+03  0.17200000000E+03 0.  1.
<mgrwt>
<rscale>  2 0.20132806E+03</rscale>
<asrwt>0</asrwt>
<pdfrwt beam="1">  1        2 0.32539223E+00 0.20132806E+03</pdfrwt>
<pdfrwt beam="2">  1       -2 0.88599511E-02 0.20132806E+03</pdfrwt>
<totfact> 0.52810589E+02</totfact>
</mgrwt>
</event>
<event>
 4    1  0.3757815E-001  0.2042548E+03  0.7546771E-02  0.1146198E+00
         -2   -1    0    0    0  501 -0.00000000000E+00  0.00000000000E+00  0.98157265739E+03  0.98157265739E+03  0.00000000000E+00 0. -1.
          2   -1    0    0  502    0  0.00000000000E+00 -0.00000000000E+00 -0.42927040782E+02  0.42927040782E+02  0.00000000000E+00 0.  1.
          6    1    1    2  502    0 -0.91533465857E+02 -0.61299637409E+02  0.52022023664E+03  0.55888202291E+03  0.17200000000E+03 0. -1.
         -6    1    1    2    0  501  0.91533465857E+02  0.61299637409E+02  0.41842537996E+03  0.46561767526E+03  0.17200000000E+03 0. -1.
<mgrwt>
<rscale>  2 0.20425479E+03</rscale>
<asrwt>0</asrwt>
<pdfrwt beam="1">  1        2 0.10731763E-01 0.20425479E+03</pdfrwt>
<pdfrwt beam="2">  1       -2 0.24539309E+00 0.20425479E+03</pdfrwt>
<totfact> 0.45279962E+01</totfact>
</mgrwt>
</event>
<event>
 4    1  0.3757815E-001  0.1752019E+03  0.7546771E-02  0.1172529E+00
         -1   -1    0    0    0  501 -0.00000000000E+00  0.00000000000E+00  0.25682301877E+03  0.25682301877E+03  0.00000000000E+00 0. -1.
          1   -1    0    0  502    0  0.00000000000E+00 -0.00000000000E+00 -0.44840312999E+03  0.44840312999E+03  0.00000000000E+00 0.  1.
          6    1    1    2  502    0  0.30599348871E+02  0.13242781540E+02 -0.39777435716E+03  0.43464943418E+03  0.17200000000E+03 0.  1.
         -6    1    1    2    0  501 -0.30599348871E+02 -0.13242781540E+02  0.20619424594E+03  0.27057671458E+03  0.17200000000E+03 0. -1.
<mgrwt>
<rscale>  2 0.17520186E+03</rscale>
<asrwt>0</asrwt>
<pdfrwt beam="1">  1        1 0.11210078E+00 0.17520186E+03</pdfrwt>
<pdfrwt beam="2">  1       -1 0.64205755E-01 0.17520186E+03</pdfrwt>
<totfact> 0.70533349E+01</totfact>
</mgrwt>
</event>
<event>
 4    1  0.3757815E-001  0.1846342E+03  0.7546771E-02  0.1163392E+00
          2   -1    0    0  502    0  0.00000000000E+00  0.00000000000E+00  0.76819442479E+03  0.76819442479E+03  0.00000000000E+00 0.  1.
         -2   -1    0    0    0  501 -0.00000000000E+00 -0.00000000000E+00 -0.44405400351E+02  0.44405400351E+02  0.00000000000E+00 0. -1.
          6    1    1    2  502    0  0.65266078344E+02 -0.15688198765E+02  0.35152940427E+03  0.39706762980E+03  0.17200000000E+03 0. -1.
         -6    1    1    2    0  501 -0.65266078344E+02  0.15688198765E+02  0.37225962017E+03  0.41553219535E+03  0.17200000000E+03 0. -1.
<mgrwt>
<rscale>  2 0.18463418E+03</rscale>
<asrwt>0</asrwt>
<pdfrwt beam="1">  1        2 0.19204856E+00 0.18463418E+03</pdfrwt>
<pdfrwt beam="2">  1       -2 0.11101353E-01 0.18463418E+03</pdfrwt>
<totfact> 0.10591501E+03</totfact>
</mgrwt>
</event>
<event>
 4    1  0.3757815E-001  0.2287858E+03  0.7546771E-02  0.1127497E+00
          1   -1    0    0  502    0  0.00000000000E+00  0.00000000000E+00  0.42892933592E+03  0.42892933592E+03  0.00000000000E+00 0. -1.
         -1   -1    0    0    0  501 -0.00000000000E+00 -0.00000000000E+00 -0.15177954703E+03  0.15177954703E+03  0.00000000000E+00 0.  1.
          6    1    1    2  502    0  0.11948345998E+03  0.92101252237E+02  0.26711843769E+03  0.35170328066E+03  0.17200000000E+03 0. -1.
         -6    1    1    2    0  501 -0.11948345998E+03 -0.92101252237E+02  0.10031351202E+02  0.22900560229E+03  0.17200000000E+03 0.  1.
<mgrwt>
<rscale>  2 0.22878579E+03</rscale>
<asrwt>0</asrwt>
<pdfrwt beam="1">  1        1 0.10723233E+00 0.22878579E+03</pdfrwt>
<pdfrwt beam="2">  1       -1 0.37944888E-01 0.22878579E+03</pdfrwt>
<totfact> 0.19568899E+02</totfact>
</mgrwt>
</event>
<event>
 4    1  0.3757815E-001  0.1753669E+03  0.7546771E-02  0.1172364E+00
         -2   -1    0    0    0  501 -0.00000000000E+00  0.00000000000E+00  0.31319445504E+02  0.31319445504E+02  0.00000000000E+00 0.  1.
          2   -1    0    0  502    0  0.00000000000E+00 -0.00000000000E+00 -0.17773629985E+04  0.17773629985E+04  0.00000000000E+00 0. -1.
          6    1    1    2  502    0  0.29738736937E+02  0.16886636027E+02 -0.26803533026E+03  0.32030686726E+03  0.17200000000E+03 0.  1.
         -6    1    1    2    0  501 -0.29738736937E+02 -0.16886636027E+02 -0.14780082227E+04  0.14883755767E+04  0.17200000000E+03 0. -1.
<mgrwt>
<rscale>  2 0.17536690E+03</rscale>
<asrwt>0</asrwt>
<pdfrwt beam="1">  1        2 0.44434070E+00 0.17536690E+03</pdfrwt>
<pdfrwt beam="2">  1       -2 0.78298623E-02 0.17536690E+03</pdfrwt>
<totfact> 0.24569982E+02</totfact>
</mgrwt>
</event>
<event>
 4    1  0.3757815E-001  0.1854000E+03  0.7546771E-02  0.1162677E+00
         -3   -1    0    0    0  501 -0.00000000000E+00  0.00000000000E+00  0.19497603773E+03  0.19497603773E+03  0.00000000000E+00 0.  1.
          3   -1    0    0  502    0  0.00000000000E+00 -0.00000000000E+00 -0.17643918973E+03  0.17643918973E+03  0.00000000000E+00 0. -1.
          6    1    1    2  502    0  0.13450958389E+02 -0.67884059777E+02  0.39476365269E+01  0.18544206019E+03  0.17200000000E+03 0. -1.
         -6    1    1    2    0  501 -0.13450958389E+02  0.67884059777E+02  0.14589211473E+02  0.18597316727E+03  0.17200000000E+03 0.  1.
<mgrwt>
<rscale>  2 0.18540004E+03</rscale>
<asrwt>0</asrwt>
<pdfrwt beam="1">  1        3 0.44109797E-01 0.18540004E+03</pdfrwt>
<pdfrwt beam="2">  1       -3 0.48744009E-01 0.18540004E+03</pdfrwt>
<totfact> 0.52382999E+01</totfact>
</mgrwt>
</event>
<event>
 4    1  0.3757815E-001  0.2680940E+03  0.7546771E-02  0.1102375E+00
         -3   -1    0    0    0  501 -0.00000000000E+00  0.00000000000E+00  0.71535072380E+03  0.71535072380E+03  0.00000000000E+00 0.  1.
          3   -1    0    0  502    0  0.00000000000E+00 -0.00000000000E+00 -0.19264525898E+03  0.19264525898E+03  0.00000000000E+00 0. -1.
          6    1    1    2  502    0  0.15567385253E+03 -0.13437277725E+03 -0.52677693484E+02  0.27322029760E+03  0.17200000000E+03 0. -1.
         -6    1    1    2    0  501 -0.15567385253E+03  0.13437277725E+03  0.57538315831E+03  0.63477568518E+03  0.17200000000E+03 0.  1.
<mgrwt>
<rscale>  2 0.26809400E+03</rscale>
<asrwt>0</asrwt>
<pdfrwt beam="1">  1        3 0.48161316E-01 0.26809400E+03</pdfrwt>
<pdfrwt beam="2">  1       -3 0.17883767E+00 0.26809400E+03</pdfrwt>
<totfact> 0.22875517E+00</totfact>
</mgrwt>
</event>
<event>
 4    1  0.3757815E-001  0.2160341E+03  0.7546771E-02  0.1136875E+00
          1   -1    0    0  502    0  0.00000000000E+00  0.00000000000E+00  0.31896831212E+03  0.31896831212E+03  0.00000000000E+00 0. -1.
         -1   -1    0    0    0  501 -0.00000000000E+00 -0.00000000000E+00 -0.17199755362E+03  0.17199755362E+03  0.00000000000E+00 0.  1.
          6    1    1    2  502    0  0.92007839318E+02  0.92850884655E+02  0.16833943914E+03  0.27387752016E+03  0.17200000000E+03 0. -1.
         -6    1    1    2    0  501 -0.92007839318E+02 -0.92850884655E+02 -0.21368680639E+02  0.21708834559E+03  0.17200000000E+03 0.  1.
<mgrwt>
<rscale>  2 0.21603409E+03</rscale>
<asrwt>0</asrwt>
<pdfrwt beam="1">  1        1 0.79742077E-01 0.21603409E+03</pdfrwt>
<pdfrwt beam="2">  1       -1 0.42999389E-01 0.21603409E+03</pdfrwt>
<totfact> 0.23691289E+02</totfact>
</mgrwt>
</event>
<event>
 4    1  0.3757815E-001  0.2397487E+03  0.7546771E-02  0.1119960E+00
          2   -1    0    0  502    0  0.00000000000E+00  0.00000000000E+00  0.57234149486E+03  0.57234149486E+03  0.00000000000E+00 0. -1.
         -2   -1    0    0    0  501 -0.00000000000E+00 -0.00000000000E+00 -0.13172767382E+03  0.13172767382E+03  0.00000000000E+00 0.  1.
          6    1    1    2  502    0  0.15353057798E+03  0.65755681268E+02  0.48708741876E+02  0.24464666262E+03  0.17200000000E+03 0.  1.
         -6    1    1    2    0  501 -0.15353057798E+03 -0.65755681268E+02  0.39190507917E+03  0.45942250606E+03  0.17200000000E+03 0. -1.
<mgrwt>
<rscale>  2 0.23974872E+03</rscale>
<asrwt>0</asrwt>
<pdfrwt beam="1">  1        2 0.14308537E+00 0.23974872E+03</pdfrwt>
<pdfrwt beam="2">  1       -2 0.32931920E-01 0.23974872E+03</pdfrwt>
<totfact> 0.25340650E+02</totfact>
</mgrwt>
</event>
<event>
 4    1  0.3757815E-001  0.2305210E+03  0.7546771E-02  0.1126274E+00
          1   -1    0    0  502    0  0.00000000000E+00  0.00000000000E+00  0.20294984481E+03  0.20294984481E+03  0.00000000000E+00 0.  1.
         -1   -1    0    0    0  501 -0.00000000000E+00 -0.00000000000E+00 -0.28296509836E+03  0.28296509836E+03  0.00000000000E+00 0. -1.
          6    1    1    2  502    0 -0.14354662125E+03  0.54316724325E+02 -0.10639506350E+03  0.25388944159E+03  0.17200000000E+03 0. -1.
         -6    1    1    2    0  501  0.14354662125E+03 -0.54316724325E+02  0.26379809956E+02  0.23202550158E+03  0.17200000000E+03 0.  1.
<mgrwt>
<rscale>  2 0.23052102E+03</rscale>
<asrwt>0</asrwt>
<pdfrwt beam="1">  1        1 0.50737461E-01 0.23052102E+03</pdfrwt>
<pdfrwt beam="2">  1       -1 0.70741274E-01 0.23052102E+03</pdfrwt>
<totfact> 0.16540844E+02</totfact>
</mgrwt>
</event>
<event>
 4    1  0.3757815E-001  0.1831892E+03  0.7546771E-02  0.1164752E+00
          2   -1    0    0  502    0  0.00000000000E+00  0.00000000000E+00  0.65699742070E+03  0.65699742070E+03  0.00000000000E+00 0. -1.
         -2   -1    0    0    0  501 -0.00000000000E+00 -0.00000000000E+00 -0.51200049140E+02  0.51200049140E+02  0.00000000000E+00 0.  1.
          6    1    1    2  502    0 -0.52320518877E+02 -0.35168583094E+02  0.32017079636E+03  0.36887342649E+03  0.17200000000E+03 0. -1.
         -6    1    1    2    0  501  0.52320518877E+02  0.35168583094E+02  0.28562657521E+03  0.33932404335E+03  0.17200000000E+03 0.  1.
<mgrwt>
<rscale>  2 0.18318915E+03</rscale>
<asrwt>0</asrwt>
<pdfrwt beam="1">  1        2 0.16424933E+00 0.18318915E+03</pdfrwt>
<pdfrwt beam="2">  1       -2 0.12800014E-01 0.18318915E+03</pdfrwt>
<totfact> 0.10676370E+03</totfact>
</mgrwt>
</event>
<event>
 4    1  0.3757815E-001  0.1745583E+03  0.7546771E-02  0.1173176E+00
          1   -1    0    0  502    0  0.00000000000E+00  0.00000000000E+00  0.57739326374E+03  0.57739326374E+03  0.00000000000E+00 0.  1.
         -1   -1    0    0    0  501 -0.00000000000E+00 -0.00000000000E+00 -0.74405822958E+02  0.74405822958E+02  0.00000000000E+00 0. -1.
          6    1    1    2  502    0 -0.27433924112E+02  0.11574597105E+02  0.42722135889E+03  0.46150696743E+03  0.17200000000E+03 0.  1.
         -6    1    1    2    0  501  0.27433924112E+02 -0.11574597105E+02  0.75766081885E+02  0.19029211927E+03  0.17200000000E+03 0. -1.
<mgrwt>
<rscale>  2 0.17455828E+03</rscale>
<asrwt>0</asrwt>
<pdfrwt beam="1">  1        1 0.14434830E+00 0.17455828E+03</pdfrwt>
<pdfrwt beam="2">  1       -1 0.18601457E-01 0.17455828E+03</pdfrwt>
<totfact> 0.41190852E+02</totfact>
</mgrwt>
</event>
<event>
 4    1  0.3757815E-001  0.1753438E+03  0.7546771E-02  0.1172387E+00
         -4   -1    0    0    0  501 -0.00000000000E+00  0.00000000000E+00  0.19998079035E+03  0.19998079035E+03  0.00000000000E+00 0. -1.
          4   -1    0    0  502    0  0.00000000000E+00 -0.00000000000E+00 -0.24038489300E+03  0.24038489300E+03  0.00000000000E+00 0.  1.
          6    1    1    2  502    0 -0.30087538266E+01  0.33947112292E+02  0.11198721875E+03  0.20805431069E+03  0.17200000000E+03 0. -1.
         -6    1    1    2    0  501  0.30087538266E+01 -0.33947112292E+02 -0.15239132140E+03  0.23231137267E+03  0.17200000000E+03 0.  1.
<mgrwt>
<rscale>  2 0.17534383E+03</rscale>
<asrwt>0</asrwt>
<pdfrwt beam="1">  1        4 0.60096223E-01 0.17534383E+03</pdfrwt>
<pdfrwt beam="2">  1       -4 0.49995198E-01 0.17534383E+03</pdfrwt>
<totfact> 0.17951865E+01</totfact>
</mgrwt>
</event>
<event>
 4    1  0.3757815E-001  0.1926510E+03  0.7546771E-02  0.1156092E+00
          1   -1    0    0  502    0  0.00000000000E+00  0.00000000000E+00  0.17911198184E+03  0.17911198184E+03  0.00000000000E+00 0.  1.
         -1   -1    0    0    0  501 -0.00000000000E+00 -0.00000000000E+00 -0.29247590309E+03  0.29247590309E+03  0.00000000000E+00 0. -1.
          6    1    1    2  502    0 -0.71920217848E+02 -0.48558066333E+02 -0.18399316490E+03  0.26639798849E+03  0.17200000000E+03 0. -1.
         -6    1    1    2    0  501  0.71920217848E+02  0.48558066333E+02  0.70629243651E+02  0.20518989644E+03  0.17200000000E+03 0.  1.
<mgrwt>
<rscale>  2 0.19265099E+03</rscale>
<asrwt>0</asrwt>
<pdfrwt beam="1">  1        1 0.44777996E-01 0.19265099E+03</pdfrwt>
<pdfrwt beam="2">  1       -1 0.73118975E-01 0.19265099E+03</pdfrwt>
<totfact> 0.18209693E+02</totfact>
</mgrwt>
</event>
<event>
 4    1  0.3757815E-001  0.1739870E+03  0.7546771E-02  0.1173753E+00
          1   -1    0    0  502    0  0.00000000000E+00  0.00000000000E+00  0.90389459480E+03  0.90389459480E+03  0.00000000000E+00 0. -1.
         -1   -1    0    0    0  501 -0.00000000000E+00 -0.00000000000E+00 -0.33996851301E+02  0.33996851301E+02  0.00000000000E+00 0.  1.
          6    1    1    2  502    0 -0.23045800891E+02 -0.12504301696E+02  0.37769218623E+03  0.41583993800E+03  0.17200000000E+03 0.  1.
         -6    1    1    2    0  501  0.23045800891E+02  0.12504301696E+02  0.49220555727E+03  0.52205150810E+03  0.17200000000E+03 0. -1.
<mgrwt>
<rscale>  2 0.17398697E+03</rscale>
<asrwt>0</asrwt>
<pdfrwt beam="1">  1        1 0.22597357E+00 0.17398697E+03</pdfrwt>
<pdfrwt beam="2">  1       -1 0.84992158E-02 0.17398697E+03</pdfrwt>
<totfact> 0.59719778E+02</totfact>
</mgrwt>
</event>
<event>
 4    1  0.3757815E-001  0.1985876E+03  0.7546771E-02  0.1150936E+00
         -2   -1    0    0    0  501 -0.00000000000E+00  0.00000000000E+00  0.35408110357E+03  0.35408110357E+03  0.00000000000E+00 0.  1.
          2   -1    0    0  502    0  0.00000000000E+00 -0.00000000000E+00 -0.11420386873E+03  0.11420386873E+03  0.00000000000E+00 0. -1.
          6    1    1    2  502    0  0.88138581949E+02 -0.45657625899E+02  0.83110795832E+02  0.21527757155E+03  0.17200000000E+03 0.  1.
         -6    1    1    2    0  501 -0.88138581949E+02  0.45657625899E+02  0.15676643901E+03  0.25300740074E+03  0.17200000000E+03 0.  1.
<mgrwt>
<rscale>  2 0.19858758E+03</rscale>
<asrwt>0</asrwt>
<pdfrwt beam="1">  1        2 0.28550968E-01 0.19858758E+03</pdfrwt>
<pdfrwt beam="2">  1       -2 0.88520273E-01 0.19858758E+03</pdfrwt>
<totfact> 0.21203736E+02</totfact>
</mgrwt>
</event>
<event>
 4    1  0.3757815E-001  0.2715035E+03  0.7546771E-02  0.1100422E+00
         -2   -1    0    0    0  501 -0.00000000000E+00  0.00000000000E+00  0.11873707023E+03  0.11873707023E+03  0.00000000000E+00 0.  1.
          2   -1    0    0  502    0  0.00000000000E+00 -0.00000000000E+00 -0.62403000572E+03  0.62403000572E+03  0.00000000000E+00 0. -1.
          6    1    1    2  502    0  0.53024296699E+02 -0.20326977165E+03 -0.22600423048E+03  0.35325923668E+03  0.17200000000E+03 0. -1.
         -6    1    1    2    0  501 -0.53024296699E+02  0.20326977165E+03 -0.27928870501E+03  0.38950783927E+03  0.17200000000E+03 0. -1.
<mgrwt>
<rscale>  2 0.27150355E+03</rscale>
<asrwt>0</asrwt>
<pdfrwt beam="1">  1        2 0.15600750E+00 0.27150355E+03</pdfrwt>
<pdfrwt beam="2">  1       -2 0.29684268E-01 0.27150355E+03</pdfrwt>
<totfact> 0.27060631E+02</totfact>
</mgrwt>
</event>
<event>
 4    1  0.3757815E-001  0.2850503E+03  0.7546771E-02  0.1092962E+00
          1   -1    0    0  502    0  0.00000000000E+00  0.00000000000E+00  0.45115856082E+03  0.45115856082E+03  0.00000000000E+00 0. -1.
         -1   -1    0    0    0  501 -0.00000000000E+00 -0.00000000000E+00 -0.31522124474E+03  0.31522124474E+03  0.00000000000E+00 0.  1.
          6    1    1    2  502    0 -0.13382823871E+03 -0.18373810705E+03 -0.18291248472E+03  0.33868963156E+03  0.17200000000E+03 0.  1.
         -6    1    1    2    0  501  0.13382823871E+03  0.18373810705E+03  0.31884980081E+03  0.42769017400E+03  0.17200000000E+03 0. -1.
<mgrwt>
<rscale>  2 0.28505033E+03</rscale>
<asrwt>0</asrwt>
<pdfrwt beam="1">  1        1 0.11278964E+00 0.28505033E+03</pdfrwt>
<pdfrwt beam="2">  1       -1 0.78805312E-01 0.28505033E+03</pdfrwt>
<totfact> 0.44845344E+01</totfact>
</mgrwt>
</event>
<event>
 4    1  0.3757815E-001  0.1810383E+03  0.7546771E-02  0.1166802E+00
          1   -1    0    0  502    0  0.00000000000E+00  0.00000000000E+00  0.57609868081E+03  0.57609868081E+03  0.00000000000E+00 0.  1.
         -1   -1    0    0    0  501 -0.00000000000E+00 -0.00000000000E+00 -0.84038675783E+02  0.84038675783E+02  0.00000000000E+00 0. -1.
          6    1    1    2  502    0 -0.45922674144E+02 -0.32893312900E+02  0.58430968949E+02  0.19023417192E+03  0.17200000000E+03 0. -1.
         -6    1    1    2    0  501  0.45922674144E+02  0.32893312900E+02  0.43362903607E+03  0.46990318467E+03  0.17200000000E+03 0.  1.
<mgrwt>
<rscale>  2 0.18103829E+03</rscale>
<asrwt>0</asrwt>
<pdfrwt beam="1">  1        1 0.14402466E+00 0.18103829E+03</pdfrwt>
<pdfrwt beam="2">  1       -1 0.21009671E-01 0.18103829E+03</pdfrwt>
<totfact> 0.33930582E+02</totfact>
</mgrwt>
</event>
<event>
 4    1  0.3757815E-001  0.1802366E+03  0.7546771E-02  0.1167574E+00
         -2   -1    0    0    0  501 -0.00000000000E+00  0.00000000000E+00  0.11408751176E+03  0.11408751176E+03  0.00000000000E+00 0. -1.
          2   -1    0    0  502    0  0.00000000000E+00 -0.00000000000E+00 -0.42766937608E+03  0.42766937608E+03  0.00000000000E+00 0.  1.
          6    1    1    2  502    0  0.15776223548E+02  0.51501029226E+02 -0.31338725359E+03  0.36152014599E+03  0.17200000000E+03 0.  1.
         -6    1    1    2    0  501 -0.15776223548E+02 -0.51501029226E+02 -0.19461073497E+00  0.18023674185E+03  0.17200000000E+03 0. -1.
<mgrwt>
<rscale>  2 0.18023664E+03</rscale>
<asrwt>0</asrwt>
<pdfrwt beam="1">  1        2 0.10691734E+00 0.18023664E+03</pdfrwt>
<pdfrwt beam="2">  1       -2 0.28521878E-01 0.18023664E+03</pdfrwt>
<totfact> 0.48004513E+02</totfact>
</mgrwt>
</event>
<event>
 4    1  0.3757815E-001  0.2275477E+03  0.7546771E-02  0.1128378E+00
          2   -1    0    0  502    0  0.00000000000E+00  0.00000000000E+00  0.73730171064E+03  0.73730171064E+03  0.00000000000E+00 0.  1.
         -2   -1    0    0    0  501 -0.00000000000E+00 -0.00000000000E+00 -0.85917628022E+02  0.85917628022E+02  0.00000000000E+00 0. -1.
          6    1    1    2  502    0 -0.14835094889E+03  0.13636144265E+02  0.14978845053E+03  0.27242343581E+03  0.17200000000E+03 0. -1.
         -6    1    1    2    0  501  0.14835094889E+03 -0.13636144265E+02  0.50159563209E+03  0.55079590285E+03  0.17200000000E+03 0.  1.
<mgrwt>
<rscale>  2 0.22754768E+03</rscale>
<asrwt>0</asrwt>
<pdfrwt beam="1">  1        2 0.18432541E+00 0.22754768E+03</pdfrwt>
<pdfrwt beam="2">  1       -2 0.21479409E-01 0.22754768E+03</pdfrwt>
<totfact> 0.37671246E+02</totfact>
</mgrwt>
</event>
<event>
 4    1  0.3757815E-001  0.1751794E+03  0.7546771E-02  0.1172552E+00
         -2   -1    0    0    0  501 -0.00000000000E+00  0.00000000000E+00  0.11477388001E+03  0.11477388001E+03  0.00000000000E+00 0.  1.
          2   -1    0    0  502    0  0.00000000000E+00 -0.00000000000E+00 -0.29039790862E+03  0.29039790862E+03  0.00000000000E+00 0. -1.
          6    1    1    2  502    0  0.10597016016E+02  0.31488604107E+02 -0.14485196998E+03  0.22731018927E+03  0.17200000000E+03 0. -1.
         -6    1    1    2    0  501 -0.10597016016E+02 -0.31488604107E+02 -0.30772058626E+02  0.17786159937E+03  0.17200000000E+03 0.  1.
<mgrwt>
<rscale>  2 0.17517942E+03</rscale>
<asrwt>0</asrwt>
<pdfrwt beam="1">  1        2 0.72599477E-01 0.17517942E+03</pdfrwt>
<pdfrwt beam="2">  1       -2 0.28693470E-01 0.17517942E+03</pdfrwt>
<totfact> 0.73880216E+02</totfact>
</mgrwt>
</event>
<event>
 4    1  0.3757815E-001  0.1802326E+03  0.7546771E-02  0.1167578E+00
         -2   -1    0    0    0  501 -0.00000000000E+00  0.00000000000E+00  0.39741782204E+02  0.39741782204E+02  0.00000000000E+00 0.  1.
          2   -1    0    0  502    0  0.00000000000E+00 -0.00000000000E+00 -0.10439611311E+04  0.10439611311E+04  0.00000000000E+00 0. -1.
          6    1    1    2  502    0  0.50445710360E+02 -0.18841884784E+02 -0.75454982462E+03  0.77577652978E+03  0.17200000000E+03 0. -1.
         -6    1    1    2    0  501 -0.50445710360E+02  0.18841884784E+02 -0.24966952423E+03  0.30792638348E+03  0.17200000000E+03 0. -1.
<mgrwt>
<rscale>  2 0.18023259E+03</rscale>
<asrwt>0</asrwt>
<pdfrwt beam="1">  1        2 0.26099030E+00 0.18023259E+03</pdfrwt>
<pdfrwt beam="2">  1       -2 0.99354449E-02 0.18023259E+03</pdfrwt>
<totfact> 0.73024876E+02</totfact>
</mgrwt>
</event>
<event>
 4    1  0.3757815E-001  0.2603011E+03  0.7546771E-02  0.1106962E+00
         -1   -1    0    0    0  501 -0.00000000000E+00  0.00000000000E+00  0.84631097671E+02  0.84631097671E+02  0.00000000000E+00 0.  1.
          1   -1    0    0  502    0  0.00000000000E+00 -0.00000000000E+00 -0.11033152320E+04  0.11033152320E+04  0.00000000000E+00 0. -1.
          6    1    1    2  502    0 -0.32086939700E+02 -0.19272537922E+03 -0.19822359949E+03  0.32718379986E+03  0.17200000000E+03 0.  1.
         -6    1    1    2    0  501  0.32086939700E+02  0.19272537922E+03 -0.82046053483E+03  0.86076252980E+03  0.17200000000E+03 0. -1.
<mgrwt>
<rscale>  2 0.26030106E+03</rscale>
<asrwt>0</asrwt>
<pdfrwt beam="1">  1        1 0.27582880E+00 0.26030106E+03</pdfrwt>
<pdfrwt beam="2">  1       -1 0.21157775E-01 0.26030106E+03</pdfrwt>
<totfact> 0.85500951E+01</totfact>
</mgrwt>
</event>
<event>
 4    1  0.3757815E-001  0.1970417E+03  0.7546771E-02  0.1152259E+00
          1   -1    0    0  502    0  0.00000000000E+00  0.00000000000E+00  0.75112237496E+03  0.75112237496E+03  0.00000000000E+00 0.  1.
         -1   -1    0    0    0  501 -0.00000000000E+00 -0.00000000000E+00 -0.78133538872E+02  0.78133538872E+02  0.00000000000E+00 0. -1.
          6    1    1    2  502    0 -0.21927201367E+02 -0.93598205320E+02  0.57770735620E+03  0.61038612010E+03  0.17200000000E+03 0.  1.
         -6    1    1    2    0  501  0.21927201367E+02  0.93598205320E+02  0.95281479883E+02  0.21886979373E+03  0.17200000000E+03 0. -1.
<mgrwt>
<rscale>  2 0.19704169E+03</rscale>
<asrwt>0</asrwt>
<pdfrwt beam="1">  1        1 0.18778057E+00 0.19704169E+03</pdfrwt>
<pdfrwt beam="2">  1       -1 0.19533387E-01 0.19704169E+03</pdfrwt>
<totfact> 0.23734729E+02</totfact>
</mgrwt>
</event>
<event>
 4    1  0.3757815E-001  0.1877897E+03  0.7546771E-02  0.1160470E+00
         -2   -1    0    0    0  501 -0.00000000000E+00  0.00000000000E+00  0.58292962107E+02  0.58292962107E+02  0.00000000000E+00 0.  1.
          2   -1    0    0  502    0  0.00000000000E+00 -0.00000000000E+00 -0.64353182313E+03  0.64353182313E+03  0.00000000000E+00 0. -1.
          6    1    1    2  502    0  0.37333031469E+02  0.65476703428E+02 -0.37852959822E+03  0.42255131127E+03  0.17200000000E+03 0.  1.
         -6    1    1    2    0  501 -0.37333031469E+02 -0.65476703428E+02 -0.20670926280E+03  0.27927347396E+03  0.17200000000E+03 0. -1.
<mgrwt>
<rscale>  2 0.18778965E+03</rscale>
<asrwt>0</asrwt>
<pdfrwt beam="1">  1        2 0.16088295E+00 0.18778965E+03</pdfrwt>
<pdfrwt beam="2">  1       -2 0.14573241E-01 0.18778965E+03</pdfrwt>
<totfact> 0.89010629E+02</totfact>
</mgrwt>
</event>
<event>
 4    1  0.3757815E-001  0.2094810E+03  0.7546771E-02  0.1141978E+00
         -1   -1    0    0    0  501 -0.00000000000E+00  0.00000000000E+00  0.11555652708E+03  0.11555652708E+03  0.00000000000E+00 0.  1.
          1   -1    0    0  502    0  0.00000000000E+00 -0.00000000000E+00 -0.77226236393E+03  0.77226236393E+03  0.00000000000E+00 0. -1.
          6    1    1    2  502    0  0.94479577200E+02 -0.73293276332E+02 -0.11877458153E+02  0.20981746561E+03  0.17200000000E+03 0.  1.
         -6    1    1    2    0  501 -0.94479577200E+02  0.73293276332E+02 -0.64482837870E+03  0.67800142540E+03  0.17200000000E+03 0.  1.
<mgrwt>
<rscale>  2 0.20948101E+03</rscale>
<asrwt>0</asrwt>
<pdfrwt beam="1">  1        1 0.19306559E+00 0.20948101E+03</pdfrwt>
<pdfrwt beam="2">  1       -1 0.28889132E-01 0.20948101E+03</pdfrwt>
<totfact> 0.11742354E+02</totfact>
</mgrwt>
</event>
<event>
 4    1  0.3757815E-001  0.2287056E+03  0.7546771E-02  0.1127554E+00
          2   -1    0    0  502    0  0.00000000000E+00  0.00000000000E+00  0.19022977071E+03  0.19022977071E+03  0.00000000000E+00 0. -1.
         -2   -1    0    0    0  501 -0.00000000000E+00 -0.00000000000E+00 -0.44514529064E+03  0.44514529064E+03  0.00000000000E+00 0.  1.
          6    1    1    2  502    0  0.15013727905E+03  0.13454967686E+02 -0.32388687243E+03  0.39649583207E+03  0.17200000000E+03 0.  1.
         -6    1    1    2    0  501 -0.15013727905E+03 -0.13454967686E+02  0.68971352505E+02  0.23887922928E+03  0.17200000000E+03 0. -1.
<mgrwt>
<rscale>  2 0.22870557E+03</rscale>
<asrwt>0</asrwt>
<pdfrwt beam="1">  1        2 0.47557443E-01 0.22870557E+03</pdfrwt>
<pdfrwt beam="2">  1       -2 0.11128632E+00 0.22870557E+03</pdfrwt>
<totfact> 0.71551513E+01</totfact>
</mgrwt>
</event>
<event>
 4    1  0.3757815E-001  0.2777024E+03  0.7546771E-02  0.1096950E+00
         -1   -1    0    0    0  501 -0.00000000000E+00  0.00000000000E+00  0.83947279752E+02  0.83947279752E+02  0.00000000000E+00 0. -1.
          1   -1    0    0  502    0  0.00000000000E+00 -0.00000000000E+00 -0.97147723630E+03  0.97147723630E+03  0.00000000000E+00 0.  1.
          6    1    1    2  502    0  0.14558504975E+03 -0.16229492367E+03 -0.32071365499E+03  0.42423566264E+03  0.17200000000E+03 0.  1.
         -6    1    1    2    0  501 -0.14558504975E+03  0.16229492367E+03 -0.56681630156E+03  0.63118885342E+03  0.17200000000E+03 0. -1.
<mgrwt>
<rscale>  2 0.27770245E+03</rscale>
<asrwt>0</asrwt>
<pdfrwt beam="1">  1        1 0.24286931E+00 0.27770245E+03</pdfrwt>
<pdfrwt beam="2">  1       -1 0.20986820E-01 0.27770245E+03</pdfrwt>
<totfact> 0.11907013E+02</totfact>
</mgrwt>
</event>
<event>
 4    1  0.3757815E-001  0.1905734E+03  0.7546771E-02  0.1157945E+00
          1   -1    0    0  502    0  0.00000000000E+00  0.00000000000E+00  0.76964864975E+03  0.76964864975E+03  0.00000000000E+00 0. -1.
         -1   -1    0    0    0  501 -0.00000000000E+00 -0.00000000000E+00 -0.50966154886E+02  0.50966154886E+02  0.00000000000E+00 0.  1.
          6    1    1    2  502    0 -0.77540729737E+02  0.26863423067E+02  0.47105489225E+03  0.50814458550E+03  0.17200000000E+03 0. -1.
         -6    1    1    2    0  501  0.77540729737E+02 -0.26863423067E+02  0.24762760262E+03  0.31247021914E+03  0.17200000000E+03 0.  1.
<mgrwt>
<rscale>  2 0.19057337E+03</rscale>
<asrwt>0</asrwt>
<pdfrwt beam="1">  1        1 0.19241213E+00 0.19057337E+03</pdfrwt>
<pdfrwt beam="2">  1       -1 0.12741541E-01 0.19057337E+03</pdfrwt>
<totfact> 0.44655342E+02</totfact>
</mgrwt>
</event>
<event>
 4    1  0.3757815E-001  0.1997248E+03  0.7546771E-02  0.1149971E+00
         -2   -1    0    0    0  501 -0.00000000000E+00  0.00000000000E+00  0.19438673494E+03  0.19438673494E+03  0.00000000000E+00 0.  1.
          2   -1    0    0  502    0  0.00000000000E+00 -0.00000000000E+00 -0.20751702161E+03  0.20751702161E+03  0.00000000000E+00 0. -1.
          6    1    1    2  502    0 -0.76740218038E+02  0.66459989694E+02  0.14625521229E+02  0.20025957447E+03  0.17200000000E+03 0.  1.
         -6    1    1    2    0  501  0.76740218038E+02 -0.66459989694E+02 -0.27755807898E+02  0.20164418208E+03  0.17200000000E+03 0.  1.
<mgrwt>
<rscale>  2 0.19972479E+03</rscale>
<asrwt>0</asrwt>
<pdfrwt beam="1">  1        2 0.51879255E-01 0.19972479E+03</pdfrwt>
<pdfrwt beam="2">  1       -2 0.48596684E-01 0.19972479E+03</pdfrwt>
<totfact> 0.39426650E+02</totfact>
</mgrwt>
</event>
<event>
 4    1  0.3757815E-001  0.1965640E+03  0.7546771E-02  0.1152671E+00
          2   -1    0    0  502    0  0.00000000000E+00  0.00000000000E+00  0.17091322017E+04  0.17091322017E+04  0.00000000000E+00 0.  1.
         -2   -1    0    0    0  501 -0.00000000000E+00 -0.00000000000E+00 -0.23013913651E+02  0.23013913651E+02  0.00000000000E+00 0. -1.
          6    1    1    2  502    0 -0.85138767412E+02 -0.42482936823E+02  0.72781885040E+03  0.75389501168E+03  0.17200000000E+03 0.  1.
         -6    1    1    2    0  501  0.85138767412E+02  0.42482936823E+02  0.95829943765E+03  0.97825110367E+03  0.17200000000E+03 0. -1.
<mgrwt>
<rscale>  2 0.19656401E+03</rscale>
<asrwt>0</asrwt>
<pdfrwt beam="1">  1        2 0.42728262E+00 0.19656401E+03</pdfrwt>
<pdfrwt beam="2">  1       -2 0.57534842E-02 0.19656401E+03</pdfrwt>
<totfact> 0.45255497E+02</totfact>
</mgrwt>
</event>
<event>
 4    1  0.3757815E-001  0.1734429E+03  0.7546771E-02  0.1174304E+00
         -2   -1    0    0    0  501 -0.00000000000E+00  0.00000000000E+00  0.58509401645E+02  0.58509401645E+02  0.00000000000E+00 0. -1.
          2   -1    0    0  502    0  0.00000000000E+00 -0.00000000000E+00 -0.80439724048E+03  0.80439724048E+03  0.00000000000E+00 0.  1.
          6    1    1    2  502    0  0.22009689470E+02 -0.37453735816E+01 -0.11377402202E+03  0.20742946353E+03  0.17200000000E+03 0. -1.
         -6    1    1    2    0  501 -0.22009689470E+02  0.37453735816E+01 -0.63211381681E+03  0.65547717860E+03  0.17200000000E+03 0.  1.
<mgrwt>
<rscale>  2 0.17344294E+03</rscale>
<asrwt>0</asrwt>
<pdfrwt beam="1">  1        2 0.20109931E+00 0.17344294E+03</pdfrwt>
<pdfrwt beam="2">  1       -2 0.14627351E-01 0.17344294E+03</pdfrwt>
<totfact> 0.63015885E+02</totfact>
</mgrwt>
</event>
<event>
 4    1  0.3757815E-001  0.1765052E+03  0.7546771E-02  0.1171229E+00
          2   -1    0    0  502    0  0.00000000000E+00  0.00000000000E+00  0.50772104347E+03  0.50772104347E+03  0.00000000000E+00 0. -1.
         -2   -1    0    0    0  501 -0.00000000000E+00 -0.00000000000E+00 -0.71461912095E+02  0.71461912095E+02  0.00000000000E+00 0.  1.
          6    1    1    2  502    0  0.26759499188E+02 -0.29223625132E+02  0.10925250866E+03  0.20758179523E+03  0.17200000000E+03 0.  1.
         -6    1    1    2    0  501 -0.26759499188E+02  0.29223625132E+02  0.32700662272E+03  0.37160116034E+03  0.17200000000E+03 0. -1.
<mgrwt>
<rscale>  2 0.17650522E+03</rscale>
<asrwt>0</asrwt>
<pdfrwt beam="1">  1        2 0.12693025E+00 0.17650522E+03</pdfrwt>
<pdfrwt beam="2">  1       -2 0.17865480E-01 0.17650522E+03</pdfrwt>
<totfact> 0.87376056E+02</totfact>
</mgrwt>
</event>
<event>
 4    1  0.3757815E-001  0.1912475E+03  0.7546771E-02  0.1157341E+00
          1   -1    0    0  502    0  0.00000000000E+00  0.00000000000E+00  0.28092503465E+03  0.28092503465E+03  0.00000000000E+00 0.  1.
         -1   -1    0    0    0  501 -0.00000000000E+00 -0.00000000000E+00 -0.14231943748E+03  0.14231943748E+03  0.00000000000E+00 0. -1.
          6    1    1    2  502    0 -0.57595507784E+02 -0.60616454644E+02  0.13106519572E+03  0.23184840439E+03  0.17200000000E+03 0. -1.
         -6    1    1    2    0  501  0.57595507784E+02  0.60616454644E+02  0.75404014567E+01  0.19139606774E+03  0.17200000000E+03 0. -1.
<mgrwt>
<rscale>  2 0.19124748E+03</rscale>
<asrwt>0</asrwt>
<pdfrwt beam="1">  1        1 0.70231258E-01 0.19124748E+03</pdfrwt>
<pdfrwt beam="2">  1       -1 0.35579860E-01 0.19124748E+03</pdfrwt>
<totfact> 0.39213369E+02</totfact>
</mgrwt>
</event>
<event>
 4    1  0.3757815E-001  0.1989152E+03  0.7546771E-02  0.1150658E+00
          2   -1    0    0  502    0  0.00000000000E+00  0.00000000000E+00  0.13878572256E+03  0.13878572256E+03  0.00000000000E+00 0. -1.
         -2   -1    0    0    0  501 -0.00000000000E+00 -0.00000000000E+00 -0.47215479452E+03  0.47215479452E+03  0.00000000000E+00 0.  1.
          6    1    1    2  502    0 -0.99433619972E+02 -0.98084869908E+01 -0.35895643799E+03  0.41038637352E+03  0.17200000000E+03 0.  1.
         -6    1    1    2    0  501  0.99433619972E+02  0.98084869908E+01  0.25587366034E+02  0.20055414356E+03  0.17200000000E+03 0. -1.
<mgrwt>
<rscale>  2 0.19891519E+03</rscale>
<asrwt>0</asrwt>
<pdfrwt beam="1">  1        2 0.34696431E-01 0.19891519E+03</pdfrwt>
<pdfrwt beam="2">  1       -2 0.11803870E+00 0.19891519E+03</pdfrwt>
<totfact> 0.87680631E+01</totfact>
</mgrwt>
</event>
<event>
 4    1  0.3757815E-001  0.1996366E+03  0.7546771E-02  0.1150046E+00
         -2   -1    0    0    0  501 -0.00000000000E+00  0.00000000000E+00  0.52636314993E+02  0.52636314993E+02  0.00000000000E+00 0.  1.
          2   -1    0    0  502    0  0.00000000000E+00 -0.00000000000E+00 -0.10895326856E+04  0.10895326856E+04  0.00000000000E+00 0. -1.
          6    1    1    2  502    0  0.66475900699E+02 -0.76496453619E+02 -0.83386508180E+03  0.85742972158E+03  0.17200000000E+03 0. -1.
         -6    1    1    2    0  501 -0.66475900699E+02  0.76496453619E+02 -0.20303128885E+03  0.28473927906E+03  0.17200000000E+03 0. -1.
<mgrwt>
<rscale>  2 0.19963655E+03</rscale>
<asrwt>0</asrwt>
<pdfrwt beam="1">  1        2 0.27238317E+00 0.19963655E+03</pdfrwt>
<pdfrwt beam="2">  1       -2 0.13159079E-01 0.19963655E+03</pdfrwt>
<totfact> 0.42441437E+02</totfact>
</mgrwt>
</event>
<event>
 4    1  0.3757815E-001  0.2502460E+03  0.7546771E-02  0.1113149E+00
          2   -1    0    0  502    0  0.00000000000E+00  0.00000000000E+00  0.67424410425E+03  0.67424410425E+03  0.00000000000E+00 0. -1.
         -2   -1    0    0    0  501 -0.00000000000E+00 -0.00000000000E+00 -0.92947703544E+02  0.92947703544E+02  0.00000000000E+00 0.  1.
          6    1    1    2  502    0 -0.15323579978E+03  0.97764229849E+02  0.28021205319E+03  0.37568850092E+03  0.17200000000E+03 0. -1.
         -6    1    1    2    0  501  0.15323579978E+03 -0.97764229849E+02  0.30108434752E+03  0.39150330687E+03  0.17200000000E+03 0. -1.
<mgrwt>
<rscale>  2 0.25024599E+03</rscale>
<asrwt>0</asrwt>
<pdfrwt beam="1">  1        2 0.16856101E+00 0.25024599E+03</pdfrwt>
<pdfrwt beam="2">  1       -2 0.23236928E-01 0.25024599E+03</pdfrwt>
<totfact> 0.37529431E+02</totfact>
</mgrwt>
</event>
<event>
 4    1  0.3757815E-001  0.2236556E+03  0.7546771E-02  0.1131187E+00
          2   -1    0    0  502    0  0.00000000000E+00  0.00000000000E+00  0.53226834679E+02  0.53226834679E+02  0.00000000000E+00 0. -1.
         -2   -1    0    0    0  501 -0.00000000000E+00 -0.00000000000E+00 -0.98033759456E+03  0.98033759456E+03  0.00000000000E+00 0.  1.
          6    1    1    2  502    0  0.51533922401E+01  0.14286806747E+03 -0.35845049933E+03  0.42250278416E+03  0.17200000000E+03 0. -1.
         -6    1    1    2    0  501 -0.51533922401E+01 -0.14286806747E+03 -0.56866026056E+03  0.61106164508E+03  0.17200000000E+03 0.  1.
<mgrwt>
<rscale>  2 0.22365563E+03</rscale>
<asrwt>0</asrwt>
<pdfrwt beam="1">  1        2 0.13306708E-01 0.22365563E+03</pdfrwt>
<pdfrwt beam="2">  1       -2 0.24508440E+00 0.22365563E+03</pdfrwt>
<totfact> 0.34861331E+01</totfact>
</mgrwt>
</event>
<event>
 4    1  0.3757815E-001  0.2150896E+03  0.7546771E-02  0.1137598E+00
         -2   -1    0    0    0  501 -0.00000000000E+00  0.00000000000E+00  0.14608248782E+03  0.14608248782E+03  0.00000000000E+00 0. -1.
          2   -1    0    0  502    0  0.00000000000E+00 -0.00000000000E+00 -0.36522312696E+03  0.36522312696E+03  0.00000000000E+00 0.  1.
          6    1    1    2  502    0 -0.83254270543E+02 -0.98733311442E+02 -0.20276042925E+03  0.29559318670E+03  0.17200000000E+03 0.  1.
         -6    1    1    2    0  501  0.83254270543E+02  0.98733311442E+02 -0.16380209896E+02  0.21571242808E+03  0.17200000000E+03 0. -1.
<mgrwt>
<rscale>  2 0.21508961E+03</rscale>
<asrwt>0</asrwt>
<pdfrwt beam="1">  1        2 0.91305781E-01 0.21508961E+03</pdfrwt>
<pdfrwt beam="2">  1       -2 0.36520622E-01 0.21508961E+03</pdfrwt>
<totfact> 0.36627357E+02</totfact>
</mgrwt>
</event>
<event>
 4    1  0.3757815E-001  0.1854611E+03  0.7546771E-02  0.1162620E+00
         -1   -1    0    0    0  501 -0.00000000000E+00  0.00000000000E+00  0.48796614236E+02  0.48796614236E+02  0.00000000000E+00 0. -1.
          1   -1    0    0  502    0  0.00000000000E+00 -0.00000000000E+00 -0.76575966577E+03  0.76575966577E+03  0.00000000000E+00 0.  1.
          6    1    1    2  502    0  0.41767504276E+02 -0.55383255962E+02 -0.24364614286E+03  0.30620135921E+03  0.17200000000E+03 0. -1.
         -6    1    1    2    0  501 -0.41767504276E+02  0.55383255962E+02 -0.47331690867E+03  0.50835492079E+03  0.17200000000E+03 0.  1.
<mgrwt>
<rscale>  2 0.18546113E+03</rscale>
<asrwt>0</asrwt>
<pdfrwt beam="1">  1        1 0.19143991E+00 0.18546113E+03</pdfrwt>
<pdfrwt beam="2">  1       -1 0.12199154E-01 0.18546113E+03</pdfrwt>
<totfact> 0.48305663E+02</totfact>
</mgrwt>
</event>
<event>
 4    1  0.3757815E-001  0.2063698E+03  0.7546771E-02  0.1144473E+00
          2   -1    0    0  502    0  0.00000000000E+00  0.00000000000E+00  0.13908255953E+03  0.13908255953E+03  0.00000000000E+00 0.  1.
         -2   -1    0    0    0  501 -0.00000000000E+00 -0.00000000000E+00 -0.31062006225E+03  0.31062006225E+03  0.00000000000E+00 0. -1.
          6    1    1    2  502    0 -0.13580205293E+02 -0.11322576716E+03 -0.58977443848E+02  0.21463185972E+03  0.17200000000E+03 0.  1.
         -6    1    1    2    0  501  0.13580205293E+02  0.11322576716E+03 -0.11256005888E+03  0.23507076206E+03  0.17200000000E+03 0. -1.
<mgrwt>
<rscale>  2 0.20636980E+03</rscale>
<asrwt>0</asrwt>
<pdfrwt beam="1">  1        2 0.34770640E-01 0.20636980E+03</pdfrwt>
<pdfrwt beam="2">  1       -2 0.77655015E-01 0.20636980E+03</pdfrwt>
<totfact> 0.22859589E+02</totfact>
</mgrwt>
</event>
<event>
 4    1  0.3757815E-001  0.1885012E+03  0.7546771E-02  0.1159820E+00
         -1   -1    0    0    0  501 -0.00000000000E+00  0.00000000000E+00  0.86372882353E+02  0.86372882353E+02  0.00000000000E+00 0. -1.
          1   -1    0    0  502    0  0.00000000000E+00 -0.00000000000E+00 -0.42348908908E+03  0.42348908908E+03  0.00000000000E+00 0.  1.
          6    1    1    2  502    0  0.73747686756E+02 -0.22583002841E+02 -0.21165291246E+03  0.28342489071E+03  0.17200000000E+03 0. -1.
         -6    1    1    2    0  501 -0.73747686756E+02  0.22583002841E+02 -0.12546329427E+03  0.22643708073E+03  0.17200000000E+03 0. -1.
<mgrwt>
<rscale>  2 0.18850123E+03</rscale>
<asrwt>0</asrwt>
<pdfrwt beam="1">  1        1 0.10587227E+00 0.18850123E+03</pdfrwt>
<pdfrwt beam="2">  1       -1 0.21593221E-01 0.18850123E+03</pdfrwt>
<totfact> 0.51937406E+02</totfact>
</mgrwt>
</event>
<event>
 4    1  0.3757815E-001  0.2451174E+03  0.7546771E-02  0.1116430E+00
         -2   -1    0    0    0  501 -0.00000000000E+00  0.00000000000E+00  0.57865459969E+02  0.57865459969E+02  0.00000000000E+00 0. -1.
          2   -1    0    0  502    0  0.00000000000E+00 -0.00000000000E+00 -0.12434548654E+04  0.12434548654E+04  0.00000000000E+00 0.  1.
          6    1    1    2  502    0 -0.70630358410E+02 -0.15971810136E+03 -0.32851412025E+03  0.40988296699E+03  0.17200000000E+03 0. -1.
         -6    1    1    2    0  501  0.70630358410E+02  0.15971810136E+03 -0.85707528521E+03  0.89143735840E+03  0.17200000000E+03 0.  1.
<mgrwt>
<rscale>  2 0.24511736E+03</rscale>
<asrwt>0</asrwt>
<pdfrwt beam="1">  1        2 0.31086370E+00 0.24511736E+03</pdfrwt>
<pdfrwt beam="2">  1       -2 0.14466366E-01 0.24511736E+03</pdfrwt>
<totfact> 0.26621843E+02</totfact>
</mgrwt>
</event>
<event>
 4    1  0.3757815E-001  0.1967696E+03  0.7546771E-02  0.1152493E+00
         -1   -1    0    0    0  501 -0.00000000000E+00  0.00000000000E+00  0.24993394637E+03  0.24993394637E+03  0.00000000000E+00 0.  1.
          1   -1    0    0  502    0  0.00000000000E+00 -0.00000000000E+00 -0.16267403593E+03  0.16267403593E+03  0.00000000000E+00 0. -1.
          6    1    1    2  502    0  0.40314116944E+02  0.86654687846E+02 -0.14289742724E+01  0.19677475681E+03  0.17200000000E+03 0. -1.
         -6    1    1    2    0  501 -0.40314116944E+02 -0.86654687846E+02  0.88688884714E+02  0.21583322548E+03  0.17200000000E+03 0. -1.
<mgrwt>
<rscale>  2 0.19676957E+03</rscale>
<asrwt>0</asrwt>
<pdfrwt beam="1">  1        1 0.40668509E-01 0.19676957E+03</pdfrwt>
<pdfrwt beam="2">  1       -1 0.62483486E-01 0.19676957E+03</pdfrwt>
<totfact> 0.27989710E+02</totfact>
</mgrwt>
</event>
<event>
 4    1  0.3757815E-001  0.2886882E+03  0.7546771E-02  0.1091036E+00
         -2   -1    0    0    0  501 -0.00000000000E+00  0.00000000000E+00  0.55420809393E+02  0.55420809393E+02  0.00000000000E+00 0. -1.
          2   -1    0    0  502    0  0.00000000000E+00 -0.00000000000E+00 -0.15796496439E+04  0.15796496439E+04  0.00000000000E+00 0.  1.
          6    1    1    2  502    0 -0.36099981070E+02  0.22902762215E+03 -0.58294987044E+03  0.65051626558E+03  0.17200000000E+03 0. -1.
         -6    1    1    2    0  501  0.36099981070E+02 -0.22902762215E+03 -0.94127896404E+03  0.98455418769E+03  0.17200000000E+03 0.  1.
<mgrwt>
<rscale>  2 0.28868817E+03</rscale>
<asrwt>0</asrwt>
<pdfrwt beam="1">  1        2 0.39491241E+00 0.28868817E+03</pdfrwt>
<pdfrwt beam="2">  1       -2 0.13855202E-01 0.28868817E+03</pdfrwt>
<totfact> 0.14371534E+02</totfact>
</mgrwt>
</event>
<event>
 4    1  0.3757815E-001  0.1764537E+03  0.7546771E-02  0.1171280E+00
         -2   -1    0    0    0  501 -0.00000000000E+00  0.00000000000E+00  0.19491512023E+03  0.19491512023E+03  0.00000000000E+00 0.  1.
          2   -1    0    0  502    0  0.00000000000E+00 -0.00000000000E+00 -0.19293201905E+03  0.19293201905E+03  0.00000000000E+00 0. -1.
          6    1    1    2  502    0  0.17066664400E+02 -0.35505557039E+02 -0.79442405027E+02  0.19351230279E+03  0.17200000000E+03 0. -1.
         -6    1    1    2    0  501 -0.17066664400E+02  0.35505557039E+02  0.81425506198E+02  0.19433483649E+03  0.17200000000E+03 0.  1.
<mgrwt>
<rscale>  2 0.17645372E+03</rscale>
<asrwt>0</asrwt>
<pdfrwt beam="1">  1        2 0.48233005E-01 0.17645372E+03</pdfrwt>
<pdfrwt beam="2">  1       -2 0.48728780E-01 0.17645372E+03</pdfrwt>
<totfact> 0.42410604E+02</totfact>
</mgrwt>
</event>
<event>
 4    1  0.3757815E-001  0.1930126E+03  0.7546771E-02  0.1155772E+00
         -2   -1    0    0    0  501 -0.00000000000E+00  0.00000000000E+00  0.32295209578E+02  0.32295209578E+02  0.00000000000E+00 0.  1.
          2   -1    0    0  502    0  0.00000000000E+00 -0.00000000000E+00 -0.12513922304E+04  0.12513922304E+04  0.00000000000E+00 0. -1.
          6    1    1    2  502    0  0.80024424978E+02  0.35580127103E+02 -0.43006881499E+03  0.47139478111E+03  0.17200000000E+03 0.  1.
         -6    1    1    2    0  501 -0.80024424978E+02 -0.35580127103E+02 -0.78902820580E+03  0.81229265883E+03  0.17200000000E+03 0. -1.
<mgrwt>
<rscale>  2 0.19301257E+03</rscale>
<asrwt>0</asrwt>
<pdfrwt beam="1">  1        2 0.31284805E+00 0.19301257E+03</pdfrwt>
<pdfrwt beam="2">  1       -2 0.80738025E-02 0.19301257E+03</pdfrwt>
<totfact> 0.67479048E+02</totfact>
</mgrwt>
</event>
<event>
 4    1  0.3757815E-001  0.2135214E+03  0.7546771E-02  0.1138807E+00
          1   -1    0    0  502    0  0.00000000000E+00  0.00000000000E+00  0.17238460896E+03  0.17238460896E+03  0.00000000000E+00 0. -1.
         -1   -1    0    0    0  501 -0.00000000000E+00 -0.00000000000E+00 -0.28610130524E+03  0.28610130524E+03  0.00000000000E+00 0.  1.
          6    1    1    2  502    0 -0.25949351263E+02 -0.12383068036E+03  0.61688522942E+01  0.21361053572E+03  0.17200000000E+03 0. -1.
         -6    1    1    2    0  501  0.25949351263E+02  0.12383068036E+03 -0.11988554858E+03  0.24487537848E+03  0.17200000000E+03 0. -1.
<mgrwt>
<rscale>  2 0.21352144E+03</rscale>
<asrwt>0</asrwt>
<pdfrwt beam="1">  1        1 0.43096152E-01 0.21352144E+03</pdfrwt>
<pdfrwt beam="2">  1       -1 0.71525326E-01 0.21352144E+03</pdfrwt>
<totfact> 0.19911236E+02</totfact>
</mgrwt>
</event>
<event>
 4    1  0.3757815E-001  0.2168949E+03  0.7546771E-02  0.1136219E+00
          2   -1    0    0  502    0  0.00000000000E+00  0.00000000000E+00  0.33378101111E+04  0.33378101111E+04  0.00000000000E+00 0. -1.
         -2   -1    0    0    0  501 -0.00000000000E+00 -0.00000000000E+00 -0.15019720886E+02  0.15019720886E+02  0.00000000000E+00 0.  1.
          6    1    1    2  502    0 -0.14463338176E+02  0.13134010954E+03  0.20775628760E+04  0.20888539719E+04  0.17200000000E+03 0. -1.
         -6    1    1    2    0  501  0.14463338176E+02 -0.13134010954E+03  0.12452275143E+04  0.12639758601E+04  0.17200000000E+03 0. -1.
<mgrwt>
<rscale>  2 0.21689493E+03</rscale>
<asrwt>0</asrwt>
<pdfrwt beam="1">  1        2 0.83444999E+00 0.21689493E+03</pdfrwt>
<pdfrwt beam="2">  1       -2 0.37549416E-02 0.21689493E+03</pdfrwt>
<totfact> 0.41220685E+00</totfact>
</mgrwt>
</event>
<event>
 4    1  0.3757815E-001  0.1781900E+03  0.7546771E-02  0.1169566E+00
         -2   -1    0    0    0  501 -0.00000000000E+00  0.00000000000E+00  0.20640210782E+02  0.20640210782E+02  0.00000000000E+00 0. -1.
          2   -1    0    0  502    0  0.00000000000E+00 -0.00000000000E+00 -0.16580148430E+04  0.16580148430E+04  0.00000000000E+00 0.  1.
          6    1    1    2  502    0 -0.66764769324E+01  0.46077183022E+02 -0.59319231979E+03  0.61937776066E+03  0.17200000000E+03 0. -1.
         -6    1    1    2    0  501  0.66764769324E+01 -0.46077183022E+02 -0.10441823124E+04  0.10592772931E+04  0.17200000000E+03 0. -1.
<mgrwt>
<rscale>  2 0.17819002E+03</rscale>
<asrwt>0</asrwt>
<pdfrwt beam="1">  1        2 0.41450360E+00 0.17819002E+03</pdfrwt>
<pdfrwt beam="2">  1       -2 0.51600540E-02 0.17819002E+03</pdfrwt>
<totfact> 0.59772912E+02</totfact>
</mgrwt>
</event>
<event>
 4    1  0.3757815E-001  0.1930297E+03  0.7546771E-02  0.1155757E+00
         -2   -1    0    0    0  501 -0.00000000000E+00  0.00000000000E+00  0.26885434654E+02  0.26885434654E+02  0.00000000000E+00 0.  1.
          2   -1    0    0  502    0  0.00000000000E+00 -0.00000000000E+00 -0.13862054254E+04  0.13862054254E+04  0.00000000000E+00 0. -1.
          6    1    1    2  502    0 -0.85771065360E+02  0.17882583241E+02 -0.66913316017E+03  0.69641916148E+03  0.17200000000E+03 0.  1.
         -6    1    1    2    0  501  0.85771065360E+02 -0.17882583241E+02 -0.69018683058E+03  0.71667169858E+03  0.17200000000E+03 0. -1.
<mgrwt>
<rscale>  2 0.19302969E+03</rscale>
<asrwt>0</asrwt>
<pdfrwt beam="1">  1        2 0.34655135E+00 0.19302969E+03</pdfrwt>
<pdfrwt beam="2">  1       -2 0.67213589E-02 0.19302969E+03</pdfrwt>
<totfact> 0.68835928E+02</totfact>
</mgrwt>
</event>
<event>
 4    1  0.3757815E-001  0.1791882E+03  0.7546771E-02  0.1168591E+00
          2   -1    0    0  502    0  0.00000000000E+00  0.00000000000E+00  0.43676357160E+03  0.43676357160E+03  0.00000000000E+00 0.  1.
         -2   -1    0    0    0  501 -0.00000000000E+00 -0.00000000000E+00 -0.73634723459E+02  0.73634723459E+02  0.00000000000E+00 0. -1.
          6    1    1    2  502    0 -0.18903205602E+01 -0.50208119828E+02  0.19187882545E+03  0.26253744926E+03  0.17200000000E+03 0.  1.
         -6    1    1    2    0  501  0.18903205602E+01  0.50208119828E+02  0.17125002269E+03  0.24786084580E+03  0.17200000000E+03 0. -1.
<mgrwt>
<rscale>  2 0.17918825E+03</rscale>
<asrwt>0</asrwt>
<pdfrwt beam="1">  1        2 0.10919089E+00 0.17918825E+03</pdfrwt>
<pdfrwt beam="2">  1       -2 0.18408682E-01 0.17918825E+03</pdfrwt>
<totfact> 0.10010526E+03</totfact>
</mgrwt>
</event>
<event>
 4    1  0.3757815E-001  0.2286898E+03  0.7546771E-02  0.1127565E+00
         -2   -1    0    0    0  501 -0.00000000000E+00  0.00000000000E+00  0.20144242054E+03  0.20144242054E+03  0.00000000000E+00 0. -1.
          2   -1    0    0  502    0  0.00000000000E+00 -0.00000000000E+00 -0.41889029525E+03  0.41889029525E+03  0.00000000000E+00 0.  1.
          6    1    1    2  502    0 -0.83941386090E+02 -0.12517543299E+03  0.82529000717E+02  0.24312564916E+03  0.17200000000E+03 0. -1.
         -6    1    1    2    0  501  0.83941386090E+02  0.12517543299E+03 -0.29997687543E+03  0.37720706663E+03  0.17200000000E+03 0.  1.
<mgrwt>
<rscale>  2 0.22868985E+03</rscale>
<asrwt>0</asrwt>
<pdfrwt beam="1">  1        2 0.10472257E+00 0.22868985E+03</pdfrwt>
<pdfrwt beam="2">  1       -2 0.50360606E-01 0.22868985E+03</pdfrwt>
<totfact> 0.16702033E+02</totfact>
</mgrwt>
</event>
<event>
 4    1  0.3757815E-001  0.1850220E+03  0.7546771E-02  0.1163029E+00
          1   -1    0    0  502    0  0.00000000000E+00  0.00000000000E+00  0.75292692750E+03  0.75292692750E+03  0.00000000000E+00 0. -1.
         -1   -1    0    0    0  501 -0.00000000000E+00 -0.00000000000E+00 -0.14384564664E+03  0.14384564664E+03  0.00000000000E+00 0.  1.
          6    1    1    2  502    0 -0.16072294321E+01  0.68165634824E+02  0.67535363463E+03  0.70023972236E+03  0.17200000000E+03 0. -1.
         -6    1    1    2    0  501  0.16072294321E+01 -0.68165634824E+02 -0.66272353772E+02  0.19653285179E+03  0.17200000000E+03 0.  1.
<mgrwt>
<rscale>  2 0.18502199E+03</rscale>
<asrwt>0</asrwt>
<pdfrwt beam="1">  1        1 0.18823172E+00 0.18502199E+03</pdfrwt>
<pdfrwt beam="2">  1       -1 0.35961414E-01 0.18502199E+03</pdfrwt>
<totfact> 0.85519096E+01</totfact>
</mgrwt>
</event>
<event>
 4    1  0.3757815E-001  0.2069166E+03  0.7546771E-02  0.1144031E+00
         -2   -1    0    0    0  501 -0.00000000000E+00  0.00000000000E+00  0.10534442363E+03  0.10534442363E+03  0.00000000000E+00 0. -1.
          2   -1    0    0  502    0  0.00000000000E+00 -0.00000000000E+00 -0.58686483725E+03  0.58686483725E+03  0.00000000000E+00 0.  1.
          6    1    1    2  502    0  0.10616597345E+03 -0.44263467969E+02 -0.43267398913E+03  0.47960530583E+03  0.17200000000E+03 0.  1.
         -6    1    1    2    0  501 -0.10616597345E+03  0.44263467969E+02 -0.48846424492E+02  0.21260395505E+03  0.17200000000E+03 0. -1.
<mgrwt>
<rscale>  2 0.20691657E+03</rscale>
<asrwt>0</asrwt>
<pdfrwt beam="1">  1        2 0.14671621E+00 0.20691657E+03</pdfrwt>
<pdfrwt beam="2">  1       -2 0.26336106E-01 0.20691657E+03</pdfrwt>
<totfact> 0.36876695E+02</totfact>
</mgrwt>
</event>
<event>
 4    1  0.3757815E-001  0.1769252E+03  0.7546771E-02  0.1170813E+00
          3   -1    0    0  502    0  0.00000000000E+00  0.00000000000E+00  0.17860893715E+03  0.17860893715E+03  0.00000000000E+00 0.  1.
         -3   -1    0    0    0  501 -0.00000000000E+00 -0.00000000000E+00 -0.17525779589E+03  0.17525779589E+03  0.00000000000E+00 0. -1.
          6    1    1    2  502    0 -0.15021749449E+02  0.38637505344E+02  0.13611111704E+01  0.17693038857E+03  0.17200000000E+03 0.  1.
         -6    1    1    2    0  501  0.15021749449E+02 -0.38637505344E+02  0.19900300828E+01  0.17693634447E+03  0.17200000000E+03 0.  1.
<mgrwt>
<rscale>  2 0.17692515E+03</rscale>
<asrwt>0</asrwt>
<pdfrwt beam="1">  1        3 0.44652234E-01 0.17692515E+03</pdfrwt>
<pdfrwt beam="2">  1       -3 0.43814449E-01 0.17692515E+03</pdfrwt>
<totfact> 0.62929276E+01</totfact>
</mgrwt>
</event>
<event>
 4    1  0.3757815E-001  0.2059728E+03  0.7546771E-02  0.1144795E+00
          2   -1    0    0  502    0  0.00000000000E+00  0.00000000000E+00  0.12774688382E+03  0.12774688382E+03  0.00000000000E+00 0. -1.
         -2   -1    0    0    0  501 -0.00000000000E+00 -0.00000000000E+00 -0.38032460227E+03  0.38032460227E+03  0.00000000000E+00 0.  1.
          6    1    1    2  502    0 -0.79662366031E+02  0.80589699184E+02 -0.35830207798E+02  0.20906600864E+03  0.17200000000E+03 0.  1.
         -6    1    1    2    0  501  0.79662366031E+02 -0.80589699184E+02 -0.21674751065E+03  0.29900547745E+03  0.17200000000E+03 0. -1.
<mgrwt>
<rscale>  2 0.20597279E+03</rscale>
<asrwt>0</asrwt>
<pdfrwt beam="1">  1        2 0.31936721E-01 0.20597279E+03</pdfrwt>
<pdfrwt beam="2">  1       -2 0.95081149E-01 0.20597279E+03</pdfrwt>
<totfact> 0.15938320E+02</totfact>
</mgrwt>
</event>
<event>
 4    1  0.3757815E-001  0.1767974E+03  0.7546771E-02  0.1170939E+00
          2   -1    0    0  502    0  0.00000000000E+00  0.00000000000E+00  0.10876061182E+04  0.10876061182E+04  0.00000000000E+00 0.  1.
         -2   -1    0    0    0  501 -0.00000000000E+00 -0.00000000000E+00 -0.38076958420E+02  0.38076958420E+02  0.00000000000E+00 0. -1.
          6    1    1    2  502    0  0.38718964454E+02 -0.13197087342E+02  0.80348446925E+03  0.82270566648E+03  0.17200000000E+03 0.  1.
         -6    1    1    2    0  501 -0.38718964454E+02  0.13197087342E+02  0.24604469055E+03  0.30297741016E+03  0.17200000000E+03 0. -1.
<mgrwt>
<rscale>  2 0.17679740E+03</rscale>
<asrwt>0</asrwt>
<pdfrwt beam="1">  1        2 0.27190143E+00 0.17679740E+03</pdfrwt>
<pdfrwt beam="2">  1       -2 0.95192432E-02 0.17679740E+03</pdfrwt>
<totfact> 0.71835071E+02</totfact>
</mgrwt>
</event>
<event>
 4    1  0.3757815E-001  0.2471160E+03  0.7546771E-02  0.1115141E+00
         -2   -1    0    0    0  501 -0.00000000000E+00  0.00000000000E+00  0.10302351987E+03  0.10302351987E+03  0.00000000000E+00 0.  1.
          2   -1    0    0  502    0  0.00000000000E+00 -0.00000000000E+00 -0.76025185280E+03  0.76025185280E+03  0.00000000000E+00 0. -1.
          6    1    1    2  502    0  0.11326881869E+03 -0.13657417253E+03 -0.53122434558E+03  0.58588875670E+03  0.17200000000E+03 0. -1.
         -6    1    1    2    0  501 -0.11326881869E+03  0.13657417253E+03 -0.12600398735E+03  0.27738661597E+03  0.17200000000E+03 0.  1.
<mgrwt>
<rscale>  2 0.24711603E+03</rscale>
<asrwt>0</asrwt>
<pdfrwt beam="1">  1        2 0.19006296E+00 0.24711603E+03</pdfrwt>
<pdfrwt beam="2">  1       -2 0.25755880E-01 0.24711603E+03</pdfrwt>
<totfact> 0.26030507E+02</totfact>
</mgrwt>
</event>
<event>
 4    1  0.3757815E-001  0.1762046E+03  0.7546771E-02  0.1171528E+00
         -2   -1    0    0    0  501 -0.00000000000E+00  0.00000000000E+00  0.45061204185E+02  0.45061204185E+02  0.00000000000E+00 0.  1.
          2   -1    0    0  502    0  0.00000000000E+00 -0.00000000000E+00 -0.87190348952E+03  0.87190348952E+03  0.00000000000E+00 0. -1.
          6    1    1    2  502    0 -0.19771810418E+01  0.38212128329E+02 -0.62339997986E+03  0.64782374986E+03  0.17200000000E+03 0. -1.
         -6    1    1    2    0  501  0.19771810418E+01 -0.38212128329E+02 -0.20344230548E+03  0.26914094385E+03  0.17200000000E+03 0.  1.
<mgrwt>
<rscale>  2 0.17620464E+03</rscale>
<asrwt>0</asrwt>
<pdfrwt beam="1">  1        2 0.21797587E+00 0.17620464E+03</pdfrwt>
<pdfrwt beam="2">  1       -2 0.11265301E-01 0.17620464E+03</pdfrwt>
<totfact> 0.83884093E+02</totfact>
</mgrwt>
</event>
<event>
 4    1  0.3757815E-001  0.2166427E+03  0.7546771E-02  0.1136411E+00
          1   -1    0    0  502    0  0.00000000000E+00  0.00000000000E+00  0.34033958843E+03  0.34033958843E+03  0.00000000000E+00 0.  1.
         -1   -1    0    0    0  501 -0.00000000000E+00 -0.00000000000E+00 -0.19331276580E+03  0.19331276580E+03  0.00000000000E+00 0. -1.
          6    1    1    2  502    0 -0.36399725582E+02 -0.12659042768E+03  0.21636619909E+03  0.30618361895E+03  0.17200000000E+03 0.  1.
         -6    1    1    2    0  501  0.36399725582E+02  0.12659042768E+03 -0.69339376462E+02  0.22746873528E+03  0.17200000000E+03 0. -1.
<mgrwt>
<rscale>  2 0.21664274E+03</rscale>
<asrwt>0</asrwt>
<pdfrwt beam="1">  1        1 0.85084896E-01 0.21664274E+03</pdfrwt>
<pdfrwt beam="2">  1       -1 0.48328192E-01 0.21664274E+03</pdfrwt>
<totfact> 0.17564388E+02</totfact>
</mgrwt>
</event>
