<event>
 6    1  0.9598567E-004  0.4268289E+03  0.7818608E-02  0.1034893E+00
         21   -1    0    0  503  502  0.00000000000E+00  0.00000000000E+00  0.15479476068E+04  0.15479476068E+04  0.00000000000E+00 0.  1.
         21   -1    0    0  501  503 -0.00000000000E+00 -0.00000000000E+00 -0.14845431386E+03  0.14845431386E+03  0.00000000000E+00 0.  1.
    9000007    2    1    2  501    0 -0.95184159006E+01 -0.14863493946E+03  0.31285603673E+03  0.52894165493E+03  0.39964663034E+03 0.  0.
    9000005    1    3    3    0    0 -0.16721579526E+03 -0.16868750561E+03  0.87433914472E+02  0.25310528665E+03  0.99999687468E+00 0.  0.
          4    1    3    3  501    0  0.15769737936E+03  0.20052566153E+02  0.22542212225E+03  0.27583636829E+03  0.00000000000E+00 0.  1.
   -9000007    1    1    2    0  502  0.95184159006E+01  0.14863493946E+03  0.10866372562E+04  0.11674602657E+04  0.40000000000E+03 0.  1.
<mgrwt>
<rscale>  2 0.42674613E+03</rscale>
<asrwt>0</asrwt>
<pdfrwt beam="1">  1       21 0.23814577E+00 0.42682894E+03</pdfrwt>
<pdfrwt beam="2">  1       21 0.22839126E-01 0.42682894E+03</pdfrwt>
<totfact> 0.11757275E+03</totfact>
</mgrwt>
</event>
<event>
 6    1  0.9598567E-004  0.4117580E+03  0.7818608E-02  0.1039792E+00
         21   -1    0    0  503  502  0.00000000000E+00  0.00000000000E+00  0.80266786976E+03  0.80266786976E+03  0.00000000000E+00 0.  1.
         21   -1    0    0  501  503 -0.00000000000E+00 -0.00000000000E+00 -0.38339546001E+03  0.38339546001E+03  0.00000000000E+00 0.  1.
    9000007    2    1    2  501    0  0.59247696012E+02 -0.77681335632E+02 -0.18785101902E+03  0.45248065744E+03  0.39988255853E+03 0.  0.
    9000005    1    3    3    0    0  0.13534171085E+03  0.11786787820E+03 -0.14062863266E+02  0.18002494140E+03  0.99999687468E+00 0.  0.
          4    1    3    3  501    0 -0.76094014842E+02 -0.19554921383E+03 -0.17378815576E+03  0.27245571604E+03  0.00000000000E+00 0.  1.
   -9000007    1    1    2    0  502 -0.59247696012E+02  0.77681335632E+02  0.60712342877E+03  0.73358267233E+03  0.40000000000E+03 0.  1.
<mgrwt>
<rscale>  2 0.41172951E+03</rscale>
<asrwt>0</asrwt>
<pdfrwt beam="1">  1       21 0.12348736E+00 0.41175804E+03</pdfrwt>
<pdfrwt beam="2">  1       21 0.58983917E-01 0.41175804E+03</pdfrwt>
<totfact> 0.11426137E+03</totfact>
</mgrwt>
</event>
<event>
 6    1  0.9598567E-004  0.4411569E+03  0.7818608E-02  0.1030640E+00
         21   -1    0    0  503  502  0.00000000000E+00  0.00000000000E+00  0.44314956247E+03  0.44314956247E+03  0.00000000000E+00 0.  1.
         21   -1    0    0  501  503 -0.00000000000E+00 -0.00000000000E+00 -0.44520219546E+03  0.44520219546E+03  0.00000000000E+00 0.  1.
    9000007    2    1    2  501    0 -0.17738041059E+03  0.56174367925E+02  0.62929612889E+02  0.44243465582E+03  0.39644535414E+03 0.  0.
    9000005    1    3    3    0    0 -0.16668683422E+03 -0.13947300170E+03 -0.40172312219E+02  0.22102496142E+03  0.99999687468E+00 0.  0.
          4    1    3    3  501    0 -0.10693576373E+02  0.19564736963E+03  0.10310192511E+03  0.22140969441E+03  0.00000000000E+00 0.  1.
   -9000007    1    1    2    0  502  0.17738041059E+03 -0.56174367925E+02 -0.64982245880E+02  0.44591710211E+03  0.40000000000E+03 0.  1.
<mgrwt>
<rscale>  2 0.44034953E+03</rscale>
<asrwt>0</asrwt>
<pdfrwt beam="1">  1       21 0.68176856E-01 0.44115685E+03</pdfrwt>
<pdfrwt beam="2">  1       21 0.68492645E-01 0.44115685E+03</pdfrwt>
<totfact> 0.33419075E+03</totfact>
</mgrwt>
</event>
<event>
 6    1  0.9598567E-004  0.6036666E+03  0.7818608E-02  0.9898460E-01
         21   -1    0    0  503  502  0.00000000000E+00  0.00000000000E+00  0.16238269094E+04  0.16238269094E+04  0.00000000000E+00 0. -1.
         21   -1    0    0  501  503 -0.00000000000E+00 -0.00000000000E+00 -0.22764001555E+03  0.22764001555E+03  0.00000000000E+00 0.  1.
    9000007    2    1    2  501    0 -0.87772930754E+02 -0.44351921096E+03  0.57970340689E+03  0.83605633690E+03  0.39814668232E+03 0.  0.
    9000005    1    3    3    0    0  0.77087675791E+02 -0.43012974137E+03  0.42543797125E+03  0.60987914503E+03  0.99999687468E+00 0.  0.
          4    1    3    3  501    0 -0.16486060655E+03 -0.13389469585E+02  0.15426543564E+03  0.22617719186E+03  0.00000000000E+00 0.  1.
   -9000007    1    1    2    0  502  0.87772930754E+02  0.44351921096E+03  0.81648348699E+03  0.10154105881E+04  0.40000000000E+03 0. -1.
<mgrwt>
<rscale>  2 0.60335977E+03</rscale>
<asrwt>0</asrwt>
<pdfrwt beam="1">  1       21 0.24981952E+00 0.60366661E+03</pdfrwt>
<pdfrwt beam="2">  1       21 0.35021542E-01 0.60366661E+03</pdfrwt>
<totfact> 0.39458903E+02</totfact>
</mgrwt>
</event>
<event>
 6    1  0.9598567E-004  0.5600611E+03  0.7818608E-02  0.9992050E-01
         21   -1    0    0  503  502  0.00000000000E+00  0.00000000000E+00  0.91308549034E+03  0.91308549034E+03  0.00000000000E+00 0. -1.
         21   -1    0    0  501  503 -0.00000000000E+00 -0.00000000000E+00 -0.41300176600E+03  0.41300176600E+03  0.00000000000E+00 0. -1.
    9000007    2    1    2  501    0  0.14147212037E+03  0.36558725915E+03  0.52222791560E+03  0.76558857651E+03  0.39966919791E+03 0.  0.
    9000005    1    3    3    0    0 -0.24576070495E+02  0.34758885452E+03  0.48029297886E+03  0.59338380544E+03  0.99999687468E+00 0.  0.
          4    1    3    3  501    0  0.16604819086E+03  0.17998404630E+02  0.41934936736E+02  0.17220477106E+03  0.00000000000E+00 0.  1.
   -9000007    1    1    2    0  502 -0.14147212037E+03 -0.36558725915E+03 -0.22144191253E+02  0.56049867984E+03  0.40000000000E+03 0. -1.
<mgrwt>
<rscale>  2 0.56000201E+03</rscale>
<asrwt>0</asrwt>
<pdfrwt beam="1">  1       21 0.14047469E+00 0.56006107E+03</pdfrwt>
<pdfrwt beam="2">  1       21 0.63538734E-01 0.56006107E+03</pdfrwt>
<totfact> 0.65300956E+02</totfact>
</mgrwt>
</event>
<event>
 6    1  0.9598567E-004  0.4980853E+03  0.7818608E-02  0.1014343E+00
         21   -1    0    0  503  502  0.00000000000E+00  0.00000000000E+00  0.33666395564E+03  0.33666395564E+03  0.00000000000E+00 0. -1.
         21   -1    0    0  501  503 -0.00000000000E+00 -0.00000000000E+00 -0.85661532264E+03  0.85661532264E+03  0.00000000000E+00 0.  1.
    9000007    2    1    2  501    0 -0.26748751874E+03  0.12860567802E+03 -0.48411551330E+03  0.69390647014E+03  0.39880993718E+03 0.  0.
    9000005    1    3    3    0    0  0.76224728004E+02  0.41410166988E+02  0.82461373987E+01  0.87143616318E+02  0.99999687468E+00 0.  0.
          4    1    3    3  501    0 -0.34371224675E+03  0.87195511029E+02 -0.49236165069E+03  0.60676285382E+03  0.00000000000E+00 0.  1.
   -9000007    1    1    2    0  502  0.26748751874E+03 -0.12860567802E+03 -0.35835853703E+02  0.49937280814E+03  0.40000000000E+03 0. -1.
<mgrwt>
<rscale>  2 0.49784635E+03</rscale>
<asrwt>0</asrwt>
<pdfrwt beam="1">  1       21 0.51794455E-01 0.49808533E+03</pdfrwt>
<pdfrwt beam="2">  1       21 0.13178697E+00 0.49808533E+03</pdfrwt>
<totfact> 0.12348247E+03</totfact>
</mgrwt>
</event>
<event>
 6    1  0.9598567E-004  0.4300281E+03  0.7818608E-02  0.1033938E+00
         21   -1    0    0  503  502  0.00000000000E+00  0.00000000000E+00  0.60181840235E+03  0.60181840235E+03  0.00000000000E+00 0. -1.
         21   -1    0    0  501  503 -0.00000000000E+00 -0.00000000000E+00 -0.56076758142E+03  0.56076758142E+03  0.00000000000E+00 0. -1.
    9000007    2    1    2  501    0  0.10637195119E+03 -0.11254234819E+03  0.41197173706E+03  0.59552064525E+03  0.40117746029E+03 0.  0.
    9000005    1    3    3    0    0  0.16151401085E+03 -0.11005990969E+03  0.47386437744E+03  0.51258990199E+03  0.99999687468E+00 0.  0.
          4    1    3    3  501    0 -0.55142059661E+02 -0.24824385016E+01 -0.61892640380E+02  0.82930743260E+02  0.00000000000E+00 0.  1.
   -9000007    1    1    2    0  502 -0.10637195119E+03  0.11254234819E+03 -0.37092091613E+03  0.56706533853E+03  0.40000000000E+03 0. -1.
<mgrwt>
<rscale>  2 0.42975323E+03</rscale>
<asrwt>0</asrwt>
<pdfrwt beam="1">  1       21 0.92587447E-01 0.43002805E+03</pdfrwt>
<pdfrwt beam="2">  1       21 0.86271935E-01 0.43002805E+03</pdfrwt>
<totfact> 0.97633220E+02</totfact>
</mgrwt>
</event>
<event>
 6    1  0.9598567E-004  0.5690791E+03  0.7818608E-02  0.9971910E-01
         21   -1    0    0  503  502  0.00000000000E+00  0.00000000000E+00  0.11124812503E+04  0.11124812503E+04  0.00000000000E+00 0.  1.
         21   -1    0    0  501  503 -0.00000000000E+00 -0.00000000000E+00 -0.35819270121E+03  0.35819270121E+03  0.00000000000E+00 0. -1.
    9000007    2    1    2  501    0  0.33568207052E+03 -0.22620474192E+03  0.58400360588E+02  0.57172378124E+03  0.39950774984E+03 0.  0.
    9000005    1    3    3    0    0  0.32047275605E+03 -0.33223879033E+03  0.47841584693E+02  0.46408535679E+03  0.99999687468E+00 0.  0.
          4    1    3    3  501    0  0.15209314472E+02  0.10603404841E+03  0.10558775896E+02  0.10763842445E+03  0.00000000000E+00 0.  1.
   -9000007    1    1    2    0  502 -0.33568207052E+03  0.22620474192E+03  0.69588818851E+03  0.89895017028E+03  0.40000000000E+03 0.  1.
<mgrwt>
<rscale>  2 0.56899262E+03</rscale>
<asrwt>0</asrwt>
<pdfrwt beam="1">  1       21 0.17115096E+00 0.56907911E+03</pdfrwt>
<pdfrwt beam="2">  1       21 0.55106570E-01 0.56907911E+03</pdfrwt>
<totfact> 0.51444115E+02</totfact>
</mgrwt>
</event>
<event>
 6    1  0.9598567E-004  0.5495324E+03  0.7818608E-02  0.1001617E+00
         21   -1    0    0  503  502  0.00000000000E+00  0.00000000000E+00  0.99172970034E+03  0.99172970034E+03  0.00000000000E+00 0.  1.
         21   -1    0    0  501  503 -0.00000000000E+00 -0.00000000000E+00 -0.45653644935E+03  0.45653644935E+03  0.00000000000E+00 0. -1.
    9000007    2    1    2  501    0  0.34663587583E+03 -0.14774800365E+03  0.68563097733E+03  0.87851408739E+03  0.39963891410E+03 0.  0.
    9000005    1    3    3    0    0  0.10657669136E+03  0.13170988733E+03  0.13812589691E+03  0.21859974600E+03  0.99999687468E+00 0.  0.
          4    1    3    3  501    0  0.24005918448E+03 -0.27945789098E+03  0.54750508042E+03  0.65991434139E+03  0.00000000000E+00 0.  1.
   -9000007    1    1    2    0  502 -0.34663587583E+03  0.14774800365E+03 -0.15043772634E+03  0.56975206231E+03  0.40000000000E+03 0. -1.
<mgrwt>
<rscale>  2 0.54946673E+03</rscale>
<asrwt>0</asrwt>
<pdfrwt beam="1">  1       21 0.15257380E+00 0.54953244E+03</pdfrwt>
<pdfrwt beam="2">  1       21 0.70236377E-01 0.54953244E+03</pdfrwt>
<totfact> 0.41833831E+02</totfact>
</mgrwt>
</event>
<event>
 6    1  0.9598567E-004  0.5112418E+03  0.7818608E-02  0.1010898E+00
         21   -1    0    0  503  502  0.00000000000E+00  0.00000000000E+00  0.93670829210E+03  0.93670829210E+03  0.00000000000E+00 0.  1.
         21   -1    0    0  501  503 -0.00000000000E+00 -0.00000000000E+00 -0.80095975027E+03  0.80095975027E+03  0.00000000000E+00 0.  1.
    9000007    2    1    2  501    0 -0.14229153049E+03 -0.28446207416E+03 -0.63354927754E+03  0.81409634175E+03  0.40025318899E+03 0.  0.
    9000005    1    3    3    0    0  0.14627046966E+02 -0.58908426942E+02  0.49194720486E+02  0.78136251415E+02  0.99999687468E+00 0.  0.
          4    1    3    3  501    0 -0.15691857745E+03 -0.22555364722E+03 -0.68274399803E+03  0.73596009034E+03  0.00000000000E+00 0.  1.
   -9000007    1    1    2    0  502  0.14229153049E+03  0.28446207416E+03  0.76929781938E+03  0.92357170062E+03  0.40000000000E+03 0.  1.
<mgrwt>
<rscale>  2 0.51119223E+03</rscale>
<asrwt>0</asrwt>
<pdfrwt beam="1">  1       21 0.14410897E+00 0.51124179E+03</pdfrwt>
<pdfrwt beam="2">  1       21 0.12322458E+00 0.51124179E+03</pdfrwt>
<totfact> 0.12863454E+02</totfact>
</mgrwt>
</event>
<event>
 6    1  0.9598567E-004  0.4069723E+03  0.7818608E-02  0.1041847E+00
         21   -1    0    0  503  502  0.00000000000E+00  0.00000000000E+00  0.44842518775E+03  0.44842518775E+03  0.00000000000E+00 0.  1.
         21   -1    0    0  501  503 -0.00000000000E+00 -0.00000000000E+00 -0.49476651183E+03  0.49476651183E+03  0.00000000000E+00 0.  1.
    9000007    2    1    2  501    0  0.19629639331E+02  0.30445588926E+02 -0.26523984286E+03  0.48577633238E+03  0.40535689737E+03 0.  0.
    9000005    1    3    3    0    0 -0.54886049021E+02  0.17188200176E+03 -0.51804385805E+01  0.18050966136E+03  0.99999687468E+00 0.  0.
          4    1    3    3  501    0  0.74515688352E+02 -0.14143641284E+03 -0.26005940427E+03  0.30526667102E+03  0.00000000000E+00 0.  1.
   -9000007    1    1    2    0  502 -0.19629639331E+02 -0.30445588926E+02  0.21889851877E+03  0.45741536719E+03  0.40000000000E+03 0.  1.
<mgrwt>
<rscale>  2 0.40563188E+03</rscale>
<asrwt>0</asrwt>
<pdfrwt beam="1">  1       21 0.68988491E-01 0.40697232E+03</pdfrwt>
<pdfrwt beam="2">  1       21 0.76117925E-01 0.40697232E+03</pdfrwt>
<totfact> 0.25964067E+03</totfact>
</mgrwt>
</event>
<event>
 6    1  0.9598567E-004  0.4276237E+03  0.7818608E-02  0.1034652E+00
         21   -1    0    0  503  502  0.00000000000E+00  0.00000000000E+00  0.18405976242E+04  0.18405976242E+04  0.00000000000E+00 0.  1.
         21   -1    0    0  501  503 -0.00000000000E+00 -0.00000000000E+00 -0.12957835109E+03  0.12957835109E+03  0.00000000000E+00 0. -1.
    9000007    2    1    2  501    0 -0.10998970343E+03  0.10375106116E+03  0.37845502518E+03  0.57067981866E+03  0.39948120330E+03 0.  0.
    9000005    1    3    3    0    0 -0.34947556982E+02  0.20582019345E+03  0.44438982162E+02  0.21344579382E+03  0.99999687468E+00 0.  0.
          4    1    3    3  501    0 -0.75042146446E+02 -0.10206913229E+03  0.33401604302E+03  0.35723402484E+03  0.00000000000E+00 0.  1.
   -9000007    1    1    2    0  502  0.10998970343E+03 -0.10375106116E+03  0.13325642479E+04  0.13994961566E+04  0.40000000000E+03 0.  1.
<mgrwt>
<rscale>  2 0.42750232E+03</rscale>
<asrwt>0</asrwt>
<pdfrwt beam="1">  1       21 0.28316885E+00 0.42762369E+03</pdfrwt>
<pdfrwt beam="2">  1       21 0.19935132E-01 0.42762369E+03</pdfrwt>
<totfact> 0.81133345E+02</totfact>
</mgrwt>
</event>
<event>
 6    1  0.9598567E-004  0.5100959E+03  0.7818608E-02  0.1011198E+00
         21   -1    0    0  503  502  0.00000000000E+00  0.00000000000E+00  0.23280776771E+04  0.23280776771E+04  0.00000000000E+00 0. -1.
         21   -1    0    0  501  503 -0.00000000000E+00 -0.00000000000E+00 -0.51537325366E+03  0.51537325366E+03  0.00000000000E+00 0. -1.
    9000007    2    1    2  501    0 -0.15253555120E+03 -0.27736386891E+03 -0.35197853699E+03  0.61947922920E+03  0.39958455269E+03 0.  0.
    9000005    1    3    3    0    0 -0.66096760781E+02 -0.18554580328E+03 -0.42875996254E+03  0.47183909585E+03  0.99999687468E+00 0.  0.
          4    1    3    3  501    0 -0.86438790420E+02 -0.91818065636E+02  0.76781425552E+02  0.14764013335E+03  0.00000000000E+00 0.  1.
   -9000007    1    1    2    0  502  0.15253555120E+03  0.27736386891E+03  0.21646829604E+04  0.22239717016E+04  0.40000000000E+03 0. -1.
<mgrwt>
<rscale>  2 0.51001444E+03</rscale>
<asrwt>0</asrwt>
<pdfrwt beam="1">  1       21 0.35816579E+00 0.51009588E+03</pdfrwt>
<pdfrwt beam="2">  1       21 0.79288194E-01 0.51009588E+03</pdfrwt>
<totfact> 0.15395253E+01</totfact>
</mgrwt>
</event>
<event>
 6    1  0.9598567E-004  0.4041566E+03  0.7818608E-02  0.1042383E+00
         21   -1    0    0  503  502  0.00000000000E+00  0.00000000000E+00  0.13503931194E+03  0.13503931194E+03  0.00000000000E+00 0. -1.
         21   -1    0    0  501  503 -0.00000000000E+00 -0.00000000000E+00 -0.14274626229E+04  0.14274626229E+04  0.00000000000E+00 0. -1.
    9000007    2    1    2  501    0 -0.11771671417E+02  0.53801383744E+02 -0.95248826400E+03  0.10346866288E+04  0.40038652027E+03 0.  0.
    9000005    1    3    3    0    0 -0.12321457554E+03 -0.11241645671E+03 -0.22441319363E+03  0.27960967944E+03  0.99999687468E+00 0.  0.
          4    1    3    3  501    0  0.11144290412E+03  0.16621784046E+03 -0.72807507037E+03  0.75507694936E+03  0.00000000000E+00 0.  1.
   -9000007    1    1    2    0  502  0.11771671417E+02 -0.53801383744E+02 -0.33993504698E+03  0.52781530606E+03  0.40000000000E+03 0. -1.
<mgrwt>
<rscale>  2 0.40406080E+03</rscale>
<asrwt>0</asrwt>
<pdfrwt beam="1">  1       21 0.20775279E-01 0.40415656E+03</pdfrwt>
<pdfrwt beam="2">  1       21 0.21960963E+00 0.40415656E+03</pdfrwt>
<totfact> 0.18642936E+03</totfact>
</mgrwt>
</event>
<event>
 6    1  0.9598567E-004  0.4806558E+03  0.7818608E-02  0.1019013E+00
         21   -1    0    0  503  502  0.00000000000E+00  0.00000000000E+00  0.76347691926E+02  0.76347691926E+02  0.00000000000E+00 0.  1.
         21   -1    0    0  501  503 -0.00000000000E+00 -0.00000000000E+00 -0.30583778460E+04  0.30583778460E+04  0.00000000000E+00 0.  1.
    9000007    2    1    2  501    0 -0.21361559832E+03  0.15936880711E+03 -0.16636298892E+04  0.17314403570E+04  0.39898779576E+03 0.  0.
    9000005    1    3    3    0    0  0.43313848542E+02 -0.86683940031E+02 -0.65026430566E+03  0.65744571041E+03  0.99999687468E+00 0.  0.
          4    1    3    3  501    0 -0.25692944686E+03  0.24605274714E+03 -0.10133655836E+04  0.10739946466E+04  0.00000000000E+00 0.  1.
   -9000007    1    1    2    0  502  0.21361559832E+03 -0.15936880711E+03 -0.13184002649E+04  0.14032851809E+04  0.40000000000E+03 0.  1.
<mgrwt>
<rscale>  2 0.48044520E+03</rscale>
<asrwt>0</asrwt>
<pdfrwt beam="1">  1       21 0.11745798E-01 0.48065584E+03</pdfrwt>
<pdfrwt beam="2">  1       21 0.47051970E+00 0.48065584E+03</pdfrwt>
<totfact> 0.13631929E+02</totfact>
</mgrwt>
</event>
<event>
 6    1  0.9598567E-004  0.4362718E+03  0.7818608E-02  0.1031982E+00
         21   -1    0    0  503  502  0.00000000000E+00  0.00000000000E+00  0.28879676354E+03  0.28879676354E+03  0.00000000000E+00 0.  1.
         21   -1    0    0  501  503 -0.00000000000E+00 -0.00000000000E+00 -0.65861969479E+03  0.65861969479E+03  0.00000000000E+00 0. -1.
    9000007    2    1    2  501    0  0.12748494507E+03 -0.11458882716E+03 -0.20544796698E+03  0.48222602484E+03  0.40118581900E+03 0.  0.
    9000005    1    3    3    0    0  0.17357086424E+03 -0.21665106024E+03 -0.23793847358E+03  0.36562309011E+03  0.99999687468E+00 0.  0.
          4    1    3    3  501    0 -0.46085919170E+02  0.10206223308E+03  0.32490506607E+02  0.11660293473E+03  0.00000000000E+00 0.  1.
   -9000007    1    1    2    0  502 -0.12748494507E+03  0.11458882716E+03 -0.16437496428E+03  0.46519043349E+03  0.40000000000E+03 0.  1.
<mgrwt>
<rscale>  2 0.43599898E+03</rscale>
<asrwt>0</asrwt>
<pdfrwt beam="1">  1       21 0.44430272E-01 0.43627179E+03</pdfrwt>
<pdfrwt beam="2">  1       21 0.10132611E+00 0.43627179E+03</pdfrwt>
<totfact> 0.33887585E+03</totfact>
</mgrwt>
</event>
<event>
 6    1  0.9598567E-004  0.4927850E+03  0.7818608E-02  0.1015739E+00
         21   -1    0    0  503  502  0.00000000000E+00  0.00000000000E+00  0.14629390614E+03  0.14629390614E+03  0.00000000000E+00 0.  1.
         21   -1    0    0  501  503 -0.00000000000E+00 -0.00000000000E+00 -0.20371926261E+04  0.20371926261E+04  0.00000000000E+00 0. -1.
    9000007    2    1    2  501    0  0.28485240859E+03  0.28581250218E+02 -0.14178318508E+04  0.15010277091E+04  0.40109754905E+03 0.  0.
    9000005    1    3    3    0    0  0.21358556966E+03 -0.14662979142E+03 -0.11091230095E+04  0.11389793420E+04  0.99999687468E+00 0.  0.
          4    1    3    3  501    0  0.71266838935E+02  0.17521104164E+03 -0.30870884135E+03  0.36204836717E+03  0.00000000000E+00 0.  1.
   -9000007    1    1    2    0  502 -0.28485240859E+03 -0.28581250218E+02 -0.47306686915E+03  0.68245882311E+03  0.40000000000E+03 0.  1.
<mgrwt>
<rscale>  2 0.49256159E+03</rscale>
<asrwt>0</asrwt>
<pdfrwt beam="1">  1       21 0.22506755E-01 0.49278497E+03</pdfrwt>
<pdfrwt beam="2">  1       21 0.31341424E+00 0.49278497E+03</pdfrwt>
<totfact> 0.40786294E+02</totfact>
</mgrwt>
</event>
<event>
 6    1  0.9598567E-004  0.5493364E+03  0.7818608E-02  0.1001684E+00
         21   -1    0    0  503  502  0.00000000000E+00  0.00000000000E+00  0.15079317333E+04  0.15079317333E+04  0.00000000000E+00 0.  1.
         21   -1    0    0  501  503 -0.00000000000E+00 -0.00000000000E+00 -0.23460652691E+03  0.23460652691E+03  0.00000000000E+00 0.  1.
    9000007    2    1    2  501    0 -0.37597703950E+03 -0.20290702201E+02  0.30121933070E+03  0.62595405810E+03  0.39914277000E+03 0.  0.
    9000005    1    3    3    0    0  0.66329541138E+02  0.70349249489E+02  0.42917104730E+02  0.10578989935E+03  0.99999687468E+00 0.  0.
          4    1    3    3  501    0 -0.44230658064E+03 -0.90639951690E+02  0.25830222596E+03  0.52016415876E+03  0.00000000000E+00 0.  1.
   -9000007    1    1    2    0  502  0.37597703950E+03  0.20290702201E+02  0.97210587566E+03  0.11165842021E+04  0.40000000000E+03 0.  1.
<mgrwt>
<rscale>  2 0.54918033E+03</rscale>
<asrwt>0</asrwt>
<pdfrwt beam="1">  1       21 0.23198949E+00 0.54933637E+03</pdfrwt>
<pdfrwt beam="2">  1       21 0.36093313E-01 0.54933637E+03</pdfrwt>
<totfact> 0.49078213E+02</totfact>
</mgrwt>
</event>
<event>
 6    1  0.9598567E-004  0.4650023E+03  0.7818608E-02  0.1023351E+00
         21   -1    0    0  503  502  0.00000000000E+00  0.00000000000E+00  0.41066150916E+03  0.41066150916E+03  0.00000000000E+00 0.  1.
         21   -1    0    0  501  503 -0.00000000000E+00 -0.00000000000E+00 -0.66954229103E+03  0.66954229103E+03  0.00000000000E+00 0.  1.
    9000007    2    1    2  501    0 -0.15119798237E+03 -0.18266447687E+03 -0.37918270297E+03  0.59989172122E+03  0.39982923102E+03 0.  0.
    9000005    1    3    3    0    0 -0.14489091332E+02  0.19361603565E+02 -0.35381524744E+03  0.35464212211E+03  0.99999687468E+00 0.  0.
          4    1    3    3  501    0 -0.13670889104E+03 -0.20202608043E+03 -0.25367455528E+02  0.24524959911E+03  0.00000000000E+00 0.  1.
   -9000007    1    1    2    0  502  0.15119798237E+03  0.18266447687E+03  0.12030192109E+03  0.48031207897E+03  0.40000000000E+03 0. -1.
<mgrwt>
<rscale>  2 0.46496558E+03</rscale>
<asrwt>0</asrwt>
<pdfrwt beam="1">  1       21 0.63178695E-01 0.46500230E+03</pdfrwt>
<pdfrwt beam="2">  1       21 0.10300650E+00 0.46500230E+03</pdfrwt>
<totfact> 0.15117834E+03</totfact>
</mgrwt>
</event>
<event>
 6    1  0.9598567E-004  0.4437585E+03  0.7818608E-02  0.1029643E+00
         21   -1    0    0  503  502  0.00000000000E+00  0.00000000000E+00  0.63937920506E+03  0.63937920506E+03  0.00000000000E+00 0.  1.
         21   -1    0    0  501  503 -0.00000000000E+00 -0.00000000000E+00 -0.59649294978E+03  0.59649294978E+03  0.00000000000E+00 0. -1.
    9000007    2    1    2  501    0 -0.11089847512E+03 -0.15529580634E+03 -0.40859565565E+03  0.60321808258E+03  0.40063248256E+03 0.  0.
    9000005    1    3    3    0    0 -0.79081008815E+02  0.13893982100E+02 -0.42291258212E+03  0.43046823437E+03  0.99999687468E+00 0.  0.
          4    1    3    3  501    0 -0.31817466301E+02 -0.16918978844E+03  0.14316926464E+02  0.17274984821E+03  0.00000000000E+00 0.  1.
   -9000007    1    1    2    0  502  0.11089847512E+03  0.15529580634E+03  0.45148191093E+03  0.63265407226E+03  0.40000000000E+03 0.  1.
<mgrwt>
<rscale>  2 0.44361574E+03</rscale>
<asrwt>0</asrwt>
<pdfrwt beam="1">  1       21 0.98366032E-01 0.44375854E+03</pdfrwt>
<pdfrwt beam="2">  1       21 0.91768146E-01 0.44375854E+03</pdfrwt>
<totfact> 0.72550716E+02</totfact>
</mgrwt>
</event>
<event>
 6    1  0.9598567E-004  0.4417564E+03  0.7818608E-02  0.1030279E+00
         21   -1    0    0  503  502  0.00000000000E+00  0.00000000000E+00  0.26035537484E+03  0.26035537484E+03  0.00000000000E+00 0. -1.
         21   -1    0    0  501  503 -0.00000000000E+00 -0.00000000000E+00 -0.75803393832E+03  0.75803393832E+03  0.00000000000E+00 0. -1.
    9000007    2    1    2  501    0 -0.90890682439E+02 -0.16397448309E+03 -0.18999165309E+03  0.48004000082E+03  0.39898975787E+03 0.  0.
    9000005    1    3    3    0    0 -0.10676710615E+03 -0.26546425865E+02  0.10633557753E+03  0.15301040071E+03  0.99999687468E+00 0.  0.
          4    1    3    3  501    0  0.15876423715E+02 -0.13742805723E+03 -0.29632723062E+03  0.32702960011E+03  0.00000000000E+00 0.  1.
   -9000007    1    1    2    0  502  0.90890682439E+02  0.16397448309E+03 -0.30768691040E+03  0.53834931234E+03  0.40000000000E+03 0.  1.
<mgrwt>
<rscale>  2 0.44152762E+03</rscale>
<asrwt>0</asrwt>
<pdfrwt beam="1">  1       21 0.40054674E-01 0.44175643E+03</pdfrwt>
<pdfrwt beam="2">  1       21 0.11662060E+00 0.44175643E+03</pdfrwt>
<totfact> 0.29615410E+03</totfact>
</mgrwt>
</event>
<event>
 6    1  0.9598567E-004  0.5371241E+03  0.7818608E-02  0.1004771E+00
         21   -1    0    0  503  502  0.00000000000E+00  0.00000000000E+00  0.11092253396E+04  0.11092253396E+04  0.00000000000E+00 0. -1.
         21   -1    0    0  501  503 -0.00000000000E+00 -0.00000000000E+00 -0.27699313569E+03  0.27699313569E+03  0.00000000000E+00 0. -1.
    9000007    2    1    2  501    0 -0.27034481876E+03  0.22562723682E+03  0.59886265172E+03  0.80444934677E+03  0.40559623380E+03 0.  0.
    9000005    1    3    3    0    0 -0.27145657392E+03  0.12390029528E+03  0.63080272448E+03  0.69782020027E+03  0.99999687468E+00 0.  0.
          4    1    3    3  501    0  0.11117551613E+01  0.10172694155E+03 -0.31940072764E+02  0.10662914650E+03  0.00000000000E+00 0.  1.
   -9000007    1    1    2    0  502  0.27034481876E+03 -0.22562723682E+03  0.23336955222E+03  0.58176912855E+03  0.40000000000E+03 0. -1.
<mgrwt>
<rscale>  2 0.53606766E+03</rscale>
<asrwt>0</asrwt>
<pdfrwt beam="1">  1       21 0.17065005E+00 0.53712408E+03</pdfrwt>
<pdfrwt beam="2">  1       21 0.42614329E-01 0.53712408E+03</pdfrwt>
<totfact> 0.90700019E+02</totfact>
</mgrwt>
</event>
<event>
 6    1  0.9598567E-004  0.5845454E+03  0.7818608E-02  0.9938767E-01
         21   -1    0    0  503  502  0.00000000000E+00  0.00000000000E+00  0.76338540775E+03  0.76338540775E+03  0.00000000000E+00 0.  1.
         21   -1    0    0  501  503 -0.00000000000E+00 -0.00000000000E+00 -0.54963014935E+03  0.54963014935E+03  0.00000000000E+00 0. -1.
    9000007    2    1    2  501    0 -0.25336711240E+03 -0.34278044586E+03 -0.17759913210E+03  0.60955867379E+03  0.39790325125E+03 0.  0.
    9000005    1    3    3    0    0  0.50242190743E+02 -0.22010808528E+03 -0.16895253246E+03  0.28198901602E+03  0.99999687468E+00 0.  0.
          4    1    3    3  501    0 -0.30360930314E+03 -0.12267236058E+03 -0.86465996361E+01  0.32756965777E+03  0.00000000000E+00 0.  1.
   -9000007    1    1    2    0  502  0.25336711240E+03  0.34278044586E+03  0.39135439050E+03  0.70345688331E+03  0.40000000000E+03 0.  1.
<mgrwt>
<rscale>  2 0.58418688E+03</rscale>
<asrwt>0</asrwt>
<pdfrwt beam="1">  1       21 0.11744391E+00 0.58454540E+03</pdfrwt>
<pdfrwt beam="2">  1       21 0.84558484E-01 0.58454540E+03</pdfrwt>
<totfact> 0.53760042E+02</totfact>
</mgrwt>
</event>
<event>
 6    1  0.9598567E-004  0.4417982E+03  0.7818608E-02  0.1030269E+00
         21   -1    0    0  503  502  0.00000000000E+00  0.00000000000E+00  0.64809136491E+03  0.64809136491E+03  0.00000000000E+00 0. -1.
         21   -1    0    0  501  503 -0.00000000000E+00 -0.00000000000E+00 -0.41668348918E+03  0.41668348918E+03  0.00000000000E+00 0.  1.
    9000007    2    1    2  501    0 -0.15123999554E+03 -0.11095982143E+03 -0.16547790047E+03  0.47088602815E+03  0.39895500716E+03 0.  0.
    9000005    1    3    3    0    0 -0.16577959898E+02 -0.88224221885E+02  0.12267133199E+03  0.15201183430E+03  0.99999687468E+00 0.  0.
          4    1    3    3  501    0 -0.13466203564E+03 -0.22735599549E+02 -0.28814923246E+03  0.31887419384E+03  0.00000000000E+00 0.  1.
   -9000007    1    1    2    0  502  0.15123999554E+03  0.11095982143E+03  0.39688577620E+03  0.59388882594E+03  0.40000000000E+03 0. -1.
<mgrwt>
<rscale>  2 0.44156150E+03</rscale>
<asrwt>0</asrwt>
<pdfrwt beam="1">  1       21 0.99706364E-01 0.44179816E+03</pdfrwt>
<pdfrwt beam="2">  1       21 0.64105152E-01 0.44179816E+03</pdfrwt>
<totfact> 0.15993780E+03</totfact>
</mgrwt>
</event>
<event>
 6    1  0.9598567E-004  0.4764829E+03  0.7818608E-02  0.1020514E+00
         21   -1    0    0  503  502  0.00000000000E+00  0.00000000000E+00  0.18096607821E+03  0.18096607821E+03  0.00000000000E+00 0.  1.
         21   -1    0    0  501  503 -0.00000000000E+00 -0.00000000000E+00 -0.13311425160E+04  0.13311425160E+04  0.00000000000E+00 0. -1.
    9000007    2    1    2  501    0  0.17826467956E+03 -0.17241308063E+03 -0.37974388259E+03  0.60929582931E+03  0.40685553321E+03 0.  0.
    9000005    1    3    3    0    0  0.21765584294E+03 -0.28357261428E+03 -0.30279226802E+03  0.46847801560E+03  0.99999687468E+00 0.  0.
          4    1    3    3  501    0 -0.39391163379E+02  0.11115953365E+03 -0.76951614569E+02  0.14081781371E+03  0.00000000000E+00 0.  1.
   -9000007    1    1    2    0  502 -0.17826467956E+03  0.17241308063E+03 -0.77043255515E+03  0.90281276486E+03  0.40000000000E+03 0.  1.
<mgrwt>
<rscale>  2 0.47501612E+03</rscale>
<asrwt>0</asrwt>
<pdfrwt beam="1">  1       21 0.27840935E-01 0.47648294E+03</pdfrwt>
<pdfrwt beam="2">  1       21 0.20479115E+00 0.47648294E+03</pdfrwt>
<totfact> 0.12759917E+03</totfact>
</mgrwt>
</event>
<event>
 6    1  0.9598567E-004  0.6120804E+03  0.7818608E-02  0.9880710E-01
         21   -1    0    0  503  502  0.00000000000E+00  0.00000000000E+00  0.18191454419E+04  0.18191454419E+04  0.00000000000E+00 0.  1.
         21   -1    0    0  501  503 -0.00000000000E+00 -0.00000000000E+00 -0.23809737981E+03  0.23809737981E+03  0.00000000000E+00 0. -1.
    9000007    2    1    2  501    0  0.18295534191E+03 -0.42564046743E+03  0.41224940063E+03  0.73787449721E+03  0.39983339113E+03 0.  0.
    9000005    1    3    3    0    0  0.12618249932E+03  0.32679698354E+02  0.19841402322E+02  0.13185092741E+03  0.99999687468E+00 0.  0.
          4    1    3    3  501    0  0.56772842596E+02 -0.45832016578E+03  0.39240799831E+03  0.60602356980E+03  0.00000000000E+00 0.  1.
   -9000007    1    1    2    0  502 -0.18295534191E+03  0.42564046743E+03  0.11687986615E+04  0.13193683245E+04  0.40000000000E+03 0.  1.
<mgrwt>
<rscale>  2 0.61205322E+03</rscale>
<asrwt>0</asrwt>
<pdfrwt beam="1">  1       21 0.27986852E+00 0.61208044E+03</pdfrwt>
<pdfrwt beam="2">  1       21 0.36630367E-01 0.61208044E+03</pdfrwt>
<totfact> 0.23430459E+02</totfact>
</mgrwt>
</event>
<event>
 6    1  0.9598567E-004  0.4501548E+03  0.7818608E-02  0.1027871E+00
         21   -1    0    0  503  502  0.00000000000E+00  0.00000000000E+00  0.90001527763E+03  0.90001527763E+03  0.00000000000E+00 0.  1.
         21   -1    0    0  501  503 -0.00000000000E+00 -0.00000000000E+00 -0.22386656270E+03  0.22386656270E+03  0.00000000000E+00 0.  1.
    9000007    2    1    2  501    0 -0.15209741603E+03 -0.13966301569E+03  0.34213221296E+03  0.56334066833E+03  0.39706281056E+03 0.  0.
    9000005    1    3    3    0    0 -0.23397841724E+03 -0.41363199117E+02  0.47747830494E+02  0.24235855522E+03  0.99999687468E+00 0.  0.
          4    1    3    3  501    0  0.81881001209E+02 -0.98299816571E+02  0.29438438247E+03  0.32098211311E+03  0.00000000000E+00 0.  1.
   -9000007    1    1    2    0  502  0.15209741603E+03  0.13966301569E+03  0.33401650197E+03  0.56054117200E+03  0.40000000000E+03 0.  1.
<mgrwt>
<rscale>  2 0.44950144E+03</rscale>
<asrwt>0</asrwt>
<pdfrwt beam="1">  1       21 0.13846389E+00 0.45015484E+03</pdfrwt>
<pdfrwt beam="2">  1       21 0.34441010E-01 0.45015484E+03</pdfrwt>
<totfact> 0.25791584E+03</totfact>
</mgrwt>
</event>
<event>
 6    1  0.9598567E-004  0.4650841E+03  0.7818608E-02  0.1023326E+00
         21   -1    0    0  503  502  0.00000000000E+00  0.00000000000E+00  0.24748724356E+03  0.24748724356E+03  0.00000000000E+00 0.  1.
         21   -1    0    0  501  503 -0.00000000000E+00 -0.00000000000E+00 -0.12216522419E+04  0.12216522419E+04  0.00000000000E+00 0.  1.
    9000007    2    1    2  501    0 -0.31954727092E+02 -0.23486941052E+03 -0.87912730010E+03  0.99456924974E+03  0.40014802031E+03 0.  0.
    9000005    1    3    3    0    0  0.16199096078E+03 -0.61684712522E+02 -0.18587065617E+03  0.25415541693E+03  0.99999687468E+00 0.  0.
          4    1    3    3  501    0 -0.19394568788E+03 -0.17318469800E+03 -0.69325664392E+03  0.74041383281E+03  0.00000000000E+00 0.  1.
   -9000007    1    1    2    0  502  0.31954727092E+02  0.23486941052E+03 -0.95037698282E+02  0.47457023577E+03  0.40000000000E+03 0.  1.
<mgrwt>
<rscale>  2 0.46505222E+03</rscale>
<asrwt>0</asrwt>
<pdfrwt beam="1">  1       21 0.38074961E-01 0.46508406E+03</pdfrwt>
<pdfrwt beam="2">  1       21 0.18794650E+00 0.46508406E+03</pdfrwt>
<totfact> 0.88830089E+02</totfact>
</mgrwt>
</event>
<event>
 6    1  0.9598567E-004  0.4594694E+03  0.7818608E-02  0.1025021E+00
         21   -1    0    0  503  502  0.00000000000E+00  0.00000000000E+00  0.25846696420E+03  0.25846696420E+03  0.00000000000E+00 0. -1.
         21   -1    0    0  501  503 -0.00000000000E+00 -0.00000000000E+00 -0.10019715598E+04  0.10019715598E+04  0.00000000000E+00 0. -1.
    9000007    2    1    2  501    0 -0.47934930545E+02  0.21847539674E+03 -0.99675258457E+02  0.47015663006E+03  0.40135127145E+03 0.  0.
    9000005    1    3    3    0    0  0.13624583277E+03  0.13751064271E+03  0.71135198728E+02  0.20623607903E+03  0.99999687468E+00 0.  0.
          4    1    3    3  501    0 -0.18418076331E+03  0.80964754030E+02 -0.17081045718E+03  0.26392055102E+03  0.00000000000E+00 0.  1.
   -9000007    1    1    2    0  502  0.47934930545E+02 -0.21847539674E+03 -0.64382933719E+03  0.79028189399E+03  0.40000000000E+03 0.  1.
<mgrwt>
<rscale>  2 0.45917411E+03</rscale>
<asrwt>0</asrwt>
<pdfrwt beam="1">  1       21 0.39764149E-01 0.45946937E+03</pdfrwt>
<pdfrwt beam="2">  1       21 0.15414947E+00 0.45946937E+03</pdfrwt>
<totfact> 0.14354994E+03</totfact>
</mgrwt>
</event>
<event>
 6    1  0.9598567E-004  0.4102798E+03  0.7818608E-02  0.1040525E+00
         21   -1    0    0  503  502  0.00000000000E+00  0.00000000000E+00  0.13536641973E+04  0.13536641973E+04  0.00000000000E+00 0.  1.
         21   -1    0    0  501  503 -0.00000000000E+00 -0.00000000000E+00 -0.13958517577E+03  0.13958517577E+03  0.00000000000E+00 0.  1.
    9000007    2    1    2  501    0 -0.89589801771E+02 -0.17411829654E+02  0.35134306278E+03  0.53792595197E+03  0.39697969425E+03 0.  0.
    9000005    1    3    3    0    0 -0.28204709735E+02 -0.19788531465E+03  0.10302714493E+03  0.22487706862E+03  0.99999687468E+00 0.  0.
          4    1    3    3  501    0 -0.61385092036E+02  0.18047348499E+03  0.24831591785E+03  0.31304888335E+03  0.00000000000E+00 0.  1.
   -9000007    1    1    2    0  502  0.89589801771E+02  0.17411829654E+02  0.86273595879E+03  0.95532342115E+03  0.40000000000E+03 0.  1.
<mgrwt>
<rscale>  2 0.40954178E+03</rscale>
<asrwt>0</asrwt>
<pdfrwt beam="1">  1       21 0.20825602E+00 0.41027979E+03</pdfrwt>
<pdfrwt beam="2">  1       21 0.21474643E-01 0.41027979E+03</pdfrwt>
<totfact> 0.20648843E+03</totfact>
</mgrwt>
</event>
<event>
 6    1  0.9598567E-004  0.4908662E+03  0.7818608E-02  0.1016206E+00
         21   -1    0    0  503  502  0.00000000000E+00  0.00000000000E+00  0.22177118884E+03  0.22177118884E+03  0.00000000000E+00 0.  1.
         21   -1    0    0  501  503 -0.00000000000E+00 -0.00000000000E+00 -0.13472719961E+04  0.13472719961E+04  0.00000000000E+00 0. -1.
    9000007    2    1    2  501    0  0.28217650005E+03 -0.36415483983E+02 -0.90814670505E+03  0.10322075766E+04  0.39971537195E+03 0.  0.
    9000005    1    3    3    0    0  0.15901063188E+03 -0.17593592519E+03 -0.23520866992E+03  0.33400890590E+03  0.99999687468E+00 0.  0.
          4    1    3    3  501    0  0.12316586818E+03  0.13952044120E+03 -0.67293803513E+03  0.69819867067E+03  0.00000000000E+00 0.  1.
   -9000007    1    1    2    0  502 -0.28217650005E+03  0.36415483983E+02 -0.21735410220E+03  0.53683560835E+03  0.40000000000E+03 0.  1.
<mgrwt>
<rscale>  2 0.49080825E+03</rscale>
<asrwt>0</asrwt>
<pdfrwt beam="1">  1       21 0.34118645E-01 0.49086624E+03</pdfrwt>
<pdfrwt beam="2">  1       21 0.20727261E+00 0.49086624E+03</pdfrwt>
<totfact> 0.81371977E+02</totfact>
</mgrwt>
</event>
<event>
 6    1  0.9598567E-004  0.1097329E+04  0.7818608E-02  0.9207941E-01
         21   -1    0    0  503  502  0.00000000000E+00  0.00000000000E+00  0.12951651359E+04  0.12951651359E+04  0.00000000000E+00 0. -1.
         21   -1    0    0  501  503 -0.00000000000E+00 -0.00000000000E+00 -0.10114277789E+04  0.10114277789E+04  0.00000000000E+00 0. -1.
    9000007    2    1    2  501    0 -0.86509457781E+03 -0.54264794967E+03 -0.18689610486E+03  0.11131310255E+04  0.40159071202E+03 0.  0.
    9000005    1    3    3    0    0 -0.13110651149E+03 -0.27915672269E+03  0.10838763580E+02  0.30860309779E+03  0.99999687468E+00 0.  0.
          4    1    3    3  501    0 -0.73398806632E+03 -0.26349122698E+03 -0.19773486844E+03  0.80452792766E+03  0.00000000000E+00 0.  1.
   -9000007    1    1    2    0  502  0.86509457781E+03  0.54264794967E+03  0.47063346188E+03  0.11934618893E+04  0.40000000000E+03 0. -1.
<mgrwt>
<rscale>  2 0.10971835E+04</rscale>
<asrwt>0</asrwt>
<pdfrwt beam="1">  1       21 0.19925617E+00 0.10973288E+04</pdfrwt>
<pdfrwt beam="2">  1       21 0.15560427E+00 0.10973288E+04</pdfrwt>
<totfact> 0.21991877E+01</totfact>
</mgrwt>
</event>
<event>
 6    1  0.9598567E-004  0.4745109E+03  0.7818608E-02  0.1020762E+00
         21   -1    0    0  503  502  0.00000000000E+00  0.00000000000E+00  0.10548958205E+04  0.10548958205E+04  0.00000000000E+00 0.  1.
         21   -1    0    0  501  503 -0.00000000000E+00 -0.00000000000E+00 -0.21275228034E+03  0.21275228034E+03  0.00000000000E+00 0.  1.
    9000007    2    1    2  501    0 -0.24767330289E+03 -0.61794439491E+02  0.41870455446E+03  0.63167546593E+03  0.39817053208E+03 0.  0.
    9000005    1    3    3    0    0 -0.13271694162E+03 -0.19747799029E+03  0.83392646979E+02  0.25212432807E+03  0.99999687468E+00 0.  0.
          4    1    3    3  501    0 -0.11495636127E+03  0.13568355079E+03  0.33531190749E+03  0.37955113786E+03  0.00000000000E+00 0.  1.
   -9000007    1    1    2    0  502  0.24767330289E+03  0.61794439491E+02  0.42343898565E+03  0.63597263486E+03  0.40000000000E+03 0.  1.
<mgrwt>
<rscale>  2 0.47412516E+03</rscale>
<asrwt>0</asrwt>
<pdfrwt beam="1">  1       21 0.16229166E+00 0.47451092E+03</pdfrwt>
<pdfrwt beam="2">  1       21 0.32731121E-01 0.47451092E+03</pdfrwt>
<totfact> 0.18373607E+03</totfact>
</mgrwt>
</event>
<event>
 6    1  0.9598567E-004  0.4017981E+03  0.7818608E-02  0.1043176E+00
         21   -1    0    0  503  502  0.00000000000E+00  0.00000000000E+00  0.46086790193E+03  0.46086790193E+03  0.00000000000E+00 0.  1.
         21   -1    0    0  501  503 -0.00000000000E+00 -0.00000000000E+00 -0.62258723185E+03  0.62258723185E+03  0.00000000000E+00 0.  1.
    9000007    2    1    2  501    0  0.35180838289E+02 -0.67490194398E+01 -0.43924121764E+03  0.59529364533E+03  0.40019799631E+03 0.  0.
    9000005    1    3    3    0    0  0.10171219620E+03  0.10309614222E+02  0.41009463436E+02  0.11015641192E+03  0.99999687468E+00 0.  0.
          4    1    3    3  501    0 -0.66531357912E+02 -0.17058633661E+02 -0.48025068107E+03  0.48513723341E+03  0.00000000000E+00 0.  1.
   -9000007    1    1    2    0  502 -0.35180838289E+02  0.67490194398E+01  0.27752188772E+03  0.48816148845E+03  0.40000000000E+03 0.  1.
<mgrwt>
<rscale>  2 0.40174874E+03</rscale>
<asrwt>0</asrwt>
<pdfrwt beam="1">  1       21 0.70902754E-01 0.40179805E+03</pdfrwt>
<pdfrwt beam="2">  1       21 0.95782651E-01 0.40179805E+03</pdfrwt>
<totfact> 0.14303982E+03</totfact>
</mgrwt>
</event>
<event>
 6    1  0.9598567E-004  0.4158937E+03  0.7818608E-02  0.1038540E+00
         21   -1    0    0  503  502  0.00000000000E+00  0.00000000000E+00  0.42227640163E+03  0.42227640163E+03  0.00000000000E+00 0. -1.
         21   -1    0    0  501  503 -0.00000000000E+00 -0.00000000000E+00 -0.77538129535E+03  0.77538129535E+03  0.00000000000E+00 0. -1.
    9000007    2    1    2  501    0  0.10525640426E+03  0.43458343965E+02 -0.58853422744E+03  0.71975131548E+03  0.39837404656E+03 0.  0.
    9000005    1    3    3    0    0  0.20206780979E+03 -0.11154106902E+03 -0.30656087446E+03  0.38373608063E+03  0.99999687468E+00 0.  0.
          4    1    3    3  501    0 -0.96811405525E+02  0.15499941298E+03 -0.28197335298E+03  0.33601523486E+03  0.00000000000E+00 0.  1.
   -9000007    1    1    2    0  502 -0.10525640426E+03 -0.43458343965E+02  0.23542933372E+03  0.47790638150E+03  0.40000000000E+03 0. -1.
<mgrwt>
<rscale>  2 0.41550222E+03</rscale>
<asrwt>0</asrwt>
<pdfrwt beam="1">  1       21 0.64965601E-01 0.41589366E+03</pdfrwt>
<pdfrwt beam="2">  1       21 0.11928943E+00 0.41589366E+03</pdfrwt>
<totfact> 0.10071683E+03</totfact>
</mgrwt>
</event>
<event>
 6    1  0.9598567E-004  0.4399312E+03  0.7818608E-02  0.1030796E+00
         21   -1    0    0  503  502  0.00000000000E+00  0.00000000000E+00  0.55073531151E+03  0.55073531151E+03  0.00000000000E+00 0.  1.
         21   -1    0    0  501  503 -0.00000000000E+00 -0.00000000000E+00 -0.10849529058E+04  0.10849529058E+04  0.00000000000E+00 0.  1.
    9000007    2    1    2  501    0  0.15869832508E+03  0.89605533407E+02 -0.93975346088E+03  0.10376299852E+04  0.40040617983E+03 0.  0.
    9000005    1    3    3    0    0  0.17609926418E+03 -0.10010464465E+03 -0.24847726114E+03  0.32058359288E+03  0.99999687468E+00 0.  0.
          4    1    3    3  501    0 -0.17400939107E+02  0.18971017805E+03 -0.69127619974E+03  0.71704639227E+03  0.00000000000E+00 0.  1.
   -9000007    1    1    2    0  502 -0.15869832508E+03 -0.89605533407E+02  0.40553586657E+03  0.59805823218E+03  0.40000000000E+03 0.  1.
<mgrwt>
<rscale>  2 0.43983871E+03</rscale>
<asrwt>0</asrwt>
<pdfrwt beam="1">  1       21 0.84728510E-01 0.43993115E+03</pdfrwt>
<pdfrwt beam="2">  1       21 0.16691583E+00 0.43993115E+03</pdfrwt>
<totfact> 0.22215286E+02</totfact>
</mgrwt>
</event>
<event>
 6    1  0.9598567E-004  0.4166313E+03  0.7818608E-02  0.1038169E+00
         21   -1    0    0  503  502  0.00000000000E+00  0.00000000000E+00  0.84303095782E+03  0.84303095782E+03  0.00000000000E+00 0.  1.
         21   -1    0    0  501  503 -0.00000000000E+00 -0.00000000000E+00 -0.29222667370E+03  0.29222667370E+03  0.00000000000E+00 0.  1.
    9000007    2    1    2  501    0 -0.58439485722E+02  0.10082895494E+03  0.58392342030E+03  0.71731202641E+03  0.39998541324E+03 0.  0.
    9000005    1    3    3    0    0  0.10538226250E+02  0.76892814268E+01 -0.60831632092E+02  0.62222718666E+02  0.99999687468E+00 0.  0.
          4    1    3    3  501    0 -0.68977711972E+02  0.93139673516E+02  0.64475505239E+03  0.65508930774E+03  0.00000000000E+00 0.  1.
   -9000007    1    1    2    0  502  0.58439485722E+02 -0.10082895494E+03 -0.33119136182E+02  0.41794560511E+03  0.40000000000E+03 0.  1.
<mgrwt>
<rscale>  2 0.41662781E+03</rscale>
<asrwt>0</asrwt>
<pdfrwt beam="1">  1       21 0.12969707E+00 0.41663131E+03</pdfrwt>
<pdfrwt beam="2">  1       21 0.44957950E-01 0.41663131E+03</pdfrwt>
<totfact> 0.17939128E+03</totfact>
</mgrwt>
</event>
<event>
 6    1  0.9598567E-004  0.4771682E+03  0.7818608E-02  0.1019947E+00
         21   -1    0    0  503  502  0.00000000000E+00  0.00000000000E+00  0.12011303974E+04  0.12011303974E+04  0.00000000000E+00 0.  1.
         21   -1    0    0  501  503 -0.00000000000E+00 -0.00000000000E+00 -0.24651113572E+03  0.24651113572E+03  0.00000000000E+00 0.  1.
    9000007    2    1    2  501    0  0.22265579324E+03 -0.13458796154E+03  0.12870149793E+03  0.49379161089E+03  0.39947034654E+03 0.  0.
    9000005    1    3    3    0    0 -0.21627302078E+01 -0.93348980588E+02  0.22663998494E+03  0.24512321870E+03  0.99999687468E+00 0.  0.
          4    1    3    3  501    0  0.22481852345E+03 -0.41238980952E+02 -0.97938487015E+02  0.24866839219E+03  0.00000000000E+00 0.  1.
   -9000007    1    1    2    0  502 -0.22265579324E+03  0.13458796154E+03  0.82591776377E+03  0.95384992224E+03  0.40000000000E+03 0.  1.
<mgrwt>
<rscale>  2 0.47705722E+03</rscale>
<asrwt>0</asrwt>
<pdfrwt beam="1">  1       21 0.18478929E+00 0.47716823E+03</pdfrwt>
<pdfrwt beam="2">  1       21 0.37924791E-01 0.47716823E+03</pdfrwt>
<totfact> 0.93677764E+02</totfact>
</mgrwt>
</event>
<event>
 6    1  0.9598567E-004  0.4029258E+03  0.7818608E-02  0.1042786E+00
         21   -1    0    0  503  502  0.00000000000E+00  0.00000000000E+00  0.13358797335E+04  0.13358797335E+04  0.00000000000E+00 0.  1.
         21   -1    0    0  501  503 -0.00000000000E+00 -0.00000000000E+00 -0.15744674506E+03  0.15744674506E+03  0.00000000000E+00 0.  1.
    9000007    2    1    2  501    0 -0.44335121673E+02  0.19585904003E+02  0.23224897754E+03  0.46492315635E+03  0.39983089312E+03 0.  0.
    9000005    1    3    3    0    0 -0.27554434339E+02 -0.18458860650E+03  0.56493021762E+02  0.19499913334E+03  0.99999687468E+00 0.  0.
          4    1    3    3  501    0 -0.16780687334E+02  0.20417451050E+03  0.17575595577E+03  0.26992402301E+03  0.00000000000E+00 0.  1.
   -9000007    1    1    2    0  502  0.44335121673E+02 -0.19585904003E+02  0.94618401095E+03  0.10284033223E+04  0.40000000000E+03 0.  1.
<mgrwt>
<rscale>  2 0.40288384E+03</rscale>
<asrwt>0</asrwt>
<pdfrwt beam="1">  1       21 0.20551995E+00 0.40292581E+03</pdfrwt>
<pdfrwt beam="2">  1       21 0.24222577E-01 0.40292581E+03</pdfrwt>
<totfact> 0.17129119E+03</totfact>
</mgrwt>
</event>
<event>
 6    1  0.9598567E-004  0.4150087E+03  0.7818608E-02  0.1038755E+00
         21   -1    0    0  503  502  0.00000000000E+00  0.00000000000E+00  0.11187358798E+03  0.11187358798E+03  0.00000000000E+00 0. -1.
         21   -1    0    0  501  503 -0.00000000000E+00 -0.00000000000E+00 -0.18445115697E+04  0.18445115697E+04  0.00000000000E+00 0. -1.
    9000007    2    1    2  501    0 -0.44348468346E+02 -0.10131830844E+03 -0.46650083276E+03  0.62396800594E+03  0.39935054677E+03 0.  0.
    9000005    1    3    3    0    0  0.66208022877E+02 -0.15172632533E+03 -0.26692273796E+02  0.16768380234E+03  0.99999687468E+00 0.  0.
          4    1    3    3  501    0 -0.11055649122E+03  0.50408016896E+02 -0.43980855897E+03  0.45628420360E+03  0.00000000000E+00 0.  1.
   -9000007    1    1    2    0  502  0.44348468346E+02  0.10131830844E+03 -0.12661371489E+04  0.13324171517E+04  0.40000000000E+03 0. -1.
<mgrwt>
<rscale>  2 0.41485209E+03</rscale>
<asrwt>0</asrwt>
<pdfrwt beam="1">  1       21 0.17211323E-01 0.41500866E+03</pdfrwt>
<pdfrwt beam="2">  1       21 0.28377098E+00 0.41500866E+03</pdfrwt>
<totfact> 0.10691370E+03</totfact>
</mgrwt>
</event>
<event>
 6    1  0.9598567E-004  0.6145164E+03  0.7818608E-02  0.9876523E-01
         21   -1    0    0  503  502  0.00000000000E+00  0.00000000000E+00  0.27483299683E+03  0.27483299683E+03  0.00000000000E+00 0.  1.
         21   -1    0    0  501  503 -0.00000000000E+00 -0.00000000000E+00 -0.21688904961E+04  0.21688904961E+04  0.00000000000E+00 0. -1.
    9000007    2    1    2  501    0 -0.11208958599E+03 -0.45284245575E+03 -0.16875710077E+04  0.17954434329E+04  0.39760640065E+03 0.  0.
    9000005    1    3    3    0    0  0.22803729664E+02 -0.38485967186E+03 -0.15272864988E+04  0.15751958692E+04  0.99999687468E+00 0.  0.
          4    1    3    3  501    0 -0.13489331566E+03 -0.67982783892E+02 -0.16028450889E+03  0.22024756368E+03  0.00000000000E+00 0.  1.
   -9000007    1    1    2    0  502  0.11208958599E+03  0.45284245575E+03 -0.20648649161E+03  0.64828006003E+03  0.40000000000E+03 0.  1.
<mgrwt>
<rscale>  2 0.61412716E+03</rscale>
<asrwt>0</asrwt>
<pdfrwt beam="1">  1       21 0.42282000E-01 0.61451637E+03</pdfrwt>
<pdfrwt beam="2">  1       21 0.33367545E+00 0.61451637E+03</pdfrwt>
<totfact> 0.81590761E+01</totfact>
</mgrwt>
</event>
<event>
 6    1  0.9598567E-004  0.4441847E+03  0.7818608E-02  0.1029567E+00
         21   -1    0    0  503  502  0.00000000000E+00  0.00000000000E+00  0.15418991656E+04  0.15418991656E+04  0.00000000000E+00 0.  1.
         21   -1    0    0  501  503 -0.00000000000E+00 -0.00000000000E+00 -0.13973612692E+03  0.13973612692E+03  0.00000000000E+00 0. -1.
    9000007    2    1    2  501    0  0.73767958631E+02 -0.17529269071E+03  0.45412944651E+03  0.63524295165E+03  0.40141102911E+03 0.  0.
    9000005    1    3    3    0    0  0.40470129744E+01 -0.95240685306E+02 -0.58424910958E+02  0.11181071803E+03  0.99999687468E+00 0.  0.
          4    1    3    3  501    0  0.69720945657E+02 -0.80052005399E+02  0.51255435747E+03  0.52343223362E+03  0.00000000000E+00 0.  1.
   -9000007    1    1    2    0  502 -0.73767958631E+02  0.17529269071E+03  0.94803359215E+03  0.10463923408E+04  0.40000000000E+03 0.  1.
<mgrwt>
<rscale>  2 0.44386568E+03</rscale>
<asrwt>0</asrwt>
<pdfrwt beam="1">  1       21 0.23721525E+00 0.44418471E+03</pdfrwt>
<pdfrwt beam="2">  1       21 0.21497867E-01 0.44418471E+03</pdfrwt>
<totfact> 0.13270251E+03</totfact>
</mgrwt>
</event>
<event>
 6    1  0.9598567E-004  0.4176760E+03  0.7818608E-02  0.1037914E+00
         21   -1    0    0  503  502  0.00000000000E+00  0.00000000000E+00  0.19844570859E+04  0.19844570859E+04  0.00000000000E+00 0. -1.
         21   -1    0    0  501  503 -0.00000000000E+00 -0.00000000000E+00 -0.26869589035E+03  0.26869589035E+03  0.00000000000E+00 0. -1.
    9000007    2    1    2  501    0  0.10885886265E+03  0.41287600056E+02 -0.66423113296E+02  0.42292462203E+03  0.40112128844E+03 0.  0.
    9000005    1    3    3    0    0  0.24155639261E+03 -0.42347960103E+02 -0.95895722222E+02  0.26332457172E+03  0.99999687468E+00 0.  0.
          4    1    3    3  501    0 -0.13269752996E+03  0.83635560159E+02  0.29472608927E+02  0.15960005031E+03  0.00000000000E+00 0.  1.
   -9000007    1    1    2    0  502 -0.10885886265E+03 -0.41287600056E+02  0.17821843089E+04  0.18302283542E+04  0.40000000000E+03 0. -1.
<mgrwt>
<rscale>  2 0.41740652E+03</rscale>
<asrwt>0</asrwt>
<pdfrwt beam="1">  1       21 0.30530108E+00 0.41767596E+03</pdfrwt>
<pdfrwt beam="2">  1       21 0.41337830E-01 0.41767596E+03</pdfrwt>
<totfact> 0.14222560E+02</totfact>
</mgrwt>
</event>
<event>
 6    1  0.9598567E-004  0.4012482E+03  0.7818608E-02  0.1043404E+00
         21   -1    0    0  503  502  0.00000000000E+00  0.00000000000E+00  0.34442371091E+03  0.34442371091E+03  0.00000000000E+00 0.  1.
         21   -1    0    0  501  503 -0.00000000000E+00 -0.00000000000E+00 -0.48710666347E+03  0.48710666347E+03  0.00000000000E+00 0.  1.
    9000007    2    1    2  501    0 -0.31192926848E+02 -0.52042288272E+01 -0.15639796994E+03  0.43004789109E+03  0.39935044879E+03 0.  0.
    9000005    1    3    3    0    0 -0.10271694194E+03 -0.17659235764E+03 -0.32665862423E+02  0.20689052540E+03  0.99999687468E+00 0.  0.
          4    1    3    3  501    0  0.71524015094E+02  0.17138812881E+03 -0.12373210751E+03  0.22315736569E+03  0.00000000000E+00 0.  1.
   -9000007    1    1    2    0  502  0.31192926848E+02  0.52042288272E+01  0.13715017372E+02  0.40148248328E+03  0.40000000000E+03 0.  1.
<mgrwt>
<rscale>  2 0.40108618E+03</rscale>
<asrwt>0</asrwt>
<pdfrwt beam="1">  1       21 0.52988263E-01 0.40124816E+03</pdfrwt>
<pdfrwt beam="2">  1       21 0.74939486E-01 0.40124816E+03</pdfrwt>
<totfact> 0.48050920E+03</totfact>
</mgrwt>
</event>
<event>
 6    1  0.9598567E-004  0.4589279E+03  0.7818608E-02  0.1025153E+00
         21   -1    0    0  503  502  0.00000000000E+00  0.00000000000E+00  0.25114692686E+04  0.25114692686E+04  0.00000000000E+00 0.  1.
         21   -1    0    0  501  503 -0.00000000000E+00 -0.00000000000E+00 -0.84810307107E+02  0.84810307107E+02  0.00000000000E+00 0.  1.
    9000007    2    1    2  501    0  0.19271293296E+03 -0.11276241159E+03  0.10665245741E+04  0.11610725566E+04  0.40095034415E+03 0.  0.
    9000005    1    3    3    0    0 -0.61208534514E+02 -0.12366411576E+03  0.12615783818E+03  0.18696550043E+03  0.99999687468E+00 0.  0.
          4    1    3    3  501    0  0.25392146748E+03  0.10901704172E+02  0.94036673597E+03  0.97410705619E+03  0.00000000000E+00 0.  1.
   -9000007    1    1    2    0  502 -0.19271293296E+03  0.11276241159E+03  0.13601343873E+04  0.14352070191E+04  0.40000000000E+03 0.  1.
<mgrwt>
<rscale>  2 0.45872024E+03</rscale>
<asrwt>0</asrwt>
<pdfrwt beam="1">  1       21 0.38637983E+00 0.45892790E+03</pdfrwt>
<pdfrwt beam="2">  1       21 0.13047741E-01 0.45892790E+03</pdfrwt>
<totfact> 0.41160167E+02</totfact>
</mgrwt>
</event>
<event>
 6    1  0.9598567E-004  0.4050506E+03  0.7818608E-02  0.1042236E+00
         21   -1    0    0  503  502  0.00000000000E+00  0.00000000000E+00  0.70814761474E+03  0.70814761474E+03  0.00000000000E+00 0.  1.
         21   -1    0    0  501  503 -0.00000000000E+00 -0.00000000000E+00 -0.34396761745E+03  0.34396761745E+03  0.00000000000E+00 0.  1.
    9000007    2    1    2  501    0 -0.79317073510E+01 -0.63269991321E+02 -0.12051657195E+03  0.42045332260E+03  0.39773200599E+03 0.  0.
    9000005    1    3    3    0    0 -0.17914612749E+03  0.24250438345E+00  0.32660424512E+02  0.18210188666E+03  0.99999687468E+00 0.  0.
          4    1    3    3  501    0  0.17121442014E+03 -0.63512495705E+02 -0.15317699646E+03  0.23835143594E+03  0.00000000000E+00 0.  1.
   -9000007    1    1    2    0  502  0.79317073510E+01  0.63269991321E+02  0.48469656924E+03  0.63166190958E+03  0.40000000000E+03 0. -1.
<mgrwt>
<rscale>  2 0.40448957E+03</rscale>
<asrwt>0</asrwt>
<pdfrwt beam="1">  1       21 0.10894579E+00 0.40505062E+03</pdfrwt>
<pdfrwt beam="2">  1       21 0.52918095E-01 0.40505062E+03</pdfrwt>
<totfact> 0.19835678E+03</totfact>
</mgrwt>
</event>
<event>
 6    1  0.9598567E-004  0.4542603E+03  0.7818608E-02  0.1026460E+00
         21   -1    0    0  503  502  0.00000000000E+00  0.00000000000E+00  0.73604256632E+03  0.73604256632E+03  0.00000000000E+00 0. -1.
         21   -1    0    0  501  503 -0.00000000000E+00 -0.00000000000E+00 -0.39066873893E+03  0.39066873893E+03  0.00000000000E+00 0.  1.
    9000007    2    1    2  501    0  0.19469924477E+03  0.91894390479E+02 -0.12667961628E+03  0.47158778362E+03  0.39999367190E+03 0.  0.
    9000005    1    3    3    0    0  0.12442514067E+03 -0.17264070911E+02  0.13196124117E+03  0.18219339434E+03  0.99999687468E+00 0.  0.
          4    1    3    3  501    0  0.70274104102E+02  0.10915846139E+03 -0.25864085745E+03  0.28939438928E+03  0.00000000000E+00 0.  1.
   -9000007    1    1    2    0  502 -0.19469924477E+03 -0.91894390479E+02  0.47205344367E+03  0.65512352163E+03  0.40000000000E+03 0.  1.
<mgrwt>
<rscale>  2 0.45425886E+03</rscale>
<asrwt>0</asrwt>
<pdfrwt beam="1">  1       21 0.11323732E+00 0.45426025E+03</pdfrwt>
<pdfrwt beam="2">  1       21 0.60102883E-01 0.45426025E+03</pdfrwt>
<totfact> 0.13405282E+03</totfact>
</mgrwt>
</event>
<event>
 6    1  0.9598567E-004  0.4293908E+03  0.7818608E-02  0.1034062E+00
         21   -1    0    0  503  502  0.00000000000E+00  0.00000000000E+00  0.92099196710E+03  0.92099196710E+03  0.00000000000E+00 0. -1.
         21   -1    0    0  501  503 -0.00000000000E+00 -0.00000000000E+00 -0.20893869182E+03  0.20893869182E+03  0.00000000000E+00 0. -1.
    9000007    2    1    2  501    0  0.14598239234E+03  0.55367679612E+02  0.47191429706E+03  0.63795183043E+03  0.39987872582E+03 0.  0.
    9000005    1    3    3    0    0  0.14254510029E+03  0.22040786632E+03  0.31702153400E+03  0.41158521130E+03  0.99999687468E+00 0.  0.
          4    1    3    3  501    0  0.34372920499E+01 -0.16504018671E+03  0.15489276307E+03  0.22636661913E+03  0.00000000000E+00 0.  1.
   -9000007    1    1    2    0  502 -0.14598239234E+03 -0.55367679612E+02  0.24013897822E+03  0.49197882849E+03  0.40000000000E+03 0. -1.
<mgrwt>
<rscale>  2 0.42936253E+03</rscale>
<asrwt>0</asrwt>
<pdfrwt beam="1">  1       21 0.14169107E+00 0.42939078E+03</pdfrwt>
<pdfrwt beam="2">  1       21 0.32144415E-01 0.42939078E+03</pdfrwt>
<totfact> 0.28092221E+03</totfact>
</mgrwt>
</event>
<event>
 6    1  0.9598567E-004  0.5433793E+03  0.7818608E-02  0.1003050E+00
         21   -1    0    0  503  502  0.00000000000E+00  0.00000000000E+00  0.23156115106E+03  0.23156115106E+03  0.00000000000E+00 0.  1.
         21   -1    0    0  501  503 -0.00000000000E+00 -0.00000000000E+00 -0.25349744258E+04  0.25349744258E+04  0.00000000000E+00 0. -1.
    9000007    2    1    2  501    0  0.17268619841E+03  0.32438137487E+03 -0.21271752677E+04  0.21954807331E+04  0.40027144581E+03 0.  0.
    9000005    1    3    3    0    0  0.90877822712E+02  0.85696064866E+02 -0.16585456621E+04  0.16632430091E+04  0.99999687468E+00 0.  0.
          4    1    3    3  501    0  0.81808375697E+02  0.23868531000E+03 -0.46862960565E+03  0.53223772398E+03  0.00000000000E+00 0.  1.
   -9000007    1    1    2    0  502 -0.17268619841E+03 -0.32438137487E+03 -0.17623800705E+03  0.57105484379E+03  0.40000000000E+03 0.  1.
<mgrwt>
<rscale>  2 0.54332928E+03</rscale>
<asrwt>0</asrwt>
<pdfrwt beam="1">  1       21 0.35624792E-01 0.54337927E+03</pdfrwt>
<pdfrwt beam="2">  1       21 0.38999608E+00 0.54337927E+03</pdfrwt>
<totfact> 0.53600999E+01</totfact>
</mgrwt>
</event>
<event>
 6    1  0.9598567E-004  0.5083354E+03  0.7818608E-02  0.1011806E+00
         21   -1    0    0  503  502  0.00000000000E+00  0.00000000000E+00  0.60107212534E+03  0.60107212534E+03  0.00000000000E+00 0. -1.
         21   -1    0    0  501  503 -0.00000000000E+00 -0.00000000000E+00 -0.81057202217E+03  0.81057202217E+03  0.00000000000E+00 0. -1.
    9000007    2    1    2  501    0  0.30634378377E+03 -0.41278286600E+02 -0.59010519918E+03  0.77886392739E+03  0.40355230206E+03 0.  0.
    9000005    1    3    3    0    0  0.37235164866E+03  0.67712568450E+02 -0.40681905450E+03  0.55563790843E+03  0.99999687468E+00 0.  0.
          4    1    3    3  501    0 -0.66007864890E+02 -0.10899085505E+03 -0.18328614467E+03  0.22322601896E+03  0.00000000000E+00 0.  1.
   -9000007    1    1    2    0  502 -0.30634378377E+03  0.41278286600E+02  0.38060530234E+03  0.63278022012E+03  0.40000000000E+03 0. -1.
<mgrwt>
<rscale>  2 0.50763006E+03</rscale>
<asrwt>0</asrwt>
<pdfrwt beam="1">  1       21 0.92472635E-01 0.50833539E+03</pdfrwt>
<pdfrwt beam="2">  1       21 0.12470339E+00 0.50833539E+03</pdfrwt>
<totfact> 0.38360081E+02</totfact>
</mgrwt>
</event>
<event>
 6    1  0.9598567E-004  0.4268605E+03  0.7818608E-02  0.1034868E+00
         21   -1    0    0  503  502  0.00000000000E+00  0.00000000000E+00  0.31711474949E+03  0.31711474949E+03  0.00000000000E+00 0. -1.
         21   -1    0    0  501  503 -0.00000000000E+00 -0.00000000000E+00 -0.57721526226E+03  0.57721526226E+03  0.00000000000E+00 0. -1.
    9000007    2    1    2  501    0  0.24321856709E+02  0.14703186611E+03 -0.98735413937E+02  0.43798735816E+03  0.39984287111E+03 0.  0.
    9000005    1    3    3    0    0 -0.12637153900E+03  0.13522593539E+03  0.81946954432E+02  0.20241571778E+03  0.99999687468E+00 0.  0.
          4    1    3    3  501    0  0.15069339571E+03  0.11805930721E+02 -0.18068236837E+03  0.23557164038E+03  0.00000000000E+00 0.  1.
   -9000007    1    1    2    0  502 -0.24321856709E+02 -0.14703186611E+03 -0.16136509884E+03  0.45634265359E+03  0.40000000000E+03 0.  1.
<mgrwt>
<rscale>  2 0.42682373E+03</rscale>
<asrwt>0</asrwt>
<pdfrwt beam="1">  1       21 0.48786885E-01 0.42686054E+03</pdfrwt>
<pdfrwt beam="2">  1       21 0.88802348E-01 0.42686054E+03</pdfrwt>
<totfact> 0.38309378E+03</totfact>
</mgrwt>
</event>
<event>
 6    1  0.9598567E-004  0.4674210E+03  0.7818608E-02  0.1022655E+00
         21   -1    0    0  503  502  0.00000000000E+00  0.00000000000E+00  0.15431990741E+03  0.15431990741E+03  0.00000000000E+00 0. -1.
         21   -1    0    0  501  503 -0.00000000000E+00 -0.00000000000E+00 -0.14157158152E+04  0.14157158152E+04  0.00000000000E+00 0. -1.
    9000007    2    1    2  501    0  0.23193206718E+03 -0.68023313422E+02 -0.63863944221E+03  0.79141818467E+03  0.40007843097E+03 0.  0.
    9000005    1    3    3    0    0  0.70319299912E+02 -0.22556949171E+03 -0.38667193866E+03  0.45314742377E+03  0.99999687468E+00 0.  0.
          4    1    3    3  501    0  0.16161276727E+03  0.15754617829E+03 -0.25196750355E+03  0.33827076090E+03  0.00000000000E+00 0.  1.
   -9000007    1    1    2    0  502 -0.23193206718E+03  0.68023313422E+02 -0.62275646555E+03  0.77861753791E+03  0.40000000000E+03 0. -1.
<mgrwt>
<rscale>  2 0.46740423E+03</rscale>
<asrwt>0</asrwt>
<pdfrwt beam="1">  1       21 0.23741525E-01 0.46742102E+03</pdfrwt>
<pdfrwt beam="2">  1       21 0.21780243E+00 0.46742102E+03</pdfrwt>
<totfact> 0.14385067E+03</totfact>
</mgrwt>
</event>
<event>
 6    1  0.9598567E-004  0.4238409E+03  0.7818608E-02  0.1036720E+00
         21   -1    0    0  503  502  0.00000000000E+00  0.00000000000E+00  0.27789199887E+03  0.27789199887E+03  0.00000000000E+00 0.  1.
         21   -1    0    0  501  503 -0.00000000000E+00 -0.00000000000E+00 -0.63049581536E+03  0.63049581536E+03  0.00000000000E+00 0.  1.
    9000007    2    1    2  501    0 -0.43313138833E+02  0.13328563332E+03 -0.15874814268E+03  0.44231795862E+03  0.38833376838E+03 0.  0.
    9000005    1    3    3    0    0  0.16087823685E+03 -0.40030243153E+01 -0.26895390192E+02  0.16316308805E+03  0.99999687468E+00 0.  0.
          4    1    3    3  501    0 -0.20419137568E+03  0.13728865764E+03 -0.13185275249E+03  0.27915487056E+03  0.00000000000E+00 0.  1.
   -9000007    1    1    2    0  502  0.43313138833E+02 -0.13328563332E+03 -0.19385567380E+03  0.46606985561E+03  0.40000000000E+03 0.  1.
<mgrwt>
<rscale>  2 0.42106574E+03</rscale>
<asrwt>0</asrwt>
<pdfrwt beam="1">  1       21 0.42752616E-01 0.42384088E+03</pdfrwt>
<pdfrwt beam="2">  1       21 0.96999354E-01 0.42384088E+03</pdfrwt>
<totfact> 0.40992524E+03</totfact>
</mgrwt>
</event>
<event>
 6    1  0.9598567E-004  0.8998315E+03  0.7818608E-02  0.9425938E-01
         21   -1    0    0  503  502  0.00000000000E+00  0.00000000000E+00  0.13094922303E+04  0.13094922303E+04  0.00000000000E+00 0.  1.
         21   -1    0    0  501  503 -0.00000000000E+00 -0.00000000000E+00 -0.66948146680E+03  0.66948146680E+03  0.00000000000E+00 0. -1.
    9000007    2    1    2  501    0  0.80359087460E+03 -0.62756370333E+02  0.45564826536E+02  0.90051988367E+03  0.39895269357E+03 0.  0.
    9000005    1    3    3    0    0  0.33272780583E+03 -0.22021784200E+03  0.61791602353E+02  0.40376093523E+03  0.99999687468E+00 0.  0.
          4    1    3    3  501    0  0.47086306878E+03  0.15746147167E+03 -0.16226775817E+02  0.49675894844E+03  0.00000000000E+00 0.  1.
   -9000007    1    1    2    0  502 -0.80359087460E+03  0.62756370333E+02  0.59444593697E+03  0.10784538135E+04  0.40000000000E+03 0.  1.
<mgrwt>
<rscale>  2 0.89971517E+03</rscale>
<asrwt>0</asrwt>
<pdfrwt beam="1">  1       21 0.20146034E+00 0.89983146E+03</pdfrwt>
<pdfrwt beam="2">  1       21 0.10299715E+00 0.89983146E+03</pdfrwt>
<totfact> 0.66569254E+01</totfact>
</mgrwt>
</event>
<event>
 6    1  0.9598567E-004  0.4052415E+03  0.7818608E-02  0.1042069E+00
         21   -1    0    0  503  502  0.00000000000E+00  0.00000000000E+00  0.26732434788E+03  0.26732434788E+03  0.00000000000E+00 0.  1.
         21   -1    0    0  501  503 -0.00000000000E+00 -0.00000000000E+00 -0.10790053686E+04  0.10790053686E+04  0.00000000000E+00 0.  1.
    9000007    2    1    2  501    0  0.89681660015E+01  0.64344865959E+02 -0.84806033660E+03  0.93945855215E+03  0.39894278654E+03 0.  0.
    9000005    1    3    3    0    0  0.11366222089E+03  0.11253432168E+03 -0.11403063224E+03  0.19643589055E+03  0.99999687468E+00 0.  0.
          4    1    3    3  501    0 -0.10469405489E+03 -0.48189455723E+02 -0.73402970436E+03  0.74302266160E+03  0.00000000000E+00 0.  1.
   -9000007    1    1    2    0  502 -0.89681660015E+01 -0.64344865959E+02  0.36379315825E+02  0.40687116437E+03  0.40000000000E+03 0.  1.
<mgrwt>
<rscale>  2 0.40498039E+03</rscale>
<asrwt>0</asrwt>
<pdfrwt beam="1">  1       21 0.41126823E-01 0.40524152E+03</pdfrwt>
<pdfrwt beam="2">  1       21 0.16600083E+00 0.40524152E+03</pdfrwt>
<totfact> 0.11162138E+03</totfact>
</mgrwt>
</event>
<event>
 6    1  0.9598567E-004  0.4153737E+03  0.7818608E-02  0.1038643E+00
         21   -1    0    0  503  502  0.00000000000E+00  0.00000000000E+00  0.56628423531E+03  0.56628423531E+03  0.00000000000E+00 0.  1.
         21   -1    0    0  501  503 -0.00000000000E+00 -0.00000000000E+00 -0.30702814368E+03  0.30702814368E+03  0.00000000000E+00 0.  1.
    9000007    2    1    2  501    0  0.10007542486E+03  0.43770089654E+02  0.17204891672E+03  0.44959548911E+03  0.40075474130E+03 0.  0.
    9000005    1    3    3    0    0  0.21368612610E+03 -0.75804304280E+02  0.17210259651E+03  0.28465480279E+03  0.99999687468E+00 0.  0.
          4    1    3    3  501    0 -0.11361070124E+03  0.11957439393E+03 -0.53679793337E-01  0.16494068632E+03  0.00000000000E+00 0.  1.
   -9000007    1    1    2    0  502 -0.10007542486E+03 -0.43770089654E+02  0.87207174911E+02  0.42371688987E+03  0.40000000000E+03 0. -1.
<mgrwt>
<rscale>  2 0.41519150E+03</rscale>
<asrwt>0</asrwt>
<pdfrwt beam="1">  1       21 0.87120652E-01 0.41537366E+03</pdfrwt>
<pdfrwt beam="2">  1       21 0.47235099E-01 0.41537366E+03</pdfrwt>
<totfact> 0.43081551E+03</totfact>
</mgrwt>
</event>
<event>
 6    1  0.9598567E-004  0.4330157E+03  0.7818608E-02  0.1033028E+00
         21   -1    0    0  503  502  0.00000000000E+00  0.00000000000E+00  0.24596753082E+03  0.24596753082E+03  0.00000000000E+00 0. -1.
         21   -1    0    0  501  503 -0.00000000000E+00 -0.00000000000E+00 -0.11226343583E+04  0.11226343583E+04  0.00000000000E+00 0. -1.
    9000007    2    1    2  501    0  0.18944684425E+02  0.16080835527E+03 -0.82792913580E+03  0.93432825331E+03  0.40160229436E+03 0.  0.
    9000005    1    3    3    0    0  0.12677943867E+03  0.25766704642E+03 -0.52124162835E+03  0.59511273554E+03  0.99999687468E+00 0.  0.
          4    1    3    3  501    0 -0.10783475424E+03 -0.96858691145E+02 -0.30668750745E+03  0.33921551777E+03  0.00000000000E+00 0.  1.
   -9000007    1    1    2    0  502 -0.18944684425E+02 -0.16080835527E+03 -0.48737691719E+02  0.43427363584E+03  0.40000000000E+03 0. -1.
<mgrwt>
<rscale>  2 0.43264385E+03</rscale>
<asrwt>0</asrwt>
<pdfrwt beam="1">  1       21 0.37841158E-01 0.43301574E+03</pdfrwt>
<pdfrwt beam="2">  1       21 0.17271298E+00 0.43301574E+03</pdfrwt>
<totfact> 0.11683241E+03</totfact>
</mgrwt>
</event>
<event>
 6    1  0.9598567E-004  0.5156149E+03  0.7818608E-02  0.1009938E+00
         21   -1    0    0  503  502  0.00000000000E+00  0.00000000000E+00  0.38732408567E+03  0.38732408567E+03  0.00000000000E+00 0. -1.
         21   -1    0    0  501  503 -0.00000000000E+00 -0.00000000000E+00 -0.74173615401E+03  0.74173615401E+03  0.00000000000E+00 0.  1.
    9000007    2    1    2  501    0  0.12875297994E+01  0.32140753440E+03 -0.33632808543E+03  0.61560966626E+03  0.40318013251E+03 0.  0.
    9000005    1    3    3    0    0  0.10646311116E+03  0.19842566229E+03  0.18176985286E+02  0.22591710931E+03  0.99999687468E+00 0.  0.
          4    1    3    3  501    0 -0.10517558136E+03  0.12298187211E+03 -0.35450507071E+03  0.38969255695E+03  0.00000000000E+00 0.  1.
   -9000007    1    1    2    0  502 -0.12875297994E+01 -0.32140753440E+03 -0.18083982922E+02  0.51345057342E+03  0.40000000000E+03 0. -1.
<mgrwt>
<rscale>  2 0.51499302E+03</rscale>
<asrwt>0</asrwt>
<pdfrwt beam="1">  1       21 0.59588321E-01 0.51561486E+03</pdfrwt>
<pdfrwt beam="2">  1       21 0.11411325E+00 0.51561486E+03</pdfrwt>
<totfact> 0.13097904E+03</totfact>
</mgrwt>
</event>
<event>
 6    1  0.9598567E-004  0.5535687E+03  0.7818608E-02  0.1000671E+00
         21   -1    0    0  503  502  0.00000000000E+00  0.00000000000E+00  0.47422858685E+03  0.47422858685E+03  0.00000000000E+00 0. -1.
         21   -1    0    0  501  503 -0.00000000000E+00 -0.00000000000E+00 -0.68651868796E+03  0.68651868796E+03  0.00000000000E+00 0. -1.
    9000007    2    1    2  501    0 -0.26609199979E+03  0.27501464267E+03 -0.24682425933E+03  0.60610269120E+03  0.40000031407E+03 0.  0.
    9000005    1    3    3    0    0  0.40426947111E+02  0.24176050351E+03 -0.11589569275E+03  0.27113703307E+03  0.99999687468E+00 0.  0.
          4    1    3    3  501    0 -0.30651894690E+03  0.33254139155E+02 -0.13092856658E+03  0.33496565814E+03  0.00000000000E+00 0.  1.
   -9000007    1    1    2    0  502  0.26609199979E+03 -0.27501464267E+03  0.34534158217E+02  0.55464458360E+03  0.40000000000E+03 0. -1.
<mgrwt>
<rscale>  2 0.55356860E+03</rscale>
<asrwt>0</asrwt>
<pdfrwt beam="1">  1       21 0.72958244E-01 0.55356866E+03</pdfrwt>
<pdfrwt beam="2">  1       21 0.10561826E+00 0.55356866E+03</pdfrwt>
<totfact> 0.99702320E+02</totfact>
</mgrwt>
</event>
<event>
 6    1  0.9598567E-004  0.4170107E+03  0.7818608E-02  0.1038106E+00
         21   -1    0    0  503  502  0.00000000000E+00  0.00000000000E+00  0.32557270276E+03  0.32557270276E+03  0.00000000000E+00 0. -1.
         21   -1    0    0  501  503 -0.00000000000E+00 -0.00000000000E+00 -0.92349545510E+03  0.92349545510E+03  0.00000000000E+00 0.  1.
    9000007    2    1    2  501    0 -0.35950443020E+02 -0.10941708719E+03  0.10691271037E+03  0.43049771935E+03  0.40079099965E+03 0.  0.
    9000005    1    3    3    0    0  0.16418659100E+03  0.36543341620E+02  0.27985760875E+02  0.17051936924E+03  0.99999687468E+00 0.  0.
          4    1    3    3  501    0 -0.20013703402E+03 -0.14596042881E+03  0.78926949495E+02  0.25997835011E+03  0.00000000000E+00 0.  1.
   -9000007    1    1    2    0  502  0.35950443020E+02  0.10941708719E+03 -0.70483546270E+03  0.81857043851E+03  0.40000000000E+03 0.  1.
<mgrwt>
<rscale>  2 0.41682057E+03</rscale>
<asrwt>0</asrwt>
<pdfrwt beam="1">  1       21 0.50088108E-01 0.41701074E+03</pdfrwt>
<pdfrwt beam="2">  1       21 0.14207622E+00 0.41701074E+03</pdfrwt>
<totfact> 0.11244856E+03</totfact>
</mgrwt>
</event>
<event>
 6    1  0.9598567E-004  0.5744296E+03  0.7818608E-02  0.9959948E-01
         21   -1    0    0  503  502  0.00000000000E+00  0.00000000000E+00  0.22513933763E+03  0.22513933763E+03  0.00000000000E+00 0.  1.
         21   -1    0    0  501  503 -0.00000000000E+00 -0.00000000000E+00 -0.14950565275E+04  0.14950565275E+04  0.00000000000E+00 0. -1.
    9000007    2    1    2  501    0 -0.40682164132E+03 -0.66442123853E+02 -0.75589600962E+03  0.94939357051E+03  0.40006370830E+03 0.  0.
    9000005    1    3    3    0    0 -0.39858318004E+03  0.61458151583E+02 -0.70356462270E+03  0.81095612342E+03  0.99999687468E+00 0.  0.
          4    1    3    3  501    0 -0.82384612827E+01 -0.12790027544E+03 -0.52331386924E+02  0.13843744710E+03  0.00000000000E+00 0.  1.
   -9000007    1    1    2    0  502  0.40682164132E+03  0.66442123853E+02 -0.51402118028E+03  0.77080229466E+03  0.40000000000E+03 0.  1.
<mgrwt>
<rscale>  2 0.57441852E+03</rscale>
<asrwt>0</asrwt>
<pdfrwt beam="1">  1       21 0.34636821E-01 0.57442961E+03</pdfrwt>
<pdfrwt beam="2">  1       21 0.23000869E+00 0.57442961E+03</pdfrwt>
<totfact> 0.54383168E+02</totfact>
</mgrwt>
</event>
<event>
 6    1  0.9598567E-004  0.5883818E+03  0.7818608E-02  0.9930136E-01
         21   -1    0    0  503  502  0.00000000000E+00  0.00000000000E+00  0.30358933471E+03  0.30358933471E+03  0.00000000000E+00 0.  1.
         21   -1    0    0  501  503 -0.00000000000E+00 -0.00000000000E+00 -0.11518163842E+04  0.11518163842E+04  0.00000000000E+00 0.  1.
    9000007    2    1    2  501    0 -0.12318850509E+03  0.41266523971E+03 -0.34798921787E+03  0.68358585908E+03  0.40090537928E+03 0.  0.
    9000005    1    3    3    0    0 -0.11116787188E+03  0.33273112561E+03 -0.43894038584E+03  0.56190565045E+03  0.99999687468E+00 0.  0.
          4    1    3    3  501    0 -0.12020633206E+02  0.79934114095E+02  0.90951167967E+02  0.12168020863E+03  0.00000000000E+00 0.  1.
   -9000007    1    1    2    0  502  0.12318850509E+03 -0.41266523971E+03 -0.50023783166E+03  0.77181985986E+03  0.40000000000E+03 0.  1.
<mgrwt>
<rscale>  2 0.58822760E+03</rscale>
<asrwt>0</asrwt>
<pdfrwt beam="1">  1       21 0.46706051E-01 0.58838179E+03</pdfrwt>
<pdfrwt beam="2">  1       21 0.17720252E+00 0.58838179E+03</pdfrwt>
<totfact> 0.65831722E+02</totfact>
</mgrwt>
</event>
<event>
 6    1  0.9598567E-004  0.4950547E+03  0.7818608E-02  0.1015083E+00
         21   -1    0    0  503  502  0.00000000000E+00  0.00000000000E+00  0.64353005295E+03  0.64353005295E+03  0.00000000000E+00 0.  1.
         21   -1    0    0  501  503 -0.00000000000E+00 -0.00000000000E+00 -0.88254698725E+03  0.88254698725E+03  0.00000000000E+00 0.  1.
    9000007    2    1    2  501    0  0.22946922459E+03  0.17985906731E+03 -0.69485863364E+03  0.85317506815E+03  0.40009219817E+03 0.  0.
    9000005    1    3    3    0    0  0.18314862968E+03  0.27078697732E+01 -0.60478128626E+02  0.19289727097E+03  0.99999687468E+00 0.  0.
          4    1    3    3  501    0  0.46320594912E+02  0.17715119754E+03 -0.63438050502E+03  0.66027779718E+03  0.00000000000E+00 0.  1.
   -9000007    1    1    2    0  502 -0.22946922459E+03 -0.17985906731E+03  0.45584169935E+03  0.67290197205E+03  0.40000000000E+03 0.  1.
<mgrwt>
<rscale>  2 0.49503609E+03</rscale>
<asrwt>0</asrwt>
<pdfrwt beam="1">  1       21 0.99004624E-01 0.49505472E+03</pdfrwt>
<pdfrwt beam="2">  1       21 0.13577646E+00 0.49505472E+03</pdfrwt>
<totfact> 0.26226194E+02</totfact>
</mgrwt>
</event>
<event>
 6    1  0.9598567E-004  0.4058719E+03  0.7818608E-02  0.1041792E+00
         21   -1    0    0  503  502  0.00000000000E+00  0.00000000000E+00  0.50318344914E+02  0.50318344914E+02  0.00000000000E+00 0. -1.
         21   -1    0    0  501  503 -0.00000000000E+00 -0.00000000000E+00 -0.33124500348E+04  0.33124500348E+04  0.00000000000E+00 0. -1.
    9000007    2    1    2  501    0 -0.29159053686E+02  0.62303827189E+02 -0.18179786416E+04  0.18626650352E+04  0.39967821408E+03 0.  0.
    9000005    1    3    3    0    0 -0.17572296613E+03 -0.51655789849E+02 -0.12912389541E+04  0.13041648355E+04  0.99999687468E+00 0.  0.
          4    1    3    3  501    0  0.14656391245E+03  0.11395961704E+03 -0.52673968746E+03  0.55850019973E+03  0.00000000000E+00 0.  1.
   -9000007    1    1    2    0  502  0.29159053686E+02 -0.62303827189E+02 -0.14441530482E+04  0.15001033445E+04  0.40000000000E+03 0. -1.
<mgrwt>
<rscale>  2 0.40579262E+03</rscale>
<asrwt>0</asrwt>
<pdfrwt beam="1">  1       21 0.77412834E-02 0.40587192E+03</pdfrwt>
<pdfrwt beam="2">  1       21 0.50960773E+00 0.40587192E+03</pdfrwt>
<totfact> 0.16067949E+02</totfact>
</mgrwt>
</event>
<event>
 6    1  0.9598567E-004  0.4564615E+03  0.7818608E-02  0.1025839E+00
         21   -1    0    0  503  502  0.00000000000E+00  0.00000000000E+00  0.58355427794E+03  0.58355427794E+03  0.00000000000E+00 0.  1.
         21   -1    0    0  501  503 -0.00000000000E+00 -0.00000000000E+00 -0.35676876380E+03  0.35676876380E+03  0.00000000000E+00 0. -1.
    9000007    2    1    2  501    0  0.11777379615E+03 -0.18570521424E+03  0.11367550292E+03  0.47005612997E+03  0.39959173128E+03 0.  0.
    9000005    1    3    3    0    0  0.13327305384E+02 -0.33094876060E+02 -0.14653833563E+03  0.15082231828E+03  0.99999687468E+00 0.  0.
          4    1    3    3  501    0  0.10444649077E+03 -0.15261033818E+03  0.26021383854E+03  0.31923381169E+03  0.00000000000E+00 0.  1.
   -9000007    1    1    2    0  502 -0.11777379615E+03  0.18570521424E+03  0.11311001123E+03  0.47026691176E+03  0.40000000000E+03 0. -1.
<mgrwt>
<rscale>  2 0.45637203E+03</rscale>
<asrwt>0</asrwt>
<pdfrwt beam="1">  1       21 0.89777581E-01 0.45646149E+03</pdfrwt>
<pdfrwt beam="2">  1       21 0.54887502E-01 0.45646149E+03</pdfrwt>
<totfact> 0.28716108E+03</totfact>
</mgrwt>
</event>
<event>
 6    1  0.9598567E-004  0.5017602E+03  0.7818608E-02  0.1013344E+00
         21   -1    0    0  503  502  0.00000000000E+00  0.00000000000E+00  0.26452166910E+03  0.26452166910E+03  0.00000000000E+00 0. -1.
         21   -1    0    0  501  503 -0.00000000000E+00 -0.00000000000E+00 -0.12604324646E+04  0.12604324646E+04  0.00000000000E+00 0.  1.
    9000007    2    1    2  501    0 -0.52240352839E+02  0.29776613917E+03 -0.87584054865E+03  0.10093859110E+04  0.40046163681E+03 0.  0.
    9000005    1    3    3    0    0 -0.11157404238E+03  0.37774812618E+03 -0.76452775832E+03  0.86002680597E+03  0.99999687468E+00 0.  0.
          4    1    3    3  501    0  0.59333689538E+02 -0.79981987015E+02 -0.11131279034E+03  0.14935910503E+03  0.00000000000E+00 0.  1.
   -9000007    1    1    2    0  502  0.52240352839E+02 -0.29776613917E+03 -0.12007024688E+03  0.51556822273E+03  0.40000000000E+03 0.  1.
<mgrwt>
<rscale>  2 0.50166804E+03</rscale>
<asrwt>0</asrwt>
<pdfrwt beam="1">  1       21 0.40695641E-01 0.50176015E+03</pdfrwt>
<pdfrwt beam="2">  1       21 0.19391269E+00 0.50176015E+03</pdfrwt>
<totfact> 0.69394573E+02</totfact>
</mgrwt>
</event>
<event>
 6    1  0.9598567E-004  0.4888303E+03  0.7818608E-02  0.1016744E+00
         21   -1    0    0  503  502  0.00000000000E+00  0.00000000000E+00  0.17236564543E+04  0.17236564543E+04  0.00000000000E+00 0.  1.
         21   -1    0    0  501  503 -0.00000000000E+00 -0.00000000000E+00 -0.22871657690E+03  0.22871657690E+03  0.00000000000E+00 0.  1.
    9000007    2    1    2  501    0 -0.10540455617E+03  0.26024574395E+03  0.13476671028E+03  0.50706717698E+03  0.40014633332E+03 0.  0.
    9000005    1    3    3    0    0  0.14967267307E+03  0.53591527157E+02  0.63138940145E+02  0.17105989186E+03  0.99999687468E+00 0.  0.
          4    1    3    3  501    0 -0.25507722925E+03  0.20665421679E+03  0.71627770131E+02  0.33600728512E+03  0.00000000000E+00 0.  1.
   -9000007    1    1    2    0  502  0.10540455617E+03 -0.26024574395E+03  0.13601731671E+04  0.14453058542E+04  0.40000000000E+03 0.  1.
<mgrwt>
<rscale>  2 0.48880035E+03</rscale>
<asrwt>0</asrwt>
<pdfrwt beam="1">  1       21 0.26517791E+00 0.48883029E+03</pdfrwt>
<pdfrwt beam="2">  1       21 0.35187167E-01 0.48883029E+03</pdfrwt>
<totfact> 0.33090819E+02</totfact>
</mgrwt>
</event>
<event>
 6    1  0.9598567E-004  0.5457421E+03  0.7818608E-02  0.1002571E+00
         21   -1    0    0  503  502  0.00000000000E+00  0.00000000000E+00  0.53962015948E+03  0.53962015948E+03  0.00000000000E+00 0. -1.
         21   -1    0    0  501  503 -0.00000000000E+00 -0.00000000000E+00 -0.71327648853E+03  0.71327648853E+03  0.00000000000E+00 0.  1.
    9000007    2    1    2  501    0 -0.31124177962E+03  0.20239316567E+03 -0.38606421062E+03  0.66727599687E+03  0.39796638348E+03 0.  0.
    9000005    1    3    3    0    0 -0.17483462949E+03  0.51141771917E+01 -0.38996831289E+03  0.42739862837E+03  0.99999687468E+00 0.  0.
          4    1    3    3  501    0 -0.13640715013E+03  0.19727898848E+03  0.39041022718E+01  0.23987736850E+03  0.00000000000E+00 0.  1.
   -9000007    1    1    2    0  502  0.31124177962E+03 -0.20239316567E+03  0.21240788158E+03  0.58562065115E+03  0.40000000000E+03 0. -1.
<mgrwt>
<rscale>  2 0.54536952E+03</rscale>
<asrwt>0</asrwt>
<pdfrwt beam="1">  1       21 0.83018486E-01 0.54574210E+03</pdfrwt>
<pdfrwt beam="2">  1       21 0.10973484E+00 0.54574210E+03</pdfrwt>
<totfact> 0.67464480E+02</totfact>
</mgrwt>
</event>
<event>
 6    1  0.9598567E-004  0.5477614E+03  0.7818608E-02  0.1002060E+00
         21   -1    0    0  503  502  0.00000000000E+00  0.00000000000E+00  0.23883416443E+04  0.23883416443E+04  0.00000000000E+00 0. -1.
         21   -1    0    0  501  503 -0.00000000000E+00 -0.00000000000E+00 -0.24787948202E+03  0.24787948202E+03  0.00000000000E+00 0. -1.
    9000007    2    1    2  501    0 -0.36434521444E+03 -0.80128926101E+02  0.19969944653E+04  0.20707557780E+04  0.40109165749E+03 0.  0.
    9000005    1    3    3    0    0 -0.21669307766E+03  0.89268992496E+02  0.15779683717E+04  0.15952774131E+04  0.99999687468E+00 0.  0.
          4    1    3    3  501    0 -0.14765213678E+03 -0.16939791860E+03  0.41902609362E+03  0.47547836487E+03  0.00000000000E+00 0.  1.
   -9000007    1    1    2    0  502  0.36434521444E+03  0.80128926101E+02  0.14346769704E+03  0.56546534834E+03  0.40000000000E+03 0. -1.
<mgrwt>
<rscale>  2 0.54756162E+03</rscale>
<asrwt>0</asrwt>
<pdfrwt beam="1">  1       21 0.36743716E+00 0.54776144E+03</pdfrwt>
<pdfrwt beam="2">  1       21 0.38135306E-01 0.54776144E+03</pdfrwt>
<totfact> 0.64611042E+01</totfact>
</mgrwt>
</event>
<event>
 6    1  0.9598567E-004  0.4414826E+03  0.7818608E-02  0.1030364E+00
         21   -1    0    0  503  502  0.00000000000E+00  0.00000000000E+00  0.49214091002E+03  0.49214091002E+03  0.00000000000E+00 0.  1.
         21   -1    0    0  501  503 -0.00000000000E+00 -0.00000000000E+00 -0.57098410495E+03  0.57098410495E+03  0.00000000000E+00 0.  1.
    9000007    2    1    2  501    0  0.36566834829E+01  0.18679811723E+03 -0.33433152079E+03  0.55304542061E+03  0.39896712086E+03 0.  0.
    9000005    1    3    3    0    0  0.79573392036E+02 -0.10011921222E+03 -0.37469750852E+02  0.13326951489E+03  0.99999687468E+00 0.  0.
          4    1    3    3  501    0 -0.75916708553E+02  0.28691732945E+03 -0.29686176993E+03  0.41977590572E+03  0.00000000000E+00 0.  1.
   -9000007    1    1    2    0  502 -0.36566834829E+01 -0.18679811723E+03  0.25548832585E+03  0.51007959436E+03  0.40000000000E+03 0.  1.
<mgrwt>
<rscale>  2 0.44124854E+03</rscale>
<asrwt>0</asrwt>
<pdfrwt beam="1">  1       21 0.75713986E-01 0.44148262E+03</pdfrwt>
<pdfrwt beam="2">  1       21 0.87843708E-01 0.44148262E+03</pdfrwt>
<totfact> 0.14886282E+03</totfact>
</mgrwt>
</event>
<event>
 6    1  0.9598567E-004  0.6009641E+03  0.7818608E-02  0.9903483E-01
         21   -1    0    0  503  502  0.00000000000E+00  0.00000000000E+00  0.31914214481E+03  0.31914214481E+03  0.00000000000E+00 0.  1.
         21   -1    0    0  501  503 -0.00000000000E+00 -0.00000000000E+00 -0.11445903172E+04  0.11445903172E+04  0.00000000000E+00 0.  1.
    9000007    2    1    2  501    0 -0.18567615984E+03  0.40826734716E+03 -0.49130750835E+03  0.77612221889E+03  0.39978089974E+03 0.  0.
    9000005    1    3    3    0    0 -0.10365015312E+03  0.28610353821E+02 -0.34449169078E+03  0.36088423573E+03  0.99999687468E+00 0.  0.
          4    1    3    3  501    0 -0.82026006725E+02  0.37965699334E+03 -0.14681581757E+03  0.41523798316E+03  0.00000000000E+00 0.  1.
   -9000007    1    1    2    0  502  0.18567615984E+03 -0.40826734716E+03 -0.33414066404E+03  0.68761024313E+03  0.40000000000E+03 0.  1.
<mgrwt>
<rscale>  2 0.60092766E+03</rscale>
<asrwt>0</asrwt>
<pdfrwt beam="1">  1       21 0.49098791E-01 0.60096411E+03</pdfrwt>
<pdfrwt beam="2">  1       21 0.17609082E+00 0.60096411E+03</pdfrwt>
<totfact> 0.60037466E+02</totfact>
</mgrwt>
</event>
<event>
 6    1  0.9598567E-004  0.4685788E+03  0.7818608E-02  0.1022359E+00
         21   -1    0    0  503  502  0.00000000000E+00  0.00000000000E+00  0.11625035313E+04  0.11625035313E+04  0.00000000000E+00 0. -1.
         21   -1    0    0  501  503 -0.00000000000E+00 -0.00000000000E+00 -0.19144919396E+03  0.19144919396E+03  0.00000000000E+00 0.  1.
    9000007    2    1    2  501    0 -0.14980993993E+03 -0.19267358887E+03  0.56689100130E+03  0.73515216601E+03  0.39939600634E+03 0.  0.
    9000005    1    3    3    0    0 -0.26641305962E+03 -0.32221471893E+02  0.29802395132E+03  0.40104041833E+03  0.99999687468E+00 0.  0.
          4    1    3    3  501    0  0.11660311969E+03 -0.16045211697E+03  0.26886704999E+03  0.33411174767E+03  0.00000000000E+00 0.  1.
   -9000007    1    1    2    0  502  0.14980993993E+03  0.19267358887E+03  0.40416333606E+03  0.61880055928E+03  0.40000000000E+03 0. -1.
<mgrwt>
<rscale>  2 0.46844991E+03</rscale>
<asrwt>0</asrwt>
<pdfrwt beam="1">  1       21 0.17884669E+00 0.46857884E+03</pdfrwt>
<pdfrwt beam="2">  1       21 0.29453723E-01 0.46857884E+03</pdfrwt>
<totfact> 0.17223971E+03</totfact>
</mgrwt>
</event>
<event>
 6    1  0.9598567E-004  0.5332564E+03  0.7818608E-02  0.1005528E+00
         21   -1    0    0  503  502  0.00000000000E+00  0.00000000000E+00  0.71519874533E+03  0.71519874533E+03  0.00000000000E+00 0.  1.
         21   -1    0    0  501  503 -0.00000000000E+00 -0.00000000000E+00 -0.58810578171E+03  0.58810578171E+03  0.00000000000E+00 0.  1.
    9000007    2    1    2  501    0 -0.34566150776E+03 -0.69860782884E+02 -0.30839384240E+03  0.61481983937E+03  0.39816361701E+03 0.  0.
    9000005    1    3    3    0    0 -0.20212609917E+03  0.16201003987E+03 -0.14330848469E+03  0.29604144095E+03  0.99999687468E+00 0.  0.
          4    1    3    3  501    0 -0.14353540860E+03 -0.23187082275E+03 -0.16508535771E+03  0.31877839841E+03  0.00000000000E+00 0.  1.
   -9000007    1    1    2    0  502  0.34566150776E+03  0.69860782884E+02  0.43548680602E+03  0.68848468767E+03  0.40000000000E+03 0.  1.
<mgrwt>
<rscale>  2 0.53291206E+03</rscale>
<asrwt>0</asrwt>
<pdfrwt beam="1">  1       21 0.11003058E+00 0.53325642E+03</pdfrwt>
<pdfrwt beam="2">  1       21 0.90477813E-01 0.53325642E+03</pdfrwt>
<totfact> 0.54944890E+02</totfact>
</mgrwt>
</event>
<event>
 6    1  0.9598567E-004  0.4732964E+03  0.7818608E-02  0.1021108E+00
         21   -1    0    0  503  502  0.00000000000E+00  0.00000000000E+00  0.30416484054E+03  0.30416484054E+03  0.00000000000E+00 0. -1.
         21   -1    0    0  501  503 -0.00000000000E+00 -0.00000000000E+00 -0.73867454667E+03  0.73867454667E+03  0.00000000000E+00 0. -1.
    9000007    2    1    2  501    0 -0.24318162734E+03 -0.69801083918E+02 -0.25865765836E+03  0.53793005090E+03  0.39806464329E+03 0.  0.
    9000005    1    3    3    0    0 -0.26745691324E+03  0.40395521338E+02 -0.31216026290E+03  0.41304966810E+03  0.99999687468E+00 0.  0.
          4    1    3    3  501    0  0.24275285904E+02 -0.11019660526E+03  0.53502604539E+02  0.12488038280E+03  0.00000000000E+00 0.  1.
   -9000007    1    1    2    0  502  0.24318162734E+03  0.69801083918E+02 -0.17585204777E+03  0.50490933631E+03  0.40000000000E+03 0. -1.
<mgrwt>
<rscale>  2 0.47288726E+03</rscale>
<asrwt>0</asrwt>
<pdfrwt beam="1">  1       21 0.46794591E-01 0.47329641E+03</pdfrwt>
<pdfrwt beam="2">  1       21 0.11364224E+00 0.47329641E+03</pdfrwt>
<totfact> 0.22587576E+03</totfact>
</mgrwt>
</event>
<event>
 6    1  0.9598567E-004  0.4089451E+03  0.7818608E-02  0.1040729E+00
         21   -1    0    0  503  502  0.00000000000E+00  0.00000000000E+00  0.25520823816E+04  0.25520823816E+04  0.00000000000E+00 0. -1.
         21   -1    0    0  501  503 -0.00000000000E+00 -0.00000000000E+00 -0.11317744477E+03  0.11317744477E+03  0.00000000000E+00 0. -1.
    9000007    2    1    2  501    0  0.84881767298E+02 -0.90808792995E-01  0.35475521566E+03  0.54137541734E+03  0.40003894411E+03 0.  0.
    9000005    1    3    3    0    0 -0.14495486405E+03  0.33632536478E+02  0.47532665213E+02  0.15621592229E+03  0.99999687468E+00 0.  0.
          4    1    3    3  501    0  0.22983663135E+03 -0.33723345271E+02  0.30722255044E+03  0.38515949505E+03  0.00000000000E+00 0.  1.
   -9000007    1    1    2    0  502 -0.84881767298E+02  0.90808792995E-01  0.20841497212E+04  0.21238844091E+04  0.40000000000E+03 0. -1.
<mgrwt>
<rscale>  2 0.40893556E+03</rscale>
<asrwt>0</asrwt>
<pdfrwt beam="1">  1       21 0.39262802E+00 0.40894508E+03</pdfrwt>
<pdfrwt beam="2">  1       21 0.17411916E-01 0.40894508E+03</pdfrwt>
<totfact> 0.22749053E+02</totfact>
</mgrwt>
</event>
<event>
 6    1  0.9598567E-004  0.4353863E+03  0.7818608E-02  0.1032190E+00
         21   -1    0    0  503  502  0.00000000000E+00  0.00000000000E+00  0.25505732118E+03  0.25505732118E+03  0.00000000000E+00 0. -1.
         21   -1    0    0  501  503 -0.00000000000E+00 -0.00000000000E+00 -0.78430960848E+03  0.78430960848E+03  0.00000000000E+00 0. -1.
    9000007    2    1    2  501    0  0.16453709233E+03 -0.49888007310E+02 -0.38409991194E+03  0.58042196554E+03  0.39974447801E+03 0.  0.
    9000005    1    3    3    0    0  0.26366679645E+03 -0.27837314642E+02 -0.10808651145E+03  0.28631938388E+03  0.99999687468E+00 0.  0.
          4    1    3    3  501    0 -0.99129704114E+02 -0.22050692668E+02 -0.27601340049E+03  0.29410258165E+03  0.00000000000E+00 0.  1.
   -9000007    1    1    2    0  502 -0.16453709233E+03  0.49888007310E+02 -0.14515237535E+03  0.45894496413E+03  0.40000000000E+03 0. -1.
<mgrwt>
<rscale>  2 0.43532765E+03</rscale>
<asrwt>0</asrwt>
<pdfrwt beam="1">  1       21 0.39239588E-01 0.43538634E+03</pdfrwt>
<pdfrwt beam="2">  1       21 0.12066302E+00 0.43538634E+03</pdfrwt>
<totfact> 0.28411856E+03</totfact>
</mgrwt>
</event>
<event>
 6    1  0.9598567E-004  0.4052583E+03  0.7818608E-02  0.1042061E+00
         21   -1    0    0  503  502  0.00000000000E+00  0.00000000000E+00  0.61971411836E+03  0.61971411836E+03  0.00000000000E+00 0. -1.
         21   -1    0    0  501  503 -0.00000000000E+00 -0.00000000000E+00 -0.26885884955E+03  0.26885884955E+03  0.00000000000E+00 0.  1.
    9000007    2    1    2  501    0  0.46874615630E+02  0.34816249321E+02  0.23317826083E+03  0.46755363461E+03  0.40102979827E+03 0.  0.
    9000005    1    3    3    0    0  0.46835754864E+02  0.15388539521E+03  0.29303752833E+03  0.33428475257E+03  0.99999687468E+00 0.  0.
          4    1    3    3  501    0  0.38860765479E-01 -0.11906914589E+03 -0.59859267500E+02  0.13326888204E+03  0.00000000000E+00 0.  1.
   -9000007    1    1    2    0  502 -0.46874615630E+02 -0.34816249321E+02  0.11767700798E+03  0.42101933330E+03  0.40000000000E+03 0.  1.
<mgrwt>
<rscale>  2 0.40500332E+03</rscale>
<asrwt>0</asrwt>
<pdfrwt beam="1">  1       21 0.95340633E-01 0.40525831E+03</pdfrwt>
<pdfrwt beam="2">  1       21 0.41362900E-01 0.40525831E+03</pdfrwt>
<totfact> 0.46065135E+03</totfact>
</mgrwt>
</event>
<event>
 6    1  0.9598567E-004  0.6184791E+03  0.7818608E-02  0.9867964E-01
         21   -1    0    0  503  502  0.00000000000E+00  0.00000000000E+00  0.21099847935E+04  0.21099847935E+04  0.00000000000E+00 0. -1.
         21   -1    0    0  501  503 -0.00000000000E+00 -0.00000000000E+00 -0.18195897363E+03  0.18195897363E+03  0.00000000000E+00 0. -1.
    9000007    2    1    2  501    0 -0.38647369987E+03 -0.27047086735E+03  0.10383287642E+04  0.12083953088E+04  0.39946988486E+03 0.  0.
    9000005    1    3    3    0    0 -0.45304759564E+03 -0.14670444592E+03  0.76643278625E+03  0.90232728774E+03  0.99999687468E+00 0.  0.
          4    1    3    3  501    0  0.66573895764E+02 -0.12376642143E+03  0.27189597793E+03  0.30606802101E+03  0.00000000000E+00 0.  1.
   -9000007    1    1    2    0  502  0.38647369987E+03  0.27047086735E+03  0.88969705572E+03  0.10835484584E+04  0.40000000000E+03 0. -1.
<mgrwt>
<rscale>  2 0.61839341E+03</rscale>
<asrwt>0</asrwt>
<pdfrwt beam="1">  1       21 0.32461303E+00 0.61847911E+03</pdfrwt>
<pdfrwt beam="2">  1       21 0.27993690E-01 0.61847911E+03</pdfrwt>
<totfact> 0.21419987E+02</totfact>
</mgrwt>
</event>
<event>
 6    1  0.9598567E-004  0.4022386E+03  0.7818608E-02  0.1043153E+00
         21   -1    0    0  503  502  0.00000000000E+00  0.00000000000E+00  0.10334945099E+04  0.10334945099E+04  0.00000000000E+00 0.  1.
         21   -1    0    0  501  503 -0.00000000000E+00 -0.00000000000E+00 -0.25771049106E+03  0.25771049106E+03  0.00000000000E+00 0.  1.
    9000007    2    1    2  501    0  0.31987531130E+02 -0.27797654178E+02 -0.18402423019E+02  0.40096457492E+03  0.39829389833E+03 0.  0.
    9000005    1    3    3    0    0  0.14277681175E+03 -0.16014686229E+03 -0.61252160989E+02  0.22312566570E+03  0.99999687468E+00 0.  0.
          4    1    3    3  501    0 -0.11078928062E+03  0.13234920811E+03  0.42849737970E+02  0.17783890922E+03  0.00000000000E+00 0.  1.
   -9000007    1    1    2    0  502 -0.31987531130E+02  0.27797654178E+02  0.79418644181E+03  0.89024042600E+03  0.40000000000E+03 0. -1.
<mgrwt>
<rscale>  2 0.40181381E+03</rscale>
<asrwt>0</asrwt>
<pdfrwt beam="1">  1       21 0.15899915E+00 0.40223863E+03</pdfrwt>
<pdfrwt beam="2">  1       21 0.39647768E-01 0.40223863E+03</pdfrwt>
<totfact> 0.13594258E+03</totfact>
</mgrwt>
</event>
<event>
 6    1  0.9598567E-004  0.5011438E+03  0.7818608E-02  0.1013505E+00
         21   -1    0    0  503  502  0.00000000000E+00  0.00000000000E+00  0.12102092299E+04  0.12102092299E+04  0.00000000000E+00 0.  1.
         21   -1    0    0  501  503 -0.00000000000E+00 -0.00000000000E+00 -0.22415878937E+03  0.22415878937E+03  0.00000000000E+00 0. -1.
    9000007    2    1    2  501    0 -0.38097482525E+02  0.29948909323E+03  0.29656456232E+03  0.58199725993E+03  0.39953114497E+03 0.  0.
    9000005    1    3    3    0    0  0.12577403408E+03  0.25444143082E+03  0.58996670003E+02  0.28989852782E+03  0.99999687468E+00 0.  0.
          4    1    3    3  501    0 -0.16387151660E+03  0.45047662417E+02  0.23756789232E+03  0.29209873212E+03  0.00000000000E+00 0.  1.
   -9000007    1    1    2    0  502  0.38097482525E+02 -0.29948909323E+03  0.68948587821E+03  0.85237075935E+03  0.40000000000E+03 0. -1.
<mgrwt>
<rscale>  2 0.50105026E+03</rscale>
<asrwt>0</asrwt>
<pdfrwt beam="1">  1       21 0.18618603E+00 0.50114383E+03</pdfrwt>
<pdfrwt beam="2">  1       21 0.34485968E-01 0.50114383E+03</pdfrwt>
<totfact> 0.11006858E+03</totfact>
</mgrwt>
</event>
<event>
 6    1  0.9598567E-004  0.4754796E+03  0.7818608E-02  0.1020482E+00
         21   -1    0    0  503  502  0.00000000000E+00  0.00000000000E+00  0.28625173297E+03  0.28625173297E+03  0.00000000000E+00 0.  1.
         21   -1    0    0  501  503 -0.00000000000E+00 -0.00000000000E+00 -0.12214460296E+04  0.12214460296E+04  0.00000000000E+00 0.  1.
    9000007    2    1    2  501    0  0.25527405144E+03 -0.30265556740E+02 -0.91648980008E+03  0.10318504095E+04  0.39834767307E+03 0.  0.
    9000005    1    3    3    0    0  0.11796846911E+03  0.18320397022E+03 -0.47511830759E+03  0.52270322422E+03  0.99999687468E+00 0.  0.
          4    1    3    3  501    0  0.13730558233E+03 -0.21346952696E+03 -0.44137149249E+03  0.50914718526E+03  0.00000000000E+00 0.  1.
   -9000007    1    1    2    0  502 -0.25527405144E+03  0.30265556740E+02 -0.18704496558E+02  0.47584735310E+03  0.40000000000E+03 0.  1.
<mgrwt>
<rscale>  2 0.47513192E+03</rscale>
<asrwt>0</asrwt>
<pdfrwt beam="1">  1       21 0.44038728E-01 0.47547959E+03</pdfrwt>
<pdfrwt beam="2">  1       21 0.18791477E+00 0.47547959E+03</pdfrwt>
<totfact> 0.65464914E+02</totfact>
</mgrwt>
</event>
<event>
 6    1  0.9598567E-004  0.5076134E+03  0.7818608E-02  0.1011848E+00
         21   -1    0    0  503  502  0.00000000000E+00  0.00000000000E+00  0.29541416807E+03  0.29541416807E+03  0.00000000000E+00 0.  1.
         21   -1    0    0  501  503 -0.00000000000E+00 -0.00000000000E+00 -0.12200425596E+04  0.12200425596E+04  0.00000000000E+00 0. -1.
    9000007    2    1    2  501    0  0.18537816055E+03 -0.25042495478E+03 -0.86765883791E+03  0.10052379017E+04  0.40074138741E+03 0.  0.
    9000005    1    3    3    0    0  0.25182150665E+02 -0.17397051268E+03 -0.79371363028E+03  0.81294661995E+03  0.99999687468E+00 0.  0.
          4    1    3    3  501    0  0.16019600988E+03 -0.76454442099E+02 -0.73945207627E+02  0.19229128173E+03  0.00000000000E+00 0.  1.
   -9000007    1    1    2    0  502 -0.18537816055E+03  0.25042495478E+03 -0.56969553640E+02  0.51021882602E+03  0.40000000000E+03 0.  1.
<mgrwt>
<rscale>  2 0.50746708E+03</rscale>
<asrwt>0</asrwt>
<pdfrwt beam="1">  1       21 0.45448334E-01 0.50761342E+03</pdfrwt>
<pdfrwt beam="2">  1       21 0.18769885E+00 0.50761342E+03</pdfrwt>
<totfact> 0.60644416E+02</totfact>
</mgrwt>
</event>
<event>
 6    1  0.9598567E-004  0.5081376E+03  0.7818608E-02  0.1011923E+00
         21   -1    0    0  503  502  0.00000000000E+00  0.00000000000E+00  0.10209663228E+03  0.10209663228E+03  0.00000000000E+00 0. -1.
         21   -1    0    0  501  503 -0.00000000000E+00 -0.00000000000E+00 -0.26707113227E+04  0.26707113227E+04  0.00000000000E+00 0.  1.
    9000007    2    1    2  501    0  0.95637214242E+01 -0.30695586052E+03 -0.16290598187E+04  0.17064699588E+04  0.40483387011E+03 0.  0.
    9000005    1    3    3    0    0  0.34297543358E+02 -0.36028588693E+03 -0.83277889637E+03  0.90802198874E+03  0.99999687468E+00 0.  0.
          4    1    3    3  501    0 -0.24733821934E+02  0.53330026411E+02 -0.79628092230E+03  0.79844797006E+03  0.00000000000E+00 0.  1.
   -9000007    1    1    2    0  502 -0.95637214242E+01  0.30695586052E+03 -0.93955487174E+03  0.10663379962E+04  0.40000000000E+03 0. -1.
<mgrwt>
<rscale>  2 0.50717420E+03</rscale>
<asrwt>0</asrwt>
<pdfrwt beam="1">  1       21 0.15707173E-01 0.50813761E+03</pdfrwt>
<pdfrwt beam="2">  1       21 0.41087869E+00 0.50813761E+03</pdfrwt>
<totfact> 0.19725390E+02</totfact>
</mgrwt>
</event>
<event>
 6    1  0.9598567E-004  0.4490032E+03  0.7818608E-02  0.1028022E+00
         21   -1    0    0  503  502  0.00000000000E+00  0.00000000000E+00  0.10221682061E+04  0.10221682061E+04  0.00000000000E+00 0. -1.
         21   -1    0    0  501  503 -0.00000000000E+00 -0.00000000000E+00 -0.23025777286E+03  0.23025777286E+03  0.00000000000E+00 0. -1.
    9000007    2    1    2  501    0  0.16656459712E+03  0.11772913423E+03  0.15874650214E+03  0.47621693645E+03  0.39997275477E+03 0.  0.
    9000005    1    3    3    0    0  0.29698484880E+03  0.90578096353E+02  0.14376594020E+03  0.34216083573E+03  0.99999687468E+00 0.  0.
          4    1    3    3  501    0 -0.13042025167E+03  0.27151037874E+02  0.14980561945E+02  0.13405610072E+03  0.00000000000E+00 0.  1.
   -9000007    1    1    2    0  502 -0.16656459712E+03 -0.11772913423E+03  0.63316393114E+03  0.77620904256E+03  0.40000000000E+03 0. -1.
<mgrwt>
<rscale>  2 0.44899718E+03</rscale>
<asrwt>0</asrwt>
<pdfrwt beam="1">  1       21 0.15725664E+00 0.44900325E+03</pdfrwt>
<pdfrwt beam="2">  1       21 0.35424273E-01 0.44900325E+03</pdfrwt>
<totfact> 0.17276692E+03</totfact>
</mgrwt>
</event>
<event>
 6    1  0.9598567E-004  0.4320914E+03  0.7818608E-02  0.1033212E+00
         21   -1    0    0  503  502  0.00000000000E+00  0.00000000000E+00  0.70965737517E+03  0.70965737517E+03  0.00000000000E+00 0.  1.
         21   -1    0    0  501  503 -0.00000000000E+00 -0.00000000000E+00 -0.61213802118E+03  0.61213802118E+03  0.00000000000E+00 0.  1.
    9000007    2    1    2  501    0 -0.12182047146E+03  0.10891635135E+03 -0.45036462487E+03  0.62402763187E+03  0.39984896041E+03 0.  0.
    9000005    1    3    3    0    0 -0.11200217149E+02 -0.46478573036E+02  0.61426697857E+02  0.77845628131E+02  0.99999687468E+00 0.  0.
          4    1    3    3  501    0 -0.11062025431E+03  0.15539492438E+03 -0.51179132272E+03  0.54618200374E+03  0.00000000000E+00 0.  1.
   -9000007    1    1    2    0  502  0.12182047146E+03 -0.10891635135E+03  0.54788397886E+03  0.69776776448E+03  0.40000000000E+03 0.  1.
<mgrwt>
<rscale>  2 0.43205647E+03</rscale>
<asrwt>0</asrwt>
<pdfrwt beam="1">  1       21 0.10917806E+00 0.43209142E+03</pdfrwt>
<pdfrwt beam="2">  1       21 0.94175080E-01 0.43209142E+03</pdfrwt>
<totfact> 0.53105444E+02</totfact>
</mgrwt>
</event>
<event>
 6    1  0.9598567E-004  0.4323766E+03  0.7818608E-02  0.1033160E+00
         21   -1    0    0  503  502  0.00000000000E+00  0.00000000000E+00  0.37162887833E+03  0.37162887833E+03  0.00000000000E+00 0. -1.
         21   -1    0    0  501  503 -0.00000000000E+00 -0.00000000000E+00 -0.50395386618E+03  0.50395386618E+03  0.00000000000E+00 0. -1.
    9000007    2    1    2  501    0  0.35293902764E+02 -0.15867726126E+03 -0.90928270914E+02  0.44183417566E+03  0.40065615621E+03 0.  0.
    9000005    1    3    3    0    0  0.11646439531E+03 -0.71642015662E+02 -0.22454351660E+03  0.26290173948E+03  0.99999687468E+00 0.  0.
          4    1    3    3  501    0 -0.81170492547E+02 -0.87035245600E+02  0.13361524568E+03  0.17893243618E+03  0.00000000000E+00 0.  1.
   -9000007    1    1    2    0  502 -0.35293902764E+02  0.15867726126E+03 -0.41396716936E+02  0.43374856886E+03  0.40000000000E+03 0. -1.
<mgrwt>
<rscale>  2 0.43222449E+03</rscale>
<asrwt>0</asrwt>
<pdfrwt beam="1">  1       21 0.57173674E-01 0.43237656E+03</pdfrwt>
<pdfrwt beam="2">  1       21 0.77531364E-01 0.43237656E+03</pdfrwt>
<totfact> 0.37314922E+03</totfact>
</mgrwt>
</event>
<event>
 6    1  0.9598567E-004  0.5465238E+03  0.7818608E-02  0.1002304E+00
         21   -1    0    0  503  502  0.00000000000E+00  0.00000000000E+00  0.17267238311E+04  0.17267238311E+04  0.00000000000E+00 0.  1.
         21   -1    0    0  501  503 -0.00000000000E+00 -0.00000000000E+00 -0.17334871887E+03  0.17334871887E+03  0.00000000000E+00 0. -1.
    9000007    2    1    2  501    0  0.22754039040E+03 -0.29473329995E+03  0.73210421728E+03  0.91359992986E+03  0.40005737027E+03 0.  0.
    9000005    1    3    3    0    0 -0.44284412397E+02 -0.19463611486E+03  0.11131112008E+03  0.22855085175E+03  0.99999687468E+00 0.  0.
          4    1    3    3  501    0  0.27182480280E+03 -0.10009718509E+03  0.62079309720E+03  0.68504907811E+03  0.00000000000E+00 0.  1.
   -9000007    1    1    2    0  502 -0.22754039040E+03  0.29473329995E+03  0.82127089496E+03  0.98647262013E+03  0.40000000000E+03 0.  1.
<mgrwt>
<rscale>  2 0.54651329E+03</rscale>
<asrwt>0</asrwt>
<pdfrwt beam="1">  1       21 0.26564981E+00 0.54652378E+03</pdfrwt>
<pdfrwt beam="2">  1       21 0.26669035E-01 0.54652378E+03</pdfrwt>
<totfact> 0.55667836E+02</totfact>
</mgrwt>
</event>
<event>
 6    1  0.9598567E-004  0.7794055E+03  0.7818608E-02  0.9590382E-01
         21   -1    0    0  503  502  0.00000000000E+00  0.00000000000E+00  0.27399963972E+03  0.27399963972E+03  0.00000000000E+00 0.  1.
         21   -1    0    0  501  503 -0.00000000000E+00 -0.00000000000E+00 -0.22167576942E+04  0.22167576942E+04  0.00000000000E+00 0. -1.
    9000007    2    1    2  501    0 -0.54037502878E+03 -0.39429395050E+03 -0.95897153190E+03  0.12356442660E+04  0.39964667155E+03 0.  0.
    9000005    1    3    3    0    0 -0.14517842483E+03  0.48624558922E+02 -0.36544003190E+03  0.39621779323E+03  0.99999687468E+00 0.  0.
          4    1    3    3  501    0 -0.39519660395E+03 -0.44291850942E+03 -0.59353150000E+03  0.83942647281E+03  0.00000000000E+00 0.  1.
   -9000007    1    1    2    0  502  0.54037502878E+03  0.39429395050E+03 -0.98378652258E+03  0.12551130679E+04  0.40000000000E+03 0.  1.
<mgrwt>
<rscale>  2 0.77936015E+03</rscale>
<asrwt>0</asrwt>
<pdfrwt beam="1">  1       21 0.42153789E-01 0.77940547E+03</pdfrwt>
<pdfrwt beam="2">  1       21 0.34103966E+00 0.77940547E+03</pdfrwt>
<totfact> 0.68990472E+01</totfact>
</mgrwt>
</event>
<event>
 6    1  0.9598567E-004  0.5500857E+03  0.7818608E-02  0.1001477E+00
         21   -1    0    0  503  502  0.00000000000E+00  0.00000000000E+00  0.28220898325E+03  0.28220898325E+03  0.00000000000E+00 0.  1.
         21   -1    0    0  501  503 -0.00000000000E+00 -0.00000000000E+00 -0.10952614819E+04  0.10952614819E+04  0.00000000000E+00 0. -1.
    9000007    2    1    2  501    0  0.78135301626E+02 -0.36944441856E+03 -0.30640739936E+03  0.62961783233E+03  0.39992351349E+03 0.  0.
    9000005    1    3    3    0    0  0.14860192652E+03 -0.63410557055E+02 -0.26840895335E+03  0.31328548888E+03  0.99999687468E+00 0.  0.
          4    1    3    3  501    0 -0.70466624895E+02 -0.30603386151E+03 -0.37998446009E+02  0.31633234345E+03  0.00000000000E+00 0.  1.
   -9000007    1    1    2    0  502 -0.78135301626E+02  0.36944441856E+03 -0.50664509926E+03  0.74785263279E+03  0.40000000000E+03 0. -1.
<mgrwt>
<rscale>  2 0.55007182E+03</rscale>
<asrwt>0</asrwt>
<pdfrwt beam="1">  1       21 0.43416767E-01 0.55008572E+03</pdfrwt>
<pdfrwt beam="2">  1       21 0.16850176E+00 0.55008572E+03</pdfrwt>
<totfact> 0.90031131E+02</totfact>
</mgrwt>
</event>
<event>
 6    1  0.9598567E-004  0.9939617E+03  0.7818608E-02  0.9315222E-01
         21   -1    0    0  503  502  0.00000000000E+00  0.00000000000E+00  0.94312546992E+03  0.94312546992E+03  0.00000000000E+00 0. -1.
         21   -1    0    0  501  503 -0.00000000000E+00 -0.00000000000E+00 -0.10977474985E+04  0.10977474985E+04  0.00000000000E+00 0.  1.
    9000007    2    1    2  501    0  0.83710471576E+03  0.35637225324E+03  0.14116832345E+03  0.10039364128E+04  0.40026783211E+03 0.  0.
    9000005    1    3    3    0    0  0.79940311500E+03  0.39976974688E+03  0.20606699837E+03  0.91723813625E+03  0.99999687468E+00 0.  0.
          4    1    3    3  501    0  0.37701600757E+02 -0.43397493638E+02 -0.64898674916E+02  0.86698276566E+02  0.00000000000E+00 0.  1.
   -9000007    1    1    2    0  502 -0.83710471576E+03 -0.35637225324E+03 -0.29579035204E+03  0.10369365556E+04  0.40000000000E+03 0.  1.
<mgrwt>
<rscale>  2 0.99393472E+03</rscale>
<asrwt>0</asrwt>
<pdfrwt beam="1">  1       21 0.14509623E+00 0.99396168E+03</pdfrwt>
<pdfrwt beam="2">  1       21 0.16888423E+00 0.99396168E+03</pdfrwt>
<totfact> 0.45358684E+01</totfact>
</mgrwt>
</event>
<event>
 6    1  0.9598567E-004  0.4763667E+03  0.7818608E-02  0.1020151E+00
         21   -1    0    0  503  502  0.00000000000E+00  0.00000000000E+00  0.25785119417E+03  0.25785119417E+03  0.00000000000E+00 0. -1.
         21   -1    0    0  501  503 -0.00000000000E+00 -0.00000000000E+00 -0.11574853147E+04  0.11574853147E+04  0.00000000000E+00 0. -1.
    9000007    2    1    2  501    0  0.25822279003E+03  0.86638643939E+01 -0.79654058071E+03  0.92811751319E+03  0.40021388000E+03 0.  0.
    9000005    1    3    3    0    0  0.23132063678E+03  0.22363833808E+02 -0.84203486349E+03  0.87351765260E+03  0.99999687468E+00 0.  0.
          4    1    3    3  501    0  0.26902153249E+02 -0.13699969414E+02  0.45494282783E+02  0.54599860598E+02  0.00000000000E+00 0.  1.
   -9000007    1    1    2    0  502 -0.25822279003E+03 -0.86638643939E+01 -0.10309353987E+03  0.48721899573E+03  0.40000000000E+03 0. -1.
<mgrwt>
<rscale>  2 0.47632176E+03</rscale>
<asrwt>0</asrwt>
<pdfrwt beam="1">  1       21 0.39669415E-01 0.47636669E+03</pdfrwt>
<pdfrwt beam="2">  1       21 0.17807466E+00 0.47636669E+03</pdfrwt>
<totfact> 0.95261802E+02</totfact>
</mgrwt>
</event>
<event>
 6    1  0.9598567E-004  0.5395890E+03  0.7818608E-02  0.1003964E+00
         21   -1    0    0  503  502  0.00000000000E+00  0.00000000000E+00  0.55311400786E+03  0.55311400786E+03  0.00000000000E+00 0. -1.
         21   -1    0    0  501  503 -0.00000000000E+00 -0.00000000000E+00 -0.66782073319E+03  0.66782073319E+03  0.00000000000E+00 0. -1.
    9000007    2    1    2  501    0  0.36059880107E+03  0.23525105721E+02  0.22406648135E+03  0.58426197464E+03  0.40071353984E+03 0.  0.
    9000005    1    3    3    0    0  0.92862549478E+02  0.19527901192E+03  0.51129461009E+02  0.22219938652E+03  0.99999687468E+00 0.  0.
          4    1    3    3  501    0  0.26773625159E+03 -0.17175390620E+03  0.17293702035E+03  0.36206258812E+03  0.00000000000E+00 0.  1.
   -9000007    1    1    2    0  502 -0.36059880107E+03 -0.23525105721E+02 -0.33877320668E+03  0.63667276642E+03  0.40000000000E+03 0. -1.
<mgrwt>
<rscale>  2 0.53945651E+03</rscale>
<asrwt>0</asrwt>
<pdfrwt beam="1">  1       21 0.85094463E-01 0.53958898E+03</pdfrwt>
<pdfrwt beam="2">  1       21 0.10274165E+00 0.53958898E+03</pdfrwt>
<totfact> 0.75117064E+02</totfact>
</mgrwt>
</event>
<event>
 6    1  0.9598567E-004  0.4142911E+03  0.7818608E-02  0.1039000E+00
         21   -1    0    0  503  502  0.00000000000E+00  0.00000000000E+00  0.17552013723E+03  0.17552013723E+03  0.00000000000E+00 0. -1.
         21   -1    0    0  501  503 -0.00000000000E+00 -0.00000000000E+00 -0.12929603037E+04  0.12929603037E+04  0.00000000000E+00 0. -1.
    9000007    2    1    2  501    0  0.26384846279E+02  0.10172106525E+03 -0.92251595623E+03  0.10112728481E+04  0.40074149843E+03 0.  0.
    9000005    1    3    3    0    0  0.25013612009E+02 -0.15034593779E+03 -0.24678952501E+03  0.29006146149E+03  0.99999687468E+00 0.  0.
          4    1    3    3  501    0  0.13712342704E+01  0.25206700305E+03 -0.67572643123E+03  0.72121138660E+03  0.00000000000E+00 0.  1.
   -9000007    1    1    2    0  502 -0.26384846279E+02 -0.10172106525E+03 -0.19492421029E+03  0.45720759288E+03  0.40000000000E+03 0.  1.
<mgrwt>
<rscale>  2 0.41411164E+03</rscale>
<asrwt>0</asrwt>
<pdfrwt beam="1">  1       21 0.27003098E-01 0.41429106E+03</pdfrwt>
<pdfrwt beam="2">  1       21 0.19891697E+00 0.41429106E+03</pdfrwt>
<totfact> 0.15243340E+03</totfact>
</mgrwt>
</event>
<event>
 6    1  0.9598567E-004  0.4171808E+03  0.7818608E-02  0.1038243E+00
         21   -1    0    0  503  502  0.00000000000E+00  0.00000000000E+00  0.14753995809E+04  0.14753995809E+04  0.00000000000E+00 0.  1.
         21   -1    0    0  501  503 -0.00000000000E+00 -0.00000000000E+00 -0.14181531515E+03  0.14181531515E+03  0.00000000000E+00 0.  1.
    9000007    2    1    2  501    0  0.11136753804E+03  0.40460693948E+02  0.32707313022E+03  0.52767166046E+03  0.39676284158E+03 0.  0.
    9000005    1    3    3    0    0  0.52594131964E+02 -0.11029776381E+03 -0.38308970411E+02  0.12806372096E+03  0.99999687468E+00 0.  0.
          4    1    3    3  501    0  0.58773406080E+02  0.15075845776E+03  0.36538210063E+03  0.39960793950E+03  0.00000000000E+00 0.  1.
   -9000007    1    1    2    0  502 -0.11136753804E+03 -0.40460693948E+02  0.10065111355E+04  0.10895432356E+04  0.40000000000E+03 0.  1.
<mgrwt>
<rscale>  2 0.41640289E+03</rscale>
<asrwt>0</asrwt>
<pdfrwt beam="1">  1       21 0.22698454E+00 0.41718077E+03</pdfrwt>
<pdfrwt beam="2">  1       21 0.21817742E-01 0.41718077E+03</pdfrwt>
<totfact> 0.15148238E+03</totfact>
</mgrwt>
</event>
<event>
 6    1  0.9598567E-004  0.4079744E+03  0.7818608E-02  0.1041088E+00
         21   -1    0    0  503  502  0.00000000000E+00  0.00000000000E+00  0.65394109504E+03  0.65394109504E+03  0.00000000000E+00 0.  1.
         21   -1    0    0  501  503 -0.00000000000E+00 -0.00000000000E+00 -0.57326489556E+03  0.57326489556E+03  0.00000000000E+00 0.  1.
    9000007    2    1    2  501    0 -0.43930809703E+02  0.64610617430E+02 -0.41737886363E+03  0.58365079187E+03  0.40042313010E+03 0.  0.
    9000005    1    3    3    0    0  0.83528568330E+02  0.15291734691E+03 -0.44533852878E+02  0.17984715944E+03  0.99999687468E+00 0.  0.
          4    1    3    3  501    0 -0.12745937803E+03 -0.88306729482E+02 -0.37284501075E+03  0.40380363243E+03  0.00000000000E+00 0.  1.
   -9000007    1    1    2    0  502  0.43930809703E+02 -0.64610617430E+02  0.49805506311E+03  0.64355519873E+03  0.40000000000E+03 0.  1.
<mgrwt>
<rscale>  2 0.40787056E+03</rscale>
<asrwt>0</asrwt>
<pdfrwt beam="1">  1       21 0.10060632E+00 0.40797442E+03</pdfrwt>
<pdfrwt beam="2">  1       21 0.88194599E-01 0.40797442E+03</pdfrwt>
<totfact> 0.76698909E+02</totfact>
</mgrwt>
</event>
<event>
 6    1  0.9598567E-004  0.4026835E+03  0.7818608E-02  0.1042872E+00
         21   -1    0    0  503  502  0.00000000000E+00  0.00000000000E+00  0.20999055203E+03  0.20999055203E+03  0.00000000000E+00 0. -1.
         21   -1    0    0  501  503 -0.00000000000E+00 -0.00000000000E+00 -0.11985890220E+04  0.11985890220E+04  0.00000000000E+00 0.  1.
    9000007    2    1    2  501    0 -0.26814870427E+01  0.44484540427E+02 -0.91464791678E+03  0.99936722205E+03  0.40020990508E+03 0.  0.
    9000005    1    3    3    0    0  0.42547483297E+02  0.88450663314E+02 -0.17136097949E+02  0.99641627959E+02  0.99999687468E+00 0.  0.
          4    1    3    3  501    0 -0.45228970339E+02 -0.43966122888E+02 -0.89751181883E+03  0.89972559409E+03  0.00000000000E+00 0.  1.
   -9000007    1    1    2    0  502  0.26814870427E+01 -0.44484540427E+02 -0.73950553208E+02  0.40921235200E+03  0.40000000000E+03 0. -1.
<mgrwt>
<rscale>  2 0.40263138E+03</rscale>
<asrwt>0</asrwt>
<pdfrwt beam="1">  1       21 0.32306239E-01 0.40268354E+03</pdfrwt>
<pdfrwt beam="2">  1       21 0.18439831E+00 0.40268354E+03</pdfrwt>
<totfact> 0.13488099E+03</totfact>
</mgrwt>
</event>
<event>
 6    1  0.9598567E-004  0.4243772E+03  0.7818608E-02  0.1036032E+00
         21   -1    0    0  503  502  0.00000000000E+00  0.00000000000E+00  0.16053854100E+03  0.16053854100E+03  0.00000000000E+00 0.  1.
         21   -1    0    0  501  503 -0.00000000000E+00 -0.00000000000E+00 -0.11138793761E+04  0.11138793761E+04  0.00000000000E+00 0. -1.
    9000007    2    1    2  501    0  0.11708320358E+03 -0.49039901869E+02 -0.51979723746E+03  0.67103293254E+03  0.40494770026E+03 0.  0.
    9000005    1    3    3    0    0  0.10990827499E+03 -0.21551002365E+03 -0.39364023375E+03  0.46203683059E+03  0.99999687468E+00 0.  0.
          4    1    3    3  501    0  0.71749285869E+01  0.16647012178E+03 -0.12615700371E+03  0.20899610195E+03  0.00000000000E+00 0.  1.
   -9000007    1    1    2    0  502 -0.11708320358E+03  0.49039901869E+02 -0.43354359766E+03  0.60338498457E+03  0.40000000000E+03 0.  1.
<mgrwt>
<rscale>  2 0.42319263E+03</rscale>
<asrwt>0</asrwt>
<pdfrwt beam="1">  1       21 0.24698237E-01 0.42437722E+03</pdfrwt>
<pdfrwt beam="2">  1       21 0.17136606E+00 0.42437722E+03</pdfrwt>
<totfact> 0.28029083E+03</totfact>
</mgrwt>
</event>
<event>
 6    1  0.9598567E-004  0.4057327E+03  0.7818608E-02  0.1041901E+00
         21   -1    0    0  503  502  0.00000000000E+00  0.00000000000E+00  0.50132903144E+03  0.50132903144E+03  0.00000000000E+00 0.  1.
         21   -1    0    0  501  503 -0.00000000000E+00 -0.00000000000E+00 -0.23836965597E+04  0.23836965597E+04  0.00000000000E+00 0.  1.
    9000007    2    1    2  501    0 -0.62304744851E+02 -0.27150028755E+02 -0.22807683432E+04  0.23163937114E+04  0.39894433877E+03 0.  0.
    9000005    1    3    3    0    0  0.20523220831E+01 -0.11029700799E+03 -0.16783737827E+03  0.20084826994E+03  0.99999687468E+00 0.  0.
          4    1    3    3  501    0 -0.64357066934E+02  0.83146979232E+02 -0.21129309649E+04  0.21155454414E+04  0.00000000000E+00 0.  1.
   -9000007    1    1    2    0  502  0.62304744851E+02  0.27150028755E+02  0.39840081497E+03  0.56863187975E+03  0.40000000000E+03 0.  1.
<mgrwt>
<rscale>  2 0.40547225E+03</rscale>
<asrwt>0</asrwt>
<pdfrwt beam="1">  1       21 0.77127543E-01 0.40573268E+03</pdfrwt>
<pdfrwt beam="2">  1       21 0.36672255E+00 0.40573268E+03</pdfrwt>
<totfact> 0.15727330E+01</totfact>
</mgrwt>
</event>
<event>
 6    1  0.9598567E-004  0.4198074E+03  0.7818608E-02  0.1037171E+00
         21   -1    0    0  503  502  0.00000000000E+00  0.00000000000E+00  0.10806160843E+03  0.10806160843E+03  0.00000000000E+00 0.  1.
         21   -1    0    0  501  503 -0.00000000000E+00 -0.00000000000E+00 -0.19254850459E+04  0.19254850459E+04  0.00000000000E+00 0.  1.
    9000007    2    1    2  501    0 -0.11454213404E+03 -0.51783238655E+02 -0.51012622841E+03  0.66065649226E+03  0.40054566229E+03 0.  0.
    9000005    1    3    3    0    0 -0.21353573533E+03 -0.42750843025E+02 -0.51701970490E+03  0.56101294111E+03  0.99999687468E+00 0.  0.
          4    1    3    3  501    0  0.98993601297E+02 -0.90323956297E+01  0.68934764869E+01  0.99643551154E+02  0.00000000000E+00 0.  1.
   -9000007    1    1    2    0  502  0.11454213404E+03  0.51783238655E+02 -0.13072972090E+04  0.13728901620E+04  0.40000000000E+03 0.  1.
<mgrwt>
<rscale>  2 0.41967717E+03</rscale>
<asrwt>0</asrwt>
<pdfrwt beam="1">  1       21 0.16624865E-01 0.41980737E+03</pdfrwt>
<pdfrwt beam="2">  1       21 0.29622843E+00 0.41980737E+03</pdfrwt>
<totfact> 0.95791980E+02</totfact>
</mgrwt>
</event>
<event>
 6    1  0.9598567E-004  0.4585300E+03  0.7818608E-02  0.1025228E+00
         21   -1    0    0  503  502  0.00000000000E+00  0.00000000000E+00  0.34746795586E+03  0.34746795586E+03  0.00000000000E+00 0.  1.
         21   -1    0    0  501  503 -0.00000000000E+00 -0.00000000000E+00 -0.61087508248E+03  0.61087508248E+03  0.00000000000E+00 0.  1.
    9000007    2    1    2  501    0 -0.22284809651E+03 -0.24258242168E+02 -0.83595413918E+02  0.46581690862E+03  0.39968420371E+03 0.  0.
    9000005    1    3    3    0    0 -0.49742676992E+02  0.13986345280E+03 -0.15716475826E+03  0.21618945529E+03  0.99999687468E+00 0.  0.
          4    1    3    3  501    0 -0.17310541952E+03 -0.16412169497E+03  0.73569344345E+02  0.24962745333E+03  0.00000000000E+00 0.  1.
   -9000007    1    1    2    0  502  0.22284809651E+03  0.24258242168E+02 -0.17981171270E+03  0.49252612972E+03  0.40000000000E+03 0.  1.
<mgrwt>
<rscale>  2 0.45846109E+03</rscale>
<asrwt>0</asrwt>
<pdfrwt beam="1">  1       21 0.53456609E-01 0.45852997E+03</pdfrwt>
<pdfrwt beam="2">  1       21 0.93980782E-01 0.45852997E+03</pdfrwt>
<totfact> 0.27241224E+03</totfact>
</mgrwt>
</event>
<event>
 6    1  0.9598567E-004  0.4291193E+03  0.7818608E-02  0.1034215E+00
         21   -1    0    0  503  502  0.00000000000E+00  0.00000000000E+00  0.32450158810E+03  0.32450158810E+03  0.00000000000E+00 0.  1.
         21   -1    0    0  501  503 -0.00000000000E+00 -0.00000000000E+00 -0.60890606703E+03  0.60890606703E+03  0.00000000000E+00 0.  1.
    9000007    2    1    2  501    0  0.14985731463E+03  0.29382369704E+02 -0.26595292643E+03  0.50485077654E+03  0.40102719248E+03 0.  0.
    9000005    1    3    3    0    0  0.13585946828E+03  0.56768407292E+02  0.73108847477E+02  0.16439693051E+03  0.99999687468E+00 0.  0.
          4    1    3    3  501    0  0.13997846346E+02 -0.27386037588E+02 -0.33906177390E+03  0.34045384603E+03  0.00000000000E+00 0.  1.
   -9000007    1    1    2    0  502 -0.14985731463E+03 -0.29382369704E+02 -0.18451552505E+02  0.42855687859E+03  0.40000000000E+03 0.  1.
<mgrwt>
<rscale>  2 0.42887912E+03</rscale>
<asrwt>0</asrwt>
<pdfrwt beam="1">  1       21 0.49923321E-01 0.42911927E+03</pdfrwt>
<pdfrwt beam="2">  1       21 0.93677856E-01 0.42911927E+03</pdfrwt>
<totfact> 0.32112146E+03</totfact>
</mgrwt>
</event>
<event>
 6    1  0.9598567E-004  0.4375133E+03  0.7818608E-02  0.1031546E+00
         21   -1    0    0  503  502  0.00000000000E+00  0.00000000000E+00  0.10094106769E+03  0.10094106769E+03  0.00000000000E+00 0.  1.
         21   -1    0    0  501  503 -0.00000000000E+00 -0.00000000000E+00 -0.22130151015E+04  0.22130151015E+04  0.00000000000E+00 0.  1.
    9000007    2    1    2  501    0  0.69670882717E+02  0.16298416117E+03 -0.14945427490E+04  0.15571452573E+04  0.39953154429E+03 0.  0.
    9000005    1    3    3    0    0 -0.90529863657E+02 -0.56273517786E+02 -0.14170595686E+03  0.17732440109E+03  0.99999687468E+00 0.  0.
          4    1    3    3  501    0  0.16020074637E+03  0.21925767895E+03 -0.13528367922E+04  0.13798208562E+04  0.00000000000E+00 0.  1.
   -9000007    1    1    2    0  502 -0.69670882717E+02 -0.16298416117E+03 -0.61753128473E+03  0.75681091186E+03  0.40000000000E+03 0.  1.
<mgrwt>
<rscale>  2 0.43740618E+03</rscale>
<asrwt>0</asrwt>
<pdfrwt beam="1">  1       21 0.15529397E-01 0.43751328E+03</pdfrwt>
<pdfrwt beam="2">  1       21 0.34046382E+00 0.43751328E+03</pdfrwt>
<totfact> 0.58259529E+02</totfact>
</mgrwt>
</event>
<event>
 6    1  0.9598567E-004  0.4630696E+03  0.7818608E-02  0.1023917E+00
         21   -1    0    0  503  502  0.00000000000E+00  0.00000000000E+00  0.41031265075E+03  0.41031265075E+03  0.00000000000E+00 0. -1.
         21   -1    0    0  501  503 -0.00000000000E+00 -0.00000000000E+00 -0.64499091864E+03  0.64499091864E+03  0.00000000000E+00 0.  1.
    9000007    2    1    2  501    0 -0.23038395150E+03 -0.32799389876E+02 -0.34753262344E+03  0.57897524706E+03  0.40035090517E+03 0.  0.
    9000005    1    3    3    0    0  0.61548580444E+02 -0.10944476311E+03 -0.21575689213E+03  0.24963657669E+03  0.99999687468E+00 0.  0.
          4    1    3    3  501    0 -0.29193253194E+03  0.76645373230E+02 -0.13177573131E+03  0.32933867038E+03  0.00000000000E+00 0.  1.
   -9000007    1    1    2    0  502  0.23038395150E+03  0.32799389876E+02  0.11285435556E+03  0.47632832233E+03  0.40000000000E+03 0. -1.
<mgrwt>
<rscale>  2 0.46299370E+03</rscale>
<asrwt>0</asrwt>
<pdfrwt beam="1">  1       21 0.63125023E-01 0.46306955E+03</pdfrwt>
<pdfrwt beam="2">  1       21 0.99229372E-01 0.46306955E+03</pdfrwt>
<totfact> 0.16605245E+03</totfact>
</mgrwt>
</event>
<event>
 6    1  0.9598567E-004  0.4326723E+03  0.7818608E-02  0.1033032E+00
         21   -1    0    0  503  502  0.00000000000E+00  0.00000000000E+00  0.34194675805E+03  0.34194675805E+03  0.00000000000E+00 0.  1.
         21   -1    0    0  501  503 -0.00000000000E+00 -0.00000000000E+00 -0.63641885109E+03  0.63641885109E+03  0.00000000000E+00 0. -1.
    9000007    2    1    2  501    0  0.12953705280E+03 -0.10210536519E+03 -0.33031023676E+03  0.54421157404E+03  0.39981999845E+03 0.  0.
    9000005    1    3    3    0    0  0.10282403137E+03  0.12806443039E+03 -0.33425495046E+02  0.16760532054E+03  0.99999687468E+00 0.  0.
          4    1    3    3  501    0  0.26713021422E+02 -0.23016979559E+03 -0.29688474171E+03  0.37660625350E+03  0.00000000000E+00 0.  1.
   -9000007    1    1    2    0  502 -0.12953705280E+03  0.10210536519E+03  0.35838143715E+02  0.43415403510E+03  0.40000000000E+03 0. -1.
<mgrwt>
<rscale>  2 0.43263073E+03</rscale>
<asrwt>0</asrwt>
<pdfrwt beam="1">  1       21 0.52607194E-01 0.43267234E+03</pdfrwt>
<pdfrwt beam="2">  1       21 0.97910591E-01 0.43267234E+03</pdfrwt>
<totfact> 0.25795580E+03</totfact>
</mgrwt>
</event>
<event>
 6    1  0.9598567E-004  0.4668367E+03  0.7818608E-02  0.1022823E+00
         21   -1    0    0  503  502  0.00000000000E+00  0.00000000000E+00  0.53413242274E+03  0.53413242274E+03  0.00000000000E+00 0. -1.
         21   -1    0    0  501  503 -0.00000000000E+00 -0.00000000000E+00 -0.57527031209E+03  0.57527031209E+03  0.00000000000E+00 0. -1.
    9000007    2    1    2  501    0 -0.13365081429E+03 -0.19999447105E+03  0.27858721309E+03  0.54364265340E+03  0.40009520203E+03 0.  0.
    9000005    1    3    3    0    0 -0.22758890038E+03 -0.25821180126E+03  0.15392464249E+03  0.37704620068E+03  0.99999687468E+00 0.  0.
          4    1    3    3  501    0  0.93938086086E+02  0.58217330202E+02  0.12466257059E+03  0.16659645272E+03  0.00000000000E+00 0.  1.
   -9000007    1    1    2    0  502  0.13365081429E+03  0.19999447105E+03 -0.31972510243E+03  0.56576008143E+03  0.40000000000E+03 0. -1.
<mgrwt>
<rscale>  2 0.46681630E+03</rscale>
<asrwt>0</asrwt>
<pdfrwt beam="1">  1       21 0.82174219E-01 0.46683669E+03</pdfrwt>
<pdfrwt beam="2">  1       21 0.88503125E-01 0.46683669E+03</pdfrwt>
<totfact> 0.11990989E+03</totfact>
</mgrwt>
</event>
<event>
 6    1  0.9598567E-004  0.4658460E+03  0.7818608E-02  0.1023114E+00
         21   -1    0    0  503  502  0.00000000000E+00  0.00000000000E+00  0.40697885267E+03  0.40697885267E+03  0.00000000000E+00 0.  1.
         21   -1    0    0  501  503 -0.00000000000E+00 -0.00000000000E+00 -0.98435524704E+03  0.98435524704E+03  0.00000000000E+00 0.  1.
    9000007    2    1    2  501    0 -0.23848836173E+03  0.11654220145E+02 -0.75972659324E+03  0.89107005487E+03  0.39976096192E+03 0.  0.
    9000005    1    3    3    0    0  0.36539373122E+02  0.50137853200E+02  0.18525548684E+02  0.64754351664E+02  0.99999687468E+00 0.  0.
          4    1    3    3  501    0 -0.27502773486E+03 -0.38483633054E+02 -0.77825214192E+03  0.82631570320E+03  0.00000000000E+00 0.  1.
   -9000007    1    1    2    0  502  0.23848836173E+03 -0.11654220145E+02  0.18235019887E+03  0.50026404484E+03  0.40000000000E+03 0.  1.
<mgrwt>
<rscale>  2 0.46579471E+03</rscale>
<asrwt>0</asrwt>
<pdfrwt beam="1">  1       21 0.62612132E-01 0.46584603E+03</pdfrwt>
<pdfrwt beam="2">  1       21 0.15143927E+00 0.46584603E+03</pdfrwt>
<totfact> 0.57130019E+02</totfact>
</mgrwt>
</event>
<event>
 6    1  0.9598567E-004  0.4117191E+03  0.7818608E-02  0.1039869E+00
         21   -1    0    0  503  502  0.00000000000E+00  0.00000000000E+00  0.33505043607E+03  0.33505043607E+03  0.00000000000E+00 0.  1.
         21   -1    0    0  501  503 -0.00000000000E+00 -0.00000000000E+00 -0.13513666942E+04  0.13513666942E+04  0.00000000000E+00 0.  1.
    9000007    2    1    2  501    0 -0.13174666887E+01 -0.97523865014E+02 -0.11753245903E+04  0.12450598038E+04  0.39909069465E+03 0.  0.
    9000005    1    3    3    0    0 -0.97095893114E+02 -0.22713635426E+03 -0.77876157008E+03  0.81700007277E+03  0.99999687468E+00 0.  0.
          4    1    3    3  501    0  0.95778426426E+02  0.12961248924E+03 -0.39656302020E+03  0.42805973103E+03  0.00000000000E+00 0.  1.
   -9000007    1    1    2    0  502  0.13174666887E+01  0.97523865014E+02  0.15900833213E+03  0.44135732650E+03  0.40000000000E+03 0.  1.
<mgrwt>
<rscale>  2 0.41149811E+03</rscale>
<asrwt>0</asrwt>
<pdfrwt beam="1">  1       21 0.51546222E-01 0.41171913E+03</pdfrwt>
<pdfrwt beam="2">  1       21 0.20790257E+00 0.41171913E+03</pdfrwt>
<totfact> 0.35607085E+02</totfact>
</mgrwt>
</event>
<event>
 6    1  0.9598567E-004  0.4761522E+03  0.7818608E-02  0.1020340E+00
         21   -1    0    0  503  502  0.00000000000E+00  0.00000000000E+00  0.21850128710E+04  0.21850128710E+04  0.00000000000E+00 0. -1.
         21   -1    0    0  501  503 -0.00000000000E+00 -0.00000000000E+00 -0.15150202100E+03  0.15150202100E+03  0.00000000000E+00 0. -1.
    9000007    2    1    2  501    0 -0.19038176640E+03 -0.17457291985E+03  0.35642709317E+03  0.59314721744E+03  0.39757065722E+03 0.  0.
    9000005    1    3    3    0    0 -0.27737402413E+03 -0.22894135658E+03  0.21700225802E+03  0.42004937090E+03  0.99999687468E+00 0.  0.
          4    1    3    3  501    0  0.86992257733E+02  0.54368436728E+02  0.13942483516E+03  0.17309784654E+03  0.00000000000E+00 0.  1.
   -9000007    1    1    2    0  502  0.19038176640E+03  0.17457291985E+03  0.16770837569E+04  0.17433676746E+04  0.40000000000E+03 0. -1.
<mgrwt>
<rscale>  2 0.47564164E+03</rscale>
<asrwt>0</asrwt>
<pdfrwt beam="1">  1       21 0.33615580E+00 0.47615220E+03</pdfrwt>
<pdfrwt beam="2">  1       21 0.23308005E-01 0.47615220E+03</pdfrwt>
<totfact> 0.28007865E+02</totfact>
</mgrwt>
</event>
<event>
 6    1  0.9598567E-004  0.4479782E+03  0.7818608E-02  0.1028333E+00
         21   -1    0    0  503  502  0.00000000000E+00  0.00000000000E+00  0.67724465598E+03  0.67724465598E+03  0.00000000000E+00 0. -1.
         21   -1    0    0  501  503 -0.00000000000E+00 -0.00000000000E+00 -0.58583865544E+03  0.58583865544E+03  0.00000000000E+00 0. -1.
    9000007    2    1    2  501    0 -0.16790374359E+03  0.11177134720E+03 -0.39830640698E+03  0.59937950455E+03  0.39990410785E+03 0.  0.
    9000005    1    3    3    0    0 -0.15422540001E+03 -0.10833676702E+03 -0.30796049494E+03  0.36105816088E+03  0.99999687468E+00 0.  0.
          4    1    3    3  501    0 -0.13678343578E+02  0.22010811422E+03 -0.90345912031E+02  0.23832134368E+03  0.00000000000E+00 0.  1.
   -9000007    1    1    2    0  502  0.16790374359E+03 -0.11177134720E+03  0.48971240752E+03  0.66370380687E+03  0.40000000000E+03 0. -1.
<mgrwt>
<rscale>  2 0.44795683E+03</rscale>
<asrwt>0</asrwt>
<pdfrwt beam="1">  1       21 0.10419149E+00 0.44797824E+03</pdfrwt>
<pdfrwt beam="2">  1       21 0.90129024E-01 0.44797824E+03</pdfrwt>
<totfact> 0.65685688E+02</totfact>
</mgrwt>
</event>
<event>
 6    1  0.9598567E-004  0.5281797E+03  0.7818608E-02  0.1006697E+00
         21   -1    0    0  503  502  0.00000000000E+00  0.00000000000E+00  0.68031678308E+03  0.68031678308E+03  0.00000000000E+00 0.  1.
         21   -1    0    0  501  503 -0.00000000000E+00 -0.00000000000E+00 -0.72077944096E+03  0.72077944096E+03  0.00000000000E+00 0.  1.
    9000007    2    1    2  501    0 -0.48313026810E+02  0.34095448343E+03 -0.48040492832E+03  0.71397664955E+03  0.40048676958E+03 0.  0.
    9000005    1    3    3    0    0 -0.14987008275E+03  0.38817418070E+03 -0.37342270545E+03  0.55909368911E+03  0.99999687468E+00 0.  0.
          4    1    3    3  501    0  0.10155705594E+03 -0.47219697268E+02 -0.10698222288E+03  0.15488296044E+03  0.00000000000E+00 0.  1.
   -9000007    1    1    2    0  502  0.48313026810E+02 -0.34095448343E+03  0.43994227044E+03  0.68711957449E+03  0.40000000000E+03 0.  1.
<mgrwt>
<rscale>  2 0.52808739E+03</rscale>
<asrwt>0</asrwt>
<pdfrwt beam="1">  1       21 0.10466412E+00 0.52817967E+03</pdfrwt>
<pdfrwt beam="2">  1       21 0.11088914E+00 0.52817967E+03</pdfrwt>
<totfact> 0.37932701E+02</totfact>
</mgrwt>
</event>
<event>
 6    1  0.9598567E-004  0.5323706E+03  0.7818608E-02  0.1005694E+00
         21   -1    0    0  503  502  0.00000000000E+00  0.00000000000E+00  0.62027679152E+03  0.62027679152E+03  0.00000000000E+00 0.  1.
         21   -1    0    0  501  503 -0.00000000000E+00 -0.00000000000E+00 -0.78175463514E+03  0.78175463514E+03  0.00000000000E+00 0.  1.
    9000007    2    1    2  501    0 -0.21084378098E+02 -0.35067640246E+03 -0.53293803513E+03  0.75287723532E+03  0.39922761921E+03 0.  0.
    9000005    1    3    3    0    0  0.43512009962E+02  0.45563984111E+02 -0.25972609653E+03  0.26726020443E+03  0.99999687468E+00 0.  0.
          4    1    3    3  501    0 -0.64596388060E+02 -0.39624038657E+03 -0.27321193860E+03  0.48561703089E+03  0.00000000000E+00 0.  1.
   -9000007    1    1    2    0  502  0.21084378098E+02  0.35067640246E+03  0.37146019152E+03  0.64915419133E+03  0.40000000000E+03 0.  1.
<mgrwt>
<rscale>  2 0.53222555E+03</rscale>
<asrwt>0</asrwt>
<pdfrwt beam="1">  1       21 0.95427199E-01 0.53237063E+03</pdfrwt>
<pdfrwt beam="2">  1       21 0.12026994E+00 0.53237063E+03</pdfrwt>
<totfact> 0.38669724E+02</totfact>
</mgrwt>
</event>
<event>
 6    1  0.9598567E-004  0.4105266E+03  0.7818608E-02  0.1040221E+00
         21   -1    0    0  503  502  0.00000000000E+00  0.00000000000E+00  0.52364264301E+03  0.52364264301E+03  0.00000000000E+00 0.  1.
         21   -1    0    0  501  503 -0.00000000000E+00 -0.00000000000E+00 -0.32613876934E+03  0.32613876934E+03  0.00000000000E+00 0.  1.
    9000007    2    1    2  501    0  0.91599671571E+02  0.11900228339E+02  0.48561881755E+02  0.41307117407E+03  0.39967164425E+03 0.  0.
    9000005    1    3    3    0    0 -0.15069204447E+03  0.23371363342E+02  0.73395577528E+02  0.16924013616E+03  0.99999687468E+00 0.  0.
          4    1    3    3  501    0  0.24229171604E+03 -0.11471135003E+02 -0.24833695774E+02  0.24383103791E+03  0.00000000000E+00 0.  1.
   -9000007    1    1    2    0  502 -0.91599671571E+02 -0.11900228339E+02  0.14894199191E+03  0.43671023828E+03  0.40000000000E+03 0.  1.
<mgrwt>
<rscale>  2 0.41044663E+03</rscale>
<asrwt>0</asrwt>
<pdfrwt beam="1">  1       21 0.80560407E-01 0.41052663E+03</pdfrwt>
<pdfrwt beam="2">  1       21 0.50175195E-01 0.41052663E+03</pdfrwt>
<totfact> 0.45576290E+03</totfact>
</mgrwt>
</event>
<event>
 6    1  0.9598567E-004  0.4168779E+03  0.7818608E-02  0.1038095E+00
         21   -1    0    0  503  502  0.00000000000E+00  0.00000000000E+00  0.13643764473E+04  0.13643764473E+04  0.00000000000E+00 0.  1.
         21   -1    0    0  501  503 -0.00000000000E+00 -0.00000000000E+00 -0.12764544118E+03  0.12764544118E+03  0.00000000000E+00 0.  1.
    9000007    2    1    2  501    0  0.67107567989E+02  0.96352094777E+02  0.58210335241E+03  0.71592620053E+03  0.39989856197E+03 0.  0.
    9000005    1    3    3    0    0  0.20921756036E+03 -0.15279301585E+02  0.43488971220E+03  0.48284107778E+03  0.99999687468E+00 0.  0.
          4    1    3    3  501    0 -0.14210999237E+03  0.11163139636E+03  0.14721364021E+03  0.23308512275E+03  0.00000000000E+00 0.  1.
   -9000007    1    1    2    0  502 -0.67107567989E+02 -0.96352094777E+02  0.65462765369E+03  0.77609568793E+03  0.40000000000E+03 0.  1.
<mgrwt>
<rscale>  2 0.41685353E+03</rscale>
<asrwt>0</asrwt>
<pdfrwt beam="1">  1       21 0.20990406E+00 0.41687786E+03</pdfrwt>
<pdfrwt beam="2">  1       21 0.19637761E-01 0.41687786E+03</pdfrwt>
<totfact> 0.23814168E+03</totfact>
</mgrwt>
</event>
<event>
 6    1  0.9598567E-004  0.4559976E+03  0.7818608E-02  0.1026009E+00
         21   -1    0    0  503  502  0.00000000000E+00  0.00000000000E+00  0.15699528278E+03  0.15699528278E+03  0.00000000000E+00 0. -1.
         21   -1    0    0  501  503 -0.00000000000E+00 -0.00000000000E+00 -0.17358578858E+04  0.17358578858E+04  0.00000000000E+00 0. -1.
    9000007    2    1    2  501    0  0.13712512377E+03  0.16844592361E+03 -0.12520725501E+04  0.13325237410E+04  0.40094453590E+03 0.  0.
    9000005    1    3    3    0    0  0.16900873593E+03  0.29689514702E+01 -0.17862301457E+03  0.24592671433E+03  0.99999687468E+00 0.  0.
          4    1    3    3  501    0 -0.31883612167E+02  0.16547697214E+03 -0.10734495355E+04  0.10865970266E+04  0.00000000000E+00 0.  1.
   -9000007    1    1    2    0  502 -0.13712512377E+03 -0.16844592361E+03 -0.32679005300E+03  0.56032942765E+03  0.40000000000E+03 0. -1.
<mgrwt>
<rscale>  2 0.45578993E+03</rscale>
<asrwt>0</asrwt>
<pdfrwt beam="1">  1       21 0.24153120E-01 0.45599764E+03</pdfrwt>
<pdfrwt beam="2">  1       21 0.26705507E+00 0.45599764E+03</pdfrwt>
<totfact> 0.69143159E+02</totfact>
</mgrwt>
</event>
<event>
 6    1  0.9598567E-004  0.5193191E+03  0.7818608E-02  0.1008900E+00
         21   -1    0    0  503  502  0.00000000000E+00  0.00000000000E+00  0.56403398450E+03  0.56403398450E+03  0.00000000000E+00 0.  1.
         21   -1    0    0  501  503 -0.00000000000E+00 -0.00000000000E+00 -0.55781180873E+03  0.55781180873E+03  0.00000000000E+00 0. -1.
    9000007    2    1    2  501    0 -0.26966627980E+03 -0.19037504203E+03 -0.20972248210E+03  0.56006767480E+03  0.40091111456E+03 0.  0.
    9000005    1    3    3    0    0 -0.35867066929E+02  0.12272122389E+03 -0.64406257105E+02  0.14316462982E+03  0.99999687468E+00 0.  0.
          4    1    3    3  501    0 -0.23379921287E+03 -0.31309626592E+03 -0.14531622499E+03  0.41690304498E+03  0.00000000000E+00 0.  1.
   -9000007    1    1    2    0  502  0.26966627980E+03  0.19037504203E+03  0.21594465786E+03  0.56177811843E+03  0.40000000000E+03 0.  1.
<mgrwt>
<rscale>  2 0.51914320E+03</rscale>
<asrwt>0</asrwt>
<pdfrwt beam="1">  1       21 0.86774459E-01 0.51931905E+03</pdfrwt>
<pdfrwt beam="2">  1       21 0.85817201E-01 0.51931905E+03</pdfrwt>
<totfact> 0.11134079E+03</totfact>
</mgrwt>
</event>
<event>
 6    1  0.9598567E-004  0.4304202E+03  0.7818608E-02  0.1033757E+00
         21   -1    0    0  503  502  0.00000000000E+00  0.00000000000E+00  0.80335081490E+03  0.80335081490E+03  0.00000000000E+00 0.  1.
         21   -1    0    0  501  503 -0.00000000000E+00 -0.00000000000E+00 -0.39526706289E+03  0.39526706289E+03  0.00000000000E+00 0.  1.
    9000007    2    1    2  501    0  0.15373446673E+03 -0.36099254801E+02 -0.18294990257E+03  0.46768817986E+03  0.40040495036E+03 0.  0.
    9000005    1    3    3    0    0 -0.86151888312E+02 -0.14142061443E+03 -0.45019866612E+02  0.17160922595E+03  0.99999687468E+00 0.  0.
          4    1    3    3  501    0  0.23988635505E+03  0.10532135963E+03 -0.13793003596E+03  0.29607895392E+03  0.00000000000E+00 0.  1.
   -9000007    1    1    2    0  502 -0.15373446673E+03  0.36099254801E+02  0.59103365458E+03  0.73092969793E+03  0.40000000000E+03 0.  1.
<mgrwt>
<rscale>  2 0.43032602E+03</rscale>
<asrwt>0</asrwt>
<pdfrwt beam="1">  1       21 0.12359243E+00 0.43042022E+03</pdfrwt>
<pdfrwt beam="2">  1       21 0.60810317E-01 0.43042022E+03</pdfrwt>
<totfact> 0.10578125E+03</totfact>
</mgrwt>
</event>
<event>
 6    1  0.9598567E-004  0.4709239E+03  0.7818608E-02  0.1021670E+00
         21   -1    0    0  503  502  0.00000000000E+00  0.00000000000E+00  0.21073093555E+03  0.21073093555E+03  0.00000000000E+00 0.  1.
         21   -1    0    0  501  503 -0.00000000000E+00 -0.00000000000E+00 -0.16986929267E+04  0.16986929267E+04  0.00000000000E+00 0.  1.
    9000007    2    1    2  501    0  0.20491372890E+03  0.14014105295E+03 -0.13330976036E+04  0.14138311569E+04  0.40017517224E+03 0.  0.
    9000005    1    3    3    0    0  0.22445727539E+01 -0.56840679559E+02 -0.62715632322E+01  0.57238391476E+02  0.99999687468E+00 0.  0.
          4    1    3    3  501    0  0.20266915615E+03  0.19698173251E+03 -0.13268260404E+04  0.13565927655E+04  0.00000000000E+00 0.  1.
   -9000007    1    1    2    0  502 -0.20491372890E+03 -0.14014105295E+03 -0.15486438748E+03  0.49559270528E+03  0.40000000000E+03 0.  1.
<mgrwt>
<rscale>  2 0.47088668E+03</rscale>
<asrwt>0</asrwt>
<pdfrwt beam="1">  1       21 0.32420143E-01 0.47092390E+03</pdfrwt>
<pdfrwt beam="2">  1       21 0.26133738E+00 0.47092390E+03</pdfrwt>
<totfact> 0.41587207E+02</totfact>
</mgrwt>
</event>
<event>
 6    1  0.9598567E-004  0.4024265E+03  0.7818608E-02  0.1042961E+00
         21   -1    0    0  503  502  0.00000000000E+00  0.00000000000E+00  0.69180535083E+03  0.69180535083E+03  0.00000000000E+00 0.  1.
         21   -1    0    0  501  503 -0.00000000000E+00 -0.00000000000E+00 -0.23411206640E+03  0.23411206640E+03  0.00000000000E+00 0.  1.
    9000007    2    1    2  501    0  0.28167100935E+02  0.33966630624E+02  0.24014019169E+03  0.46844996950E+03  0.39978862501E+03 0.  0.
    9000005    1    3    3    0    0  0.44370308859E+02  0.15123295543E+03  0.29767720093E+03  0.33682762218E+03  0.99999687468E+00 0.  0.
          4    1    3    3  501    0 -0.16203207924E+02 -0.11726632481E+03 -0.57537009245E+02  0.13162234732E+03  0.00000000000E+00 0.  1.
   -9000007    1    1    2    0  502 -0.28167100935E+02 -0.33966630624E+02  0.21755309274E+03  0.45746744773E+03  0.40000000000E+03 0. -1.
<mgrwt>
<rscale>  2 0.40237400E+03</rscale>
<asrwt>0</asrwt>
<pdfrwt beam="1">  1       21 0.10643159E+00 0.40242654E+03</pdfrwt>
<pdfrwt beam="2">  1       21 0.36017241E-01 0.40242654E+03</pdfrwt>
<totfact> 0.46851895E+03</totfact>
</mgrwt>
</event>
<event>
 6    1  0.9598567E-004  0.4952755E+03  0.7818608E-02  0.1015116E+00
         21   -1    0    0  503  502  0.00000000000E+00  0.00000000000E+00  0.34476042427E+03  0.34476042427E+03  0.00000000000E+00 0.  1.
         21   -1    0    0  501  503 -0.00000000000E+00 -0.00000000000E+00 -0.79275892155E+03  0.79275892155E+03  0.00000000000E+00 0. -1.
    9000007    2    1    2  501    0 -0.24569977720E+03 -0.15789048495E+03 -0.40812999182E+03  0.64064181214E+03  0.39818846730E+03 0.  0.
    9000005    1    3    3    0    0 -0.21480916008E+03 -0.22418157273E+03 -0.45713506540E+03  0.55260638869E+03  0.99999687468E+00 0.  0.
          4    1    3    3  501    0 -0.30890617128E+02  0.66291087782E+02  0.49005073584E+02  0.88035423455E+02  0.00000000000E+00 0.  1.
   -9000007    1    1    2    0  502  0.24569977720E+03  0.15789048495E+03 -0.39868505466E+02  0.49687753369E+03  0.40000000000E+03 0.  1.
<mgrwt>
<rscale>  2 0.49490959E+03</rscale>
<asrwt>0</asrwt>
<pdfrwt beam="1">  1       21 0.53040065E-01 0.49527546E+03</pdfrwt>
<pdfrwt beam="2">  1       21 0.12196291E+00 0.49527546E+03</pdfrwt>
<totfact> 0.14353095E+03</totfact>
</mgrwt>
</event>
<event>
 6    1  0.9598567E-004  0.4850267E+03  0.7818608E-02  0.1017767E+00
         21   -1    0    0  503  502  0.00000000000E+00  0.00000000000E+00  0.91723600822E+03  0.91723600822E+03  0.00000000000E+00 0. -1.
         21   -1    0    0  501  503 -0.00000000000E+00 -0.00000000000E+00 -0.75058943017E+03  0.75058943017E+03  0.00000000000E+00 0. -1.
    9000007    2    1    2  501    0  0.35030120479E+02  0.27207320648E+03 -0.59330012724E+03  0.76628789956E+03  0.39992644948E+03 0.  0.
    9000005    1    3    3    0    0 -0.17377860888E+03  0.14855647184E+03 -0.37884617648E+03  0.44248554288E+03  0.99999687468E+00 0.  0.
          4    1    3    3  501    0  0.20880872936E+03  0.12351673464E+03 -0.21445395076E+03  0.32380235668E+03  0.00000000000E+00 0.  1.
   -9000007    1    1    2    0  502 -0.35030120479E+02 -0.27207320648E+03  0.75994670530E+03  0.90153753883E+03  0.40000000000E+03 0. -1.
<mgrwt>
<rscale>  2 0.48501158E+03</rscale>
<asrwt>0</asrwt>
<pdfrwt beam="1">  1       21 0.14111323E+00 0.48502674E+03</pdfrwt>
<pdfrwt beam="2">  1       21 0.11547530E+00 0.48502674E+03</pdfrwt>
<totfact> 0.16254482E+02</totfact>
</mgrwt>
</event>
<event>
 6    1  0.9598567E-004  0.5126645E+03  0.7818608E-02  0.1010561E+00
         21   -1    0    0  503  502  0.00000000000E+00  0.00000000000E+00  0.30263136590E+03  0.30263136590E+03  0.00000000000E+00 0.  1.
         21   -1    0    0  501  503 -0.00000000000E+00 -0.00000000000E+00 -0.12650050967E+04  0.12650050967E+04  0.00000000000E+00 0.  1.
    9000007    2    1    2  501    0 -0.20157458238E+03 -0.24820919463E+03 -0.92075136106E+03  0.10538538839E+04  0.40073036210E+03 0.  0.
    9000005    1    3    3    0    0 -0.37420769274E+02 -0.14074373473E+03 -0.82087387348E+03  0.83369300644E+03  0.99999687468E+00 0.  0.
          4    1    3    3  501    0 -0.16415381310E+03 -0.10746545990E+03 -0.99877487587E+02  0.22016087744E+03  0.00000000000E+00 0.  1.
   -9000007    1    1    2    0  502  0.20157458238E+03  0.24820919463E+03 -0.41622369759E+02  0.51378257875E+03  0.40000000000E+03 0.  1.
<mgrwt>
<rscale>  2 0.51252182E+03</rscale>
<asrwt>0</asrwt>
<pdfrwt beam="1">  1       21 0.46558671E-01 0.51266455E+03</pdfrwt>
<pdfrwt beam="2">  1       21 0.19461617E+00 0.51266455E+03</pdfrwt>
<totfact> 0.51567652E+02</totfact>
</mgrwt>
</event>
<event>
 6    1  0.9598567E-004  0.5832042E+03  0.7818608E-02  0.9940958E-01
         21   -1    0    0  503  502  0.00000000000E+00  0.00000000000E+00  0.14539526844E+04  0.14539526844E+04  0.00000000000E+00 0.  1.
         21   -1    0    0  501  503 -0.00000000000E+00 -0.00000000000E+00 -0.35051894578E+03  0.35051894578E+03  0.00000000000E+00 0. -1.
    9000007    2    1    2  501    0  0.69450151294E+02 -0.41869304129E+03  0.31195050894E+02  0.58388857697E+03  0.39978188150E+03 0.  0.
    9000005    1    3    3    0    0  0.13943614889E+03 -0.31438130806E+03 -0.14019562488E+03  0.37139447990E+03  0.99999687468E+00 0.  0.
          4    1    3    3  501    0 -0.69985997592E+02 -0.10431173323E+03  0.17139067577E+03  0.21249409707E+03  0.00000000000E+00 0.  1.
   -9000007    1    1    2    0  502 -0.69450151294E+02  0.41869304129E+03  0.10722386877E+04  0.12205830532E+04  0.40000000000E+03 0.  1.
<mgrwt>
<rscale>  2 0.58316684E+03</rscale>
<asrwt>0</asrwt>
<pdfrwt beam="1">  1       21 0.22368503E+00 0.58320424E+03</pdfrwt>
<pdfrwt beam="2">  1       21 0.53925992E-01 0.58320424E+03</pdfrwt>
<totfact> 0.23526298E+02</totfact>
</mgrwt>
</event>
<event>
 6    1  0.9598567E-004  0.4134404E+03  0.7818608E-02  0.1039318E+00
         21   -1    0    0  503  502  0.00000000000E+00  0.00000000000E+00  0.91548182944E+03  0.91548182944E+03  0.00000000000E+00 0.  1.
         21   -1    0    0  501  503 -0.00000000000E+00 -0.00000000000E+00 -0.24657125789E+03  0.24657125789E+03  0.00000000000E+00 0.  1.
    9000007    2    1    2  501    0 -0.95234681844E+02 -0.30329876305E+02  0.47298984971E+02  0.41613720025E+03  0.40117755350E+03 0.  0.
    9000005    1    3    3    0    0  0.96930044705E+02 -0.93743491486E+02 -0.98272915484E+02  0.16685874767E+03  0.99999687468E+00 0.  0.
          4    1    3    3  501    0 -0.19216472655E+03  0.63413615181E+02  0.14557190045E+03  0.24927845258E+03  0.00000000000E+00 0.  1.
   -9000007    1    1    2    0  502  0.95234681844E+02  0.30329876305E+02  0.62161158658E+03  0.74591588708E+03  0.40000000000E+03 0.  1.
<mgrwt>
<rscale>  2 0.41315448E+03</rscale>
<asrwt>0</asrwt>
<pdfrwt beam="1">  1       21 0.14084336E+00 0.41344041E+03</pdfrwt>
<pdfrwt beam="2">  1       21 0.37934040E-01 0.41344041E+03</pdfrwt>
<totfact> 0.20560115E+03</totfact>
</mgrwt>
</event>
<event>
 6    1  0.9598567E-004  0.4299348E+03  0.7818608E-02  0.1033883E+00
         21   -1    0    0  503  502  0.00000000000E+00  0.00000000000E+00  0.78310855211E+03  0.78310855211E+03  0.00000000000E+00 0. -1.
         21   -1    0    0  501  503 -0.00000000000E+00 -0.00000000000E+00 -0.25278991380E+03  0.25278991380E+03  0.00000000000E+00 0. -1.
    9000007    2    1    2  501    0  0.92949505096E+02 -0.12718448270E+03  0.13176588667E+03  0.44967342466E+03  0.40003554445E+03 0.  0.
    9000005    1    3    3    0    0 -0.13757876212E+03 -0.57997083475E+02  0.14565568302E+03  0.20858608647E+03  0.99999687468E+00 0.  0.
          4    1    3    3  501    0  0.23052826722E+03 -0.69187399224E+02 -0.13889796349E+02  0.24108733820E+03  0.00000000000E+00 0.  1.
   -9000007    1    1    2    0  502 -0.92949505096E+02  0.12718448270E+03  0.39855275164E+03  0.58622504124E+03  0.40000000000E+03 0.  1.
<mgrwt>
<rscale>  2 0.42992654E+03</rscale>
<asrwt>0</asrwt>
<pdfrwt beam="1">  1       21 0.12047824E+00 0.42993481E+03</pdfrwt>
<pdfrwt beam="2">  1       21 0.38890756E-01 0.42993481E+03</pdfrwt>
<totfact> 0.29110310E+03</totfact>
</mgrwt>
</event>
<event>
 6    1  0.9598567E-004  0.4632714E+03  0.7818608E-02  0.1023868E+00
         21   -1    0    0  503  502  0.00000000000E+00  0.00000000000E+00  0.66769256746E+03  0.66769256746E+03  0.00000000000E+00 0.  1.
         21   -1    0    0  501  503 -0.00000000000E+00 -0.00000000000E+00 -0.32113394142E+03  0.32113394142E+03  0.00000000000E+00 0. -1.
    9000007    2    1    2  501    0 -0.91371237854E+02 -0.21416620586E+03  0.17249019637E+03  0.49434123604E+03  0.40050533451E+03 0.  0.
    9000005    1    3    3    0    0  0.53632645369E+02 -0.28985808845E+02  0.24162020033E+03  0.24919462066E+03  0.99999687468E+00 0.  0.
          4    1    3    3  501    0 -0.14500388322E+03 -0.18518039701E+03 -0.69130003962E+02  0.24514661538E+03  0.00000000000E+00 0.  1.
   -9000007    1    1    2    0  502  0.91371237854E+02  0.21416620586E+03  0.17406842967E+03  0.49448527283E+03  0.40000000000E+03 0. -1.
<mgrwt>
<rscale>  2 0.46316216E+03</rscale>
<asrwt>0</asrwt>
<pdfrwt beam="1">  1       21 0.10272193E+00 0.46327140E+03</pdfrwt>
<pdfrwt beam="2">  1       21 0.49405222E-01 0.46327140E+03</pdfrwt>
<totfact> 0.25951722E+03</totfact>
</mgrwt>
</event>
<event>
 6    1  0.9598567E-004  0.4373635E+03  0.7818608E-02  0.1031571E+00
         21   -1    0    0  503  502  0.00000000000E+00  0.00000000000E+00  0.21795008009E+03  0.21795008009E+03  0.00000000000E+00 0. -1.
         21   -1    0    0  501  503 -0.00000000000E+00 -0.00000000000E+00 -0.88937806564E+03  0.88937806564E+03  0.00000000000E+00 0. -1.
    9000007    2    1    2  501    0  0.13205814349E+03  0.11709043918E+03 -0.40016505226E+03  0.59280593708E+03  0.40017157043E+03 0.  0.
    9000005    1    3    3    0    0 -0.95894902523E+02  0.72942275882E+02  0.10605606218E+02  0.12095406904E+03  0.99999687468E+00 0.  0.
          4    1    3    3  501    0  0.22795304601E+03  0.44148163302E+02 -0.41077065848E+03  0.47185186804E+03  0.00000000000E+00 0.  1.
   -9000007    1    1    2    0  502 -0.13205814349E+03 -0.11709043918E+03 -0.27126293330E+03  0.51452220865E+03  0.40000000000E+03 0.  1.
<mgrwt>
<rscale>  2 0.43732423E+03</rscale>
<asrwt>0</asrwt>
<pdfrwt beam="1">  1       21 0.33530781E-01 0.43736348E+03</pdfrwt>
<pdfrwt beam="2">  1       21 0.13682740E+00 0.43736348E+03</pdfrwt>
<totfact> 0.28230448E+03</totfact>
</mgrwt>
</event>
<event>
 6    1  0.9598567E-004  0.4784374E+03  0.7818608E-02  0.1019567E+00
         21   -1    0    0  503  502  0.00000000000E+00  0.00000000000E+00  0.37143557797E+03  0.37143557797E+03  0.00000000000E+00 0. -1.
         21   -1    0    0  501  503 -0.00000000000E+00 -0.00000000000E+00 -0.71939330603E+03  0.71939330603E+03  0.00000000000E+00 0.  1.
    9000007    2    1    2  501    0 -0.24681533837E+03 -0.89356456435E+02 -0.38050804841E+03  0.61128544393E+03  0.39997641366E+03 0.  0.
    9000005    1    3    3    0    0  0.43594650104E+01 -0.17311248536E+03 -0.27767030189E+03  0.32724415054E+03  0.99999687468E+00 0.  0.
          4    1    3    3  501    0 -0.25117480338E+03  0.83756028921E+02 -0.10283774653E+03  0.28404129338E+03  0.00000000000E+00 0.  1.
   -9000007    1    1    2    0  502  0.24681533837E+03  0.89356456435E+02  0.32550320357E+02  0.47954344007E+03  0.40000000000E+03 0. -1.
<mgrwt>
<rscale>  2 0.47843251E+03</rscale>
<asrwt>0</asrwt>
<pdfrwt beam="1">  1       21 0.57143936E-01 0.47843744E+03</pdfrwt>
<pdfrwt beam="2">  1       21 0.11067589E+00 0.47843744E+03</pdfrwt>
<totfact> 0.15700208E+03</totfact>
</mgrwt>
</event>
<event>
 6    1  0.9598567E-004  0.6032887E+03  0.7818608E-02  0.9898988E-01
         21   -1    0    0  503  502  0.00000000000E+00  0.00000000000E+00  0.13212259172E+04  0.13212259172E+04  0.00000000000E+00 0.  1.
         21   -1    0    0  501  503 -0.00000000000E+00 -0.00000000000E+00 -0.55431302820E+03  0.55431302820E+03  0.00000000000E+00 0.  1.
    9000007    2    1    2  501    0 -0.26612632092E+03  0.36365126538E+03 -0.28194761712E+03  0.66592172379E+03  0.40111322830E+03 0.  0.
    9000005    1    3    3    0    0 -0.13374358809E+03 -0.66485640733E+02 -0.10384807908E+03  0.18191512115E+03  0.99999687468E+00 0.  0.
          4    1    3    3  501    0 -0.13238273283E+03  0.43013690611E+03 -0.17809953804E+03  0.48400660264E+03  0.00000000000E+00 0.  1.
   -9000007    1    1    2    0  502  0.26612632092E+03 -0.36365126538E+03  0.10488605062E+04  0.12096172217E+04  0.40000000000E+03 0.  1.
<mgrwt>
<rscale>  2 0.60310374E+03</rscale>
<asrwt>0</asrwt>
<pdfrwt beam="1">  1       21 0.20326552E+00 0.60328872E+03</pdfrwt>
<pdfrwt beam="2">  1       21 0.85278928E-01 0.60328872E+03</pdfrwt>
<totfact> 0.11293155E+02</totfact>
</mgrwt>
</event>
<event>
 6    1  0.9598567E-004  0.4123864E+03  0.7818608E-02  0.1039611E+00
         21   -1    0    0  503  502  0.00000000000E+00  0.00000000000E+00  0.23899813544E+03  0.23899813544E+03  0.00000000000E+00 0. -1.
         21   -1    0    0  501  503 -0.00000000000E+00 -0.00000000000E+00 -0.71362826073E+03  0.71362826073E+03  0.00000000000E+00 0. -1.
    9000007    2    1    2  501    0  0.70206588219E+02  0.68975671734E+02 -0.26755053931E+03  0.49157481202E+03  0.40046959486E+03 0.  0.
    9000005    1    3    3    0    0  0.57632885148E+02  0.82159768408E+02 -0.37212686631E+03  0.38542337970E+03  0.99999687468E+00 0.  0.
          4    1    3    3  501    0  0.12573703071E+02 -0.13184096674E+02  0.10457632700E+03  0.10615143232E+03  0.00000000000E+00 0.  1.
   -9000007    1    1    2    0  502 -0.70206588219E+02 -0.68975671734E+02 -0.20707958597E+03  0.46105158415E+03  0.40000000000E+03 0. -1.
<mgrwt>
<rscale>  2 0.41227230E+03</rscale>
<asrwt>0</asrwt>
<pdfrwt beam="1">  1       21 0.36768944E-01 0.41238635E+03</pdfrwt>
<pdfrwt beam="2">  1       21 0.10978896E+00 0.41238635E+03</pdfrwt>
<totfact> 0.41456196E+03</totfact>
</mgrwt>
</event>
<event>
 6    1  0.9598567E-004  0.4020745E+03  0.7818608E-02  0.1043086E+00
         21   -1    0    0  503  502  0.00000000000E+00  0.00000000000E+00  0.55607242660E+03  0.55607242660E+03  0.00000000000E+00 0.  1.
         21   -1    0    0  501  503 -0.00000000000E+00 -0.00000000000E+00 -0.56809064042E+03  0.56809064042E+03  0.00000000000E+00 0.  1.
    9000007    2    1    2  501    0  0.12151316352E+02 -0.36138052962E+02 -0.39889487192E+03  0.56637532788E+03  0.40026276347E+03 0.  0.
    9000005    1    3    3    0    0  0.14446877098E+03  0.12122294712E+03 -0.13542269183E+03  0.23217780720E+03  0.99999687468E+00 0.  0.
          4    1    3    3  501    0 -0.13231745463E+03 -0.15736100008E+03 -0.26347218009E+03  0.33419752068E+03  0.00000000000E+00 0.  1.
   -9000007    1    1    2    0  502 -0.12151316352E+02  0.36138052962E+02  0.38687665810E+03  0.55778773915E+03  0.40000000000E+03 0.  1.
<mgrwt>
<rscale>  2 0.40200908E+03</rscale>
<asrwt>0</asrwt>
<pdfrwt beam="1">  1       21 0.85549605E-01 0.40207449E+03</pdfrwt>
<pdfrwt beam="2">  1       21 0.87398560E-01 0.40207449E+03</pdfrwt>
<totfact> 0.11554156E+03</totfact>
</mgrwt>
</event>
<event>
 6    1  0.9598567E-004  0.5146249E+03  0.7818608E-02  0.1010046E+00
         21   -1    0    0  503  502  0.00000000000E+00  0.00000000000E+00  0.19251920590E+04  0.19251920590E+04  0.00000000000E+00 0.  1.
         21   -1    0    0  501  503 -0.00000000000E+00 -0.00000000000E+00 -0.14532071518E+03  0.14532071518E+03  0.00000000000E+00 0.  1.
    9000007    2    1    2  501    0  0.20302115270E+03 -0.25171719849E+03  0.11303454190E+04  0.12419821088E+04  0.40032443828E+03 0.  0.
    9000005    1    3    3    0    0  0.28915412075E+03 -0.12313944600E+03  0.48192540884E+03  0.57534904918E+03  0.99999687468E+00 0.  0.
          4    1    3    3  501    0 -0.86132968045E+02 -0.12857775249E+03  0.64842001018E+03  0.66663305965E+03  0.00000000000E+00 0.  1.
   -9000007    1    1    2    0  502 -0.20302115270E+03  0.25171719849E+03  0.64952592482E+03  0.82853066538E+03  0.40000000000E+03 0.  1.
<mgrwt>
<rscale>  2 0.51456181E+03</rscale>
<asrwt>0</asrwt>
<pdfrwt beam="1">  1       21 0.29618338E+00 0.51462490E+03</pdfrwt>
<pdfrwt beam="2">  1       21 0.22357034E-01 0.51462490E+03</pdfrwt>
<totfact> 0.51947128E+02</totfact>
</mgrwt>
</event>
<event>
 6    1  0.9598567E-004  0.4658100E+03  0.7818608E-02  0.1023127E+00
         21   -1    0    0  503  502  0.00000000000E+00  0.00000000000E+00  0.13232871460E+03  0.13232871460E+03  0.00000000000E+00 0. -1.
         21   -1    0    0  501  503 -0.00000000000E+00 -0.00000000000E+00 -0.18828880689E+04  0.18828880689E+04  0.00000000000E+00 0. -1.
    9000007    2    1    2  501    0 -0.16033269524E+03  0.17619088340E+03 -0.12382459296E+04  0.13229633287E+04  0.40028638049E+03 0.  0.
    9000005    1    3    3    0    0 -0.24082405712E+03 -0.25408895926E+02 -0.76256697878E+03  0.80009451667E+03  0.99999687468E+00 0.  0.
          4    1    3    3  501    0  0.80491361889E+02  0.20159977933E+03 -0.47567895082E+03  0.52286881205E+03  0.00000000000E+00 0.  1.
   -9000007    1    1    2    0  502  0.16033269524E+03 -0.17619088340E+03 -0.51231342474E+03  0.69225345483E+03  0.40000000000E+03 0. -1.
<mgrwt>
<rscale>  2 0.46574850E+03</rscale>
<asrwt>0</asrwt>
<pdfrwt beam="1">  1       21 0.20358264E-01 0.46581003E+03</pdfrwt>
<pdfrwt beam="2">  1       21 0.28967509E+00 0.46581003E+03</pdfrwt>
<totfact> 0.69766270E+02</totfact>
</mgrwt>
</event>
<event>
 6    1  0.9598567E-004  0.4412259E+03  0.7818608E-02  0.1030386E+00
         21   -1    0    0  503  502  0.00000000000E+00  0.00000000000E+00  0.15755629330E+03  0.15755629330E+03  0.00000000000E+00 0. -1.
         21   -1    0    0  501  503 -0.00000000000E+00 -0.00000000000E+00 -0.12514583409E+04  0.12514583409E+04  0.00000000000E+00 0.  1.
    9000007    2    1    2  501    0  0.33694156686E+02 -0.18270041478E+03 -0.62761650581E+03  0.76719149326E+03  0.40020691049E+03 0.  0.
    9000005    1    3    3    0    0  0.17057173057E+03  0.38353007365E+02 -0.19027692762E+03  0.25840274306E+03  0.99999687468E+00 0.  0.
          4    1    3    3  501    0 -0.13687757388E+03 -0.22105342215E+03 -0.43733957819E+03  0.50878875020E+03  0.00000000000E+00 0.  1.
   -9000007    1    1    2    0  502 -0.33694156686E+02  0.18270041478E+03 -0.46628554174E+03  0.64182314090E+03  0.40000000000E+03 0.  1.
<mgrwt>
<rscale>  2 0.44117899E+03</rscale>
<asrwt>0</asrwt>
<pdfrwt beam="1">  1       21 0.24239430E-01 0.44122592E+03</pdfrwt>
<pdfrwt beam="2">  1       21 0.19253205E+00 0.44122592E+03</pdfrwt>
<totfact> 0.20519661E+03</totfact>
</mgrwt>
</event>
<event>
 6    1  0.9598567E-004  0.4087036E+03  0.7818608E-02  0.1040841E+00
         21   -1    0    0  503  502  0.00000000000E+00  0.00000000000E+00  0.23368807599E+03  0.23368807599E+03  0.00000000000E+00 0.  1.
         21   -1    0    0  501  503 -0.00000000000E+00 -0.00000000000E+00 -0.79871036302E+03  0.79871036302E+03  0.00000000000E+00 0.  1.
    9000007    2    1    2  501    0 -0.42936984696E+02 -0.72076613735E+02 -0.45040594230E+03  0.60792755735E+03  0.39958951341E+03 0.  0.
    9000005    1    3    3    0    0  0.61513999739E+02 -0.67235406462E+02  0.44977194918E+02  0.10162932698E+03  0.99999687468E+00 0.  0.
          4    1    3    3  501    0 -0.10445098443E+03 -0.48412072733E+01 -0.49538313722E+03  0.50629823037E+03  0.00000000000E+00 0.  1.
   -9000007    1    1    2    0  502  0.42936984696E+02  0.72076613735E+02 -0.11461634473E+03  0.42447088166E+03  0.40000000000E+03 0.  1.
<mgrwt>
<rscale>  2 0.40860312E+03</rscale>
<asrwt>0</asrwt>
<pdfrwt beam="1">  1       21 0.35952012E-01 0.40870359E+03</pdfrwt>
<pdfrwt beam="2">  1       21 0.12287852E+00 0.40870359E+03</pdfrwt>
<totfact> 0.32757266E+03</totfact>
</mgrwt>
</event>
<event>
 6    1  0.9598567E-004  0.4735602E+03  0.7818608E-02  0.1021008E+00
         21   -1    0    0  503  502  0.00000000000E+00  0.00000000000E+00  0.14120490962E+03  0.14120490962E+03  0.00000000000E+00 0.  1.
         21   -1    0    0  501  503 -0.00000000000E+00 -0.00000000000E+00 -0.18040459322E+04  0.18040459322E+04  0.00000000000E+00 0. -1.
    9000007    2    1    2  501    0 -0.12976776810E+03 -0.21776037893E+03 -0.11701619819E+04  0.12618827907E+04  0.39850954458E+03 0.  0.
    9000005    1    3    3    0    0 -0.10926304722E+03 -0.28979340946E+03 -0.11396976441E+04  0.11810293619E+04  0.99999687468E+00 0.  0.
          4    1    3    3  501    0 -0.20504720873E+02  0.72033030535E+02 -0.30464337841E+02  0.80853428785E+02  0.00000000000E+00 0.  1.
   -9000007    1    1    2    0  502  0.12976776810E+03  0.21776037893E+03 -0.49267904063E+03  0.68336805116E+03  0.40000000000E+03 0.  1.
<mgrwt>
<rscale>  2 0.47324531E+03</rscale>
<asrwt>0</asrwt>
<pdfrwt beam="1">  1       21 0.21723833E-01 0.47356019E+03</pdfrwt>
<pdfrwt beam="2">  1       21 0.27754551E+00 0.47356019E+03</pdfrwt>
<totfact> 0.72628703E+02</totfact>
</mgrwt>
</event>
<event>
 6    1  0.9598567E-004  0.4029618E+03  0.7818608E-02  0.1042800E+00
         21   -1    0    0  503  502  0.00000000000E+00  0.00000000000E+00  0.18549087567E+04  0.18549087567E+04  0.00000000000E+00 0. -1.
         21   -1    0    0  501  503 -0.00000000000E+00 -0.00000000000E+00 -0.93685150145E+02  0.93685150145E+02  0.00000000000E+00 0. -1.
    9000007    2    1    2  501    0  0.26625408329E+01 -0.48693771537E+02  0.11317523779E+04  0.12011902674E+04  0.39952026378E+03 0.  0.
    9000005    1    3    3    0    0 -0.12373166598E+03 -0.85019849918E+02  0.10127906850E+04  0.10238573493E+04  0.99999687468E+00 0.  0.
          4    1    3    3  501    0  0.12639420681E+03  0.36326078381E+02  0.11896169293E+03  0.17733291818E+03  0.00000000000E+00 0.  1.
   -9000007    1    1    2    0  502 -0.26625408329E+01  0.48693771537E+02  0.62947122866E+03  0.74740363942E+03  0.40000000000E+03 0. -1.
<mgrwt>
<rscale>  2 0.40284265E+03</rscale>
<asrwt>0</asrwt>
<pdfrwt beam="1">  1       21 0.28537055E+00 0.40296175E+03</pdfrwt>
<pdfrwt beam="2">  1       21 0.14413101E-01 0.40296175E+03</pdfrwt>
<totfact> 0.14645398E+03</totfact>
</mgrwt>
</event>
<event>
 6    1  0.9598567E-004  0.5196766E+03  0.7818608E-02  0.1008772E+00
         21   -1    0    0  503  502  0.00000000000E+00  0.00000000000E+00  0.13664148448E+04  0.13664148448E+04  0.00000000000E+00 0.  1.
         21   -1    0    0  501  503 -0.00000000000E+00 -0.00000000000E+00 -0.20044289525E+03  0.20044289525E+03  0.00000000000E+00 0.  1.
    9000007    2    1    2  501    0  0.30503537736E+02  0.33022473484E+03  0.48994350799E+03  0.71421872200E+03  0.40010611158E+03 0.  0.
    9000005    1    3    3    0    0 -0.29417753656E+02 -0.69136236037E+02  0.20947865542E+03  0.22254781606E+03  0.99999687468E+00 0.  0.
          4    1    3    3  501    0  0.59921291392E+02  0.39936097087E+03  0.28046485257E+03  0.49167090594E+03  0.00000000000E+00 0.  1.
   -9000007    1    1    2    0  502 -0.30503537736E+02 -0.33022473484E+03  0.67602844160E+03  0.85263901809E+03  0.40000000000E+03 0.  1.
<mgrwt>
<rscale>  2 0.51965615E+03</rscale>
<asrwt>0</asrwt>
<pdfrwt beam="1">  1       21 0.21021766E+00 0.51967657E+03</pdfrwt>
<pdfrwt beam="2">  1       21 0.30837369E-01 0.51967657E+03</pdfrwt>
<totfact> 0.94247705E+02</totfact>
</mgrwt>
</event>
<event>
 6    1  0.9598567E-004  0.7221586E+03  0.7818608E-02  0.9680115E-01
         21   -1    0    0  503  502  0.00000000000E+00  0.00000000000E+00  0.17192195030E+04  0.17192195030E+04  0.00000000000E+00 0.  1.
         21   -1    0    0  501  503 -0.00000000000E+00 -0.00000000000E+00 -0.30423286412E+03  0.30423286412E+03  0.00000000000E+00 0.  1.
    9000007    2    1    2  501    0 -0.35419687464E+03  0.48585766017E+03  0.65133696139E+03  0.97241767603E+03  0.39980396125E+03 0.  0.
    9000005    1    3    3    0    0  0.20667053436E+02  0.30521851146E+03  0.27298668144E+03  0.41000999387E+03  0.99999687468E+00 0.  0.
          4    1    3    3  501    0 -0.37486392807E+03  0.18063914871E+03  0.37835027995E+03  0.56240768216E+03  0.00000000000E+00 0.  1.
   -9000007    1    1    2    0  502  0.35419687464E+03 -0.48585766017E+03  0.76364967747E+03  0.10510346911E+04  0.40000000000E+03 0.  1.
<mgrwt>
<rscale>  2 0.72213149E+03</rscale>
<asrwt>0</asrwt>
<pdfrwt beam="1">  1       21 0.26449530E+00 0.72215863E+03</pdfrwt>
<pdfrwt beam="2">  1       21 0.46805057E-01 0.72215863E+03</pdfrwt>
<totfact> 0.16744810E+02</totfact>
</mgrwt>
</event>
<event>
 6    1  0.9598567E-004  0.5689768E+03  0.7818608E-02  0.9972196E-01
         21   -1    0    0  503  502  0.00000000000E+00  0.00000000000E+00  0.11330197637E+04  0.11330197637E+04  0.00000000000E+00 0. -1.
         21   -1    0    0  501  503 -0.00000000000E+00 -0.00000000000E+00 -0.28631652509E+03  0.28631652509E+03  0.00000000000E+00 0.  1.
    9000007    2    1    2  501    0  0.32741500055E+03 -0.23776874857E+03  0.38528515619E+03  0.68677829983E+03  0.39935600803E+03 0.  0.
    9000005    1    3    3    0    0  0.41043024185E+03 -0.17848417952E+03  0.23600727227E+03  0.50597432575E+03  0.99999687468E+00 0.  0.
          4    1    3    3  501    0 -0.83015241296E+02 -0.59284569052E+02  0.14927788392E+03  0.18080397408E+03  0.00000000000E+00 0.  1.
   -9000007    1    1    2    0  502 -0.32741500055E+03  0.23776874857E+03  0.46141808239E+03  0.73255798893E+03  0.40000000000E+03 0.  1.
<mgrwt>
<rscale>  2 0.56886359E+03</rscale>
<asrwt>0</asrwt>
<pdfrwt beam="1">  1       21 0.17431073E+00 0.56897677E+03</pdfrwt>
<pdfrwt beam="2">  1       21 0.44048697E-01 0.56897677E+03</pdfrwt>
<totfact> 0.78691610E+02</totfact>
</mgrwt>
</event>
<event>
 6    1  0.9598567E-004  0.5061528E+03  0.7818608E-02  0.1012220E+00
         21   -1    0    0  503  502  0.00000000000E+00  0.00000000000E+00  0.78771401373E+03  0.78771401373E+03  0.00000000000E+00 0.  1.
         21   -1    0    0  501  503 -0.00000000000E+00 -0.00000000000E+00 -0.42891815680E+03  0.42891815680E+03  0.00000000000E+00 0.  1.
    9000007    2    1    2  501    0  0.26371627154E+03 -0.16153181060E+03 -0.12012251402E+03  0.52021160526E+03  0.40068927882E+03 0.  0.
    9000005    1    3    3    0    0 -0.47244625862E+02 -0.93704353327E+02 -0.16827434040E+03  0.19831745797E+03  0.99999687468E+00 0.  0.
          4    1    3    3  501    0  0.31096089740E+03 -0.67827457271E+02  0.48151826382E+02  0.32189414728E+03  0.00000000000E+00 0.  1.
   -9000007    1    1    2    0  502 -0.26371627154E+03  0.16153181060E+03  0.47891837095E+03  0.69642056528E+03  0.40000000000E+03 0.  1.
<mgrwt>
<rscale>  2 0.50601641E+03</rscale>
<asrwt>0</asrwt>
<pdfrwt beam="1">  1       21 0.12118677E+00 0.50615284E+03</pdfrwt>
<pdfrwt beam="2">  1       21 0.65987409E-01 0.50615284E+03</pdfrwt>
<totfact> 0.90041671E+02</totfact>
</mgrwt>
</event>
<event>
 6    1  0.9598567E-004  0.4331276E+03  0.7818608E-02  0.1032898E+00
         21   -1    0    0  503  502  0.00000000000E+00  0.00000000000E+00  0.10079493938E+04  0.10079493938E+04  0.00000000000E+00 0.  1.
         21   -1    0    0  501  503 -0.00000000000E+00 -0.00000000000E+00 -0.36989125771E+03  0.36989125771E+03  0.00000000000E+00 0.  1.
    9000007    2    1    2  501    0 -0.13160189706E+03 -0.10024085348E+03 -0.16666461511E+03  0.46408685846E+03  0.40029018255E+03 0.  0.
    9000005    1    3    3    0    0 -0.17233066456E+03 -0.20712806523E+03 -0.21015865603E+03  0.34171267763E+03  0.99999687468E+00 0.  0.
          4    1    3    3  501    0  0.40728767504E+02  0.10688721175E+03  0.43494040921E+02  0.12237418083E+03  0.00000000000E+00 0.  1.
   -9000007    1    1    2    0  502  0.13160189706E+03  0.10024085348E+03  0.80472275120E+03  0.91375379305E+03  0.40000000000E+03 0.  1.
<mgrwt>
<rscale>  2 0.43306054E+03</rscale>
<asrwt>0</asrwt>
<pdfrwt beam="1">  1       21 0.15506914E+00 0.43312760E+03</pdfrwt>
<pdfrwt beam="2">  1       21 0.56906348E-01 0.43312760E+03</pdfrwt>
<totfact> 0.67004213E+02</totfact>
</mgrwt>
</event>
<event>
 6    1  0.9598567E-004  0.4251111E+03  0.7818608E-02  0.1035481E+00
         21   -1    0    0  503  502  0.00000000000E+00  0.00000000000E+00  0.14149125299E+03  0.14149125299E+03  0.00000000000E+00 0.  1.
         21   -1    0    0  501  503 -0.00000000000E+00 -0.00000000000E+00 -0.14231704870E+04  0.14231704870E+04  0.00000000000E+00 0.  1.
    9000007    2    1    2  501    0 -0.13537359317E+02  0.14330452746E+03 -0.38770342868E+03  0.57475659899E+03  0.39913876257E+03 0.  0.
    9000005    1    3    3    0    0  0.10551793288E+03 -0.84807316679E+02 -0.24654763829E+03  0.28127042692E+03  0.99999687468E+00 0.  0.
          4    1    3    3  501    0 -0.11905529220E+03  0.22811184414E+03 -0.14115579040E+03  0.29348617207E+03  0.00000000000E+00 0.  1.
   -9000007    1    1    2    0  502  0.13537359317E+02 -0.14330452746E+03 -0.89397580535E+03  0.98990514103E+03  0.40000000000E+03 0.  1.
<mgrwt>
<rscale>  2 0.42490839E+03</rscale>
<asrwt>0</asrwt>
<pdfrwt beam="1">  1       21 0.21767886E-01 0.42511110E+03</pdfrwt>
<pdfrwt beam="2">  1       21 0.21894929E+00 0.42511110E+03</pdfrwt>
<totfact> 0.17043711E+03</totfact>
</mgrwt>
</event>
<event>
 6    1  0.9598567E-004  0.5805619E+03  0.7818608E-02  0.9946675E-01
         21   -1    0    0  503  502  0.00000000000E+00  0.00000000000E+00  0.11265766233E+04  0.11265766233E+04  0.00000000000E+00 0. -1.
         21   -1    0    0  501  503 -0.00000000000E+00 -0.00000000000E+00 -0.35688431995E+03  0.35688431995E+03  0.00000000000E+00 0. -1.
    9000007    2    1    2  501    0 -0.30755874372E+03  0.28678307465E+03  0.86403467544E+02  0.58695631645E+03  0.40026896642E+03 0.  0.
    9000005    1    3    3    0    0  0.60135531826E+02  0.17771494153E+03  0.78413685822E+02  0.20334352399E+03  0.99999687468E+00 0.  0.
          4    1    3    3  501    0 -0.36769427555E+03  0.10906813312E+03  0.79897817220E+01  0.38361279247E+03  0.00000000000E+00 0.  1.
   -9000007    1    1    2    0  502  0.30755874372E+03 -0.28678307465E+03  0.68328883581E+03  0.89650462681E+03  0.40000000000E+03 0. -1.
<mgrwt>
<rscale>  2 0.58051558E+03</rscale>
<asrwt>0</asrwt>
<pdfrwt beam="1">  1       21 0.17331948E+00 0.58056193E+03</pdfrwt>
<pdfrwt beam="2">  1       21 0.54905281E-01 0.58056193E+03</pdfrwt>
<totfact> 0.49793523E+02</totfact>
</mgrwt>
</event>
<event>
 6    1  0.9598567E-004  0.4810298E+03  0.7818608E-02  0.1018883E+00
         21   -1    0    0  503  502  0.00000000000E+00  0.00000000000E+00  0.70550902285E+03  0.70550902285E+03  0.00000000000E+00 0. -1.
         21   -1    0    0  501  503 -0.00000000000E+00 -0.00000000000E+00 -0.60310784550E+03  0.60310784550E+03  0.00000000000E+00 0.  1.
    9000007    2    1    2  501    0  0.21104981885E+03  0.16255130663E+03 -0.39096077752E+03  0.61987092692E+03  0.40053050215E+03 0.  0.
    9000005    1    3    3    0    0 -0.48161810034E+02  0.20854817600E+03 -0.21394891761E+03  0.30263350938E+03  0.99999687468E+00 0.  0.
          4    1    3    3  501    0  0.25921162888E+03 -0.45996869366E+02 -0.17701185992E+03  0.31723741754E+03  0.00000000000E+00 0.  1.
   -9000007    1    1    2    0  502 -0.21104981885E+03 -0.16255130663E+03  0.49336195488E+03  0.68874594143E+03  0.40000000000E+03 0. -1.
<mgrwt>
<rscale>  2 0.48091932E+03</rscale>
<asrwt>0</asrwt>
<pdfrwt beam="1">  1       21 0.10853985E+00 0.48102977E+03</pdfrwt>
<pdfrwt beam="2">  1       21 0.92785822E-01 0.48102977E+03</pdfrwt>
<totfact> 0.54632542E+02</totfact>
</mgrwt>
</event>
<event>
 6    1  0.9598567E-004  0.4276191E+03  0.7818608E-02  0.1034658E+00
         21   -1    0    0  503  502  0.00000000000E+00  0.00000000000E+00  0.30293627624E+03  0.30293627624E+03  0.00000000000E+00 0.  1.
         21   -1    0    0  501  503 -0.00000000000E+00 -0.00000000000E+00 -0.60330269893E+03  0.60330269893E+03  0.00000000000E+00 0.  1.
    9000007    2    1    2  501    0 -0.14063830560E+03 -0.55488022866E+02 -0.13776892475E+03  0.44875017747E+03  0.39942257255E+03 0.  0.
    9000005    1    3    3    0    0  0.91369191612E+02 -0.10640430656E+03  0.46892114045E+02  0.14788534742E+03  0.99999687468E+00 0.  0.
          4    1    3    3  501    0 -0.23200749721E+03  0.50916283689E+02 -0.18466103880E+03  0.30086483004E+03  0.00000000000E+00 0.  1.
   -9000007    1    1    2    0  502  0.14063830560E+03  0.55488022866E+02 -0.16259749794E+03  0.45748879770E+03  0.40000000000E+03 0.  1.
<mgrwt>
<rscale>  2 0.42748397E+03</rscale>
<asrwt>0</asrwt>
<pdfrwt beam="1">  1       21 0.46605581E-01 0.42761905E+03</pdfrwt>
<pdfrwt beam="2">  1       21 0.92815799E-01 0.42761905E+03</pdfrwt>
<totfact> 0.37984436E+03</totfact>
</mgrwt>
</event>
<event>
 6    1  0.9598567E-004  0.4021996E+03  0.7818608E-02  0.1043042E+00
         21   -1    0    0  503  502  0.00000000000E+00  0.00000000000E+00  0.19536128407E+03  0.19536128407E+03  0.00000000000E+00 0.  1.
         21   -1    0    0  501  503 -0.00000000000E+00 -0.00000000000E+00 -0.11971415796E+04  0.11971415796E+04  0.00000000000E+00 0.  1.
    9000007    2    1    2  501    0  0.22242071548E+02 -0.32784992772E+02 -0.88786628948E+03  0.97471587699E+03  0.40024358503E+03 0.  0.
    9000005    1    3    3    0    0  0.16854693400E+03  0.10716034011E+03 -0.44424103606E+03  0.48707546188E+03  0.99999687468E+00 0.  0.
          4    1    3    3  501    0 -0.14630486245E+03 -0.13994533288E+03 -0.44362525342E+03  0.48764041511E+03  0.00000000000E+00 0.  1.
   -9000007    1    1    2    0  502 -0.22242071548E+02  0.32784992772E+02 -0.11391400609E+03  0.41778698673E+03  0.40000000000E+03 0.  1.
<mgrwt>
<rscale>  2 0.40213895E+03</rscale>
<asrwt>0</asrwt>
<pdfrwt beam="1">  1       21 0.30055582E-01 0.40219957E+03</pdfrwt>
<pdfrwt beam="2">  1       21 0.18417563E+00 0.40219957E+03</pdfrwt>
<totfact> 0.15632848E+03</totfact>
</mgrwt>
</event>
<event>
 6    1  0.9598567E-004  0.4106980E+03  0.7818608E-02  0.1040154E+00
         21   -1    0    0  503  502  0.00000000000E+00  0.00000000000E+00  0.12549441975E+04  0.12549441975E+04  0.00000000000E+00 0.  1.
         21   -1    0    0  501  503 -0.00000000000E+00 -0.00000000000E+00 -0.13965571018E+03  0.13965571018E+03  0.00000000000E+00 0.  1.
    9000007    2    1    2  501    0 -0.76542053178E+02  0.53048966270E+02  0.42144687249E+03  0.58831889884E+03  0.39978591981E+03 0.  0.
    9000005    1    3    3    0    0 -0.16144580129E+03  0.17890141051E+03  0.17112666564E+03  0.29556014129E+03  0.99999687468E+00 0.  0.
          4    1    3    3  501    0  0.84903748116E+02 -0.12585244424E+03  0.25032020685E+03  0.29275875755E+03  0.00000000000E+00 0.  1.
   -9000007    1    1    2    0  502  0.76542053178E+02 -0.53048966270E+02  0.69384161480E+03  0.80628100880E+03  0.40000000000E+03 0. -1.
<mgrwt>
<rscale>  2 0.41064590E+03</rscale>
<asrwt>0</asrwt>
<pdfrwt beam="1">  1       21 0.19306833E+00 0.41069804E+03</pdfrwt>
<pdfrwt beam="2">  1       21 0.21485495E-01 0.41069804E+03</pdfrwt>
<totfact> 0.26012846E+03</totfact>
</mgrwt>
</event>
<event>
 6    1  0.9598567E-004  0.6632997E+03  0.7818608E-02  0.9782253E-01
         21   -1    0    0  503  502  0.00000000000E+00  0.00000000000E+00  0.13388518691E+04  0.13388518691E+04  0.00000000000E+00 0.  1.
         21   -1    0    0  501  503 -0.00000000000E+00 -0.00000000000E+00 -0.45175920640E+03  0.45175920640E+03  0.00000000000E+00 0. -1.
    9000007    2    1    2  501    0  0.36469811839E+03  0.38335598795E+03 -0.24189004141E+02  0.66349049306E+03  0.39958477874E+03 0.  0.
    9000005    1    3    3    0    0  0.36102208066E+03  0.29359472303E+03 -0.16732045367E+03  0.49450170710E+03  0.99999687468E+00 0.  0.
          4    1    3    3  501    0  0.36760377251E+01  0.89761264924E+02  0.14313144953E+03  0.16898878596E+03  0.00000000000E+00 0.  1.
   -9000007    1    1    2    0  502 -0.36469811839E+03 -0.38335598795E+03  0.91128166686E+03  0.11271205825E+04  0.40000000000E+03 0. -1.
<mgrwt>
<rscale>  2 0.66323714E+03</rscale>
<asrwt>0</asrwt>
<pdfrwt beam="1">  1       21 0.20597721E+00 0.66329973E+03</pdfrwt>
<pdfrwt beam="2">  1       21 0.69501417E-01 0.66329973E+03</pdfrwt>
<totfact> 0.16988476E+02</totfact>
</mgrwt>
</event>
<event>
 6    1  0.9598567E-004  0.4477587E+03  0.7818608E-02  0.1028399E+00
         21   -1    0    0  503  502  0.00000000000E+00  0.00000000000E+00  0.59974948816E+03  0.59974948816E+03  0.00000000000E+00 0.  1.
         21   -1    0    0  501  503 -0.00000000000E+00 -0.00000000000E+00 -0.50418304038E+03  0.50418304038E+03  0.00000000000E+00 0. -1.
    9000007    2    1    2  501    0  0.10849097884E+03 -0.16922403391E+03 -0.27269095551E+03  0.52425970597E+03  0.40010100717E+03 0.  0.
    9000005    1    3    3    0    0 -0.12855664191E+03 -0.10717026134E+03 -0.21510305034E+03  0.27254833948E+03  0.99999687468E+00 0.  0.
          4    1    3    3  501    0  0.23704762075E+03 -0.62053772572E+02 -0.57587905176E+02  0.25171136649E+03  0.00000000000E+00 0.  1.
   -9000007    1    1    2    0  502 -0.10849097884E+03  0.16922403391E+03  0.36825740329E+03  0.57967282257E+03  0.40000000000E+03 0.  1.
<mgrwt>
<rscale>  2 0.44773617E+03</rscale>
<asrwt>0</asrwt>
<pdfrwt beam="1">  1       21 0.92269152E-01 0.44775873E+03</pdfrwt>
<pdfrwt beam="2">  1       21 0.77566621E-01 0.44775873E+03</pdfrwt>
<totfact> 0.12505653E+03</totfact>
</mgrwt>
</event>
<event>
 6    1  0.9598567E-004  0.4560408E+03  0.7818608E-02  0.1025967E+00
         21   -1    0    0  503  502  0.00000000000E+00  0.00000000000E+00  0.67049613844E+03  0.67049613844E+03  0.00000000000E+00 0.  1.
         21   -1    0    0  501  503 -0.00000000000E+00 -0.00000000000E+00 -0.59004901959E+03  0.59004901959E+03  0.00000000000E+00 0. -1.
    9000007    2    1    2  501    0 -0.17724198244E+03 -0.12717149809E+03 -0.39406325157E+03  0.60270976684E+03  0.40048209266E+03 0.  0.
    9000005    1    3    3    0    0 -0.10267067756E+03 -0.18099101880E+03 -0.44950031138E+03  0.49532872604E+03  0.99999687468E+00 0.  0.
          4    1    3    3  501    0 -0.74571304881E+02  0.53819520716E+02  0.55437059810E+02  0.10738104079E+03  0.00000000000E+00 0.  1.
   -9000007    1    1    2    0  502  0.17724198244E+03  0.12717149809E+03  0.47451037042E+03  0.65783539119E+03  0.40000000000E+03 0.  1.
<mgrwt>
<rscale>  2 0.45593494E+03</rscale>
<asrwt>0</asrwt>
<pdfrwt beam="1">  1       21 0.10315325E+00 0.45604081E+03</pdfrwt>
<pdfrwt beam="2">  1       21 0.90776772E-01 0.45604081E+03</pdfrwt>
<totfact> 0.65955626E+02</totfact>
</mgrwt>
</event>
<event>
 6    1  0.9598567E-004  0.4011553E+03  0.7818608E-02  0.1043388E+00
         21   -1    0    0  503  502  0.00000000000E+00  0.00000000000E+00  0.38783654743E+03  0.38783654743E+03  0.00000000000E+00 0. -1.
         21   -1    0    0  501  503 -0.00000000000E+00 -0.00000000000E+00 -0.67504039199E+03  0.67504039199E+03  0.00000000000E+00 0. -1.
    9000007    2    1    2  501    0 -0.15111117534E+02  0.25116676069E+02  0.18633066151E+03  0.44231741631E+03  0.40008297647E+03 0.  0.
    9000005    1    3    3    0    0  0.94077806346E+02  0.23379334103E+02  0.28133692925E+03  0.29757132702E+03  0.99999687468E+00 0.  0.
          4    1    3    3  501    0 -0.10918892388E+03  0.17373419659E+01 -0.95006267742E+02  0.14474608929E+03  0.00000000000E+00 0.  1.
   -9000007    1    1    2    0  502  0.15111117534E+02 -0.25116676069E+02 -0.47353450606E+03  0.62055952311E+03  0.40000000000E+03 0. -1.
<mgrwt>
<rscale>  2 0.40113462E+03</rscale>
<asrwt>0</asrwt>
<pdfrwt beam="1">  1       21 0.59667162E-01 0.40115531E+03</pdfrwt>
<pdfrwt beam="2">  1       21 0.10385237E+00 0.40115531E+03</pdfrwt>
<totfact> 0.17243883E+03</totfact>
</mgrwt>
</event>
<event>
 6    1  0.9598567E-004  0.4274484E+03  0.7818608E-02  0.1034973E+00
         21   -1    0    0  503  502  0.00000000000E+00  0.00000000000E+00  0.41559769743E+03  0.41559769743E+03  0.00000000000E+00 0.  1.
         21   -1    0    0  501  503 -0.00000000000E+00 -0.00000000000E+00 -0.11665905087E+04  0.11665905087E+04  0.00000000000E+00 0.  1.
    9000007    2    1    2  501    0 -0.12508213370E+03  0.84063224689E+02 -0.10010260815E+04  0.10869823881E+04  0.39593601793E+03 0.  0.
    9000005    1    3    3    0    0 -0.21929919173E+02  0.16045558080E+03 -0.13313147935E+03  0.20964709765E+03  0.99999687468E+00 0.  0.
          4    1    3    3  501    0 -0.10315221453E+03 -0.76392356115E+02 -0.86789460217E+03  0.87733529047E+03  0.00000000000E+00 0.  1.
   -9000007    1    1    2    0  502  0.12508213370E+03 -0.84063224689E+02  0.25003327027E+03  0.49520581798E+03  0.40000000000E+03 0.  1.
<mgrwt>
<rscale>  2 0.42649510E+03</rscale>
<asrwt>0</asrwt>
<pdfrwt beam="1">  1       21 0.63938107E-01 0.42744844E+03</pdfrwt>
<pdfrwt beam="2">  1       21 0.17947546E+00 0.42744844E+03</pdfrwt>
<totfact> 0.34432563E+02</totfact>
</mgrwt>
</event>
<event>
 6    1  0.9598567E-004  0.5130177E+03  0.7818608E-02  0.1010528E+00
         21   -1    0    0  503  502  0.00000000000E+00  0.00000000000E+00  0.29205343088E+03  0.29205343088E+03  0.00000000000E+00 0. -1.
         21   -1    0    0  501  503 -0.00000000000E+00 -0.00000000000E+00 -0.10427713140E+04  0.10427713140E+04  0.00000000000E+00 0.  1.
    9000007    2    1    2  501    0  0.19282765729E+03 -0.25398998001E+03 -0.62398160386E+03  0.80779960331E+03  0.40186283953E+03 0.  0.
    9000005    1    3    3    0    0  0.45150612755E+02  0.18862461216E+01  0.52704680092E+02  0.69432838440E+02  0.99999687468E+00 0.  0.
          4    1    3    3  501    0  0.14767704453E+03 -0.25587622614E+03 -0.67668628395E+03  0.73836676487E+03  0.00000000000E+00 0.  1.
   -9000007    1    1    2    0  502 -0.19282765729E+03  0.25398998001E+03 -0.12673627927E+03  0.52702514157E+03  0.40000000000E+03 0. -1.
<mgrwt>
<rscale>  2 0.51265283E+03</rscale>
<asrwt>0</asrwt>
<pdfrwt beam="1">  1       21 0.44931297E-01 0.51301770E+03</pdfrwt>
<pdfrwt beam="2">  1       21 0.16042635E+00 0.51301770E+03</pdfrwt>
<totfact> 0.97592394E+02</totfact>
</mgrwt>
</event>
<event>
 6    1  0.9598567E-004  0.4623454E+03  0.7818608E-02  0.1024104E+00
         21   -1    0    0  503  502  0.00000000000E+00  0.00000000000E+00  0.17692974878E+04  0.17692974878E+04  0.00000000000E+00 0. -1.
         21   -1    0    0  501  503 -0.00000000000E+00 -0.00000000000E+00 -0.16007527364E+03  0.16007527364E+03  0.00000000000E+00 0. -1.
    9000007    2    1    2  501    0  0.23108806776E+03  0.19015295994E+02  0.12823522236E+04  0.13631508374E+04  0.39998712922E+03 0.  0.
    9000005    1    3    3    0    0  0.29993887740E+03 -0.90561391207E+02  0.70521600599E+03  0.77168342658E+03  0.99999687468E+00 0.  0.
          4    1    3    3  501    0 -0.68850809647E+02  0.10957668720E+03  0.57713621760E+03  0.59146741079E+03  0.00000000000E+00 0.  1.
   -9000007    1    1    2    0  502 -0.23108806776E+03 -0.19015295994E+02  0.32686999054E+03  0.56622192403E+03  0.40000000000E+03 0. -1.
<mgrwt>
<rscale>  2 0.46234262E+03</rscale>
<asrwt>0</asrwt>
<pdfrwt beam="1">  1       21 0.27219960E+00 0.46234541E+03</pdfrwt>
<pdfrwt beam="2">  1       21 0.24626967E-01 0.46234541E+03</pdfrwt>
<totfact> 0.61763606E+02</totfact>
</mgrwt>
</event>
<event>
 6    1  0.9598567E-004  0.4214841E+03  0.7818608E-02  0.1036634E+00
         21   -1    0    0  503  502  0.00000000000E+00  0.00000000000E+00  0.12935675138E+04  0.12935675138E+04  0.00000000000E+00 0. -1.
         21   -1    0    0  501  503 -0.00000000000E+00 -0.00000000000E+00 -0.14216633653E+03  0.14216633653E+03  0.00000000000E+00 0. -1.
    9000007    2    1    2  501    0  0.12076879656E+03  0.50436520383E+02  0.44101249539E+03  0.61003352687E+03  0.40064939537E+03 0.  0.
    9000005    1    3    3    0    0  0.13630552734E+03 -0.18297534153E+02  0.49972909214E+03  0.51830894461E+03  0.99999687468E+00 0.  0.
          4    1    3    3  501    0 -0.15536730777E+02  0.68734054537E+02 -0.58716596755E+02  0.91724582260E+02  0.00000000000E+00 0.  1.
   -9000007    1    1    2    0  502 -0.12076879656E+03 -0.50436520383E+02  0.71038868189E+03  0.82570032346E+03  0.40000000000E+03 0.  1.
<mgrwt>
<rscale>  2 0.42132975E+03</rscale>
<asrwt>0</asrwt>
<pdfrwt beam="1">  1       21 0.19901038E+00 0.42148414E+03</pdfrwt>
<pdfrwt beam="2">  1       21 0.21871745E-01 0.42148414E+03</pdfrwt>
<totfact> 0.22822033E+03</totfact>
</mgrwt>
</event>
<event>
 6    1  0.9598567E-004  0.4041560E+03  0.7818608E-02  0.1042383E+00
         21   -1    0    0  503  502  0.00000000000E+00  0.00000000000E+00  0.90142528406E+03  0.90142528406E+03  0.00000000000E+00 0. -1.
         21   -1    0    0  501  503 -0.00000000000E+00 -0.00000000000E+00 -0.34744670658E+03  0.34744670658E+03  0.00000000000E+00 0. -1.
    9000007    2    1    2  501    0  0.53377912018E+02  0.22201508426E+02 -0.15523957441E+03  0.43258007261E+03  0.39960491150E+03 0.  0.
    9000005    1    3    3    0    0  0.96485042883E+02 -0.17296443186E+03 -0.11392026628E+03  0.22848388401E+03  0.99999687468E+00 0.  0.
          4    1    3    3  501    0 -0.43107130865E+02  0.19516594029E+03 -0.41319308129E+02  0.20409618861E+03  0.00000000000E+00 0.  1.
   -9000007    1    1    2    0  502 -0.53377912018E+02 -0.22201508426E+02  0.70921815189E+03  0.81629191803E+03  0.40000000000E+03 0. -1.
<mgrwt>
<rscale>  2 0.40405825E+03</rscale>
<asrwt>0</asrwt>
<pdfrwt beam="1">  1       21 0.13868081E+00 0.40415604E+03</pdfrwt>
<pdfrwt beam="2">  1       21 0.53453340E-01 0.40415604E+03</pdfrwt>
<totfact> 0.10499946E+03</totfact>
</mgrwt>
</event>
<event>
 6    1  0.9598567E-004  0.4017111E+03  0.7818608E-02  0.1043226E+00
         21   -1    0    0  503  502  0.00000000000E+00  0.00000000000E+00  0.25018403133E+03  0.25018403133E+03  0.00000000000E+00 0. -1.
         21   -1    0    0  501  503 -0.00000000000E+00 -0.00000000000E+00 -0.65111188606E+03  0.65111188606E+03  0.00000000000E+00 0. -1.
    9000007    2    1    2  501    0  0.23767246995E+02  0.21413832667E+02 -0.15453122990E+03  0.43040874302E+03  0.40043520174E+03 0.  0.
    9000005    1    3    3    0    0 -0.99770680352E+01  0.19019646856E+03  0.12096620095E+02  0.19084435216E+03  0.99999687468E+00 0.  0.
          4    1    3    3  501    0  0.33744315030E+02 -0.16878263589E+03 -0.16662785000E+03  0.23956439086E+03  0.00000000000E+00 0.  1.
   -9000007    1    1    2    0  502 -0.23767246995E+02 -0.21413832667E+02 -0.24639662483E+03  0.47088717437E+03  0.40000000000E+03 0. -1.
<mgrwt>
<rscale>  2 0.40160257E+03</rscale>
<asrwt>0</asrwt>
<pdfrwt beam="1">  1       21 0.38489852E-01 0.40171107E+03</pdfrwt>
<pdfrwt beam="2">  1       21 0.10017106E+00 0.40171107E+03</pdfrwt>
<totfact> 0.47485323E+03</totfact>
</mgrwt>
</event>
<event>
 6    1  0.9598567E-004  0.6801121E+03  0.7818608E-02  0.9752056E-01
         21   -1    0    0  503  502  0.00000000000E+00  0.00000000000E+00  0.24223185986E+04  0.24223185986E+04  0.00000000000E+00 0. -1.
         21   -1    0    0  501  503 -0.00000000000E+00 -0.00000000000E+00 -0.21875792915E+03  0.21875792915E+03  0.00000000000E+00 0.  1.
    9000007    2    1    2  501    0 -0.25406695429E+03  0.48724253457E+03  0.63026742502E+03  0.92724837482E+03  0.40074582570E+03 0.  0.
    9000005    1    3    3    0    0 -0.35731273415E+03  0.36545150869E+03  0.54130458515E+03  0.74447219497E+03  0.99999687468E+00 0.  0.
          4    1    3    3  501    0  0.10324577986E+03  0.12179102588E+03  0.88962839863E+02  0.18277617985E+03  0.00000000000E+00 0.  1.
   -9000007    1    1    2    0  502  0.25406695429E+03 -0.48724253457E+03  0.15732932444E+04  0.17138281529E+04  0.40000000000E+03 0.  1.
<mgrwt>
<rscale>  2 0.68000231E+03</rscale>
<asrwt>0</asrwt>
<pdfrwt beam="1">  1       21 0.37266438E+00 0.68011214E+03</pdfrwt>
<pdfrwt beam="2">  1       21 0.33655068E-01 0.68011214E+03</pdfrwt>
<totfact> 0.72349504E+01</totfact>
</mgrwt>
</event>
<event>
 6    1  0.9598567E-004  0.4285969E+03  0.7818608E-02  0.1034362E+00
         21   -1    0    0  503  502  0.00000000000E+00  0.00000000000E+00  0.72285824193E+03  0.72285824193E+03  0.00000000000E+00 0. -1.
         21   -1    0    0  501  503 -0.00000000000E+00 -0.00000000000E+00 -0.29243327980E+03  0.29243327980E+03  0.00000000000E+00 0. -1.
    9000007    2    1    2  501    0 -0.61662474171E+02 -0.13882479749E+03  0.40013683066E+03  0.58634868635E+03  0.40077514096E+03 0.  0.
    9000005    1    3    3    0    0 -0.87208163200E+02  0.11184657725E+03  0.26465786201E+03  0.30026605617E+03  0.99999687468E+00 0.  0.
          4    1    3    3  501    0  0.25545689029E+02 -0.25067137474E+03  0.13547896866E+03  0.28608263018E+03  0.00000000000E+00 0.  1.
   -9000007    1    1    2    0  502  0.61662474171E+02  0.13882479749E+03  0.30288131474E+02  0.42894283538E+03  0.40000000000E+03 0. -1.
<mgrwt>
<rscale>  2 0.42841560E+03</rscale>
<asrwt>0</asrwt>
<pdfrwt beam="1">  1       21 0.11120896E+00 0.42859690E+03</pdfrwt>
<pdfrwt beam="2">  1       21 0.44989736E-01 0.42859690E+03</pdfrwt>
<totfact> 0.26325252E+03</totfact>
</mgrwt>
</event>
<event>
 6    1  0.9598567E-004  0.4551638E+03  0.7818608E-02  0.1026234E+00
         21   -1    0    0  503  502  0.00000000000E+00  0.00000000000E+00  0.55523907404E+03  0.55523907404E+03  0.00000000000E+00 0. -1.
         21   -1    0    0  501  503 -0.00000000000E+00 -0.00000000000E+00 -0.38892535576E+03  0.38892535576E+03  0.00000000000E+00 0. -1.
    9000007    2    1    2  501    0  0.21652600089E+03  0.17046327214E+02 -0.13390874135E+02  0.45480992961E+03  0.39937284613E+03 0.  0.
    9000005    1    3    3    0    0  0.28819287502E+03  0.55867629923E+00  0.11220579021E+03  0.30926782032E+03  0.99999687468E+00 0.  0.
          4    1    3    3  501    0 -0.71666874137E+02  0.16487650915E+02 -0.12559666435E+03  0.14554210929E+03  0.00000000000E+00 0.  1.
   -9000007    1    1    2    0  502 -0.21652600089E+03 -0.17046327214E+02  0.17970459241E+03  0.48935450020E+03  0.40000000000E+03 0. -1.
<mgrwt>
<rscale>  2 0.45502598E+03</rscale>
<asrwt>0</asrwt>
<pdfrwt beam="1">  1       21 0.85421396E-01 0.45516380E+03</pdfrwt>
<pdfrwt beam="2">  1       21 0.59834670E-01 0.45516380E+03</pdfrwt>
<totfact> 0.26772842E+03</totfact>
</mgrwt>
</event>
<event>
 6    1  0.9598567E-004  0.4482263E+03  0.7818608E-02  0.1028307E+00
         21   -1    0    0  503  502  0.00000000000E+00  0.00000000000E+00  0.27742278206E+03  0.27742278206E+03  0.00000000000E+00 0.  1.
         21   -1    0    0  501  503 -0.00000000000E+00 -0.00000000000E+00 -0.75046195652E+03  0.75046195652E+03  0.00000000000E+00 0.  1.
    9000007    2    1    2  501    0 -0.20202416676E+03  0.96453511092E+01 -0.13804484170E+03  0.46830632608E+03  0.39918371707E+03 0.  0.
    9000005    1    3    3    0    0 -0.86575732873E+02  0.67983688458E+02 -0.26506624349E+03  0.28701611950E+03  0.99999687468E+00 0.  0.
          4    1    3    3  501    0 -0.11544843389E+03 -0.58338337349E+02  0.12702140179E+03  0.18129020659E+03  0.00000000000E+00 0.  1.
   -9000007    1    1    2    0  502  0.20202416676E+03 -0.96453511092E+01 -0.33499433276E+03  0.55957841250E+03  0.40000000000E+03 0.  1.
<mgrwt>
<rscale>  2 0.44804409E+03</rscale>
<asrwt>0</asrwt>
<pdfrwt beam="1">  1       21 0.42680429E-01 0.44822628E+03</pdfrwt>
<pdfrwt beam="2">  1       21 0.11545568E+00 0.44822628E+03</pdfrwt>
<totfact> 0.26565886E+03</totfact>
</mgrwt>
</event>
<event>
 6    1  0.9598567E-004  0.4555635E+03  0.7818608E-02  0.1026086E+00
         21   -1    0    0  503  502  0.00000000000E+00  0.00000000000E+00  0.18823411573E+04  0.18823411573E+04  0.00000000000E+00 0.  1.
         21   -1    0    0  501  503 -0.00000000000E+00 -0.00000000000E+00 -0.49352442170E+03  0.49352442170E+03  0.00000000000E+00 0. -1.
    9000007    2    1    2  501    0 -0.21255507564E+03  0.47294050280E+02 -0.35247508669E+03  0.57600069580E+03  0.40015213039E+03 0.  0.
    9000005    1    3    3    0    0 -0.18907128698E+03 -0.12373972823E+03 -0.33277297420E+03  0.40224162422E+03  0.99999687468E+00 0.  0.
          4    1    3    3  501    0 -0.23483788662E+02  0.17103377851E+03 -0.19702112491E+02  0.17375907158E+03  0.00000000000E+00 0.  1.
   -9000007    1    1    2    0  502  0.21255507564E+03 -0.47294050280E+02  0.17412918223E+04  0.17998648832E+04  0.40000000000E+03 0.  1.
<mgrwt>
<rscale>  2 0.45553010E+03</rscale>
<asrwt>0</asrwt>
<pdfrwt beam="1">  1       21 0.28959094E+00 0.45556351E+03</pdfrwt>
<pdfrwt beam="2">  1       21 0.75926835E-01 0.45556351E+03</pdfrwt>
<totfact> 0.46089317E+01</totfact>
</mgrwt>
</event>
<event>
 6    1  0.9598567E-004  0.5053498E+03  0.7818608E-02  0.1012412E+00
         21   -1    0    0  503  502  0.00000000000E+00  0.00000000000E+00  0.21798432181E+03  0.21798432181E+03  0.00000000000E+00 0. -1.
         21   -1    0    0  501  503 -0.00000000000E+00 -0.00000000000E+00 -0.13502490404E+04  0.13502490404E+04  0.00000000000E+00 0. -1.
    9000007    2    1    2  501    0 -0.19037834040E+03  0.24251751332E+03 -0.28044114041E+03  0.57794953162E+03  0.40039951437E+03 0.  0.
    9000005    1    3    3    0    0 -0.11386933504E+03  0.33312387717E+03 -0.10720260315E+03  0.36800970248E+03  0.99999687468E+00 0.  0.
          4    1    3    3  501    0 -0.76509005354E+02 -0.90606363846E+02 -0.17323853726E+03  0.20993982914E+03  0.00000000000E+00 0.  1.
   -9000007    1    1    2    0  502  0.19037834040E+03 -0.24251751332E+03 -0.85182357815E+03  0.99028383055E+03  0.40000000000E+03 0. -1.
<mgrwt>
<rscale>  2 0.50527067E+03</rscale>
<asrwt>0</asrwt>
<pdfrwt beam="1">  1       21 0.33536049E-01 0.50534981E+03</pdfrwt>
<pdfrwt beam="2">  1       21 0.20773062E+00 0.50534981E+03</pdfrwt>
<totfact> 0.83161914E+02</totfact>
</mgrwt>
</event>
<event>
 6    1  0.9598567E-004  0.4490690E+03  0.7818608E-02  0.1028550E+00
         21   -1    0    0  503  502  0.00000000000E+00  0.00000000000E+00  0.46453509137E+03  0.46453509137E+03  0.00000000000E+00 0. -1.
         21   -1    0    0  501  503 -0.00000000000E+00 -0.00000000000E+00 -0.81608033802E+03  0.81608033802E+03  0.00000000000E+00 0. -1.
    9000007    2    1    2  501    0 -0.18563248209E+03 -0.26664004284E+02 -0.61858187209E+03  0.76439944082E+03  0.40803502928E+03 0.  0.
    9000005    1    3    3    0    0 -0.20354628728E+03  0.22362334403E+02 -0.66421749310E+03  0.69506621497E+03  0.99999687468E+00 0.  0.
          4    1    3    3  501    0  0.17913805193E+02 -0.49026338688E+02  0.45635621009E+02  0.69333225848E+02  0.00000000000E+00 0.  1.
   -9000007    1    1    2    0  502  0.18563248209E+03  0.26664004284E+02  0.26703662543E+03  0.51621598857E+03  0.40000000000E+03 0. -1.
<mgrwt>
<rscale>  2 0.44723579E+03</rscale>
<asrwt>0</asrwt>
<pdfrwt beam="1">  1       21 0.71466937E-01 0.44906901E+03</pdfrwt>
<pdfrwt beam="2">  1       21 0.12555082E+00 0.44906901E+03</pdfrwt>
<totfact> 0.70335963E+02</totfact>
</mgrwt>
</event>
<event>
 6    1  0.9598567E-004  0.4330274E+03  0.7818608E-02  0.1032925E+00
         21   -1    0    0  503  502  0.00000000000E+00  0.00000000000E+00  0.31036672227E+03  0.31036672227E+03  0.00000000000E+00 0.  1.
         21   -1    0    0  501  503 -0.00000000000E+00 -0.00000000000E+00 -0.60891697285E+03  0.60891697285E+03  0.00000000000E+00 0.  1.
    9000007    2    1    2  501    0  0.79586976460E+02 -0.14488611394E+03 -0.10744209818E+03  0.44615749764E+03  0.40023322626E+03 0.  0.
    9000005    1    3    3    0    0 -0.15617263826E+03 -0.91477803499E+02 -0.94250778324E+02  0.20406442777E+03  0.99999687468E+00 0.  0.
          4    1    3    3  501    0  0.23575961472E+03 -0.53408310441E+02 -0.13191319853E+02  0.24209306986E+03  0.00000000000E+00 0.  1.
   -9000007    1    1    2    0  502 -0.79586976460E+02  0.14488611394E+03 -0.19110815240E+03  0.47312619749E+03  0.40000000000E+03 0.  1.
<mgrwt>
<rscale>  2 0.43297348E+03</rscale>
<asrwt>0</asrwt>
<pdfrwt beam="1">  1       21 0.47748726E-01 0.43302738E+03</pdfrwt>
<pdfrwt beam="2">  1       21 0.93679534E-01 0.43302738E+03</pdfrwt>
<totfact> 0.35236375E+03</totfact>
</mgrwt>
</event>
<event>
 6    1  0.9598567E-004  0.4313737E+03  0.7818608E-02  0.1033441E+00
         21   -1    0    0  503  502  0.00000000000E+00  0.00000000000E+00  0.12480850142E+04  0.12480850142E+04  0.00000000000E+00 0.  1.
         21   -1    0    0  501  503 -0.00000000000E+00 -0.00000000000E+00 -0.16035888386E+03  0.16035888386E+03  0.00000000000E+00 0. -1.
    9000007    2    1    2  501    0 -0.15900532893E+03 -0.25368593057E+02  0.73113109315E+03  0.84890276402E+03  0.40019616095E+03 0.  0.
    9000005    1    3    3    0    0  0.90846701003E+02  0.10414891535E+02  0.19047497254E+02  0.93409850627E+02  0.99999687468E+00 0.  0.
          4    1    3    3  501    0 -0.24985202994E+03 -0.35783484592E+02  0.71208359590E+03  0.75549291339E+03  0.00000000000E+00 0.  1.
   -9000007    1    1    2    0  502  0.15900532893E+03  0.25368593057E+02  0.35659503722E+03  0.55954113407E+03  0.40000000000E+03 0. -1.
<mgrwt>
<rscale>  2 0.43132815E+03</rscale>
<asrwt>0</asrwt>
<pdfrwt beam="1">  1       21 0.19201307E+00 0.43137365E+03</pdfrwt>
<pdfrwt beam="2">  1       21 0.24670598E-01 0.43137365E+03</pdfrwt>
<totfact> 0.20076920E+03</totfact>
</mgrwt>
</event>
<event>
 6    1  0.9598567E-004  0.5547850E+03  0.7818608E-02  0.1000483E+00
         21   -1    0    0  503  502  0.00000000000E+00  0.00000000000E+00  0.89157209193E+03  0.89157209193E+03  0.00000000000E+00 0.  1.
         21   -1    0    0  501  503 -0.00000000000E+00 -0.00000000000E+00 -0.47785380912E+03  0.47785380912E+03  0.00000000000E+00 0.  1.
    9000007    2    1    2  501    0  0.32588214940E+03  0.20392946856E+03 -0.15542515229E+03  0.57462362805E+03  0.39780514389E+03 0.  0.
    9000005    1    3    3    0    0  0.19772853085E+03 -0.47633055527E+02  0.68142647541E+02  0.21449918484E+03  0.99999687468E+00 0.  0.
          4    1    3    3  501    0  0.12815361855E+03  0.25156252409E+03 -0.22356779983E+03  0.36012444321E+03  0.00000000000E+00 0.  1.
   -9000007    1    1    2    0  502 -0.32588214940E+03 -0.20392946856E+03  0.56914343510E+03  0.79480227300E+03  0.40000000000E+03 0.  1.
<mgrwt>
<rscale>  2 0.55438948E+03</rscale>
<asrwt>0</asrwt>
<pdfrwt beam="1">  1       21 0.13716494E+00 0.55478501E+03</pdfrwt>
<pdfrwt beam="2">  1       21 0.73515971E-01 0.55478501E+03</pdfrwt>
<totfact> 0.50199049E+02</totfact>
</mgrwt>
</event>
<event>
 6    1  0.9598567E-004  0.4561428E+03  0.7818608E-02  0.1025907E+00
         21   -1    0    0  503  502  0.00000000000E+00  0.00000000000E+00  0.49465592212E+03  0.49465592212E+03  0.00000000000E+00 0. -1.
         21   -1    0    0  501  503 -0.00000000000E+00 -0.00000000000E+00 -0.42624434533E+03  0.42624434533E+03  0.00000000000E+00 0. -1.
    9000007    2    1    2  501    0 -0.21827705140E+03 -0.20312835587E+02 -0.18688475121E+02  0.45652552491E+03  0.40001101652E+03 0.  0.
    9000005    1    3    3    0    0 -0.31385228620E+03  0.14198739675E+01 -0.99756410745E+02  0.32932903770E+03  0.99999687468E+00 0.  0.
          4    1    3    3  501    0  0.95575234804E+02 -0.21732709555E+02  0.81067935623E+02  0.12719648721E+03  0.00000000000E+00 0.  1.
   -9000007    1    1    2    0  502  0.21827705140E+03  0.20312835587E+02  0.87100051908E+02  0.46437474253E+03  0.40000000000E+03 0. -1.
<mgrwt>
<rscale>  2 0.45614043E+03</rscale>
<asrwt>0</asrwt>
<pdfrwt beam="1">  1       21 0.76100911E-01 0.45614285E+03</pdfrwt>
<pdfrwt beam="2">  1       21 0.65576053E-01 0.45614285E+03</pdfrwt>
<totfact> 0.28563528E+03</totfact>
</mgrwt>
</event>
<event>
 6    1  0.9598567E-004  0.4243667E+03  0.7818608E-02  0.1035685E+00
         21   -1    0    0  503  502  0.00000000000E+00  0.00000000000E+00  0.17702656727E+03  0.17702656727E+03  0.00000000000E+00 0. -1.
         21   -1    0    0  501  503 -0.00000000000E+00 -0.00000000000E+00 -0.14269955472E+04  0.14269955472E+04  0.00000000000E+00 0. -1.
    9000007    2    1    2  501    0 -0.23180270640E+02 -0.13866497572E+03 -0.10553999619E+04  0.11375219502E+04  0.40040205705E+03 0.  0.
    9000005    1    3    3    0    0 -0.92621242617E+02 -0.57785391905E+02 -0.10190700466E+04  0.10249012665E+04  0.99999687468E+00 0.  0.
          4    1    3    3  501    0  0.69440971977E+02 -0.80879583819E+02 -0.36329915255E+02  0.11262068376E+03  0.00000000000E+00 0.  1.
   -9000007    1    1    2    0  502  0.23180270640E+02  0.13866497572E+03 -0.19456901803E+03  0.46650016422E+03  0.40000000000E+03 0. -1.
<mgrwt>
<rscale>  2 0.42427185E+03</rscale>
<asrwt>0</asrwt>
<pdfrwt beam="1">  1       21 0.27234855E-01 0.42436671E+03</pdfrwt>
<pdfrwt beam="2">  1       21 0.21953779E+00 0.42436671E+03</pdfrwt>
<totfact> 0.10947871E+03</totfact>
</mgrwt>
</event>
<event>
 6    1  0.9598567E-004  0.4217073E+03  0.7818608E-02  0.1036606E+00
         21   -1    0    0  503  502  0.00000000000E+00  0.00000000000E+00  0.25721599487E+03  0.25721599487E+03  0.00000000000E+00 0. -1.
         21   -1    0    0  501  503 -0.00000000000E+00 -0.00000000000E+00 -0.95180018671E+03  0.95180018671E+03  0.00000000000E+00 0. -1.
    9000007    2    1    2  501    0 -0.65108928164E+02 -0.11236282661E+03 -0.66497937179E+03  0.78742274864E+03  0.40121371217E+03 0.  0.
    9000005    1    3    3    0    0 -0.22261895376E+03  0.87539913239E+01 -0.36422172642E+03  0.42695936215E+03  0.99999687468E+00 0.  0.
          4    1    3    3  501    0  0.15751002559E+03 -0.12111681793E+03 -0.30075764537E+03  0.36046338649E+03  0.00000000000E+00 0.  1.
   -9000007    1    1    2    0  502  0.65108928164E+02  0.11236282661E+03 -0.29604820051E+02  0.42159343294E+03  0.40000000000E+03 0. -1.
<mgrwt>
<rscale>  2 0.42141833E+03</rscale>
<asrwt>0</asrwt>
<pdfrwt beam="1">  1       21 0.39571691E-01 0.42170727E+03</pdfrwt>
<pdfrwt beam="2">  1       21 0.14643080E+00 0.42170727E+03</pdfrwt>
<totfact> 0.16932878E+03</totfact>
</mgrwt>
</event>
<event>
 6    1  0.9598567E-004  0.4884533E+03  0.7818608E-02  0.1016856E+00
         21   -1    0    0  503  502  0.00000000000E+00  0.00000000000E+00  0.72537856612E+03  0.72537856612E+03  0.00000000000E+00 0. -1.
         21   -1    0    0  501  503 -0.00000000000E+00 -0.00000000000E+00 -0.32972762070E+03  0.32972762070E+03  0.00000000000E+00 0.  1.
    9000007    2    1    2  501    0  0.11949755035E+03  0.25358823737E+03  0.22682075295E+03  0.53829839608E+03  0.39966342163E+03 0.  0.
    9000005    1    3    3    0    0  0.15807227064E+03 -0.14328570044E+02  0.21515645063E+03  0.26736762875E+03  0.99999687468E+00 0.  0.
          4    1    3    3  501    0 -0.38574720290E+02  0.26791680741E+03  0.11664302322E+02  0.27093076733E+03  0.00000000000E+00 0.  1.
   -9000007    1    1    2    0  502 -0.11949755035E+03 -0.25358823737E+03  0.16883019247E+03  0.51680779073E+03  0.40000000000E+03 0. -1.
<mgrwt>
<rscale>  2 0.48838442E+03</rscale>
<asrwt>0</asrwt>
<pdfrwt beam="1">  1       21 0.11159670E+00 0.48845333E+03</pdfrwt>
<pdfrwt beam="2">  1       21 0.50727326E-01 0.48845333E+03</pdfrwt>
<totfact> 0.19808099E+03</totfact>
</mgrwt>
</event>
<event>
 6    1  0.9598567E-004  0.4010425E+03  0.7818608E-02  0.1043442E+00
         21   -1    0    0  503  502  0.00000000000E+00  0.00000000000E+00  0.80266896638E+03  0.80266896638E+03  0.00000000000E+00 0.  1.
         21   -1    0    0  501  503 -0.00000000000E+00 -0.00000000000E+00 -0.26740708275E+03  0.26740708275E+03  0.00000000000E+00 0.  1.
    9000007    2    1    2  501    0 -0.50424498966E+01 -0.28454287150E+02 -0.58238915030E+00  0.40077480347E+03  0.39973119864E+03 0.  0.
    9000005    1    3    3    0    0 -0.77476241579E+02  0.16053428065E+03 -0.62863406862E+02  0.18901489673E+03  0.99999687468E+00 0.  0.
          4    1    3    3  501    0  0.72433791682E+02 -0.18898856780E+03  0.62281017712E+02  0.21175990674E+03  0.00000000000E+00 0.  1.
   -9000007    1    1    2    0  502  0.50424498966E+01  0.28454287150E+02  0.53584427279E+03  0.66930124566E+03  0.40000000000E+03 0.  1.
<mgrwt>
<rscale>  2 0.40097544E+03</rscale>
<asrwt>0</asrwt>
<pdfrwt beam="1">  1       21 0.12348753E+00 0.40104248E+03</pdfrwt>
<pdfrwt beam="2">  1       21 0.41139552E-01 0.40104248E+03</pdfrwt>
<totfact> 0.24634684E+03</totfact>
</mgrwt>
</event>
<event>
 6    1  0.9598567E-004  0.7108634E+03  0.7818608E-02  0.9698855E-01
         21   -1    0    0  503  502  0.00000000000E+00  0.00000000000E+00  0.85743108870E+03  0.85743108870E+03  0.00000000000E+00 0.  1.
         21   -1    0    0  501  503 -0.00000000000E+00 -0.00000000000E+00 -0.79178325085E+03  0.79178325085E+03  0.00000000000E+00 0. -1.
    9000007    2    1    2  501    0 -0.11341233351E+03 -0.57659724487E+03 -0.38417375847E+03  0.80798535247E+03  0.39990512990E+03 0.  0.
    9000005    1    3    3    0    0 -0.10642017131E+03 -0.29284678874E+03 -0.41885340694E+03  0.52203799769E+03  0.99999687468E+00 0.  0.
          4    1    3    3  501    0 -0.69921621930E+01 -0.28375045613E+03  0.34679648465E+02  0.28594735478E+03  0.00000000000E+00 0.  1.
   -9000007    1    1    2    0  502  0.11341233351E+03  0.57659724487E+03  0.44982159632E+03  0.84122898708E+03  0.40000000000E+03 0.  1.
<mgrwt>
<rscale>  2 0.71085003E+03</rscale>
<asrwt>0</asrwt>
<pdfrwt beam="1">  1       21 0.13191248E+00 0.71086338E+03</pdfrwt>
<pdfrwt beam="2">  1       21 0.12181281E+00 0.71086338E+03</pdfrwt>
<totfact> 0.15540017E+02</totfact>
</mgrwt>
</event>
<event>
 6    1  0.9598567E-004  0.5357032E+03  0.7818608E-02  0.1004871E+00
         21   -1    0    0  503  502  0.00000000000E+00  0.00000000000E+00  0.10553163232E+04  0.10553163232E+04  0.00000000000E+00 0. -1.
         21   -1    0    0  501  503 -0.00000000000E+00 -0.00000000000E+00 -0.33416677415E+03  0.33416677415E+03  0.00000000000E+00 0.  1.
    9000007    2    1    2  501    0 -0.10799705256E+03  0.33958001796E+03  0.60446485312E+02  0.53889125022E+03  0.39971496096E+03 0.  0.
    9000005    1    3    3    0    0 -0.62619419194E+01 -0.56300368714E+01 -0.13098320658E+03  0.13125741743E+03  0.99999687468E+00 0.  0.
          4    1    3    3  501    0 -0.10173511064E+03  0.34521005484E+03  0.19142969189E+03  0.40763383279E+03  0.00000000000E+00 0.  1.
   -9000007    1    1    2    0  502  0.10799705256E+03 -0.33958001796E+03  0.66070306375E+03  0.85059184713E+03  0.40000000000E+03 0. -1.
<mgrwt>
<rscale>  2 0.53565002E+03</rscale>
<asrwt>0</asrwt>
<pdfrwt beam="1">  1       21 0.16235636E+00 0.53570323E+03</pdfrwt>
<pdfrwt beam="2">  1       21 0.51410273E-01 0.53570323E+03</pdfrwt>
<totfact> 0.70307786E+02</totfact>
</mgrwt>
</event>
<event>
 6    1  0.9598567E-004  0.5654237E+03  0.7818608E-02  0.9979884E-01
         21   -1    0    0  503  502  0.00000000000E+00  0.00000000000E+00  0.76757629036E+03  0.76757629036E+03  0.00000000000E+00 0. -1.
         21   -1    0    0  501  503 -0.00000000000E+00 -0.00000000000E+00 -0.43536614457E+03  0.43536614457E+03  0.00000000000E+00 0.  1.
    9000007    2    1    2  501    0 -0.37061996142E+03 -0.14929636327E+03  0.40821581913E+02  0.56689538083E+03  0.40006925821E+03 0.  0.
    9000005    1    3    3    0    0 -0.12211192572E+02 -0.13695842145E+03 -0.11173023032E+03  0.17717608979E+03  0.99999687468E+00 0.  0.
          4    1    3    3  501    0 -0.35840876884E+03 -0.12337941819E+02  0.15255181223E+03  0.38971929104E+03  0.00000000000E+00 0.  1.
   -9000007    1    1    2    0  502  0.37061996142E+03  0.14929636327E+03  0.29138856388E+03  0.63604705411E+03  0.40000000000E+03 0. -1.
<mgrwt>
<rscale>  2 0.56541146E+03</rscale>
<asrwt>0</asrwt>
<pdfrwt beam="1">  1       21 0.11808866E+00 0.56542371E+03</pdfrwt>
<pdfrwt beam="2">  1       21 0.66979407E-01 0.56542371E+03</pdfrwt>
<totfact> 0.91138051E+02</totfact>
</mgrwt>
</event>
<event>
 6    1  0.9598567E-004  0.6744217E+03  0.7818608E-02  0.9762233E-01
         21   -1    0    0  503  502  0.00000000000E+00  0.00000000000E+00  0.33502257712E+03  0.33502257712E+03  0.00000000000E+00 0. -1.
         21   -1    0    0  501  503 -0.00000000000E+00 -0.00000000000E+00 -0.19287193822E+04  0.19287193822E+04  0.00000000000E+00 0.  1.
    9000007    2    1    2  501    0 -0.54142703531E+03  0.31781239497E+02 -0.14135110373E+04  0.15661602848E+04  0.40086319788E+03 0.  0.
    9000005    1    3    3    0    0 -0.66475832621E+02  0.15612476257E+03 -0.51539651743E+03  0.54261270533E+03  0.99999687468E+00 0.  0.
          4    1    3    3  501    0 -0.47495120269E+03 -0.12434352308E+03 -0.89811451983E+03  0.10235475794E+04  0.00000000000E+00 0.  1.
   -9000007    1    1    2    0  502  0.54142703531E+03 -0.31781239497E+02 -0.18018576784E+03  0.69758167456E+03  0.40000000000E+03 0. -1.
<mgrwt>
<rscale>  2 0.67429345E+03</rscale>
<asrwt>0</asrwt>
<pdfrwt beam="1">  1       21 0.51541934E-01 0.67442167E+03</pdfrwt>
<pdfrwt beam="2">  1       21 0.29672606E+00 0.67442167E+03</pdfrwt>
<totfact> 0.87897559E+01</totfact>
</mgrwt>
</event>
<event>
 6    1  0.9598567E-004  0.4326311E+03  0.7818608E-02  0.1033117E+00
         21   -1    0    0  503  502  0.00000000000E+00  0.00000000000E+00  0.11086015219E+04  0.11086015219E+04  0.00000000000E+00 0.  1.
         21   -1    0    0  501  503 -0.00000000000E+00 -0.00000000000E+00 -0.16849147817E+03  0.16849147817E+03  0.00000000000E+00 0.  1.
    9000007    2    1    2  501    0  0.13497929839E+03 -0.94605746317E+02  0.45539012031E+03  0.62738301677E+03  0.39882280505E+03 0.  0.
    9000005    1    3    3    0    0 -0.53110381919E+02  0.51195804331E+02  0.36568854738E+03  0.37305607719E+03  0.99999687468E+00 0.  0.
          4    1    3    3  501    0  0.18808968031E+03 -0.14580155065E+03  0.89701572928E+02  0.25432693958E+03  0.00000000000E+00 0.  1.
   -9000007    1    1    2    0  502 -0.13497929839E+03  0.94605746317E+02  0.48471992338E+03  0.64970998326E+03  0.40000000000E+03 0.  1.
<mgrwt>
<rscale>  2 0.43235879E+03</rscale>
<asrwt>0</asrwt>
<pdfrwt beam="1">  1       21 0.17055408E+00 0.43263109E+03</pdfrwt>
<pdfrwt beam="2">  1       21 0.25921767E-01 0.43263109E+03</pdfrwt>
<totfact> 0.25771197E+03</totfact>
</mgrwt>
</event>
<event>
 6    1  0.9598567E-004  0.4824909E+03  0.7818608E-02  0.1018501E+00
         21   -1    0    0  503  502  0.00000000000E+00  0.00000000000E+00  0.14373605231E+04  0.14373605231E+04  0.00000000000E+00 0.  1.
         21   -1    0    0  501  503 -0.00000000000E+00 -0.00000000000E+00 -0.16978500865E+03  0.16978500865E+03  0.00000000000E+00 0. -1.
    9000007    2    1    2  501    0 -0.20009809917E+02 -0.26780064791E+03  0.80930997758E+03  0.94222081285E+03  0.40084890026E+03 0.  0.
    9000005    1    3    3    0    0  0.75550575367E+01 -0.35625519033E+03  0.46599321252E+03  0.58662212168E+03  0.99999687468E+00 0.  0.
          4    1    3    3  501    0 -0.27564867454E+02  0.88454542421E+02  0.34331676506E+03  0.35559869117E+03  0.00000000000E+00 0.  1.
   -9000007    1    1    2    0  502  0.20009809917E+02  0.26780064791E+03  0.45826553685E+03  0.66492471888E+03  0.40000000000E+03 0.  1.
<mgrwt>
<rscale>  2 0.48231450E+03</rscale>
<asrwt>0</asrwt>
<pdfrwt beam="1">  1       21 0.22113238E+00 0.48249085E+03</pdfrwt>
<pdfrwt beam="2">  1       21 0.26120772E-01 0.48249085E+03</pdfrwt>
<totfact> 0.11294994E+03</totfact>
</mgrwt>
</event>
<event>
 6    1  0.9598567E-004  0.6765382E+03  0.7818608E-02  0.9758349E-01
         21   -1    0    0  503  502  0.00000000000E+00  0.00000000000E+00  0.29754485243E+03  0.29754485243E+03  0.00000000000E+00 0. -1.
         21   -1    0    0  501  503 -0.00000000000E+00 -0.00000000000E+00 -0.45602138360E+04  0.45602138360E+04  0.00000000000E+00 0. -1.
    9000007    2    1    2  501    0  0.46613774559E+03 -0.28358337134E+03 -0.41086244432E+04  0.41639044914E+04  0.39950202933E+03 0.  0.
    9000005    1    3    3    0    0  0.30103871169E+03 -0.34526104109E+03 -0.35134005540E+04  0.35431361737E+04  0.99999687468E+00 0.  0.
          4    1    3    3  501    0  0.16509903390E+03  0.61677669751E+02 -0.59522388923E+03  0.62076831770E+03  0.00000000000E+00 0.  1.
   -9000007    1    1    2    0  502 -0.46613774559E+03  0.28358337134E+03 -0.15404454036E+03  0.69385419706E+03  0.40000000000E+03 0. -1.
<mgrwt>
<rscale>  2 0.67646460E+03</rscale>
<asrwt>0</asrwt>
<pdfrwt beam="1">  1       21 0.45776131E-01 0.67653819E+03</pdfrwt>
<pdfrwt beam="2">  1       21 0.70157136E+00 0.67653819E+03</pdfrwt>
<totfact> 0.12967826E-01</totfact>
</mgrwt>
</event>
<event>
 6    1  0.9598567E-004  0.4244009E+03  0.7818608E-02  0.1035675E+00
         21   -1    0    0  503  502  0.00000000000E+00  0.00000000000E+00  0.20274335585E+03  0.20274335585E+03  0.00000000000E+00 0. -1.
         21   -1    0    0  501  503 -0.00000000000E+00 -0.00000000000E+00 -0.88800364281E+03  0.88800364281E+03  0.00000000000E+00 0.  1.
    9000007    2    1    2  501    0 -0.11794363144E+03 -0.76659748020E+02 -0.33092883462E+03  0.53817284501E+03  0.40041066464E+03 0.  0.
    9000005    1    3    3    0    0 -0.11915229389E+03 -0.23612417271E+03 -0.21831199953E+03  0.34294755169E+03  0.99999687468E+00 0.  0.
          4    1    3    3  501    0  0.12086624490E+01  0.15946442469E+03 -0.11261683509E+03  0.19522529332E+03  0.00000000000E+00 0.  1.
   -9000007    1    1    2    0  502  0.11794363144E+03  0.76659748020E+02 -0.35433145235E+03  0.55257415365E+03  0.40000000000E+03 0.  1.
<mgrwt>
<rscale>  2 0.42430400E+03</rscale>
<asrwt>0</asrwt>
<pdfrwt beam="1">  1       21 0.31191285E-01 0.42440089E+03</pdfrwt>
<pdfrwt beam="2">  1       21 0.13661595E+00 0.42440089E+03</pdfrwt>
<totfact> 0.32927476E+03</totfact>
</mgrwt>
</event>
<event>
 6    1  0.9598567E-004  0.4050659E+03  0.7818608E-02  0.1042093E+00
         21   -1    0    0  503  502  0.00000000000E+00  0.00000000000E+00  0.12686925132E+04  0.12686925132E+04  0.00000000000E+00 0. -1.
         21   -1    0    0  501  503 -0.00000000000E+00 -0.00000000000E+00 -0.19153977571E+03  0.19153977571E+03  0.00000000000E+00 0.  1.
    9000007    2    1    2  501    0 -0.13515641619E+02 -0.58204937493E+02  0.12209015014E+03  0.42306545899E+03  0.40063436012E+03 0.  0.
    9000005    1    3    3    0    0  0.51798431340E+02  0.16290546739E+03  0.79840108525E+02  0.18867090851E+03  0.99999687468E+00 0.  0.
          4    1    3    3  501    0 -0.65314072959E+02 -0.22111040489E+03  0.42250041613E+02  0.23439455047E+03  0.00000000000E+00 0.  1.
   -9000007    1    1    2    0  502  0.13515641619E+02  0.58204937493E+02  0.95506258731E+03  0.10371668299E+04  0.40000000000E+03 0. -1.
<mgrwt>
<rscale>  2 0.40490895E+03</rscale>
<asrwt>0</asrwt>
<pdfrwt beam="1">  1       21 0.19518346E+00 0.40506589E+03</pdfrwt>
<pdfrwt beam="2">  1       21 0.29467659E-01 0.40506589E+03</pdfrwt>
<totfact> 0.13656691E+03</totfact>
</mgrwt>
</event>
<event>
 6    1  0.9598567E-004  0.4207419E+03  0.7818608E-02  0.1036856E+00
         21   -1    0    0  503  502  0.00000000000E+00  0.00000000000E+00  0.28181720628E+03  0.28181720628E+03  0.00000000000E+00 0.  1.
         21   -1    0    0  501  503 -0.00000000000E+00 -0.00000000000E+00 -0.62818708534E+03  0.62818708534E+03  0.00000000000E+00 0.  1.
    9000007    2    1    2  501    0  0.95619653144E+02  0.86958031467E+02 -0.15917632016E+03  0.44984535626E+03  0.40039845946E+03 0.  0.
    9000005    1    3    3    0    0  0.35336506034E+02  0.24474218904E+03 -0.61834825113E+02  0.25489596573E+03  0.99999687468E+00 0.  0.
          4    1    3    3  501    0  0.60283147110E+02 -0.15778415758E+03 -0.97341495050E+02  0.19494939053E+03  0.00000000000E+00 0.  1.
   -9000007    1    1    2    0  502 -0.95619653144E+02 -0.86958031467E+02 -0.18719355889E+03  0.46015893536E+03  0.40000000000E+03 0. -1.
<mgrwt>
<rscale>  2 0.42064707E+03</rscale>
<asrwt>0</asrwt>
<pdfrwt beam="1">  1       21 0.43356494E-01 0.42074190E+03</pdfrwt>
<pdfrwt beam="2">  1       21 0.96644165E-01 0.42074190E+03</pdfrwt>
<totfact> 0.40212329E+03</totfact>
</mgrwt>
</event>
<event>
 6    1  0.9598567E-004  0.4039161E+03  0.7818608E-02  0.1042556E+00
         21   -1    0    0  503  502  0.00000000000E+00  0.00000000000E+00  0.21469662107E+03  0.21469662107E+03  0.00000000000E+00 0. -1.
         21   -1    0    0  501  503 -0.00000000000E+00 -0.00000000000E+00 -0.86640840793E+03  0.86640840793E+03  0.00000000000E+00 0. -1.
    9000007    2    1    2  501    0 -0.44413514436E+02 -0.34288268443E+02 -0.51727683604E+03  0.65540442809E+03  0.39853656499E+03 0.  0.
    9000005    1    3    3    0    0 -0.11420628838E+03  0.44143786336E+02 -0.53508520239E+03  0.54891613566E+03  0.99999687468E+00 0.  0.
          4    1    3    3  501    0  0.69792773947E+02 -0.78432054779E+02  0.17808366351E+02  0.10648829243E+03  0.00000000000E+00 0.  1.
   -9000007    1    1    2    0  502  0.44413514436E+02  0.34288268443E+02 -0.13443495082E+03  0.42570060092E+03  0.40000000000E+03 0. -1.
<mgrwt>
<rscale>  2 0.40355335E+03</rscale>
<asrwt>0</asrwt>
<pdfrwt beam="1">  1       21 0.33030250E-01 0.40391614E+03</pdfrwt>
<pdfrwt beam="2">  1       21 0.13329360E+00 0.40391614E+03</pdfrwt>
<totfact> 0.31571050E+03</totfact>
</mgrwt>
</event>
<event>
 6    1  0.9598567E-004  0.4393856E+03  0.7818608E-02  0.1030944E+00
         21   -1    0    0  503  502  0.00000000000E+00  0.00000000000E+00  0.76620952771E+03  0.76620952771E+03  0.00000000000E+00 0.  1.
         21   -1    0    0  501  503 -0.00000000000E+00 -0.00000000000E+00 -0.54430887204E+03  0.54430887204E+03  0.00000000000E+00 0. -1.
    9000007    2    1    2  501    0 -0.17431843640E+03  0.50795312790E+02 -0.36930818077E+03  0.57397582165E+03  0.40011577124E+03 0.  0.
    9000005    1    3    3    0    0 -0.68036202439E+02  0.61495575773E+02 -0.43765536583E+03  0.44716199516E+03  0.99999687468E+00 0.  0.
          4    1    3    3  501    0 -0.10628223396E+03 -0.10700262983E+02  0.68347185064E+02  0.12681382649E+03  0.00000000000E+00 0.  1.
   -9000007    1    1    2    0  502  0.17431843640E+03 -0.50795312790E+02  0.59120883643E+03  0.73654257809E+03  0.40000000000E+03 0.  1.
<mgrwt>
<rscale>  2 0.43935925E+03</rscale>
<asrwt>0</asrwt>
<pdfrwt beam="1">  1       21 0.11787839E+00 0.43938561E+03</pdfrwt>
<pdfrwt beam="2">  1       21 0.83739826E-01 0.43938561E+03</pdfrwt>
<totfact> 0.57682225E+02</totfact>
</mgrwt>
</event>
<event>
 6    1  0.9598567E-004  0.4067258E+03  0.7818608E-02  0.1041717E+00
         21   -1    0    0  503  502  0.00000000000E+00  0.00000000000E+00  0.22869429288E+04  0.22869429288E+04  0.00000000000E+00 0. -1.
         21   -1    0    0  501  503 -0.00000000000E+00 -0.00000000000E+00 -0.12519099943E+03  0.12519099943E+03  0.00000000000E+00 0. -1.
    9000007    2    1    2  501    0  0.11265699761E+02 -0.72794209066E+02  0.29130819044E+03  0.49797988705E+03  0.39711156269E+03 0.  0.
    9000005    1    3    3    0    0 -0.13567616008E+03 -0.14166545944E+03  0.42153986037E+02  0.20063668993E+03  0.99999687468E+00 0.  0.
          4    1    3    3  501    0  0.14694185984E+03  0.68871250375E+02  0.24915420441E+03  0.29734319712E+03  0.00000000000E+00 0.  1.
   -9000007    1    1    2    0  502 -0.11265699761E+02  0.72794209066E+02  0.18704437390E+04  0.19141540412E+04  0.40000000000E+03 0. -1.
<mgrwt>
<rscale>  2 0.40601389E+03</rscale>
<asrwt>0</asrwt>
<pdfrwt beam="1">  1       21 0.35183734E+00 0.40672584E+03</pdfrwt>
<pdfrwt beam="2">  1       21 0.19260155E-01 0.40672584E+03</pdfrwt>
<totfact> 0.33822775E+02</totfact>
</mgrwt>
</event>
<event>
 6    1  0.9598567E-004  0.4573691E+03  0.7818608E-02  0.1025578E+00
         21   -1    0    0  503  502  0.00000000000E+00  0.00000000000E+00  0.87752962754E+03  0.87752962754E+03  0.00000000000E+00 0.  1.
         21   -1    0    0  501  503 -0.00000000000E+00 -0.00000000000E+00 -0.45974961315E+03  0.45974961315E+03  0.00000000000E+00 0.  1.
    9000007    2    1    2  501    0  0.21883651983E+03  0.30227704089E+02 -0.25525866231E+03  0.52377804411E+03  0.40047886124E+03 0.  0.
    9000005    1    3    3    0    0  0.16945795562E+03  0.18659800858E+03 -0.43240370876E+02  0.25574507854E+03  0.99999687468E+00 0.  0.
          4    1    3    3  501    0  0.49378564218E+02 -0.15637030449E+03 -0.21201829144E+03  0.26803296557E+03  0.00000000000E+00 0.  1.
   -9000007    1    1    2    0  502 -0.21883651983E+03 -0.30227704089E+02  0.67303867670E+03  0.81350119658E+03  0.40000000000E+03 0.  1.
<mgrwt>
<rscale>  2 0.45726421E+03</rscale>
<asrwt>0</asrwt>
<pdfrwt beam="1">  1       21 0.13500456E+00 0.45736906E+03</pdfrwt>
<pdfrwt beam="2">  1       21 0.70730710E-01 0.45736906E+03</pdfrwt>
<totfact> 0.59414960E+02</totfact>
</mgrwt>
</event>
<event>
 6    1  0.9598567E-004  0.6158981E+03  0.7818608E-02  0.9873033E-01
         21   -1    0    0  503  502  0.00000000000E+00  0.00000000000E+00  0.77950898499E+03  0.77950898499E+03  0.00000000000E+00 0.  1.
         21   -1    0    0  501  503 -0.00000000000E+00 -0.00000000000E+00 -0.79899897564E+03  0.79899897564E+03  0.00000000000E+00 0. -1.
    9000007    2    1    2  501    0 -0.42050281566E+03  0.20617437071E+03 -0.50332575219E+03  0.79529181341E+03  0.39977714609E+03 0.  0.
    9000005    1    3    3    0    0 -0.81724092504E+02  0.13703553171E+03 -0.40579641284E+03  0.43603817828E+03  0.99999687468E+00 0.  0.
          4    1    3    3  501    0 -0.33877872316E+03  0.69138838996E+02 -0.97529339352E+02  0.35925363513E+03  0.00000000000E+00 0.  1.
   -9000007    1    1    2    0  502  0.42050281566E+03 -0.20617437071E+03  0.48383576155E+03  0.78321614722E+03  0.40000000000E+03 0.  1.
<mgrwt>
<rscale>  2 0.61586193E+03</rscale>
<asrwt>0</asrwt>
<pdfrwt beam="1">  1       21 0.11992446E+00 0.61589812E+03</pdfrwt>
<pdfrwt beam="2">  1       21 0.12292292E+00 0.61589812E+03</pdfrwt>
<totfact> 0.20089343E+02</totfact>
</mgrwt>
</event>
<event>
 6    1  0.9598567E-004  0.4682252E+03  0.7818608E-02  0.1022433E+00
         21   -1    0    0  503  502  0.00000000000E+00  0.00000000000E+00  0.10766084897E+03  0.10766084897E+03  0.00000000000E+00 0. -1.
         21   -1    0    0  501  503 -0.00000000000E+00 -0.00000000000E+00 -0.20634121760E+04  0.20634121760E+04  0.00000000000E+00 0.  1.
    9000007    2    1    2  501    0 -0.24039186111E+03  0.38034153577E+02 -0.85192182959E+03  0.97204241521E+03  0.39982597402E+03 0.  0.
    9000005    1    3    3    0    0 -0.24438668837E+03  0.14470253490E+03 -0.31299873385E+03  0.42264983668E+03  0.99999687468E+00 0.  0.
          4    1    3    3  501    0  0.39948272615E+01 -0.10666838132E+03 -0.53892309574E+03  0.54939257852E+03  0.00000000000E+00 0.  1.
   -9000007    1    1    2    0  502  0.24039186111E+03 -0.38034153577E+02 -0.11038294975E+04  0.11990306098E+04  0.40000000000E+03 0.  1.
<mgrwt>
<rscale>  2 0.46818804E+03</rscale>
<asrwt>0</asrwt>
<pdfrwt beam="1">  1       21 0.16563210E-01 0.46822521E+03</pdfrwt>
<pdfrwt beam="2">  1       21 0.31744798E+00 0.46822521E+03</pdfrwt>
<totfact> 0.69979546E+02</totfact>
</mgrwt>
</event>
<event>
 6    1  0.9598567E-004  0.4005369E+03  0.7818608E-02  0.1043600E+00
         21   -1    0    0  503  502  0.00000000000E+00  0.00000000000E+00  0.40157382766E+03  0.40157382766E+03  0.00000000000E+00 0. -1.
         21   -1    0    0  501  503 -0.00000000000E+00 -0.00000000000E+00 -0.41781283846E+03  0.41781283846E+03  0.00000000000E+00 0. -1.
    9000007    2    1    2  501    0 -0.18892097810E+02  0.40138675528E+01 -0.94051506113E+02  0.41143102280E+03  0.40007096649E+03 0.  0.
    9000005    1    3    3    0    0  0.94467749820E+02  0.14407786331E+03  0.51474673853E+02  0.17981442794E+03  0.99999687468E+00 0.  0.
          4    1    3    3  501    0 -0.11335984763E+03 -0.14006399576E+03 -0.14552617997E+03  0.23161659487E+03  0.00000000000E+00 0.  1.
   -9000007    1    1    2    0  502  0.18892097810E+02 -0.40138675528E+01  0.77812495315E+02  0.40795564332E+03  0.40000000000E+03 0.  1.
<mgrwt>
<rscale>  2 0.40051917E+03</rscale>
<asrwt>0</asrwt>
<pdfrwt beam="1">  1       21 0.61780589E-01 0.40053689E+03</pdfrwt>
<pdfrwt beam="2">  1       21 0.64278898E-01 0.40053689E+03</pdfrwt>
<totfact> 0.48608947E+03</totfact>
</mgrwt>
</event>
<event>
 6    1  0.9598567E-004  0.4276210E+03  0.7818608E-02  0.1034625E+00
         21   -1    0    0  503  502  0.00000000000E+00  0.00000000000E+00  0.16493109433E+04  0.16493109433E+04  0.00000000000E+00 0.  1.
         21   -1    0    0  501  503 -0.00000000000E+00 -0.00000000000E+00 -0.29095254473E+03  0.29095254473E+03  0.00000000000E+00 0.  1.
    9000007    2    1    2  501    0 -0.68856701655E+02 -0.13460490788E+03 -0.84171012615E+02  0.43568686030E+03  0.39984816404E+03 0.  0.
    9000005    1    3    3    0    0 -0.10181460399E+03 -0.15850711966E+03  0.12271379778E+03  0.22483415383E+03  0.99999687468E+00 0.  0.
          4    1    3    3  501    0  0.32957902331E+02  0.23902211777E+02 -0.20688481040E+03  0.21085270648E+03  0.00000000000E+00 0.  1.
   -9000007    1    1    2    0  502  0.68856701655E+02  0.13460490788E+03  0.14425294112E+04  0.15045766278E+04  0.40000000000E+03 0.  1.
<mgrwt>
<rscale>  2 0.42758550E+03</rscale>
<asrwt>0</asrwt>
<pdfrwt beam="1">  1       21 0.25374014E+00 0.42762101E+03</pdfrwt>
<pdfrwt beam="2">  1       21 0.44761931E-01 0.42762101E+03</pdfrwt>
<totfact> 0.24492228E+02</totfact>
</mgrwt>
</event>
<event>
 6    1  0.9598567E-004  0.4150813E+03  0.7818608E-02  0.1038717E+00
         21   -1    0    0  503  502  0.00000000000E+00  0.00000000000E+00  0.25437908016E+03  0.25437908016E+03  0.00000000000E+00 0.  1.
         21   -1    0    0  501  503 -0.00000000000E+00 -0.00000000000E+00 -0.86456542135E+03  0.86456542135E+03  0.00000000000E+00 0.  1.
    9000007    2    1    2  501    0  0.49566403498E+02  0.99175020237E+02 -0.56585926318E+03  0.70150300521E+03  0.39952127301E+03 0.  0.
    9000005    1    3    3    0    0 -0.19712409544E+02  0.19988842819E+02  0.60322885561E+02  0.66543094634E+02  0.99999687468E+00 0.  0.
          4    1    3    3  501    0  0.69278813042E+02  0.79186177419E+02 -0.62618214874E+03  0.63495991057E+03  0.00000000000E+00 0.  1.
   -9000007    1    1    2    0  502 -0.49566403498E+02 -0.99175020237E+02 -0.44327078009E+02  0.41744149631E+03  0.40000000000E+03 0.  1.
<mgrwt>
<rscale>  2 0.41496596E+03</rscale>
<asrwt>0</asrwt>
<pdfrwt beam="1">  1       21 0.39135244E-01 0.41508133E+03</pdfrwt>
<pdfrwt beam="2">  1       21 0.13301006E+00 0.41508133E+03</pdfrwt>
<totfact> 0.22408003E+03</totfact>
</mgrwt>
</event>
<event>
 6    1  0.9598567E-004  0.5042309E+03  0.7818608E-02  0.1012683E+00
         21   -1    0    0  503  502  0.00000000000E+00  0.00000000000E+00  0.15327819932E+04  0.15327819932E+04  0.00000000000E+00 0. -1.
         21   -1    0    0  501  503 -0.00000000000E+00 -0.00000000000E+00 -0.24787636936E+03  0.24787636936E+03  0.00000000000E+00 0. -1.
    9000007    2    1    2  501    0 -0.12338676881E+02 -0.30675168097E+03  0.13030601933E+03  0.52075793654E+03  0.39995041327E+03 0.  0.
    9000005    1    3    3    0    0 -0.54656786525E+02  0.85977585770E+02 -0.81063536371E+01  0.10220676363E+03  0.99999687468E+00 0.  0.
          4    1    3    3  501    0  0.42318109644E+02 -0.39272926674E+03  0.13841237297E+03  0.41855117292E+03  0.00000000000E+00 0.  1.
   -9000007    1    1    2    0  502  0.12338676881E+02  0.30675168097E+03  0.11545996045E+04  0.12599004260E+04  0.40000000000E+03 0. -1.
<mgrwt>
<rscale>  2 0.50422110E+03</rscale>
<asrwt>0</asrwt>
<pdfrwt beam="1">  1       21 0.23581261E+00 0.50423094E+03</pdfrwt>
<pdfrwt beam="2">  1       21 0.38134827E-01 0.50423094E+03</pdfrwt>
<totfact> 0.42310134E+02</totfact>
</mgrwt>
</event>
<event>
 6    1  0.9598567E-004  0.4686519E+03  0.7818608E-02  0.1022313E+00
         21   -1    0    0  503  502  0.00000000000E+00  0.00000000000E+00  0.12600297443E+04  0.12600297443E+04  0.00000000000E+00 0. -1.
         21   -1    0    0  501  503 -0.00000000000E+00 -0.00000000000E+00 -0.17549060161E+03  0.17549060161E+03  0.00000000000E+00 0. -1.
    9000007    2    1    2  501    0 -0.10872508603E+03 -0.21832115260E+03  0.48200736814E+03  0.67228394126E+03  0.40018661239E+03 0.  0.
    9000005    1    3    3    0    0 -0.22869030850E+03 -0.15892142121E+03  0.15450164822E+03  0.31847611311E+03  0.99999687468E+00 0.  0.
          4    1    3    3  501    0  0.11996522247E+03 -0.59399731390E+02  0.32750571991E+03  0.35380782816E+03  0.00000000000E+00 0.  1.
   -9000007    1    1    2    0  502  0.10872508603E+03  0.21832115260E+03  0.60253177453E+03  0.76323640462E+03  0.40000000000E+03 0. -1.
<mgrwt>
<rscale>  2 0.46861205E+03</rscale>
<asrwt>0</asrwt>
<pdfrwt beam="1">  1       21 0.19385072E+00 0.46865189E+03</pdfrwt>
<pdfrwt beam="2">  1       21 0.26998555E-01 0.46865189E+03</pdfrwt>
<totfact> 0.16100054E+03</totfact>
</mgrwt>
</event>
<event>
 6    1  0.9598567E-004  0.5445477E+03  0.7818608E-02  0.1002912E+00
         21   -1    0    0  503  502  0.00000000000E+00  0.00000000000E+00  0.45437233061E+03  0.45437233061E+03  0.00000000000E+00 0. -1.
         21   -1    0    0  501  503 -0.00000000000E+00 -0.00000000000E+00 -0.73141086239E+03  0.73141086239E+03  0.00000000000E+00 0.  1.
    9000007    2    1    2  501    0 -0.23632167987E+03  0.28404968569E+03  0.60052063418E+02  0.54534410168E+03  0.39656245233E+03 0.  0.
    9000005    1    3    3    0    0 -0.28871657097E+03  0.34228232431E+03  0.97867825328E+02  0.45835963949E+03  0.99999687468E+00 0.  0.
          4    1    3    3  501    0  0.52394891095E+02 -0.58232638620E+02 -0.37815761910E+02  0.86984462189E+02  0.00000000000E+00 0.  1.
   -9000007    1    1    2    0  502  0.23632167987E+03 -0.28404968569E+03 -0.33709059520E+03  0.64043909132E+03  0.40000000000E+03 0.  1.
<mgrwt>
<rscale>  2 0.54391656E+03</rscale>
<asrwt>0</asrwt>
<pdfrwt beam="1">  1       21 0.69903436E-01 0.54454767E+03</pdfrwt>
<pdfrwt beam="2">  1       21 0.11252475E+00 0.54454767E+03</pdfrwt>
<totfact> 0.94118441E+02</totfact>
</mgrwt>
</event>
<event>
 6    1  0.9598567E-004  0.4771476E+03  0.7818608E-02  0.1019973E+00
         21   -1    0    0  503  502  0.00000000000E+00  0.00000000000E+00  0.95908250061E+03  0.95908250061E+03  0.00000000000E+00 0.  1.
         21   -1    0    0  501  503 -0.00000000000E+00 -0.00000000000E+00 -0.99079382667E+03  0.99079382667E+03  0.00000000000E+00 0. -1.
    9000007    2    1    2  501    0  0.71080812237E+02 -0.25023451470E+03 -0.86622022636E+03  0.98858818168E+03  0.39912318673E+03 0.  0.
    9000005    1    3    3    0    0  0.18891070762E+03 -0.16704733933E+02 -0.52796566062E+03  0.56099469015E+03  0.99999687468E+00 0.  0.
          4    1    3    3  501    0 -0.11782989538E+03 -0.23352978077E+03 -0.33825456573E+03  0.42759349152E+03  0.00000000000E+00 0.  1.
   -9000007    1    1    2    0  502 -0.71080812237E+02  0.25023451470E+03  0.83450890029E+03  0.96128814561E+03  0.40000000000E+03 0.  1.
<mgrwt>
<rscale>  2 0.47696375E+03</rscale>
<asrwt>0</asrwt>
<pdfrwt beam="1">  1       21 0.14755115E+00 0.47714756E+03</pdfrwt>
<pdfrwt beam="2">  1       21 0.15242982E+00 0.47714756E+03</pdfrwt>
<totfact> 0.69904473E+01</totfact>
</mgrwt>
</event>
<event>
 6    1  0.9598567E-004  0.4049076E+03  0.7818608E-02  0.1042921E+00
         21   -1    0    0  503  502  0.00000000000E+00  0.00000000000E+00  0.60145162828E+03  0.60145162828E+03  0.00000000000E+00 0. -1.
         21   -1    0    0  501  503 -0.00000000000E+00 -0.00000000000E+00 -0.26625063139E+03  0.26625063139E+03  0.00000000000E+00 0. -1.
    9000007    2    1    2  501    0 -0.43639207986E+02  0.45230267397E+02  0.17289490461E+03  0.43147591343E+03  0.39029304153E+03 0.  0.
    9000005    1    3    3    0    0  0.14546232240E+02 -0.40746784382E+02 -0.11636424442E+03  0.12415124116E+03  0.99999687468E+00 0.  0.
          4    1    3    3  501    0 -0.58185440226E+02  0.85977051779E+02  0.28925914903E+03  0.30732467227E+03  0.00000000000E+00 0.  1.
   -9000007    1    1    2    0  502  0.43639207986E+02 -0.45230267397E+02  0.16230609228E+03  0.43622634624E+03  0.40000000000E+03 0. -1.
<mgrwt>
<rscale>  2 0.40248941E+03</rscale>
<asrwt>0</asrwt>
<pdfrwt beam="1">  1       21 0.92531020E-01 0.40490759E+03</pdfrwt>
<pdfrwt beam="2">  1       21 0.40961636E-01 0.40490759E+03</pdfrwt>
<totfact> 0.50482770E+03</totfact>
</mgrwt>
</event>
<event>
 6    1  0.9598567E-004  0.5603708E+03  0.7818608E-02  0.9991507E-01
         21   -1    0    0  503  502  0.00000000000E+00  0.00000000000E+00  0.81775861155E+03  0.81775861155E+03  0.00000000000E+00 0. -1.
         21   -1    0    0  501  503 -0.00000000000E+00 -0.00000000000E+00 -0.10547176758E+04  0.10547176758E+04  0.00000000000E+00 0.  1.
    9000007    2    1    2  501    0 -0.17185066345E+03  0.35282121173E+03 -0.86525863486E+03  0.10305880475E+04  0.39927905081E+03 0.  0.
    9000005    1    3    3    0    0  0.10236903872E+03  0.23765553235E+03 -0.34421080106E+03  0.43062936233E+03  0.99999687468E+00 0.  0.
          4    1    3    3  501    0 -0.27421970217E+03  0.11516567939E+03 -0.52104783380E+03  0.59995868514E+03  0.00000000000E+00 0.  1.
   -9000007    1    1    2    0  502  0.17185066345E+03 -0.35282121173E+03  0.62829957062E+03  0.84188823986E+03  0.40000000000E+03 0. -1.
<mgrwt>
<rscale>  2 0.56024218E+03</rscale>
<asrwt>0</asrwt>
<pdfrwt beam="1">  1       21 0.12580902E+00 0.56037082E+03</pdfrwt>
<pdfrwt beam="2">  1       21 0.16226426E+00 0.56037082E+03</pdfrwt>
<totfact> 0.85984904E+01</totfact>
</mgrwt>
</event>
<event>
 6    1  0.9598567E-004  0.4832989E+03  0.7818608E-02  0.1018266E+00
         21   -1    0    0  503  502  0.00000000000E+00  0.00000000000E+00  0.72554949291E+03  0.72554949291E+03  0.00000000000E+00 0.  1.
         21   -1    0    0  501  503 -0.00000000000E+00 -0.00000000000E+00 -0.48522621257E+03  0.48522621257E+03  0.00000000000E+00 0.  1.
    9000007    2    1    2  501    0 -0.13986048918E+03  0.23241535698E+03 -0.23142279446E+03  0.53540749947E+03  0.39940809469E+03 0.  0.
    9000005    1    3    3    0    0  0.18870206603E+02 -0.10375059974E+03 -0.86525850217E+02  0.13641112269E+03  0.99999687468E+00 0.  0.
          4    1    3    3  501    0 -0.15873069579E+03  0.33616595672E+03 -0.14489694424E+03  0.39899637679E+03  0.00000000000E+00 0.  1.
   -9000007    1    1    2    0  502  0.13986048918E+03 -0.23241535698E+03  0.47174607480E+03  0.67536820601E+03  0.40000000000E+03 0.  1.
<mgrwt>
<rscale>  2 0.48317644E+03</rscale>
<asrwt>0</asrwt>
<pdfrwt beam="1">  1       21 0.11162300E+00 0.48329893E+03</pdfrwt>
<pdfrwt beam="2">  1       21 0.74650186E-01 0.48329893E+03</pdfrwt>
<totfact> 0.84577799E+02</totfact>
</mgrwt>
</event>
<event>
 6    1  0.9598567E-004  0.5285288E+03  0.7818608E-02  0.1006597E+00
         21   -1    0    0  503  502  0.00000000000E+00  0.00000000000E+00  0.73305352680E+03  0.73305352680E+03  0.00000000000E+00 0.  1.
         21   -1    0    0  501  503 -0.00000000000E+00 -0.00000000000E+00 -0.65417236582E+03  0.65417236582E+03  0.00000000000E+00 0.  1.
    9000007    2    1    2  501    0  0.20963121956E+03  0.27458588179E+03 -0.40880212369E+03  0.66807525413E+03  0.39982835586E+03 0.  0.
    9000005    1    3    3    0    0  0.31711862531E+02  0.28693433846E+03 -0.89322905211E+02  0.30218626409E+03  0.99999687468E+00 0.  0.
          4    1    3    3  501    0  0.17791935703E+03 -0.12348456680E+02 -0.31947921848E+03  0.36588899004E+03  0.00000000000E+00 0.  1.
   -9000007    1    1    2    0  502 -0.20963121956E+03 -0.27458588179E+03  0.48768328467E+03  0.71915063849E+03  0.40000000000E+03 0.  1.
<mgrwt>
<rscale>  2 0.52849629E+03</rscale>
<asrwt>0</asrwt>
<pdfrwt beam="1">  1       21 0.11277747E+00 0.52852876E+03</pdfrwt>
<pdfrwt beam="2">  1       21 0.10064190E+00 0.52852876E+03</pdfrwt>
<totfact> 0.40040785E+02</totfact>
</mgrwt>
</event>
<event>
 6    1  0.9598567E-004  0.5413214E+03  0.7818608E-02  0.1003536E+00
         21   -1    0    0  503  502  0.00000000000E+00  0.00000000000E+00  0.64287155339E+03  0.64287155339E+03  0.00000000000E+00 0. -1.
         21   -1    0    0  501  503 -0.00000000000E+00 -0.00000000000E+00 -0.46362396859E+03  0.46362396859E+03  0.00000000000E+00 0.  1.
    9000007    2    1    2  501    0  0.24474742137E+03 -0.26998102922E+03  0.16230004095E+03  0.56512847861E+03  0.40029718665E+03 0.  0.
    9000005    1    3    3    0    0  0.20866617167E+03 -0.33758698695E+03  0.23354900895E+03  0.46049178552E+03  0.99999687468E+00 0.  0.
          4    1    3    3  501    0  0.36081249699E+02  0.67605957731E+02 -0.71248967996E+02  0.10463669309E+03  0.00000000000E+00 0.  1.
   -9000007    1    1    2    0  502 -0.24474742137E+03  0.26998102922E+03  0.16947543848E+02  0.54136704337E+03  0.40000000000E+03 0.  1.
<mgrwt>
<rscale>  2 0.54126649E+03</rscale>
<asrwt>0</asrwt>
<pdfrwt beam="1">  1       21 0.98903316E-01 0.54132143E+03</pdfrwt>
<pdfrwt beam="2">  1       21 0.71326764E-01 0.54132143E+03</pdfrwt>
<totfact> 0.12386321E+03</totfact>
</mgrwt>
</event>
<event>
 6    1  0.9598567E-004  0.4470289E+03  0.7818608E-02  0.1028631E+00
         21   -1    0    0  503  502  0.00000000000E+00  0.00000000000E+00  0.30899499514E+04  0.30899499514E+04  0.00000000000E+00 0. -1.
         21   -1    0    0  501  503 -0.00000000000E+00 -0.00000000000E+00 -0.86620883178E+02  0.86620883178E+02  0.00000000000E+00 0. -1.
    9000007    2    1    2  501    0  0.10792408598E+03  0.16789054659E+03  0.70117100521E+03  0.83141271814E+03  0.39971425466E+03 0.  0.
    9000005    1    3    3    0    0  0.16873272486E+03  0.19435551530E+03  0.71821394361E+03  0.76293975355E+03  0.99999687468E+00 0.  0.
          4    1    3    3  501    0 -0.60808638874E+02 -0.26464968714E+02 -0.17042938400E+02  0.68472964592E+02  0.00000000000E+00 0.  1.
   -9000007    1    1    2    0  502 -0.10792408598E+03 -0.16789054659E+03  0.23021580630E+04  0.23451581164E+04  0.40000000000E+03 0. -1.
<mgrwt>
<rscale>  2 0.44696498E+03</rscale>
<asrwt>0</asrwt>
<pdfrwt beam="1">  1       21 0.47537683E+00 0.44702891E+03</pdfrwt>
<pdfrwt beam="2">  1       21 0.13326292E-01 0.44702891E+03</pdfrwt>
<totfact> 0.10247657E+02</totfact>
</mgrwt>
</event>
<event>
 6    1  0.9598567E-004  0.4095837E+03  0.7818608E-02  0.1040654E+00
         21   -1    0    0  503  502  0.00000000000E+00  0.00000000000E+00  0.13778716121E+03  0.13778716121E+03  0.00000000000E+00 0. -1.
         21   -1    0    0  501  503 -0.00000000000E+00 -0.00000000000E+00 -0.13727426029E+04  0.13727426029E+04  0.00000000000E+00 0. -1.
    9000007    2    1    2  501    0  0.59334418602E+02  0.65101672882E+02 -0.87440519815E+03  0.96486019455E+03  0.39826114978E+03 0.  0.
    9000005    1    3    3    0    0  0.13641150834E+03 -0.13534669015E+03 -0.37996700699E+03  0.42579660936E+03  0.99999687468E+00 0.  0.
          4    1    3    3  501    0 -0.77077089737E+02  0.20044836303E+03 -0.49443819116E+03  0.53906358520E+03  0.00000000000E+00 0.  1.
   -9000007    1    1    2    0  502 -0.59334418602E+02 -0.65101672882E+02 -0.36055024356E+03  0.54566956959E+03  0.40000000000E+03 0. -1.
<mgrwt>
<rscale>  2 0.40915853E+03</rscale>
<asrwt>0</asrwt>
<pdfrwt beam="1">  1       21 0.21198026E-01 0.40958369E+03</pdfrwt>
<pdfrwt beam="2">  1       21 0.21119116E+00 0.40958369E+03</pdfrwt>
<totfact> 0.20264500E+03</totfact>
</mgrwt>
</event>
<event>
 6    1  0.9598567E-004  0.4263266E+03  0.7818608E-02  0.1035031E+00
         21   -1    0    0  503  502  0.00000000000E+00  0.00000000000E+00  0.12387137594E+04  0.12387137594E+04  0.00000000000E+00 0. -1.
         21   -1    0    0  501  503 -0.00000000000E+00 -0.00000000000E+00 -0.14814497735E+03  0.14814497735E+03  0.00000000000E+00 0. -1.
    9000007    2    1    2  501    0 -0.30588164829E+02  0.14410916895E+03  0.47701862207E+03  0.63976644848E+03  0.40006406285E+03 0.  0.
    9000005    1    3    3    0    0 -0.15180868986E+03  0.23086325613E+03  0.32995828550E+03  0.43036866930E+03  0.99999687468E+00 0.  0.
          4    1    3    3  501    0  0.12122052504E+03 -0.86754087179E+02  0.14706033657E+03  0.20939777918E+03  0.00000000000E+00 0.  1.
   -9000007    1    1    2    0  502  0.30588164829E+02 -0.14410916895E+03  0.61355015997E+03  0.74709228828E+03  0.40000000000E+03 0. -1.
<mgrwt>
<rscale>  2 0.42631154E+03</rscale>
<asrwt>0</asrwt>
<pdfrwt beam="1">  1       21 0.19057134E+00 0.42632657E+03</pdfrwt>
<pdfrwt beam="2">  1       21 0.22791536E-01 0.42632657E+03</pdfrwt>
<totfact> 0.23986922E+03</totfact>
</mgrwt>
</event>
<event>
 6    1  0.9598567E-004  0.4484223E+03  0.7818608E-02  0.1028203E+00
         21   -1    0    0  503  502  0.00000000000E+00  0.00000000000E+00  0.67417674407E+02  0.67417674407E+02  0.00000000000E+00 0.  1.
         21   -1    0    0  501  503 -0.00000000000E+00 -0.00000000000E+00 -0.30676626470E+04  0.30676626470E+04  0.00000000000E+00 0.  1.
    9000007    2    1    2  501    0 -0.18517692984E+03  0.81752321652E+02 -0.17625204126E+04  0.18186700419E+04  0.40013570103E+03 0.  0.
    9000005    1    3    3    0    0 -0.27244268377E+02 -0.15097757319E+03 -0.85187314763E+03  0.86557803658E+03  0.99999687468E+00 0.  0.
          4    1    3    3  501    0 -0.15793266146E+03  0.23272989484E+03 -0.91064726493E+03  0.95309200533E+03  0.00000000000E+00 0.  1.
   -9000007    1    1    2    0  502  0.18517692984E+03 -0.81752321652E+02 -0.12377245601E+04  0.13164102795E+04  0.40000000000E+03 0. -1.
<mgrwt>
<rscale>  2 0.44839198E+03</rscale>
<asrwt>0</asrwt>
<pdfrwt beam="1">  1       21 0.10371950E-01 0.44842225E+03</pdfrwt>
<pdfrwt beam="2">  1       21 0.47194808E+00 0.44842225E+03</pdfrwt>
<totfact> 0.17063893E+02</totfact>
</mgrwt>
</event>
<event>
 6    1  0.9598567E-004  0.5951389E+03  0.7818608E-02  0.9916415E-01
         21   -1    0    0  503  502  0.00000000000E+00  0.00000000000E+00  0.32749684420E+04  0.32749684420E+04  0.00000000000E+00 0. -1.
         21   -1    0    0  501  503 -0.00000000000E+00 -0.00000000000E+00 -0.11601163384E+03  0.11601163384E+03  0.00000000000E+00 0. -1.
    9000007    2    1    2  501    0 -0.42908010238E+03  0.90030487878E+02  0.20312689148E+04  0.21166586063E+04  0.40246121329E+03 0.  0.
    9000005    1    3    3    0    0 -0.43092137021E+03  0.11691697859E+03  0.11304187824E+04  0.12154054595E+04  0.99999687468E+00 0.  0.
          4    1    3    3  501    0  0.18412678223E+01 -0.26886490717E+02  0.90085013238E+03  0.90125314683E+03  0.00000000000E+00 0.  1.
   -9000007    1    1    2    0  502  0.42908010238E+03 -0.90030487878E+02  0.11276878933E+04  0.12743214695E+04  0.40000000000E+03 0. -1.
<mgrwt>
<rscale>  2 0.59472301E+03</rscale>
<asrwt>0</asrwt>
<pdfrwt beam="1">  1       21 0.50384123E+00 0.59513885E+03</pdfrwt>
<pdfrwt beam="2">  1       21 0.17847946E-01 0.59513885E+03</pdfrwt>
<totfact> 0.34071045E+01</totfact>
</mgrwt>
</event>
<event>
 6    1  0.9598567E-004  0.4793906E+03  0.7818608E-02  0.1019314E+00
         21   -1    0    0  503  502  0.00000000000E+00  0.00000000000E+00  0.25426258621E+03  0.25426258621E+03  0.00000000000E+00 0.  1.
         21   -1    0    0  501  503 -0.00000000000E+00 -0.00000000000E+00 -0.91769916429E+03  0.91769916429E+03  0.00000000000E+00 0.  1.
    9000007    2    1    2  501    0 -0.25228133659E+03  0.78545935479E+02 -0.40447330764E+03  0.62709726073E+03  0.39979617439E+03 0.  0.
    9000005    1    3    3    0    0  0.35447435084E+02  0.10957765004E+03  0.16393231858E+02  0.11633365844E+03  0.99999687468E+00 0.  0.
          4    1    3    3  501    0 -0.28772877167E+03 -0.31031714559E+02 -0.42086653950E+03  0.51076360229E+03  0.00000000000E+00 0.  1.
   -9000007    1    1    2    0  502  0.25228133659E+03 -0.78545935479E+02 -0.25896327044E+03  0.54486448977E+03  0.40000000000E+03 0.  1.
<mgrwt>
<rscale>  2 0.47934807E+03</rscale>
<asrwt>0</asrwt>
<pdfrwt beam="1">  1       21 0.39117322E-01 0.47939059E+03</pdfrwt>
<pdfrwt beam="2">  1       21 0.14118448E+00 0.47939059E+03</pdfrwt>
<totfact> 0.18687117E+03</totfact>
</mgrwt>
</event>
<event>
 6    1  0.9598567E-004  0.4622840E+03  0.7818608E-02  0.1024171E+00
         21   -1    0    0  503  502  0.00000000000E+00  0.00000000000E+00  0.91992344919E+03  0.91992344919E+03  0.00000000000E+00 0.  1.
         21   -1    0    0  501  503 -0.00000000000E+00 -0.00000000000E+00 -0.17770945168E+04  0.17770945168E+04  0.00000000000E+00 0. -1.
    9000007    2    1    2  501    0 -0.16565769009E+03 -0.16206180722E+03 -0.16859670725E+04  0.17480135839E+04  0.39919922377E+03 0.  0.
    9000005    1    3    3    0    0 -0.11319990785E+03  0.64668933893E+02 -0.12221768789E+04  0.12291109037E+04  0.99999687468E+00 0.  0.
          4    1    3    3  501    0 -0.52457782246E+02 -0.22673074111E+03 -0.46379019357E+03  0.51890268022E+03  0.00000000000E+00 0.  1.
   -9000007    1    1    2    0  502  0.16565769009E+03  0.16206180722E+03  0.82879600485E+03  0.94900438213E+03  0.40000000000E+03 0.  1.
<mgrwt>
<rscale>  2 0.46211073E+03</rscale>
<asrwt>0</asrwt>
<pdfrwt beam="1">  1       21 0.14152668E+00 0.46228400E+03</pdfrwt>
<pdfrwt beam="2">  1       21 0.27339916E+00 0.46228400E+03</pdfrwt>
<totfact> 0.12432006E+01</totfact>
</mgrwt>
</event>
<event>
 6    1  0.9598567E-004  0.4439836E+03  0.7818608E-02  0.1029540E+00
         21   -1    0    0  503  502  0.00000000000E+00  0.00000000000E+00  0.21588805953E+03  0.21588805953E+03  0.00000000000E+00 0.  1.
         21   -1    0    0  501  503 -0.00000000000E+00 -0.00000000000E+00 -0.10723246317E+04  0.10723246317E+04  0.00000000000E+00 0. -1.
    9000007    2    1    2  501    0 -0.18709432189E+03  0.44910792454E+02 -0.67666562835E+03  0.80931932439E+03  0.40012514502E+03 0.  0.
    9000005    1    3    3    0    0  0.55248242357E+02 -0.71893575457E+02 -0.44546036220E+03  0.45459541217E+03  0.99999687468E+00 0.  0.
          4    1    3    3  501    0 -0.24234256425E+03  0.11680436791E+03 -0.23120526614E+03  0.35472391222E+03  0.00000000000E+00 0.  1.
   -9000007    1    1    2    0  502  0.18709432189E+03 -0.44910792454E+02 -0.17977094383E+03  0.47889336684E+03  0.40000000000E+03 0.  1.
<mgrwt>
<rscale>  2 0.44395536E+03</rscale>
<asrwt>0</asrwt>
<pdfrwt beam="1">  1       21 0.33213547E-01 0.44398355E+03</pdfrwt>
<pdfrwt beam="2">  1       21 0.16497302E+00 0.44398355E+03</pdfrwt>
<totfact> 0.17248619E+03</totfact>
</mgrwt>
</event>
<event>
 6    1  0.9598567E-004  0.4442790E+03  0.7818608E-02  0.1029498E+00
         21   -1    0    0  503  502  0.00000000000E+00  0.00000000000E+00  0.63451318769E+03  0.63451318769E+03  0.00000000000E+00 0. -1.
         21   -1    0    0  501  503 -0.00000000000E+00 -0.00000000000E+00 -0.13821561183E+04  0.13821561183E+04  0.00000000000E+00 0. -1.
    9000007    2    1    2  501    0  0.51045109463E+02  0.18473665936E+03 -0.12617424460E+04  0.13376762660E+04  0.40081236992E+03 0.  0.
    9000005    1    3    3    0    0  0.14445991524E+03  0.24310655545E+03 -0.11352672944E+04  0.11699582446E+04  0.99999687468E+00 0.  0.
          4    1    3    3  501    0 -0.93414805774E+02 -0.58369896085E+02 -0.12647515167E+03  0.16771802138E+03  0.00000000000E+00 0.  1.
   -9000007    1    1    2    0  502 -0.51045109463E+02 -0.18473665936E+03  0.51409951548E+03  0.67899303997E+03  0.40000000000E+03 0. -1.
<mgrwt>
<rscale>  2 0.44409566E+03</rscale>
<asrwt>0</asrwt>
<pdfrwt beam="1">  1       21 0.97617414E-01 0.44427896E+03</pdfrwt>
<pdfrwt beam="2">  1       21 0.21263940E+00 0.44427896E+03</pdfrwt>
<totfact> 0.76848746E+01</totfact>
</mgrwt>
</event>
<event>
 6    1  0.9598567E-004  0.4177709E+03  0.7818608E-02  0.1037849E+00
         21   -1    0    0  503  502  0.00000000000E+00  0.00000000000E+00  0.55798533441E+03  0.55798533441E+03  0.00000000000E+00 0. -1.
         21   -1    0    0  501  503 -0.00000000000E+00 -0.00000000000E+00 -0.59088306073E+03  0.59088306073E+03  0.00000000000E+00 0. -1.
    9000007    2    1    2  501    0  0.11552779847E+03 -0.25107864068E+02 -0.41088818397E+03  0.58597065741E+03  0.40069369170E+03 0.  0.
    9000005    1    3    3    0    0  0.16935314673E+02  0.82502784369E+02 -0.43054430702E+03  0.43870595461E+03  0.99999687468E+00 0.  0.
          4    1    3    3  501    0  0.98592483801E+02 -0.10761064844E+03  0.19656123046E+02  0.14726470280E+03  0.00000000000E+00 0.  1.
   -9000007    1    1    2    0  502 -0.11552779847E+03  0.25107864068E+02  0.37799045765E+03  0.56289773772E+03  0.40000000000E+03 0. -1.
<mgrwt>
<rscale>  2 0.41760446E+03</rscale>
<asrwt>0</asrwt>
<pdfrwt beam="1">  1       21 0.85843897E-01 0.41777088E+03</pdfrwt>
<pdfrwt beam="2">  1       21 0.90905087E-01 0.41777088E+03</pdfrwt>
<totfact> 0.10372673E+03</totfact>
</mgrwt>
</event>
<event>
 6    1  0.9598567E-004  0.4317902E+03  0.7818608E-02  0.1033347E+00
         21   -1    0    0  503  502  0.00000000000E+00  0.00000000000E+00  0.58286867439E+03  0.58286867439E+03  0.00000000000E+00 0.  1.
         21   -1    0    0  501  503 -0.00000000000E+00 -0.00000000000E+00 -0.41277502229E+03  0.41277502229E+03  0.00000000000E+00 0. -1.
    9000007    2    1    2  501    0  0.14493698487E+03  0.69838621304E+02 -0.15168760721E+03  0.45765917881E+03  0.40069768050E+03 0.  0.
    9000005    1    3    3    0    0  0.12073421064E+02  0.75494006486E+02 -0.26941318565E+03  0.28005281128E+03  0.99999687468E+00 0.  0.
          4    1    3    3  501    0  0.13286356381E+03 -0.56553851821E+01  0.11772557844E+03  0.17760636753E+03  0.00000000000E+00 0.  1.
   -9000007    1    1    2    0  502 -0.14493698487E+03 -0.69838621304E+02  0.32178125932E+03  0.53798451786E+03  0.40000000000E+03 0.  1.
<mgrwt>
<rscale>  2 0.43162829E+03</rscale>
<asrwt>0</asrwt>
<pdfrwt beam="1">  1       21 0.89672104E-01 0.43179022E+03</pdfrwt>
<pdfrwt beam="2">  1       21 0.63503849E-01 0.43179022E+03</pdfrwt>
<totfact> 0.21131856E+03</totfact>
</mgrwt>
</event>
<event>
 6    1  0.9598567E-004  0.4171869E+03  0.7818608E-02  0.1037993E+00
         21   -1    0    0  503  502  0.00000000000E+00  0.00000000000E+00  0.16310476372E+03  0.16310476372E+03  0.00000000000E+00 0.  1.
         21   -1    0    0  501  503 -0.00000000000E+00 -0.00000000000E+00 -0.12167819463E+04  0.12167819463E+04  0.00000000000E+00 0. -1.
    9000007    2    1    2  501    0  0.71513261290E+02  0.94103004747E+02 -0.76908295036E+03  0.87494770473E+03  0.40009421321E+03 0.  0.
    9000005    1    3    3    0    0  0.76140074136E+02 -0.15249094161E+03 -0.32391728718E+03  0.36602487223E+03  0.99999687468E+00 0.  0.
          4    1    3    3  501    0 -0.46268128456E+01  0.24659394635E+03 -0.44516566318E+03  0.50892283251E+03  0.00000000000E+00 0.  1.
   -9000007    1    1    2    0  502 -0.71513261290E+02 -0.94103004747E+02 -0.28459423224E+03  0.50493900529E+03  0.40000000000E+03 0.  1.
<mgrwt>
<rscale>  2 0.41716430E+03</rscale>
<asrwt>0</asrwt>
<pdfrwt beam="1">  1       21 0.25093041E-01 0.41718689E+03</pdfrwt>
<pdfrwt beam="2">  1       21 0.18719722E+00 0.41718689E+03</pdfrwt>
<totfact> 0.21085096E+03</totfact>
</mgrwt>
</event>
<event>
 6    1  0.9598567E-004  0.4859117E+03  0.7818608E-02  0.1017664E+00
         21   -1    0    0  503  502  0.00000000000E+00  0.00000000000E+00  0.60146839127E+03  0.60146839127E+03  0.00000000000E+00 0. -1.
         21   -1    0    0  501  503 -0.00000000000E+00 -0.00000000000E+00 -0.81312490128E+03  0.81312490128E+03  0.00000000000E+00 0. -1.
    9000007    2    1    2  501    0  0.65843215940E+02 -0.26411439917E+03 -0.61562786764E+03  0.78428812620E+03  0.40251515319E+03 0.  0.
    9000005    1    3    3    0    0  0.21379262461E+03 -0.69117801557E+02 -0.19443560806E+03  0.29713761543E+03  0.99999687468E+00 0.  0.
          4    1    3    3  501    0 -0.14794940867E+03 -0.19499659762E+03 -0.42119225959E+03  0.48715051077E+03  0.00000000000E+00 0.  1.
   -9000007    1    1    2    0  502 -0.65843215940E+02  0.26411439917E+03  0.40397135763E+03  0.63030516634E+03  0.40000000000E+03 0. -1.
<mgrwt>
<rscale>  2 0.48539052E+03</rscale>
<asrwt>0</asrwt>
<pdfrwt beam="1">  1       21 0.92533599E-01 0.48591171E+03</pdfrwt>
<pdfrwt beam="2">  1       21 0.12509614E+00 0.48591171E+03</pdfrwt>
<totfact> 0.38349943E+02</totfact>
</mgrwt>
</event>
<event>
 6    1  0.9598567E-004  0.4685746E+03  0.7818608E-02  0.1022331E+00
         21   -1    0    0  503  502  0.00000000000E+00  0.00000000000E+00  0.13058620292E+03  0.13058620292E+03  0.00000000000E+00 0.  1.
         21   -1    0    0  501  503 -0.00000000000E+00 -0.00000000000E+00 -0.26071906027E+04  0.26071906027E+04  0.00000000000E+00 0.  1.
    9000007    2    1    2  501    0  0.12123854178E+03  0.21180972850E+03 -0.20541120882E+04  0.21068553379E+04  0.39987597942E+03 0.  0.
    9000005    1    3    3    0    0 -0.26523055722E+02  0.87530158003E+01 -0.14794908611E+04  0.14797548094E+04  0.99999687468E+00 0.  0.
          4    1    3    3  501    0  0.14776159750E+03  0.20305671270E+03 -0.57462122706E+03  0.62710052851E+03  0.00000000000E+00 0.  1.
   -9000007    1    1    2    0  502 -0.12123854178E+03 -0.21180972850E+03 -0.42249231164E+03  0.63092146777E+03  0.40000000000E+03 0. -1.
<mgrwt>
<rscale>  2 0.46854812E+03</rscale>
<asrwt>0</asrwt>
<pdfrwt beam="1">  1       21 0.20090187E-01 0.46857459E+03</pdfrwt>
<pdfrwt beam="2">  1       21 0.40110621E+00 0.46857459E+03</pdfrwt>
<totfact> 0.14705484E+02</totfact>
</mgrwt>
</event>
<event>
 6    1  0.9598567E-004  0.4489898E+03  0.7818608E-02  0.1028357E+00
         21   -1    0    0  503  502  0.00000000000E+00  0.00000000000E+00  0.68362247066E+03  0.68362247066E+03  0.00000000000E+00 0. -1.
         21   -1    0    0  501  503 -0.00000000000E+00 -0.00000000000E+00 -0.43780303085E+03  0.43780303085E+03  0.00000000000E+00 0. -1.
    9000007    2    1    2  501    0  0.20219869136E+03  0.26599648376E+02 -0.20109227257E+03  0.48792575349E+03  0.39502099532E+03 0.  0.
    9000005    1    3    3    0    0  0.15874385252E+03  0.18272486092E+03 -0.16976416549E+02  0.24264621205E+03  0.99999687468E+00 0.  0.
          4    1    3    3  501    0  0.43454838846E+02 -0.15612521254E+03 -0.18411585602E+03  0.24527954144E+03  0.00000000000E+00 0.  1.
   -9000007    1    1    2    0  502 -0.20219869136E+03 -0.26599648376E+02  0.44691171238E+03  0.63349974802E+03  0.40000000000E+03 0. -1.
<mgrwt>
<rscale>  2 0.44787819E+03</rscale>
<asrwt>0</asrwt>
<pdfrwt beam="1">  1       21 0.10517269E+00 0.44898981E+03</pdfrwt>
<pdfrwt beam="2">  1       21 0.67354312E-01 0.44898981E+03</pdfrwt>
<totfact> 0.12536346E+03</totfact>
</mgrwt>
</event>
<event>
 6    1  0.9598567E-004  0.4204505E+03  0.7818608E-02  0.1037142E+00
         21   -1    0    0  503  502  0.00000000000E+00  0.00000000000E+00  0.15797015414E+03  0.15797015414E+03  0.00000000000E+00 0.  1.
         21   -1    0    0  501  503 -0.00000000000E+00 -0.00000000000E+00 -0.11219345687E+04  0.11219345687E+04  0.00000000000E+00 0.  1.
    9000007    2    1    2  501    0 -0.83341148962E+02 -0.99160902911E+02 -0.41969671883E+03  0.59215043795E+03  0.39713747443E+03 0.  0.
    9000005    1    3    3    0    0 -0.32317236212E+01  0.35359388892E+01 -0.45671831454E+03  0.45674453005E+03  0.99999687468E+00 0.  0.
          4    1    3    3  501    0 -0.80109425341E+02 -0.10269684180E+03  0.37021595714E+02  0.13540590790E+03  0.00000000000E+00 0.  1.
   -9000007    1    1    2    0  502  0.83341148962E+02  0.99160902911E+02 -0.54426769574E+03  0.68775428491E+03  0.40000000000E+03 0.  1.
<mgrwt>
<rscale>  2 0.41976826E+03</rscale>
<asrwt>0</asrwt>
<pdfrwt beam="1">  1       21 0.24303100E-01 0.42045051E+03</pdfrwt>
<pdfrwt beam="2">  1       21 0.17260532E+00 0.42045051E+03</pdfrwt>
<totfact> 0.28377573E+03</totfact>
</mgrwt>
</event>
<event>
 6    1  0.9598567E-004  0.4272232E+03  0.7818608E-02  0.1034761E+00
         21   -1    0    0  503  502  0.00000000000E+00  0.00000000000E+00  0.51195504658E+03  0.51195504658E+03  0.00000000000E+00 0.  1.
         21   -1    0    0  501  503 -0.00000000000E+00 -0.00000000000E+00 -0.41771637876E+03  0.41771637876E+03  0.00000000000E+00 0.  1.
    9000007    2    1    2  501    0 -0.12647430884E+03  0.79419453539E+02 -0.13110170448E+03  0.44688629324E+03  0.40027053573E+03 0.  0.
    9000005    1    3    3    0    0  0.30006040101E+02  0.10729970029E+03 -0.23287004236E+03  0.25815314205E+03  0.99999687468E+00 0.  0.
          4    1    3    3  501    0 -0.15648034894E+03 -0.27880246748E+02  0.10176833788E+03  0.18873315119E+03  0.00000000000E+00 0.  1.
   -9000007    1    1    2    0  502  0.12647430884E+03 -0.79419453539E+02  0.22534037230E+03  0.48278513211E+03  0.40000000000E+03 0. -1.
<mgrwt>
<rscale>  2 0.42715987E+03</rscale>
<asrwt>0</asrwt>
<pdfrwt beam="1">  1       21 0.78762315E-01 0.42722325E+03</pdfrwt>
<pdfrwt beam="2">  1       21 0.64264058E-01 0.42722325E+03</pdfrwt>
<totfact> 0.27901034E+03</totfact>
</mgrwt>
</event>
<event>
 6    1  0.9598567E-004  0.5956704E+03  0.7818608E-02  0.9914599E-01
         21   -1    0    0  503  502  0.00000000000E+00  0.00000000000E+00  0.51298403204E+03  0.51298403204E+03  0.00000000000E+00 0.  1.
         21   -1    0    0  501  503 -0.00000000000E+00 -0.00000000000E+00 -0.10385074024E+04  0.10385074024E+04  0.00000000000E+00 0. -1.
    9000007    2    1    2  501    0 -0.37058995784E+03 -0.23976290202E+03 -0.71125591762E+03  0.92753651210E+03  0.39951950501E+03 0.  0.
    9000005    1    3    3    0    0 -0.38429194025E+03 -0.12274539794E+03 -0.70161248952E+03  0.80932553000E+03  0.99999687468E+00 0.  0.
          4    1    3    3  501    0  0.13701982417E+02 -0.11701750408E+03 -0.96434281026E+01  0.11821098210E+03  0.00000000000E+00 0.  1.
   -9000007    1    1    2    0  502  0.37058995784E+03  0.23976290202E+03  0.18573254725E+03  0.62395492236E+03  0.40000000000E+03 0.  1.
<mgrwt>
<rscale>  2 0.59558970E+03</rscale>
<asrwt>0</asrwt>
<pdfrwt beam="1">  1       21 0.78920621E-01 0.59567035E+03</pdfrwt>
<pdfrwt beam="2">  1       21 0.15977037E+00 0.59567035E+03</pdfrwt>
<totfact> 0.27688957E+02</totfact>
</mgrwt>
</event>
<event>
 6    1  0.9598567E-004  0.4234033E+03  0.7818608E-02  0.1036293E+00
         21   -1    0    0  503  502  0.00000000000E+00  0.00000000000E+00  0.21278677475E+03  0.21278677475E+03  0.00000000000E+00 0.  1.
         21   -1    0    0  501  503 -0.00000000000E+00 -0.00000000000E+00 -0.12392375956E+04  0.12392375956E+04  0.00000000000E+00 0.  1.
    9000007    2    1    2  501    0 -0.10233118771E+03 -0.93801204426E+02 -0.92650606366E+03  0.10169849555E+04  0.39569505410E+03 0.  0.
    9000005    1    3    3    0    0  0.67256528617E+02  0.10111600686E+03 -0.52995955329E+03  0.54369662093E+03  0.99999687468E+00 0.  0.
          4    1    3    3  501    0 -0.16958771632E+03 -0.19491721129E+03 -0.39654651037E+03  0.47328833460E+03  0.00000000000E+00 0.  1.
   -9000007    1    1    2    0  502  0.10233118771E+03  0.93801204426E+02 -0.99944757150E+02  0.43503941478E+03  0.40000000000E+03 0.  1.
<mgrwt>
<rscale>  2 0.42238345E+03</rscale>
<asrwt>0</asrwt>
<pdfrwt beam="1">  1       21 0.32736427E-01 0.42340328E+03</pdfrwt>
<pdfrwt beam="2">  1       21 0.19065194E+00 0.42340328E+03</pdfrwt>
<totfact> 0.11781469E+03</totfact>
</mgrwt>
</event>
<event>
 6    1  0.9598567E-004  0.4332183E+03  0.7818608E-02  0.1032959E+00
         21   -1    0    0  503  502  0.00000000000E+00  0.00000000000E+00  0.11072009055E+04  0.11072009055E+04  0.00000000000E+00 0.  1.
         21   -1    0    0  501  503 -0.00000000000E+00 -0.00000000000E+00 -0.23211554527E+03  0.23211554527E+03  0.00000000000E+00 0.  1.
    9000007    2    1    2  501    0  0.11995323834E+03 -0.10985778000E+03  0.88742575832E+02  0.44221417913E+03  0.40152288134E+03 0.  0.
    9000005    1    3    3    0    0 -0.10730361087E+03 -0.15755498813E+03  0.88110525161E+02  0.21000500906E+03  0.99999687468E+00 0.  0.
          4    1    3    3  501    0  0.22725684921E+03  0.47697208131E+02  0.63205067106E+00  0.23220917007E+03  0.00000000000E+00 0.  1.
   -9000007    1    1    2    0  502 -0.11995323834E+03  0.10985778000E+03  0.78634278440E+03  0.89710227165E+03  0.40000000000E+03 0.  1.
<mgrwt>
<rscale>  2 0.43286514E+03</rscale>
<asrwt>0</asrwt>
<pdfrwt beam="1">  1       21 0.17033860E+00 0.43321835E+03</pdfrwt>
<pdfrwt beam="2">  1       21 0.35710085E-01 0.43321835E+03</pdfrwt>
<totfact> 0.13673758E+03</totfact>
</mgrwt>
</event>
<event>
 6    1  0.9598567E-004  0.4854138E+03  0.7818608E-02  0.1017734E+00
         21   -1    0    0  503  502  0.00000000000E+00  0.00000000000E+00  0.13436717850E+03  0.13436717850E+03  0.00000000000E+00 0. -1.
         21   -1    0    0  501  503 -0.00000000000E+00 -0.00000000000E+00 -0.20182863681E+04  0.20182863681E+04  0.00000000000E+00 0. -1.
    9000007    2    1    2  501    0 -0.27082000537E+03 -0.34579319503E+02 -0.13356508604E+04  0.14211227096E+04  0.40135686153E+03 0.  0.
    9000005    1    3    3    0    0 -0.33060114973E+03 -0.60726825507E+02 -0.13075770265E+04  0.13500901999E+04  0.99999687468E+00 0.  0.
          4    1    3    3  501    0  0.59781144362E+02  0.26147506004E+02 -0.28073833865E+02  0.71032509736E+02  0.00000000000E+00 0.  1.
   -9000007    1    1    2    0  502  0.27082000537E+03  0.34579319503E+02 -0.54826832926E+03  0.73153083702E+03  0.40000000000E+03 0. -1.
<mgrwt>
<rscale>  2 0.48513321E+03</rscale>
<asrwt>0</asrwt>
<pdfrwt beam="1">  1       21 0.20671875E-01 0.48541378E+03</pdfrwt>
<pdfrwt beam="2">  1       21 0.31050558E+00 0.48541378E+03</pdfrwt>
<totfact> 0.50208986E+02</totfact>
</mgrwt>
</event>
<event>
 6    1  0.9598567E-004  0.4743792E+03  0.7818608E-02  0.1020700E+00
         21   -1    0    0  503  502  0.00000000000E+00  0.00000000000E+00  0.11131944723E+04  0.11131944723E+04  0.00000000000E+00 0.  1.
         21   -1    0    0  501  503 -0.00000000000E+00 -0.00000000000E+00 -0.24026610574E+03  0.24026610574E+03  0.00000000000E+00 0.  1.
    9000007    2    1    2  501    0 -0.15253604796E+03  0.20437324040E+03  0.16669886161E+03  0.50269869538E+03  0.39985222339E+03 0.  0.
    9000005    1    3    3    0    0 -0.27760667818E+03  0.66315209185E+02  0.12612705674E+03  0.31204520373E+03  0.99999687468E+00 0.  0.
          4    1    3    3  501    0  0.12507063022E+03  0.13805803122E+03  0.40571804872E+02  0.19065349165E+03  0.00000000000E+00 0.  1.
   -9000007    1    1    2    0  502  0.15253604796E+03 -0.20437324040E+03  0.70622950491E+03  0.85076188262E+03  0.40000000000E+03 0.  1.
<mgrwt>
<rscale>  2 0.47434809E+03</rscale>
<asrwt>0</asrwt>
<pdfrwt beam="1">  1       21 0.17126068E+00 0.47437924E+03</pdfrwt>
<pdfrwt beam="2">  1       21 0.36964017E-01 0.47437924E+03</pdfrwt>
<totfact> 0.12334292E+03</totfact>
</mgrwt>
</event>
<event>
 6    1  0.9598567E-004  0.4963636E+03  0.7818608E-02  0.1014806E+00
         21   -1    0    0  503  502  0.00000000000E+00  0.00000000000E+00  0.17610873790E+04  0.17610873790E+04  0.00000000000E+00 0. -1.
         21   -1    0    0  501  503 -0.00000000000E+00 -0.00000000000E+00 -0.17358637867E+03  0.17358637867E+03  0.00000000000E+00 0.  1.
    9000007    2    1    2  501    0  0.28043607019E+03  0.81388766362E+02  0.36635107596E+03  0.61691973717E+03  0.40138302219E+03 0.  0.
    9000005    1    3    3    0    0  0.22315469437E+03  0.65704577641E+02  0.45453259712E+03  0.51060355559E+03  0.99999687468E+00 0.  0.
          4    1    3    3  501    0  0.57281375818E+02  0.15684188721E+02 -0.88181521161E+02  0.10631618158E+03  0.00000000000E+00 0.  1.
   -9000007    1    1    2    0  502 -0.28043607019E+03 -0.81388766362E+02  0.12211499244E+04  0.13177540205E+04  0.40000000000E+03 0.  1.
<mgrwt>
<rscale>  2 0.49608396E+03</rscale>
<asrwt>0</asrwt>
<pdfrwt beam="1">  1       21 0.27093651E+00 0.49636363E+03</pdfrwt>
<pdfrwt beam="2">  1       21 0.26705598E-01 0.49636363E+03</pdfrwt>
<totfact> 0.52732764E+02</totfact>
</mgrwt>
</event>
<event>
 6    1  0.9598567E-004  0.4294272E+03  0.7818608E-02  0.1034046E+00
         21   -1    0    0  503  502  0.00000000000E+00  0.00000000000E+00  0.13514438162E+04  0.13514438162E+04  0.00000000000E+00 0.  1.
         21   -1    0    0  501  503 -0.00000000000E+00 -0.00000000000E+00 -0.13664719659E+03  0.13664719659E+03  0.00000000000E+00 0.  1.
    9000007    2    1    2  501    0 -0.29047274262E+02 -0.15350550533E+03  0.57779910396E+03  0.71986349489E+03  0.39992994690E+03 0.  0.
    9000005    1    3    3    0    0 -0.99254743619E+02 -0.84494834936E+01 -0.19238036241E+02  0.10145935114E+03  0.99999687468E+00 0.  0.
          4    1    3    3  501    0  0.70207469357E+02 -0.14505602184E+03  0.59703714020E+03  0.61840414375E+03  0.00000000000E+00 0.  1.
   -9000007    1    1    2    0  502  0.29047274262E+02  0.15350550533E+03  0.63699751568E+03  0.76822751792E+03  0.40000000000E+03 0.  1.
<mgrwt>
<rscale>  2 0.42941084E+03</rscale>
<asrwt>0</asrwt>
<pdfrwt beam="1">  1       21 0.20791442E+00 0.42942716E+03</pdfrwt>
<pdfrwt beam="2">  1       21 0.21022647E-01 0.42942716E+03</pdfrwt>
<totfact> 0.21427726E+03</totfact>
</mgrwt>
</event>
<event>
 6    1  0.9598567E-004  0.6968384E+03  0.7818608E-02  0.9722788E-01
         21   -1    0    0  503  502  0.00000000000E+00  0.00000000000E+00  0.61261442108E+03  0.61261442108E+03  0.00000000000E+00 0.  1.
         21   -1    0    0  501  503 -0.00000000000E+00 -0.00000000000E+00 -0.14009217133E+04  0.14009217133E+04  0.00000000000E+00 0.  1.
    9000007    2    1    2  501    0  0.55748703733E+03 -0.12162236033E+03 -0.10576953339E+04  0.12664392783E+04  0.39945616884E+03 0.  0.
    9000005    1    3    3    0    0  0.78832670513E+02 -0.16360035992E+02 -0.56781027666E+03  0.57349084647E+03  0.99999687468E+00 0.  0.
          4    1    3    3  501    0  0.47865436682E+03 -0.10526232434E+03 -0.48988505727E+03  0.69294843180E+03  0.00000000000E+00 0.  1.
   -9000007    1    1    2    0  502 -0.55748703733E+03  0.12162236033E+03  0.26938804174E+03  0.74709685607E+03  0.40000000000E+03 0.  1.
<mgrwt>
<rscale>  2 0.69676041E+03</rscale>
<asrwt>0</asrwt>
<pdfrwt beam="1">  1       21 0.94248373E-01 0.69683843E+03</pdfrwt>
<pdfrwt beam="2">  1       21 0.21552642E+00 0.69683843E+03</pdfrwt>
<totfact> 0.71118054E+01</totfact>
</mgrwt>
</event>
<event>
 6    1  0.9598567E-004  0.6789855E+03  0.7818608E-02  0.9754282E-01
         21   -1    0    0  503  502  0.00000000000E+00  0.00000000000E+00  0.14736293097E+04  0.14736293097E+04  0.00000000000E+00 0. -1.
         21   -1    0    0  501  503 -0.00000000000E+00 -0.00000000000E+00 -0.39961111499E+03  0.39961111499E+03  0.00000000000E+00 0.  1.
    9000007    2    1    2  501    0  0.10551817626E+03 -0.53721550016E+03  0.97482828019E+03  0.11879862979E+04  0.40160514062E+03 0.  0.
    9000005    1    3    3    0    0  0.70364472900E+02 -0.59013182194E+03  0.94829617983E+03  0.11191395672E+04  0.99999687468E+00 0.  0.
          4    1    3    3  501    0  0.35153703357E+02  0.52916321774E+02  0.26532100360E+02  0.68846730636E+02  0.00000000000E+00 0.  1.
   -9000007    1    1    2    0  502 -0.10551817626E+03  0.53721550016E+03  0.99189914494E+02  0.68525412678E+03  0.40000000000E+03 0.  1.
<mgrwt>
<rscale>  2 0.67874830E+03</rscale>
<asrwt>0</asrwt>
<pdfrwt beam="1">  1       21 0.22671220E+00 0.67898547E+03</pdfrwt>
<pdfrwt beam="2">  1       21 0.61478634E-01 0.67898547E+03</pdfrwt>
<totfact> 0.16271409E+02</totfact>
</mgrwt>
</event>
<event>
 6    1  0.9598567E-004  0.4049444E+03  0.7818608E-02  0.1042093E+00
         21   -1    0    0  503  502  0.00000000000E+00  0.00000000000E+00  0.47656356985E+03  0.47656356985E+03  0.00000000000E+00 0. -1.
         21   -1    0    0  501  503 -0.00000000000E+00 -0.00000000000E+00 -0.38985356249E+03  0.38985356249E+03  0.00000000000E+00 0. -1.
    9000007    2    1    2  501    0  0.14292063989E+02 -0.61446544424E+02  0.19197581635E+03  0.44801441790E+03  0.39985280250E+03 0.  0.
    9000005    1    3    3    0    0 -0.92806943330E+02  0.13110537369E+03  0.15756685015E+03  0.22501124417E+03  0.99999687468E+00 0.  0.
          4    1    3    3  501    0  0.10709900732E+03 -0.19255191812E+03  0.34408966198E+02  0.22300317373E+03  0.00000000000E+00 0.  1.
   -9000007    1    1    2    0  502 -0.14292063989E+02  0.61446544424E+02 -0.10526580899E+03  0.41840271445E+03  0.40000000000E+03 0. -1.
<mgrwt>
<rscale>  2 0.40490801E+03</rscale>
<asrwt>0</asrwt>
<pdfrwt beam="1">  1       21 0.73317472E-01 0.40494437E+03</pdfrwt>
<pdfrwt beam="2">  1       21 0.59977471E-01 0.40494437E+03</pdfrwt>
<totfact> 0.38572542E+03</totfact>
</mgrwt>
</event>
<event>
 6    1  0.9598567E-004  0.4751049E+03  0.7818608E-02  0.1020533E+00
         21   -1    0    0  503  502  0.00000000000E+00  0.00000000000E+00  0.95567316946E+03  0.95567316946E+03  0.00000000000E+00 0. -1.
         21   -1    0    0  501  503 -0.00000000000E+00 -0.00000000000E+00 -0.37677655970E+03  0.37677655970E+03  0.00000000000E+00 0. -1.
    9000007    2    1    2  501    0 -0.16581528913E+02  0.25583134149E+03 -0.11807327662E+03  0.48895008785E+03  0.39925714442E+03 0.  0.
    9000005    1    3    3    0    0  0.12288824541E+03  0.18173394172E+03 -0.21209870475E+03  0.30514849989E+03  0.99999687468E+00 0.  0.
          4    1    3    3  501    0 -0.13946977432E+03  0.74097399765E+02  0.94025428129E+02  0.18380158796E+03  0.00000000000E+00 0.  1.
   -9000007    1    1    2    0  502  0.16581528913E+02 -0.25583134149E+03  0.69696988637E+03  0.84349964132E+03  0.40000000000E+03 0. -1.
<mgrwt>
<rscale>  2 0.47494846E+03</rscale>
<asrwt>0</asrwt>
<pdfrwt beam="1">  1       21 0.14702664E+00 0.47510485E+03</pdfrwt>
<pdfrwt beam="2">  1       21 0.57965625E-01 0.47510485E+03</pdfrwt>
<totfact> 0.73032632E+02</totfact>
</mgrwt>
</event>
<event>
 6    1  0.9598567E-004  0.4617617E+03  0.7818608E-02  0.1024296E+00
         21   -1    0    0  503  502  0.00000000000E+00  0.00000000000E+00  0.58856285755E+03  0.58856285755E+03  0.00000000000E+00 0. -1.
         21   -1    0    0  501  503 -0.00000000000E+00 -0.00000000000E+00 -0.51504629620E+03  0.51504629620E+03  0.00000000000E+00 0. -1.
    9000007    2    1    2  501    0  0.10324775903E+03 -0.20554423029E+03  0.33755416892E+03  0.57198486108E+03  0.40039397347E+03 0.  0.
    9000005    1    3    3    0    0 -0.96043934331E+02 -0.78740206215E+02  0.31026595202E+03  0.33420116453E+03  0.99999687468E+00 0.  0.
          4    1    3    3  501    0  0.19929169336E+03 -0.12680402408E+03  0.27288216907E+02  0.23778369655E+03  0.00000000000E+00 0.  1.
   -9000007    1    1    2    0  502 -0.10324775903E+03  0.20554423029E+03 -0.26403760756E+03  0.53162429267E+03  0.40000000000E+03 0. -1.
<mgrwt>
<rscale>  2 0.46167628E+03</rscale>
<asrwt>0</asrwt>
<pdfrwt beam="1">  1       21 0.90548132E-01 0.46176170E+03</pdfrwt>
<pdfrwt beam="2">  1       21 0.79237891E-01 0.46176170E+03</pdfrwt>
<totfact> 0.12382939E+03</totfact>
</mgrwt>
</event>
<event>
 6    1  0.9598567E-004  0.4691953E+03  0.7818608E-02  0.1022160E+00
         21   -1    0    0  503  502  0.00000000000E+00  0.00000000000E+00  0.45945534185E+03  0.45945534185E+03  0.00000000000E+00 0. -1.
         21   -1    0    0  501  503 -0.00000000000E+00 -0.00000000000E+00 -0.51668408328E+03  0.51668408328E+03  0.00000000000E+00 0. -1.
    9000007    2    1    2  501    0  0.22343070256E+03 -0.10031615932E+03 -0.16048501399E+03  0.49588275575E+03  0.40019952157E+03 0.  0.
    9000005    1    3    3    0    0  0.16001794847E+03 -0.20252885573E+03 -0.23937894093E+03  0.35203261012E+03  0.99999687468E+00 0.  0.
          4    1    3    3  501    0  0.63412754085E+02  0.10221269641E+03  0.78893926938E+02  0.14385014562E+03  0.00000000000E+00 0.  1.
   -9000007    1    1    2    0  502 -0.22343070256E+03  0.10031615932E+03  0.10325627257E+03  0.48025666939E+03  0.40000000000E+03 0. -1.
<mgrwt>
<rscale>  2 0.46915279E+03</rscale>
<asrwt>0</asrwt>
<pdfrwt beam="1">  1       21 0.70685437E-01 0.46919534E+03</pdfrwt>
<pdfrwt beam="2">  1       21 0.79489859E-01 0.46919534E+03</pdfrwt>
<totfact> 0.21739400E+03</totfact>
</mgrwt>
</event>
<event>
 6    1  0.9598567E-004  0.4091980E+03  0.7818608E-02  0.1040664E+00
         21   -1    0    0  503  502  0.00000000000E+00  0.00000000000E+00  0.68799314065E+03  0.68799314065E+03  0.00000000000E+00 0. -1.
         21   -1    0    0  501  503 -0.00000000000E+00 -0.00000000000E+00 -0.24537211654E+03  0.24537211654E+03  0.00000000000E+00 0. -1.
    9000007    2    1    2  501    0 -0.50359538053E+02  0.68363181501E+02  0.17757200101E+03  0.44606597307E+03  0.40029168006E+03 0.  0.
    9000005    1    3    3    0    0 -0.64548119877E+02  0.17697963504E+03 -0.48782766053E+02  0.19459961268E+03  0.99999687468E+00 0.  0.
          4    1    3    3  501    0  0.14188581825E+02 -0.10861645354E+03  0.22635476707E+03  0.25146636039E+03  0.00000000000E+00 0.  1.
   -9000007    1    1    2    0  502  0.50359538053E+02 -0.68363181501E+02  0.26504902310E+03  0.48729928412E+03  0.40000000000E+03 0. -1.
<mgrwt>
<rscale>  2 0.40912669E+03</rscale>
<asrwt>0</asrwt>
<pdfrwt beam="1">  1       21 0.10584510E+00 0.40919804E+03</pdfrwt>
<pdfrwt beam="2">  1       21 0.37749557E-01 0.40919804E+03</pdfrwt>
<totfact> 0.43055534E+03</totfact>
</mgrwt>
</event>
<event>
 6    1  0.9598567E-004  0.4401315E+03  0.7818608E-02  0.1030765E+00
         21   -1    0    0  503  502  0.00000000000E+00  0.00000000000E+00  0.86336841412E+03  0.86336841412E+03  0.00000000000E+00 0. -1.
         21   -1    0    0  501  503 -0.00000000000E+00 -0.00000000000E+00 -0.75387447720E+03  0.75387447720E+03  0.00000000000E+00 0. -1.
    9000007    2    1    2  501    0 -0.16142466875E+03 -0.83612617587E+02 -0.62317398353E+03  0.76292955585E+03  0.40083250859E+03 0.  0.
    9000005    1    3    3    0    0 -0.28341540176E+03 -0.10982155522E+02 -0.31653656844E+03  0.42501917233E+03  0.99999687468E+00 0.  0.
          4    1    3    3  501    0  0.12199073301E+03 -0.72630462065E+02 -0.30663741509E+03  0.33791038352E+03  0.00000000000E+00 0.  1.
   -9000007    1    1    2    0  502  0.16142466875E+03  0.83612617587E+02  0.73266792045E+03  0.85431333547E+03  0.40000000000E+03 0. -1.
<mgrwt>
<rscale>  2 0.43994182E+03</rscale>
<asrwt>0</asrwt>
<pdfrwt beam="1">  1       21 0.13282591E+00 0.44013145E+03</pdfrwt>
<pdfrwt beam="2">  1       21 0.11598069E+00 0.44013145E+03</pdfrwt>
<totfact> 0.19296101E+02</totfact>
</mgrwt>
</event>
<event>
 6    1  0.9598567E-004  0.4285957E+03  0.7818608E-02  0.1034308E+00
         21   -1    0    0  503  502  0.00000000000E+00  0.00000000000E+00  0.11139345218E+04  0.11139345218E+04  0.00000000000E+00 0.  1.
         21   -1    0    0  501  503 -0.00000000000E+00 -0.00000000000E+00 -0.18250625848E+03  0.18250625848E+03  0.00000000000E+00 0.  1.
    9000007    2    1    2  501    0 -0.15349825418E+03 -0.11514547718E+02  0.26428385488E+03  0.50348683423E+03  0.39994841848E+03 0.  0.
    9000005    1    3    3    0    0 -0.25156229552E+03  0.44159273571E+02  0.29141671472E+03  0.38750268590E+03  0.99999687468E+00 0.  0.
          4    1    3    3  501    0  0.98064041339E+02 -0.55673821289E+02 -0.27132859837E+02  0.11598414833E+03  0.00000000000E+00 0.  1.
   -9000007    1    1    2    0  502  0.15349825418E+03  0.11514547718E+02  0.66714440844E+03  0.79295394605E+03  0.40000000000E+03 0.  1.
<mgrwt>
<rscale>  2 0.42858369E+03</rscale>
<asrwt>0</asrwt>
<pdfrwt beam="1">  1       21 0.17137454E+00 0.42859573E+03</pdfrwt>
<pdfrwt beam="2">  1       21 0.28077887E-01 0.42859573E+03</pdfrwt>
<totfact> 0.21771979E+03</totfact>
</mgrwt>
</event>
<event>
 6    1  0.9598567E-004  0.4056984E+03  0.7818608E-02  0.1041854E+00
         21   -1    0    0  503  502  0.00000000000E+00  0.00000000000E+00  0.39399215959E+03  0.39399215959E+03  0.00000000000E+00 0. -1.
         21   -1    0    0  501  503 -0.00000000000E+00 -0.00000000000E+00 -0.45745720298E+03  0.45745720298E+03  0.00000000000E+00 0. -1.
    9000007    2    1    2  501    0 -0.61418366254E+02  0.23210821138E+02 -0.15772765375E+03  0.43528064962E+03  0.40035018826E+03 0.  0.
    9000005    1    3    3    0    0 -0.12807983680E+03 -0.12775327373E+03 -0.19511077959E+03  0.26607247105E+03  0.99999687468E+00 0.  0.
          4    1    3    3  501    0  0.66661470545E+02  0.15096409487E+03  0.37383125841E+02  0.16920817857E+03  0.00000000000E+00 0.  1.
   -9000007    1    1    2    0  502  0.61418366254E+02 -0.23210821138E+02  0.94262610359E+02  0.41616871296E+03  0.40000000000E+03 0. -1.
<mgrwt>
<rscale>  2 0.40561203E+03</rscale>
<asrwt>0</asrwt>
<pdfrwt beam="1">  1       21 0.60614179E-01 0.40569845E+03</pdfrwt>
<pdfrwt beam="2">  1       21 0.70378031E-01 0.40569845E+03</pdfrwt>
<totfact> 0.41326368E+03</totfact>
</mgrwt>
</event>
<event>
 6    1  0.9598567E-004  0.4309670E+03  0.7818608E-02  0.1033560E+00
         21   -1    0    0  503  502  0.00000000000E+00  0.00000000000E+00  0.30879732183E+03  0.30879732183E+03  0.00000000000E+00 0.  1.
         21   -1    0    0  501  503 -0.00000000000E+00 -0.00000000000E+00 -0.60519715282E+03  0.60519715282E+03  0.00000000000E+00 0.  1.
    9000007    2    1    2  501    0  0.12283426805E+03  0.10291491349E+03 -0.11194126972E+03  0.44526779774E+03  0.40006602831E+03 0.  0.
    9000005    1    3    3    0    0  0.18152260438E+03  0.98521813749E+02  0.97010273858E+02  0.22818632061E+03  0.99999687468E+00 0.  0.
          4    1    3    3  501    0 -0.58688336338E+02  0.43930997370E+01 -0.20895154358E+03  0.21708147712E+03  0.00000000000E+00 0.  1.
   -9000007    1    1    2    0  502 -0.12283426805E+03 -0.10291491349E+03 -0.18445856127E+03  0.46872667692E+03  0.40000000000E+03 0. -1.
<mgrwt>
<rscale>  2 0.43095169E+03</rscale>
<asrwt>0</asrwt>
<pdfrwt beam="1">  1       21 0.47507280E-01 0.43096701E+03</pdfrwt>
<pdfrwt beam="2">  1       21 0.93107255E-01 0.43096701E+03</pdfrwt>
<totfact> 0.36166638E+03</totfact>
</mgrwt>
</event>
<event>
 6    1  0.9598567E-004  0.4041461E+03  0.7818608E-02  0.1042603E+00
         21   -1    0    0  503  502  0.00000000000E+00  0.00000000000E+00  0.10925406739E+03  0.10925406739E+03  0.00000000000E+00 0.  1.
         21   -1    0    0  501  503 -0.00000000000E+00 -0.00000000000E+00 -0.15659094538E+04  0.15659094538E+04  0.00000000000E+00 0.  1.
    9000007    2    1    2  501    0  0.40119507588E+01  0.31179830522E+02 -0.92210710658E+03  0.10067847805E+04  0.40292158121E+03 0.  0.
    9000005    1    3    3    0    0  0.11783306615E+03  0.14434546214E+03 -0.22847913836E+03  0.29482869700E+03  0.99999687468E+00 0.  0.
          4    1    3    3  501    0 -0.11382111539E+03 -0.11316563161E+03 -0.69362796822E+03  0.71195608346E+03  0.00000000000E+00 0.  1.
   -9000007    1    1    2    0  502 -0.40119507588E+01 -0.31179830522E+02 -0.53454827988E+03  0.66837874076E+03  0.40000000000E+03 0.  1.
<mgrwt>
<rscale>  2 0.40341597E+03</rscale>
<asrwt>0</asrwt>
<pdfrwt beam="1">  1       21 0.16808319E-01 0.40414611E+03</pdfrwt>
<pdfrwt beam="2">  1       21 0.24090913E+00 0.40414611E+03</pdfrwt>
<totfact> 0.20453396E+03</totfact>
</mgrwt>
</event>
<event>
 6    1  0.9598567E-004  0.4271693E+03  0.7818608E-02  0.1034797E+00
         21   -1    0    0  503  502  0.00000000000E+00  0.00000000000E+00  0.11495399662E+03  0.11495399662E+03  0.00000000000E+00 0. -1.
         21   -1    0    0  501  503 -0.00000000000E+00 -0.00000000000E+00 -0.17284901792E+04  0.17284901792E+04  0.00000000000E+00 0. -1.
    9000007    2    1    2  501    0  0.61090870942E+02 -0.13689958960E+03 -0.54127076727E+03  0.68922291756E+03  0.39947539906E+03 0.  0.
    9000005    1    3    3    0    0 -0.70323133230E+02 -0.20459715632E+03 -0.13049245306E+03  0.25265513995E+03  0.99999687468E+00 0.  0.
          4    1    3    3  501    0  0.13141400417E+03  0.67697566718E+02 -0.41077831420E+03  0.43656777762E+03  0.00000000000E+00 0.  1.
   -9000007    1    1    2    0  502 -0.61090870942E+02  0.13689958960E+03 -0.10722654153E+04  0.11542212583E+04  0.40000000000E+03 0. -1.
<mgrwt>
<rscale>  2 0.42704643E+03</rscale>
<asrwt>0</asrwt>
<pdfrwt beam="1">  1       21 0.17685231E-01 0.42716928E+03</pdfrwt>
<pdfrwt beam="2">  1       21 0.26592155E+00 0.42716928E+03</pdfrwt>
<totfact> 0.12928419E+03</totfact>
</mgrwt>
</event>
<event>
 6    1  0.9598567E-004  0.5393943E+03  0.7818608E-02  0.1004075E+00
         21   -1    0    0  503  502  0.00000000000E+00  0.00000000000E+00  0.52041004804E+03  0.52041004804E+03  0.00000000000E+00 0. -1.
         21   -1    0    0  501  503 -0.00000000000E+00 -0.00000000000E+00 -0.56323451134E+03  0.56323451134E+03  0.00000000000E+00 0. -1.
    9000007    2    1    2  501    0 -0.17888711416E+03 -0.31455628562E+03 -0.76523040396E+02  0.54319858564E+03  0.39782241175E+03 0.  0.
    9000005    1    3    3    0    0 -0.20977888478E+03  0.11626848174E+02 -0.26851472505E+02  0.21181209991E+03  0.99999687468E+00 0.  0.
          4    1    3    3  501    0  0.30891770625E+02 -0.32618313380E+03 -0.49671567890E+02  0.33138648573E+03  0.00000000000E+00 0.  1.
   -9000007    1    1    2    0  502  0.17888711416E+03  0.31455628562E+03  0.33698577099E+02  0.54044597374E+03  0.40000000000E+03 0.  1.
<mgrwt>
<rscale>  2 0.53899068E+03</rscale>
<asrwt>0</asrwt>
<pdfrwt beam="1">  1       21 0.80063084E-01 0.53939434E+03</pdfrwt>
<pdfrwt beam="2">  1       21 0.86651464E-01 0.53939434E+03</pdfrwt>
<totfact> 0.13050052E+03</totfact>
</mgrwt>
</event>
<event>
 6    1  0.9598567E-004  0.4493451E+03  0.7818608E-02  0.1027963E+00
         21   -1    0    0  503  502  0.00000000000E+00  0.00000000000E+00  0.30167723925E+03  0.30167723925E+03  0.00000000000E+00 0. -1.
         21   -1    0    0  501  503 -0.00000000000E+00 -0.00000000000E+00 -0.74140712155E+03  0.74140712155E+03  0.00000000000E+00 0. -1.
    9000007    2    1    2  501    0 -0.15058791040E+03 -0.13671677489E+03 -0.56332183284E+02  0.45286237637E+03  0.40067795268E+03 0.  0.
    9000005    1    3    3    0    0 -0.23129380645E+03 -0.21516849475E+03  0.20527707335E+02  0.31657020201E+03  0.99999687468E+00 0.  0.
          4    1    3    3  501    0  0.80705896049E+02  0.78451719863E+02 -0.76859890619E+02  0.13629217436E+03  0.00000000000E+00 0.  1.
   -9000007    1    1    2    0  502  0.15058791040E+03  0.13671677489E+03 -0.38339769901E+03  0.59022198443E+03  0.40000000000E+03 0. -1.
<mgrwt>
<rscale>  2 0.44919392E+03</rscale>
<asrwt>0</asrwt>
<pdfrwt beam="1">  1       21 0.46411883E-01 0.44934510E+03</pdfrwt>
<pdfrwt beam="2">  1       21 0.11406263E+00 0.44934510E+03</pdfrwt>
<totfact> 0.22971635E+03</totfact>
</mgrwt>
</event>
<event>
 6    1  0.9598567E-004  0.6478152E+03  0.7818608E-02  0.9810941E-01
         21   -1    0    0  503  502  0.00000000000E+00  0.00000000000E+00  0.14012482299E+04  0.14012482299E+04  0.00000000000E+00 0. -1.
         21   -1    0    0  501  503 -0.00000000000E+00 -0.00000000000E+00 -0.36990910715E+03  0.36990910715E+03  0.00000000000E+00 0.  1.
    9000007    2    1    2  501    0 -0.24849921369E+03 -0.44470914710E+03  0.12918274610E+03  0.66057000927E+03  0.40018304630E+03 0.  0.
    9000005    1    3    3    0    0  0.10418896729E+02 -0.37514180922E+03  0.11321825606E+03  0.39199401008E+03  0.99999687468E+00 0.  0.
          4    1    3    3  501    0 -0.25891811042E+03 -0.69567337872E+02  0.15964490045E+02  0.26857599919E+03  0.00000000000E+00 0.  1.
   -9000007    1    1    2    0  502  0.24849921369E+03  0.44470914710E+03  0.90215637667E+03  0.11105873278E+04  0.40000000000E+03 0. -1.
<mgrwt>
<rscale>  2 0.64778695E+03</rscale>
<asrwt>0</asrwt>
<pdfrwt beam="1">  1       21 0.21557665E+00 0.64781522E+03</pdfrwt>
<pdfrwt beam="2">  1       21 0.56909094E-01 0.64781522E+03</pdfrwt>
<totfact> 0.23042740E+02</totfact>
</mgrwt>
</event>
<event>
 6    1  0.9598567E-004  0.4972297E+03  0.7818608E-02  0.1014511E+00
         21   -1    0    0  503  502  0.00000000000E+00  0.00000000000E+00  0.32443660096E+03  0.32443660096E+03  0.00000000000E+00 0.  1.
         21   -1    0    0  501  503 -0.00000000000E+00 -0.00000000000E+00 -0.86107859406E+03  0.86107859406E+03  0.00000000000E+00 0.  1.
    9000007    2    1    2  501    0 -0.29473038697E+03 -0.16637916809E+02 -0.67178799894E+02  0.50174731697E+03  0.40011817960E+03 0.  0.
    9000005    1    3    3    0    0  0.76587937831E+02  0.78634936043E+02 -0.42142076986E+02  0.11758452294E+03  0.99999687468E+00 0.  0.
          4    1    3    3  501    0 -0.37131832480E+03 -0.95272852852E+02 -0.25036722907E+02  0.38416279403E+03  0.00000000000E+00 0.  1.
   -9000007    1    1    2    0  502  0.29473038697E+03  0.16637916809E+02 -0.46946319320E+03  0.68376787805E+03  0.40000000000E+03 0.  1.
<mgrwt>
<rscale>  2 0.49720593E+03</rscale>
<asrwt>0</asrwt>
<pdfrwt beam="1">  1       21 0.49913324E-01 0.49722970E+03</pdfrwt>
<pdfrwt beam="2">  1       21 0.13247363E+00 0.49722970E+03</pdfrwt>
<totfact> 0.13188159E+03</totfact>
</mgrwt>
</event>
<event>
 6    1  0.9598567E-004  0.4770280E+03  0.7818608E-02  0.1019971E+00
         21   -1    0    0  503  502  0.00000000000E+00  0.00000000000E+00  0.32308842526E+03  0.32308842526E+03  0.00000000000E+00 0. -1.
         21   -1    0    0  501  503 -0.00000000000E+00 -0.00000000000E+00 -0.82818436435E+03  0.82818436435E+03  0.00000000000E+00 0. -1.
    9000007    2    1    2  501    0  0.33671572021E+02 -0.25772445826E+03 -0.47542683515E+03  0.67332307795E+03  0.39972192906E+03 0.  0.
    9000005    1    3    3    0    0  0.16287888689E+03 -0.29956070839E+03 -0.33884161971E+03  0.48070863633E+03  0.99999687468E+00 0.  0.
          4    1    3    3  501    0 -0.12920731487E+03  0.41836250130E+02 -0.13658521545E+03  0.19261444162E+03  0.00000000000E+00 0.  1.
   -9000007    1    1    2    0  502 -0.33671572021E+02  0.25772445826E+03 -0.29669103931E+02  0.47794971166E+03  0.40000000000E+03 0. -1.
<mgrwt>
<rscale>  2 0.47696966E+03</rscale>
<asrwt>0</asrwt>
<pdfrwt beam="1">  1       21 0.49705912E-01 0.47702796E+03</pdfrwt>
<pdfrwt beam="2">  1       21 0.12741298E+00 0.47702796E+03</pdfrwt>
<totfact> 0.14835737E+03</totfact>
</mgrwt>
</event>
<event>
 6    1  0.9598567E-004  0.6754152E+03  0.7818608E-02  0.9760234E-01
         21   -1    0    0  503  502  0.00000000000E+00  0.00000000000E+00  0.65568307951E+03  0.65568307951E+03  0.00000000000E+00 0. -1.
         21   -1    0    0  501  503 -0.00000000000E+00 -0.00000000000E+00 -0.83786476437E+03  0.83786476437E+03  0.00000000000E+00 0.  1.
    9000007    2    1    2  501    0  0.15097609724E+03  0.52286892238E+03 -0.39867672647E+03  0.78428358074E+03  0.39996488705E+03 0.  0.
    9000005    1    3    3    0    0  0.25369059913E+03  0.35234762640E+03 -0.13656326575E+03  0.45514645496E+03  0.99999687468E+00 0.  0.
          4    1    3    3  501    0 -0.10271450189E+03  0.17052129598E+03 -0.26211346072E+03  0.32913712579E+03  0.00000000000E+00 0.  1.
   -9000007    1    1    2    0  502 -0.15097609724E+03 -0.52286892238E+03  0.21649504160E+03  0.70926426314E+03  0.40000000000E+03 0. -1.
<mgrwt>
<rscale>  2 0.67541000E+03</rscale>
<asrwt>0</asrwt>
<pdfrwt beam="1">  1       21 0.10087432E+00 0.67541520E+03</pdfrwt>
<pdfrwt beam="2">  1       21 0.12890227E+00 0.67541520E+03</pdfrwt>
<totfact> 0.26853073E+02</totfact>
</mgrwt>
</event>
<event>
 6    1  0.9598567E-004  0.4457128E+03  0.7818608E-02  0.1029010E+00
         21   -1    0    0  503  502  0.00000000000E+00  0.00000000000E+00  0.17854396081E+03  0.17854396081E+03  0.00000000000E+00 0. -1.
         21   -1    0    0  501  503 -0.00000000000E+00 -0.00000000000E+00 -0.15981676464E+04  0.15981676464E+04  0.00000000000E+00 0. -1.
    9000007    2    1    2  501    0  0.16196753607E+03 -0.11136556286E+03 -0.11994941504E+04  0.12796273250E+04  0.40003012736E+03 0.  0.
    9000005    1    3    3    0    0  0.40571576677E+02 -0.23356805893E+03 -0.42931027942E+03  0.49041656477E+03  0.99999687468E+00 0.  0.
          4    1    3    3  501    0  0.12139595939E+03  0.12220249607E+03 -0.77018387095E+03  0.78921076024E+03  0.00000000000E+00 0.  1.
   -9000007    1    1    2    0  502 -0.16196753607E+03  0.11136556286E+03 -0.22012953518E+03  0.49708428218E+03  0.40000000000E+03 0. -1.
<mgrwt>
<rscale>  2 0.44570601E+03</rscale>
<asrwt>0</asrwt>
<pdfrwt beam="1">  1       21 0.27468303E-01 0.44571277E+03</pdfrwt>
<pdfrwt beam="2">  1       21 0.24587194E+00 0.44571277E+03</pdfrwt>
<totfact> 0.72854094E+02</totfact>
</mgrwt>
</event>
<event>
 6    1  0.9598567E-004  0.6697520E+03  0.7818608E-02  0.9771128E-01
         21   -1    0    0  503  502  0.00000000000E+00  0.00000000000E+00  0.32474892955E+03  0.32474892955E+03  0.00000000000E+00 0. -1.
         21   -1    0    0  501  503 -0.00000000000E+00 -0.00000000000E+00 -0.13906786700E+04  0.13906786700E+04  0.00000000000E+00 0.  1.
    9000007    2    1    2  501    0 -0.80499049307E+02 -0.53111920267E+03 -0.61427925724E+03  0.90761830066E+03  0.39732136796E+03 0.  0.
    9000005    1    3    3    0    0 -0.11833487972E+03  0.16276127327E+02 -0.11045957927E+03  0.16269718720E+03  0.99999687468E+00 0.  0.
          4    1    3    3  501    0  0.37835830409E+02 -0.54739533000E+03 -0.50381967797E+03  0.74492111346E+03  0.00000000000E+00 0.  1.
   -9000007    1    1    2    0  502  0.80499049307E+02  0.53111920267E+03 -0.45165048319E+03  0.80780929887E+03  0.40000000000E+03 0. -1.
<mgrwt>
<rscale>  2 0.66935253E+03</rscale>
<asrwt>0</asrwt>
<pdfrwt beam="1">  1       21 0.49961374E-01 0.66975197E+03</pdfrwt>
<pdfrwt beam="2">  1       21 0.21395056E+00 0.66975197E+03</pdfrwt>
<totfact> 0.31070741E+02</totfact>
</mgrwt>
</event>
<event>
 6    1  0.9598567E-004  0.4563783E+03  0.7818608E-02  0.1025874E+00
         21   -1    0    0  503  502  0.00000000000E+00  0.00000000000E+00  0.85637010077E+03  0.85637010077E+03  0.00000000000E+00 0. -1.
         21   -1    0    0  501  503 -0.00000000000E+00 -0.00000000000E+00 -0.28598821561E+03  0.28598821561E+03  0.00000000000E+00 0. -1.
    9000007    2    1    2  501    0 -0.95816701126E+02 -0.19657165817E+03  0.63735460521E+02  0.46080724962E+03  0.40057440677E+03 0.  0.
    9000005    1    3    3    0    0 -0.21159850061E+03 -0.19909728235E+03  0.13962230355E+03  0.32234925305E+03  0.99999687468E+00 0.  0.
          4    1    3    3  501    0  0.11578179948E+03  0.25256241860E+01 -0.75886843031E+02  0.13845799657E+03  0.00000000000E+00 0.  1.
   -9000007    1    1    2    0  502  0.95816701126E+02  0.19657165817E+03  0.50664642464E+03  0.68155106676E+03  0.40000000000E+03 0. -1.
<mgrwt>
<rscale>  2 0.45625218E+03</rscale>
<asrwt>0</asrwt>
<pdfrwt beam="1">  1       21 0.13174924E+00 0.45637826E+03</pdfrwt>
<pdfrwt beam="2">  1       21 0.43998187E-01 0.45637826E+03</pdfrwt>
<totfact> 0.17730006E+03</totfact>
</mgrwt>
</event>
<event>
 6    1  0.9598567E-004  0.4628522E+03  0.7818608E-02  0.1024019E+00
         21   -1    0    0  503  502  0.00000000000E+00  0.00000000000E+00  0.10076821267E+03  0.10076821267E+03  0.00000000000E+00 0. -1.
         21   -1    0    0  501  503 -0.00000000000E+00 -0.00000000000E+00 -0.22364152367E+04  0.22364152367E+04  0.00000000000E+00 0.  1.
    9000007    2    1    2  501    0 -0.61122909852E+02  0.22471351836E+03 -0.80266728407E+03  0.92613165635E+03  0.39901491268E+03 0.  0.
    9000005    1    3    3    0    0 -0.67006703232E+02 -0.51544326826E+02 -0.81505184452E+01  0.84936133952E+02  0.99999687468E+00 0.  0.
          4    1    3    3  501    0  0.58837933803E+01  0.27625784518E+03 -0.79451676562E+03  0.84119552240E+03  0.00000000000E+00 0.  1.
   -9000007    1    1    2    0  502  0.61122909852E+02 -0.22471351836E+03 -0.13329797399E+04  0.14110517930E+04  0.40000000000E+03 0.  1.
<mgrwt>
<rscale>  2 0.46263931E+03</rscale>
<asrwt>0</asrwt>
<pdfrwt beam="1">  1       21 0.15502802E-01 0.46285222E+03</pdfrwt>
<pdfrwt beam="2">  1       21 0.34406388E+00 0.46285222E+03</pdfrwt>
<totfact> 0.54729177E+02</totfact>
</mgrwt>
</event>
<event>
 6    1  0.9598567E-004  0.4706322E+03  0.7818608E-02  0.1021776E+00
         21   -1    0    0  503  502  0.00000000000E+00  0.00000000000E+00  0.55174000261E+03  0.55174000261E+03  0.00000000000E+00 0.  1.
         21   -1    0    0  501  503 -0.00000000000E+00 -0.00000000000E+00 -0.43673543031E+03  0.43673543031E+03  0.00000000000E+00 0.  1.
    9000007    2    1    2  501    0 -0.23116487210E+03  0.87164304330E+02 -0.83785674377E+02  0.47803211950E+03  0.40057440507E+03 0.  0.
    9000005    1    3    3    0    0 -0.65519005537E+02  0.21965878730E+03  0.39630068048E+02  0.23262473044E+03  0.99999687468E+00 0.  0.
          4    1    3    3  501    0 -0.16564586657E+03 -0.13249448297E+03 -0.12341574243E+03  0.24540738906E+03  0.00000000000E+00 0.  1.
   -9000007    1    1    2    0  502  0.23116487210E+03 -0.87164304330E+02  0.19879024667E+03  0.51044331342E+03  0.40000000000E+03 0.  1.
<mgrwt>
<rscale>  2 0.47050995E+03</rscale>
<asrwt>0</asrwt>
<pdfrwt beam="1">  1       21 0.84883077E-01 0.47063220E+03</pdfrwt>
<pdfrwt beam="2">  1       21 0.67190066E-01 0.47063220E+03</pdfrwt>
<totfact> 0.20904348E+03</totfact>
</mgrwt>
</event>
<event>
 6    1  0.9598567E-004  0.4656942E+03  0.7818608E-02  0.1023422E+00
         21   -1    0    0  503  502  0.00000000000E+00  0.00000000000E+00  0.54108949896E+03  0.54108949896E+03  0.00000000000E+00 0. -1.
         21   -1    0    0  501  503 -0.00000000000E+00 -0.00000000000E+00 -0.43529473907E+03  0.43529473907E+03  0.00000000000E+00 0. -1.
    9000007    2    1    2  501    0 -0.23755756138E+03 -0.20915484314E+02 -0.91248069300E+02  0.47071939944E+03  0.39544846745E+03 0.  0.
    9000005    1    3    3    0    0 -0.22512458177E+03 -0.18578228960E+03 -0.26237403252E+02  0.29306234451E+03  0.99999687468E+00 0.  0.
          4    1    3    3  501    0 -0.12432979601E+02  0.16486680528E+03 -0.65010666048E+02  0.17765705493E+03  0.00000000000E+00 0.  1.
   -9000007    1    1    2    0  502  0.23755756138E+03  0.20915484314E+02  0.19704282919E+03  0.50566483859E+03  0.40000000000E+03 0. -1.
<mgrwt>
<rscale>  2 0.46471518E+03</rscale>
<asrwt>0</asrwt>
<pdfrwt beam="1">  1       21 0.83244539E-01 0.46569416E+03</pdfrwt>
<pdfrwt beam="2">  1       21 0.66968421E-01 0.46569416E+03</pdfrwt>
<totfact> 0.22079874E+03</totfact>
</mgrwt>
</event>
<event>
 6    1  0.9598567E-004  0.8362812E+03  0.7818608E-02  0.9509006E-01
         21   -1    0    0  503  502  0.00000000000E+00  0.00000000000E+00  0.88520594140E+03  0.88520594140E+03  0.00000000000E+00 0. -1.
         21   -1    0    0  501  503 -0.00000000000E+00 -0.00000000000E+00 -0.79535825486E+03  0.79535825486E+03  0.00000000000E+00 0.  1.
    9000007    2    1    2  501    0  0.63661689735E+03 -0.36617639796E+03 -0.24881441479E+02  0.83644986678E+03  0.39957860941E+03 0.  0.
    9000005    1    3    3    0    0  0.48821600837E+03 -0.34588491886E+03  0.13918061045E+03  0.61429918626E+03  0.99999687468E+00 0.  0.
          4    1    3    3  501    0  0.14840088898E+03 -0.20291479097E+02 -0.16406205192E+03  0.22215068052E+03  0.00000000000E+00 0.  1.
   -9000007    1    1    2    0  502 -0.63661689735E+03  0.36617639796E+03  0.11472912802E+03  0.84411432947E+03  0.40000000000E+03 0. -1.
<mgrwt>
<rscale>  2 0.83623082E+03</rscale>
<asrwt>0</asrwt>
<pdfrwt beam="1">  1       21 0.13618553E+00 0.83628119E+03</pdfrwt>
<pdfrwt beam="2">  1       21 0.12236281E+00 0.83628119E+03</pdfrwt>
<totfact> 0.13606497E+02</totfact>
</mgrwt>
</event>
<event>
 6    1  0.9598567E-004  0.4335494E+03  0.7818608E-02  0.1032856E+00
         21   -1    0    0  503  502  0.00000000000E+00  0.00000000000E+00  0.45437833480E+03  0.45437833480E+03  0.00000000000E+00 0.  1.
         21   -1    0    0  501  503 -0.00000000000E+00 -0.00000000000E+00 -0.42311223763E+03  0.42311223763E+03  0.00000000000E+00 0.  1.
    9000007    2    1    2  501    0 -0.66800988488E+02  0.14924378298E+03 -0.54407603660E+02  0.43694992523E+03  0.40153327509E+03 0.  0.
    9000005    1    3    3    0    0  0.16050111870E+02 -0.13337264695E+03 -0.47076303254E+02  0.14234833110E+03  0.99999687468E+00 0.  0.
          4    1    3    3  501    0 -0.82851100358E+02  0.28261642993E+03 -0.73313004061E+01  0.29460159413E+03  0.00000000000E+00 0.  1.
   -9000007    1    1    2    0  502  0.66800988488E+02 -0.14924378298E+03  0.85673700823E+02  0.44054064720E+03  0.40000000000E+03 0.  1.
<mgrwt>
<rscale>  2 0.43319401E+03</rscale>
<asrwt>0</asrwt>
<pdfrwt beam="1">  1       21 0.69904359E-01 0.43354936E+03</pdfrwt>
<pdfrwt beam="2">  1       21 0.65094190E-01 0.43354936E+03</pdfrwt>
<totfact> 0.35489015E+03</totfact>
</mgrwt>
</event>
<event>
 6    1  0.9598567E-004  0.4650909E+03  0.7818608E-02  0.1023327E+00
         21   -1    0    0  503  502  0.00000000000E+00  0.00000000000E+00  0.41376385965E+03  0.41376385965E+03  0.00000000000E+00 0.  1.
         21   -1    0    0  501  503 -0.00000000000E+00 -0.00000000000E+00 -0.52346142773E+03  0.52346142773E+03  0.00000000000E+00 0.  1.
    9000007    2    1    2  501    0 -0.17527807929E+03 -0.15948295913E+03 -0.73858198850E+02  0.47091886483E+03  0.40019036018E+03 0.  0.
    9000005    1    3    3    0    0  0.10081534692E+03  0.15720854939E+02 -0.10001683119E+03  0.14288193017E+03  0.99999687468E+00 0.  0.
          4    1    3    3  501    0 -0.27609342620E+03 -0.17520381406E+03  0.26158632338E+02  0.32803693466E+03  0.00000000000E+00 0.  1.
   -9000007    1    1    2    0  502  0.17527807929E+03  0.15948295913E+03 -0.35839369227E+02  0.46630642256E+03  0.40000000000E+03 0.  1.
<mgrwt>
<rscale>  2 0.46504995E+03</rscale>
<asrwt>0</asrwt>
<pdfrwt beam="1">  1       21 0.63655978E-01 0.46509090E+03</pdfrwt>
<pdfrwt beam="2">  1       21 0.80532527E-01 0.46509090E+03</pdfrwt>
<totfact> 0.26701709E+03</totfact>
</mgrwt>
</event>
<event>
 6    1  0.9598567E-004  0.4725132E+03  0.7818608E-02  0.1021216E+00
         21   -1    0    0  503  502  0.00000000000E+00  0.00000000000E+00  0.11742231630E+04  0.11742231630E+04  0.00000000000E+00 0. -1.
         21   -1    0    0  501  503 -0.00000000000E+00 -0.00000000000E+00 -0.21251777515E+03  0.21251777515E+03  0.00000000000E+00 0.  1.
    9000007    2    1    2  501    0  0.16786151466E+03  0.18722259067E+03  0.70594317495E+03  0.84948485758E+03  0.40004871007E+03 0.  0.
    9000005    1    3    3    0    0  0.21345893858E+03  0.23624285959E+02  0.62592480150E+03  0.66174442383E+03  0.99999687468E+00 0.  0.
          4    1    3    3  501    0 -0.45597423912E+02  0.16359830472E+03  0.80018373445E+02  0.18774043374E+03  0.00000000000E+00 0.  1.
   -9000007    1    1    2    0  502 -0.16786151466E+03 -0.18722259067E+03  0.25576221289E+03  0.53725608057E+03  0.40000000000E+03 0.  1.
<mgrwt>
<rscale>  2 0.47250292E+03</rscale>
<asrwt>0</asrwt>
<pdfrwt beam="1">  1       21 0.18064971E+00 0.47251323E+03</pdfrwt>
<pdfrwt beam="2">  1       21 0.32695043E-01 0.47251323E+03</pdfrwt>
<totfact> 0.13556671E+03</totfact>
</mgrwt>
</event>
<event>
 6    1  0.9598567E-004  0.4170144E+03  0.7818608E-02  0.1038188E+00
         21   -1    0    0  503  502  0.00000000000E+00  0.00000000000E+00  0.16789747238E+04  0.16789747238E+04  0.00000000000E+00 0. -1.
         21   -1    0    0  501  503 -0.00000000000E+00 -0.00000000000E+00 -0.11624623888E+03  0.11624623888E+03  0.00000000000E+00 0. -1.
    9000007    2    1    2  501    0  0.11424848518E+03  0.29125391610E+02  0.47844279330E+03  0.63350823319E+03  0.39815093904E+03 0.  0.
    9000005    1    3    3    0    0 -0.16725388990E+02 -0.33065447134E+02 -0.62941150598E+02  0.73045539654E+02  0.99999687468E+00 0.  0.
          4    1    3    3  501    0  0.13097387417E+03  0.62190838744E+02  0.54138394390E+03  0.56046269354E+03  0.00000000000E+00 0.  1.
   -9000007    1    1    2    0  502 -0.11424848518E+03 -0.29125391610E+02  0.10842856916E+04  0.11617127295E+04  0.40000000000E+03 0. -1.
<mgrwt>
<rscale>  2 0.41657036E+03</rscale>
<asrwt>0</asrwt>
<pdfrwt beam="1">  1       21 0.25830379E+00 0.41701439E+03</pdfrwt>
<pdfrwt beam="2">  1       21 0.17884038E-01 0.41701439E+03</pdfrwt>
<totfact> 0.14154546E+03</totfact>
</mgrwt>
</event>
<event>
 6    1  0.9598567E-004  0.4549406E+03  0.7818608E-02  0.1026262E+00
         21   -1    0    0  503  502  0.00000000000E+00  0.00000000000E+00  0.22461572004E+03  0.22461572004E+03  0.00000000000E+00 0. -1.
         21   -1    0    0  501  503 -0.00000000000E+00 -0.00000000000E+00 -0.12432610826E+04  0.12432610826E+04  0.00000000000E+00 0. -1.
    9000007    2    1    2  501    0 -0.21484757186E+03 -0.28486818460E+02 -0.88276229719E+03  0.99307664954E+03  0.39995122272E+03 0.  0.
    9000005    1    3    3    0    0 -0.27078386276E+03  0.11708943292E+03 -0.63714318542E+03  0.70212981303E+03  0.99999687468E+00 0.  0.
          4    1    3    3  501    0  0.55936290897E+02 -0.14557625138E+03 -0.24561911178E+03  0.29094683651E+03  0.00000000000E+00 0.  1.
   -9000007    1    1    2    0  502  0.21484757186E+03  0.28486818460E+02 -0.13588306542E+03  0.47480015315E+03  0.40000000000E+03 0. -1.
<mgrwt>
<rscale>  2 0.45492991E+03</rscale>
<asrwt>0</asrwt>
<pdfrwt beam="1">  1       21 0.34556264E-01 0.45494063E+03</pdfrwt>
<pdfrwt beam="2">  1       21 0.19127094E+00 0.45494063E+03</pdfrwt>
<totfact> 0.10313463E+03</totfact>
</mgrwt>
</event>
<event>
 6    1  0.9598567E-004  0.6085711E+03  0.7818608E-02  0.9887789E-01
         21   -1    0    0  503  502  0.00000000000E+00  0.00000000000E+00  0.10381334982E+04  0.10381334982E+04  0.00000000000E+00 0.  1.
         21   -1    0    0  501  503 -0.00000000000E+00 -0.00000000000E+00 -0.40194977067E+03  0.40194977067E+03  0.00000000000E+00 0.  1.
    9000007    2    1    2  501    0  0.14590659998E+03 -0.43480112098E+03  0.76627002151E+02  0.61337625931E+03  0.40002248349E+03 0.  0.
    9000005    1    3    3    0    0 -0.90740814048E+02 -0.32540796528E+03 -0.11938569626E+02  0.33803515888E+03  0.99999687468E+00 0.  0.
          4    1    3    3  501    0  0.23664741403E+03 -0.10939315570E+03  0.88565571777E+02  0.27534110043E+03  0.00000000000E+00 0.  1.
   -9000007    1    1    2    0  502 -0.14590659998E+03  0.43480112098E+03  0.55955672534E+03  0.82670700952E+03  0.40000000000E+03 0.  1.
<mgrwt>
<rscale>  2 0.60856737E+03</rscale>
<asrwt>0</asrwt>
<pdfrwt beam="1">  1       21 0.15971284E+00 0.60857106E+03</pdfrwt>
<pdfrwt beam="2">  1       21 0.61838427E-01 0.60857106E+03</pdfrwt>
<totfact> 0.47966567E+02</totfact>
</mgrwt>
</event>
<event>
 6    1  0.9598567E-004  0.4302897E+03  0.7818608E-02  0.1033780E+00
         21   -1    0    0  503  502  0.00000000000E+00  0.00000000000E+00  0.12412059945E+03  0.12412059945E+03  0.00000000000E+00 0.  1.
         21   -1    0    0  501  503 -0.00000000000E+00 -0.00000000000E+00 -0.17312150297E+04  0.17312150297E+04  0.00000000000E+00 0.  1.
    9000007    2    1    2  501    0 -0.95587990956E+02  0.12602266058E+03 -0.11491070512E+04  0.12270274131E+04  0.40016306969E+03 0.  0.
    9000005    1    3    3    0    0  0.14961545808E+03 -0.66444033703E+01 -0.35051668817E+03  0.38117172255E+03  0.99999687468E+00 0.  0.
          4    1    3    3  501    0 -0.24520344904E+03  0.13266706395E+03 -0.79859036304E+03  0.84585569054E+03  0.00000000000E+00 0.  1.
   -9000007    1    1    2    0  502  0.95587990956E+02 -0.12602266058E+03 -0.45798737902E+03  0.62830821603E+03  0.40000000000E+03 0.  1.
<mgrwt>
<rscale>  2 0.43025182E+03</rscale>
<asrwt>0</asrwt>
<pdfrwt beam="1">  1       21 0.19095477E-01 0.43028974E+03</pdfrwt>
<pdfrwt beam="2">  1       21 0.26634076E+00 0.43028974E+03</pdfrwt>
<totfact> 0.11103544E+03</totfact>
</mgrwt>
</event>
<event>
 6    1  0.9598567E-004  0.4610844E+03  0.7818608E-02  0.1024773E+00
         21   -1    0    0  503  502  0.00000000000E+00  0.00000000000E+00  0.20272413766E+03  0.20272413766E+03  0.00000000000E+00 0. -1.
         21   -1    0    0  501  503 -0.00000000000E+00 -0.00000000000E+00 -0.10829358366E+04  0.10829358366E+04  0.00000000000E+00 0. -1.
    9000007    2    1    2  501    0 -0.14458995908E+03 -0.16680372998E+03 -0.31278009931E+03  0.55716264353E+03  0.40480746068E+03 0.  0.
    9000005    1    3    3    0    0  0.12229545036E+03 -0.39650432555E+02 -0.20602698661E+03  0.24285068084E+03  0.99999687468E+00 0.  0.
          4    1    3    3  501    0 -0.26688540944E+03 -0.12715329743E+03 -0.10675311270E+03  0.31431196269E+03  0.00000000000E+00 0.  1.
   -9000007    1    1    2    0  502  0.14458995908E+03  0.16680372998E+03 -0.56743159959E+03  0.72849733069E+03  0.40000000000E+03 0. -1.
<mgrwt>
<rscale>  2 0.46002704E+03</rscale>
<asrwt>0</asrwt>
<pdfrwt beam="1">  1       21 0.31188329E-01 0.46108440E+03</pdfrwt>
<pdfrwt beam="2">  1       21 0.16660551E+00 0.46108440E+03</pdfrwt>
<totfact> 0.18897341E+03</totfact>
</mgrwt>
</event>
<event>
 6    1  0.9598567E-004  0.4560332E+03  0.7818608E-02  0.1025984E+00
         21   -1    0    0  503  502  0.00000000000E+00  0.00000000000E+00  0.16351689220E+03  0.16351689220E+03  0.00000000000E+00 0.  1.
         21   -1    0    0  501  503 -0.00000000000E+00 -0.00000000000E+00 -0.14366656946E+04  0.14366656946E+04  0.00000000000E+00 0.  1.
    9000007    2    1    2  501    0  0.20680744653E+03  0.67994670108E+02 -0.90940998016E+03  0.10173459665E+04  0.40071649395E+03 0.  0.
    9000005    1    3    3    0    0  0.32395683407E+02 -0.16229075592E+02  0.36718948204E+02  0.51595972216E+02  0.99999687468E+00 0.  0.
          4    1    3    3  501    0  0.17441176313E+03  0.84223745700E+02 -0.94612892837E+03  0.96574999433E+03  0.00000000000E+00 0.  1.
   -9000007    1    1    2    0  502 -0.20680744653E+03 -0.67994670108E+02 -0.36373882221E+03  0.58283662024E+03  0.40000000000E+03 0.  1.
<mgrwt>
<rscale>  2 0.45587578E+03</rscale>
<asrwt>0</asrwt>
<pdfrwt beam="1">  1       21 0.25156444E-01 0.45603323E+03</pdfrwt>
<pdfrwt beam="2">  1       21 0.22102550E+00 0.45603323E+03</pdfrwt>
<totfact> 0.12321129E+03</totfact>
</mgrwt>
</event>
<event>
 6    1  0.9598567E-004  0.4047652E+03  0.7818608E-02  0.1042283E+00
         21   -1    0    0  503  502  0.00000000000E+00  0.00000000000E+00  0.28064146254E+03  0.28064146254E+03  0.00000000000E+00 0. -1.
         21   -1    0    0  501  503 -0.00000000000E+00 -0.00000000000E+00 -0.18024494606E+04  0.18024494606E+04  0.00000000000E+00 0. -1.
    9000007    2    1    2  501    0  0.19640034329E+02  0.46045239850E+02 -0.16186587313E+04  0.16684996068E+04  0.40165775784E+03 0.  0.
    9000005    1    3    3    0    0  0.11449458598E+03 -0.13649428200E+03 -0.10210257304E+04  0.10364527203E+04  0.99999687468E+00 0.  0.
          4    1    3    3  501    0 -0.94854551653E+02  0.18253952185E+03 -0.59763300091E+03  0.63204688653E+03  0.00000000000E+00 0.  1.
   -9000007    1    1    2    0  502 -0.19640034329E+02 -0.46045239850E+02  0.96850733233E+02  0.41459131635E+03  0.40000000000E+03 0. -1.
<mgrwt>
<rscale>  2 0.40435331E+03</rscale>
<asrwt>0</asrwt>
<pdfrwt beam="1">  1       21 0.43175610E-01 0.40476518E+03</pdfrwt>
<pdfrwt beam="2">  1       21 0.27729992E+00 0.40476518E+03</pdfrwt>
<totfact> 0.19293912E+02</totfact>
</mgrwt>
</event>
<event>
 6    1  0.9598567E-004  0.4168207E+03  0.7818608E-02  0.1038121E+00
         21   -1    0    0  503  502  0.00000000000E+00  0.00000000000E+00  0.21834998458E+04  0.21834998458E+04  0.00000000000E+00 0.  1.
         21   -1    0    0  501  503 -0.00000000000E+00 -0.00000000000E+00 -0.51836175227E+03  0.51836175227E+03  0.00000000000E+00 0.  1.
    9000007    2    1    2  501    0  0.39317379458E+02 -0.11042490583E+03 -0.41043658867E+03  0.58484724348E+03  0.39981069112E+03 0.  0.
    9000005    1    3    3    0    0 -0.27542768912E+02  0.78081028465E+02  0.40031613468E+02  0.91971632562E+02  0.99999687468E+00 0.  0.
          4    1    3    3  501    0  0.66860148370E+02 -0.18850593429E+03 -0.45046820213E+03  0.49287561092E+03  0.00000000000E+00 0.  1.
   -9000007    1    1    2    0  502 -0.39317379458E+02  0.11042490583E+03  0.20755746822E+04  0.21170143546E+04  0.40000000000E+03 0.  1.
<mgrwt>
<rscale>  2 0.41677530E+03</rscale>
<asrwt>0</asrwt>
<pdfrwt beam="1">  1       21 0.33592305E+00 0.41682072E+03</pdfrwt>
<pdfrwt beam="2">  1       21 0.79747963E-01 0.41682072E+03</pdfrwt>
<totfact> 0.22277952E+01</totfact>
</mgrwt>
</event>
<event>
 6    1  0.9598567E-004  0.4288832E+03  0.7818608E-02  0.1034302E+00
         21   -1    0    0  503  502  0.00000000000E+00  0.00000000000E+00  0.11469754208E+04  0.11469754208E+04  0.00000000000E+00 0. -1.
         21   -1    0    0  501  503 -0.00000000000E+00 -0.00000000000E+00 -0.17098816751E+03  0.17098816751E+03  0.00000000000E+00 0.  1.
    9000007    2    1    2  501    0  0.46093455053E+02 -0.14442606633E+03  0.32117786254E+03  0.53581345347E+03  0.40119489316E+03 0.  0.
    9000005    1    3    3    0    0  0.20645002088E+03 -0.13990861775E+03  0.11514233648E+03  0.27469035310E+03  0.99999687468E+00 0.  0.
          4    1    3    3  501    0 -0.16035656583E+03 -0.45174485805E+01  0.20603552606E+03  0.26112310036E+03  0.00000000000E+00 0.  1.
   -9000007    1    1    2    0  502 -0.46093455053E+02  0.14442606633E+03  0.65480939077E+03  0.78215013487E+03  0.40000000000E+03 0. -1.
<mgrwt>
<rscale>  2 0.42860359E+03</rscale>
<asrwt>0</asrwt>
<pdfrwt beam="1">  1       21 0.17645775E+00 0.42888324E+03</pdfrwt>
<pdfrwt beam="2">  1       21 0.26305873E-01 0.42888324E+03</pdfrwt>
<totfact> 0.22747396E+03</totfact>
</mgrwt>
</event>
<event>
 6    1  0.9598567E-004  0.4353760E+03  0.7818608E-02  0.1033092E+00
         21   -1    0    0  503  502  0.00000000000E+00  0.00000000000E+00  0.18560258983E+03  0.18560258983E+03  0.00000000000E+00 0. -1.
         21   -1    0    0  501  503 -0.00000000000E+00 -0.00000000000E+00 -0.11050923012E+04  0.11050923012E+04  0.00000000000E+00 0. -1.
    9000007    2    1    2  501    0 -0.14629037240E+03 -0.90284853654E+02 -0.24973659919E+03  0.49186984191E+03  0.38731814384E+03 0.  0.
    9000005    1    3    3    0    0 -0.17434610720E+03 -0.21907430671E+03 -0.11294359638E+03  0.30190623199E+03  0.99999687468E+00 0.  0.
          4    1    3    3  501    0  0.28055734799E+02  0.12878945306E+03 -0.13679300282E+03  0.18996360992E+03  0.00000000000E+00 0.  1.
   -9000007    1    1    2    0  502  0.14629037240E+03  0.90284853654E+02 -0.66975311222E+03  0.79882504918E+03  0.40000000000E+03 0. -1.
<mgrwt>
<rscale>  2 0.43244096E+03</rscale>
<asrwt>0</asrwt>
<pdfrwt beam="1">  1       21 0.28554245E-01 0.43537596E+03</pdfrwt>
<pdfrwt beam="2">  1       21 0.17001420E+00 0.43537596E+03</pdfrwt>
<totfact> 0.21483471E+03</totfact>
</mgrwt>
</event>
<event>
 6    1  0.9598567E-004  0.7827632E+03  0.7818608E-02  0.9585324E-01
         21   -1    0    0  503  502  0.00000000000E+00  0.00000000000E+00  0.10044650046E+04  0.10044650046E+04  0.00000000000E+00 0. -1.
         21   -1    0    0  501  503 -0.00000000000E+00 -0.00000000000E+00 -0.62741463150E+03  0.62741463150E+03  0.00000000000E+00 0. -1.
    9000007    2    1    2  501    0  0.37018233584E+02 -0.67182433152E+03  0.52427720472E+02  0.78447291639E+03  0.39991350146E+03 0.  0.
    9000005    1    3    3    0    0  0.18253325044E+03 -0.54027451302E+03 -0.31418306713E+02  0.57114187985E+03  0.99999687468E+00 0.  0.
          4    1    3    3  501    0 -0.14551501685E+03 -0.13154981850E+03  0.83846027185E+02  0.21333103654E+03  0.00000000000E+00 0.  1.
   -9000007    1    1    2    0  502 -0.37018233584E+02  0.67182433152E+03  0.32462265267E+03  0.84740671974E+03  0.40000000000E+03 0. -1.
<mgrwt>
<rscale>  2 0.78275219E+03</rscale>
<asrwt>0</asrwt>
<pdfrwt beam="1">  1       21 0.15453308E+00 0.78276323E+03</pdfrwt>
<pdfrwt beam="2">  1       21 0.96525328E-01 0.78276323E+03</pdfrwt>
<totfact> 0.17742398E+02</totfact>
</mgrwt>
</event>
<event>
 6    1  0.9598567E-004  0.4279392E+03  0.7818608E-02  0.1034539E+00
         21   -1    0    0  503  502  0.00000000000E+00  0.00000000000E+00  0.53147608152E+03  0.53147608152E+03  0.00000000000E+00 0.  1.
         21   -1    0    0  501  503 -0.00000000000E+00 -0.00000000000E+00 -0.55179830177E+03  0.55179830177E+03  0.00000000000E+00 0.  1.
    9000007    2    1    2  501    0  0.10270846047E+03  0.11217378801E+03 -0.34229705317E+03  0.54773747549E+03  0.39964619713E+03 0.  0.
    9000005    1    3    3    0    0  0.15677822810E+02  0.96619623499E+02  0.73648464814E+02  0.12249996790E+03  0.99999687468E+00 0.  0.
          4    1    3    3  501    0  0.87030637660E+02  0.15554164514E+02 -0.41594551799E+03  0.42523750759E+03  0.00000000000E+00 0.  1.
   -9000007    1    1    2    0  502 -0.10270846047E+03 -0.11217378801E+03  0.32197483293E+03  0.53553690779E+03  0.40000000000E+03 0.  1.
<mgrwt>
<rscale>  2 0.42785654E+03</rscale>
<asrwt>0</asrwt>
<pdfrwt beam="1">  1       21 0.81765551E-01 0.42793923E+03</pdfrwt>
<pdfrwt beam="2">  1       21 0.84892046E-01 0.42793923E+03</pdfrwt>
<totfact> 0.13588239E+03</totfact>
</mgrwt>
</event>
<event>
 6    1  0.9598567E-004  0.6053925E+03  0.7818608E-02  0.9894362E-01
         21   -1    0    0  503  502  0.00000000000E+00  0.00000000000E+00  0.57711282173E+03  0.57711282173E+03  0.00000000000E+00 0. -1.
         21   -1    0    0  501  503 -0.00000000000E+00 -0.00000000000E+00 -0.27037530368E+04  0.27037530368E+04  0.00000000000E+00 0. -1.
    9000007    2    1    2  501    0  0.41715300639E+03  0.17970121144E+03 -0.24983152058E+04  0.25706183982E+04  0.40023858579E+03 0.  0.
    9000005    1    3    3    0    0  0.35517877169E+02  0.86860191521E+02 -0.14183142888E+04  0.14214157148E+04  0.99999687468E+00 0.  0.
          4    1    3    3  501    0  0.38163512922E+03  0.92841019917E+02 -0.10800009170E+04  0.11492026834E+04  0.00000000000E+00 0.  1.
   -9000007    1    1    2    0  502 -0.41715300639E+03 -0.17970121144E+03  0.37167499074E+03  0.71024746031E+03  0.40000000000E+03 0. -1.
<mgrwt>
<rscale>  2 0.60535307E+03</rscale>
<asrwt>0</asrwt>
<pdfrwt beam="1">  1       21 0.88786590E-01 0.60539250E+03</pdfrwt>
<pdfrwt beam="2">  1       21 0.41596200E+00 0.60539250E+03</pdfrwt>
<totfact> 0.47492820E+00</totfact>
</mgrwt>
</event>
<event>
 6    1  0.9598567E-004  0.4580099E+03  0.7818608E-02  0.1025369E+00
         21   -1    0    0  503  502  0.00000000000E+00  0.00000000000E+00  0.17848989817E+04  0.17848989817E+04  0.00000000000E+00 0.  1.
         21   -1    0    0  501  503 -0.00000000000E+00 -0.00000000000E+00 -0.38838719114E+03  0.38838719114E+03  0.00000000000E+00 0. -1.
    9000007    2    1    2  501    0 -0.20172866691E+03 -0.94679723130E+02 -0.20922880525E+03  0.50353721984E+03  0.40014289172E+03 0.  0.
    9000005    1    3    3    0    0 -0.21911282712E+03 -0.21485692020E+03 -0.22577834391E+03  0.38098659785E+03  0.99999687468E+00 0.  0.
          4    1    3    3  501    0  0.17384160208E+02  0.12017719707E+03  0.16549538660E+02  0.12255062200E+03  0.00000000000E+00 0.  1.
   -9000007    1    1    2    0  502  0.20172866691E+03  0.94679723130E+02  0.16057405958E+04  0.16697489530E+04  0.40000000000E+03 0.  1.
<mgrwt>
<rscale>  2 0.45797866E+03</rscale>
<asrwt>0</asrwt>
<pdfrwt beam="1">  1       21 0.27459984E+00 0.45800987E+03</pdfrwt>
<pdfrwt beam="2">  1       21 0.59751876E-01 0.45800987E+03</pdfrwt>
<totfact> 0.96856505E+01</totfact>
</mgrwt>
</event>
<event>
 6    1  0.9598567E-004  0.7327781E+03  0.7818608E-02  0.9663082E-01
         21   -1    0    0  503  502  0.00000000000E+00  0.00000000000E+00  0.15043744881E+04  0.15043744881E+04  0.00000000000E+00 0.  1.
         21   -1    0    0  501  503 -0.00000000000E+00 -0.00000000000E+00 -0.35689273982E+03  0.35689273982E+03  0.00000000000E+00 0. -1.
    9000007    2    1    2  501    0 -0.51198316398E+03 -0.33887598557E+03  0.54462477859E+03  0.91237301902E+03  0.39855323683E+03 0.  0.
    9000005    1    3    3    0    0 -0.88403309039E+02 -0.11574946623E+03 -0.45386404183E+02  0.15255821728E+03  0.99999687468E+00 0.  0.
          4    1    3    3  501    0 -0.42357985494E+03 -0.22312651934E+03  0.59001118277E+03  0.75981480174E+03  0.00000000000E+00 0.  1.
   -9000007    1    1    2    0  502  0.51198316398E+03  0.33887598557E+03  0.60285696972E+03  0.94889420893E+03  0.40000000000E+03 0. -1.
<mgrwt>
<rscale>  2 0.73258080E+03</rscale>
<asrwt>0</asrwt>
<pdfrwt beam="1">  1       21 0.23144222E+00 0.73277807E+03</pdfrwt>
<pdfrwt beam="2">  1       21 0.54906576E-01 0.73277807E+03</pdfrwt>
<totfact> 0.19099977E+02</totfact>
</mgrwt>
</event>
<event>
 6    1  0.9598567E-004  0.4712917E+03  0.7818608E-02  0.1021603E+00
         21   -1    0    0  503  502  0.00000000000E+00  0.00000000000E+00  0.11714219424E+04  0.11714219424E+04  0.00000000000E+00 0.  1.
         21   -1    0    0  501  503 -0.00000000000E+00 -0.00000000000E+00 -0.24431028725E+03  0.24431028725E+03  0.00000000000E+00 0.  1.
    9000007    2    1    2  501    0  0.24892068782E+03  0.12425891767E+02  0.12754724019E+03  0.48760553286E+03  0.39921791742E+03 0.  0.
    9000005    1    3    3    0    0  0.28508582094E+02 -0.59611164685E+02  0.22616395181E+03  0.23562122846E+03  0.99999687468E+00 0.  0.
          4    1    3    3  501    0  0.22041210572E+03  0.72037056452E+02 -0.98616711625E+02  0.25198430440E+03  0.00000000000E+00 0.  1.
   -9000007    1    1    2    0  502 -0.24892068782E+03 -0.12425891767E+02  0.79956441495E+03  0.92812669678E+03  0.40000000000E+03 0.  1.
<mgrwt>
<rscale>  2 0.47112576E+03</rscale>
<asrwt>0</asrwt>
<pdfrwt beam="1">  1       21 0.18021876E+00 0.47129175E+03</pdfrwt>
<pdfrwt beam="2">  1       21 0.37586199E-01 0.47129175E+03</pdfrwt>
<totfact> 0.10297477E+03</totfact>
</mgrwt>
</event>
<event>
 6    1  0.9598567E-004  0.5301223E+03  0.7818608E-02  0.1006207E+00
         21   -1    0    0  503  502  0.00000000000E+00  0.00000000000E+00  0.10802975994E+04  0.10802975994E+04  0.00000000000E+00 0.  1.
         21   -1    0    0  501  503 -0.00000000000E+00 -0.00000000000E+00 -0.26888406325E+03  0.26888406325E+03  0.00000000000E+00 0. -1.
    9000007    2    1    2  501    0 -0.33336763201E+03  0.99477016878E+02  0.52759682999E+03  0.74786512565E+03  0.39989270585E+03 0.  0.
    9000005    1    3    3    0    0 -0.30855620617E+03 -0.10172255591E+03  0.35908791497E+03  0.48425152702E+03  0.99999687468E+00 0.  0.
          4    1    3    3  501    0 -0.24811425838E+02  0.20119957279E+03  0.16850891502E+03  0.26361359863E+03  0.00000000000E+00 0.  1.
   -9000007    1    1    2    0  502  0.33336763201E+03 -0.99477016878E+02  0.28381670613E+03  0.60131653697E+03  0.40000000000E+03 0. -1.
<mgrwt>
<rscale>  2 0.53010206E+03</rscale>
<asrwt>0</asrwt>
<pdfrwt beam="1">  1       21 0.16619963E+00 0.53012230E+03</pdfrwt>
<pdfrwt beam="2">  1       21 0.41366780E-01 0.53012230E+03</pdfrwt>
<totfact> 0.10431416E+03</totfact>
</mgrwt>
</event>
<event>
 6    1  0.9598567E-004  0.4593041E+03  0.7818608E-02  0.1025001E+00
         21   -1    0    0  503  502  0.00000000000E+00  0.00000000000E+00  0.16288152368E+03  0.16288152368E+03  0.00000000000E+00 0. -1.
         21   -1    0    0  501  503 -0.00000000000E+00 -0.00000000000E+00 -0.12986245816E+04  0.12986245816E+04  0.00000000000E+00 0. -1.
    9000007    2    1    2  501    0 -0.20456290628E+03 -0.94300251291E+02 -0.52681417038E+03  0.69892305401E+03  0.40027708564E+03 0.  0.
    9000005    1    3    3    0    0  0.45791832886E+02  0.12029280045E+03 -0.16741624504E+03  0.21117871317E+03  0.99999687468E+00 0.  0.
          4    1    3    3  501    0 -0.25035473917E+03 -0.21459305174E+03 -0.35939792534E+03  0.48774434084E+03  0.00000000000E+00 0.  1.
   -9000007    1    1    2    0  502  0.20456290628E+03  0.94300251291E+02 -0.60892888752E+03  0.76258305127E+03  0.40000000000E+03 0.  1.
<mgrwt>
<rscale>  2 0.45924373E+03</rscale>
<asrwt>0</asrwt>
<pdfrwt beam="1">  1       21 0.25058696E-01 0.45930411E+03</pdfrwt>
<pdfrwt beam="2">  1       21 0.19978839E+00 0.45930411E+03</pdfrwt>
<totfact> 0.17055416E+03</totfact>
</mgrwt>
</event>
<event>
 6    1  0.9598567E-004  0.7142541E+03  0.7818608E-02  0.9693712E-01
         21   -1    0    0  503  502  0.00000000000E+00  0.00000000000E+00  0.15121203579E+04  0.15121203579E+04  0.00000000000E+00 0. -1.
         21   -1    0    0  501  503 -0.00000000000E+00 -0.00000000000E+00 -0.15163883753E+04  0.15163883753E+04  0.00000000000E+00 0. -1.
    9000007    2    1    2  501    0  0.52216971298E+03  0.27838406334E+03 -0.13377036787E+04  0.15158258323E+04  0.39764044789E+03 0.  0.
    9000005    1    3    3    0    0  0.37464932138E+03  0.37988070877E+03 -0.98142596079E+03  0.11170807417E+04  0.99999687468E+00 0.  0.
          4    1    3    3  501    0  0.14752039160E+03 -0.10149664543E+03 -0.35627771794E+03  0.39874509059E+03  0.00000000000E+00 0.  1.
   -9000007    1    1    2    0  502 -0.52216971298E+03 -0.27838406334E+03  0.13334356613E+04  0.15126829009E+04  0.40000000000E+03 0. -1.
<mgrwt>
<rscale>  2 0.71392417E+03</rscale>
<asrwt>0</asrwt>
<pdfrwt beam="1">  1       21 0.23263390E+00 0.71425408E+03</pdfrwt>
<pdfrwt beam="2">  1       21 0.23329052E+00 0.71425408E+03</pdfrwt>
<totfact> 0.43059397E+00</totfact>
</mgrwt>
</event>
<event>
 6    1  0.9598567E-004  0.5532942E+03  0.7818608E-02  0.1000766E+00
         21   -1    0    0  503  502  0.00000000000E+00  0.00000000000E+00  0.63651729994E+03  0.63651729994E+03  0.00000000000E+00 0.  1.
         21   -1    0    0  501  503 -0.00000000000E+00 -0.00000000000E+00 -0.13661800719E+04  0.13661800719E+04  0.00000000000E+00 0. -1.
    9000007    2    1    2  501    0 -0.33711626954E+03  0.17853742814E+03 -0.11711584144E+04  0.12952785463E+04  0.40076363150E+03 0.  0.
    9000005    1    3    3    0    0 -0.79976009861E+02  0.54494288982E+02 -0.88771499284E+03  0.89297519461E+03  0.99999687468E+00 0.  0.
          4    1    3    3  501    0 -0.25714025967E+03  0.12404313916E+03 -0.28344342157E+03  0.40230335165E+03  0.00000000000E+00 0.  1.
   -9000007    1    1    2    0  502  0.33711626954E+03 -0.17853742814E+03  0.44149564246E+03  0.70741882555E+03  0.40000000000E+03 0.  1.
<mgrwt>
<rscale>  2 0.55315594E+03</rscale>
<asrwt>0</asrwt>
<pdfrwt beam="1">  1       21 0.97925738E-01 0.55329421E+03</pdfrwt>
<pdfrwt beam="2">  1       21 0.21018155E+00 0.55329421E+03</pdfrwt>
<totfact> 0.74646994E+01</totfact>
</mgrwt>
</event>
<event>
 6    1  0.9598567E-004  0.4286463E+03  0.7818608E-02  0.1034389E+00
         21   -1    0    0  503  502  0.00000000000E+00  0.00000000000E+00  0.11139013074E+04  0.11139013074E+04  0.00000000000E+00 0.  1.
         21   -1    0    0  501  503 -0.00000000000E+00 -0.00000000000E+00 -0.50795926237E+03  0.50795926237E+03  0.00000000000E+00 0.  1.
    9000007    2    1    2  501    0 -0.10640233352E+03  0.11142798239E+03 -0.36402508353E+03  0.56140129082E+03  0.39864708208E+03 0.  0.
    9000005    1    3    3    0    0  0.15717599031E+02  0.15721761078E+03  0.16768703946E+02  0.15889181692E+03  0.99999687468E+00 0.  0.
          4    1    3    3  501    0 -0.12211993255E+03 -0.45789628389E+02 -0.38079378748E+03  0.40250947389E+03  0.00000000000E+00 0.  1.
   -9000007    1    1    2    0  502  0.10640233352E+03 -0.11142798239E+03  0.96996712857E+03  0.10604592790E+04  0.40000000000E+03 0.  1.
<mgrwt>
<rscale>  2 0.42833040E+03</rscale>
<asrwt>0</asrwt>
<pdfrwt beam="1">  1       21 0.17136943E+00 0.42864630E+03</pdfrwt>
<pdfrwt beam="2">  1       21 0.78147579E-01 0.42864630E+03</pdfrwt>
<totfact> 0.25011246E+02</totfact>
</mgrwt>
</event>
<event>
 6    1  0.9598567E-004  0.4396908E+03  0.7818608E-02  0.1030863E+00
         21   -1    0    0  503  502  0.00000000000E+00  0.00000000000E+00  0.56260530750E+03  0.56260530750E+03  0.00000000000E+00 0.  1.
         21   -1    0    0  501  503 -0.00000000000E+00 -0.00000000000E+00 -0.39769009400E+03  0.39769009400E+03  0.00000000000E+00 0.  1.
    9000007    2    1    2  501    0  0.15854424099E+03 -0.90508135348E+02  0.25981136468E+03  0.51048068585E+03  0.39970062108E+03 0.  0.
    9000005    1    3    3    0    0  0.12940400595E+03 -0.73119535227E+02  0.36811221641E+03  0.39698799358E+03  0.99999687468E+00 0.  0.
          4    1    3    3  501    0  0.29140235047E+02 -0.17388600121E+02 -0.10830085173E+03  0.11349269226E+03  0.00000000000E+00 0.  1.
   -9000007    1    1    2    0  502 -0.15854424099E+03  0.90508135348E+02 -0.94896151181E+02  0.44981471566E+03  0.40000000000E+03 0.  1.
<mgrwt>
<rscale>  2 0.43962270E+03</rscale>
<asrwt>0</asrwt>
<pdfrwt beam="1">  1       21 0.86554663E-01 0.43969080E+03</pdfrwt>
<pdfrwt beam="2">  1       21 0.61183091E-01 0.43969080E+03</pdfrwt>
<totfact> 0.24858719E+03</totfact>
</mgrwt>
</event>
<event>
 6    1  0.9598567E-004  0.4767726E+03  0.7818608E-02  0.1020101E+00
         21   -1    0    0  503  502  0.00000000000E+00  0.00000000000E+00  0.19663189589E+03  0.19663189589E+03  0.00000000000E+00 0.  1.
         21   -1    0    0  501  503 -0.00000000000E+00 -0.00000000000E+00 -0.11541563427E+04  0.11541563427E+04  0.00000000000E+00 0.  1.
    9000007    2    1    2  501    0 -0.14801359185E+03 -0.21308236578E+03 -0.49527640721E+03  0.68672094675E+03  0.39871646716E+03 0.  0.
    9000005    1    3    3    0    0  0.44277459993E+02 -0.61894697604E+02 -0.42564277689E+03  0.43239359451E+03  0.99999687468E+00 0.  0.
          4    1    3    3  501    0 -0.19229105184E+03 -0.15118766818E+03 -0.69633630320E+02  0.25432735224E+03  0.00000000000E+00 0.  1.
   -9000007    1    1    2    0  502  0.14801359185E+03  0.21308236578E+03 -0.46224803959E+03  0.66406729184E+03  0.40000000000E+03 0.  1.
<mgrwt>
<rscale>  2 0.47650329E+03</rscale>
<asrwt>0</asrwt>
<pdfrwt beam="1">  1       21 0.30251061E-01 0.47677261E+03</pdfrwt>
<pdfrwt beam="2">  1       21 0.17756251E+00 0.47677261E+03</pdfrwt>
<totfact> 0.16625215E+03</totfact>
</mgrwt>
</event>
<event>
 6    1  0.9598567E-004  0.4337743E+03  0.7818608E-02  0.1032753E+00
         21   -1    0    0  503  502  0.00000000000E+00  0.00000000000E+00  0.28615835759E+03  0.28615835759E+03  0.00000000000E+00 0.  1.
         21   -1    0    0  501  503 -0.00000000000E+00 -0.00000000000E+00 -0.89962108284E+03  0.89962108284E+03  0.00000000000E+00 0.  1.
    9000007    2    1    2  501    0 -0.14258814057E+03  0.88480139228E+02 -0.61499602926E+03  0.75200246560E+03  0.39890785829E+03 0.  0.
    9000005    1    3    3    0    0  0.21813322535E+02 -0.53446225548E+02  0.34429858790E+02  0.67221538479E+02  0.99999687468E+00 0.  0.
          4    1    3    3  501    0 -0.16440146310E+03  0.14192636478E+03 -0.64942588805E+03  0.68478092712E+03  0.00000000000E+00 0.  1.
   -9000007    1    1    2    0  502  0.14258814057E+03 -0.88480139228E+02  0.15333040144E+01  0.43377697483E+03  0.40000000000E+03 0.  1.
<mgrwt>
<rscale>  2 0.43352232E+03</rscale>
<asrwt>0</asrwt>
<pdfrwt beam="1">  1       21 0.44024363E-01 0.43377426E+03</pdfrwt>
<pdfrwt beam="2">  1       21 0.13840324E+00 0.43377426E+03</pdfrwt>
<totfact> 0.15704365E+03</totfact>
</mgrwt>
</event>
<event>
 6    1  0.9598567E-004  0.5136241E+03  0.7818608E-02  0.1010297E+00
         21   -1    0    0  503  502  0.00000000000E+00  0.00000000000E+00  0.21271694311E+03  0.21271694311E+03  0.00000000000E+00 0. -1.
         21   -1    0    0  501  503 -0.00000000000E+00 -0.00000000000E+00 -0.18441169219E+04  0.18441169219E+04  0.00000000000E+00 0. -1.
    9000007    2    1    2  501    0  0.32217702449E+03 -0.34243378466E+01 -0.14043696253E+04  0.14952712749E+04  0.39971537359E+03 0.  0.
    9000005    1    3    3    0    0  0.79538866323E+02  0.14193212742E+03 -0.19843085738E+03  0.25660663515E+03  0.99999687468E+00 0.  0.
          4    1    3    3  501    0  0.24263815816E+03 -0.14535646527E+03 -0.12059387679E+04  0.12386646397E+04  0.00000000000E+00 0.  1.
   -9000007    1    1    2    0  502 -0.32217702449E+03  0.34243378466E+01 -0.22703035348E+03  0.56156259010E+03  0.40000000000E+03 0. -1.
<mgrwt>
<rscale>  2 0.51356873E+03</rscale>
<asrwt>0</asrwt>
<pdfrwt beam="1">  1       21 0.32725685E-01 0.51362414E+03</pdfrwt>
<pdfrwt beam="2">  1       21 0.28371029E+00 0.51362414E+03</pdfrwt>
<totfact> 0.29201389E+02</totfact>
</mgrwt>
</event>
<event>
 6    1  0.9598567E-004  0.4043572E+03  0.7818608E-02  0.1042453E+00
         21   -1    0    0  503  502  0.00000000000E+00  0.00000000000E+00  0.23532038933E+04  0.23532038933E+04  0.00000000000E+00 0. -1.
         21   -1    0    0  501  503 -0.00000000000E+00 -0.00000000000E+00 -0.10507121192E+03  0.10507121192E+03  0.00000000000E+00 0. -1.
    9000007    2    1    2  501    0 -0.30269963946E+02  0.31194916337E+02  0.40710722217E+03  0.57379530034E+03  0.40201413263E+03 0.  0.
    9000005    1    3    3    0    0 -0.14701350747E+02  0.92542067436E+02  0.47313885691E+03  0.48232928780E+03  0.99999687468E+00 0.  0.
          4    1    3    3  501    0 -0.15568613199E+02 -0.61347151098E+02 -0.66031634738E+02  0.91466012546E+02  0.00000000000E+00 0.  1.
   -9000007    1    1    2    0  502  0.30269963946E+02 -0.31194916337E+02  0.18410254592E+04  0.18844798048E+04  0.40000000000E+03 0.  1.
<mgrwt>
<rscale>  2 0.40385568E+03</rscale>
<asrwt>0</asrwt>
<pdfrwt beam="1">  1       21 0.36203133E+00 0.40435721E+03</pdfrwt>
<pdfrwt beam="2">  1       21 0.16164804E-01 0.40435721E+03</pdfrwt>
<totfact> 0.40751316E+02</totfact>
</mgrwt>
</event>
<event>
 6    1  0.9598567E-004  0.4575764E+03  0.7818608E-02  0.1025501E+00
         21   -1    0    0  503  502  0.00000000000E+00  0.00000000000E+00  0.86032755538E+03  0.86032755538E+03  0.00000000000E+00 0. -1.
         21   -1    0    0  501  503 -0.00000000000E+00 -0.00000000000E+00 -0.24329800459E+03  0.24329800459E+03  0.00000000000E+00 0.  1.
    9000007    2    1    2  501    0 -0.20609876408E+02  0.22124971396E+03  0.30177051687E+03  0.54795977786E+03  0.39977277343E+03 0.  0.
    9000005    1    3    3    0    0 -0.14292772745E+03  0.52609156654E+02  0.30355606450E+03  0.33962235340E+03  0.99999687468E+00 0.  0.
          4    1    3    3  501    0  0.12231785104E+03  0.16864055731E+03 -0.17855476330E+01  0.20833742447E+03  0.00000000000E+00 0.  1.
   -9000007    1    1    2    0  502  0.20609876408E+02 -0.22124971396E+03  0.31525903392E+03  0.55566578210E+03  0.40000000000E+03 0. -1.
<mgrwt>
<rscale>  2 0.45752678E+03</rscale>
<asrwt>0</asrwt>
<pdfrwt beam="1">  1       21 0.13235808E+00 0.45757644E+03</pdfrwt>
<pdfrwt beam="2">  1       21 0.37430463E-01 0.45757644E+03</pdfrwt>
<totfact> 0.24450389E+03</totfact>
</mgrwt>
</event>
<event>
 6    1  0.9598567E-004  0.4083651E+03  0.7818608E-02  0.1041020E+00
         21   -1    0    0  503  502  0.00000000000E+00  0.00000000000E+00  0.47586049703E+03  0.47586049703E+03  0.00000000000E+00 0. -1.
         21   -1    0    0  501  503 -0.00000000000E+00 -0.00000000000E+00 -0.34992135152E+03  0.34992135152E+03  0.00000000000E+00 0. -1.
    9000007    2    1    2  501    0 -0.35261084470E+02  0.74288189846E+02  0.78237193092E+02  0.41464007800E+03  0.39880227766E+03 0.  0.
    9000005    1    3    3    0    0 -0.14256884692E+03 -0.13596899555E+02 -0.11016430502E+03  0.18068737057E+03  0.99999687468E+00 0.  0.
          4    1    3    3  501    0  0.10730776244E+03  0.87885089401E+02  0.18840149812E+03  0.23395270743E+03  0.00000000000E+00 0.  1.
   -9000007    1    1    2    0  502  0.35261084470E+02 -0.74288189846E+02  0.47701952425E+02  0.41114177055E+03  0.40000000000E+03 0.  1.
<mgrwt>
<rscale>  2 0.40807153E+03</rscale>
<asrwt>0</asrwt>
<pdfrwt beam="1">  1       21 0.73209307E-01 0.40836513E+03</pdfrwt>
<pdfrwt beam="2">  1       21 0.53834054E-01 0.40836513E+03</pdfrwt>
<totfact> 0.48846380E+03</totfact>
</mgrwt>
</event>
<event>
 6    1  0.9598567E-004  0.4148210E+03  0.7818608E-02  0.1038775E+00
         21   -1    0    0  503  502  0.00000000000E+00  0.00000000000E+00  0.48442325464E+03  0.48442325464E+03  0.00000000000E+00 0.  1.
         21   -1    0    0  501  503 -0.00000000000E+00 -0.00000000000E+00 -0.36671861855E+03  0.36671861855E+03  0.00000000000E+00 0.  1.
    9000007    2    1    2  501    0  0.14002945571E+01 -0.10945643495E+03  0.13453701696E+03  0.43609247730E+03  0.40011719265E+03 0.  0.
    9000005    1    3    3    0    0  0.12161992674E+03  0.27333268807E+02 -0.84981541625E+02  0.15086873955E+03  0.99999687468E+00 0.  0.
          4    1    3    3  501    0 -0.12021963218E+03 -0.13678970376E+03  0.21951855858E+03  0.28522373775E+03  0.00000000000E+00 0.  1.
   -9000007    1    1    2    0  502 -0.14002945571E+01  0.10945643495E+03 -0.16832380873E+02  0.41504939588E+03  0.40000000000E+03 0.  1.
<mgrwt>
<rscale>  2 0.41479271E+03</rscale>
<asrwt>0</asrwt>
<pdfrwt beam="1">  1       21 0.74526654E-01 0.41482097E+03</pdfrwt>
<pdfrwt beam="2">  1       21 0.56418249E-01 0.41482097E+03</pdfrwt>
<totfact> 0.42300640E+03</totfact>
</mgrwt>
</event>
<event>
 6    1  0.9598567E-004  0.6312358E+03  0.7818608E-02  0.9842796E-01
         21   -1    0    0  503  502  0.00000000000E+00  0.00000000000E+00  0.17177536891E+04  0.17177536891E+04  0.00000000000E+00 0.  1.
         21   -1    0    0  501  503 -0.00000000000E+00 -0.00000000000E+00 -0.57051210568E+03  0.57051210568E+03  0.00000000000E+00 0. -1.
    9000007    2    1    2  501    0  0.48811746073E+03 -0.14140224210E+02 -0.30795184846E+03  0.70206072430E+03  0.39949507909E+03 0.  0.
    9000005    1    3    3    0    0  0.63596447636E+02 -0.12748835188E+03  0.32587858544E+02  0.14615319543E+03  0.99999687468E+00 0.  0.
          4    1    3    3  501    0  0.42452101310E+03  0.11334812766E+03 -0.34053970701E+03  0.55590752887E+03  0.00000000000E+00 0.  1.
   -9000007    1    1    2    0  502 -0.48811746073E+03  0.14140224210E+02  0.14551934319E+04  0.15862050705E+04  0.40000000000E+03 0.  1.
<mgrwt>
<rscale>  2 0.63115580E+03</rscale>
<asrwt>0</asrwt>
<pdfrwt beam="1">  1       21 0.26426980E+00 0.63123577E+03</pdfrwt>
<pdfrwt beam="2">  1       21 0.87771094E-01 0.63123577E+03</pdfrwt>
<totfact> 0.42574548E+01</totfact>
</mgrwt>
</event>
<event>
 6    1  0.9598567E-004  0.4127868E+03  0.7818608E-02  0.1039477E+00
         21   -1    0    0  503  502  0.00000000000E+00  0.00000000000E+00  0.37454380506E+03  0.37454380506E+03  0.00000000000E+00 0. -1.
         21   -1    0    0  501  503 -0.00000000000E+00 -0.00000000000E+00 -0.99678469725E+03  0.99678469725E+03  0.00000000000E+00 0. -1.
    9000007    2    1    2  501    0  0.67631670620E+02  0.76281973991E+02 -0.81680816324E+03  0.91498498543E+03  0.39953593780E+03 0.  0.
    9000005    1    3    3    0    0 -0.14720881820E+03 -0.58686943384E+02 -0.30251742322E+03  0.34151483836E+03  0.99999687468E+00 0.  0.
          4    1    3    3  501    0  0.21484048882E+03  0.13496891738E+03 -0.51429074003E+03  0.57347014707E+03  0.00000000000E+00 0.  1.
   -9000007    1    1    2    0  502 -0.67631670620E+02 -0.76281973991E+02  0.19456727106E+03  0.45634351688E+03  0.40000000000E+03 0. -1.
<mgrwt>
<rscale>  2 0.41267438E+03</rscale>
<asrwt>0</asrwt>
<pdfrwt beam="1">  1       21 0.57622124E-01 0.41278685E+03</pdfrwt>
<pdfrwt beam="2">  1       21 0.15335149E+00 0.41278685E+03</pdfrwt>
<totfact> 0.67881397E+02</totfact>
</mgrwt>
</event>
<event>
 6    1  0.9598567E-004  0.4376374E+03  0.7818608E-02  0.1031508E+00
         21   -1    0    0  503  502  0.00000000000E+00  0.00000000000E+00  0.28878620212E+03  0.28878620212E+03  0.00000000000E+00 0. -1.
         21   -1    0    0  501  503 -0.00000000000E+00 -0.00000000000E+00 -0.94102565025E+03  0.94102565025E+03  0.00000000000E+00 0. -1.
    9000007    2    1    2  501    0 -0.78477138964E+01 -0.17738361093E+03 -0.66050664679E+03  0.79209632990E+03  0.39952601085E+03 0.  0.
    9000005    1    3    3    0    0  0.27581302616E+02 -0.77752219817E+02 -0.67964551293E+03  0.68463505547E+03  0.99999687468E+00 0.  0.
          4    1    3    3  501    0 -0.35429016512E+02 -0.99631391109E+02  0.19138866137E+02  0.10746127443E+03  0.00000000000E+00 0.  1.
   -9000007    1    1    2    0  502  0.78477138964E+01  0.17738361093E+03  0.82671986672E+01  0.43771552247E+03  0.40000000000E+03 0. -1.
<mgrwt>
<rscale>  2 0.43752911E+03</rscale>
<asrwt>0</asrwt>
<pdfrwt beam="1">  1       21 0.44428647E-01 0.43763744E+03</pdfrwt>
<pdfrwt beam="2">  1       21 0.14477318E+00 0.43763744E+03</pdfrwt>
<totfact> 0.13642473E+03</totfact>
</mgrwt>
</event>
<event>
 6    1  0.9598567E-004  0.5518383E+03  0.7818608E-02  0.1001092E+00
         21   -1    0    0  503  502  0.00000000000E+00  0.00000000000E+00  0.34729616357E+03  0.34729616357E+03  0.00000000000E+00 0. -1.
         21   -1    0    0  501  503 -0.00000000000E+00 -0.00000000000E+00 -0.10063795514E+04  0.10063795514E+04  0.00000000000E+00 0. -1.
    9000007    2    1    2  501    0  0.38000269525E+03  0.11113221416E+02 -0.57284918934E+03  0.79514022901E+03  0.39945742949E+03 0.  0.
    9000005    1    3    3    0    0  0.39336668240E+03 -0.10786686133E+03 -0.52819540335E+03  0.66735597001E+03  0.99999687468E+00 0.  0.
          4    1    3    3  501    0 -0.13363987155E+02  0.11898008275E+03 -0.44653785988E+02  0.12778425900E+03  0.00000000000E+00 0.  1.
   -9000007    1    1    2    0  502 -0.38000269525E+03 -0.11113221416E+02 -0.86234198493E+02  0.55853548596E+03  0.40000000000E+03 0. -1.
<mgrwt>
<rscale>  2 0.55174002E+03</rscale>
<asrwt>0</asrwt>
<pdfrwt beam="1">  1       21 0.53430179E-01 0.55183834E+03</pdfrwt>
<pdfrwt beam="2">  1       21 0.15482762E+00 0.55183834E+03</pdfrwt>
<totfact> 0.73465982E+02</totfact>
</mgrwt>
</event>
<event>
 6    1  0.9598567E-004  0.4221808E+03  0.7818608E-02  0.1036984E+00
         21   -1    0    0  503  502  0.00000000000E+00  0.00000000000E+00  0.19708677693E+04  0.19708677693E+04  0.00000000000E+00 0. -1.
         21   -1    0    0  501  503 -0.00000000000E+00 -0.00000000000E+00 -0.11003214386E+03  0.11003214386E+03  0.00000000000E+00 0. -1.
    9000007    2    1    2  501    0 -0.13277625220E+03 -0.24638811494E+02  0.46656173605E+03  0.62411019504E+03  0.39191463079E+03 0.  0.
    9000005    1    3    3    0    0 -0.82089389774E+02 -0.18925558028E+03  0.12402755131E+03  0.24070765683E+03  0.99999687468E+00 0.  0.
          4    1    3    3  501    0 -0.50686862426E+02  0.16461676878E+03  0.34253418474E+03  0.38340253821E+03  0.00000000000E+00 0.  1.
   -9000007    1    1    2    0  502  0.13277625220E+03  0.24638811494E+02  0.13942738894E+04  0.14567897181E+04  0.40000000000E+03 0. -1.
<mgrwt>
<rscale>  2 0.42025450E+03</rscale>
<asrwt>0</asrwt>
<pdfrwt beam="1">  1       21 0.30321040E+00 0.42218077E+03</pdfrwt>
<pdfrwt beam="2">  1       21 0.16928024E-01 0.42218077E+03</pdfrwt>
<totfact> 0.83988458E+02</totfact>
</mgrwt>
</event>
<event>
 6    1  0.9598567E-004  0.4882595E+03  0.7818608E-02  0.1016929E+00
         21   -1    0    0  503  502  0.00000000000E+00  0.00000000000E+00  0.13128006133E+04  0.13128006133E+04  0.00000000000E+00 0. -1.
         21   -1    0    0  501  503 -0.00000000000E+00 -0.00000000000E+00 -0.23677281306E+03  0.23677281306E+03  0.00000000000E+00 0. -1.
    9000007    2    1    2  501    0  0.19478023089E+03  0.20114169642E+03  0.16300392968E+03  0.51419431288E+03  0.39928459765E+03 0.  0.
    9000005    1    3    3    0    0  0.22777958465E+03  0.29724854988E+03  0.17216563702E+03  0.41216774031E+03  0.99999687468E+00 0.  0.
          4    1    3    3  501    0 -0.32999353758E+02 -0.96106853457E+02 -0.91617073391E+01  0.10202657257E+03  0.00000000000E+00 0.  1.
   -9000007    1    1    2    0  502 -0.19478023089E+03 -0.20114169642E+03  0.91302387053E+03  0.10353791134E+04  0.40000000000E+03 0. -1.
<mgrwt>
<rscale>  2 0.48811294E+03</rscale>
<asrwt>0</asrwt>
<pdfrwt beam="1">  1       21 0.20196932E+00 0.48825948E+03</pdfrwt>
<pdfrwt beam="2">  1       21 0.36426588E-01 0.48825948E+03</pdfrwt>
<totfact> 0.77336970E+02</totfact>
</mgrwt>
</event>
<event>
 6    1  0.9598567E-004  0.4489364E+03  0.7818608E-02  0.1028055E+00
         21   -1    0    0  503  502  0.00000000000E+00  0.00000000000E+00  0.58620307452E+03  0.58620307452E+03  0.00000000000E+00 0. -1.
         21   -1    0    0  501  503 -0.00000000000E+00 -0.00000000000E+00 -0.48364638172E+03  0.48364638172E+03  0.00000000000E+00 0. -1.
    9000007    2    1    2  501    0 -0.15914461839E+03  0.12661292087E+03 -0.23650700234E+03  0.50742432286E+03  0.40023248242E+03 0.  0.
    9000005    1    3    3    0    0 -0.27558273335E+03  0.66251170348E+02 -0.24685378662E+03  0.37586281068E+03  0.99999687468E+00 0.  0.
          4    1    3    3  501    0  0.11643811496E+03  0.60361750523E+02  0.10346784274E+02  0.13156151218E+03  0.00000000000E+00 0.  1.
   -9000007    1    1    2    0  502  0.15914461839E+03 -0.12661292087E+03  0.33906369514E+03  0.56242513338E+03  0.40000000000E+03 0. -1.
<mgrwt>
<rscale>  2 0.44888457E+03</rscale>
<asrwt>0</asrwt>
<pdfrwt beam="1">  1       21 0.90185088E-01 0.44893639E+03</pdfrwt>
<pdfrwt beam="2">  1       21 0.74407136E-01 0.44893639E+03</pdfrwt>
<totfact> 0.14513319E+03</totfact>
</mgrwt>
</event>
<event>
 6    1  0.9598567E-004  0.5153133E+03  0.7818608E-02  0.1009963E+00
         21   -1    0    0  503  502  0.00000000000E+00  0.00000000000E+00  0.55899313976E+03  0.55899313976E+03  0.00000000000E+00 0.  1.
         21   -1    0    0  501  503 -0.00000000000E+00 -0.00000000000E+00 -0.12732989764E+04  0.12732989764E+04  0.00000000000E+00 0. -1.
    9000007    2    1    2  501    0 -0.24053965146E+03 -0.21439054281E+03 -0.10834570944E+04  0.11997612632E+04  0.40215069868E+03 0.  0.
    9000005    1    3    3    0    0 -0.23280646343E+03 -0.30885152475E+03 -0.65258410648E+03  0.75858758873E+03  0.99999687468E+00 0.  0.
          4    1    3    3  501    0 -0.77331880315E+01  0.94460981936E+02 -0.43087298795E+03  0.44117367448E+03  0.00000000000E+00 0.  1.
   -9000007    1    1    2    0  502  0.24053965146E+03  0.21439054281E+03  0.36915125780E+03  0.63253085293E+03  0.40000000000E+03 0.  1.
<mgrwt>
<rscale>  2 0.51489364E+03</rscale>
<asrwt>0</asrwt>
<pdfrwt beam="1">  1       21 0.85998945E-01 0.51531332E+03</pdfrwt>
<pdfrwt beam="2">  1       21 0.19589215E+00 0.51531332E+03</pdfrwt>
<totfact> 0.12910011E+02</totfact>
</mgrwt>
</event>
<event>
 6    1  0.9598567E-004  0.5841794E+03  0.7818608E-02  0.9938823E-01
         21   -1    0    0  503  502  0.00000000000E+00  0.00000000000E+00  0.45863817792E+03  0.45863817792E+03  0.00000000000E+00 0.  1.
         21   -1    0    0  501  503 -0.00000000000E+00 -0.00000000000E+00 -0.10939494887E+04  0.10939494887E+04  0.00000000000E+00 0.  1.
    9000007    2    1    2  501    0 -0.33661144311E+03 -0.26068809577E+03 -0.75671371988E+03  0.95592688201E+03  0.39989373963E+03 0.  0.
    9000005    1    3    3    0    0  0.55769420695E+01  0.72675571036E+02 -0.24613373081E+03  0.25670148878E+03  0.99999687468E+00 0.  0.
          4    1    3    3  501    0 -0.34218838518E+03 -0.33336366680E+03 -0.51057998907E+03  0.69922539323E+03  0.00000000000E+00 0.  1.
   -9000007    1    1    2    0  502  0.33661144311E+03  0.26068809577E+03  0.12140240913E+03  0.59666078458E+03  0.40000000000E+03 0.  1.
<mgrwt>
<rscale>  2 0.58416119E+03</rscale>
<asrwt>0</asrwt>
<pdfrwt beam="1">  1       21 0.70559720E-01 0.58417938E+03</pdfrwt>
<pdfrwt beam="2">  1       21 0.16829992E+00 0.58417938E+03</pdfrwt>
<totfact> 0.31018930E+02</totfact>
</mgrwt>
</event>
<event>
 6    1  0.9598567E-004  0.6064578E+03  0.7818608E-02  0.9892122E-01
         21   -1    0    0  503  502  0.00000000000E+00  0.00000000000E+00  0.29049030577E+03  0.29049030577E+03  0.00000000000E+00 0.  1.
         21   -1    0    0  501  503 -0.00000000000E+00 -0.00000000000E+00 -0.24588545016E+04  0.24588545016E+04  0.00000000000E+00 0.  1.
    9000007    2    1    2  501    0 -0.21976139563E+03 -0.39929889804E+03 -0.20416735207E+04  0.21298408056E+04  0.40007050806E+03 0.  0.
    9000005    1    3    3    0    0 -0.16822485674E+03  0.31127854583E+02 -0.50507798548E+03  0.53326664734E+03  0.99999687468E+00 0.  0.
          4    1    3    3  501    0 -0.51536538896E+02 -0.43042675262E+03 -0.15365955352E+04  0.15965741583E+04  0.00000000000E+00 0.  1.
   -9000007    1    1    2    0  502  0.21976139563E+03  0.39929889804E+03 -0.12669067518E+03  0.61950400173E+03  0.40000000000E+03 0.  1.
<mgrwt>
<rscale>  2 0.60644620E+03</rscale>
<asrwt>0</asrwt>
<pdfrwt beam="1">  1       21 0.44690819E-01 0.60645782E+03</pdfrwt>
<pdfrwt beam="2">  1       21 0.37828528E+00 0.60645782E+03</pdfrwt>
<totfact> 0.38415381E+01</totfact>
</mgrwt>
</event>
<event>
 6    1  0.9598567E-004  0.4896888E+03  0.7818608E-02  0.1016509E+00
         21   -1    0    0  503  502  0.00000000000E+00  0.00000000000E+00  0.16090306092E+04  0.16090306092E+04  0.00000000000E+00 0.  1.
         21   -1    0    0  501  503 -0.00000000000E+00 -0.00000000000E+00 -0.36128279435E+03  0.36128279435E+03  0.00000000000E+00 0. -1.
    9000007    2    1    2  501    0 -0.27956946902E+03  0.39900064571E+02 -0.13124398252E+03  0.50697151582E+03  0.40005503590E+03 0.  0.
    9000005    1    3    3    0    0 -0.35088806854E+03  0.52609322481E+02 -0.19982855784E+03  0.40721324877E+03  0.99999687468E+00 0.  0.
          4    1    3    3  501    0  0.71318599513E+02 -0.12709257911E+02  0.68584575323E+02  0.99758267053E+02  0.00000000000E+00 0.  1.
   -9000007    1    1    2    0  502  0.27956946902E+03 -0.39900064571E+02  0.13789917974E+04  0.14633418878E+04  0.40000000000E+03 0.  1.
<mgrwt>
<rscale>  2 0.48967757E+03</rscale>
<asrwt>0</asrwt>
<pdfrwt beam="1">  1       21 0.24754317E+00 0.48968881E+03</pdfrwt>
<pdfrwt beam="2">  1       21 0.55581969E-01 0.48968881E+03</pdfrwt>
<totfact> 0.16285626E+02</totfact>
</mgrwt>
</event>
<event>
 6    1  0.9598567E-004  0.4734779E+03  0.7818608E-02  0.1020956E+00
         21   -1    0    0  503  502  0.00000000000E+00  0.00000000000E+00  0.40593841650E+03  0.40593841650E+03  0.00000000000E+00 0. -1.
         21   -1    0    0  501  503 -0.00000000000E+00 -0.00000000000E+00 -0.59149733482E+03  0.59149733482E+03  0.00000000000E+00 0. -1.
    9000007    2    1    2  501    0 -0.20979655994E+03 -0.14140794072E+03 -0.22159650271E+03  0.52276796249E+03  0.40021310615E+03 0.  0.
    9000005    1    3    3    0    0 -0.24282253048E+03 -0.13199677096E+02  0.23380733034E+02  0.24430446466E+03  0.99999687468E+00 0.  0.
          4    1    3    3  501    0  0.33025970534E+02 -0.12820826363E+03 -0.24497723575E+03  0.27846349783E+03  0.00000000000E+00 0.  1.
   -9000007    1    1    2    0  502  0.20979655994E+03  0.14140794072E+03  0.36037584392E+02  0.47466778883E+03  0.40000000000E+03 0. -1.
<mgrwt>
<rscale>  2 0.47343288E+03</rscale>
<asrwt>0</asrwt>
<pdfrwt beam="1">  1       21 0.62452064E-01 0.47347791E+03</pdfrwt>
<pdfrwt beam="2">  1       21 0.90999589E-01 0.47347791E+03</pdfrwt>
<totfact> 0.20850135E+03</totfact>
</mgrwt>
</event>
<event>
 6    1  0.9598567E-004  0.4197428E+03  0.7818608E-02  0.1037211E+00
         21   -1    0    0  503  502  0.00000000000E+00  0.00000000000E+00  0.40283971898E+03  0.40283971898E+03  0.00000000000E+00 0.  1.
         21   -1    0    0  501  503 -0.00000000000E+00 -0.00000000000E+00 -0.48228290309E+03  0.48228290309E+03  0.00000000000E+00 0.  1.
    9000007    2    1    2  501    0 -0.85710261859E+02  0.90613610666E+02  0.96488092446E+02  0.43069013039E+03  0.40078293502E+03 0.  0.
    9000005    1    3    3    0    0  0.57529440008E+01 -0.14398573213E+03  0.10571594398E+03  0.17872282514E+03  0.99999687468E+00 0.  0.
          4    1    3    3  501    0 -0.91463205860E+02  0.23459934280E+03 -0.92278515352E+01  0.25196730524E+03  0.00000000000E+00 0.  1.
   -9000007    1    1    2    0  502  0.85710261859E+02 -0.90613610666E+02 -0.17593127656E+03  0.45443249168E+03  0.40000000000E+03 0.  1.
<mgrwt>
<rscale>  2 0.41955582E+03</rscale>
<asrwt>0</asrwt>
<pdfrwt beam="1">  1       21 0.61975341E-01 0.41974282E+03</pdfrwt>
<pdfrwt beam="2">  1       21 0.74197370E-01 0.41974282E+03</pdfrwt>
<totfact> 0.34744625E+03</totfact>
</mgrwt>
</event>
<event>
 6    1  0.9598567E-004  0.4525395E+03  0.7818608E-02  0.1027017E+00
         21   -1    0    0  503  502  0.00000000000E+00  0.00000000000E+00  0.10980778723E+03  0.10980778723E+03  0.00000000000E+00 0.  1.
         21   -1    0    0  501  503 -0.00000000000E+00 -0.00000000000E+00 -0.28161486052E+04  0.28161486052E+04  0.00000000000E+00 0.  1.
    9000007    2    1    2  501    0 -0.11286308853E+03  0.17903609829E+03 -0.22039652605E+04  0.22498105487E+04  0.39924007106E+03 0.  0.
    9000005    1    3    3    0    0 -0.63515655139E+02 -0.12547339618E+03 -0.81016808945E+03  0.82228410222E+03  0.99999687468E+00 0.  0.
          4    1    3    3  501    0 -0.49347433391E+02  0.30450949448E+03 -0.13937971710E+04  0.14275264465E+04  0.00000000000E+00 0.  1.
   -9000007    1    1    2    0  502  0.11286308853E+03 -0.17903609829E+03 -0.50237555746E+03  0.67614584372E+03  0.40000000000E+03 0.  1.
<mgrwt>
<rscale>  2 0.45237152E+03</rscale>
<asrwt>0</asrwt>
<pdfrwt beam="1">  1       21 0.16893509E-01 0.45253950E+03</pdfrwt>
<pdfrwt beam="2">  1       21 0.43325354E+00 0.45253950E+03</pdfrwt>
<totfact> 0.12714808E+02</totfact>
</mgrwt>
</event>
<event>
 6    1  0.9598567E-004  0.4729866E+03  0.7818608E-02  0.1021169E+00
         21   -1    0    0  503  502  0.00000000000E+00  0.00000000000E+00  0.52250085269E+03  0.52250085269E+03  0.00000000000E+00 0. -1.
         21   -1    0    0  501  503 -0.00000000000E+00 -0.00000000000E+00 -0.67870660908E+03  0.67870660908E+03  0.00000000000E+00 0. -1.
    9000007    2    1    2  501    0 -0.14620187576E+02 -0.25199716169E+03 -0.44377973099E+03  0.64765971292E+03  0.39850512508E+03 0.  0.
    9000005    1    3    3    0    0 -0.10762502896E+03 -0.20746159272E+03 -0.48360350872E+03  0.53711899329E+03  0.99999687468E+00 0.  0.
          4    1    3    3  501    0  0.93004841382E+02 -0.44535568973E+02  0.39823777727E+02  0.11054071963E+03  0.00000000000E+00 0.  1.
   -9000007    1    1    2    0  502  0.14620187576E+02  0.25199716169E+03  0.28757397460E+03  0.55354774885E+03  0.40000000000E+03 0. -1.
<mgrwt>
<rscale>  2 0.47267040E+03</rscale>
<asrwt>0</asrwt>
<pdfrwt beam="1">  1       21 0.80384747E-01 0.47298660E+03</pdfrwt>
<pdfrwt beam="2">  1       21 0.10441640E+00 0.47298660E+03</pdfrwt>
<totfact> 0.84521389E+02</totfact>
</mgrwt>
</event>
<event>
 6    1  0.9598567E-004  0.4629636E+03  0.7818608E-02  0.1023945E+00
         21   -1    0    0  503  502  0.00000000000E+00  0.00000000000E+00  0.10170498422E+04  0.10170498422E+04  0.00000000000E+00 0. -1.
         21   -1    0    0  501  503 -0.00000000000E+00 -0.00000000000E+00 -0.31857379270E+03  0.31857379270E+03  0.00000000000E+00 0. -1.
    9000007    2    1    2  501    0 -0.12848810462E+03  0.19448942738E+03 -0.39584242254E+02  0.46437836251E+03  0.39968114910E+03 0.  0.
    9000005    1    3    3    0    0 -0.19412498642E+03  0.25375185212E+03  0.66427333824E+02  0.32632514994E+03  0.99999687468E+00 0.  0.
          4    1    3    3  501    0  0.65636881800E+02 -0.59262424746E+02 -0.10601157608E+03  0.13805321257E+03  0.00000000000E+00 0.  1.
   -9000007    1    1    2    0  502  0.12848810462E+03 -0.19448942738E+03  0.73806029174E+03  0.87124527238E+03  0.40000000000E+03 0. -1.
<mgrwt>
<rscale>  2 0.46289476E+03</rscale>
<asrwt>0</asrwt>
<pdfrwt beam="1">  1       21 0.15646921E+00 0.46296364E+03</pdfrwt>
<pdfrwt beam="2">  1       21 0.49011353E-01 0.46296364E+03</pdfrwt>
<totfact> 0.88852053E+02</totfact>
</mgrwt>
</event>
<event>
 6    1  0.9598567E-004  0.4814395E+03  0.7818608E-02  0.1018775E+00
         21   -1    0    0  503  502  0.00000000000E+00  0.00000000000E+00  0.68253850068E+03  0.68253850068E+03  0.00000000000E+00 0.  1.
         21   -1    0    0  501  503 -0.00000000000E+00 -0.00000000000E+00 -0.61230659860E+03  0.61230659860E+03  0.00000000000E+00 0.  1.
    9000007    2    1    2  501    0  0.24264728552E+03  0.11143164804E+03 -0.39723181405E+03  0.62416108779E+03  0.40061107332E+03 0.  0.
    9000005    1    3    3    0    0  0.69919868830E+02 -0.15148220775E+03 -0.14035471344E+03  0.21802773425E+03  0.99999687468E+00 0.  0.
          4    1    3    3  501    0  0.17272741669E+03  0.26291385579E+03 -0.25687710061E+03  0.40613335354E+03  0.00000000000E+00 0.  1.
   -9000007    1    1    2    0  502 -0.24264728552E+03 -0.11143164804E+03  0.46746371614E+03  0.67068401149E+03  0.40000000000E+03 0.  1.
<mgrwt>
<rscale>  2 0.48131231E+03</rscale>
<asrwt>0</asrwt>
<pdfrwt beam="1">  1       21 0.10500592E+00 0.48143946E+03</pdfrwt>
<pdfrwt beam="2">  1       21 0.94201015E-01 0.48143946E+03</pdfrwt>
<totfact> 0.57174243E+02</totfact>
</mgrwt>
</event>
<event>
 6    1  0.9598567E-004  0.5929007E+03  0.7818608E-02  0.9920607E-01
         21   -1    0    0  503  502  0.00000000000E+00  0.00000000000E+00  0.14475842324E+04  0.14475842324E+04  0.00000000000E+00 0. -1.
         21   -1    0    0  501  503 -0.00000000000E+00 -0.00000000000E+00 -0.24384240666E+03  0.24384240666E+03  0.00000000000E+00 0. -1.
    9000007    2    1    2  501    0 -0.42337486675E+03 -0.10709831655E+03  0.54084847991E+03  0.80252624242E+03  0.40101741154E+03 0.  0.
    9000005    1    3    3    0    0 -0.33559697584E+03  0.37930571681E+02  0.13686098757E+03  0.36441183896E+03  0.99999687468E+00 0.  0.
          4    1    3    3  501    0 -0.87777890907E+02 -0.14502888823E+03  0.40398749234E+03  0.43811440346E+03  0.00000000000E+00 0.  1.
   -9000007    1    1    2    0  502  0.42337486675E+03  0.10709831655E+03  0.66289334582E+03  0.88890039663E+03  0.40000000000E+03 0. -1.
<mgrwt>
<rscale>  2 0.59272875E+03</rscale>
<asrwt>0</asrwt>
<pdfrwt beam="1">  1       21 0.22270526E+00 0.59290074E+03</pdfrwt>
<pdfrwt beam="2">  1       21 0.37514217E-01 0.59290074E+03</pdfrwt>
<totfact> 0.51084649E+02</totfact>
</mgrwt>
</event>
<event>
 6    1  0.9598567E-004  0.4139248E+03  0.7818608E-02  0.1039081E+00
         21   -1    0    0  503  502  0.00000000000E+00  0.00000000000E+00  0.34088230117E+03  0.34088230117E+03  0.00000000000E+00 0. -1.
         21   -1    0    0  501  503 -0.00000000000E+00 -0.00000000000E+00 -0.50930353870E+03  0.50930353870E+03  0.00000000000E+00 0. -1.
    9000007    2    1    2  501    0  0.53497038331E+02  0.91015960235E+02 -0.34537485564E+02  0.41536323562E+03  0.40023485789E+03 0.  0.
    9000005    1    3    3    0    0 -0.75947246739E+02  0.82486292733E+02  0.15155002624E+03  0.18852157230E+03  0.99999687468E+00 0.  0.
          4    1    3    3  501    0  0.12944428507E+03  0.85296675023E+01 -0.18608751181E+03  0.22684166331E+03  0.00000000000E+00 0.  1.
   -9000007    1    1    2    0  502 -0.53497038331E+02 -0.91015960235E+02 -0.13388375197E+03  0.43482260425E+03  0.40000000000E+03 0. -1.
<mgrwt>
<rscale>  2 0.41386806E+03</rscale>
<asrwt>0</asrwt>
<pdfrwt beam="1">  1       21 0.52443431E-01 0.41392485E+03</pdfrwt>
<pdfrwt beam="2">  1       21 0.78354391E-01 0.41392485E+03</pdfrwt>
<totfact> 0.44160706E+03</totfact>
</mgrwt>
</event>
<event>
 6    1  0.9598567E-004  0.4403777E+03  0.7818608E-02  0.1030662E+00
         21   -1    0    0  503  502  0.00000000000E+00  0.00000000000E+00  0.21711018610E+03  0.21711018610E+03  0.00000000000E+00 0.  1.
         21   -1    0    0  501  503 -0.00000000000E+00 -0.00000000000E+00 -0.13073268182E+04  0.13073268182E+04  0.00000000000E+00 0. -1.
    9000007    2    1    2  501    0 -0.14789284684E+03 -0.10981920923E+03 -0.97433602845E+03  0.10690680691E+04  0.39955386005E+03 0.  0.
    9000005    1    3    3    0    0 -0.97431637594E+02 -0.26195087223E+03 -0.60339917671E+03  0.66498327040E+03  0.99999687468E+00 0.  0.
          4    1    3    3  501    0 -0.50461209245E+02  0.15213166300E+03 -0.37093685174E+03  0.40408479866E+03  0.00000000000E+00 0.  1.
   -9000007    1    1    2    0  502  0.14789284684E+03  0.10981920923E+03 -0.11588060362E+03  0.45536893521E+03  0.40000000000E+03 0.  1.
<mgrwt>
<rscale>  2 0.44027641E+03</rscale>
<asrwt>0</asrwt>
<pdfrwt beam="1">  1       21 0.33401567E-01 0.44037774E+03</pdfrwt>
<pdfrwt beam="2">  1       21 0.20112720E+00 0.44037774E+03</pdfrwt>
<totfact> 0.95428619E+02</totfact>
</mgrwt>
</event>
<event>
 6    1  0.9598567E-004  0.4662719E+03  0.7818608E-02  0.1023500E+00
         21   -1    0    0  503  502  0.00000000000E+00  0.00000000000E+00  0.15563541161E+03  0.15563541161E+03  0.00000000000E+00 0.  1.
         21   -1    0    0  501  503 -0.00000000000E+00 -0.00000000000E+00 -0.16435823730E+04  0.16435823730E+04  0.00000000000E+00 0. -1.
    9000007    2    1    2  501    0 -0.13196692467E+03 -0.18239244235E+03 -0.11123686957E+04  0.12061399602E+04  0.40832244119E+03 0.  0.
    9000005    1    3    3    0    0  0.10476483970E+03  0.65422381454E+02 -0.30152191788E+03  0.32584079945E+03  0.99999687468E+00 0.  0.
          4    1    3    3  501    0 -0.23673176437E+03 -0.24781482380E+03 -0.81084677787E+03  0.88029916070E+03  0.00000000000E+00 0.  1.
   -9000007    1    1    2    0  502  0.13196692467E+03  0.18239244235E+03 -0.37557826561E+03  0.59307782443E+03  0.40000000000E+03 0. -1.
<mgrwt>
<rscale>  2 0.46444355E+03</rscale>
<asrwt>0</asrwt>
<pdfrwt beam="1">  1       21 0.23943910E-01 0.46627190E+03</pdfrwt>
<pdfrwt beam="2">  1       21 0.25285882E+00 0.46627190E+03</pdfrwt>
<totfact> 0.85384470E+02</totfact>
</mgrwt>
</event>
<event>
 6    1  0.9598567E-004  0.4080422E+03  0.7818608E-02  0.1041061E+00
         21   -1    0    0  503  502  0.00000000000E+00  0.00000000000E+00  0.10453735993E+04  0.10453735993E+04  0.00000000000E+00 0. -1.
         21   -1    0    0  501  503 -0.00000000000E+00 -0.00000000000E+00 -0.19227812056E+03  0.19227812056E+03  0.00000000000E+00 0. -1.
    9000007    2    1    2  501    0 -0.47079364446E+02  0.65436756755E+02  0.16945041726E+03  0.44149281250E+03  0.39962985860E+03 0.  0.
    9000005    1    3    3    0    0  0.13730122768E+03 -0.78816827262E+02  0.12834384016E+03  0.20380593878E+03  0.99999687468E+00 0.  0.
          4    1    3    3  501    0 -0.18438059213E+03  0.14425358402E+03  0.41106577093E+02  0.23768687371E+03  0.00000000000E+00 0.  1.
   -9000007    1    1    2    0  502  0.47079364446E+02 -0.65436756755E+02  0.68364506149E+03  0.79615890738E+03  0.40000000000E+03 0.  1.
<mgrwt>
<rscale>  2 0.40795146E+03</rscale>
<asrwt>0</asrwt>
<pdfrwt beam="1">  1       21 0.16082670E+00 0.40804220E+03</pdfrwt>
<pdfrwt beam="2">  1       21 0.29581250E-01 0.40804220E+03</pdfrwt>
<totfact> 0.23694792E+03</totfact>
</mgrwt>
</event>
<event>
 6    1  0.9598567E-004  0.4276634E+03  0.7818608E-02  0.1034691E+00
         21   -1    0    0  503  502  0.00000000000E+00  0.00000000000E+00  0.38070037245E+03  0.38070037245E+03  0.00000000000E+00 0. -1.
         21   -1    0    0  501  503 -0.00000000000E+00 -0.00000000000E+00 -0.50343915762E+03  0.50343915762E+03  0.00000000000E+00 0. -1.
    9000007    2    1    2  501    0 -0.71477632948E+02  0.13336755926E+03 -0.15840648216E+03  0.45499137094E+03  0.39878387149E+03 0.  0.
    9000005    1    3    3    0    0 -0.22202157344E+03  0.43283418056E+02 -0.16410401741E+03  0.27946048356E+03  0.99999687468E+00 0.  0.
          4    1    3    3  501    0  0.15054394049E+03  0.90084141207E+02  0.56975352545E+01  0.17553088737E+03  0.00000000000E+00 0.  1.
   -9000007    1    1    2    0  502  0.71477632948E+02 -0.13336755926E+03  0.35667696987E+02  0.42914815913E+03  0.40000000000E+03 0. -1.
<mgrwt>
<rscale>  2 0.42737877E+03</rscale>
<asrwt>0</asrwt>
<pdfrwt beam="1">  1       21 0.58569288E-01 0.42766337E+03</pdfrwt>
<pdfrwt beam="2">  1       21 0.77452178E-01 0.42766337E+03</pdfrwt>
<totfact> 0.35550112E+03</totfact>
</mgrwt>
</event>
<event>
 6    1  0.9598567E-004  0.4461486E+03  0.7818608E-02  0.1028984E+00
         21   -1    0    0  503  502  0.00000000000E+00  0.00000000000E+00  0.16721297370E+03  0.16721297370E+03  0.00000000000E+00 0.  1.
         21   -1    0    0  501  503 -0.00000000000E+00 -0.00000000000E+00 -0.15784953342E+04  0.15784953342E+04  0.00000000000E+00 0. -1.
    9000007    2    1    2  501    0  0.19174905564E+03  0.31860120054E+02 -0.11414016219E+04  0.12254983689E+04  0.40157916040E+03 0.  0.
    9000005    1    3    3    0    0 -0.98253808434E+02 -0.33193223014E+02 -0.59049317732E+03  0.59953214542E+03  0.99999687468E+00 0.  0.
          4    1    3    3  501    0  0.29000286407E+03  0.65053343068E+02 -0.55090844455E+03  0.62596622344E+03  0.00000000000E+00 0.  1.
   -9000007    1    1    2    0  502 -0.19174905564E+03 -0.31860120054E+02 -0.26988073862E+03  0.52020993903E+03  0.40000000000E+03 0.  1.
<mgrwt>
<rscale>  2 0.44579298E+03</rscale>
<asrwt>0</asrwt>
<pdfrwt beam="1">  1       21 0.25725073E-01 0.44614862E+03</pdfrwt>
<pdfrwt beam="2">  1       21 0.24284544E+00 0.44614862E+03</pdfrwt>
<totfact> 0.86456687E+02</totfact>
</mgrwt>
</event>
<event>
 6    1  0.9598567E-004  0.4975551E+03  0.7818608E-02  0.1014795E+00
         21   -1    0    0  503  502  0.00000000000E+00  0.00000000000E+00  0.88270427918E+03  0.88270427918E+03  0.00000000000E+00 0. -1.
         21   -1    0    0  501  503 -0.00000000000E+00 -0.00000000000E+00 -0.27857387972E+03  0.27857387972E+03  0.00000000000E+00 0.  1.
    9000007    2    1    2  501    0  0.26864090095E+03 -0.98772457873E+02  0.34374439777E+03  0.60474891260E+03  0.40698538573E+03 0.  0.
    9000005    1    3    3    0    0 -0.36880778195E+02 -0.16698313422E+03  0.19119104675E+03  0.25651232965E+03  0.99999687468E+00 0.  0.
          4    1    3    3  501    0  0.30552167915E+03  0.68210676345E+02  0.15255335102E+03  0.34823658295E+03  0.00000000000E+00 0.  1.
   -9000007    1    1    2    0  502 -0.26864090095E+03  0.98772457873E+02  0.26038600169E+03  0.55652924629E+03  0.40000000000E+03 0.  1.
<mgrwt>
<rscale>  2 0.49612454E+03</rscale>
<asrwt>0</asrwt>
<pdfrwt beam="1">  1       21 0.13580066E+00 0.49755506E+03</pdfrwt>
<pdfrwt beam="2">  1       21 0.42857520E-01 0.49755506E+03</pdfrwt>
<totfact> 0.17037488E+03</totfact>
</mgrwt>
</event>
<event>
 6    1  0.9598567E-004  0.4388975E+03  0.7818608E-02  0.1031399E+00
         21   -1    0    0  503  502  0.00000000000E+00  0.00000000000E+00  0.80245178560E+03  0.80245178560E+03  0.00000000000E+00 0.  1.
         21   -1    0    0  501  503 -0.00000000000E+00 -0.00000000000E+00 -0.24432930675E+03  0.24432930675E+03  0.00000000000E+00 0. -1.
    9000007    2    1    2  501    0  0.97674841409E+02 -0.15195606759E+03  0.36307563772E+03  0.56649545717E+03  0.39555298402E+03 0.  0.
    9000005    1    3    3    0    0 -0.10113359103E+03 -0.12835465569E+03  0.13908931611E+02  0.16400420496E+03  0.99999687468E+00 0.  0.
          4    1    3    3  501    0  0.19880843244E+03 -0.23601411901E+02  0.34916670611E+03  0.40249125221E+03  0.00000000000E+00 0.  1.
   -9000007    1    1    2    0  502 -0.97674841409E+02  0.15195606759E+03  0.19504684114E+03  0.48028563518E+03  0.40000000000E+03 0.  1.
<mgrwt>
<rscale>  2 0.43788172E+03</rscale>
<asrwt>0</asrwt>
<pdfrwt beam="1">  1       21 0.12345412E+00 0.43889751E+03</pdfrwt>
<pdfrwt beam="2">  1       21 0.37589124E-01 0.43889751E+03</pdfrwt>
<totfact> 0.29223763E+03</totfact>
</mgrwt>
</event>
<event>
 6    1  0.9598567E-004  0.5179956E+03  0.7818608E-02  0.1009614E+00
         21   -1    0    0  503  502  0.00000000000E+00  0.00000000000E+00  0.46525033960E+03  0.46525033960E+03  0.00000000000E+00 0. -1.
         21   -1    0    0  501  503 -0.00000000000E+00 -0.00000000000E+00 -0.69595767784E+03  0.69595767784E+03  0.00000000000E+00 0.  1.
    9000007    2    1    2  501    0 -0.27597504074E+03  0.15855037935E+03 -0.36380639755E+03  0.63298855028E+03  0.40867953702E+03 0.  0.
    9000005    1    3    3    0    0  0.58452659451E+02 -0.85767024845E+02 -0.70021158004E+02  0.12520646353E+03  0.99999687468E+00 0.  0.
          4    1    3    3  501    0 -0.33442770019E+03  0.24431740420E+03 -0.29378523955E+03  0.50778208675E+03  0.00000000000E+00 0.  1.
   -9000007    1    1    2    0  502  0.27597504074E+03 -0.15855037935E+03  0.13309905930E+03  0.52821946716E+03  0.40000000000E+03 0. -1.
<mgrwt>
<rscale>  2 0.51628208E+03</rscale>
<asrwt>0</asrwt>
<pdfrwt beam="1">  1       21 0.71576976E-01 0.51799557E+03</pdfrwt>
<pdfrwt beam="2">  1       21 0.10707041E+00 0.51799557E+03</pdfrwt>
<totfact> 0.10189730E+03</totfact>
</mgrwt>
</event>
<event>
 6    1  0.9598567E-004  0.4187806E+03  0.7818608E-02  0.1038325E+00
         21   -1    0    0  503  502  0.00000000000E+00  0.00000000000E+00  0.38851046895E+03  0.38851046895E+03  0.00000000000E+00 0. -1.
         21   -1    0    0  501  503 -0.00000000000E+00 -0.00000000000E+00 -0.50372968947E+03  0.50372968947E+03  0.00000000000E+00 0. -1.
    9000007    2    1    2  501    0  0.75474879165E+02 -0.32731591998E+02 -0.21658945204E+03  0.47147450114E+03  0.41062074959E+03 0.  0.
    9000005    1    3    3    0    0 -0.59538566251E+02  0.16106489798E+03 -0.14478287204E+03  0.22461037880E+03  0.99999687468E+00 0.  0.
          4    1    3    3  501    0  0.13501344542E+03 -0.19379648998E+03 -0.71806580001E+02  0.24686412235E+03  0.00000000000E+00 0.  1.
   -9000007    1    1    2    0  502 -0.75474879165E+02  0.32731591998E+02  0.10137023152E+03  0.42076565727E+03  0.40000000000E+03 0.  1.
<mgrwt>
<rscale>  2 0.41615390E+03</rscale>
<asrwt>0</asrwt>
<pdfrwt beam="1">  1       21 0.59770841E-01 0.41878063E+03</pdfrwt>
<pdfrwt beam="2">  1       21 0.77496876E-01 0.41878063E+03</pdfrwt>
<totfact> 0.34074080E+03</totfact>
</mgrwt>
</event>
<event>
 6    1  0.9598567E-004  0.6140538E+03  0.7818608E-02  0.9876684E-01
         21   -1    0    0  503  502  0.00000000000E+00  0.00000000000E+00  0.65580472072E+03  0.65580472072E+03  0.00000000000E+00 0. -1.
         21   -1    0    0  501  503 -0.00000000000E+00 -0.00000000000E+00 -0.62041158134E+03  0.62041158134E+03  0.00000000000E+00 0. -1.
    9000007    2    1    2  501    0  0.25839170836E+03 -0.38767994337E+03 -0.15506345896E+03  0.63330438797E+03  0.39995969556E+03 0.  0.
    9000005    1    3    3    0    0  0.21401518191E+03 -0.42081873750E+03 -0.37025993652E+01  0.47212881415E+03  0.99999687468E+00 0.  0.
          4    1    3    3  501    0  0.44376526448E+02  0.33138794133E+02 -0.15136085960E+03  0.16117557381E+03  0.00000000000E+00 0.  1.
   -9000007    1    1    2    0  502 -0.25839170836E+03  0.38767994337E+03  0.19045659834E+03  0.64291191410E+03  0.40000000000E+03 0. -1.
<mgrwt>
<rscale>  2 0.61404719E+03</rscale>
<asrwt>0</asrwt>
<pdfrwt beam="1">  1       21 0.10089303E+00 0.61405375E+03</pdfrwt>
<pdfrwt beam="2">  1       21 0.95447935E-01 0.61405375E+03</pdfrwt>
<totfact> 0.58274657E+02</totfact>
</mgrwt>
</event>
<event>
 6    1  0.9598567E-004  0.4099338E+03  0.7818608E-02  0.1040406E+00
         21   -1    0    0  503  502  0.00000000000E+00  0.00000000000E+00  0.43128760945E+03  0.43128760945E+03  0.00000000000E+00 0.  1.
         21   -1    0    0  501  503 -0.00000000000E+00 -0.00000000000E+00 -0.39275598572E+03  0.39275598572E+03  0.00000000000E+00 0.  1.
    9000007    2    1    2  501    0 -0.75310639864E+02 -0.47456868341E+02 -0.18268362219E+02  0.41034070029E+03  0.40015235901E+03 0.  0.
    9000005    1    3    3    0    0  0.11485677603E+02 -0.62843327474E+02  0.18126908929E+03  0.19219960282E+03  0.99999687468E+00 0.  0.
          4    1    3    3  501    0 -0.86796317467E+02  0.15386459133E+02 -0.19953745151E+03  0.21814109747E+03  0.00000000000E+00 0.  1.
   -9000007    1    1    2    0  502  0.75310639864E+02  0.47456868341E+02  0.56799985945E+02  0.41370289488E+03  0.40000000000E+03 0.  1.
<mgrwt>
<rscale>  2 0.40989666E+03</rscale>
<asrwt>0</asrwt>
<pdfrwt beam="1">  1       21 0.66351940E-01 0.40993384E+03</pdfrwt>
<pdfrwt beam="2">  1       21 0.60423998E-01 0.40993384E+03</pdfrwt>
<totfact> 0.47397918E+03</totfact>
</mgrwt>
</event>
<event>
 6    1  0.9598567E-004  0.4802558E+03  0.7818608E-02  0.1019110E+00
         21   -1    0    0  503  502  0.00000000000E+00  0.00000000000E+00  0.14597611710E+04  0.14597611710E+04  0.00000000000E+00 0.  1.
         21   -1    0    0  501  503 -0.00000000000E+00 -0.00000000000E+00 -0.40499374580E+03  0.40499374580E+03  0.00000000000E+00 0.  1.
    9000007    2    1    2  501    0  0.24031831324E+03 -0.11075668961E+03 -0.20092201358E+03  0.52059127250E+03  0.40078133875E+03 0.  0.
    9000005    1    3    3    0    0  0.14705313125E+03  0.34544575535E+02  0.94665938390E+02  0.17827111655E+03  0.99999687468E+00 0.  0.
          4    1    3    3  501    0  0.93265181985E+02 -0.14530126514E+03 -0.29558795197E+03  0.34232015595E+03  0.00000000000E+00 0.  1.
   -9000007    1    1    2    0  502 -0.24031831324E+03  0.11075668961E+03  0.12556894388E+04  0.13441636443E+04  0.40000000000E+03 0.  1.
<mgrwt>
<rscale>  2 0.48009274E+03</rscale>
<asrwt>0</asrwt>
<pdfrwt beam="1">  1       21 0.22457864E+00 0.48025578E+03</pdfrwt>
<pdfrwt beam="2">  1       21 0.62306731E-01 0.48025578E+03</pdfrwt>
<totfact> 0.17755001E+02</totfact>
</mgrwt>
</event>
<event>
 6    1  0.9598567E-004  0.4129111E+03  0.7818608E-02  0.1039403E+00
         21   -1    0    0  503  502  0.00000000000E+00  0.00000000000E+00  0.60809833601E+03  0.60809833601E+03  0.00000000000E+00 0. -1.
         21   -1    0    0  501  503 -0.00000000000E+00 -0.00000000000E+00 -0.28329648565E+03  0.28329648565E+03  0.00000000000E+00 0. -1.
    9000007    2    1    2  501    0  0.82198973802E+02 -0.60763777969E+02  0.11685523535E+03  0.42912790450E+03  0.40005837622E+03 0.  0.
    9000005    1    3    3    0    0  0.23337846124E+03 -0.28368117531E+02 -0.37367881379E+00  0.23509869394E+03  0.99999687468E+00 0.  0.
          4    1    3    3  501    0 -0.15117948743E+03 -0.32395660437E+02  0.11722891416E+03  0.19402921056E+03  0.00000000000E+00 0.  1.
   -9000007    1    1    2    0  502 -0.82198973802E+02  0.60763777969E+02  0.20794661501E+03  0.46226691716E+03  0.40000000000E+03 0. -1.
<mgrwt>
<rscale>  2 0.41289700E+03</rscale>
<asrwt>0</asrwt>
<pdfrwt beam="1">  1       21 0.93553590E-01 0.41291114E+03</pdfrwt>
<pdfrwt beam="2">  1       21 0.43584075E-01 0.41291114E+03</pdfrwt>
<totfact> 0.43116782E+03</totfact>
</mgrwt>
</event>
<event>
 6    1  0.9598567E-004  0.4209559E+03  0.7818608E-02  0.1036762E+00
         21   -1    0    0  503  502  0.00000000000E+00  0.00000000000E+00  0.95938164157E+02  0.95938164157E+02  0.00000000000E+00 0.  1.
         21   -1    0    0  501  503 -0.00000000000E+00 -0.00000000000E+00 -0.20566333263E+04  0.20566333263E+04  0.00000000000E+00 0.  1.
    9000007    2    1    2  501    0  0.11097927998E+03  0.69462386661E+02 -0.13242605049E+04  0.13895574036E+04  0.40007807915E+03 0.  0.
    9000005    1    3    3    0    0 -0.14365243862E+03 -0.30599269952E+02 -0.43108118529E+03  0.45541665181E+03  0.99999687468E+00 0.  0.
          4    1    3    3  501    0  0.25463171860E+03  0.10006165661E+03 -0.89317931963E+03  0.93414075184E+03  0.00000000000E+00 0.  1.
   -9000007    1    1    2    0  502 -0.11097927998E+03 -0.69462386661E+02 -0.63643465723E+03  0.76301408681E+03  0.40000000000E+03 0.  1.
<mgrwt>
<rscale>  2 0.42093738E+03</rscale>
<asrwt>0</asrwt>
<pdfrwt beam="1">  1       21 0.14759718E-01 0.42095593E+03</pdfrwt>
<pdfrwt beam="2">  1       21 0.31640512E+00 0.42095593E+03</pdfrwt>
<totfact> 0.90381672E+02</totfact>
</mgrwt>
</event>
<event>
 6    1  0.9598567E-004  0.5479254E+03  0.7818608E-02  0.1001978E+00
         21   -1    0    0  503  502  0.00000000000E+00  0.00000000000E+00  0.33535464679E+03  0.33535464679E+03  0.00000000000E+00 0. -1.
         21   -1    0    0  501  503 -0.00000000000E+00 -0.00000000000E+00 -0.15154747202E+04  0.15154747202E+04  0.00000000000E+00 0. -1.
    9000007    2    1    2  501    0 -0.32699350341E+03 -0.18233519109E+03 -0.11821374721E+04  0.13029471323E+04  0.40006418661E+03 0.  0.
    9000005    1    3    3    0    0 -0.35703192593E+03 -0.27303203357E+03 -0.10220859243E+04  0.11165477707E+04  0.99999687468E+00 0.  0.
          4    1    3    3  501    0  0.30038422522E+02  0.90696842488E+02 -0.16005154773E+03  0.18639936158E+03  0.00000000000E+00 0.  1.
   -9000007    1    1    2    0  502  0.32699350341E+03  0.18233519109E+03  0.20173987188E+01  0.54788223468E+03  0.40000000000E+03 0. -1.
<mgrwt>
<rscale>  2 0.54791367E+03</rscale>
<asrwt>0</asrwt>
<pdfrwt beam="1">  1       21 0.51593022E-01 0.54792538E+03</pdfrwt>
<pdfrwt beam="2">  1       21 0.23314996E+00 0.54792538E+03</pdfrwt>
<totfact> 0.22869437E+02</totfact>
</mgrwt>
</event>
<event>
 6    1  0.9598567E-004  0.4308916E+03  0.7818608E-02  0.1033626E+00
         21   -1    0    0  503  502  0.00000000000E+00  0.00000000000E+00  0.48501011140E+03  0.48501011140E+03  0.00000000000E+00 0.  1.
         21   -1    0    0  501  503 -0.00000000000E+00 -0.00000000000E+00 -0.47654641985E+03  0.47654641985E+03  0.00000000000E+00 0.  1.
    9000007    2    1    2  501    0  0.13806725245E+03  0.81271128482E+02 -0.20960312934E+03  0.47862723944E+03  0.39935322709E+03 0.  0.
    9000005    1    3    3    0    0 -0.50242549809E+02 -0.12510527642E+03 -0.13197837144E+03  0.18866619867E+03  0.99999687468E+00 0.  0.
          4    1    3    3  501    0  0.18830980225E+03  0.20637640490E+03 -0.77624757896E+02  0.28996104077E+03  0.00000000000E+00 0.  1.
   -9000007    1    1    2    0  502 -0.13806725245E+03 -0.81271128482E+02  0.21806682088E+03  0.48292929182E+03  0.40000000000E+03 0.  1.
<mgrwt>
<rscale>  2 0.43074143E+03</rscale>
<asrwt>0</asrwt>
<pdfrwt beam="1">  1       21 0.74616941E-01 0.43089159E+03</pdfrwt>
<pdfrwt beam="2">  1       21 0.73314833E-01 0.43089159E+03</pdfrwt>
<totfact> 0.23467772E+03</totfact>
</mgrwt>
</event>
<event>
 6    1  0.9598567E-004  0.4620869E+03  0.7818608E-02  0.1024200E+00
         21   -1    0    0  503  502  0.00000000000E+00  0.00000000000E+00  0.16464019148E+03  0.16464019148E+03  0.00000000000E+00 0. -1.
         21   -1    0    0  501  503 -0.00000000000E+00 -0.00000000000E+00 -0.17997006682E+04  0.17997006682E+04  0.00000000000E+00 0. -1.
    9000007    2    1    2  501    0  0.14796690152E+03  0.17703480972E+03 -0.13373145440E+04  0.14148973519E+04  0.40036083607E+03 0.  0.
    9000005    1    3    3    0    0  0.48609412963E+02 -0.11969241644E+03 -0.60308396115E+03  0.61676609324E+03  0.99999687468E+00 0.  0.
          4    1    3    3  501    0  0.99357488554E+02  0.29672722616E+03 -0.73423058285E+03  0.79813125867E+03  0.00000000000E+00 0.  1.
   -9000007    1    1    2    0  502 -0.14796690152E+03 -0.17703480972E+03 -0.29774593274E+03  0.54944350780E+03  0.40000000000E+03 0. -1.
<mgrwt>
<rscale>  2 0.46200876E+03</rscale>
<asrwt>0</asrwt>
<pdfrwt beam="1">  1       21 0.25329261E-01 0.46208693E+03</pdfrwt>
<pdfrwt beam="2">  1       21 0.27687702E+00 0.46208693E+03</pdfrwt>
<totfact> 0.54793805E+02</totfact>
</mgrwt>
</event>
<event>
 6    1  0.9598567E-004  0.5433946E+03  0.7818608E-02  0.1003077E+00
         21   -1    0    0  503  502  0.00000000000E+00  0.00000000000E+00  0.48155824611E+03  0.48155824611E+03  0.00000000000E+00 0.  1.
         21   -1    0    0  501  503 -0.00000000000E+00 -0.00000000000E+00 -0.71573389505E+03  0.71573389505E+03  0.00000000000E+00 0. -1.
    9000007    2    1    2  501    0  0.27657483394E+03  0.24083269863E+03 -0.34466694260E+03  0.64348499650E+03  0.40097831849E+03 0.  0.
    9000005    1    3    3    0    0  0.15388319226E+03 -0.40973516802E+02 -0.29065128684E+03  0.33141821989E+03  0.99999687468E+00 0.  0.
          4    1    3    3  501    0  0.12269164167E+03  0.28180621544E+03 -0.54015655759E+02  0.31206677661E+03  0.00000000000E+00 0.  1.
   -9000007    1    1    2    0  502 -0.27657483394E+03 -0.24083269863E+03  0.11049129366E+03  0.55380714466E+03  0.40000000000E+03 0.  1.
<mgrwt>
<rscale>  2 0.54321408E+03</rscale>
<asrwt>0</asrwt>
<pdfrwt beam="1">  1       21 0.74085884E-01 0.54339455E+03</pdfrwt>
<pdfrwt beam="2">  1       21 0.11011291E+00 0.54339455E+03</pdfrwt>
<totfact> 0.87094621E+02</totfact>
</mgrwt>
</event>
<event>
 6    1  0.9598567E-004  0.5067984E+03  0.7818608E-02  0.1012024E+00
         21   -1    0    0  503  502  0.00000000000E+00  0.00000000000E+00  0.45158150873E+03  0.45158150873E+03  0.00000000000E+00 0.  1.
         21   -1    0    0  501  503 -0.00000000000E+00 -0.00000000000E+00 -0.64278625924E+03  0.64278625924E+03  0.00000000000E+00 0. -1.
    9000007    2    1    2  501    0  0.32277859389E+02  0.30952020115E+03 -0.28137934991E+03  0.57960950091E+03  0.39991026476E+03 0.  0.
    9000005    1    3    3    0    0 -0.17541656710E+03  0.13839026579E+03 -0.60567857023E+02  0.23150011442E+03  0.99999687468E+00 0.  0.
          4    1    3    3  501    0  0.20769442649E+03  0.17112993536E+03 -0.22081149289E+03  0.34810938649E+03  0.00000000000E+00 0.  1.
   -9000007    1    1    2    0  502 -0.32277859389E+02 -0.30952020115E+03  0.90174599407E+02  0.51475826706E+03  0.40000000000E+03 0.  1.
<mgrwt>
<rscale>  2 0.50678069E+03</rscale>
<asrwt>0</asrwt>
<pdfrwt beam="1">  1       21 0.69474078E-01 0.50679840E+03</pdfrwt>
<pdfrwt beam="2">  1       21 0.98890194E-01 0.50679840E+03</pdfrwt>
<totfact> 0.13304273E+03</totfact>
</mgrwt>
</event>
<event>
 6    1  0.9598567E-004  0.6182576E+03  0.7818608E-02  0.9868271E-01
         21   -1    0    0  503  502  0.00000000000E+00  0.00000000000E+00  0.49604229746E+03  0.49604229746E+03  0.00000000000E+00 0.  1.
         21   -1    0    0  501  503 -0.00000000000E+00 -0.00000000000E+00 -0.77119413761E+03  0.77119413761E+03  0.00000000000E+00 0. -1.
    9000007    2    1    2  501    0  0.15259349515E+03  0.44594787404E+03 -0.15665411612E+03  0.63779541979E+03  0.40011024016E+03 0.  0.
    9000005    1    3    3    0    0  0.15147844354E+03  0.36246838002E+03 -0.28454031593E+03  0.48507034207E+03  0.99999687468E+00 0.  0.
          4    1    3    3  501    0  0.11150516099E+01  0.83479494025E+02  0.12788619981E+03  0.15272507772E+03  0.00000000000E+00 0.  1.
   -9000007    1    1    2    0  502 -0.15259349515E+03 -0.44594787404E+03 -0.11849772404E+03  0.62944101529E+03  0.40000000000E+03 0.  1.
<mgrwt>
<rscale>  2 0.61823979E+03</rscale>
<asrwt>0</asrwt>
<pdfrwt beam="1">  1       21 0.76314200E-01 0.61825762E+03</pdfrwt>
<pdfrwt beam="2">  1       21 0.11864525E+00 0.61825762E+03</pdfrwt>
<totfact> 0.65803406E+02</totfact>
</mgrwt>
</event>
<event>
 6    1  0.9598567E-004  0.4326729E+03  0.7818608E-02  0.1033083E+00
         21   -1    0    0  503  502  0.00000000000E+00  0.00000000000E+00  0.17696242032E+03  0.17696242032E+03  0.00000000000E+00 0.  1.
         21   -1    0    0  501  503 -0.00000000000E+00 -0.00000000000E+00 -0.32120480273E+04  0.32120480273E+04  0.00000000000E+00 0.  1.
    9000007    2    1    2  501    0  0.36487715417E+02 -0.15865309792E+03 -0.29063388349E+04  0.29383688048E+04  0.40087859920E+03 0.  0.
    9000005    1    3    3    0    0 -0.34248071132E+02 -0.13994959794E+03 -0.31938679184E+03  0.35038228142E+03  0.99999687468E+00 0.  0.
          4    1    3    3  501    0  0.70735786549E+02 -0.18703499972E+02 -0.25869520430E+04  0.25879865234E+04  0.00000000000E+00 0.  1.
   -9000007    1    1    2    0  502 -0.36487715417E+02  0.15865309792E+03 -0.12874677205E+03  0.45064164274E+03  0.40000000000E+03 0.  1.
<mgrwt>
<rscale>  2 0.43246925E+03</rscale>
<asrwt>0</asrwt>
<pdfrwt beam="1">  1       21 0.27224987E-01 0.43267287E+03</pdfrwt>
<pdfrwt beam="2">  1       21 0.49416125E+00 0.43267287E+03</pdfrwt>
<totfact> 0.19739179E+01</totfact>
</mgrwt>
</event>
<event>
 6    1  0.9598567E-004  0.7017246E+03  0.7818608E-02  0.9714455E-01
         21   -1    0    0  503  502  0.00000000000E+00  0.00000000000E+00  0.63293705518E+03  0.63293705518E+03  0.00000000000E+00 0. -1.
         21   -1    0    0  501  503 -0.00000000000E+00 -0.00000000000E+00 -0.88645612345E+03  0.88645612345E+03  0.00000000000E+00 0.  1.
    9000007    2    1    2  501    0  0.16028587021E+03 -0.55382842488E+03 -0.39300492931E+03  0.80393962331E+03  0.39931010389E+03 0.  0.
    9000005    1    3    3    0    0  0.21387859638E+03 -0.16169873161E+03 -0.29004656098E+03  0.39499182438E+03  0.99999687468E+00 0.  0.
          4    1    3    3  501    0 -0.53592726168E+02 -0.39212969327E+03 -0.10295836833E+03  0.40894779893E+03  0.00000000000E+00 0.  1.
   -9000007    1    1    2    0  502 -0.16028587021E+03  0.55382842488E+03  0.13948586104E+03  0.71545355532E+03  0.40000000000E+03 0. -1.
<mgrwt>
<rscale>  2 0.70162637E+03</rscale>
<asrwt>0</asrwt>
<pdfrwt beam="1">  1       21 0.97374932E-01 0.70172465E+03</pdfrwt>
<pdfrwt beam="2">  1       21 0.13637786E+00 0.70172465E+03</pdfrwt>
<totfact> 0.25023981E+02</totfact>
</mgrwt>
</event>
<event>
 6    1  0.9598567E-004  0.6302214E+03  0.7818608E-02  0.9844871E-01
         21   -1    0    0  503  502  0.00000000000E+00  0.00000000000E+00  0.77781150498E+03  0.77781150498E+03  0.00000000000E+00 0. -1.
         21   -1    0    0  501  503 -0.00000000000E+00 -0.00000000000E+00 -0.15522437166E+04  0.15522437166E+04  0.00000000000E+00 0.  1.
    9000007    2    1    2  501    0 -0.48441046244E+03  0.43217743506E+02 -0.13418137503E+04  0.14824450047E+04  0.40082138401E+03 0.  0.
    9000005    1    3    3    0    0 -0.28568309528E+03  0.18028687680E+03 -0.47658512390E+03  0.58416827130E+03  0.99999687468E+00 0.  0.
          4    1    3    3  501    0 -0.19872736716E+03 -0.13706913329E+03 -0.86522862642E+03  0.89827673338E+03  0.00000000000E+00 0.  1.
   -9000007    1    1    2    0  502  0.48441046244E+03 -0.43217743506E+02  0.56738153865E+03  0.84761021695E+03  0.40000000000E+03 0. -1.
<mgrwt>
<rscale>  2 0.63009087E+03</rscale>
<asrwt>0</asrwt>
<pdfrwt beam="1">  1       21 0.11966331E+00 0.63022143E+03</pdfrwt>
<pdfrwt beam="2">  1       21 0.23880673E+00 0.63022143E+03</pdfrwt>
<totfact> 0.28595780E+01</totfact>
</mgrwt>
</event>
<event>
 6    1  0.9598567E-004  0.4053158E+03  0.7818608E-02  0.1041977E+00
         21   -1    0    0  503  502  0.00000000000E+00  0.00000000000E+00  0.68265946197E+03  0.68265946197E+03  0.00000000000E+00 0.  1.
         21   -1    0    0  501  503 -0.00000000000E+00 -0.00000000000E+00 -0.29457065703E+03  0.29457065703E+03  0.00000000000E+00 0.  1.
    9000007    2    1    2  501    0 -0.43354658065E+02  0.49003157039E+02 -0.15363245784E+02  0.40534333561E+03  0.39973272899E+03 0.  0.
    9000005    1    3    3    0    0  0.59864520200E+02  0.11135083131E+03 -0.16835557458E+03  0.21054065616E+03  0.99999687468E+00 0.  0.
          4    1    3    3  501    0 -0.10321917827E+03 -0.62347674267E+02  0.15299232880E+03  0.19480267945E+03  0.00000000000E+00 0.  1.
   -9000007    1    1    2    0  502  0.43354658065E+02 -0.49003157039E+02  0.40345205073E+03  0.57188678339E+03  0.40000000000E+03 0. -1.
<mgrwt>
<rscale>  2 0.40524989E+03</rscale>
<asrwt>0</asrwt>
<pdfrwt beam="1">  1       21 0.10502453E+00 0.40531585E+03</pdfrwt>
<pdfrwt beam="2">  1       21 0.45318563E-01 0.40531585E+03</pdfrwt>
<totfact> 0.30134556E+03</totfact>
</mgrwt>
</event>
<event>
 6    1  0.9598567E-004  0.5723241E+03  0.7818608E-02  0.9964659E-01
         21   -1    0    0  503  502  0.00000000000E+00  0.00000000000E+00  0.15206444058E+04  0.15206444058E+04  0.00000000000E+00 0.  1.
         21   -1    0    0  501  503 -0.00000000000E+00 -0.00000000000E+00 -0.36399201471E+03  0.36399201471E+03  0.00000000000E+00 0. -1.
    9000007    2    1    2  501    0 -0.30265208204E+03  0.27560220355E+03 -0.23949449302E+02  0.57262439201E+03  0.39971272289E+03 0.  0.
    9000005    1    3    3    0    0 -0.19196279537E+03  0.26057943728E+03 -0.18789448124E+03  0.37424149157E+03  0.99999687468E+00 0.  0.
          4    1    3    3  501    0 -0.11068928667E+03  0.15022766268E+02  0.16394503194E+03  0.19838290044E+03  0.00000000000E+00 0.  1.
   -9000007    1    1    2    0  502  0.30265208204E+03 -0.27560220355E+03  0.11806018404E+04  0.13120120285E+04  0.40000000000E+03 0.  1.
<mgrwt>
<rscale>  2 0.57227389E+03</rscale>
<asrwt>0</asrwt>
<pdfrwt beam="1">  1       21 0.23394529E+00 0.57232408E+03</pdfrwt>
<pdfrwt beam="2">  1       21 0.55998772E-01 0.57232408E+03</pdfrwt>
<totfact> 0.18733919E+02</totfact>
</mgrwt>
</event>
<event>
 6    1  0.9598567E-004  0.4249178E+03  0.7818608E-02  0.1035501E+00
         21   -1    0    0  503  502  0.00000000000E+00  0.00000000000E+00  0.18807105612E+04  0.18807105612E+04  0.00000000000E+00 0.  1.
         21   -1    0    0  501  503 -0.00000000000E+00 -0.00000000000E+00 -0.14415280177E+03  0.14415280177E+03  0.00000000000E+00 0. -1.
    9000007    2    1    2  501    0 -0.85452720906E+02  0.11512166960E+03  0.28255098758E+03  0.51003965742E+03  0.39968765959E+03 0.  0.
    9000005    1    3    3    0    0 -0.24672161175E+03  0.77748343711E+02  0.18299342064E+03  0.31686582436E+03  0.99999687468E+00 0.  0.
          4    1    3    3  501    0  0.16126889085E+03  0.37373325893E+02  0.99557566942E+02  0.19317383306E+03  0.00000000000E+00 0.  1.
   -9000007    1    1    2    0  502  0.85452720906E+02 -0.11512166960E+03  0.14540067719E+04  0.15148237056E+04  0.40000000000E+03 0.  1.
<mgrwt>
<rscale>  2 0.42484431E+03</rscale>
<asrwt>0</asrwt>
<pdfrwt beam="1">  1       21 0.28934007E+00 0.42491783E+03</pdfrwt>
<pdfrwt beam="2">  1       21 0.22177355E-01 0.42491783E+03</pdfrwt>
<totfact> 0.60864763E+02</totfact>
</mgrwt>
</event>
<event>
 6    1  0.9598567E-004  0.5736770E+03  0.7818608E-02  0.9962381E-01
         21   -1    0    0  503  502  0.00000000000E+00  0.00000000000E+00  0.16605188445E+03  0.16605188445E+03  0.00000000000E+00 0. -1.
         21   -1    0    0  501  503 -0.00000000000E+00 -0.00000000000E+00 -0.19768879977E+04  0.19768879977E+04  0.00000000000E+00 0.  1.
    9000007    2    1    2  501    0  0.35832277884E+03  0.19755952122E+03 -0.90876907327E+03  0.10746936920E+04  0.40209492005E+03 0.  0.
    9000005    1    3    3    0    0  0.43086787791E+03  0.16623620459E+03 -0.60678296433E+03  0.76254060202E+03  0.99999687468E+00 0.  0.
          4    1    3    3  501    0 -0.72545099070E+02  0.31323316627E+02 -0.30198610894E+03  0.31215308994E+03  0.00000000000E+00 0.  1.
   -9000007    1    1    2    0  502 -0.35832277884E+03 -0.19755952122E+03 -0.90206703997E+03  0.10682461902E+04  0.40000000000E+03 0.  1.
<mgrwt>
<rscale>  2 0.57331005E+03</rscale>
<asrwt>0</asrwt>
<pdfrwt beam="1">  1       21 0.25546446E-01 0.57367700E+03</pdfrwt>
<pdfrwt beam="2">  1       21 0.30413659E+00 0.57367700E+03</pdfrwt>
<totfact> 0.34892871E+02</totfact>
</mgrwt>
</event>
<event>
 6    1  0.9598567E-004  0.4151123E+03  0.7818608E-02  0.1038716E+00
         21   -1    0    0  503  502  0.00000000000E+00  0.00000000000E+00  0.52549163097E+03  0.52549163097E+03  0.00000000000E+00 0.  1.
         21   -1    0    0  501  503 -0.00000000000E+00 -0.00000000000E+00 -0.41577539980E+03  0.41577539980E+03  0.00000000000E+00 0. -1.
    9000007    2    1    2  501    0  0.60954256933E+02 -0.92751084949E+02 -0.16207340618E+03  0.44509388340E+03  0.39940279274E+03 0.  0.
    9000005    1    3    3    0    0  0.44661099131E+02  0.12232598624E+03 -0.18709327390E+03  0.22795428010E+03  0.99999687468E+00 0.  0.
          4    1    3    3  501    0  0.16293157802E+02 -0.21507707118E+03  0.25019867719E+02  0.21713960330E+03  0.00000000000E+00 0.  1.
   -9000007    1    1    2    0  502 -0.60954256933E+02  0.92751084949E+02  0.27178963735E+03  0.49617314737E+03  0.40000000000E+03 0.  1.
<mgrwt>
<rscale>  2 0.41496832E+03</rscale>
<asrwt>0</asrwt>
<pdfrwt beam="1">  1       21 0.80844866E-01 0.41511226E+03</pdfrwt>
<pdfrwt beam="2">  1       21 0.63965446E-01 0.41511226E+03</pdfrwt>
<totfact> 0.26667291E+03</totfact>
</mgrwt>
</event>
<event>
 6    1  0.9598567E-004  0.4148085E+03  0.7818608E-02  0.1038785E+00
         21   -1    0    0  503  502  0.00000000000E+00  0.00000000000E+00  0.73959026311E+03  0.73959026311E+03  0.00000000000E+00 0.  1.
         21   -1    0    0  501  503 -0.00000000000E+00 -0.00000000000E+00 -0.24144364081E+03  0.24144364081E+03  0.00000000000E+00 0.  1.
    9000007    2    1    2  501    0  0.66191426887E+02 -0.87662990807E+02  0.15482611360E+03  0.44257770640E+03  0.39979719334E+03 0.  0.
    9000005    1    3    3    0    0  0.17715948875E+03 -0.82057496458E+02 -0.56988252069E+02  0.20339021128E+03  0.99999687468E+00 0.  0.
          4    1    3    3  501    0 -0.11096806186E+03 -0.56054943486E+01  0.21181436567E+03  0.23918749512E+03  0.00000000000E+00 0.  1.
   -9000007    1    1    2    0  502 -0.66191426887E+02  0.87662990807E+02  0.34332050870E+03  0.53845619752E+03  0.40000000000E+03 0. -1.
<mgrwt>
<rscale>  2 0.41475962E+03</rscale>
<asrwt>0</asrwt>
<pdfrwt beam="1">  1       21 0.11378312E+00 0.41480852E+03</pdfrwt>
<pdfrwt beam="2">  1       21 0.37145176E-01 0.41480852E+03</pdfrwt>
<totfact> 0.37125602E+03</totfact>
</mgrwt>
</event>
<event>
 6    1  0.9598567E-004  0.4392594E+03  0.7818608E-02  0.1031030E+00
         21   -1    0    0  503  502  0.00000000000E+00  0.00000000000E+00  0.71134989890E+03  0.71134989890E+03  0.00000000000E+00 0.  1.
         21   -1    0    0  501  503 -0.00000000000E+00 -0.00000000000E+00 -0.27086348222E+03  0.27086348222E+03  0.00000000000E+00 0. -1.
    9000007    2    1    2  501    0  0.16176458294E+03 -0.78356400696E+02  0.22839162888E+03  0.49508741709E+03  0.40080083408E+03 0.  0.
    9000005    1    3    3    0    0 -0.69072295772E+02 -0.52099082793E+02 -0.73931441514E+02  0.11380753274E+03  0.99999687468E+00 0.  0.
          4    1    3    3  501    0  0.23083687871E+03 -0.26257317903E+02  0.30232307040E+03  0.38127988435E+03  0.00000000000E+00 0.  1.
   -9000007    1    1    2    0  502 -0.16176458294E+03  0.78356400696E+02  0.21209478779E+03  0.48712596403E+03  0.40000000000E+03 0.  1.
<mgrwt>
<rscale>  2 0.43907663E+03</rscale>
<asrwt>0</asrwt>
<pdfrwt beam="1">  1       21 0.10943845E+00 0.43925939E+03</pdfrwt>
<pdfrwt beam="2">  1       21 0.41671305E-01 0.43925939E+03</pdfrwt>
<totfact> 0.32003558E+03</totfact>
</mgrwt>
</event>
<event>
 6    1  0.9598567E-004  0.4945243E+03  0.7818608E-02  0.1015268E+00
         21   -1    0    0  503  502  0.00000000000E+00  0.00000000000E+00  0.35312288184E+03  0.35312288184E+03  0.00000000000E+00 0. -1.
         21   -1    0    0  501  503 -0.00000000000E+00 -0.00000000000E+00 -0.72174348262E+03  0.72174348262E+03  0.00000000000E+00 0.  1.
    9000007    2    1    2  501    0  0.86873425105E+02 -0.27614716961E+03 -0.29448772729E+03  0.57556692104E+03  0.40093641365E+03 0.  0.
    9000005    1    3    3    0    0 -0.10530867951E+03 -0.27218953092E+03 -0.11864325023E+03  0.31504647203E+03  0.99999687468E+00 0.  0.
          4    1    3    3  501    0  0.19218210461E+03 -0.39576386928E+01 -0.17584447707E+03  0.26052044901E+03  0.00000000000E+00 0.  1.
   -9000007    1    1    2    0  502 -0.86873425105E+02  0.27614716961E+03 -0.74132873489E+02  0.49929944343E+03  0.40000000000E+03 0.  1.
<mgrwt>
<rscale>  2 0.49433444E+03</rscale>
<asrwt>0</asrwt>
<pdfrwt beam="1">  1       21 0.54326597E-01 0.49452428E+03</pdfrwt>
<pdfrwt beam="2">  1       21 0.11103746E+00 0.49452428E+03</pdfrwt>
<totfact> 0.17275229E+03</totfact>
</mgrwt>
</event>
<event>
 6    1  0.9598567E-004  0.4378529E+03  0.7818608E-02  0.1032096E+00
         21   -1    0    0  503  502  0.00000000000E+00  0.00000000000E+00  0.10874693296E+04  0.10874693296E+04  0.00000000000E+00 0. -1.
         21   -1    0    0  501  503 -0.00000000000E+00 -0.00000000000E+00 -0.17568532081E+03  0.17568532081E+03  0.00000000000E+00 0. -1.
    9000007    2    1    2  501    0  0.49695081338E+02 -0.17101342129E+03  0.53281573693E+03  0.68407594900E+03  0.39032307529E+03 0.  0.
    9000005    1    3    3    0    0  0.38865390076E+02  0.88840603457E+02  0.35751381576E+03  0.37043258472E+03  0.99999687468E+00 0.  0.
          4    1    3    3  501    0  0.10829691262E+02 -0.25985402475E+03  0.17530192117E+03  0.31364336428E+03  0.00000000000E+00 0.  1.
   -9000007    1    1    2    0  502 -0.49695081338E+02  0.17101342129E+03  0.37896827190E+03  0.57907870146E+03  0.40000000000E+03 0.  1.
<mgrwt>
<rscale>  2 0.43563050E+03</rscale>
<asrwt>0</asrwt>
<pdfrwt beam="1">  1       21 0.16730297E+00 0.43785293E+03</pdfrwt>
<pdfrwt beam="2">  1       21 0.27028512E-01 0.43785293E+03</pdfrwt>
<totfact> 0.25026374E+03</totfact>
</mgrwt>
</event>
<event>
 6    1  0.9598567E-004  0.4312697E+03  0.7818608E-02  0.1033521E+00
         21   -1    0    0  503  502  0.00000000000E+00  0.00000000000E+00  0.31609935301E+03  0.31609935301E+03  0.00000000000E+00 0. -1.
         21   -1    0    0  501  503 -0.00000000000E+00 -0.00000000000E+00 -0.87732265347E+03  0.87732265347E+03  0.00000000000E+00 0. -1.
    9000007    2    1    2  501    0 -0.69887064423E+02 -0.14529072641E+03 -0.62350321829E+03  0.75767852102E+03  0.39915771450E+03 0.  0.
    9000005    1    3    3    0    0  0.68647107895E+02 -0.24721360925E+03 -0.40786920524E+03  0.48185608080E+03  0.99999687468E+00 0.  0.
          4    1    3    3  501    0 -0.13853417232E+03  0.10192288284E+03 -0.21563401305E+03  0.27582244022E+03  0.00000000000E+00 0.  1.
   -9000007    1    1    2    0  502  0.69887064423E+02  0.14529072641E+03  0.62279917827E+02  0.43574348546E+03  0.40000000000E+03 0. -1.
<mgrwt>
<rscale>  2 0.43107434E+03</rscale>
<asrwt>0</asrwt>
<pdfrwt beam="1">  1       21 0.48630670E-01 0.43126975E+03</pdfrwt>
<pdfrwt beam="2">  1       21 0.13497271E+00 0.43126975E+03</pdfrwt>
<totfact> 0.13625265E+03</totfact>
</mgrwt>
</event>
<event>
 6    1  0.9598567E-004  0.4426496E+03  0.7818608E-02  0.1029959E+00
         21   -1    0    0  503  502  0.00000000000E+00  0.00000000000E+00  0.59997649226E+03  0.59997649226E+03  0.00000000000E+00 0. -1.
         21   -1    0    0  501  503 -0.00000000000E+00 -0.00000000000E+00 -0.33046385282E+03  0.33046385282E+03  0.00000000000E+00 0.  1.
    9000007    2    1    2  501    0  0.18853433863E+03  0.11915610271E+02  0.18659396659E+03  0.48037070057E+03  0.40031428027E+03 0.  0.
    9000005    1    3    3    0    0  0.21622324184E+03 -0.91424015327E+02  0.26024566981E+03  0.35048487776E+03  0.99999687468E+00 0.  0.
          4    1    3    3  501    0 -0.27688903215E+02  0.10333962560E+03 -0.73651703215E+02  0.12988582281E+03  0.00000000000E+00 0.  1.
   -9000007    1    1    2    0  502 -0.18853433863E+03 -0.11915610271E+02  0.82918672851E+02  0.45006964452E+03  0.40000000000E+03 0. -1.
<mgrwt>
<rscale>  2 0.44257857E+03</rscale>
<asrwt>0</asrwt>
<pdfrwt beam="1">  1       21 0.92304076E-01 0.44264964E+03</pdfrwt>
<pdfrwt beam="2">  1       21 0.50840593E-01 0.44264964E+03</pdfrwt>
<totfact> 0.31841638E+03</totfact>
</mgrwt>
</event>
<event>
 6    1  0.9598567E-004  0.5038643E+03  0.7818608E-02  0.1012795E+00
         21   -1    0    0  503  502  0.00000000000E+00  0.00000000000E+00  0.18746291563E+03  0.18746291563E+03  0.00000000000E+00 0. -1.
         21   -1    0    0  501  503 -0.00000000000E+00 -0.00000000000E+00 -0.13816044100E+04  0.13816044100E+04  0.00000000000E+00 0. -1.
    9000007    2    1    2  501    0 -0.13083224428E+03 -0.27705976270E+03 -0.70885815699E+03  0.86951096206E+03  0.39961261011E+03 0.  0.
    9000005    1    3    3    0    0 -0.25474077857E+03 -0.26657040544E+03 -0.44567355537E+03  0.57842766468E+03  0.99999687468E+00 0.  0.
          4    1    3    3  501    0  0.12390853428E+03 -0.10489357263E+02 -0.26318460162E+03  0.29108329738E+03  0.00000000000E+00 0.  1.
   -9000007    1    1    2    0  502  0.13083224428E+03  0.27705976270E+03 -0.48528333734E+03  0.69955636353E+03  0.40000000000E+03 0. -1.
<mgrwt>
<rscale>  2 0.50378737E+03</rscale>
<asrwt>0</asrwt>
<pdfrwt beam="1">  1       21 0.28840449E-01 0.50386426E+03</pdfrwt>
<pdfrwt beam="2">  1       21 0.21255452E+00 0.50386426E+03</pdfrwt>
<totfact> 0.10462199E+03</totfact>
</mgrwt>
</event>
<event>
 6    1  0.9598567E-004  0.4124614E+03  0.7818608E-02  0.1039558E+00
         21   -1    0    0  503  502  0.00000000000E+00  0.00000000000E+00  0.25323812401E+03  0.25323812401E+03  0.00000000000E+00 0. -1.
         21   -1    0    0  501  503 -0.00000000000E+00 -0.00000000000E+00 -0.10069195298E+04  0.10069195298E+04  0.00000000000E+00 0. -1.
    9000007    2    1    2  501    0  0.38072020764E+01  0.10006902310E+03 -0.74047527463E+03  0.84760134730E+03  0.40012011627E+03 0.  0.
    9000005    1    3    3    0    0 -0.12667639044E+03  0.19806332913E+03 -0.54101681988E+03  0.58989506663E+03  0.99999687468E+00 0.  0.
          4    1    3    3  501    0  0.13048359251E+03 -0.97994306034E+02 -0.19945845474E+03  0.25770628067E+03  0.00000000000E+00 0.  1.
   -9000007    1    1    2    0  502 -0.38072020764E+01 -0.10006902310E+03 -0.13206131208E+02  0.41255630655E+03  0.40000000000E+03 0. -1.
<mgrwt>
<rscale>  2 0.41243227E+03</rscale>
<asrwt>0</asrwt>
<pdfrwt beam="1">  1       21 0.38959711E-01 0.41246141E+03</pdfrwt>
<pdfrwt beam="2">  1       21 0.15491070E+00 0.41246141E+03</pdfrwt>
<totfact> 0.15068569E+03</totfact>
</mgrwt>
</event>
<event>
 6    1  0.9598567E-004  0.6215006E+03  0.7818608E-02  0.9861953E-01
         21   -1    0    0  503  502  0.00000000000E+00  0.00000000000E+00  0.85368025183E+03  0.85368025183E+03  0.00000000000E+00 0.  1.
         21   -1    0    0  501  503 -0.00000000000E+00 -0.00000000000E+00 -0.47676532502E+03  0.47676532502E+03  0.00000000000E+00 0. -1.
    9000007    2    1    2  501    0  0.21374155876E+03  0.42494411512E+03  0.37434941058E+02  0.62227214071E+03  0.39944747762E+03 0.  0.
    9000005    1    3    3    0    0 -0.82714362993E+02  0.18067165869E+03 -0.89195558338E+02  0.21780900284E+03  0.99999687468E+00 0.  0.
          4    1    3    3  501    0  0.29645592176E+03  0.24427245644E+03  0.12663049940E+03  0.40446313787E+03  0.00000000000E+00 0.  1.
   -9000007    1    1    2    0  502 -0.21374155876E+03 -0.42494411512E+03  0.33947998575E+03  0.70817343614E+03  0.40000000000E+03 0. -1.
<mgrwt>
<rscale>  2 0.62141168E+03</rscale>
<asrwt>0</asrwt>
<pdfrwt beam="1">  1       21 0.13133542E+00 0.62150057E+03</pdfrwt>
<pdfrwt beam="2">  1       21 0.73348512E-01 0.62150057E+03</pdfrwt>
<totfact> 0.55313236E+02</totfact>
</mgrwt>
</event>
<event>
 6    1  0.9598567E-004  0.4437192E+03  0.7818608E-02  0.1029721E+00
         21   -1    0    0  503  502  0.00000000000E+00  0.00000000000E+00  0.29111554746E+03  0.29111554746E+03  0.00000000000E+00 0.  1.
         21   -1    0    0  501  503 -0.00000000000E+00 -0.00000000000E+00 -0.69864263625E+03  0.69864263625E+03  0.00000000000E+00 0.  1.
    9000007    2    1    2  501    0  0.15515009428E+03  0.10742289582E+03 -0.29678839348E+03  0.53382585436E+03  0.40159116272E+03 0.  0.
    9000005    1    3    3    0    0 -0.11694466364E+01  0.23913125918E+03 -0.15254579235E+03  0.28364827777E+03  0.99999687468E+00 0.  0.
          4    1    3    3  501    0  0.15631954092E+03 -0.13170836335E+03 -0.14424260113E+03  0.25017757659E+03  0.00000000000E+00 0.  1.
   -9000007    1    1    2    0  502 -0.15515009428E+03 -0.10742289582E+03 -0.11073869531E+03  0.45593232934E+03  0.40000000000E+03 0.  1.
<mgrwt>
<rscale>  2 0.44335883E+03</rscale>
<asrwt>0</asrwt>
<pdfrwt beam="1">  1       21 0.44787008E-01 0.44371916E+03</pdfrwt>
<pdfrwt beam="2">  1       21 0.10748348E+00 0.44371916E+03</pdfrwt>
<totfact> 0.28751491E+03</totfact>
</mgrwt>
</event>
<event>
 6    1  0.9598567E-004  0.4481659E+03  0.7818608E-02  0.1028298E+00
         21   -1    0    0  503  502  0.00000000000E+00  0.00000000000E+00  0.13116751935E+04  0.13116751935E+04  0.00000000000E+00 0. -1.
         21   -1    0    0  501  503 -0.00000000000E+00 -0.00000000000E+00 -0.32088562793E+03  0.32088562793E+03  0.00000000000E+00 0.  1.
    9000007    2    1    2  501    0  0.17774574607E+03 -0.96224164533E+02 -0.95129374008E+02  0.45779591584E+03  0.39959337166E+03 0.  0.
    9000005    1    3    3    0    0  0.43650527727E+02  0.46406895298E+02  0.13881878019E+03  0.15274364874E+03  0.99999687468E+00 0.  0.
          4    1    3    3  501    0  0.13409521835E+03 -0.14263105983E+03 -0.23394815420E+03  0.30505226711E+03  0.00000000000E+00 0.  1.
   -9000007    1    1    2    0  502 -0.17774574607E+03  0.96224164533E+02  0.10859189396E+04  0.11747649056E+04  0.40000000000E+03 0. -1.
<mgrwt>
<rscale>  2 0.44807511E+03</rscale>
<asrwt>0</asrwt>
<pdfrwt beam="1">  1       21 0.20179618E+00 0.44816586E+03</pdfrwt>
<pdfrwt beam="2">  1       21 0.49367021E-01 0.44816586E+03</pdfrwt>
<totfact> 0.41999028E+02</totfact>
</mgrwt>
</event>
<event>
 6    1  0.9598567E-004  0.4067511E+03  0.7818608E-02  0.1041550E+00
         21   -1    0    0  503  502  0.00000000000E+00  0.00000000000E+00  0.13778891307E+03  0.13778891307E+03  0.00000000000E+00 0.  1.
         21   -1    0    0  501  503 -0.00000000000E+00 -0.00000000000E+00 -0.12524822621E+04  0.12524822621E+04  0.00000000000E+00 0.  1.
    9000007    2    1    2  501    0  0.10745418589E+02  0.67345872228E+02 -0.70318864717E+03  0.81235504791E+03  0.40099316680E+03 0.  0.
    9000005    1    3    3    0    0 -0.80561302944E+02 -0.14857564703E+03 -0.34649371212E+03  0.38551749501E+03  0.99999687468E+00 0.  0.
          4    1    3    3  501    0  0.91306721533E+02  0.21592151925E+03 -0.35669493505E+03  0.42683755290E+03  0.00000000000E+00 0.  1.
   -9000007    1    1    2    0  502 -0.10745418589E+02 -0.67345872228E+02 -0.41150470190E+03  0.57791612732E+03  0.40000000000E+03 0.  1.
<mgrwt>
<rscale>  2 0.40650610E+03</rscale>
<asrwt>0</asrwt>
<pdfrwt beam="1">  1       21 0.21198293E-01 0.40675109E+03</pdfrwt>
<pdfrwt beam="2">  1       21 0.19268959E+00 0.40675109E+03</pdfrwt>
<totfact> 0.26897395E+03</totfact>
</mgrwt>
</event>
<event>
 6    1  0.9598567E-004  0.4763569E+03  0.7818608E-02  0.1020196E+00
         21   -1    0    0  503  502  0.00000000000E+00  0.00000000000E+00  0.94740956823E+03  0.94740956823E+03  0.00000000000E+00 0. -1.
         21   -1    0    0  501  503 -0.00000000000E+00 -0.00000000000E+00 -0.28887063052E+03  0.28887063052E+03  0.00000000000E+00 0. -1.
    9000007    2    1    2  501    0 -0.17354595624E+03 -0.19182721427E+03  0.72501882161E+02  0.48106148239E+03  0.39905857697E+03 0.  0.
    9000005    1    3    3    0    0 -0.26564960813E+03 -0.14015598818E+03  0.16321873518E+03  0.34184027093E+03  0.99999687468E+00 0.  0.
          4    1    3    3  501    0  0.92103651890E+02 -0.51671226090E+02 -0.90716853016E+02  0.13922121145E+03  0.00000000000E+00 0.  1.
   -9000007    1    1    2    0  502  0.17354595624E+03  0.19182721427E+03  0.58603705555E+03  0.75521871636E+03  0.40000000000E+03 0. -1.
<mgrwt>
<rscale>  2 0.47615920E+03</rscale>
<asrwt>0</asrwt>
<pdfrwt beam="1">  1       21 0.14575532E+00 0.47635688E+03</pdfrwt>
<pdfrwt beam="2">  1       21 0.44441636E-01 0.47635688E+03</pdfrwt>
<totfact> 0.13178580E+03</totfact>
</mgrwt>
</event>
<event>
 6    1  0.9598567E-004  0.5518026E+03  0.7818608E-02  0.1001313E+00
         21   -1    0    0  503  502  0.00000000000E+00  0.00000000000E+00  0.92435011323E+03  0.92435011323E+03  0.00000000000E+00 0.  1.
         21   -1    0    0  501  503 -0.00000000000E+00 -0.00000000000E+00 -0.43979742656E+03  0.43979742656E+03  0.00000000000E+00 0. -1.
    9000007    2    1    2  501    0 -0.37059717293E+03  0.84521453723E+02 -0.10383967213E+03  0.55749289955E+03  0.39437230483E+03 0.  0.
    9000005    1    3    3    0    0 -0.43457717107E+03  0.31026439951E+02 -0.15169854268E+03  0.46133871010E+03  0.99999687468E+00 0.  0.
          4    1    3    3  501    0  0.63979998134E+02  0.53495013772E+02  0.47858870549E+02  0.96154189456E+02  0.00000000000E+00 0.  1.
   -9000007    1    1    2    0  502  0.37059717293E+03 -0.84521453723E+02  0.58839235881E+03  0.80665464024E+03  0.40000000000E+03 0.  1.
<mgrwt>
<rscale>  2 0.55078336E+03</rscale>
<asrwt>0</asrwt>
<pdfrwt beam="1">  1       21 0.14220771E+00 0.55180263E+03</pdfrwt>
<pdfrwt beam="2">  1       21 0.67661143E-01 0.55180263E+03</pdfrwt>
<totfact> 0.55060936E+02</totfact>
</mgrwt>
</event>
<event>
 6    1  0.9598567E-004  0.7183036E+03  0.7818608E-02  0.9686623E-01
         21   -1    0    0  503  502  0.00000000000E+00  0.00000000000E+00  0.16434041345E+04  0.16434041345E+04  0.00000000000E+00 0. -1.
         21   -1    0    0  501  503 -0.00000000000E+00 -0.00000000000E+00 -0.31389162031E+03  0.31389162031E+03  0.00000000000E+00 0. -1.
    9000007    2    1    2  501    0  0.57819801301E+03 -0.14486287279E+03  0.64468174955E+03  0.96518115944E+03  0.40082654375E+03 0.  0.
    9000005    1    3    3    0    0  0.16052856856E+03  0.38554422624E+02  0.43081739798E+03  0.46136806915E+03  0.99999687468E+00 0.  0.
          4    1    3    3  501    0  0.41766944445E+03 -0.18341729542E+03  0.21386435156E+03  0.50381309029E+03  0.00000000000E+00 0.  1.
   -9000007    1    1    2    0  502 -0.57819801301E+03  0.14486287279E+03  0.68483076464E+03  0.99211459538E+03  0.40000000000E+03 0. -1.
<mgrwt>
<rscale>  2 0.71818838E+03</rscale>
<asrwt>0</asrwt>
<pdfrwt beam="1">  1       21 0.25283140E+00 0.71830364E+03</pdfrwt>
<pdfrwt beam="2">  1       21 0.48291020E-01 0.71830364E+03</pdfrwt>
<totfact> 0.18540517E+02</totfact>
</mgrwt>
</event>
<event>
 6    1  0.9598567E-004  0.5430128E+03  0.7818608E-02  0.1003130E+00
         21   -1    0    0  503  502  0.00000000000E+00  0.00000000000E+00  0.17036522690E+04  0.17036522690E+04  0.00000000000E+00 0.  1.
         21   -1    0    0  501  503 -0.00000000000E+00 -0.00000000000E+00 -0.22536270143E+03  0.22536270143E+03  0.00000000000E+00 0. -1.
    9000007    2    1    2  501    0 -0.35745530611E+03 -0.83530677381E+02  0.12039188981E+04  0.13207132902E+04  0.40013899047E+03 0.  0.
    9000005    1    3    3    0    0 -0.14858451034E+03  0.13916462101E+03  0.26997756930E+03  0.33813168496E+03  0.99999687468E+00 0.  0.
          4    1    3    3  501    0 -0.20887079576E+03 -0.22269529839E+03  0.93394132882E+03  0.98258160522E+03  0.00000000000E+00 0.  1.
   -9000007    1    1    2    0  502  0.35745530611E+03  0.83530677381E+02  0.27437066946E+03  0.60830168024E+03  0.40000000000E+03 0. -1.
<mgrwt>
<rscale>  2 0.54298718E+03</rscale>
<asrwt>0</asrwt>
<pdfrwt beam="1">  1       21 0.26210034E+00 0.54301278E+03</pdfrwt>
<pdfrwt beam="2">  1       21 0.34671186E-01 0.54301278E+03</pdfrwt>
<totfact> 0.34698083E+02</totfact>
</mgrwt>
</event>
<event>
 6    1  0.9598567E-004  0.4131181E+03  0.7818608E-02  0.1039435E+00
         21   -1    0    0  503  502  0.00000000000E+00  0.00000000000E+00  0.13099662050E+04  0.13099662050E+04  0.00000000000E+00 0. -1.
         21   -1    0    0  501  503 -0.00000000000E+00 -0.00000000000E+00 -0.31474978822E+03  0.31474978822E+03  0.00000000000E+00 0. -1.
    9000007    2    1    2  501    0  0.93458082476E+02  0.29797571282E+02 -0.12465282679E+03  0.43151465601E+03  0.40130320543E+03 0.  0.
    9000005    1    3    3    0    0  0.15258287504E+03  0.18586041401E+03 -0.10859999439E+03  0.26385713185E+03  0.99999687468E+00 0.  0.
          4    1    3    3  501    0 -0.59124792565E+02 -0.15606284273E+03 -0.16052832396E+02  0.16765752415E+03  0.00000000000E+00 0.  1.
   -9000007    1    1    2    0  502 -0.93458082476E+02 -0.29797571282E+02  0.11198692436E+04  0.11932013373E+04  0.40000000000E+03 0. -1.
<mgrwt>
<rscale>  2 0.41280129E+03</rscale>
<asrwt>0</asrwt>
<pdfrwt beam="1">  1       21 0.20153326E+00 0.41311811E+03</pdfrwt>
<pdfrwt beam="2">  1       21 0.48423045E-01 0.41311811E+03</pdfrwt>
<totfact> 0.44737432E+02</totfact>
</mgrwt>
</event>
<event>
 6    1  0.9598567E-004  0.4515058E+03  0.7818608E-02  0.1027609E+00
         21   -1    0    0  503  502  0.00000000000E+00  0.00000000000E+00  0.19632996801E+03  0.19632996801E+03  0.00000000000E+00 0.  1.
         21   -1    0    0  501  503 -0.00000000000E+00 -0.00000000000E+00 -0.16006402048E+04  0.16006402048E+04  0.00000000000E+00 0.  1.
    9000007    2    1    2  501    0 -0.10176911640E+02 -0.20917446215E+03 -0.12372897844E+04  0.13155624904E+04  0.39491914417E+03 0.  0.
    9000005    1    3    3    0    0  0.16769405981E+03 -0.14245481590E+03 -0.91825779742E+03  0.94425264351E+03  0.99999687468E+00 0.  0.
          4    1    3    3  501    0 -0.17787097145E+03 -0.66719646246E+02 -0.31903198698E+03  0.37130984689E+03  0.00000000000E+00 0.  1.
   -9000007    1    1    2    0  502  0.10176911640E+02  0.20917446215E+03 -0.16702045235E+03  0.48140768238E+03  0.40000000000E+03 0.  1.
<mgrwt>
<rscale>  2 0.45037786E+03</rscale>
<asrwt>0</asrwt>
<pdfrwt beam="1">  1       21 0.30204610E-01 0.45150584E+03</pdfrwt>
<pdfrwt beam="2">  1       21 0.24625234E+00 0.45150584E+03</pdfrwt>
<totfact> 0.59875832E+02</totfact>
</mgrwt>
</event>
<event>
 6    1  0.9598567E-004  0.4058699E+03  0.7818608E-02  0.1041783E+00
         21   -1    0    0  503  502  0.00000000000E+00  0.00000000000E+00  0.59464514190E+03  0.59464514190E+03  0.00000000000E+00 0.  1.
         21   -1    0    0  501  503 -0.00000000000E+00 -0.00000000000E+00 -0.43177227567E+03  0.43177227567E+03  0.00000000000E+00 0.  1.
    9000007    2    1    2  501    0 -0.68519070135E+02  0.59568641925E+01 -0.22595789977E+03  0.46435006235E+03  0.39979202185E+03 0.  0.
    9000005    1    3    3    0    0  0.13050778085E+03  0.66185675179E+02  0.13796732718E+02  0.14698358510E+03  0.99999687468E+00 0.  0.
          4    1    3    3  501    0 -0.19902685098E+03 -0.60228810986E+02 -0.23975463249E+03  0.31736647726E+03  0.00000000000E+00 0.  1.
   -9000007    1    1    2    0  502  0.68519070135E+02 -0.59568641925E+01  0.38883076601E+03  0.56206735521E+03  0.40000000000E+03 0.  1.
<mgrwt>
<rscale>  2 0.40581861E+03</rscale>
<asrwt>0</asrwt>
<pdfrwt beam="1">  1       21 0.91483869E-01 0.40586986E+03</pdfrwt>
<pdfrwt beam="2">  1       21 0.66426504E-01 0.40586986E+03</pdfrwt>
<totfact> 0.18432282E+03</totfact>
</mgrwt>
</event>
<event>
 6    1  0.9598567E-004  0.4235774E+03  0.7818608E-02  0.1035921E+00
         21   -1    0    0  503  502  0.00000000000E+00  0.00000000000E+00  0.47652685163E+03  0.47652685163E+03  0.00000000000E+00 0. -1.
         21   -1    0    0  501  503 -0.00000000000E+00 -0.00000000000E+00 -0.62179096200E+03  0.62179096200E+03  0.00000000000E+00 0. -1.
    9000007    2    1    2  501    0 -0.73164081413E+02  0.11802647697E+03 -0.41765013216E+03  0.59485244546E+03  0.40016817328E+03 0.  0.
    9000005    1    3    3    0    0  0.14138192342E+03  0.12242969203E+03 -0.29026300579E+03  0.34529913160E+03  0.99999687468E+00 0.  0.
          4    1    3    3  501    0 -0.21454600484E+03 -0.44032150665E+01 -0.12738712637E+03  0.24955331386E+03  0.00000000000E+00 0.  1.
   -9000007    1    1    2    0  502  0.73164081413E+02 -0.11802647697E+03  0.27238602179E+03  0.50346536817E+03  0.40000000000E+03 0. -1.
<mgrwt>
<rscale>  2 0.42353766E+03</rscale>
<asrwt>0</asrwt>
<pdfrwt beam="1">  1       21 0.73311824E-01 0.42357738E+03</pdfrwt>
<pdfrwt beam="2">  1       21 0.95660147E-01 0.42357738E+03</pdfrwt>
<totfact> 0.13179288E+03</totfact>
</mgrwt>
</event>
<event>
 6    1  0.9598567E-004  0.4074384E+03  0.7818608E-02  0.1041249E+00
         21   -1    0    0  503  502  0.00000000000E+00  0.00000000000E+00  0.54311439346E+03  0.54311439346E+03  0.00000000000E+00 0. -1.
         21   -1    0    0  501  503 -0.00000000000E+00 -0.00000000000E+00 -0.30831618236E+03  0.30831618236E+03  0.00000000000E+00 0. -1.
    9000007    2    1    2  501    0  0.75035871779E+02 -0.19383021820E+02  0.76837413038E+02  0.41444350815E+03  0.39981664524E+03 0.  0.
    9000005    1    3    3    0    0  0.17415518323E+03  0.11234045400E+03  0.12584425818E+03  0.24246274510E+03  0.99999687468E+00 0.  0.
          4    1    3    3  501    0 -0.99119311456E+02 -0.13172347582E+03 -0.49006845146E+02  0.17198076304E+03  0.00000000000E+00 0.  1.
   -9000007    1    1    2    0  502 -0.75035871779E+02  0.19383021820E+02  0.15796079806E+03  0.43698706767E+03  0.40000000000E+03 0. -1.
<mgrwt>
<rscale>  2 0.40739343E+03</rscale>
<asrwt>0</asrwt>
<pdfrwt beam="1">  1       21 0.83556061E-01 0.40743844E+03</pdfrwt>
<pdfrwt beam="2">  1       21 0.47433259E-01 0.40743844E+03</pdfrwt>
<totfact> 0.47219437E+03</totfact>
</mgrwt>
</event>
<event>
 6    1  0.9598567E-004  0.4343535E+03  0.7818608E-02  0.1032536E+00
         21   -1    0    0  503  502  0.00000000000E+00  0.00000000000E+00  0.22172136998E+03  0.22172136998E+03  0.00000000000E+00 0.  1.
         21   -1    0    0  501  503 -0.00000000000E+00 -0.00000000000E+00 -0.18585603172E+04  0.18585603172E+04  0.00000000000E+00 0.  1.
    9000007    2    1    2  501    0 -0.16735895310E+03  0.13370735627E+02 -0.15849424512E+04  0.16433823371E+04  0.40059348044E+03 0.  0.
    9000005    1    3    3    0    0 -0.19980057788E+03  0.30519402719E+02 -0.32379623359E+03  0.38170237849E+03  0.99999687468E+00 0.  0.
          4    1    3    3  501    0  0.32441624783E+02 -0.17148667092E+02 -0.12611462176E+04  0.12616799586E+04  0.00000000000E+00 0.  1.
   -9000007    1    1    2    0  502  0.16735895310E+03 -0.13370735627E+02 -0.51896495976E+02  0.43689935002E+03  0.40000000000E+03 0.  1.
<mgrwt>
<rscale>  2 0.43421658E+03</rscale>
<asrwt>0</asrwt>
<pdfrwt beam="1">  1       21 0.34110980E-01 0.43435346E+03</pdfrwt>
<pdfrwt beam="2">  1       21 0.28593235E+00 0.43435346E+03</pdfrwt>
<totfact> 0.27214901E+02</totfact>
</mgrwt>
</event>
<event>
 6    1  0.9598567E-004  0.4128238E+03  0.7818608E-02  0.1039472E+00
         21   -1    0    0  503  502  0.00000000000E+00  0.00000000000E+00  0.20269868626E+03  0.20269868626E+03  0.00000000000E+00 0. -1.
         21   -1    0    0  501  503 -0.00000000000E+00 -0.00000000000E+00 -0.17156793144E+04  0.17156793144E+04  0.00000000000E+00 0. -1.
    9000007    2    1    2  501    0  0.90713024233E+02  0.46846878257E+02 -0.14416371777E+04  0.14994348414E+04  0.39945413829E+03 0.  0.
    9000005    1    3    3    0    0 -0.32353649252E+02  0.20701542480E+03 -0.77993674123E+03  0.80759176880E+03  0.99999687468E+00 0.  0.
          4    1    3    3  501    0  0.12306667348E+03 -0.16016854654E+03 -0.66170043651E+03  0.69184307260E+03  0.00000000000E+00 0.  1.
   -9000007    1    1    2    0  502 -0.90713024233E+02 -0.46846878257E+02 -0.71343450389E+02  0.41894315925E+03  0.40000000000E+03 0. -1.
<mgrwt>
<rscale>  2 0.41269151E+03</rscale>
<asrwt>0</asrwt>
<pdfrwt beam="1">  1       21 0.31184414E-01 0.41282379E+03</pdfrwt>
<pdfrwt beam="2">  1       21 0.26395066E+00 0.41282379E+03</pdfrwt>
<totfact> 0.44759564E+02</totfact>
</mgrwt>
</event>
<event>
 6    1  0.9598567E-004  0.5576572E+03  0.7818608E-02  0.9999695E-01
         21   -1    0    0  503  502  0.00000000000E+00  0.00000000000E+00  0.83505083120E+03  0.83505083120E+03  0.00000000000E+00 0. -1.
         21   -1    0    0  501  503 -0.00000000000E+00 -0.00000000000E+00 -0.37294291031E+03  0.37294291031E+03  0.00000000000E+00 0.  1.
    9000007    2    1    2  501    0  0.37171740040E+03  0.91008067447E+02  0.28825204963E+03  0.62775055278E+03  0.40561708334E+03 0.  0.
    9000005    1    3    3    0    0  0.20818963831E+03 -0.15366875727E+03  0.94859448528E+02  0.27560175513E+03  0.99999687468E+00 0.  0.
          4    1    3    3  501    0  0.16352776209E+03  0.24467682472E+03  0.19339260110E+03  0.35214879765E+03  0.00000000000E+00 0.  1.
   -9000007    1    1    2    0  502 -0.37171740040E+03 -0.91008067447E+02  0.17385587127E+03  0.58024318874E+03  0.40000000000E+03 0.  1.
<mgrwt>
<rscale>  2 0.55663631E+03</rscale>
<asrwt>0</asrwt>
<pdfrwt beam="1">  1       21 0.12846936E+00 0.55765716E+03</pdfrwt>
<pdfrwt beam="2">  1       21 0.57375833E-01 0.55765716E+03</pdfrwt>
<totfact> 0.10359563E+03</totfact>
</mgrwt>
</event>
<event>
 6    1  0.9598567E-004  0.4012230E+03  0.7818608E-02  0.1043360E+00
         21   -1    0    0  503  502  0.00000000000E+00  0.00000000000E+00  0.39884862422E+03  0.39884862422E+03  0.00000000000E+00 0. -1.
         21   -1    0    0  501  503 -0.00000000000E+00 -0.00000000000E+00 -0.52630168139E+03  0.52630168139E+03  0.00000000000E+00 0. -1.
    9000007    2    1    2  501    0 -0.24775060375E+02 -0.18467422524E+02  0.15964180270E+03  0.43181643502E+03  0.40003134761E+03 0.  0.
    9000005    1    3    3    0    0  0.17196346536E+03  0.36477806000E+02  0.14347616336E+03  0.22691071636E+03  0.99999687468E+00 0.  0.
          4    1    3    3  501    0 -0.19673852574E+03 -0.54945228524E+02  0.16165639337E+02  0.20490571867E+03  0.00000000000E+00 0.  1.
   -9000007    1    1    2    0  502  0.24775060375E+02  0.18467422524E+02 -0.28709485987E+03  0.49333387059E+03  0.40000000000E+03 0. -1.
<mgrwt>
<rscale>  2 0.40121523E+03</rscale>
<asrwt>0</asrwt>
<pdfrwt beam="1">  1       21 0.61361327E-01 0.40122304E+03</pdfrwt>
<pdfrwt beam="2">  1       21 0.80969489E-01 0.40122304E+03</pdfrwt>
<totfact> 0.29282445E+03</totfact>
</mgrwt>
</event>
<event>
 6    1  0.9598567E-004  0.4627330E+03  0.7818608E-02  0.1024054E+00
         21   -1    0    0  503  502  0.00000000000E+00  0.00000000000E+00  0.64428276164E+03  0.64428276164E+03  0.00000000000E+00 0. -1.
         21   -1    0    0  501  503 -0.00000000000E+00 -0.00000000000E+00 -0.81092195052E+03  0.81092195052E+03  0.00000000000E+00 0. -1.
    9000007    2    1    2  501    0 -0.74352682537E+02 -0.21861271221E+03 -0.64267674097E+03  0.79193132181E+03  0.40100122910E+03 0.  0.
    9000005    1    3    3    0    0 -0.23539421750E+03 -0.87780853065E+02 -0.40326001567E+03  0.47511636051E+03  0.99999687468E+00 0.  0.
          4    1    3    3  501    0  0.16104153496E+03 -0.13083185914E+03 -0.23941672530E+03  0.31681496130E+03  0.00000000000E+00 0.  1.
   -9000007    1    1    2    0  502  0.74352682537E+02  0.21861271221E+03  0.47603755209E+03  0.66327339035E+03  0.40000000000E+03 0. -1.
<mgrwt>
<rscale>  2 0.46251600E+03</rscale>
<asrwt>0</asrwt>
<pdfrwt beam="1">  1       21 0.99120424E-01 0.46273300E+03</pdfrwt>
<pdfrwt beam="2">  1       21 0.12475722E+00 0.46273300E+03</pdfrwt>
<totfact> 0.33078051E+02</totfact>
</mgrwt>
</event>
<event>
 6    1  0.9598567E-004  0.4485336E+03  0.7818608E-02  0.1028218E+00
         21   -1    0    0  503  502  0.00000000000E+00  0.00000000000E+00  0.12684298648E+03  0.12684298648E+03  0.00000000000E+00 0.  1.
         21   -1    0    0  501  503 -0.00000000000E+00 -0.00000000000E+00 -0.15928427660E+04  0.15928427660E+04  0.00000000000E+00 0. -1.
    9000007    2    1    2  501    0 -0.67585232796E+02  0.19134951340E+03 -0.79877474494E+03  0.91571333584E+03  0.39913333649E+03 0.  0.
    9000005    1    3    3    0    0 -0.11925446160E+03  0.23244304777E+03 -0.24545704411E+03  0.35847113909E+03  0.99999687468E+00 0.  0.
          4    1    3    3  501    0  0.51669228809E+02 -0.41093534364E+02 -0.55331770084E+03  0.55724219674E+03  0.00000000000E+00 0.  1.
   -9000007    1    1    2    0  502  0.67585232796E+02 -0.19134951340E+03 -0.66722503458E+03  0.80397241665E+03  0.40000000000E+03 0. -1.
<mgrwt>
<rscale>  2 0.44834031E+03</rscale>
<asrwt>0</asrwt>
<pdfrwt beam="1">  1       21 0.19514306E-01 0.44853361E+03</pdfrwt>
<pdfrwt beam="2">  1       21 0.24505273E+00 0.44853361E+03</pdfrwt>
<totfact> 0.14243307E+03</totfact>
</mgrwt>
</event>
<event>
 6    1  0.9598567E-004  0.4410071E+03  0.7818608E-02  0.1030454E+00
         21   -1    0    0  503  502  0.00000000000E+00  0.00000000000E+00  0.19420798978E+03  0.19420798978E+03  0.00000000000E+00 0.  1.
         21   -1    0    0  501  503 -0.00000000000E+00 -0.00000000000E+00 -0.10537061025E+04  0.10537061025E+04  0.00000000000E+00 0.  1.
    9000007    2    1    2  501    0 -0.17694780673E+03  0.54778673801E+02 -0.56941025158E+03  0.72021891836E+03  0.40021997245E+03 0.  0.
    9000005    1    3    3    0    0 -0.20305651878E+03  0.19416027793E+03 -0.27351656277E+03  0.39210008091E+03  0.99999687468E+00 0.  0.
          4    1    3    3  501    0  0.26108712048E+02 -0.13938160413E+03 -0.29589368881E+03  0.32811883745E+03  0.00000000000E+00 0.  1.
   -9000007    1    1    2    0  502  0.17694780673E+03 -0.54778673801E+02 -0.29008786115E+03  0.52769517394E+03  0.40000000000E+03 0.  1.
<mgrwt>
<rscale>  2 0.44095718E+03</rscale>
<asrwt>0</asrwt>
<pdfrwt beam="1">  1       21 0.29878153E-01 0.44100709E+03</pdfrwt>
<pdfrwt beam="2">  1       21 0.16210863E+00 0.44100709E+03</pdfrwt>
<totfact> 0.22410131E+03</totfact>
</mgrwt>
</event>
<event>
 6    1  0.9598567E-004  0.4177521E+03  0.7818608E-02  0.1037839E+00
         21   -1    0    0  503  502  0.00000000000E+00  0.00000000000E+00  0.12709280237E+04  0.12709280237E+04  0.00000000000E+00 0. -1.
         21   -1    0    0  501  503 -0.00000000000E+00 -0.00000000000E+00 -0.29782644216E+03  0.29782644216E+03  0.00000000000E+00 0. -1.
    9000007    2    1    2  501    0 -0.70214645960E+02 -0.97911953143E+02 -0.89689056907E+02  0.42680841274E+03  0.39950525301E+03 0.  0.
    9000005    1    3    3    0    0 -0.21727454113E+03 -0.69883361458E+02  0.36342912675E+02  0.23111407947E+03  0.99999687468E+00 0.  0.
          4    1    3    3  501    0  0.14705989517E+03 -0.28028591685E+02 -0.12603196958E+03  0.19569433328E+03  0.00000000000E+00 0.  1.
   -9000007    1    1    2    0  502  0.70214645960E+02  0.97911953143E+02  0.10627906385E+04  0.11419460531E+04  0.40000000000E+03 0. -1.
<mgrwt>
<rscale>  2 0.41763366E+03</rscale>
<asrwt>0</asrwt>
<pdfrwt beam="1">  1       21 0.19552739E+00 0.41775214E+03</pdfrwt>
<pdfrwt beam="2">  1       21 0.45819453E-01 0.41775214E+03</pdfrwt>
<totfact> 0.54981859E+02</totfact>
</mgrwt>
</event>
<event>
 6    1  0.9598567E-004  0.4125059E+03  0.7818608E-02  0.1039545E+00
         21   -1    0    0  503  502  0.00000000000E+00  0.00000000000E+00  0.17329223062E+03  0.17329223062E+03  0.00000000000E+00 0. -1.
         21   -1    0    0  501  503 -0.00000000000E+00 -0.00000000000E+00 -0.12035894400E+04  0.12035894400E+04  0.00000000000E+00 0. -1.
    9000007    2    1    2  501    0  0.93667660772E+02 -0.35669729923E+02 -0.81088081011E+03  0.90977406354E+03  0.40014397180E+03 0.  0.
    9000005    1    3    3    0    0  0.11338599062E+03 -0.20645035152E+03 -0.53732570684E+03  0.58668394024E+03  0.99999687468E+00 0.  0.
          4    1    3    3  501    0 -0.19718329852E+02  0.17078062160E+03 -0.27355510327E+03  0.32309012330E+03  0.00000000000E+00 0.  1.
   -9000007    1    1    2    0  502 -0.93667660772E+02  0.35669729923E+02 -0.21941639924E+03  0.46710760705E+03  0.40000000000E+03 0. -1.
<mgrwt>
<rscale>  2 0.41247103E+03</rscale>
<asrwt>0</asrwt>
<pdfrwt beam="1">  1       21 0.26660343E-01 0.41250595E+03</pdfrwt>
<pdfrwt beam="2">  1       21 0.18516761E+00 0.41250595E+03</pdfrwt>
<totfact> 0.19390086E+03</totfact>
</mgrwt>
</event>
<event>
 6    1  0.9598567E-004  0.4529691E+03  0.7818608E-02  0.1026846E+00
         21   -1    0    0  503  502  0.00000000000E+00  0.00000000000E+00  0.29656855759E+03  0.29656855759E+03  0.00000000000E+00 0.  1.
         21   -1    0    0  501  503 -0.00000000000E+00 -0.00000000000E+00 -0.74880179696E+03  0.74880179696E+03  0.00000000000E+00 0. -1.
    9000007    2    1    2  501    0  0.92822501560E+02  0.19102765339E+03 -0.81830367116E+02  0.46030123989E+03  0.40009179110E+03 0.  0.
    9000005    1    3    3    0    0  0.21916171124E+03  0.16305162389E+03 -0.15251229054E+03  0.31285569595E+03  0.99999687468E+00 0.  0.
          4    1    3    3  501    0 -0.12633920968E+03  0.27976029502E+02  0.70681923420E+02  0.14744554394E+03  0.00000000000E+00 0.  1.
   -9000007    1    1    2    0  502 -0.92822501560E+02 -0.19102765339E+03 -0.37040287226E+03  0.58506911466E+03  0.40000000000E+03 0. -1.
<mgrwt>
<rscale>  2 0.45294885E+03</rscale>
<asrwt>0</asrwt>
<pdfrwt beam="1">  1       21 0.45625932E-01 0.45296912E+03</pdfrwt>
<pdfrwt beam="2">  1       21 0.11520028E+00 0.45296912E+03</pdfrwt>
<totfact> 0.23196288E+03</totfact>
</mgrwt>
</event>
<event>
 6    1  0.9598567E-004  0.4064836E+03  0.7818608E-02  0.1041578E+00
         21   -1    0    0  503  502  0.00000000000E+00  0.00000000000E+00  0.12627166989E+03  0.12627166989E+03  0.00000000000E+00 0.  1.
         21   -1    0    0  501  503 -0.00000000000E+00 -0.00000000000E+00 -0.15144787819E+04  0.15144787819E+04  0.00000000000E+00 0.  1.
    9000007    2    1    2  501    0  0.42100047674E+02  0.57127938785E+02 -0.99737154962E+03  0.10770231664E+04  0.40024102445E+03 0.  0.
    9000005    1    3    3    0    0 -0.15921373218E+03  0.11471754429E+03 -0.51746859851E+03  0.55342919865E+03  0.99999687468E+00 0.  0.
          4    1    3    3  501    0  0.20131377986E+03 -0.57589605502E+02 -0.47990295112E+03  0.52359396780E+03  0.00000000000E+00 0.  1.
   -9000007    1    1    2    0  502 -0.42100047674E+02 -0.57127938785E+02 -0.39083556234E+03  0.56372728530E+03  0.40000000000E+03 0.  1.
<mgrwt>
<rscale>  2 0.40642423E+03</rscale>
<asrwt>0</asrwt>
<pdfrwt beam="1">  1       21 0.19426412E-01 0.40648357E+03</pdfrwt>
<pdfrwt beam="2">  1       21 0.23299672E+00 0.40648357E+03</pdfrwt>
<totfact> 0.17420811E+03</totfact>
</mgrwt>
</event>
<event>
 6    1  0.9598567E-004  0.5295730E+03  0.7818608E-02  0.1006341E+00
         21   -1    0    0  503  502  0.00000000000E+00  0.00000000000E+00  0.27291862792E+03  0.27291862792E+03  0.00000000000E+00 0.  1.
         21   -1    0    0  501  503 -0.00000000000E+00 -0.00000000000E+00 -0.17703805169E+04  0.17703805169E+04  0.00000000000E+00 0.  1.
    9000007    2    1    2  501    0  0.34549673423E+03  0.31487650206E+02 -0.14106004295E+04  0.15067319275E+04  0.40011006521E+03 0.  0.
    9000005    1    3    3    0    0  0.10451849568E+03  0.66844699351E+02 -0.66549140881E+02  0.14079104345E+03  0.99999687468E+00 0.  0.
          4    1    3    3  501    0  0.24097823855E+03 -0.35357049145E+02 -0.13440512886E+04  0.13659408841E+04  0.00000000000E+00 0.  1.
   -9000007    1    1    2    0  502 -0.34549673423E+03 -0.31487650206E+02 -0.86861459440E+02  0.53656721724E+03  0.40000000000E+03 0.  1.
<mgrwt>
<rscale>  2 0.52955218E+03</rscale>
<asrwt>0</asrwt>
<pdfrwt beam="1">  1       21 0.41987481E-01 0.52957297E+03</pdfrwt>
<pdfrwt beam="2">  1       21 0.27236624E+00 0.52957297E+03</pdfrwt>
<totfact> 0.20392461E+02</totfact>
</mgrwt>
</event>
<event>
 6    1  0.9598567E-004  0.4177795E+03  0.7818608E-02  0.1037824E+00
         21   -1    0    0  503  502  0.00000000000E+00  0.00000000000E+00  0.19613918407E+04  0.19613918407E+04  0.00000000000E+00 0. -1.
         21   -1    0    0  501  503 -0.00000000000E+00 -0.00000000000E+00 -0.11878332963E+03  0.11878332963E+03  0.00000000000E+00 0. -1.
    9000007    2    1    2  501    0  0.10485446648E+03  0.59541835822E+02  0.39933071867E+03  0.57764714218E+03  0.39958917482E+03 0.  0.
    9000005    1    3    3    0    0 -0.23810370615E+02  0.66074437120E+01 -0.77282274344E+02  0.81142726000E+02  0.99999687468E+00 0.  0.
          4    1    3    3  501    0  0.12866483710E+03  0.52934392110E+02  0.47661299301E+03  0.49650441618E+03  0.00000000000E+00 0.  1.
   -9000007    1    1    2    0  502 -0.10485446648E+03 -0.59541835822E+02  0.14432777924E+04  0.15025280281E+04  0.40000000000E+03 0. -1.
<mgrwt>
<rscale>  2 0.41768111E+03</rscale>
<asrwt>0</asrwt>
<pdfrwt beam="1">  1       21 0.30175257E+00 0.41777947E+03</pdfrwt>
<pdfrwt beam="2">  1       21 0.18274360E-01 0.41777947E+03</pdfrwt>
<totfact> 0.74417991E+02</totfact>
</mgrwt>
</event>
<event>
 6    1  0.9598567E-004  0.4176870E+03  0.7818608E-02  0.1037845E+00
         21   -1    0    0  503  502  0.00000000000E+00  0.00000000000E+00  0.23683288612E+04  0.23683288612E+04  0.00000000000E+00 0. -1.
         21   -1    0    0  501  503 -0.00000000000E+00 -0.00000000000E+00 -0.98658622996E+02  0.98658622996E+02  0.00000000000E+00 0. -1.
    9000007    2    1    2  501    0  0.43611117530E+02 -0.11103203472E+03  0.51365935007E+03  0.66204862608E+03  0.40029041091E+03 0.  0.
    9000005    1    3    3    0    0 -0.23784358331E+02 -0.22346554783E+03  0.47484179350E+03  0.52533634522E+03  0.99999687468E+00 0.  0.
          4    1    3    3  501    0  0.67395475861E+02  0.11243351311E+03  0.38817556574E+02  0.13671228085E+03  0.00000000000E+00 0.  1.
   -9000007    1    1    2    0  502 -0.43611117530E+02  0.11103203472E+03  0.17560108882E+04  0.18049388582E+04  0.40000000000E+03 0. -1.
<mgrwt>
<rscale>  2 0.41761744E+03</rscale>
<asrwt>0</asrwt>
<pdfrwt beam="1">  1       21 0.36435824E+00 0.41768703E+03</pdfrwt>
<pdfrwt beam="2">  1       21 0.15178251E-01 0.41768703E+03</pdfrwt>
<totfact> 0.43915687E+02</totfact>
</mgrwt>
</event>
<event>
 6    1  0.9598567E-004  0.4023395E+03  0.7818608E-02  0.1043115E+00
         21   -1    0    0  503  502  0.00000000000E+00  0.00000000000E+00  0.21277849670E+03  0.21277849670E+03  0.00000000000E+00 0.  1.
         21   -1    0    0  501  503 -0.00000000000E+00 -0.00000000000E+00 -0.10781731255E+04  0.10781731255E+04  0.00000000000E+00 0.  1.
    9000007    2    1    2  501    0  0.12206500911E+02  0.19978643040E+02 -0.81387801663E+02  0.41048876106E+03  0.40165769488E+03 0.  0.
    9000005    1    3    3    0    0 -0.14401502069E+02 -0.17242915625E+03  0.44952697609E+02  0.17877629095E+03  0.99999687468E+00 0.  0.
          4    1    3    3  501    0  0.26608002981E+02  0.19240779929E+03 -0.12634049927E+03  0.23171247012E+03  0.00000000000E+00 0.  1.
   -9000007    1    1    2    0  502 -0.12206500911E+02 -0.19978643040E+02 -0.78400682716E+03  0.88046286116E+03  0.40000000000E+03 0.  1.
<mgrwt>
<rscale>  2 0.40192511E+03</rscale>
<asrwt>0</asrwt>
<pdfrwt beam="1">  1       21 0.32735154E-01 0.40233947E+03</pdfrwt>
<pdfrwt beam="2">  1       21 0.16587279E+00 0.40233947E+03</pdfrwt>
<totfact> 0.17810328E+03</totfact>
</mgrwt>
</event>
<event>
 6    1  0.9598567E-004  0.4101551E+03  0.7818608E-02  0.1040764E+00
         21   -1    0    0  503  502  0.00000000000E+00  0.00000000000E+00  0.10799643851E+04  0.10799643851E+04  0.00000000000E+00 0. -1.
         21   -1    0    0  501  503 -0.00000000000E+00 -0.00000000000E+00 -0.15984583938E+03  0.15984583938E+03  0.00000000000E+00 0. -1.
    9000007    2    1    2  501    0 -0.44975039834E+02  0.43710575191E+02  0.58370970193E+03  0.71340327279E+03  0.40533177140E+03 0.  0.
    9000005    1    3    3    0    0 -0.13109257081E+03  0.30100489978E+02  0.11953417119E+02  0.13503771989E+03  0.99999687468E+00 0.  0.
          4    1    3    3  501    0  0.86117530975E+02  0.13610085213E+02  0.57175628481E+03  0.57836555290E+03  0.00000000000E+00 0.  1.
   -9000007    1    1    2    0  502  0.44975039834E+02 -0.43710575191E+02  0.33640884375E+03  0.52640695165E+03  0.40000000000E+03 0.  1.
<mgrwt>
<rscale>  2 0.40883165E+03</rscale>
<asrwt>0</asrwt>
<pdfrwt beam="1">  1       21 0.16614836E+00 0.41015511E+03</pdfrwt>
<pdfrwt beam="2">  1       21 0.24591668E-01 0.41015511E+03</pdfrwt>
<totfact> 0.31034344E+03</totfact>
</mgrwt>
</event>
<event>
 6    1  0.9598567E-004  0.4666569E+03  0.7818608E-02  0.1022891E+00
         21   -1    0    0  503  502  0.00000000000E+00  0.00000000000E+00  0.82568912031E+03  0.82568912031E+03  0.00000000000E+00 0. -1.
         21   -1    0    0  501  503 -0.00000000000E+00 -0.00000000000E+00 -0.26596920401E+03  0.26596920401E+03  0.00000000000E+00 0.  1.
    9000007    2    1    2  501    0 -0.18290924588E+03  0.15592591061E+03  0.33171765734E+03  0.57228012693E+03  0.39962389527E+03 0.  0.
    9000005    1    3    3    0    0 -0.13386302687E+03  0.11806516794E+03 -0.50161417441E+02  0.18540728583E+03  0.99999687468E+00 0.  0.
          4    1    3    3  501    0 -0.49046219001E+02  0.37860742670E+02  0.38187907478E+03  0.38687284111E+03  0.00000000000E+00 0.  1.
   -9000007    1    1    2    0  502  0.18290924588E+03 -0.15592591061E+03  0.22800225896E+03  0.51937819738E+03  0.40000000000E+03 0.  1.
<mgrwt>
<rscale>  2 0.46657631E+03</rscale>
<asrwt>0</asrwt>
<pdfrwt beam="1">  1       21 0.12702909E+00 0.46665692E+03</pdfrwt>
<pdfrwt beam="2">  1       21 0.40918339E-01 0.46665692E+03</pdfrwt>
<totfact> 0.22575198E+03</totfact>
</mgrwt>
</event>
<event>
 6    1  0.9598567E-004  0.4564534E+03  0.7818608E-02  0.1025828E+00
         21   -1    0    0  503  502  0.00000000000E+00  0.00000000000E+00  0.22329316261E+04  0.22329316261E+04  0.00000000000E+00 0.  1.
         21   -1    0    0  501  503 -0.00000000000E+00 -0.00000000000E+00 -0.10708725892E+03  0.10708725892E+03  0.00000000000E+00 0.  1.
    9000007    2    1    2  501    0 -0.11440439784E+03 -0.18778002842E+03  0.64246774125E+03  0.78800215841E+03  0.39979106768E+03 0.  0.
    9000005    1    3    3    0    0 -0.24731923507E+03 -0.39377213837E+02  0.42317373200E+03  0.49172591599E+03  0.99999687468E+00 0.  0.
          4    1    3    3  501    0  0.13291483723E+03 -0.14840281458E+03  0.21929400925E+03  0.29627624242E+03  0.00000000000E+00 0.  1.
   -9000007    1    1    2    0  502  0.11440439784E+03  0.18778002842E+03  0.14833766260E+04  0.15520167266E+04  0.40000000000E+03 0.  1.
<mgrwt>
<rscale>  2 0.45640762E+03</rscale>
<asrwt>0</asrwt>
<pdfrwt beam="1">  1       21 0.34352791E+00 0.45645340E+03</pdfrwt>
<pdfrwt beam="2">  1       21 0.16474965E-01 0.45645340E+03</pdfrwt>
<totfact> 0.49415097E+02</totfact>
</mgrwt>
</event>
<event>
 6    1  0.9598567E-004  0.4029703E+03  0.7818608E-02  0.1042846E+00
         21   -1    0    0  503  502  0.00000000000E+00  0.00000000000E+00  0.62026984703E+03  0.62026984703E+03  0.00000000000E+00 0. -1.
         21   -1    0    0  501  503 -0.00000000000E+00 -0.00000000000E+00 -0.26163479338E+03  0.26163479338E+03  0.00000000000E+00 0. -1.
    9000007    2    1    2  501    0 -0.70603486016E+01 -0.48323984055E+02  0.19867818444E+03  0.44834812049E+03  0.39894606178E+03 0.  0.
    9000005    1    3    3    0    0  0.18617179971E+03 -0.85636973351E+02  0.94338590026E+02  0.22559787183E+03  0.99999687468E+00 0.  0.
          4    1    3    3  501    0 -0.19323214831E+03  0.37312989296E+02  0.10433959442E+03  0.22275024865E+03  0.00000000000E+00 0.  1.
   -9000007    1    1    2    0  502  0.70603486016E+01  0.48323984055E+02  0.15995686921E+03  0.43355651992E+03  0.40000000000E+03 0.  1.
<mgrwt>
<rscale>  2 0.40270850E+03</rscale>
<asrwt>0</asrwt>
<pdfrwt beam="1">  1       21 0.95426130E-01 0.40297029E+03</pdfrwt>
<pdfrwt beam="2">  1       21 0.40251507E-01 0.40297029E+03</pdfrwt>
<totfact> 0.48663740E+03</totfact>
</mgrwt>
</event>
<event>
 6    1  0.9598567E-004  0.5432706E+03  0.7818608E-02  0.1003264E+00
         21   -1    0    0  503  502  0.00000000000E+00  0.00000000000E+00  0.85372744800E+03  0.85372744800E+03  0.00000000000E+00 0.  1.
         21   -1    0    0  501  503 -0.00000000000E+00 -0.00000000000E+00 -0.40766624171E+03  0.40766624171E+03  0.00000000000E+00 0. -1.
    9000007    2    1    2  501    0 -0.11192230502E+03 -0.34486781784E+03 -0.26499024360E+02  0.54391645262E+03  0.40457693336E+03 0.  0.
    9000005    1    3    3    0    0 -0.22633197223E+03 -0.34179745273E+03  0.39430594998E+02  0.41183422898E+03  0.99999687468E+00 0.  0.
          4    1    3    3  501    0  0.11440966721E+03 -0.30703651072E+01 -0.65929619358E+02  0.13208222364E+03  0.00000000000E+00 0.  1.
   -9000007    1    1    2    0  502  0.11192230502E+03  0.34486781784E+03  0.47256023065E+03  0.71747723708E+03  0.40000000000E+03 0.  1.
<mgrwt>
<rscale>  2 0.54241861E+03</rscale>
<asrwt>0</asrwt>
<pdfrwt beam="1">  1       21 0.13134268E+00 0.54327057E+03</pdfrwt>
<pdfrwt beam="2">  1       21 0.62717883E-01 0.54327057E+03</pdfrwt>
<totfact> 0.80776856E+02</totfact>
</mgrwt>
</event>
<event>
 6    1  0.9598567E-004  0.4360402E+03  0.7818608E-02  0.1032121E+00
         21   -1    0    0  503  502  0.00000000000E+00  0.00000000000E+00  0.22546099941E+03  0.22546099941E+03  0.00000000000E+00 0. -1.
         21   -1    0    0  501  503 -0.00000000000E+00 -0.00000000000E+00 -0.10330786121E+04  0.10330786121E+04  0.00000000000E+00 0. -1.
    9000007    2    1    2  501    0  0.12958943054E+03 -0.10783964364E+03 -0.13215941870E+03  0.45562829568E+03  0.40212960924E+03 0.  0.
    9000005    1    3    3    0    0  0.23935585768E+03 -0.17756510055E+03 -0.13108583332E+03  0.32558422448E+03  0.99999687468E+00 0.  0.
          4    1    3    3  501    0 -0.10976642714E+03  0.69725456911E+02 -0.10735853800E+01  0.13004407120E+03  0.00000000000E+00 0.  1.
   -9000007    1    1    2    0  502 -0.12958943054E+03  0.10783964364E+03 -0.67545819398E+03  0.80291131582E+03  0.40000000000E+03 0. -1.
<mgrwt>
<rscale>  2 0.43554854E+03</rscale>
<asrwt>0</asrwt>
<pdfrwt beam="1">  1       21 0.34686307E-01 0.43604017E+03</pdfrwt>
<pdfrwt beam="2">  1       21 0.15893517E+00 0.43604017E+03</pdfrwt>
<totfact> 0.17599487E+03</totfact>
</mgrwt>
</event>
<event>
 6    1  0.9598567E-004  0.4088877E+03  0.7818608E-02  0.1040902E+00
         21   -1    0    0  503  502  0.00000000000E+00  0.00000000000E+00  0.13593826184E+04  0.13593826184E+04  0.00000000000E+00 0. -1.
         21   -1    0    0  501  503 -0.00000000000E+00 -0.00000000000E+00 -0.31217168640E+03  0.31217168640E+03  0.00000000000E+00 0. -1.
    9000007    2    1    2  501    0 -0.75302701241E+02  0.21364017015E+01 -0.12751534593E+03  0.42830980387E+03  0.40188812326E+03 0.  0.
    9000005    1    3    3    0    0 -0.12947398135E+01 -0.12482369420E+03  0.98296926041E+02  0.15888963669E+03  0.99999687468E+00 0.  0.
          4    1    3    3  501    0 -0.74007961427E+02  0.12696009591E+03 -0.22581227197E+03  0.26942016718E+03  0.00000000000E+00 0.  1.
   -9000007    1    1    2    0  502  0.75302701241E+02 -0.21364017015E+01  0.11747262779E+04  0.12432445009E+04  0.40000000000E+03 0.  1.
<mgrwt>
<rscale>  2 0.40842296E+03</rscale>
<asrwt>0</asrwt>
<pdfrwt beam="1">  1       21 0.20913578E+00 0.40888767E+03</pdfrwt>
<pdfrwt beam="2">  1       21 0.48026414E-01 0.40888767E+03</pdfrwt>
<totfact> 0.40678323E+02</totfact>
</mgrwt>
</event>
<event>
 6    1  0.9598567E-004  0.4232993E+03  0.7818608E-02  0.1036002E+00
         21   -1    0    0  503  502  0.00000000000E+00  0.00000000000E+00  0.10918853246E+04  0.10918853246E+04  0.00000000000E+00 0.  1.
         21   -1    0    0  501  503 -0.00000000000E+00 -0.00000000000E+00 -0.16986413557E+03  0.16986413557E+03  0.00000000000E+00 0.  1.
    9000007    2    1    2  501    0 -0.21679108446E+02 -0.13679310641E+03  0.34458910260E+03  0.54578147756E+03  0.39994178815E+03 0.  0.
    9000005    1    3    3    0    0 -0.17106911795E+03  0.47463481357E+02  0.20236756609E+03  0.26920448915E+03  0.99999687468E+00 0.  0.
          4    1    3    3  501    0  0.14939000950E+03 -0.18425658776E+03  0.14222153651E+03  0.27657698841E+03  0.00000000000E+00 0.  1.
   -9000007    1    1    2    0  502  0.21679108446E+02  0.13679310641E+03  0.57743208648E+03  0.71596798266E+03  0.40000000000E+03 0.  1.
<mgrwt>
<rscale>  2 0.42328560E+03</rscale>
<asrwt>0</asrwt>
<pdfrwt beam="1">  1       21 0.16798235E+00 0.42329935E+03</pdfrwt>
<pdfrwt beam="2">  1       21 0.26132945E-01 0.42329935E+03</pdfrwt>
<totfact> 0.26585767E+03</totfact>
</mgrwt>
</event>
<event>
 6    1  0.9598567E-004  0.4311977E+03  0.7818608E-02  0.1033493E+00
         21   -1    0    0  503  502  0.00000000000E+00  0.00000000000E+00  0.58637999792E+03  0.58637999792E+03  0.00000000000E+00 0.  1.
         21   -1    0    0  501  503 -0.00000000000E+00 -0.00000000000E+00 -0.54194248724E+03  0.54194248724E+03  0.00000000000E+00 0.  1.
    9000007    2    1    2  501    0  0.13848389897E+03 -0.81442841816E+02 -0.34125960733E+03  0.54989963499E+03  0.40015092429E+03 0.  0.
    9000005    1    3    3    0    0  0.22467164173E+01 -0.19762532695E+03 -0.43373780616E+02  0.20234401999E+03  0.99999687468E+00 0.  0.
          4    1    3    3  501    0  0.13623718256E+03  0.11618248513E+03 -0.29788582672E+03  0.34755561501E+03  0.00000000000E+00 0.  1.
   -9000007    1    1    2    0  502 -0.13848389897E+03  0.81442841816E+02  0.38569711801E+03  0.57842285017E+03  0.40000000000E+03 0.  1.
<mgrwt>
<rscale>  2 0.43116272E+03</rscale>
<asrwt>0</asrwt>
<pdfrwt beam="1">  1       21 0.90212308E-01 0.43119774E+03</pdfrwt>
<pdfrwt beam="2">  1       21 0.83375767E-01 0.43119774E+03</pdfrwt>
<totfact> 0.11241363E+03</totfact>
</mgrwt>
</event>
<event>
 6    1  0.9598567E-004  0.4028643E+03  0.7818608E-02  0.1042794E+00
         21   -1    0    0  503  502  0.00000000000E+00  0.00000000000E+00  0.51869967187E+03  0.51869967187E+03  0.00000000000E+00 0. -1.
         21   -1    0    0  501  503 -0.00000000000E+00 -0.00000000000E+00 -0.50171586097E+03  0.50171586097E+03  0.00000000000E+00 0. -1.
    9000007    2    1    2  501    0 -0.12277193000E+02  0.46356152424E+02 -0.30452062387E+03  0.50498879323E+03  0.39997656005E+03 0.  0.
    9000005    1    3    3    0    0  0.67549896748E+02 -0.93635160086E+01 -0.37731647022E+03  0.38343106639E+03  0.99999687468E+00 0.  0.
          4    1    3    3  501    0 -0.79827089747E+02  0.55719668433E+02  0.72795846347E+02  0.12155772683E+03  0.00000000000E+00 0.  1.
   -9000007    1    1    2    0  502  0.12277193000E+02 -0.46356152424E+02  0.32150443477E+03  0.51542673961E+03  0.40000000000E+03 0. -1.
<mgrwt>
<rscale>  2 0.40285845E+03</rscale>
<asrwt>0</asrwt>
<pdfrwt beam="1">  1       21 0.79799950E-01 0.40286427E+03</pdfrwt>
<pdfrwt beam="2">  1       21 0.77187055E-01 0.40286427E+03</pdfrwt>
<totfact> 0.18100239E+03</totfact>
</mgrwt>
</event>
<event>
 6    1  0.9598567E-004  0.4419484E+03  0.7818608E-02  0.1030314E+00
         21   -1    0    0  503  502  0.00000000000E+00  0.00000000000E+00  0.24035497673E+03  0.24035497673E+03  0.00000000000E+00 0.  1.
         21   -1    0    0  501  503 -0.00000000000E+00 -0.00000000000E+00 -0.93297587844E+03  0.93297587844E+03  0.00000000000E+00 0. -1.
    9000007    2    1    2  501    0  0.17660600172E+03 -0.64254773142E+02 -0.13147657387E+03  0.45904707936E+03  0.39764277420E+03 0.  0.
    9000005    1    3    3    0    0 -0.44984299883E+02  0.99564199718E+02  0.58887331980E+02  0.12411822978E+03  0.99999687468E+00 0.  0.
          4    1    3    3  501    0  0.22159030160E+03 -0.16381897286E+03 -0.19036390585E+03  0.33492884958E+03  0.00000000000E+00 0.  1.
   -9000007    1    1    2    0  502 -0.17660600172E+03  0.64254773142E+02 -0.56114432785E+03  0.71428377581E+03  0.40000000000E+03 0. -1.
<mgrwt>
<rscale>  2 0.44141431E+03</rscale>
<asrwt>0</asrwt>
<pdfrwt beam="1">  1       21 0.36977689E-01 0.44194836E+03</pdfrwt>
<pdfrwt beam="2">  1       21 0.14353475E+00 0.44194836E+03</pdfrwt>
<totfact> 0.20352030E+03</totfact>
</mgrwt>
</event>
<event>
 6    1  0.9598567E-004  0.4934393E+03  0.7818608E-02  0.1015506E+00
         21   -1    0    0  503  502  0.00000000000E+00  0.00000000000E+00  0.57385599857E+03  0.57385599857E+03  0.00000000000E+00 0.  1.
         21   -1    0    0  501  503 -0.00000000000E+00 -0.00000000000E+00 -0.62991381708E+03  0.62991381708E+03  0.00000000000E+00 0.  1.
    9000007    2    1    2  501    0 -0.81875182116E+02 -0.27708988691E+03 -0.37191599635E+03  0.61789547812E+03  0.39998870318E+03 0.  0.
    9000005    1    3    3    0    0 -0.77267000021E+02 -0.13999901221E+03 -0.43753400014E+03  0.46584000900E+03  0.99999687468E+00 0.  0.
          4    1    3    3  501    0 -0.46081820946E+01 -0.13709087470E+03  0.65618003793E+02  0.15205546912E+03  0.00000000000E+00 0.  1.
   -9000007    1    1    2    0  502  0.81875182116E+02  0.27708988691E+03  0.31585817784E+03  0.58587433753E+03  0.40000000000E+03 0. -1.
<mgrwt>
<rscale>  2 0.49343702E+03</rscale>
<asrwt>0</asrwt>
<pdfrwt beam="1">  1       21 0.88285539E-01 0.49343931E+03</pdfrwt>
<pdfrwt beam="2">  1       21 0.96909817E-01 0.49343931E+03</pdfrwt>
<totfact> 0.80764474E+02</totfact>
</mgrwt>
</event>
<event>
 6    1  0.9598567E-004  0.4459735E+03  0.7818608E-02  0.1028953E+00
         21   -1    0    0  503  502  0.00000000000E+00  0.00000000000E+00  0.38681019309E+03  0.38681019309E+03  0.00000000000E+00 0. -1.
         21   -1    0    0  501  503 -0.00000000000E+00 -0.00000000000E+00 -0.51595637540E+03  0.51595637540E+03  0.00000000000E+00 0. -1.
    9000007    2    1    2  501    0 -0.16342382172E+03  0.10912236393E+03 -0.35600590084E+02  0.44739220201E+03  0.40034653063E+03 0.  0.
    9000005    1    3    3    0    0 -0.21596751371E+03 -0.75337831624E+01  0.11901323618E+03  0.24670605029E+03  0.99999687468E+00 0.  0.
          4    1    3    3  501    0  0.52543691988E+02  0.11665614709E+03 -0.15461382627E+03  0.20068615172E+03  0.00000000000E+00 0.  1.
   -9000007    1    1    2    0  502  0.16342382172E+03 -0.10912236393E+03 -0.93545592232E+02  0.45537436647E+03  0.40000000000E+03 0. -1.
<mgrwt>
<rscale>  2 0.44589574E+03</rscale>
<asrwt>0</asrwt>
<pdfrwt beam="1">  1       21 0.59509261E-01 0.44597352E+03</pdfrwt>
<pdfrwt beam="2">  1       21 0.79377904E-01 0.44597352E+03</pdfrwt>
<totfact> 0.32237802E+03</totfact>
</mgrwt>
</event>
<event>
 6    1  0.9598567E-004  0.4058162E+03  0.7818608E-02  0.1041899E+00
         21   -1    0    0  503  502  0.00000000000E+00  0.00000000000E+00  0.38026072703E+03  0.38026072703E+03  0.00000000000E+00 0. -1.
         21   -1    0    0  501  503 -0.00000000000E+00 -0.00000000000E+00 -0.48207257358E+03  0.48207257358E+03  0.00000000000E+00 0. -1.
    9000007    2    1    2  501    0  0.15023773797E+02  0.58029003992E+02 -0.19042650011E+03  0.44827335819E+03  0.40136476258E+03 0.  0.
    9000005    1    3    3    0    0  0.44735574717E+02 -0.13242390469E+03 -0.21240058203E+03  0.25426830204E+03  0.99999687468E+00 0.  0.
          4    1    3    3  501    0 -0.29711800919E+02  0.19045290868E+03  0.21974081923E+02  0.19400505616E+03  0.00000000000E+00 0.  1.
   -9000007    1    1    2    0  502 -0.15023773797E+02 -0.58029003992E+02  0.88614653562E+02  0.41405994241E+03  0.40000000000E+03 0. -1.
<mgrwt>
<rscale>  2 0.40547830E+03</rscale>
<asrwt>0</asrwt>
<pdfrwt beam="1">  1       21 0.58501650E-01 0.40581616E+03</pdfrwt>
<pdfrwt beam="2">  1       21 0.74165012E-01 0.40581616E+03</pdfrwt>
<totfact> 0.39666104E+03</totfact>
</mgrwt>
</event>
<event>
 6    1  0.9598567E-004  0.4937771E+03  0.7818608E-02  0.1015417E+00
         21   -1    0    0  503  502  0.00000000000E+00  0.00000000000E+00  0.21879697480E+04  0.21879697480E+04  0.00000000000E+00 0.  1.
         21   -1    0    0  501  503 -0.00000000000E+00 -0.00000000000E+00 -0.11346780070E+03  0.11346780070E+03  0.00000000000E+00 0.  1.
    9000007    2    1    2  501    0  0.22911230859E+03 -0.17693753041E+03  0.88309415200E+03  0.10117663215E+04  0.40002058492E+03 0.  0.
    9000005    1    3    3    0    0 -0.84543989528E+02 -0.15841923188E+03  0.32328625428E+03  0.36980987196E+03  0.99999687468E+00 0.  0.
          4    1    3    3  501    0  0.31365629811E+03 -0.18518298528E+02  0.55980789773E+03  0.64195644952E+03  0.00000000000E+00 0.  1.
   -9000007    1    1    2    0  502 -0.22911230859E+03  0.17693753041E+03  0.11914077953E+04  0.12896712272E+04  0.40000000000E+03 0.  1.
<mgrwt>
<rscale>  2 0.49377291E+03</rscale>
<asrwt>0</asrwt>
<pdfrwt beam="1">  1       21 0.33661070E+00 0.49377708E+03</pdfrwt>
<pdfrwt beam="2">  1       21 0.17456586E-01 0.49377708E+03</pdfrwt>
<totfact> 0.47822783E+02</totfact>
</mgrwt>
</event>
<event>
 6    1  0.9598567E-004  0.4778794E+03  0.7818608E-02  0.1019780E+00
         21   -1    0    0  503  502  0.00000000000E+00  0.00000000000E+00  0.99806710841E+03  0.99806710841E+03  0.00000000000E+00 0. -1.
         21   -1    0    0  501  503 -0.00000000000E+00 -0.00000000000E+00 -0.31583157714E+03  0.31583157714E+03  0.00000000000E+00 0. -1.
    9000007    2    1    2  501    0  0.25979191622E+03 -0.60812065756E+01 -0.43260234397E+01  0.47789893124E+03  0.40104844245E+03 0.  0.
    9000005    1    3    3    0    0  0.11923012390E+02  0.89436354066E+02  0.14677596343E+03  0.17229394385E+03  0.99999687468E+00 0.  0.
          4    1    3    3  501    0  0.24786890383E+03 -0.95517560641E+02 -0.15110198687E+03  0.30560498739E+03  0.00000000000E+00 0.  1.
   -9000007    1    1    2    0  502 -0.25979191622E+03  0.60812065756E+01  0.68656155471E+03  0.83599975431E+03  0.40000000000E+03 0.  1.
<mgrwt>
<rscale>  2 0.47765931E+03</rscale>
<asrwt>0</asrwt>
<pdfrwt beam="1">  1       21 0.15354878E+00 0.47787935E+03</pdfrwt>
<pdfrwt beam="2">  1       21 0.48589474E-01 0.47787935E+03</pdfrwt>
<totfact> 0.94721188E+02</totfact>
</mgrwt>
</event>
<event>
 6    1  0.9598567E-004  0.4462257E+03  0.7818608E-02  0.1028911E+00
         21   -1    0    0  503  502  0.00000000000E+00  0.00000000000E+00  0.54454779704E+03  0.54454779704E+03  0.00000000000E+00 0.  1.
         21   -1    0    0  501  503 -0.00000000000E+00 -0.00000000000E+00 -0.41632189447E+03  0.41632189447E+03  0.00000000000E+00 0.  1.
    9000007    2    1    2  501    0 -0.14117944575E+03 -0.13851262018E+03 -0.10456332967E+03  0.45757235544E+03  0.39915108505E+03 0.  0.
    9000005    1    3    3    0    0 -0.13664035789E+02  0.64159242863E+02  0.11519371687E+03  0.13256585804E+03  0.99999687468E+00 0.  0.
          4    1    3    3  501    0 -0.12751540996E+03 -0.20267186304E+03 -0.21975704654E+03  0.32500649740E+03  0.00000000000E+00 0.  1.
   -9000007    1    1    2    0  502  0.14117944575E+03  0.13851262018E+03  0.23278923224E+03  0.50329733607E+03  0.40000000000E+03 0.  1.
<mgrwt>
<rscale>  2 0.44603538E+03</rscale>
<asrwt>0</asrwt>
<pdfrwt beam="1">  1       21 0.83776584E-01 0.44622571E+03</pdfrwt>
<pdfrwt beam="2">  1       21 0.64049522E-01 0.44622571E+03</pdfrwt>
<totfact> 0.24193289E+03</totfact>
</mgrwt>
</event>
<event>
 6    1  0.9598567E-004  0.5329480E+03  0.7818608E-02  0.1005526E+00
         21   -1    0    0  503  502  0.00000000000E+00  0.00000000000E+00  0.23832786918E+03  0.23832786918E+03  0.00000000000E+00 0. -1.
         21   -1    0    0  501  503 -0.00000000000E+00 -0.00000000000E+00 -0.18173302815E+04  0.18173302815E+04  0.00000000000E+00 0. -1.
    9000007    2    1    2  501    0  0.40900154797E+02 -0.34963750351E+03 -0.13926952991E+04  0.14911853463E+04  0.40014289233E+03 0.  0.
    9000005    1    3    3    0    0 -0.10396772373E+03 -0.23268677953E+03 -0.11856824759E+04  0.12127639336E+04  0.99999687468E+00 0.  0.
          4    1    3    3  501    0  0.14486787853E+03 -0.11695072398E+03 -0.20701282315E+03  0.27842141264E+03  0.00000000000E+00 0.  1.
   -9000007    1    1    2    0  502 -0.40900154797E+02  0.34963750351E+03 -0.18630711327E+03  0.56447280446E+03  0.40000000000E+03 0. -1.
<mgrwt>
<rscale>  2 0.53292115E+03</rscale>
<asrwt>0</asrwt>
<pdfrwt beam="1">  1       21 0.36665827E-01 0.53294797E+03</pdfrwt>
<pdfrwt beam="2">  1       21 0.27958927E+00 0.53294797E+03</pdfrwt>
<totfact> 0.24332037E+02</totfact>
</mgrwt>
</event>
<event>
 6    1  0.9598567E-004  0.4133014E+03  0.7818608E-02  0.1039283E+00
         21   -1    0    0  503  502  0.00000000000E+00  0.00000000000E+00  0.32641253512E+03  0.32641253512E+03  0.00000000000E+00 0. -1.
         21   -1    0    0  501  503 -0.00000000000E+00 -0.00000000000E+00 -0.58639092597E+03  0.58639092597E+03  0.00000000000E+00 0. -1.
    9000007    2    1    2  501    0 -0.91515025443E+02  0.49427289041E+02 -0.27991057921E+03  0.49902169624E+03  0.39981828895E+03 0.  0.
    9000005    1    3    3    0    0  0.57567142535E+02  0.17226520478E+03 -0.31500247080E+02  0.18434354406E+03  0.99999687468E+00 0.  0.
          4    1    3    3  501    0 -0.14908216798E+03 -0.12283791574E+03 -0.24841033213E+03  0.31467815218E+03  0.00000000000E+00 0.  1.
   -9000007    1    1    2    0  502  0.91515025443E+02 -0.49427289041E+02  0.19932188364E+02  0.41378176484E+03  0.40000000000E+03 0. -1.
<mgrwt>
<rscale>  2 0.41325744E+03</rscale>
<asrwt>0</asrwt>
<pdfrwt beam="1">  1       21 0.50217314E-01 0.41330141E+03</pdfrwt>
<pdfrwt beam="2">  1       21 0.90213987E-01 0.41330141E+03</pdfrwt>
<totfact> 0.34888817E+03</totfact>
</mgrwt>
</event>
<event>
 6    1  0.9598567E-004  0.4121305E+03  0.7818608E-02  0.1039739E+00
         21   -1    0    0  503  502  0.00000000000E+00  0.00000000000E+00  0.46474419538E+03  0.46474419538E+03  0.00000000000E+00 0. -1.
         21   -1    0    0  501  503 -0.00000000000E+00 -0.00000000000E+00 -0.48147292720E+03  0.48147292720E+03  0.00000000000E+00 0. -1.
    9000007    2    1    2  501    0  0.88057751298E+02  0.36089105000E+02 -0.24144870450E+03  0.47764945705E+03  0.40099243865E+03 0.  0.
    9000005    1    3    3    0    0  0.86335492753E+02 -0.10727199133E+03 -0.29423962214E+03  0.32486774642E+03  0.99999687468E+00 0.  0.
          4    1    3    3  501    0  0.17222585454E+01  0.14336109633E+03  0.52790917646E+02  0.15278171063E+03  0.00000000000E+00 0.  1.
   -9000007    1    1    2    0  502 -0.88057751298E+02 -0.36089105000E+02  0.22471997268E+03  0.46856766553E+03  0.40000000000E+03 0. -1.
<mgrwt>
<rscale>  2 0.41188887E+03</rscale>
<asrwt>0</asrwt>
<pdfrwt beam="1">  1       21 0.71499107E-01 0.41213047E+03</pdfrwt>
<pdfrwt beam="2">  1       21 0.74072758E-01 0.41213047E+03</pdfrwt>
<totfact> 0.25439011E+03</totfact>
</mgrwt>
</event>
<event>
 6    1  0.9598567E-004  0.4539367E+03  0.7818608E-02  0.1026588E+00
         21   -1    0    0  503  502  0.00000000000E+00  0.00000000000E+00  0.17118753390E+03  0.17118753390E+03  0.00000000000E+00 0. -1.
         21   -1    0    0  501  503 -0.00000000000E+00 -0.00000000000E+00 -0.13595592509E+04  0.13595592509E+04  0.00000000000E+00 0. -1.
    9000007    2    1    2  501    0  0.25524161908E+02  0.21213259797E+03 -0.85457478033E+03  0.96765521421E+03  0.40050822270E+03 0.  0.
    9000005    1    3    3    0    0  0.44843436524E+02  0.31267834079E+03 -0.77836996207E+03  0.84002349755E+03  0.99999687468E+00 0.  0.
          4    1    3    3  501    0 -0.19319274616E+02 -0.10054574282E+03 -0.76204818260E+02  0.12763171665E+03  0.00000000000E+00 0.  1.
   -9000007    1    1    2    0  502 -0.25524161908E+02 -0.21213259797E+03 -0.33379693671E+03  0.56309157063E+03  0.40000000000E+03 0. -1.
<mgrwt>
<rscale>  2 0.45382461E+03</rscale>
<asrwt>0</asrwt>
<pdfrwt beam="1">  1       21 0.26336545E-01 0.45393673E+03</pdfrwt>
<pdfrwt beam="2">  1       21 0.20916295E+00 0.45393673E+03</pdfrwt>
<totfact> 0.13453499E+03</totfact>
</mgrwt>
</event>
<event>
 6    1  0.9598567E-004  0.4188323E+03  0.7818608E-02  0.1037456E+00
         21   -1    0    0  503  502  0.00000000000E+00  0.00000000000E+00  0.24216349754E+03  0.24216349754E+03  0.00000000000E+00 0.  1.
         21   -1    0    0  501  503 -0.00000000000E+00 -0.00000000000E+00 -0.76077879633E+03  0.76077879633E+03  0.00000000000E+00 0.  1.
    9000007    2    1    2  501    0 -0.16972481559E+02 -0.12301395744E+03 -0.14932497410E+03  0.44455547206E+03  0.39988888581E+03 0.  0.
    9000005    1    3    3    0    0 -0.22954040742E+01 -0.19036491771E+03  0.78948225094E+02  0.20610165699E+03  0.99999687468E+00 0.  0.
          4    1    3    3  501    0 -0.14677077485E+02  0.67350960270E+02 -0.22827319920E+03  0.23845381507E+03  0.00000000000E+00 0.  1.
   -9000007    1    1    2    0  502  0.16972481559E+02  0.12301395744E+03 -0.36929032469E+03  0.55838682180E+03  0.40000000000E+03 0. -1.
<mgrwt>
<rscale>  2 0.41880577E+03</rscale>
<asrwt>0</asrwt>
<pdfrwt beam="1">  1       21 0.37255924E-01 0.41883230E+03</pdfrwt>
<pdfrwt beam="2">  1       21 0.11704289E+00 0.41883230E+03</pdfrwt>
<totfact> 0.34335433E+03</totfact>
</mgrwt>
</event>
<event>
 6    1  0.9598567E-004  0.4983093E+03  0.7818608E-02  0.1014232E+00
         21   -1    0    0  503  502  0.00000000000E+00  0.00000000000E+00  0.17082831995E+04  0.17082831995E+04  0.00000000000E+00 0. -1.
         21   -1    0    0  501  503 -0.00000000000E+00 -0.00000000000E+00 -0.19366346950E+03  0.19366346950E+03  0.00000000000E+00 0.  1.
    9000007    2    1    2  501    0 -0.17249924228E+03  0.24198374807E+03  0.28202612273E+03  0.57243581022E+03  0.39978981978E+03 0.  0.
    9000005    1    3    3    0    0 -0.12580711231E+03  0.35239535537E+03  0.24385177697E+03  0.44662579988E+03  0.99999687468E+00 0.  0.
          4    1    3    3  501    0 -0.46692129971E+02 -0.11041160730E+03  0.38174345762E+02  0.12581001034E+03  0.00000000000E+00 0.  1.
   -9000007    1    1    2    0  502  0.17249924228E+03 -0.24198374807E+03  0.12325936072E+04  0.13295108587E+04  0.40000000000E+03 0. -1.
<mgrwt>
<rscale>  2 0.49826708E+03</rscale>
<asrwt>0</asrwt>
<pdfrwt beam="1">  1       21 0.26281279E+00 0.49830926E+03</pdfrwt>
<pdfrwt beam="2">  1       21 0.29794381E-01 0.49830926E+03</pdfrwt>
<totfact> 0.47556015E+02</totfact>
</mgrwt>
</event>
<event>
 6    1  0.9598567E-004  0.4295024E+03  0.7818608E-02  0.1034018E+00
         21   -1    0    0  503  502  0.00000000000E+00  0.00000000000E+00  0.32354772536E+03  0.32354772536E+03  0.00000000000E+00 0.  1.
         21   -1    0    0  501  503 -0.00000000000E+00 -0.00000000000E+00 -0.14668395368E+04  0.14668395368E+04  0.00000000000E+00 0.  1.
    9000007    2    1    2  501    0 -0.14647708348E+03 -0.54848552405E+02 -0.12715689070E+04  0.13421474681E+04  0.40001055163E+03 0.  0.
    9000005    1    3    3    0    0 -0.17739043062E+03 -0.34730637246E+02 -0.19860157888E+03  0.26854640040E+03  0.99999687468E+00 0.  0.
          4    1    3    3  501    0  0.30913347137E+02 -0.20117915159E+02 -0.10729673281E+04  0.10736010677E+04  0.00000000000E+00 0.  1.
   -9000007    1    1    2    0  502  0.14647708348E+03  0.54848552405E+02  0.12827709554E+03  0.44823979400E+03  0.40000000000E+03 0.  1.
<mgrwt>
<rscale>  2 0.42949998E+03</rscale>
<asrwt>0</asrwt>
<pdfrwt beam="1">  1       21 0.49776574E-01 0.42950243E+03</pdfrwt>
<pdfrwt beam="2">  1       21 0.22566762E+00 0.42950243E+03</pdfrwt>
<totfact> 0.29208727E+02</totfact>
</mgrwt>
</event>
<event>
 6    1  0.9598567E-004  0.4470834E+03  0.7818608E-02  0.1028599E+00
         21   -1    0    0  503  502  0.00000000000E+00  0.00000000000E+00  0.15415960254E+03  0.15415960254E+03  0.00000000000E+00 0.  1.
         21   -1    0    0  501  503 -0.00000000000E+00 -0.00000000000E+00 -0.20916790870E+04  0.20916790870E+04  0.00000000000E+00 0. -1.
    9000007    2    1    2  501    0 -0.18598184746E+03 -0.72505344045E+02 -0.16611587257E+04  0.17202708618E+04  0.40004656450E+03 0.  0.
    9000005    1    3    3    0    0  0.25678492797E+01  0.10611984685E+03 -0.10613255514E+04  0.10666212738E+04  0.99999687468E+00 0.  0.
          4    1    3    3  501    0 -0.18854969674E+03 -0.17862519089E+03 -0.59983317425E+03  0.65364958800E+03  0.00000000000E+00 0.  1.
   -9000007    1    1    2    0  502  0.18598184746E+03  0.72505344045E+02 -0.27636075879E+03  0.52556782768E+03  0.40000000000E+03 0.  1.
<mgrwt>
<rscale>  2 0.44707294E+03</rscale>
<asrwt>0</asrwt>
<pdfrwt beam="1">  1       21 0.23716862E-01 0.44708335E+03</pdfrwt>
<pdfrwt beam="2">  1       21 0.32179678E+00 0.44708335E+03</pdfrwt>
<totfact> 0.33680309E+02</totfact>
</mgrwt>
</event>
<event>
 6    1  0.9598567E-004  0.4060340E+03  0.7818608E-02  0.1042724E+00
         21   -1    0    0  503  502  0.00000000000E+00  0.00000000000E+00  0.44883805691E+03  0.44883805691E+03  0.00000000000E+00 0. -1.
         21   -1    0    0  501  503 -0.00000000000E+00 -0.00000000000E+00 -0.89607289318E+03  0.89607289318E+03  0.00000000000E+00 0.  1.
    9000007    2    1    2  501    0  0.64108514300E+02  0.27453184842E+02 -0.74397939446E+03  0.84199852056E+03  0.38806261128E+03 0.  0.
    9000005    1    3    3    0    0  0.40475957368E+02 -0.16428166859E+03 -0.18561445735E+03  0.25115830970E+03  0.99999687468E+00 0.  0.
          4    1    3    3  501    0  0.23632556932E+02  0.19173485344E+03 -0.55836493712E+03  0.59084021086E+03  0.00000000000E+00 0.  1.
   -9000007    1    1    2    0  502 -0.64108514300E+02 -0.27453184842E+02  0.29674455819E+03  0.50291242953E+03  0.40000000000E+03 0. -1.
<mgrwt>
<rscale>  2 0.40306285E+03</rscale>
<asrwt>0</asrwt>
<pdfrwt beam="1">  1       21 0.69052009E-01 0.40603396E+03</pdfrwt>
<pdfrwt beam="2">  1       21 0.13785737E+00 0.40603396E+03</pdfrwt>
<totfact> 0.60803455E+02</totfact>
</mgrwt>
</event>
<event>
 6    1  0.9598567E-004  0.4721440E+03  0.7818608E-02  0.1021318E+00
         21   -1    0    0  503  502  0.00000000000E+00  0.00000000000E+00  0.12687536076E+04  0.12687536076E+04  0.00000000000E+00 0. -1.
         21   -1    0    0  501  503 -0.00000000000E+00 -0.00000000000E+00 -0.23270259448E+03  0.23270259448E+03  0.00000000000E+00 0.  1.
    9000007    2    1    2  501    0 -0.25074849100E+03 -0.56749698466E+01  0.14645413215E+03  0.49433673467E+03  0.40001622892E+03 0.  0.
    9000005    1    3    3    0    0 -0.22530990511E+03  0.15580726791E+03  0.17956445627E+03  0.32754366430E+03  0.99999687468E+00 0.  0.
          4    1    3    3  501    0 -0.25438585883E+02 -0.16148223775E+03 -0.33110324115E+02  0.16679307037E+03  0.00000000000E+00 0.  1.
   -9000007    1    1    2    0  502  0.25074849100E+03  0.56749698466E+01  0.88959688098E+03  0.10071194674E+04  0.40000000000E+03 0. -1.
<mgrwt>
<rscale>  2 0.47214060E+03</rscale>
<asrwt>0</asrwt>
<pdfrwt beam="1">  1       21 0.19519286E+00 0.47214404E+03</pdfrwt>
<pdfrwt beam="2">  1       21 0.35800400E-01 0.47214404E+03</pdfrwt>
<totfact> 0.89597197E+02</totfact>
</mgrwt>
</event>
<event>
 6    1  0.9598567E-004  0.4028024E+03  0.7818608E-02  0.1043043E+00
         21   -1    0    0  503  502  0.00000000000E+00  0.00000000000E+00  0.59732389145E+03  0.59732389145E+03  0.00000000000E+00 0.  1.
         21   -1    0    0  501  503 -0.00000000000E+00 -0.00000000000E+00 -0.10929893835E+04  0.10929893835E+04  0.00000000000E+00 0.  1.
    9000007    2    1    2  501    0 -0.18644049566E+02  0.43614108019E+02 -0.98107785047E+03  0.10595399806E+04  0.39731779585E+03 0.  0.
    9000005    1    3    3    0    0 -0.17696390672E+03  0.45807374933E+02 -0.23973427361E+03  0.30147646976E+03  0.99999687468E+00 0.  0.
          4    1    3    3  501    0  0.15831985715E+03 -0.21932669140E+01 -0.74134357686E+03  0.75806351089E+03  0.00000000000E+00 0.  1.
   -9000007    1    1    2    0  502  0.18644049566E+02 -0.43614108019E+02  0.48541235847E+03  0.63077329426E+03  0.40000000000E+03 0.  1.
<mgrwt>
<rscale>  2 0.40213491E+03</rscale>
<asrwt>0</asrwt>
<pdfrwt beam="1">  1       21 0.91895984E-01 0.40280242E+03</pdfrwt>
<pdfrwt beam="2">  1       21 0.16815221E+00 0.40280242E+03</pdfrwt>
<totfact> 0.18345554E+02</totfact>
</mgrwt>
</event>
<event>
 6    1  0.9598567E-004  0.4995255E+03  0.7818608E-02  0.1013917E+00
         21   -1    0    0  503  502  0.00000000000E+00  0.00000000000E+00  0.12234394965E+04  0.12234394965E+04  0.00000000000E+00 0.  1.
         21   -1    0    0  501  503 -0.00000000000E+00 -0.00000000000E+00 -0.27441256044E+03  0.27441256044E+03  0.00000000000E+00 0. -1.
    9000007    2    1    2  501    0  0.13662904651E+03  0.26579717560E+03  0.94864204634E+02  0.50845344836E+03  0.40026248504E+03 0.  0.
    9000005    1    3    3    0    0 -0.48784053731E+02  0.40901968153E+02 -0.12705450362E+03  0.14211510046E+03  0.99999687468E+00 0.  0.
          4    1    3    3  501    0  0.18541310024E+03  0.22489520744E+03  0.22191870825E+03  0.36633834790E+03  0.00000000000E+00 0.  1.
   -9000007    1    1    2    0  502 -0.13662904651E+03 -0.26579717560E+03  0.85416273139E+03  0.98939860855E+03  0.40000000000E+03 0.  1.
<mgrwt>
<rscale>  2 0.49947288E+03</rscale>
<asrwt>0</asrwt>
<pdfrwt beam="1">  1       21 0.18822146E+00 0.49952547E+03</pdfrwt>
<pdfrwt beam="2">  1       21 0.42217317E-01 0.49952547E+03</pdfrwt>
<totfact> 0.70408124E+02</totfact>
</mgrwt>
</event>
<event>
 6    1  0.9598567E-004  0.5329914E+03  0.7818608E-02  0.1005552E+00
         21   -1    0    0  503  502  0.00000000000E+00  0.00000000000E+00  0.54455235438E+03  0.54455235438E+03  0.00000000000E+00 0. -1.
         21   -1    0    0  501  503 -0.00000000000E+00 -0.00000000000E+00 -0.73385676554E+03  0.73385676554E+03  0.00000000000E+00 0. -1.
    9000007    2    1    2  501    0  0.37536977177E+02  0.35024392483E+03 -0.43887237188E+03  0.68988214641E+03  0.39905962661E+03 0.  0.
    9000005    1    3    3    0    0  0.15714386715E+03  0.31001776971E+03 -0.15766738593E+03  0.38166112862E+03  0.99999687468E+00 0.  0.
          4    1    3    3  501    0 -0.11960688997E+03  0.40226155124E+02 -0.28120498595E+03  0.30822101779E+03  0.00000000000E+00 0.  1.
   -9000007    1    1    2    0  502 -0.37536977177E+02 -0.35024392483E+03  0.24956796071E+03  0.58852697351E+03  0.40000000000E+03 0. -1.
<mgrwt>
<rscale>  2 0.53281497E+03</rscale>
<asrwt>0</asrwt>
<pdfrwt beam="1">  1       21 0.83777285E-01 0.53299140E+03</pdfrwt>
<pdfrwt beam="2">  1       21 0.11290104E+00 0.53299140E+03</pdfrwt>
<totfact> 0.61793716E+02</totfact>
</mgrwt>
</event>
<event>
 6    1  0.9598567E-004  0.4346668E+03  0.7818608E-02  0.1032427E+00
         21   -1    0    0  503  502  0.00000000000E+00  0.00000000000E+00  0.87341255978E+03  0.87341255978E+03  0.00000000000E+00 0. -1.
         21   -1    0    0  501  503 -0.00000000000E+00 -0.00000000000E+00 -0.25140771153E+03  0.25140771153E+03  0.00000000000E+00 0.  1.
    9000007    2    1    2  501    0  0.68177585382E+02  0.15471590906E+03  0.10041507656E+03  0.44611482297E+03  0.40043732595E+03 0.  0.
    9000005    1    3    3    0    0  0.29311602815E+01  0.12968173825E+03  0.24964314480E+03  0.28133368920E+03  0.99999687468E+00 0.  0.
          4    1    3    3  501    0  0.65246425100E+02  0.25034170810E+02 -0.14922806825E+03  0.16478113378E+03  0.00000000000E+00 0.  1.
   -9000007    1    1    2    0  502 -0.68177585382E+02 -0.15471590906E+03  0.52158977170E+03  0.67870544834E+03  0.40000000000E+03 0. -1.
<mgrwt>
<rscale>  2 0.43456608E+03</rscale>
<asrwt>0</asrwt>
<pdfrwt beam="1">  1       21 0.13437116E+00 0.43466682E+03</pdfrwt>
<pdfrwt beam="2">  1       21 0.38678110E-01 0.43466682E+03</pdfrwt>
<totfact> 0.22176334E+03</totfact>
</mgrwt>
</event>
<event>
 6    1  0.9598567E-004  0.4412343E+03  0.7818608E-02  0.1030380E+00
         21   -1    0    0  503  502  0.00000000000E+00  0.00000000000E+00  0.12212975066E+04  0.12212975066E+04  0.00000000000E+00 0. -1.
         21   -1    0    0  501  503 -0.00000000000E+00 -0.00000000000E+00 -0.17661974442E+03  0.17661974442E+03  0.00000000000E+00 0.  1.
    9000007    2    1    2  501    0 -0.12964773698E+03 -0.13322820695E+03  0.74093149733E+03  0.86236138631E+03  0.40016169985E+03 0.  0.
    9000005    1    3    3    0    0 -0.15019669305E+03  0.24845540105E+02  0.61021159795E+02  0.16401502798E+03  0.99999687468E+00 0.  0.
          4    1    3    3  501    0  0.20548956074E+02 -0.15807374706E+03  0.67991033754E+03  0.69834635833E+03  0.00000000000E+00 0.  1.
   -9000007    1    1    2    0  502  0.12964773698E+03  0.13322820695E+03  0.30374626488E+03  0.53555586474E+03  0.40000000000E+03 0.  1.
<mgrwt>
<rscale>  2 0.44119760E+03</rscale>
<asrwt>0</asrwt>
<pdfrwt beam="1">  1       21 0.18789192E+00 0.44123427E+03</pdfrwt>
<pdfrwt beam="2">  1       21 0.27172269E-01 0.44123427E+03</pdfrwt>
<totfact> 0.17664655E+03</totfact>
</mgrwt>
</event>
<event>
 6    1  0.9598567E-004  0.4216998E+03  0.7818608E-02  0.1036544E+00
         21   -1    0    0  503  502  0.00000000000E+00  0.00000000000E+00  0.21029666412E+03  0.21029666412E+03  0.00000000000E+00 0. -1.
         21   -1    0    0  501  503 -0.00000000000E+00 -0.00000000000E+00 -0.95826557222E+03  0.95826557222E+03  0.00000000000E+00 0. -1.
    9000007    2    1    2  501    0 -0.13189591374E+03 -0.11391324895E+02 -0.57509527591E+03  0.71313761355E+03  0.40038030063E+03 0.  0.
    9000005    1    3    3    0    0 -0.11122209790E+03 -0.19568958148E+03 -0.23275010136E+03  0.32378754923E+03  0.99999687468E+00 0.  0.
          4    1    3    3  501    0 -0.20673815840E+02  0.18429825658E+03 -0.34234517455E+03  0.38935006431E+03  0.00000000000E+00 0.  1.
   -9000007    1    1    2    0  502  0.13189591374E+03  0.11391324895E+02 -0.17287363218E+03  0.45542462280E+03  0.40000000000E+03 0. -1.
<mgrwt>
<rscale>  2 0.42160946E+03</rscale>
<asrwt>0</asrwt>
<pdfrwt beam="1">  1       21 0.32353333E-01 0.42169975E+03</pdfrwt>
<pdfrwt beam="2">  1       21 0.14742547E+00 0.42169975E+03</pdfrwt>
<totfact> 0.25008793E+03</totfact>
</mgrwt>
</event>
<event>
 6    1  0.9598567E-004  0.4801272E+03  0.7818608E-02  0.1019163E+00
         21   -1    0    0  503  502  0.00000000000E+00  0.00000000000E+00  0.20590741586E+04  0.20590741586E+04  0.00000000000E+00 0.  1.
         21   -1    0    0  501  503 -0.00000000000E+00 -0.00000000000E+00 -0.11181250275E+03  0.11181250275E+03  0.00000000000E+00 0. -1.
    9000007    2    1    2  501    0 -0.10078793743E+03 -0.24389171030E+03  0.10021472507E+04  0.11112251052E+04  0.40109942377E+03 0.  0.
    9000005    1    3    3    0    0 -0.18185431224E+03 -0.30573267961E+03  0.89603402824E+03  0.96406506109E+03  0.99999687468E+00 0.  0.
          4    1    3    3  501    0  0.81066374812E+02  0.61840969311E+02  0.10611322242E+03  0.14716004411E+03  0.00000000000E+00 0.  1.
   -9000007    1    1    2    0  502  0.10078793743E+03  0.24389171030E+03  0.94511440515E+03  0.10596615561E+04  0.40000000000E+03 0. -1.
<mgrwt>
<rscale>  2 0.47989751E+03</rscale>
<asrwt>0</asrwt>
<pdfrwt beam="1">  1       21 0.31678061E+00 0.48012719E+03</pdfrwt>
<pdfrwt beam="2">  1       21 0.17201925E-01 0.48012719E+03</pdfrwt>
<totfact> 0.65367827E+02</totfact>
</mgrwt>
</event>
<event>
 6    1  0.9598567E-004  0.6170204E+03  0.7818608E-02  0.9870807E-01
         21   -1    0    0  503  502  0.00000000000E+00  0.00000000000E+00  0.99915630228E+03  0.99915630228E+03  0.00000000000E+00 0.  1.
         21   -1    0    0  501  503 -0.00000000000E+00 -0.00000000000E+00 -0.56041541549E+03  0.56041541549E+03  0.00000000000E+00 0.  1.
    9000007    2    1    2  501    0  0.36677608503E+03  0.29317353497E+03 -0.22192413329E+03  0.65571681409E+03  0.40029839019E+03 0.  0.
    9000005    1    3    3    0    0  0.18127527807E+03 -0.50209523292E+02  0.31004680911E+02  0.19064105775E+03  0.99999687468E+00 0.  0.
          4    1    3    3  501    0  0.18550080696E+03  0.34338305826E+03 -0.25292881420E+03  0.46507575634E+03  0.00000000000E+00 0.  1.
   -9000007    1    1    2    0  502 -0.36677608503E+03 -0.29317353497E+03  0.66066502007E+03  0.90385490368E+03  0.40000000000E+03 0.  1.
<mgrwt>
<rscale>  2 0.61697205E+03</rscale>
<asrwt>0</asrwt>
<pdfrwt beam="1">  1       21 0.15371635E+00 0.61702044E+03</pdfrwt>
<pdfrwt beam="2">  1       21 0.86217756E-01 0.61702044E+03</pdfrwt>
<totfact> 0.24883536E+02</totfact>
</mgrwt>
</event>
<event>
 6    1  0.9598567E-004  0.4250799E+03  0.7818608E-02  0.1035555E+00
         21   -1    0    0  503  502  0.00000000000E+00  0.00000000000E+00  0.42579502261E+03  0.42579502261E+03  0.00000000000E+00 0.  1.
         21   -1    0    0  501  503 -0.00000000000E+00 -0.00000000000E+00 -0.42334181129E+03  0.42334181129E+03  0.00000000000E+00 0.  1.
    9000007    2    1    2  501    0  0.13186745452E+03  0.44012920580E+02  0.16975146108E+02  0.42541870905E+03  0.40170481661E+03 0.  0.
    9000005    1    3    3    0    0  0.15157349662E+03 -0.13433932701E+03 -0.84289046553E+02  0.21937917636E+03  0.99999687468E+00 0.  0.
          4    1    3    3  501    0 -0.19706042097E+02  0.17835224759E+03  0.10126419266E+03  0.20603953269E+03  0.00000000000E+00 0.  1.
   -9000007    1    1    2    0  502 -0.13186745452E+03 -0.44012920580E+02 -0.14521934785E+02  0.42371812485E+03  0.40000000000E+03 0.  1.
<mgrwt>
<rscale>  2 0.42467665E+03</rscale>
<asrwt>0</asrwt>
<pdfrwt beam="1">  1       21 0.65506926E-01 0.42507990E+03</pdfrwt>
<pdfrwt beam="2">  1       21 0.65129510E-01 0.42507990E+03</pdfrwt>
<totfact> 0.41112225E+03</totfact>
</mgrwt>
</event>
<event>
 6    1  0.9598567E-004  0.4108161E+03  0.7818608E-02  0.1040115E+00
         21   -1    0    0  503  502  0.00000000000E+00  0.00000000000E+00  0.13125793627E+04  0.13125793627E+04  0.00000000000E+00 0.  1.
         21   -1    0    0  501  503 -0.00000000000E+00 -0.00000000000E+00 -0.16468056811E+03  0.16468056811E+03  0.00000000000E+00 0.  1.
    9000007    2    1    2  501    0 -0.72933049232E+02  0.58742025887E+02  0.22768459167E+03  0.46950796006E+03  0.39978443692E+03 0.  0.
    9000005    1    3    3    0    0  0.10617290616E+03  0.16780038692E+03  0.85768281237E+02  0.21630269049E+03  0.99999687468E+00 0.  0.
          4    1    3    3  501    0 -0.17910595540E+03 -0.10905836103E+03  0.14191631043E+03  0.25320526957E+03  0.00000000000E+00 0.  1.
   -9000007    1    1    2    0  502  0.72933049232E+02 -0.58742025887E+02  0.92021420289E+03  0.10077519707E+04  0.40000000000E+03 0. -1.
<mgrwt>
<rscale>  2 0.41076360E+03</rscale>
<asrwt>0</asrwt>
<pdfrwt beam="1">  1       21 0.20193528E+00 0.41081608E+03</pdfrwt>
<pdfrwt beam="2">  1       21 0.25335473E-01 0.41081608E+03</pdfrwt>
<totfact> 0.16511338E+03</totfact>
</mgrwt>
</event>
<event>
 6    1  0.9598567E-004  0.5208222E+03  0.7818608E-02  0.1008496E+00
         21   -1    0    0  503  502  0.00000000000E+00  0.00000000000E+00  0.11400277867E+04  0.11400277867E+04  0.00000000000E+00 0.  1.
         21   -1    0    0  501  503 -0.00000000000E+00 -0.00000000000E+00 -0.24191927366E+03  0.24191927366E+03  0.00000000000E+00 0.  1.
    9000007    2    1    2  501    0  0.30425145487E+03  0.13669978796E+03  0.35922534811E+03  0.63251337732E+03  0.39971807808E+03 0.  0.
    9000005    1    3    3    0    0  0.78924833370E+02  0.25103773879E+03  0.14046560897E+03  0.29829626702E+03  0.99999687468E+00 0.  0.
          4    1    3    3  501    0  0.22532662150E+03 -0.11433795082E+03  0.21875973913E+03  0.33421711031E+03  0.00000000000E+00 0.  1.
   -9000007    1    1    2    0  502 -0.30425145487E+03 -0.13669978796E+03  0.53888316492E+03  0.74943368303E+03  0.40000000000E+03 0. -1.
<mgrwt>
<rscale>  2 0.52076808E+03</rscale>
<asrwt>0</asrwt>
<pdfrwt beam="1">  1       21 0.17538889E+00 0.52082222E+03</pdfrwt>
<pdfrwt beam="2">  1       21 0.37218350E-01 0.52082222E+03</pdfrwt>
<totfact> 0.11151892E+03</totfact>
</mgrwt>
</event>
<event>
 6    1  0.9598567E-004  0.9949630E+03  0.7818608E-02  0.9314120E-01
         21   -1    0    0  503  502  0.00000000000E+00  0.00000000000E+00  0.96291918649E+03  0.96291918649E+03  0.00000000000E+00 0. -1.
         21   -1    0    0  501  503 -0.00000000000E+00 -0.00000000000E+00 -0.16217847317E+04  0.16217847317E+04  0.00000000000E+00 0.  1.
    9000007    2    1    2  501    0  0.46104345936E+03  0.78558737924E+03 -0.11114659113E+04  0.14917466028E+04  0.40030345127E+03 0.  0.
    9000005    1    3    3    0    0  0.45777303568E+03  0.47098326208E+03 -0.59086817013E+03  0.88346340039E+03  0.99999687468E+00 0.  0.
          4    1    3    3  501    0  0.32704236826E+01  0.31460411716E+03 -0.52059774121E+03  0.60828320243E+03  0.00000000000E+00 0.  1.
   -9000007    1    1    2    0  502 -0.46104345936E+03 -0.78558737924E+03  0.45260036612E+03  0.10929573154E+04  0.40000000000E+03 0.  1.
<mgrwt>
<rscale>  2 0.99493253E+03</rscale>
<asrwt>0</asrwt>
<pdfrwt beam="1">  1       21 0.14814141E+00 0.99496304E+03</pdfrwt>
<pdfrwt beam="2">  1       21 0.24950534E+00 0.99496304E+03</pdfrwt>
<totfact> 0.12106326E+01</totfact>
</mgrwt>
</event>
<event>
 6    1  0.9598567E-004  0.4613011E+03  0.7818608E-02  0.1024434E+00
         21   -1    0    0  503  502  0.00000000000E+00  0.00000000000E+00  0.51552849709E+03  0.51552849709E+03  0.00000000000E+00 0. -1.
         21   -1    0    0  501  503 -0.00000000000E+00 -0.00000000000E+00 -0.46419355380E+03  0.46419355380E+03  0.00000000000E+00 0.  1.
    9000007    2    1    2  501    0  0.14515377260E+03  0.17708603075E+03  0.18927636900E+03  0.49862235550E+03  0.40046177041E+03 0.  0.
    9000005    1    3    3    0    0 -0.10397992970E+02  0.52968865727E+02  0.27622766406E+03  0.28145433268E+03  0.99999687468E+00 0.  0.
          4    1    3    3  501    0  0.15555176557E+03  0.12411716502E+03 -0.86951295066E+02  0.21716802282E+03  0.00000000000E+00 0.  1.
   -9000007    1    1    2    0  502 -0.14515377260E+03 -0.17708603075E+03 -0.13794142570E+03  0.48109969540E+03  0.40000000000E+03 0.  1.
<mgrwt>
<rscale>  2 0.46120087E+03</rscale>
<asrwt>0</asrwt>
<pdfrwt beam="1">  1       21 0.79312077E-01 0.46130111E+03</pdfrwt>
<pdfrwt beam="2">  1       21 0.71414393E-01 0.46130111E+03</pdfrwt>
<totfact> 0.21411918E+03</totfact>
</mgrwt>
</event>
<event>
 6    1  0.9598567E-004  0.4338356E+03  0.7818608E-02  0.1032741E+00
         21   -1    0    0  503  502  0.00000000000E+00  0.00000000000E+00  0.12238758030E+04  0.12238758030E+04  0.00000000000E+00 0.  1.
         21   -1    0    0  501  503 -0.00000000000E+00 -0.00000000000E+00 -0.20880388550E+03  0.20880388550E+03  0.00000000000E+00 0.  1.
    9000007    2    1    2  501    0  0.16739625199E+03 -0.13850405081E+02  0.13805578790E+03  0.45422650594E+03  0.39880945227E+03 0.  0.
    9000005    1    3    3    0    0  0.71208409116E+02  0.17039258822E+03  0.16115769874E+03  0.24510625350E+03  0.99999687468E+00 0.  0.
          4    1    3    3  501    0  0.96187842871E+02 -0.18424299330E+03 -0.23101910837E+02  0.20912025244E+03  0.00000000000E+00 0.  1.
   -9000007    1    1    2    0  502 -0.16739625199E+03  0.13850405081E+02  0.87701612955E+03  0.97845318252E+03  0.40000000000E+03 0.  1.
<mgrwt>
<rscale>  2 0.43356099E+03</rscale>
<asrwt>0</asrwt>
<pdfrwt beam="1">  1       21 0.18828858E+00 0.43383561E+03</pdfrwt>
<pdfrwt beam="2">  1       21 0.32123675E-01 0.43383561E+03</pdfrwt>
<totfact> 0.12638230E+03</totfact>
</mgrwt>
</event>
<event>
 6    1  0.9598567E-004  0.4006783E+03  0.7818608E-02  0.1043697E+00
         21   -1    0    0  503  502  0.00000000000E+00  0.00000000000E+00  0.43981630325E+03  0.43981630325E+03  0.00000000000E+00 0.  1.
         21   -1    0    0  501  503 -0.00000000000E+00 -0.00000000000E+00 -0.51819419154E+03  0.51819419154E+03  0.00000000000E+00 0.  1.
    9000007    2    1    2  501    0  0.20590582222E+02 -0.10916314106E+02 -0.30090844983E+03  0.49968420402E+03  0.39824021718E+03 0.  0.
    9000005    1    3    3    0    0 -0.60829201936E+01  0.14052946376E+03  0.21672864367E+02  0.14232443623E+03  0.99999687468E+00 0.  0.
          4    1    3    3  501    0  0.26673502416E+02 -0.15144577787E+03 -0.32258131420E+03  0.35735976779E+03  0.00000000000E+00 0.  1.
   -9000007    1    1    2    0  502 -0.20590582222E+02  0.10916314106E+02  0.22253056154E+03  0.45832629077E+03  0.40000000000E+03 0.  1.
<mgrwt>
<rscale>  2 0.40023843E+03</rscale>
<asrwt>0</asrwt>
<pdfrwt beam="1">  1       21 0.67664047E-01 0.40067835E+03</pdfrwt>
<pdfrwt beam="2">  1       21 0.79722183E-01 0.40067835E+03</pdfrwt>
<totfact> 0.24449810E+03</totfact>
</mgrwt>
</event>
<event>
 6    1  0.9598567E-004  0.5852679E+03  0.7818608E-02  0.9936934E-01
         21   -1    0    0  503  502  0.00000000000E+00  0.00000000000E+00  0.35401962205E+03  0.35401962205E+03  0.00000000000E+00 0. -1.
         21   -1    0    0  501  503 -0.00000000000E+00 -0.00000000000E+00 -0.10216153465E+04  0.10216153465E+04  0.00000000000E+00 0. -1.
    9000007    2    1    2  501    0  0.18366394691E+03 -0.38575387501E+03 -0.49392270361E+03  0.76514269532E+03  0.39867933178E+03 0.  0.
    9000005    1    3    3    0    0  0.10213316864E+03 -0.32170190602E+03 -0.55146866539E+03  0.64656166710E+03  0.99999687468E+00 0.  0.
          4    1    3    3  501    0  0.81530778270E+02 -0.64051968990E+02  0.57545961778E+02  0.11858102822E+03  0.00000000000E+00 0.  1.
   -9000007    1    1    2    0  502 -0.18366394691E+03  0.38575387501E+03 -0.17367302082E+03  0.61049227320E+03  0.40000000000E+03 0. -1.
<mgrwt>
<rscale>  2 0.58504230E+03</rscale>
<asrwt>0</asrwt>
<pdfrwt beam="1">  1       21 0.54464558E-01 0.58526789E+03</pdfrwt>
<pdfrwt beam="2">  1       21 0.15717159E+00 0.58526789E+03</pdfrwt>
<totfact> 0.66805402E+02</totfact>
</mgrwt>
</event>
<event>
 6    1  0.9598567E-004  0.5000056E+03  0.7818608E-02  0.1013890E+00
         21   -1    0    0  503  502  0.00000000000E+00  0.00000000000E+00  0.45553549477E+03  0.45553549477E+03  0.00000000000E+00 0. -1.
         21   -1    0    0  501  503 -0.00000000000E+00 -0.00000000000E+00 -0.55672846100E+03  0.55672846100E+03  0.00000000000E+00 0.  1.
    9000007    2    1    2  501    0 -0.28805454145E+03  0.72869051220E+02  0.16473689682E+02  0.50027688622E+03  0.40214457967E+03 0.  0.
    9000005    1    3    3    0    0 -0.10413638799E+03 -0.15842189442E+03  0.65812633612E+02  0.20068429603E+03  0.99999687468E+00 0.  0.
          4    1    3    3  501    0 -0.18391815346E+03  0.23129094564E+03 -0.49338943930E+02  0.29959259019E+03  0.00000000000E+00 0.  1.
   -9000007    1    1    2    0  502  0.28805454145E+03 -0.72869051220E+02 -0.11766665591E+03  0.51198706955E+03  0.40000000000E+03 0.  1.
<mgrwt>
<rscale>  2 0.49957422E+03</rscale>
<asrwt>0</asrwt>
<pdfrwt beam="1">  1       21 0.70082384E-01 0.50000558E+03</pdfrwt>
<pdfrwt beam="2">  1       21 0.85650532E-01 0.50000558E+03</pdfrwt>
<totfact> 0.18427895E+03</totfact>
</mgrwt>
</event>
<event>
 6    1  0.9598567E-004  0.6692884E+03  0.7818608E-02  0.9771400E-01
         21   -1    0    0  503  502  0.00000000000E+00  0.00000000000E+00  0.58932392416E+03  0.58932392416E+03  0.00000000000E+00 0.  1.
         21   -1    0    0  501  503 -0.00000000000E+00 -0.00000000000E+00 -0.75971423940E+03  0.75971423940E+03  0.00000000000E+00 0. -1.
    9000007    2    1    2  501    0  0.38702714576E+03  0.37169478675E+03 -0.84341303878E+02  0.67424081738E+03  0.39942483427E+03 0.  0.
    9000005    1    3    3    0    0 -0.34456965999E+02  0.17620949870E+03 -0.10711254116E+03  0.20907215597E+03  0.99999687468E+00 0.  0.
          4    1    3    3  501    0  0.42148411176E+03  0.19548528805E+03  0.22771237278E+02  0.46516866141E+03  0.00000000000E+00 0.  1.
   -9000007    1    1    2    0  502 -0.38702714576E+03 -0.37169478675E+03 -0.86049011367E+02  0.67479734618E+03  0.40000000000E+03 0.  1.
<mgrwt>
<rscale>  2 0.66920253E+03</rscale>
<asrwt>0</asrwt>
<pdfrwt beam="1">  1       21 0.90665220E-01 0.66928845E+03</pdfrwt>
<pdfrwt beam="2">  1       21 0.11687911E+00 0.66928845E+03</pdfrwt>
<totfact> 0.44902305E+02</totfact>
</mgrwt>
</event>
<event>
 6    1  0.9598567E-004  0.4297473E+03  0.7818608E-02  0.1033945E+00
         21   -1    0    0  503  502  0.00000000000E+00  0.00000000000E+00  0.54689020893E+03  0.54689020893E+03  0.00000000000E+00 0. -1.
         21   -1    0    0  501  503 -0.00000000000E+00 -0.00000000000E+00 -0.53432651783E+03  0.53432651783E+03  0.00000000000E+00 0.  1.
    9000007    2    1    2  501    0  0.10638634845E+03 -0.11560556253E+03 -0.32171103969E+03  0.53676994619E+03  0.39992659432E+03 0.  0.
    9000005    1    3    3    0    0  0.15385412651E+03  0.11613513404E+03 -0.15538725493E+03  0.24759777986E+03  0.99999687468E+00 0.  0.
          4    1    3    3  501    0 -0.47467778052E+02 -0.23174069657E+03 -0.16632378476E+03  0.28917216633E+03  0.00000000000E+00 0.  1.
   -9000007    1    1    2    0  502 -0.10638634845E+03  0.11560556253E+03  0.33427473080E+03  0.54444678057E+03  0.40000000000E+03 0. -1.
<mgrwt>
<rscale>  2 0.42973017E+03</rscale>
<asrwt>0</asrwt>
<pdfrwt beam="1">  1       21 0.84136955E-01 0.42974725E+03</pdfrwt>
<pdfrwt beam="2">  1       21 0.82204080E-01 0.42974725E+03</pdfrwt>
<totfact> 0.13693344E+03</totfact>
</mgrwt>
</event>
<event>
 6    1  0.9598567E-004  0.6504600E+03  0.7818608E-02  0.9806178E-01
         21   -1    0    0  503  502  0.00000000000E+00  0.00000000000E+00  0.96212566130E+03  0.96212566130E+03  0.00000000000E+00 0.  1.
         21   -1    0    0  501  503 -0.00000000000E+00 -0.00000000000E+00 -0.79392115264E+03  0.79392115264E+03  0.00000000000E+00 0. -1.
    9000007    2    1    2  501    0  0.25218742275E+03  0.44583990879E+03 -0.50262787431E+03  0.82202978705E+03  0.40090705943E+03 0.  0.
    9000005    1    3    3    0    0  0.25581629180E+03  0.19701271514E+03 -0.81735285600E+02  0.33307302800E+03  0.99999687468E+00 0.  0.
          4    1    3    3  501    0 -0.36288690439E+01  0.24882719365E+03 -0.42089258871E+03  0.48895675905E+03  0.00000000000E+00 0.  1.
   -9000007    1    1    2    0  502 -0.25218742275E+03 -0.44583990879E+03  0.67083238297E+03  0.93401702689E+03  0.40000000000E+03 0.  1.
<mgrwt>
<rscale>  2 0.65032027E+03</rscale>
<asrwt>0</asrwt>
<pdfrwt beam="1">  1       21 0.14801933E+00 0.65045998E+03</pdfrwt>
<pdfrwt beam="2">  1       21 0.12214172E+00 0.65045998E+03</pdfrwt>
<totfact> 0.11555602E+02</totfact>
</mgrwt>
</event>
<event>
 6    1  0.9598567E-004  0.5422630E+03  0.7818608E-02  0.1003303E+00
         21   -1    0    0  503  502  0.00000000000E+00  0.00000000000E+00  0.17083091877E+04  0.17083091877E+04  0.00000000000E+00 0.  1.
         21   -1    0    0  501  503 -0.00000000000E+00 -0.00000000000E+00 -0.54650461426E+03  0.54650461426E+03  0.00000000000E+00 0. -1.
    9000007    2    1    2  501    0  0.10468943978E+03  0.35078586351E+03 -0.35222614836E+03  0.64661616877E+03  0.40004825869E+03 0.  0.
    9000005    1    3    3    0    0  0.11108762769E+03  0.43918997270E+03 -0.30563449132E+03  0.54648123063E+03  0.99999687468E+00 0.  0.
          4    1    3    3  501    0 -0.63981879155E+01 -0.88404109191E+02 -0.46591657041E+02  0.10013493814E+03  0.00000000000E+00 0.  1.
   -9000007    1    1    2    0  502 -0.10468943978E+03 -0.35078586351E+03  0.15140307218E+04  0.16081976332E+04  0.40000000000E+03 0.  1.
<mgrwt>
<rscale>  2 0.54225414E+03</rscale>
<asrwt>0</asrwt>
<pdfrwt beam="1">  1       21 0.26281680E+00 0.54226305E+03</pdfrwt>
<pdfrwt beam="2">  1       21 0.84077634E-01 0.54226305E+03</pdfrwt>
<totfact> 0.50248520E+01</totfact>
</mgrwt>
</event>
<event>
 6    1  0.9598567E-004  0.5245869E+03  0.7818608E-02  0.1007592E+00
         21   -1    0    0  503  502  0.00000000000E+00  0.00000000000E+00  0.69974893083E+03  0.69974893083E+03  0.00000000000E+00 0.  1.
         21   -1    0    0  501  503 -0.00000000000E+00 -0.00000000000E+00 -0.63329386462E+03  0.63329386462E+03  0.00000000000E+00 0. -1.
    9000007    2    1    2  501    0 -0.32871492376E+03 -0.80460100059E+02 -0.37749916931E+03  0.64629488535E+03  0.40082929932E+03 0.  0.
    9000005    1    3    3    0    0 -0.22545284256E+03  0.13753275940E+03 -0.10995879141E+03  0.28607023601E+03  0.99999687468E+00 0.  0.
          4    1    3    3  501    0 -0.10326208120E+03 -0.21799285946E+03 -0.26754037790E+03  0.36022464934E+03  0.00000000000E+00 0.  1.
   -9000007    1    1    2    0  502  0.32871492376E+03  0.80460100059E+02  0.44395423551E+03  0.68674791010E+03  0.40000000000E+03 0.  1.
<mgrwt>
<rscale>  2 0.52442852E+03</rscale>
<asrwt>0</asrwt>
<pdfrwt beam="1">  1       21 0.10765368E+00 0.52458694E+03</pdfrwt>
<pdfrwt beam="2">  1       21 0.97429826E-01 0.52458694E+03</pdfrwt>
<totfact> 0.48725893E+02</totfact>
</mgrwt>
</event>
<event>
 6    1  0.9598567E-004  0.6598581E+03  0.7818608E-02  0.9789435E-01
         21   -1    0    0  503  502  0.00000000000E+00  0.00000000000E+00  0.17041655755E+04  0.17041655755E+04  0.00000000000E+00 0.  1.
         21   -1    0    0  501  503 -0.00000000000E+00 -0.00000000000E+00 -0.25467663962E+03  0.25467663962E+03  0.00000000000E+00 0.  1.
    9000007    2    1    2  501    0  0.52191545725E+03  0.14687821130E+02  0.72660442574E+03  0.98151243885E+03  0.40348630648E+03 0.  0.
    9000005    1    3    3    0    0  0.20600912942E+03  0.83982839208E+02  0.58977820908E+03  0.63034293411E+03  0.99999687468E+00 0.  0.
          4    1    3    3  501    0  0.31590632783E+03 -0.69295018078E+02  0.13682621665E+03  0.35116950474E+03  0.00000000000E+00 0.  1.
   -9000007    1    1    2    0  502 -0.52191545725E+03 -0.14687821130E+02  0.72288451019E+03  0.97732977632E+03  0.40000000000E+03 0.  1.
<mgrwt>
<rscale>  2 0.65932593E+03</rscale>
<asrwt>0</asrwt>
<pdfrwt beam="1">  1       21 0.26217931E+00 0.65985807E+03</pdfrwt>
<pdfrwt beam="2">  1       21 0.39181023E-01 0.65985807E+03</pdfrwt>
<totfact> 0.25715221E+02</totfact>
</mgrwt>
</event>
<event>
 6    1  0.9598567E-004  0.5124213E+03  0.7818608E-02  0.1010606E+00
         21   -1    0    0  503  502  0.00000000000E+00  0.00000000000E+00  0.44271837062E+03  0.44271837062E+03  0.00000000000E+00 0.  1.
         21   -1    0    0  501  503 -0.00000000000E+00 -0.00000000000E+00 -0.74361726306E+03  0.74361726306E+03  0.00000000000E+00 0. -1.
    9000007    2    1    2  501    0  0.10275752744E+03  0.30334226326E+03 -0.41759285132E+03  0.66079484728E+03  0.39961281586E+03 0.  0.
    9000005    1    3    3    0    0  0.22034886172E+03  0.18965551059E+03 -0.40252837918E+03  0.49654096468E+03  0.99999687468E+00 0.  0.
          4    1    3    3  501    0 -0.11759133428E+03  0.11368675267E+03 -0.15064472131E+02  0.16425388261E+03  0.00000000000E+00 0.  1.
   -9000007    1    1    2    0  502 -0.10275752744E+03 -0.30334226326E+03  0.11669395888E+03  0.52554078639E+03  0.40000000000E+03 0.  1.
<mgrwt>
<rscale>  2 0.51234579E+03</rscale>
<asrwt>0</asrwt>
<pdfrwt beam="1">  1       21 0.68110519E-01 0.51242135E+03</pdfrwt>
<pdfrwt beam="2">  1       21 0.11440265E+00 0.51242135E+03</pdfrwt>
<totfact> 0.96822703E+02</totfact>
</mgrwt>
</event>
<event>
 6    1  0.9598567E-004  0.4399013E+03  0.7818608E-02  0.1030838E+00
         21   -1    0    0  503  502  0.00000000000E+00  0.00000000000E+00  0.39651716026E+03  0.39651716026E+03  0.00000000000E+00 0. -1.
         21   -1    0    0  501  503 -0.00000000000E+00 -0.00000000000E+00 -0.58602313612E+03  0.58602313612E+03  0.00000000000E+00 0.  1.
    9000007    2    1    2  501    0 -0.12267224972E+03  0.13588486319E+03 -0.29647228364E+03  0.52982077185E+03  0.39912536680E+03 0.  0.
    9000005    1    3    3    0    0 -0.25847787681E+03  0.15537045438E+03 -0.19420178898E+03  0.35870060737E+03  0.99999687468E+00 0.  0.
          4    1    3    3  501    0  0.13580562709E+03 -0.19485591189E+02 -0.10227049466E+03  0.17112016448E+03  0.00000000000E+00 0.  1.
   -9000007    1    1    2    0  502  0.12267224972E+03 -0.13588486319E+03  0.10696630778E+03  0.45271952454E+03  0.40000000000E+03 0. -1.
<mgrwt>
<rscale>  2 0.43970240E+03</rscale>
<asrwt>0</asrwt>
<pdfrwt beam="1">  1       21 0.61002640E-01 0.43990133E+03</pdfrwt>
<pdfrwt beam="2">  1       21 0.90157406E-01 0.43990133E+03</pdfrwt>
<totfact> 0.22725123E+03</totfact>
</mgrwt>
</event>
<event>
 6    1  0.9598567E-004  0.4325615E+03  0.7818608E-02  0.1033385E+00
         21   -1    0    0  503  502  0.00000000000E+00  0.00000000000E+00  0.23715009967E+03  0.23715009967E+03  0.00000000000E+00 0. -1.
         21   -1    0    0  501  503 -0.00000000000E+00 -0.00000000000E+00 -0.78213140698E+03  0.78213140698E+03  0.00000000000E+00 0. -1.
    9000007    2    1    2  501    0  0.15213576560E+03 -0.62961455073E+02 -0.28734239847E+03  0.51580634009E+03  0.39545049060E+03 0.  0.
    9000005    1    3    3    0    0 -0.79584226854E+01 -0.20441418943E+03 -0.84896799166E+02  0.22148806703E+03  0.99999687468E+00 0.  0.
          4    1    3    3  501    0  0.16009418829E+03  0.14145273436E+03 -0.20244559930E+03  0.29431827306E+03  0.00000000000E+00 0.  1.
   -9000007    1    1    2    0  502 -0.15213576560E+03  0.62961455073E+02 -0.25763890884E+03  0.50347516657E+03  0.40000000000E+03 0. -1.
<mgrwt>
<rscale>  2 0.43150675E+03</rscale>
<asrwt>0</asrwt>
<pdfrwt beam="1">  1       21 0.36484630E-01 0.43256148E+03</pdfrwt>
<pdfrwt beam="2">  1       21 0.12032791E+00 0.43256148E+03</pdfrwt>
<totfact> 0.33235382E+03</totfact>
</mgrwt>
</event>
<event>
 6    1  0.9598567E-004  0.4036237E+03  0.7818608E-02  0.1042548E+00
         21   -1    0    0  503  502  0.00000000000E+00  0.00000000000E+00  0.95758025189E+02  0.95758025189E+02  0.00000000000E+00 0. -1.
         21   -1    0    0  501  503 -0.00000000000E+00 -0.00000000000E+00 -0.17522240471E+04  0.17522240471E+04  0.00000000000E+00 0. -1.
    9000007    2    1    2  501    0  0.29652771386E+02  0.45086662450E+02 -0.98681342541E+03  0.10660954475E+04  0.39980829494E+03 0.  0.
    9000005    1    3    3    0    0  0.17765050507E+03  0.12939995312E+03 -0.41707508763E+03  0.47144106581E+03  0.99999687468E+00 0.  0.
          4    1    3    3  501    0 -0.14799773369E+03 -0.84313290673E+02 -0.56973833779E+03  0.59465438172E+03  0.00000000000E+00 0.  1.
   -9000007    1    1    2    0  502 -0.29652771386E+02 -0.45086662450E+02 -0.66965259655E+03  0.78188662480E+03  0.40000000000E+03 0. -1.
<mgrwt>
<rscale>  2 0.40357620E+03</rscale>
<asrwt>0</asrwt>
<pdfrwt beam="1">  1       21 0.14732002E-01 0.40362370E+03</pdfrwt>
<pdfrwt beam="2">  1       21 0.26957296E+00 0.40362370E+03</pdfrwt>
<totfact> 0.17491232E+03</totfact>
</mgrwt>
</event>
<event>
 6    1  0.9598567E-004  0.5585577E+03  0.7818608E-02  0.9995329E-01
         21   -1    0    0  503  502  0.00000000000E+00  0.00000000000E+00  0.22967765763E+03  0.22967765763E+03  0.00000000000E+00 0.  1.
         21   -1    0    0  501  503 -0.00000000000E+00 -0.00000000000E+00 -0.19064651005E+04  0.19064651005E+04  0.00000000000E+00 0. -1.
    9000007    2    1    2  501    0 -0.50951924511E+02 -0.38651084895E+03 -0.14110847858E+04  0.15176084931E+04  0.39998566319E+03 0.  0.
    9000005    1    3    3    0    0 -0.15298690419E+03 -0.42316347478E+03 -0.11225480062E+04  0.12093747746E+04  0.99999687468E+00 0.  0.
          4    1    3    3  501    0  0.10203497968E+03  0.36652625822E+02 -0.28853677958E+03  0.30823371851E+03  0.00000000000E+00 0.  1.
   -9000007    1    1    2    0  502  0.50951924511E+02  0.38651084895E+03 -0.26570265704E+03  0.61853426496E+03  0.40000000000E+03 0. -1.
<mgrwt>
<rscale>  2 0.55855516E+03</rscale>
<asrwt>0</asrwt>
<pdfrwt beam="1">  1       21 0.35335025E-01 0.55855773E+03</pdfrwt>
<pdfrwt beam="2">  1       21 0.29330232E+00 0.55855773E+03</pdfrwt>
<totfact> 0.21394103E+02</totfact>
</mgrwt>
</event>
<event>
 6    1  0.9598567E-004  0.5664828E+03  0.7818608E-02  0.9977609E-01
         21   -1    0    0  503  502  0.00000000000E+00  0.00000000000E+00  0.11418676064E+04  0.11418676064E+04  0.00000000000E+00 0. -1.
         21   -1    0    0  501  503 -0.00000000000E+00 -0.00000000000E+00 -0.13633355499E+04  0.13633355499E+04  0.00000000000E+00 0.  1.
    9000007    2    1    2  501    0  0.38242937791E+03  0.12005710077E+03 -0.12268473298E+04  0.13513168331E+04  0.40029598577E+03 0.  0.
    9000005    1    3    3    0    0 -0.60417384174E+01 -0.70879365350E+02 -0.27543889688E+02  0.76289271122E+02  0.99999687468E+00 0.  0.
          4    1    3    3  501    0  0.38847111633E+03  0.19093646612E+03 -0.11993034401E+04  0.12750275619E+04  0.00000000000E+00 0.  1.
   -9000007    1    1    2    0  502 -0.38242937791E+03 -0.12005710077E+03  0.10053793863E+04  0.11538863232E+04  0.40000000000E+03 0. -1.
<mgrwt>
<rscale>  2 0.56643056E+03</rscale>
<asrwt>0</asrwt>
<pdfrwt beam="1">  1       21 0.17567194E+00 0.56648284E+03</pdfrwt>
<pdfrwt beam="2">  1       21 0.20974393E+00 0.56648284E+03</pdfrwt>
<totfact> 0.15975309E+01</totfact>
</mgrwt>
</event>
<event>
 6    1  0.9598567E-004  0.8803876E+03  0.7818608E-02  0.9450440E-01
         21   -1    0    0  503  502  0.00000000000E+00  0.00000000000E+00  0.69319895763E+03  0.69319895763E+03  0.00000000000E+00 0. -1.
         21   -1    0    0  501  503 -0.00000000000E+00 -0.00000000000E+00 -0.20894884312E+04  0.20894884312E+04  0.00000000000E+00 0.  1.
    9000007    2    1    2  501    0  0.20886955117E+03 -0.75593021647E+03 -0.16468057427E+04  0.18673648322E+04  0.40003160000E+03 0.  0.
    9000005    1    3    3    0    0  0.24904861556E+03 -0.40807873076E+03 -0.62273262877E+03  0.78507986240E+03  0.99999687468E+00 0.  0.
          4    1    3    3  501    0 -0.40179064392E+02 -0.34785148571E+03 -0.10240731139E+04  0.10822849698E+04  0.00000000000E+00 0.  1.
   -9000007    1    1    2    0  502 -0.20886955117E+03  0.75593021647E+03  0.25051626907E+03  0.91532255661E+03  0.40000000000E+03 0. -1.
<mgrwt>
<rscale>  2 0.88038397E+03</rscale>
<asrwt>0</asrwt>
<pdfrwt beam="1">  1       21 0.10664600E+00 0.88038756E+03</pdfrwt>
<pdfrwt beam="2">  1       21 0.32145975E+00 0.88038756E+03</pdfrwt>
<totfact> 0.10623204E+01</totfact>
</mgrwt>
</event>
<event>
 6    1  0.9598567E-004  0.4349812E+03  0.7818608E-02  0.1032400E+00
         21   -1    0    0  503  502  0.00000000000E+00  0.00000000000E+00  0.88402235507E+03  0.88402235507E+03  0.00000000000E+00 0. -1.
         21   -1    0    0  501  503 -0.00000000000E+00 -0.00000000000E+00 -0.25721629503E+03  0.25721629503E+03  0.00000000000E+00 0.  1.
    9000007    2    1    2  501    0 -0.13850104521E+03 -0.94265670394E+02  0.78245896522E+02  0.44196273235E+03  0.40142257077E+03 0.  0.
    9000005    1    3    3    0    0 -0.13315197154E+02 -0.23688610195E+03  0.85122305194E+02  0.25206968602E+03  0.99999687468E+00 0.  0.
          4    1    3    3  501    0 -0.12518584805E+03  0.14262043156E+03 -0.68764086724E+01  0.18989304634E+03  0.00000000000E+00 0.  1.
   -9000007    1    1    2    0  502  0.13850104521E+03  0.94265670394E+02  0.54856016352E+03  0.69927591775E+03  0.40000000000E+03 0. -1.
<mgrwt>
<rscale>  2 0.43465270E+03</rscale>
<asrwt>0</asrwt>
<pdfrwt beam="1">  1       21 0.13600344E+00 0.43498119E+03</pdfrwt>
<pdfrwt beam="2">  1       21 0.39571738E-01 0.43498119E+03</pdfrwt>
<totfact> 0.20500671E+03</totfact>
</mgrwt>
</event>
<event>
 6    1  0.9598567E-004  0.6558332E+03  0.7818608E-02  0.9796010E-01
         21   -1    0    0  503  502  0.00000000000E+00  0.00000000000E+00  0.42145376874E+03  0.42145376874E+03  0.00000000000E+00 0.  1.
         21   -1    0    0  501  503 -0.00000000000E+00 -0.00000000000E+00 -0.13718732782E+04  0.13718732782E+04  0.00000000000E+00 0.  1.
    9000007    2    1    2  501    0  0.15396585720E+03  0.49606914158E+03 -0.92928335799E+03  0.11374026493E+04  0.40040872728E+03 0.  0.
    9000005    1    3    3    0    0  0.23786881732E+03  0.14934583324E+03 -0.28011131532E+03  0.39667253638E+03  0.99999687468E+00 0.  0.
          4    1    3    3  501    0 -0.83902960110E+02  0.34672330834E+03 -0.64917204266E+03  0.74073011296E+03  0.00000000000E+00 0.  1.
   -9000007    1    1    2    0  502 -0.15396585720E+03 -0.49606914158E+03 -0.21136151438E+02  0.65592439756E+03  0.40000000000E+03 0.  1.
<mgrwt>
<rscale>  2 0.65577086E+03</rscale>
<asrwt>0</asrwt>
<pdfrwt beam="1">  1       21 0.64839041E-01 0.65583323E+03</pdfrwt>
<pdfrwt beam="2">  1       21 0.21105743E+00 0.65583323E+03</pdfrwt>
<totfact> 0.18431797E+02</totfact>
</mgrwt>
</event>
<event>
 6    1  0.9598567E-004  0.4287722E+03  0.7818608E-02  0.1034363E+00
         21   -1    0    0  503  502  0.00000000000E+00  0.00000000000E+00  0.15450869116E+03  0.15450869116E+03  0.00000000000E+00 0. -1.
         21   -1    0    0  501  503 -0.00000000000E+00 -0.00000000000E+00 -0.12298399119E+04  0.12298399119E+04  0.00000000000E+00 0.  1.
    9000007    2    1    2  501    0 -0.15441895510E+03  0.63113983953E+00 -0.40590104275E+03  0.58937541154E+03  0.39844962943E+03 0.  0.
    9000005    1    3    3    0    0 -0.14589821470E+03  0.18845372414E+03 -0.20699931758E+03  0.31567516955E+03  0.99999687468E+00 0.  0.
          4    1    3    3  501    0 -0.85207403995E+01 -0.18782258430E+03 -0.19890172517E+03  0.27370024199E+03  0.00000000000E+00 0.  1.
   -9000007    1    1    2    0  502  0.15441895510E+03 -0.63113983953E+00 -0.66943017796E+03  0.79497319150E+03  0.40000000000E+03 0. -1.
<mgrwt>
<rscale>  2 0.42841026E+03</rscale>
<asrwt>0</asrwt>
<pdfrwt beam="1">  1       21 0.23770567E-01 0.42877221E+03</pdfrwt>
<pdfrwt beam="2">  1       21 0.18920615E+00 0.42877221E+03</pdfrwt>
<totfact> 0.22572642E+03</totfact>
</mgrwt>
</event>
<event>
 6    1  0.9598567E-004  0.4283832E+03  0.7818608E-02  0.1034409E+00
         21   -1    0    0  503  502  0.00000000000E+00  0.00000000000E+00  0.10643986425E+04  0.10643986425E+04  0.00000000000E+00 0.  1.
         21   -1    0    0  501  503 -0.00000000000E+00 -0.00000000000E+00 -0.18491392374E+03  0.18491392374E+03  0.00000000000E+00 0.  1.
    9000007    2    1    2  501    0 -0.12736747158E+03 -0.83018635257E+02  0.27631556202E+03  0.50976703130E+03  0.40049665388E+03 0.  0.
    9000005    1    3    3    0    0  0.86129832547E+02 -0.16712621873E+03  0.68270234756E+02  0.20002836296E+03  0.99999687468E+00 0.  0.
          4    1    3    3  501    0 -0.21349730412E+03  0.84107583477E+02  0.20804532727E+03  0.30973866834E+03  0.00000000000E+00 0.  1.
   -9000007    1    1    2    0  502  0.12736747158E+03  0.83018635257E+02  0.60316915677E+03  0.73954553497E+03  0.40000000000E+03 0.  1.
<mgrwt>
<rscale>  2 0.42826705E+03</rscale>
<asrwt>0</asrwt>
<pdfrwt beam="1">  1       21 0.16375363E+00 0.42838317E+03</pdfrwt>
<pdfrwt beam="2">  1       21 0.28448296E-01 0.42838317E+03</pdfrwt>
<totfact> 0.24129943E+03</totfact>
</mgrwt>
</event>
<event>
 6    1  0.9598567E-004  0.5284483E+03  0.7818608E-02  0.1006628E+00
         21   -1    0    0  503  502  0.00000000000E+00  0.00000000000E+00  0.51733032373E+03  0.51733032373E+03  0.00000000000E+00 0.  1.
         21   -1    0    0  501  503 -0.00000000000E+00 -0.00000000000E+00 -0.54073059538E+03  0.54073059538E+03  0.00000000000E+00 0.  1.
    9000007    2    1    2  501    0  0.19518314598E+03  0.28432758393E+03 -0.36972990328E+02  0.52974013195E+03  0.40039851390E+03 0.  0.
    9000005    1    3    3    0    0 -0.52935292946E+02  0.11077944322E+03 -0.16104928907E+03  0.20251445327E+03  0.99999687468E+00 0.  0.
          4    1    3    3  501    0  0.24811843892E+03  0.17354814071E+03  0.12407629875E+03  0.32722567868E+03  0.00000000000E+00 0.  1.
   -9000007    1    1    2    0  502 -0.19518314598E+03 -0.28432758393E+03  0.13572718677E+02  0.52832078716E+03  0.40000000000E+03 0.  1.
<mgrwt>
<rscale>  2 0.52837281E+03</rscale>
<asrwt>0</asrwt>
<pdfrwt beam="1">  1       21 0.79589281E-01 0.52844830E+03</pdfrwt>
<pdfrwt beam="2">  1       21 0.83189322E-01 0.52844830E+03</pdfrwt>
<totfact> 0.14613148E+03</totfact>
</mgrwt>
</event>
<event>
 6    1  0.9598567E-004  0.4015819E+03  0.7818608E-02  0.1043262E+00
         21   -1    0    0  503  502  0.00000000000E+00  0.00000000000E+00  0.20076702386E+04  0.20076702386E+04  0.00000000000E+00 0.  1.
         21   -1    0    0  501  503 -0.00000000000E+00 -0.00000000000E+00 -0.51903735143E+03  0.51903735143E+03  0.00000000000E+00 0.  1.
    9000007    2    1    2  501    0 -0.28361877482E+02 -0.14050430004E+02 -0.41721288085E+03  0.57908085419E+03  0.40033265800E+03 0.  0.
    9000005    1    3    3    0    0 -0.42652123687E+02  0.19113004350E+03 -0.20892020602E+03  0.28635388885E+03  0.99999687468E+00 0.  0.
          4    1    3    3  501    0  0.14290246205E+02 -0.20518047351E+03 -0.20829267483E+03  0.29272696533E+03  0.00000000000E+00 0.  1.
   -9000007    1    1    2    0  502  0.28361877482E+02  0.14050430004E+02  0.19058457680E+04  0.19476267358E+04  0.40000000000E+03 0.  1.
<mgrwt>
<rscale>  2 0.40149900E+03</rscale>
<asrwt>0</asrwt>
<pdfrwt beam="1">  1       21 0.30887234E+00 0.40158193E+03</pdfrwt>
<pdfrwt beam="2">  1       21 0.79851901E-01 0.40158193E+03</pdfrwt>
<totfact> 0.32716609E+01</totfact>
</mgrwt>
</event>
<event>
 6    1  0.9598567E-004  0.4459953E+03  0.7818608E-02  0.1028927E+00
         21   -1    0    0  503  502  0.00000000000E+00  0.00000000000E+00  0.44927908876E+03  0.44927908876E+03  0.00000000000E+00 0.  1.
         21   -1    0    0  501  503 -0.00000000000E+00 -0.00000000000E+00 -0.44279341054E+03  0.44279341054E+03  0.00000000000E+00 0.  1.
    9000007    2    1    2  501    0 -0.82645729296E+02 -0.17896811465E+03  0.10453389118E+02  0.44611774223E+03  0.40006482469E+03 0.  0.
    9000005    1    3    3    0    0 -0.21920551430E+03 -0.10637940009E+03 -0.92176115375E+02  0.26050925224E+03  0.99999687468E+00 0.  0.
          4    1    3    3  501    0  0.13655978501E+03 -0.72588714561E+02  0.10262950449E+03  0.18560848999E+03  0.00000000000E+00 0.  1.
   -9000007    1    1    2    0  502  0.82645729296E+02  0.17896811465E+03 -0.39677108996E+01  0.44595475708E+03  0.40000000000E+03 0.  1.
<mgrwt>
<rscale>  2 0.44598072E+03</rscale>
<asrwt>0</asrwt>
<pdfrwt beam="1">  1       21 0.69119860E-01 0.44599525E+03</pdfrwt>
<pdfrwt beam="2">  1       21 0.68122063E-01 0.44599525E+03</pdfrwt>
<totfact> 0.32745348E+03</totfact>
</mgrwt>
</event>
<event>
 6    1  0.9598567E-004  0.5431876E+03  0.7818608E-02  0.1003097E+00
         21   -1    0    0  503  502  0.00000000000E+00  0.00000000000E+00  0.93928324752E+03  0.93928324752E+03  0.00000000000E+00 0.  1.
         21   -1    0    0  501  503 -0.00000000000E+00 -0.00000000000E+00 -0.46127291315E+03  0.46127291315E+03  0.00000000000E+00 0.  1.
    9000007    2    1    2  501    0 -0.12392373761E+03  0.34597058351E+03 -0.15673733428E+03  0.56511774866E+03  0.39967329219E+03 0.  0.
    9000005    1    3    3    0    0 -0.63357540052E+02  0.24140272922E+03 -0.29174068440E+03  0.38393109080E+03  0.99999687468E+00 0.  0.
          4    1    3    3  501    0 -0.60566197561E+02  0.10456785429E+03  0.13500335013E+03  0.18118665785E+03  0.00000000000E+00 0.  1.
   -9000007    1    1    2    0  502  0.12392373761E+03 -0.34597058351E+03  0.63474766865E+03  0.83543841201E+03  0.40000000000E+03 0.  1.
<mgrwt>
<rscale>  2 0.54312743E+03</rscale>
<asrwt>0</asrwt>
<pdfrwt beam="1">  1       21 0.14450511E+00 0.54318757E+03</pdfrwt>
<pdfrwt beam="2">  1       21 0.70965064E-01 0.54318757E+03</pdfrwt>
<totfact> 0.47501890E+02</totfact>
</mgrwt>
</event>
<event>
 6    1  0.9598567E-004  0.4025754E+03  0.7818608E-02  0.1043005E+00
         21   -1    0    0  503  502  0.00000000000E+00  0.00000000000E+00  0.66733173050E+03  0.66733173050E+03  0.00000000000E+00 0.  1.
         21   -1    0    0  501  503 -0.00000000000E+00 -0.00000000000E+00 -0.64646965699E+03  0.64646965699E+03  0.00000000000E+00 0.  1.
    9000007    2    1    2  501    0 -0.57813238135E+01  0.31155053841E+02 -0.50912240120E+03  0.64905511670E+03  0.40132638092E+03 0.  0.
    9000005    1    3    3    0    0  0.14266959860E+03  0.14911735204E+03 -0.20657868650E+03  0.29200402866E+03  0.99999687468E+00 0.  0.
          4    1    3    3  501    0 -0.14845092241E+03 -0.11796229820E+03 -0.30254371470E+03  0.35705108803E+03  0.00000000000E+00 0.  1.
   -9000007    1    1    2    0  502  0.57813238135E+01 -0.31155053841E+02  0.52998447471E+03  0.66474627079E+03  0.40000000000E+03 0.  1.
<mgrwt>
<rscale>  2 0.40224439E+03</rscale>
<asrwt>0</asrwt>
<pdfrwt beam="1">  1       21 0.10266642E+00 0.40257537E+03</pdfrwt>
<pdfrwt beam="2">  1       21 0.99456870E-01 0.40257537E+03</pdfrwt>
<totfact> 0.54967936E+02</totfact>
</mgrwt>
</event>
<event>
 6    1  0.9598567E-004  0.4207637E+03  0.7818608E-02  0.1036829E+00
         21   -1    0    0  503  502  0.00000000000E+00  0.00000000000E+00  0.40435665752E+03  0.40435665752E+03  0.00000000000E+00 0. -1.
         21   -1    0    0  501  503 -0.00000000000E+00 -0.00000000000E+00 -0.57303212185E+03  0.57303212185E+03  0.00000000000E+00 0.  1.
    9000007    2    1    2  501    0 -0.94412747188E+02  0.90157058264E+02  0.15317006472E+03  0.44764676050E+03  0.39985558827E+03 0.  0.
    9000005    1    3    3    0    0  0.14431937637E+03  0.99723776216E+02  0.10327989555E+03  0.20356976877E+03  0.99999687468E+00 0.  0.
          4    1    3    3  501    0 -0.23873212356E+03 -0.95667179522E+01  0.49890169171E+02  0.24407699173E+03  0.00000000000E+00 0.  1.
   -9000007    1    1    2    0  502  0.94412747188E+02 -0.90157058264E+02 -0.32184552905E+03  0.52974201887E+03  0.40000000000E+03 0.  1.
<mgrwt>
<rscale>  2 0.42072934E+03</rscale>
<asrwt>0</asrwt>
<pdfrwt beam="1">  1       21 0.62208717E-01 0.42076367E+03</pdfrwt>
<pdfrwt beam="2">  1       21 0.88158787E-01 0.42076367E+03</pdfrwt>
<totfact> 0.23120092E+03</totfact>
</mgrwt>
</event>
<event>
 6    1  0.9598567E-004  0.4315273E+03  0.7818608E-02  0.1033569E+00
         21   -1    0    0  503  502  0.00000000000E+00  0.00000000000E+00  0.10068631253E+04  0.10068631253E+04  0.00000000000E+00 0.  1.
         21   -1    0    0  501  503 -0.00000000000E+00 -0.00000000000E+00 -0.18882442907E+03  0.18882442907E+03  0.00000000000E+00 0.  1.
    9000007    2    1    2  501    0 -0.42117232785E+02  0.15633921844E+03  0.31146239540E+03  0.53022879450E+03  0.39738890051E+03 0.  0.
    9000005    1    3    3    0    0  0.96305161629E+02 -0.79445526280E+02  0.19828414230E+03  0.23431576320E+03  0.99999687468E+00 0.  0.
          4    1    3    3  501    0 -0.13842239441E+03  0.23578474472E+03  0.11317825310E+03  0.29591303130E+03  0.00000000000E+00 0.  1.
   -9000007    1    1    2    0  502  0.42117232785E+02 -0.15633921844E+03  0.50657630083E+03  0.66545875987E+03  0.40000000000E+03 0.  1.
<mgrwt>
<rscale>  2 0.43092122E+03</rscale>
<asrwt>0</asrwt>
<pdfrwt beam="1">  1       21 0.15490202E+00 0.43152730E+03</pdfrwt>
<pdfrwt beam="2">  1       21 0.29049913E-01 0.43152730E+03</pdfrwt>
<totfact> 0.26982340E+03</totfact>
</mgrwt>
</event>
<event>
 6    1  0.9598567E-004  0.4175581E+03  0.7818608E-02  0.1037899E+00
         21   -1    0    0  503  502  0.00000000000E+00  0.00000000000E+00  0.65076433820E+03  0.65076433820E+03  0.00000000000E+00 0.  1.
         21   -1    0    0  501  503 -0.00000000000E+00 -0.00000000000E+00 -0.34177854677E+03  0.34177854677E+03  0.00000000000E+00 0.  1.
    9000007    2    1    2  501    0  0.13875632099E+02  0.11749340928E+03 -0.76568803203E+02  0.42452036795E+03  0.40044665911E+03 0.  0.
    9000005    1    3    3    0    0  0.14259716990E+03  0.18235906687E+03  0.45155661963E+02  0.23585761793E+03  0.99999687468E+00 0.  0.
          4    1    3    3  501    0 -0.12872153780E+03 -0.64865657587E+02 -0.12172446517E+03  0.18866275003E+03  0.00000000000E+00 0.  1.
   -9000007    1    1    2    0  502 -0.13875632099E+02 -0.11749340928E+03  0.38555459464E+03  0.56802251702E+03  0.40000000000E+03 0.  1.
<mgrwt>
<rscale>  2 0.41745097E+03</rscale>
<asrwt>0</asrwt>
<pdfrwt beam="1">  1       21 0.10011759E+00 0.41755809E+03</pdfrwt>
<pdfrwt beam="2">  1       21 0.52581315E-01 0.41755809E+03</pdfrwt>
<totfact> 0.24611844E+03</totfact>
</mgrwt>
</event>
<event>
 6    1  0.9598567E-004  0.6451551E+03  0.7818608E-02  0.9816306E-01
         21   -1    0    0  503  502  0.00000000000E+00  0.00000000000E+00  0.10755621886E+04  0.10755621886E+04  0.00000000000E+00 0. -1.
         21   -1    0    0  501  503 -0.00000000000E+00 -0.00000000000E+00 -0.45479604310E+03  0.45479604310E+03  0.00000000000E+00 0.  1.
    9000007    2    1    2  501    0  0.35902077499E+03  0.35533152523E+03  0.14005051565E+02  0.64530714007E+03  0.40133371881E+03 0.  0.
    9000005    1    3    3    0    0 -0.87809002260E+02  0.58456081819E+02 -0.21539921244E+02  0.10766848462E+03  0.99999687468E+00 0.  0.
          4    1    3    3  501    0  0.44682977725E+03  0.29687544341E+03  0.35544972810E+02  0.53763865545E+03  0.00000000000E+00 0.  1.
   -9000007    1    1    2    0  502 -0.35902077499E+03 -0.35533152523E+03  0.60676109398E+03  0.88505109167E+03  0.40000000000E+03 0. -1.
<mgrwt>
<rscale>  2 0.64494784E+03</rscale>
<asrwt>0</asrwt>
<pdfrwt beam="1">  1       21 0.16547111E+00 0.64515515E+03</pdfrwt>
<pdfrwt beam="2">  1       21 0.69968622E-01 0.64515515E+03</pdfrwt>
<totfact> 0.32486227E+02</totfact>
</mgrwt>
</event>
<event>
 6    1  0.9598567E-004  0.4259277E+03  0.7818608E-02  0.1035191E+00
         21   -1    0    0  503  502  0.00000000000E+00  0.00000000000E+00  0.74080065226E+03  0.74080065226E+03  0.00000000000E+00 0. -1.
         21   -1    0    0  501  503 -0.00000000000E+00 -0.00000000000E+00 -0.45892251692E+03  0.45892251692E+03  0.00000000000E+00 0. -1.
    9000007    2    1    2  501    0  0.14491157346E+03 -0.43360633476E+01 -0.26893394761E+03  0.50372595920E+03  0.40049495405E+03 0.  0.
    9000005    1    3    3    0    0  0.11938748470E+03 -0.64785494069E+02 -0.36382590738E+03  0.38835656634E+03  0.99999687468E+00 0.  0.
          4    1    3    3  501    0  0.25524088762E+02  0.60449430721E+02  0.94891959762E+02  0.11536939286E+03  0.00000000000E+00 0.  1.
   -9000007    1    1    2    0  502 -0.14491157346E+03  0.43360633476E+01  0.55081208296E+03  0.69599720998E+03  0.40000000000E+03 0. -1.
<mgrwt>
<rscale>  2 0.42581127E+03</rscale>
<asrwt>0</asrwt>
<pdfrwt beam="1">  1       21 0.11396933E+00 0.42592766E+03</pdfrwt>
<pdfrwt beam="2">  1       21 0.70603464E-01 0.42592766E+03</pdfrwt>
<totfact> 0.93336702E+02</totfact>
</mgrwt>
</event>
<event>
 6    1  0.9598567E-004  0.4710810E+03  0.7818608E-02  0.1021728E+00
         21   -1    0    0  503  502  0.00000000000E+00  0.00000000000E+00  0.18599780684E+03  0.18599780684E+03  0.00000000000E+00 0.  1.
         21   -1    0    0  501  503 -0.00000000000E+00 -0.00000000000E+00 -0.12504897234E+04  0.12504897234E+04  0.00000000000E+00 0.  1.
    9000007    2    1    2  501    0 -0.93068717074E+02  0.22748937807E+03 -0.69228378747E+03  0.83736142116E+03  0.40187573207E+03 0.  0.
    9000005    1    3    3    0    0 -0.51187200015E+02 -0.56010643015E+02  0.12164625011E+02  0.76852453908E+02  0.99999687468E+00 0.  0.
          4    1    3    3  501    0 -0.41881517059E+02  0.28350002108E+03 -0.70444841248E+03  0.76050896725E+03  0.00000000000E+00 0.  1.
   -9000007    1    1    2    0  502  0.93068717074E+02 -0.22748937807E+03 -0.37220812914E+03  0.59912610912E+03  0.40000000000E+03 0.  1.
<mgrwt>
<rscale>  2 0.47068070E+03</rscale>
<asrwt>0</asrwt>
<pdfrwt beam="1">  1       21 0.28615047E-01 0.47108100E+03</pdfrwt>
<pdfrwt beam="2">  1       21 0.19238304E+00 0.47108100E+03</pdfrwt>
<totfact> 0.14675342E+03</totfact>
</mgrwt>
</event>
<event>
 6    1  0.9598567E-004  0.4393331E+03  0.7818608E-02  0.1030970E+00
         21   -1    0    0  503  502  0.00000000000E+00  0.00000000000E+00  0.62801575414E+03  0.62801575414E+03  0.00000000000E+00 0. -1.
         21   -1    0    0  501  503 -0.00000000000E+00 -0.00000000000E+00 -0.86105801062E+03  0.86105801062E+03  0.00000000000E+00 0. -1.
    9000007    2    1    2  501    0  0.17507857432E+03  0.48591186088E+02 -0.71365555802E+03  0.83791882454E+03  0.39973752698E+03 0.  0.
    9000005    1    3    3    0    0  0.21278415293E+03  0.82639745376E+02 -0.74434797052E+03  0.77856362904E+03  0.99999687468E+00 0.  0.
          4    1    3    3  501    0 -0.37705578616E+02 -0.34048559287E+02  0.30692412497E+02  0.59355195503E+02  0.00000000000E+00 0.  1.
   -9000007    1    1    2    0  502 -0.17507857432E+03 -0.48591186088E+02  0.48061330154E+03  0.65115494022E+03  0.40000000000E+03 0. -1.
<mgrwt>
<rscale>  2 0.43927339E+03</rscale>
<asrwt>0</asrwt>
<pdfrwt beam="1">  1       21 0.96617808E-01 0.43933314E+03</pdfrwt>
<pdfrwt beam="2">  1       21 0.13247046E+00 0.43933314E+03</pdfrwt>
<totfact> 0.30464834E+02</totfact>
</mgrwt>
</event>
<event>
 6    1  0.9598567E-004  0.6003977E+03  0.7818608E-02  0.9904947E-01
         21   -1    0    0  503  502  0.00000000000E+00  0.00000000000E+00  0.12245546292E+04  0.12245546292E+04  0.00000000000E+00 0. -1.
         21   -1    0    0  501  503 -0.00000000000E+00 -0.00000000000E+00 -0.30851542179E+03  0.30851542179E+03  0.00000000000E+00 0.  1.
    9000007    2    1    2  501    0 -0.27163797174E+03 -0.35474432222E+03  0.62438096317E+03  0.86621530424E+03  0.40105690903E+03 0.  0.
    9000005    1    3    3    0    0 -0.16479433122E+03  0.47450472850E+02  0.26879269069E+03  0.31884044527E+03  0.99999687468E+00 0.  0.
          4    1    3    3  501    0 -0.10684364052E+03 -0.40219479507E+03  0.35558827248E+03  0.54737485897E+03  0.00000000000E+00 0.  1.
   -9000007    1    1    2    0  502  0.27163797174E+03  0.35474432222E+03  0.29165824424E+03  0.66685474676E+03  0.40000000000E+03 0.  1.
<mgrwt>
<rscale>  2 0.60022122E+03</rscale>
<asrwt>0</asrwt>
<pdfrwt beam="1">  1       21 0.18839302E+00 0.60039767E+03</pdfrwt>
<pdfrwt beam="2">  1       21 0.47463912E-01 0.60039767E+03</pdfrwt>
<totfact> 0.52811387E+02</totfact>
</mgrwt>
</event>
<event>
 6    1  0.9598567E-004  0.6177102E+03  0.7818608E-02  0.9869368E-01
         21   -1    0    0  503  502  0.00000000000E+00  0.00000000000E+00  0.20924797310E+04  0.20924797310E+04  0.00000000000E+00 0.  1.
         21   -1    0    0  501  503 -0.00000000000E+00 -0.00000000000E+00 -0.48056570276E+03  0.48056570276E+03  0.00000000000E+00 0.  1.
    9000007    2    1    2  501    0  0.20742863429E+03 -0.42253905643E+03 -0.20755789237E+03  0.65157621401E+03  0.39988172181E+03 0.  0.
    9000005    1    3    3    0    0  0.19967826858E+03 -0.89626122370E+01 -0.32927285087E+02  0.20257577708E+03  0.99999687468E+00 0.  0.
          4    1    3    3  501    0  0.77503657072E+01 -0.41357644419E+03 -0.17463060728E+03  0.44900043693E+03  0.00000000000E+00 0.  1.
   -9000007    1    1    2    0  502 -0.20742863429E+03  0.42253905643E+03  0.18194719206E+04  0.19214692198E+04  0.40000000000E+03 0.  1.
<mgrwt>
<rscale>  2 0.61769105E+03</rscale>
<asrwt>0</asrwt>
<pdfrwt beam="1">  1       21 0.32191995E+00 0.61771020E+03</pdfrwt>
<pdfrwt beam="2">  1       21 0.73933187E-01 0.61771020E+03</pdfrwt>
<totfact> 0.28388349E+01</totfact>
</mgrwt>
</event>
<event>
 6    1  0.9598567E-004  0.4668846E+03  0.7818608E-02  0.1022843E+00
         21   -1    0    0  503  502  0.00000000000E+00  0.00000000000E+00  0.21000580890E+03  0.21000580890E+03  0.00000000000E+00 0. -1.
         21   -1    0    0  501  503 -0.00000000000E+00 -0.00000000000E+00 -0.20474165175E+04  0.20474165175E+04  0.00000000000E+00 0.  1.
    9000007    2    1    2  501    0  0.24078818038E+03 -0.15203754457E+01 -0.17114531729E+04  0.17738454864E+04  0.39934269399E+03 0.  0.
    9000005    1    3    3    0    0  0.29105226434E+03 -0.13693192600E+03 -0.11552436380E+04  0.11991874900E+04  0.99999687468E+00 0.  0.
          4    1    3    3  501    0 -0.50264083962E+02  0.13541155056E+03 -0.55620953494E+03  0.57465799648E+03  0.00000000000E+00 0.  1.
   -9000007    1    1    2    0  502 -0.24078818038E+03  0.15203754457E+01 -0.12595753565E+03  0.48357683995E+03  0.40000000000E+03 0. -1.
<mgrwt>
<rscale>  2 0.46674381E+03</rscale>
<asrwt>0</asrwt>
<pdfrwt beam="1">  1       21 0.32308586E-01 0.46688463E+03</pdfrwt>
<pdfrwt beam="2">  1       21 0.31498716E+00 0.46688463E+03</pdfrwt>
<totfact> 0.19899900E+02</totfact>
</mgrwt>
</event>
<event>
 6    1  0.9598567E-004  0.4432610E+03  0.7818608E-02  0.1029841E+00
         21   -1    0    0  503  502  0.00000000000E+00  0.00000000000E+00  0.15149203615E+04  0.15149203615E+04  0.00000000000E+00 0.  1.
         21   -1    0    0  501  503 -0.00000000000E+00 -0.00000000000E+00 -0.15186957452E+03  0.15186957452E+03  0.00000000000E+00 0. -1.
    9000007    2    1    2  501    0 -0.18675896872E+03 -0.23409310726E+02  0.36137880161E+03  0.57190470253E+03  0.40131464252E+03 0.  0.
    9000005    1    3    3    0    0 -0.18465878679E+03  0.74540961870E+02  0.17258448032E+01  0.19914618015E+03  0.99999687468E+00 0.  0.
          4    1    3    3  501    0 -0.21001819282E+01 -0.97950272596E+02  0.35965295681E+03  0.37275852238E+03  0.00000000000E+00 0.  1.
   -9000007    1    1    2    0  502  0.18675896872E+03  0.23409310726E+02  0.10016719854E+04  0.10948852335E+04  0.40000000000E+03 0.  1.
<mgrwt>
<rscale>  2 0.44296327E+03</rscale>
<asrwt>0</asrwt>
<pdfrwt beam="1">  1       21 0.23306466E+00 0.44326104E+03</pdfrwt>
<pdfrwt beam="2">  1       21 0.23364551E-01 0.44326104E+03</pdfrwt>
<totfact> 0.12006569E+03</totfact>
</mgrwt>
</event>
<event>
 6    1  0.9598567E-004  0.4105565E+03  0.7818608E-02  0.1040193E+00
         21   -1    0    0  503  502  0.00000000000E+00  0.00000000000E+00  0.46413951889E+03  0.46413951889E+03  0.00000000000E+00 0.  1.
         21   -1    0    0  501  503 -0.00000000000E+00 -0.00000000000E+00 -0.38471813984E+03  0.38471813984E+03  0.00000000000E+00 0.  1.
    9000007    2    1    2  501    0  0.84577368571E+02  0.36259685027E+02 -0.60978515096E+02  0.41506021025E+03  0.40011061320E+03 0.  0.
    9000005    1    3    3    0    0  0.18370073835E+02  0.22724949990E+02 -0.23061400874E+03  0.23246011268E+03  0.99999687468E+00 0.  0.
          4    1    3    3  501    0  0.66207294735E+02  0.13534735038E+02  0.16963549364E+03  0.18260009757E+03  0.00000000000E+00 0.  1.
   -9000007    1    1    2    0  502 -0.84577368571E+02 -0.36259685027E+02  0.14039989415E+03  0.43379744848E+03  0.40000000000E+03 0. -1.
<mgrwt>
<rscale>  2 0.41052950E+03</rscale>
<asrwt>0</asrwt>
<pdfrwt beam="1">  1       21 0.71406080E-01 0.41055645E+03</pdfrwt>
<pdfrwt beam="2">  1       21 0.59187406E-01 0.41055645E+03</pdfrwt>
<totfact> 0.42059748E+03</totfact>
</mgrwt>
</event>
<event>
 6    1  0.9598567E-004  0.4653097E+03  0.7818608E-02  0.1023268E+00
         21   -1    0    0  503  502  0.00000000000E+00  0.00000000000E+00  0.66653497686E+03  0.66653497686E+03  0.00000000000E+00 0. -1.
         21   -1    0    0  501  503 -0.00000000000E+00 -0.00000000000E+00 -0.33921504200E+03  0.33921504200E+03  0.00000000000E+00 0. -1.
    9000007    2    1    2  501    0  0.16692575042E+03 -0.16926002346E+03  0.59526589304E+02  0.46888277491E+03  0.39974301755E+03 0.  0.
    9000005    1    3    3    0    0  0.22394944947E+02 -0.24894557049E+03  0.13867360025E+03  0.28584400996E+03  0.99999687468E+00 0.  0.
          4    1    3    3  501    0  0.14453080547E+03  0.79685547030E+02 -0.79147010946E+02  0.18303876496E+03  0.00000000000E+00 0.  1.
   -9000007    1    1    2    0  502 -0.16692575042E+03  0.16926002346E+03  0.26779334555E+03  0.53686724394E+03  0.40000000000E+03 0. -1.
<mgrwt>
<rscale>  2 0.46525451E+03</rscale>
<asrwt>0</asrwt>
<pdfrwt beam="1">  1       21 0.10254384E+00 0.46530975E+03</pdfrwt>
<pdfrwt beam="2">  1       21 0.52186930E-01 0.46530975E+03</pdfrwt>
<totfact> 0.23170739E+03</totfact>
</mgrwt>
</event>
<event>
 6    1  0.9598567E-004  0.5673545E+03  0.7818608E-02  0.9975867E-01
         21   -1    0    0  503  502  0.00000000000E+00  0.00000000000E+00  0.30670297141E+03  0.30670297141E+03  0.00000000000E+00 0.  1.
         21   -1    0    0  501  503 -0.00000000000E+00 -0.00000000000E+00 -0.11757293259E+04  0.11757293259E+04  0.00000000000E+00 0. -1.
    9000007    2    1    2  501    0 -0.39215906165E+03  0.90013540890E+02 -0.67817826697E+03  0.88383881283E+03  0.39919183121E+03 0.  0.
    9000005    1    3    3    0    0 -0.35016707415E+03 -0.94437257749E+02 -0.53610038256E+03  0.64725574207E+03  0.99999687468E+00 0.  0.
          4    1    3    3  501    0 -0.41991987501E+02  0.18445079864E+03 -0.14207788441E+03  0.23658307076E+03  0.00000000000E+00 0.  1.
   -9000007    1    1    2    0  502  0.39215906165E+03 -0.90013540890E+02 -0.19084808757E+03  0.59859348452E+03  0.40000000000E+03 0.  1.
<mgrwt>
<rscale>  2 0.56721211E+03</rscale>
<asrwt>0</asrwt>
<pdfrwt beam="1">  1       21 0.47185074E-01 0.56735453E+03</pdfrwt>
<pdfrwt beam="2">  1       21 0.18088143E+00 0.56735453E+03</pdfrwt>
<totfact> 0.61102720E+02</totfact>
</mgrwt>
</event>
<event>
 6    1  0.9598567E-004  0.4851989E+03  0.7818608E-02  0.1017737E+00
         21   -1    0    0  503  502  0.00000000000E+00  0.00000000000E+00  0.11463564741E+04  0.11463564741E+04  0.00000000000E+00 0.  1.
         21   -1    0    0  501  503 -0.00000000000E+00 -0.00000000000E+00 -0.21205574914E+03  0.21205574914E+03  0.00000000000E+00 0.  1.
    9000007    2    1    2  501    0 -0.66463148738E+02 -0.26645936990E+03  0.34515712805E+03  0.59519002510E+03  0.39962454503E+03 0.  0.
    9000005    1    3    3    0    0  0.62210940710E+02  0.47567594502E+02  0.21992438683E+03  0.23345366373E+03  0.99999687468E+00 0.  0.
          4    1    3    3  501    0 -0.12867408945E+03 -0.31402696440E+03  0.12523274122E+03  0.36173636137E+03  0.00000000000E+00 0.  1.
   -9000007    1    1    2    0  502  0.66463148738E+02  0.26645936990E+03  0.58914359686E+03  0.76322219810E+03  0.40000000000E+03 0.  1.
<mgrwt>
<rscale>  2 0.48512148E+03</rscale>
<asrwt>0</asrwt>
<pdfrwt beam="1">  1       21 0.17636253E+00 0.48519887E+03</pdfrwt>
<pdfrwt beam="2">  1       21 0.32623962E-01 0.48519887E+03</pdfrwt>
<totfact> 0.14530087E+03</totfact>
</mgrwt>
</event>
<event>
 6    1  0.9598567E-004  0.5804401E+03  0.7818608E-02  0.9946918E-01
         21   -1    0    0  503  502  0.00000000000E+00  0.00000000000E+00  0.41480234369E+03  0.41480234369E+03  0.00000000000E+00 0.  1.
         21   -1    0    0  501  503 -0.00000000000E+00 -0.00000000000E+00 -0.81399041633E+03  0.81399041633E+03  0.00000000000E+00 0.  1.
    9000007    2    1    2  501    0  0.17386558129E+03 -0.38299015216E+03 -0.22983795677E+03  0.62415223975E+03  0.39978723718E+03 0.  0.
    9000005    1    3    3    0    0  0.77084509538E+02 -0.13755379288E+03  0.11121979159E+03  0.19296090169E+03  0.99999687468E+00 0.  0.
          4    1    3    3  501    0  0.96781071749E+02 -0.24543635928E+03 -0.34105774836E+03  0.43119133806E+03  0.00000000000E+00 0.  1.
   -9000007    1    1    2    0  502 -0.17386558129E+03  0.38299015216E+03 -0.16935011587E+03  0.60464052027E+03  0.40000000000E+03 0.  1.
<mgrwt>
<rscale>  2 0.58040344E+03</rscale>
<asrwt>0</asrwt>
<pdfrwt beam="1">  1       21 0.63815746E-01 0.58044009E+03</pdfrwt>
<pdfrwt beam="2">  1       21 0.12522929E+00 0.58044009E+03</pdfrwt>
<totfact> 0.86888713E+02</totfact>
</mgrwt>
</event>
<event>
 6    1  0.9598567E-004  0.4649836E+03  0.7818608E-02  0.1023421E+00
         21   -1    0    0  503  502  0.00000000000E+00  0.00000000000E+00  0.21410503154E+03  0.21410503154E+03  0.00000000000E+00 0.  1.
         21   -1    0    0  501  503 -0.00000000000E+00 -0.00000000000E+00 -0.15566885199E+04  0.15566885199E+04  0.00000000000E+00 0.  1.
    9000007    2    1    2  501    0 -0.11037117675E+02  0.23474671992E+03 -0.11976622402E+04  0.12847585644E+04  0.40122548117E+03 0.  0.
    9000005    1    3    3    0    0 -0.49721825016E+02  0.96198043601E+02 -0.35846329775E+02  0.11407139356E+03  0.99999687468E+00 0.  0.
          4    1    3    3  501    0  0.38684707341E+02  0.13854867632E+03 -0.11618159104E+04  0.11706871708E+04  0.00000000000E+00 0.  1.
   -9000007    1    1    2    0  502  0.11037117675E+02 -0.23474671992E+03 -0.14492124821E+03  0.48603498708E+03  0.40000000000E+03 0.  1.
<mgrwt>
<rscale>  2 0.46471909E+03</rscale>
<asrwt>0</asrwt>
<pdfrwt beam="1">  1       21 0.32939235E-01 0.46498358E+03</pdfrwt>
<pdfrwt beam="2">  1       21 0.23949054E+00 0.46498358E+03</pdfrwt>
<totfact> 0.55063287E+02</totfact>
</mgrwt>
</event>
<event>
 6    1  0.9598567E-004  0.4059300E+03  0.7818608E-02  0.1041807E+00
         21   -1    0    0  503  502  0.00000000000E+00  0.00000000000E+00  0.12292803464E+03  0.12292803464E+03  0.00000000000E+00 0.  1.
         21   -1    0    0  501  503 -0.00000000000E+00 -0.00000000000E+00 -0.14119388807E+04  0.14119388807E+04  0.00000000000E+00 0.  1.
    9000007    2    1    2  501    0  0.41245543553E+02 -0.55479664951E+02 -0.81951301355E+03  0.91421612559E+03  0.39926226571E+03 0.  0.
    9000005    1    3    3    0    0  0.19955136704E+03 -0.29615377605E+02 -0.24312726767E+03  0.31592671137E+03  0.99999687468E+00 0.  0.
          4    1    3    3  501    0 -0.15830582349E+03 -0.25864287345E+02 -0.57638574588E+03  0.59828941422E+03  0.00000000000E+00 0.  1.
   -9000007    1    1    2    0  502 -0.41245543553E+02  0.55479664951E+02 -0.46949783254E+03  0.62065078977E+03  0.40000000000E+03 0.  1.
<mgrwt>
<rscale>  2 0.40574817E+03</rscale>
<asrwt>0</asrwt>
<pdfrwt beam="1">  1       21 0.18912005E-01 0.40593003E+03</pdfrwt>
<pdfrwt beam="2">  1       21 0.21722137E+00 0.40593003E+03</pdfrwt>
<totfact> 0.23058343E+03</totfact>
</mgrwt>
</event>
<event>
 6    1  0.9598567E-004  0.5151595E+03  0.7818608E-02  0.1009899E+00
         21   -1    0    0  503  502  0.00000000000E+00  0.00000000000E+00  0.60135137720E+03  0.60135137720E+03  0.00000000000E+00 0.  1.
         21   -1    0    0  501  503 -0.00000000000E+00 -0.00000000000E+00 -0.13421237648E+04  0.13421237648E+04  0.00000000000E+00 0.  1.
    9000007    2    1    2  501    0  0.30884572297E+03  0.99799222210E+02 -0.11665069430E+04  0.12751971482E+04  0.40005468795E+03 0.  0.
    9000005    1    3    3    0    0  0.29510680029E+03  0.23026061339E+03 -0.74497701488E+03  0.83372640977E+03  0.99999687468E+00 0.  0.
          4    1    3    3  501    0  0.13738922681E+02 -0.13046139118E+03 -0.42152992808E+03  0.44147073838E+03  0.00000000000E+00 0.  1.
   -9000007    1    1    2    0  502 -0.30884572297E+03 -0.99799222210E+02  0.42573455540E+03  0.66827799381E+03  0.40000000000E+03 0.  1.
<mgrwt>
<rscale>  2 0.51514889E+03</rscale>
<asrwt>0</asrwt>
<pdfrwt beam="1">  1       21 0.92515597E-01 0.51515951E+03</pdfrwt>
<pdfrwt beam="2">  1       21 0.20648058E+00 0.51515951E+03</pdfrwt>
<totfact> 0.92232482E+01</totfact>
</mgrwt>
</event>
<event>
 6    1  0.9598567E-004  0.5004459E+03  0.7818608E-02  0.1013684E+00
         21   -1    0    0  503  502  0.00000000000E+00  0.00000000000E+00  0.14400587717E+03  0.14400587717E+03  0.00000000000E+00 0. -1.
         21   -1    0    0  501  503 -0.00000000000E+00 -0.00000000000E+00 -0.26033190143E+04  0.26033190143E+04  0.00000000000E+00 0. -1.
    9000007    2    1    2  501    0 -0.93942609157E+02 -0.28512584933E+03 -0.20218788578E+04  0.20828922669E+04  0.40040494053E+03 0.  0.
    9000005    1    3    3    0    0 -0.11110854730E+03 -0.30145644850E+03 -0.20319171162E+04  0.20571604863E+04  0.99999687468E+00 0.  0.
          4    1    3    3  501    0  0.17165938147E+02  0.16330599162E+02  0.10038258387E+02  0.25731780601E+02  0.00000000000E+00 0.  1.
   -9000007    1    1    2    0  502  0.93942609157E+02  0.28512584933E+03 -0.43743427935E+03  0.66443262452E+03  0.40000000000E+03 0. -1.
<mgrwt>
<rscale>  2 0.50036488E+03</rscale>
<asrwt>0</asrwt>
<pdfrwt beam="1">  1       21 0.22154753E-01 0.50044588E+03</pdfrwt>
<pdfrwt beam="2">  1       21 0.40051058E+00 0.50044588E+03</pdfrwt>
<totfact> 0.12049692E+02</totfact>
</mgrwt>
</event>
<event>
 6    1  0.9598567E-004  0.4341174E+03  0.7818608E-02  0.1032613E+00
         21   -1    0    0  503  502  0.00000000000E+00  0.00000000000E+00  0.25362367004E+03  0.25362367004E+03  0.00000000000E+00 0. -1.
         21   -1    0    0  501  503 -0.00000000000E+00 -0.00000000000E+00 -0.12155733635E+04  0.12155733635E+04  0.00000000000E+00 0.  1.
    9000007    2    1    2  501    0  0.34727724399E+02  0.16508156896E+03 -0.93926465936E+03  0.10344873028E+04  0.39935941213E+03 0.  0.
    9000005    1    3    3    0    0  0.27185954049E+02  0.23246531024E+03 -0.25214749659E+03  0.34403278418E+03  0.99999687468E+00 0.  0.
          4    1    3    3  501    0  0.75417703500E+01 -0.67383741279E+02 -0.68711716277E+03  0.69045451860E+03  0.00000000000E+00 0.  1.
   -9000007    1    1    2    0  502 -0.34727724399E+02 -0.16508156896E+03 -0.22685034110E+02  0.43470973077E+03  0.40000000000E+03 0. -1.
<mgrwt>
<rscale>  2 0.43396981E+03</rscale>
<asrwt>0</asrwt>
<pdfrwt beam="1">  1       21 0.39019026E-01 0.43411743E+03</pdfrwt>
<pdfrwt beam="2">  1       21 0.18701129E+00 0.43411743E+03</pdfrwt>
<totfact> 0.86969447E+02</totfact>
</mgrwt>
</event>
<event>
 6    1  0.9598567E-004  0.4357669E+03  0.7818608E-02  0.1032110E+00
         21   -1    0    0  503  502  0.00000000000E+00  0.00000000000E+00  0.86705580321E+03  0.86705580321E+03  0.00000000000E+00 0. -1.
         21   -1    0    0  501  503 -0.00000000000E+00 -0.00000000000E+00 -0.21967415734E+03  0.21967415734E+03  0.00000000000E+00 0. -1.
    9000007    2    1    2  501    0 -0.11261937589E+03  0.13118566170E+03  0.28617982800E+03  0.52072682019E+03  0.39920511726E+03 0.  0.
    9000005    1    3    3    0    0 -0.10323143427E+03 -0.70794512539E+02  0.29278354140E+03  0.31842078157E+03  0.99999687468E+00 0.  0.
          4    1    3    3  501    0 -0.93879416244E+01  0.20198017424E+03 -0.66037133952E+01  0.20230603863E+03  0.00000000000E+00 0.  1.
   -9000007    1    1    2    0  502  0.11261937589E+03 -0.13118566170E+03  0.36120181787E+03  0.56600314035E+03  0.40000000000E+03 0. -1.
<mgrwt>
<rscale>  2 0.43558442E+03</rscale>
<asrwt>0</asrwt>
<pdfrwt beam="1">  1       21 0.13339320E+00 0.43576691E+03</pdfrwt>
<pdfrwt beam="2">  1       21 0.33796025E-01 0.43576691E+03</pdfrwt>
<totfact> 0.29715077E+03</totfact>
</mgrwt>
</event>
<event>
 6    1  0.9598567E-004  0.5049077E+03  0.7818608E-02  0.1012545E+00
         21   -1    0    0  503  502  0.00000000000E+00  0.00000000000E+00  0.45172745420E+03  0.45172745420E+03  0.00000000000E+00 0. -1.
         21   -1    0    0  501  503 -0.00000000000E+00 -0.00000000000E+00 -0.15995164722E+04  0.15995164722E+04  0.00000000000E+00 0.  1.
    9000007    2    1    2  501    0  0.28576097102E+03  0.11520630893E+03 -0.13991268496E+04  0.14872381359E+04  0.39923615245E+03 0.  0.
    9000005    1    3    3    0    0  0.21088550442E+03 -0.12306930916E+03 -0.54196329564E+03  0.59442742589E+03  0.99999687468E+00 0.  0.
          4    1    3    3  501    0  0.74875466592E+02  0.23827561809E+03 -0.85716355397E+03  0.89281071002E+03  0.00000000000E+00 0.  1.
   -9000007    1    1    2    0  502 -0.28576097102E+03 -0.11520630893E+03  0.25133783157E+03  0.56400579053E+03  0.40000000000E+03 0. -1.
<mgrwt>
<rscale>  2 0.50475644E+03</rscale>
<asrwt>0</asrwt>
<pdfrwt beam="1">  1       21 0.69496531E-01 0.50490774E+03</pdfrwt>
<pdfrwt beam="2">  1       21 0.24607946E+00 0.50490774E+03</pdfrwt>
<totfact> 0.10067398E+02</totfact>
</mgrwt>
</event>
<event>
 6    1  0.9598567E-004  0.5642855E+03  0.7818608E-02  0.9983181E-01
         21   -1    0    0  503  502  0.00000000000E+00  0.00000000000E+00  0.41035661719E+03  0.41035661719E+03  0.00000000000E+00 0.  1.
         21   -1    0    0  501  503 -0.00000000000E+00 -0.00000000000E+00 -0.11014898295E+04  0.11014898295E+04  0.00000000000E+00 0.  1.
    9000007    2    1    2  501    0 -0.38762158598E+03 -0.90375135274E+02 -0.75741513558E+03  0.94368145979E+03  0.39804378020E+03 0.  0.
    9000005    1    3    3    0    0 -0.31790469559E+03  0.10588000763E+03 -0.34093463771E+03  0.47802865884E+03  0.99999687468E+00 0.  0.
          4    1    3    3  501    0 -0.69716890391E+02 -0.19625514290E+03 -0.41648049787E+03  0.46565280095E+03  0.00000000000E+00 0.  1.
   -9000007    1    1    2    0  502  0.38762158598E+03  0.90375135274E+02  0.66281923272E+02  0.56816498691E+03  0.40000000000E+03 0. -1.
<mgrwt>
<rscale>  2 0.56393896E+03</rscale>
<asrwt>0</asrwt>
<pdfrwt beam="1">  1       21 0.63131788E-01 0.56428553E+03</pdfrwt>
<pdfrwt beam="2">  1       21 0.16945997E+00 0.56428553E+03</pdfrwt>
<totfact> 0.39338908E+02</totfact>
</mgrwt>
</event>
<event>
 6    1  0.9598567E-004  0.4459664E+03  0.7818608E-02  0.1028977E+00
         21   -1    0    0  503  502  0.00000000000E+00  0.00000000000E+00  0.35260377806E+03  0.35260377806E+03  0.00000000000E+00 0.  1.
         21   -1    0    0  501  503 -0.00000000000E+00 -0.00000000000E+00 -0.65184167279E+03  0.65184167279E+03  0.00000000000E+00 0.  1.
    9000007    2    1    2  501    0  0.88981966857E+02  0.17597794106E+03 -0.33463184939E+03  0.55707674587E+03  0.39933695045E+03 0.  0.
    9000005    1    3    3    0    0  0.95605158903E+02  0.16010996346E+03  0.32710845258E+02  0.18933184149E+03  0.99999687468E+00 0.  0.
          4    1    3    3  501    0 -0.66231920455E+01  0.15867977600E+02 -0.36734269465E+03  0.36774490438E+03  0.00000000000E+00 0.  1.
   -9000007    1    1    2    0  502 -0.88981966857E+02 -0.17597794106E+03  0.35393954658E+02  0.44736870498E+03  0.40000000000E+03 0.  1.
<mgrwt>
<rscale>  2 0.44581767E+03</rscale>
<asrwt>0</asrwt>
<pdfrwt beam="1">  1       21 0.54246735E-01 0.44596640E+03</pdfrwt>
<pdfrwt beam="2">  1       21 0.10028333E+00 0.44596640E+03</pdfrwt>
<totfact> 0.22676720E+03</totfact>
</mgrwt>
</event>
<event>
 6    1  0.9598567E-004  0.4206516E+03  0.7818608E-02  0.1036875E+00
         21   -1    0    0  503  502  0.00000000000E+00  0.00000000000E+00  0.71698571953E+03  0.71698571953E+03  0.00000000000E+00 0. -1.
         21   -1    0    0  501  503 -0.00000000000E+00 -0.00000000000E+00 -0.24806384420E+03  0.24806384420E+03  0.00000000000E+00 0. -1.
    9000007    2    1    2  501    0 -0.10057518095E+03 -0.81331528017E+02  0.19800444876E+03  0.46492314322E+03  0.40027188622E+03 0.  0.
    9000005    1    3    3    0    0 -0.10365260652E+03 -0.70835335843E+02  0.31932035680E+03  0.34311513797E+03  0.99999687468E+00 0.  0.
          4    1    3    3  501    0  0.30774255773E+01 -0.10496192174E+02 -0.12131590804E+03  0.12180800525E+03  0.00000000000E+00 0.  1.
   -9000007    1    1    2    0  502  0.10057518095E+03  0.81331528017E+02  0.27091742657E+03  0.50012642051E+03  0.40000000000E+03 0. -1.
<mgrwt>
<rscale>  2 0.42058691E+03</rscale>
<asrwt>0</asrwt>
<pdfrwt beam="1">  1       21 0.11030549E+00 0.42065160E+03</pdfrwt>
<pdfrwt beam="2">  1       21 0.38163669E-01 0.42065160E+03</pdfrwt>
<totfact> 0.37866159E+03</totfact>
</mgrwt>
</event>
<event>
 6    1  0.9598567E-004  0.4322298E+03  0.7818608E-02  0.1033175E+00
         21   -1    0    0  503  502  0.00000000000E+00  0.00000000000E+00  0.23955029438E+03  0.23955029438E+03  0.00000000000E+00 0.  1.
         21   -1    0    0  501  503 -0.00000000000E+00 -0.00000000000E+00 -0.16289543079E+04  0.16289543079E+04  0.00000000000E+00 0.  1.
    9000007    2    1    2  501    0  0.11671714679E+03  0.11488990635E+03 -0.13692713207E+04  0.14358061990E+04  0.39976606710E+03 0.  0.
    9000005    1    3    3    0    0  0.20489229570E+02 -0.14743843214E+03 -0.38973621403E+03  0.41719685560E+03  0.99999687468E+00 0.  0.
          4    1    3    3  501    0  0.96227917220E+02  0.26232833849E+03 -0.97953510667E+03  0.10186093434E+04  0.00000000000E+00 0.  1.
   -9000007    1    1    2    0  502 -0.11671714679E+03 -0.11488990635E+03 -0.20132692857E+02  0.43269840334E+03  0.40000000000E+03 0.  1.
<mgrwt>
<rscale>  2 0.43217565E+03</rscale>
<asrwt>0</asrwt>
<pdfrwt beam="1">  1       21 0.36853891E-01 0.43222978E+03</pdfrwt>
<pdfrwt beam="2">  1       21 0.25060836E+00 0.43222978E+03</pdfrwt>
<totfact> 0.38122396E+02</totfact>
</mgrwt>
</event>
<event>
 6    1  0.9598567E-004  0.4007732E+03  0.7818608E-02  0.1043539E+00
         21   -1    0    0  503  502  0.00000000000E+00  0.00000000000E+00  0.49488519414E+03  0.49488519414E+03  0.00000000000E+00 0.  1.
         21   -1    0    0  501  503 -0.00000000000E+00 -0.00000000000E+00 -0.44657451959E+03  0.44657451959E+03  0.00000000000E+00 0.  1.
    9000007    2    1    2  501    0  0.15450678965E+02  0.11494117768E+02 -0.22214636992E+03  0.45822286586E+03  0.40031031327E+03 0.  0.
    9000005    1    3    3    0    0 -0.12240000831E+03  0.48308221000E+02  0.58021221042E+02  0.14381553579E+03  0.99999687468E+00 0.  0.
          4    1    3    3  501    0  0.13785068727E+03 -0.36814103232E+02 -0.28016759096E+03  0.31440733007E+03  0.00000000000E+00 0.  1.
   -9000007    1    1    2    0  502 -0.15450678965E+02 -0.11494117768E+02  0.27045704447E+03  0.48323684786E+03  0.40000000000E+03 0.  1.
<mgrwt>
<rscale>  2 0.40069572E+03</rscale>
<asrwt>0</asrwt>
<pdfrwt beam="1">  1       21 0.76136184E-01 0.40077323E+03</pdfrwt>
<pdfrwt beam="2">  1       21 0.68703772E-01 0.40077323E+03</pdfrwt>
<totfact> 0.26258063E+03</totfact>
</mgrwt>
</event>
<event>
 6    1  0.9598567E-004  0.5319749E+03  0.7818608E-02  0.1005755E+00
         21   -1    0    0  503  502  0.00000000000E+00  0.00000000000E+00  0.70454236153E+03  0.70454236153E+03  0.00000000000E+00 0.  1.
         21   -1    0    0  501  503 -0.00000000000E+00 -0.00000000000E+00 -0.41068117406E+03  0.41068117406E+03  0.00000000000E+00 0.  1.
    9000007    2    1    2  501    0 -0.15976270815E+03 -0.31219567082E+03  0.64335127103E+02  0.53585105421E+03  0.40000885481E+03 0.  0.
    9000005    1    3    3    0    0 -0.15919741351E+03  0.25960655236E+02  0.10911375688E+03  0.19474235293E+03  0.99999687468E+00 0.  0.
          4    1    3    3  501    0 -0.56529463601E+00 -0.33815632605E+03 -0.44778629774E+02  0.34110870129E+03  0.00000000000E+00 0.  1.
   -9000007    1    1    2    0  502  0.15976270815E+03  0.31219567082E+03  0.22952606037E+03  0.57937248138E+03  0.40000000000E+03 0.  1.
<mgrwt>
<rscale>  2 0.53197328E+03</rscale>
<asrwt>0</asrwt>
<pdfrwt beam="1">  1       21 0.10839113E+00 0.53197495E+03</pdfrwt>
<pdfrwt beam="2">  1       21 0.63181719E-01 0.53197495E+03</pdfrwt>
<totfact> 0.13014613E+03</totfact>
</mgrwt>
</event>
<event>
 6    1  0.9598567E-004  0.5912424E+03  0.7818608E-02  0.9923806E-01
         21   -1    0    0  503  502  0.00000000000E+00  0.00000000000E+00  0.19195877023E+03  0.19195877023E+03  0.00000000000E+00 0.  1.
         21   -1    0    0  501  503 -0.00000000000E+00 -0.00000000000E+00 -0.18718782695E+04  0.18718782695E+04  0.00000000000E+00 0.  1.
    9000007    2    1    2  501    0  0.40005157151E+03 -0.17142488024E+03 -0.10106835828E+04  0.11709179721E+04  0.40017476616E+03 0.  0.
    9000005    1    3    3    0    0  0.85165426970E+02 -0.12550899131E+03 -0.73315712928E+03  0.74868286548E+03  0.99999687468E+00 0.  0.
          4    1    3    3  501    0  0.31488614454E+03 -0.45915888924E+02 -0.27752645349E+03  0.42223510662E+03  0.00000000000E+00 0.  1.
   -9000007    1    1    2    0  502 -0.40005157151E+03  0.17142488024E+03 -0.66923591651E+03  0.89291906765E+03  0.40000000000E+03 0.  1.
<mgrwt>
<rscale>  2 0.59121284E+03</rscale>
<asrwt>0</asrwt>
<pdfrwt beam="1">  1       21 0.29532119E-01 0.59124241E+03</pdfrwt>
<pdfrwt beam="2">  1       21 0.28798127E+00 0.59124241E+03</pdfrwt>
<totfact> 0.32592247E+02</totfact>
</mgrwt>
</event>
<event>
 6    1  0.9598567E-004  0.5753560E+03  0.7818608E-02  0.9957906E-01
         21   -1    0    0  503  502  0.00000000000E+00  0.00000000000E+00  0.15773583712E+04  0.15773583712E+04  0.00000000000E+00 0.  1.
         21   -1    0    0  501  503 -0.00000000000E+00 -0.00000000000E+00 -0.20987247621E+03  0.20987247621E+03  0.00000000000E+00 0.  1.
    9000007    2    1    2  501    0 -0.24793186420E+03 -0.33100502542E+03  0.67671343944E+03  0.88823077985E+03  0.39997287785E+03 0.  0.
    9000005    1    3    3    0    0 -0.16603252138E+03 -0.28428401546E+03  0.16565444832E+03  0.36854659928E+03  0.99999687468E+00 0.  0.
          4    1    3    3  501    0 -0.81899342820E+02 -0.46721009959E+02  0.51105899112E+03  0.51968418057E+03  0.00000000000E+00 0.  1.
   -9000007    1    1    2    0  502  0.24793186420E+03  0.33100502542E+03  0.69077245558E+03  0.89900006759E+03  0.40000000000E+03 0.  1.
<mgrwt>
<rscale>  2 0.57535129E+03</rscale>
<asrwt>0</asrwt>
<pdfrwt beam="1">  1       21 0.24267051E+00 0.57535601E+03</pdfrwt>
<pdfrwt beam="2">  1       21 0.32288074E-01 0.57535601E+03</pdfrwt>
<totfact> 0.52133820E+02</totfact>
</mgrwt>
</event>
<event>
 6    1  0.9598567E-004  0.1391724E+04  0.7818608E-02  0.8959923E-01
         21   -1    0    0  503  502  0.00000000000E+00  0.00000000000E+00  0.18930710657E+04  0.18930710657E+04  0.00000000000E+00 0.  1.
         21   -1    0    0  501  503 -0.00000000000E+00 -0.00000000000E+00 -0.13749899277E+04  0.13749899277E+04  0.00000000000E+00 0. -1.
    9000007    2    1    2  501    0  0.11641934569E+04  0.64818407461E+03 -0.56793725597E+03  0.15031459949E+04  0.40175384944E+03 0.  0.
    9000005    1    3    3    0    0  0.95613166923E+03  0.35554984408E+03 -0.50629587014E+03  0.11388327220E+04  0.99999687468E+00 0.  0.
          4    1    3    3  501    0  0.20806178766E+03  0.29263423053E+03 -0.61641385831E+02  0.36431327290E+03  0.00000000000E+00 0.  1.
   -9000007    1    1    2    0  502 -0.11641934569E+04 -0.64818407461E+03  0.10860183940E+04  0.17649149984E+04  0.40000000000E+03 0.  1.
<mgrwt>
<rscale>  2 0.13915975E+04</rscale>
<asrwt>0</asrwt>
<pdfrwt beam="1">  1       21 0.29124170E+00 0.13917238E+04</pdfrwt>
<pdfrwt beam="2">  1       21 0.21153691E+00 0.13917238E+04</pdfrwt>
<totfact> 0.20259638E+00</totfact>
</mgrwt>
</event>
<event>
 6    1  0.9598567E-004  0.4058277E+03  0.7818608E-02  0.1041816E+00
         21   -1    0    0  503  502  0.00000000000E+00  0.00000000000E+00  0.98192336669E+03  0.98192336669E+03  0.00000000000E+00 0. -1.
         21   -1    0    0  501  503 -0.00000000000E+00 -0.00000000000E+00 -0.22588248096E+03  0.22588248096E+03  0.00000000000E+00 0. -1.
    9000007    2    1    2  501    0  0.19991429746E+02  0.65547519609E+02  0.70991864881E+02  0.41157202801E+03  0.39956921149E+03 0.  0.
    9000005    1    3    3    0    0 -0.91201573261E+02  0.20567837027E+03  0.21817572164E+02  0.22604938710E+03  0.99999687468E+00 0.  0.
          4    1    3    3  501    0  0.11119300301E+03 -0.14013085066E+03  0.49174292717E+02  0.18552264090E+03  0.00000000000E+00 0.  1.
   -9000007    1    1    2    0  502 -0.19991429746E+02 -0.65547519609E+02  0.68504902085E+03  0.79623381965E+03  0.40000000000E+03 0. -1.
<mgrwt>
<rscale>  2 0.40572152E+03</rscale>
<asrwt>0</asrwt>
<pdfrwt beam="1">  1       21 0.15106513E+00 0.40582772E+03</pdfrwt>
<pdfrwt beam="2">  1       21 0.34751151E-01 0.40582772E+03</pdfrwt>
<totfact> 0.20416934E+03</totfact>
</mgrwt>
</event>
<event>
 6    1  0.9598567E-004  0.4859877E+03  0.7818608E-02  0.1017513E+00
         21   -1    0    0  503  502  0.00000000000E+00  0.00000000000E+00  0.23478839872E+03  0.23478839872E+03  0.00000000000E+00 0.  1.
         21   -1    0    0  501  503 -0.00000000000E+00 -0.00000000000E+00 -0.12796056541E+04  0.12796056541E+04  0.00000000000E+00 0.  1.
    9000007    2    1    2  501    0  0.57847278051E+02  0.26961253590E+03 -0.87284131803E+03  0.99901753987E+03  0.40018352216E+03 0.  0.
    9000005    1    3    3    0    0  0.71249964686E+01 -0.10588130240E+03 -0.16600050304E+03  0.19702482781E+03  0.99999687468E+00 0.  0.
          4    1    3    3  501    0  0.50722281582E+02  0.37549383830E+03 -0.70684081499E+03  0.80199271206E+03  0.00000000000E+00 0.  1.
   -9000007    1    1    2    0  502 -0.57847278051E+02 -0.26961253590E+03 -0.17197593737E+03  0.51537651298E+03  0.40000000000E+03 0.  1.
<mgrwt>
<rscale>  2 0.48594995E+03</rscale>
<asrwt>0</asrwt>
<pdfrwt beam="1">  1       21 0.36121291E-01 0.48598773E+03</pdfrwt>
<pdfrwt beam="2">  1       21 0.19686241E+00 0.48598773E+03</pdfrwt>
<totfact> 0.85210992E+02</totfact>
</mgrwt>
</event>
<event>
 6    1  0.9598567E-004  0.4424433E+03  0.7818608E-02  0.1030287E+00
         21   -1    0    0  503  502  0.00000000000E+00  0.00000000000E+00  0.74070174849E+03  0.74070174849E+03  0.00000000000E+00 0.  1.
         21   -1    0    0  501  503 -0.00000000000E+00 -0.00000000000E+00 -0.42158864055E+03  0.42158864055E+03  0.00000000000E+00 0.  1.
    9000007    2    1    2  501    0 -0.11777895481E+03  0.13628517436E+03 -0.19752163029E+03  0.48453159441E+03  0.40411698876E+03 0.  0.
    9000005    1    3    3    0    0  0.40017619775E+02 -0.82500106638E+02 -0.19419655913E+03  0.21475795924E+03  0.99999687468E+00 0.  0.
          4    1    3    3  501    0 -0.15779657458E+03  0.21878528100E+03 -0.33250711637E+01  0.26977363517E+03  0.00000000000E+00 0.  1.
   -9000007    1    1    2    0  502  0.11777895481E+03 -0.13628517436E+03  0.51663473824E+03  0.67775879463E+03  0.40000000000E+03 0.  1.
<mgrwt>
<rscale>  2 0.44150100E+03</rscale>
<asrwt>0</asrwt>
<pdfrwt beam="1">  1       21 0.11395411E+00 0.44244330E+03</pdfrwt>
<pdfrwt beam="2">  1       21 0.64859791E-01 0.44244330E+03</pdfrwt>
<totfact> 0.11208104E+03</totfact>
</mgrwt>
</event>
<event>
 6    1  0.9598567E-004  0.4035036E+03  0.7818608E-02  0.1042739E+00
         21   -1    0    0  503  502  0.00000000000E+00  0.00000000000E+00  0.49572274802E+03  0.49572274802E+03  0.00000000000E+00 0.  1.
         21   -1    0    0  501  503 -0.00000000000E+00 -0.00000000000E+00 -0.44101505360E+03  0.44101505360E+03  0.00000000000E+00 0.  1.
    9000007    2    1    2  501    0  0.14607406395E+02  0.51007616212E+02 -0.21097118901E+03  0.45362247136E+03  0.39805696916E+03 0.  0.
    9000005    1    3    3    0    0  0.18263287919E+03 -0.22782289001E+02 -0.14263275418E+02  0.18460293138E+03  0.99999687468E+00 0.  0.
          4    1    3    3  501    0 -0.16802547280E+03  0.73789905213E+02 -0.19670791359E+03  0.26901953998E+03  0.00000000000E+00 0.  1.
   -9000007    1    1    2    0  502 -0.14607406395E+02 -0.51007616212E+02  0.26567888343E+03  0.48311533026E+03  0.40000000000E+03 0.  1.
<mgrwt>
<rscale>  2 0.40302121E+03</rscale>
<asrwt>0</asrwt>
<pdfrwt beam="1">  1       21 0.76265038E-01 0.40350360E+03</pdfrwt>
<pdfrwt beam="2">  1       21 0.67848470E-01 0.40350360E+03</pdfrwt>
<totfact> 0.26869759E+03</totfact>
</mgrwt>
</event>
<event>
 6    1  0.9598567E-004  0.6083214E+03  0.7818608E-02  0.9888571E-01
         21   -1    0    0  503  502  0.00000000000E+00  0.00000000000E+00  0.55143303037E+03  0.55143303037E+03  0.00000000000E+00 0.  1.
         21   -1    0    0  501  503 -0.00000000000E+00 -0.00000000000E+00 -0.68467102656E+03  0.68467102656E+03  0.00000000000E+00 0.  1.
    9000007    2    1    2  501    0  0.27075807603E+03  0.36979051433E+03 -0.15559038503E+03  0.62737210482E+03  0.39916466498E+03 0.  0.
    9000005    1    3    3    0    0  0.34241669067E+03  0.15082285245E+03 -0.12740753712E+03  0.39525991876E+03  0.99999687468E+00 0.  0.
          4    1    3    3  501    0 -0.71658614638E+02  0.21896766188E+03 -0.28182847911E+02  0.23211218606E+03  0.00000000000E+00 0.  1.
   -9000007    1    1    2    0  502 -0.27075807603E+03 -0.36979051433E+03  0.22352388838E+02  0.60873195210E+03  0.40000000000E+03 0.  1.
<mgrwt>
<rscale>  2 0.60818415E+03</rscale>
<asrwt>0</asrwt>
<pdfrwt beam="1">  1       21 0.84835851E-01 0.60832143E+03</pdfrwt>
<pdfrwt beam="2">  1       21 0.10533400E+00 0.60832143E+03</pdfrwt>
<totfact> 0.69530558E+02</totfact>
</mgrwt>
</event>
<event>
 6    1  0.9598567E-004  0.4147645E+03  0.7818608E-02  0.1038814E+00
         21   -1    0    0  503  502  0.00000000000E+00  0.00000000000E+00  0.83548699835E+03  0.83548699835E+03  0.00000000000E+00 0.  1.
         21   -1    0    0  501  503 -0.00000000000E+00 -0.00000000000E+00 -0.29942147203E+03  0.29942147203E+03  0.00000000000E+00 0.  1.
    9000007    2    1    2  501    0 -0.61141974074E+02  0.91056083553E+02 -0.49479837540E+02  0.41734807259E+03  0.39962683597E+03 0.  0.
    9000005    1    3    3    0    0  0.85468973409E+02  0.18687013078E+03  0.55884914511E+02  0.21295425531E+03  0.99999687468E+00 0.  0.
          4    1    3    3  501    0 -0.14661094748E+03 -0.95814047222E+02 -0.10536475205E+03  0.20439381728E+03  0.00000000000E+00 0.  1.
   -9000007    1    1    2    0  502  0.61141974074E+02 -0.91056083553E+02  0.58554536386E+03  0.71756039780E+03  0.40000000000E+03 0.  1.
<mgrwt>
<rscale>  2 0.41467446E+03</rscale>
<asrwt>0</asrwt>
<pdfrwt beam="1">  1       21 0.12853646E+00 0.41476445E+03</pdfrwt>
<pdfrwt beam="2">  1       21 0.46064842E-01 0.41476445E+03</pdfrwt>
<totfact> 0.17462547E+03</totfact>
</mgrwt>
</event>
<event>
 6    1  0.9598567E-004  0.4300219E+03  0.7818608E-02  0.1033876E+00
         21   -1    0    0  503  502  0.00000000000E+00  0.00000000000E+00  0.65243093137E+03  0.65243093137E+03  0.00000000000E+00 0. -1.
         21   -1    0    0  501  503 -0.00000000000E+00 -0.00000000000E+00 -0.37912729651E+03  0.37912729651E+03  0.00000000000E+00 0. -1.
    9000007    2    1    2  501    0  0.83059894455E+02 -0.13330761597E+03 -0.12270336425E+03  0.44718556434E+03  0.40031106256E+03 0.  0.
    9000005    1    3    3    0    0  0.22050111288E+03 -0.11910597662E+03 -0.16807167043E+03  0.30175496822E+03  0.99999687468E+00 0.  0.
          4    1    3    3  501    0 -0.13744121842E+03 -0.14201639345E+02  0.45368306181E+02  0.14543059612E+03  0.00000000000E+00 0.  1.
   -9000007    1    1    2    0  502 -0.83059894455E+02  0.13330761597E+03  0.39600699912E+03  0.58437266354E+03  0.40000000000E+03 0. -1.
<mgrwt>
<rscale>  2 0.42994947E+03</rscale>
<asrwt>0</asrwt>
<pdfrwt beam="1">  1       21 0.10037399E+00 0.43002188E+03</pdfrwt>
<pdfrwt beam="2">  1       21 0.58327276E-01 0.43002188E+03</pdfrwt>
<totfact> 0.19456879E+03</totfact>
</mgrwt>
</event>
<event>
 6    1  0.9598567E-004  0.4974046E+03  0.7818608E-02  0.1014470E+00
         21   -1    0    0  503  502  0.00000000000E+00  0.00000000000E+00  0.18042761202E+03  0.18042761202E+03  0.00000000000E+00 0.  1.
         21   -1    0    0  501  503 -0.00000000000E+00 -0.00000000000E+00 -0.14281972907E+04  0.14281972907E+04  0.00000000000E+00 0. -1.
    9000007    2    1    2  501    0  0.28910549886E+03 -0.61881464421E+02 -0.78507203891E+03  0.92928668728E+03  0.39978035939E+03 0.  0.
    9000005    1    3    3    0    0  0.11342647040E+03 -0.10680685516E+03 -0.71994970402E+03  0.73661512665E+03  0.99999687468E+00 0.  0.
          4    1    3    3  501    0  0.17567902846E+03  0.44925390739E+02 -0.65122334893E+02  0.19267156063E+03  0.00000000000E+00 0.  1.
   -9000007    1    1    2    0  502 -0.28910549886E+03  0.61881464421E+02 -0.46269763973E+03  0.67933821541E+03  0.40000000000E+03 0.  1.
<mgrwt>
<rscale>  2 0.49736041E+03</rscale>
<asrwt>0</asrwt>
<pdfrwt beam="1">  1       21 0.27758094E-01 0.49740457E+03</pdfrwt>
<pdfrwt beam="2">  1       21 0.21972266E+00 0.49740457E+03</pdfrwt>
<totfact> 0.10167769E+03</totfact>
</mgrwt>
</event>
<event>
 6    1  0.9598567E-004  0.4548801E+03  0.7818608E-02  0.1026290E+00
         21   -1    0    0  503  502  0.00000000000E+00  0.00000000000E+00  0.74111265215E+03  0.74111265215E+03  0.00000000000E+00 0. -1.
         21   -1    0    0  501  503 -0.00000000000E+00 -0.00000000000E+00 -0.30626197753E+03  0.30626197753E+03  0.00000000000E+00 0. -1.
    9000007    2    1    2  501    0  0.99591022904E+02 -0.19234745280E+03  0.61383807717E+02  0.45882266502E+03  0.39979288593E+03 0.  0.
    9000005    1    3    3    0    0  0.21837289729E+03 -0.43848880789E+02  0.12852682222E+03  0.25715674333E+03  0.99999687468E+00 0.  0.
          4    1    3    3  501    0 -0.11878187439E+03 -0.14849857201E+03 -0.67143014507E+02  0.20166592168E+03  0.00000000000E+00 0.  1.
   -9000007    1    1    2    0  502 -0.99591022904E+02  0.19234745280E+03  0.37346686690E+03  0.58855196466E+03  0.40000000000E+03 0. -1.
<mgrwt>
<rscale>  2 0.45483457E+03</rscale>
<asrwt>0</asrwt>
<pdfrwt beam="1">  1       21 0.11401733E+00 0.45488011E+03</pdfrwt>
<pdfrwt beam="2">  1       21 0.47117227E-01 0.45488011E+03</pdfrwt>
<totfact> 0.22229216E+03</totfact>
</mgrwt>
</event>
<event>
 6    1  0.9598567E-004  0.4571115E+03  0.7818608E-02  0.1025823E+00
         21   -1    0    0  503  502  0.00000000000E+00  0.00000000000E+00  0.89001032945E+03  0.89001032945E+03  0.00000000000E+00 0.  1.
         21   -1    0    0  501  503 -0.00000000000E+00 -0.00000000000E+00 -0.23386479760E+03  0.23386479760E+03  0.00000000000E+00 0.  1.
    9000007    2    1    2  501    0 -0.11373071512E+03 -0.18308493382E+03  0.30318688491E+03  0.54851908511E+03  0.40310808848E+03 0.  0.
    9000005    1    3    3    0    0 -0.75023002887E+02 -0.14362582274E+03  0.40303596509E+03  0.43439131790E+03  0.99999687468E+00 0.  0.
          4    1    3    3  501    0 -0.38707712237E+02 -0.39459111079E+02 -0.99849080184E+02  0.11412776721E+03  0.00000000000E+00 0.  1.
   -9000007    1    1    2    0  502  0.11373071512E+03  0.18308493382E+03  0.35295864694E+03  0.57535604195E+03  0.40000000000E+03 0.  1.
<mgrwt>
<rscale>  2 0.45642530E+03</rscale>
<asrwt>0</asrwt>
<pdfrwt beam="1">  1       21 0.13692466E+00 0.45711147E+03</pdfrwt>
<pdfrwt beam="2">  1       21 0.35979200E-01 0.45711147E+03</pdfrwt>
<totfact> 0.24253169E+03</totfact>
</mgrwt>
</event>
<event>
 6    1  0.9598567E-004  0.4682362E+03  0.7818608E-02  0.1022675E+00
         21   -1    0    0  503  502  0.00000000000E+00  0.00000000000E+00  0.10879972154E+04  0.10879972154E+04  0.00000000000E+00 0.  1.
         21   -1    0    0  501  503 -0.00000000000E+00 -0.00000000000E+00 -0.26184518817E+03  0.26184518817E+03  0.00000000000E+00 0.  1.
    9000007    2    1    2  501    0  0.43522712342E+02 -0.23238870972E+03  0.86208522845E+02  0.47610609976E+03  0.40416131671E+03 0.  0.
    9000005    1    3    3    0    0  0.21234833109E+02  0.40047017152E+02 -0.12351560750E+03  0.13157426424E+03  0.99999687468E+00 0.  0.
          4    1    3    3  501    0  0.22287879234E+02 -0.27243572687E+03  0.20972413035E+03  0.34453183552E+03  0.00000000000E+00 0.  1.
   -9000007    1    1    2    0  502 -0.43522712342E+02  0.23238870972E+03  0.73994350437E+03  0.87373630379E+03  0.40000000000E+03 0.  1.
<mgrwt>
<rscale>  2 0.46733680E+03</rscale>
<asrwt>0</asrwt>
<pdfrwt beam="1">  1       21 0.16738418E+00 0.46823617E+03</pdfrwt>
<pdfrwt beam="2">  1       21 0.40283876E-01 0.46823617E+03</pdfrwt>
<totfact> 0.11063747E+03</totfact>
</mgrwt>
</event>
<event>
 6    1  0.9598567E-004  0.4711441E+03  0.7818608E-02  0.1021648E+00
         21   -1    0    0  503  502  0.00000000000E+00  0.00000000000E+00  0.48745557308E+03  0.48745557308E+03  0.00000000000E+00 0.  1.
         21   -1    0    0  501  503 -0.00000000000E+00 -0.00000000000E+00 -0.59755753694E+03  0.59755753694E+03  0.00000000000E+00 0. -1.
    9000007    2    1    2  501    0  0.24199152946E+03  0.52361457299E+02  0.21018726373E+03  0.51590256553E+03  0.40084304753E+03 0.  0.
    9000005    1    3    3    0    0 -0.10915736538E+03 -0.49055185684E+01  0.86028845942E+02  0.13907320683E+03  0.99999687468E+00 0.  0.
          4    1    3    3  501    0  0.35114889484E+03  0.57266975868E+02  0.12415841779E+03  0.37682935870E+03  0.00000000000E+00 0.  1.
   -9000007    1    1    2    0  502 -0.24199152946E+03 -0.52361457299E+02 -0.32028922758E+03  0.56911054449E+03  0.40000000000E+03 0. -1.
<mgrwt>
<rscale>  2 0.47096475E+03</rscale>
<asrwt>0</asrwt>
<pdfrwt beam="1">  1       21 0.74993166E-01 0.47114411E+03</pdfrwt>
<pdfrwt beam="2">  1       21 0.91931928E-01 0.47114411E+03</pdfrwt>
<totfact> 0.13504375E+03</totfact>
</mgrwt>
</event>
<event>
 6    1  0.9598567E-004  0.4741146E+03  0.7818608E-02  0.1020773E+00
         21   -1    0    0  503  502  0.00000000000E+00  0.00000000000E+00  0.50991380928E+03  0.50991380928E+03  0.00000000000E+00 0.  1.
         21   -1    0    0  501  503 -0.00000000000E+00 -0.00000000000E+00 -0.47886746667E+03  0.47886746667E+03  0.00000000000E+00 0. -1.
    9000007    2    1    2  501    0  0.12414491166E+03 -0.22194923347E+03 -0.12401457604E+03  0.49006561565E+03  0.40013906489E+03 0.  0.
    9000005    1    3    3    0    0 -0.11469881818E+02 -0.31045875848E+03 -0.62903524350E+02  0.31697642227E+03  0.99999687468E+00 0.  0.
          4    1    3    3  501    0  0.13561479347E+03  0.88509525016E+02 -0.61111051686E+02  0.17308919338E+03  0.00000000000E+00 0.  1.
   -9000007    1    1    2    0  502 -0.12414491166E+03  0.22194923347E+03  0.15506091865E+03  0.49871566029E+03  0.40000000000E+03 0.  1.
<mgrwt>
<rscale>  2 0.47408530E+03</rscale>
<asrwt>0</asrwt>
<pdfrwt beam="1">  1       21 0.78448278E-01 0.47411464E+03</pdfrwt>
<pdfrwt beam="2">  1       21 0.73671918E-01 0.47411464E+03</pdfrwt>
<totfact> 0.20368331E+03</totfact>
</mgrwt>
</event>
<event>
 6    1  0.9598567E-004  0.5391049E+03  0.7818608E-02  0.1004061E+00
         21   -1    0    0  503  502  0.00000000000E+00  0.00000000000E+00  0.89757406046E+03  0.89757406046E+03  0.00000000000E+00 0. -1.
         21   -1    0    0  501  503 -0.00000000000E+00 -0.00000000000E+00 -0.39337591057E+03  0.39337591057E+03  0.00000000000E+00 0. -1.
    9000007    2    1    2  501    0 -0.35720001005E+03  0.52907265143E+02 -0.19581831317E+02  0.53946045375E+03  0.40030376860E+03 0.  0.
    9000005    1    3    3    0    0 -0.26997534006E+03  0.55276787116E+02 -0.19902122707E+03  0.33993036971E+03  0.99999687468E+00 0.  0.
          4    1    3    3  501    0 -0.87224669984E+02 -0.23695219732E+01  0.17943939575E+03  0.19953008403E+03  0.00000000000E+00 0.  1.
   -9000007    1    1    2    0  502  0.35720001005E+03 -0.52907265143E+02  0.52377998121E+03  0.75148951729E+03  0.40000000000E+03 0. -1.
<mgrwt>
<rscale>  2 0.53904855E+03</rscale>
<asrwt>0</asrwt>
<pdfrwt beam="1">  1       21 0.13808832E+00 0.53910494E+03</pdfrwt>
<pdfrwt beam="2">  1       21 0.60519371E-01 0.53910494E+03</pdfrwt>
<totfact> 0.76714768E+02</totfact>
</mgrwt>
</event>
<event>
 6    1  0.9598567E-004  0.4173979E+03  0.7818608E-02  0.1037966E+00
         21   -1    0    0  503  502  0.00000000000E+00  0.00000000000E+00  0.19543469785E+03  0.19543469785E+03  0.00000000000E+00 0.  1.
         21   -1    0    0  501  503 -0.00000000000E+00 -0.00000000000E+00 -0.15015164397E+04  0.15015164397E+04  0.00000000000E+00 0.  1.
    9000007    2    1    2  501    0  0.53435670317E+02  0.10660959638E+03 -0.11941630209E+04  0.12648090579E+04  0.39936907182E+03 0.  0.
    9000005    1    3    3    0    0 -0.78471052231E+02 -0.67762712378E+02 -0.85509813835E+03  0.86136131643E+03  0.99999687468E+00 0.  0.
          4    1    3    3  501    0  0.13190672255E+03  0.17437230876E+03 -0.33906488259E+03  0.40344774150E+03  0.00000000000E+00 0.  1.
   -9000007    1    1    2    0  502 -0.53435670317E+02 -0.10660959638E+03 -0.11191872093E+03  0.43214207964E+03  0.40000000000E+03 0.  1.
<mgrwt>
<rscale>  2 0.41724663E+03</rscale>
<asrwt>0</asrwt>
<pdfrwt beam="1">  1       21 0.30066875E-01 0.41739786E+03</pdfrwt>
<pdfrwt beam="2">  1       21 0.23100254E+00 0.41739786E+03</pdfrwt>
<totfact> 0.76496733E+02</totfact>
</mgrwt>
</event>
<event>
 6    1  0.9598567E-004  0.5211988E+03  0.7818608E-02  0.1008392E+00
         21   -1    0    0  503  502  0.00000000000E+00  0.00000000000E+00  0.66906411007E+03  0.66906411007E+03  0.00000000000E+00 0.  1.
         21   -1    0    0  501  503 -0.00000000000E+00 -0.00000000000E+00 -0.43110958142E+03  0.43110958142E+03  0.00000000000E+00 0.  1.
    9000007    2    1    2  501    0  0.32717260001E+03 -0.67869347878E+02 -0.13833615480E+02  0.52134260378E+03  0.39994822543E+03 0.  0.
    9000005    1    3    3    0    0 -0.28812372232E+02 -0.12332042205E+03 -0.87079925578E+02  0.15369447849E+03  0.99999687468E+00 0.  0.
          4    1    3    3  501    0  0.35598497224E+03  0.55451074167E+02  0.73246310098E+02  0.36764812529E+03  0.00000000000E+00 0.  1.
   -9000007    1    1    2    0  502 -0.32717260001E+03  0.67869347878E+02  0.25178814413E+03  0.57883108771E+03  0.40000000000E+03 0.  1.
<mgrwt>
<rscale>  2 0.52118884E+03</rscale>
<asrwt>0</asrwt>
<pdfrwt beam="1">  1       21 0.10293294E+00 0.52119877E+03</pdfrwt>
<pdfrwt beam="2">  1       21 0.66324551E-01 0.52119877E+03</pdfrwt>
<totfact> 0.13320957E+03</totfact>
</mgrwt>
</event>
<event>
 6    1  0.9598567E-004  0.4123704E+03  0.7818608E-02  0.1039732E+00
         21   -1    0    0  503  502  0.00000000000E+00  0.00000000000E+00  0.28588385093E+03  0.28588385093E+03  0.00000000000E+00 0. -1.
         21   -1    0    0  501  503 -0.00000000000E+00 -0.00000000000E+00 -0.73086633474E+03  0.73086633474E+03  0.00000000000E+00 0. -1.
    9000007    2    1    2  501    0 -0.18299641920E+02  0.98561833185E+02 -0.63158272550E+00  0.41053484839E+03  0.39810695923E+03 0.  0.
    9000005    1    3    3    0    0 -0.14943423423E+03  0.18391514977E+03  0.57104745912E+02  0.24375669155E+03  0.99999687468E+00 0.  0.
          4    1    3    3  501    0  0.13113459231E+03 -0.85353316585E+02 -0.57736328637E+02  0.16677815684E+03  0.00000000000E+00 0.  1.
   -9000007    1    1    2    0  502  0.18299641920E+02 -0.98561833185E+02 -0.44435090109E+03  0.60621533728E+03  0.40000000000E+03 0. -1.
<mgrwt>
<rscale>  2 0.41191059E+03</rscale>
<asrwt>0</asrwt>
<pdfrwt beam="1">  1       21 0.43982131E-01 0.41237036E+03</pdfrwt>
<pdfrwt beam="2">  1       21 0.11244097E+00 0.41237036E+03</pdfrwt>
<totfact> 0.27026313E+03</totfact>
</mgrwt>
</event>
<event>
 6    1  0.9598567E-004  0.4036477E+03  0.7818608E-02  0.1042538E+00
         21   -1    0    0  503  502  0.00000000000E+00  0.00000000000E+00  0.53104272807E+03  0.53104272807E+03  0.00000000000E+00 0.  1.
         21   -1    0    0  501  503 -0.00000000000E+00 -0.00000000000E+00 -0.42851811159E+03  0.42851811159E+03  0.00000000000E+00 0.  1.
    9000007    2    1    2  501    0 -0.29826600293E+02  0.45186388945E+02  0.30707271517E+03  0.50704414327E+03  0.39983581004E+03 0.  0.
    9000005    1    3    3    0    0  0.75372379334E+02 -0.14285890401E+03  0.44825045405E+02  0.16763038719E+03  0.99999687468E+00 0.  0.
          4    1    3    3  501    0 -0.10519897963E+03  0.18804529296E+03  0.26224766976E+03  0.33941375607E+03  0.00000000000E+00 0.  1.
   -9000007    1    1    2    0  502  0.29826600293E+02 -0.45186388945E+02 -0.20454809869E+03  0.45251669639E+03  0.40000000000E+03 0.  1.
<mgrwt>
<rscale>  2 0.40360698E+03</rscale>
<asrwt>0</asrwt>
<pdfrwt beam="1">  1       21 0.81698881E-01 0.40364766E+03</pdfrwt>
<pdfrwt beam="2">  1       21 0.65925863E-01 0.40364766E+03</pdfrwt>
<totfact> 0.24454596E+03</totfact>
</mgrwt>
</event>
<event>
 6    1  0.9598567E-004  0.4010599E+03  0.7818608E-02  0.1043423E+00
         21   -1    0    0  503  502  0.00000000000E+00  0.00000000000E+00  0.16937692677E+04  0.16937692677E+04  0.00000000000E+00 0. -1.
         21   -1    0    0  501  503 -0.00000000000E+00 -0.00000000000E+00 -0.97140249946E+02  0.97140249946E+02  0.00000000000E+00 0. -1.
    9000007    2    1    2  501    0  0.18211113944E+02 -0.20700140517E+02  0.66362287516E+03  0.77539949671E+03  0.40011113279E+03 0.  0.
    9000005    1    3    3    0    0  0.17061599914E+03 -0.50550998078E+02  0.13201608748E+03  0.22157271926E+03  0.99999687468E+00 0.  0.
          4    1    3    3  501    0 -0.15240488520E+03  0.29850857561E+02  0.53160678767E+03  0.55382677746E+03  0.00000000000E+00 0.  1.
   -9000007    1    1    2    0  502 -0.18211113944E+02  0.20700140517E+02  0.93300614260E+03  0.10155100209E+04  0.40000000000E+03 0. -1.
<mgrwt>
<rscale>  2 0.40103220E+03</rscale>
<asrwt>0</asrwt>
<pdfrwt beam="1">  1       21 0.26057986E+00 0.40105992E+03</pdfrwt>
<pdfrwt beam="2">  1       21 0.14944655E-01 0.40105992E+03</pdfrwt>
<totfact> 0.19330062E+03</totfact>
</mgrwt>
</event>
<event>
 6    1  0.9598567E-004  0.4655403E+03  0.7818608E-02  0.1023275E+00
         21   -1    0    0  503  502  0.00000000000E+00  0.00000000000E+00  0.22483241849E+04  0.22483241849E+04  0.00000000000E+00 0. -1.
         21   -1    0    0  501  503 -0.00000000000E+00 -0.00000000000E+00 -0.96896757252E+02  0.96896757252E+02  0.00000000000E+00 0. -1.
    9000007    2    1    2  501    0 -0.19744510422E+03 -0.12881586445E+03  0.11808014815E+04  0.12692595937E+04  0.40143452925E+03 0.  0.
    9000005    1    3    3    0    0  0.65838800373E+02 -0.18184705523E+03  0.41841519495E+03  0.46095051197E+03  0.99999687468E+00 0.  0.
          4    1    3    3  501    0 -0.26328390459E+03  0.53031190782E+02  0.76238628657E+03  0.80830908170E+03  0.00000000000E+00 0.  1.
   -9000007    1    1    2    0  502  0.19744510422E+03  0.12881586445E+03  0.97062594614E+03  0.10759613485E+04  0.40000000000E+03 0. -1.
<mgrwt>
<rscale>  2 0.46523089E+03</rscale>
<asrwt>0</asrwt>
<pdfrwt beam="1">  1       21 0.34589599E+00 0.46554031E+03</pdfrwt>
<pdfrwt beam="2">  1       21 0.14907195E-01 0.46554031E+03</pdfrwt>
<totfact> 0.57271165E+02</totfact>
</mgrwt>
</event>
<event>
 6    1  0.9598567E-004  0.4249796E+03  0.7818608E-02  0.1035499E+00
         21   -1    0    0  503  502  0.00000000000E+00  0.00000000000E+00  0.12806777679E+03  0.12806777679E+03  0.00000000000E+00 0. -1.
         21   -1    0    0  501  503 -0.00000000000E+00 -0.00000000000E+00 -0.16192053496E+04  0.16192053496E+04  0.00000000000E+00 0.  1.
    9000007    2    1    2  501    0 -0.14053014146E+03  0.29307780856E+02 -0.10602934605E+04  0.11421001629E+04  0.39945324250E+03 0.  0.
    9000005    1    3    3    0    0 -0.15605994637E+02  0.20567283311E+03 -0.57423199182E+03  0.61015427703E+03  0.99999687468E+00 0.  0.
          4    1    3    3  501    0 -0.12492414682E+03 -0.17636505226E+03 -0.48606146871E+03  0.53194588586E+03  0.00000000000E+00 0.  1.
   -9000007    1    1    2    0  502  0.14053014146E+03 -0.29307780856E+02 -0.43084411230E+03  0.60517296352E+03  0.40000000000E+03 0. -1.
<mgrwt>
<rscale>  2 0.42485090E+03</rscale>
<asrwt>0</asrwt>
<pdfrwt beam="1">  1       21 0.19702733E-01 0.42497961E+03</pdfrwt>
<pdfrwt beam="2">  1       21 0.24910854E+00 0.42497961E+03</pdfrwt>
<totfact> 0.13359410E+03</totfact>
</mgrwt>
</event>
<event>
 6    1  0.9598567E-004  0.4509972E+03  0.7818608E-02  0.1027432E+00
         21   -1    0    0  503  502  0.00000000000E+00  0.00000000000E+00  0.10181296307E+03  0.10181296307E+03  0.00000000000E+00 0. -1.
         21   -1    0    0  501  503 -0.00000000000E+00 -0.00000000000E+00 -0.26057808922E+04  0.26057808922E+04  0.00000000000E+00 0.  1.
    9000007    2    1    2  501    0 -0.93014989053E+02  0.18640474230E+03 -0.19060527100E+04  0.19586605302E+04  0.39989451499E+03 0.  0.
    9000005    1    3    3    0    0 -0.17722279686E+03 -0.20030705352E+02 -0.42478846193E+03  0.46071182562E+03  0.99999687468E+00 0.  0.
          4    1    3    3  501    0  0.84207807804E+02  0.20643544765E+03 -0.14812642481E+04  0.14979487046E+04  0.00000000000E+00 0.  1.
   -9000007    1    1    2    0  502  0.93014989053E+02 -0.18640474230E+03 -0.59791521917E+03  0.74893332511E+03  0.40000000000E+03 0. -1.
<mgrwt>
<rscale>  2 0.45097386E+03</rscale>
<asrwt>0</asrwt>
<pdfrwt beam="1">  1       21 0.15663534E-01 0.45099725E+03</pdfrwt>
<pdfrwt beam="2">  1       21 0.40088933E+00 0.45099725E+03</pdfrwt>
<totfact> 0.23849893E+02</totfact>
</mgrwt>
</event>
<event>
 6    1  0.9598567E-004  0.4016726E+03  0.7818608E-02  0.1043438E+00
         21   -1    0    0  503  502  0.00000000000E+00  0.00000000000E+00  0.27737076045E+03  0.27737076045E+03  0.00000000000E+00 0.  1.
         21   -1    0    0  501  503 -0.00000000000E+00 -0.00000000000E+00 -0.57772983394E+03  0.57772983394E+03  0.00000000000E+00 0.  1.
    9000007    2    1    2  501    0  0.20610908563E+02  0.30266726531E+02 -0.15011749626E+03  0.42624931969E+03  0.39725600759E+03 0.  0.
    9000005    1    3    3    0    0 -0.40798552116E+02  0.12817183592E+03 -0.24315640159E+03  0.27788230783E+03  0.99999687468E+00 0.  0.
          4    1    3    3  501    0  0.61409460680E+02 -0.97905109391E+02  0.93038905320E+02  0.14836701186E+03  0.00000000000E+00 0.  1.
   -9000007    1    1    2    0  502 -0.20610908563E+02 -0.30266726531E+02 -0.15024157723E+03  0.42885127470E+03  0.40000000000E+03 0.  1.
<mgrwt>
<rscale>  2 0.40098774E+03</rscale>
<asrwt>0</asrwt>
<pdfrwt beam="1">  1       21 0.42672425E-01 0.40167261E+03</pdfrwt>
<pdfrwt beam="2">  1       21 0.88881513E-01 0.40167261E+03</pdfrwt>
<totfact> 0.51081015E+03</totfact>
</mgrwt>
</event>
<event>
 6    1  0.9598567E-004  0.4157258E+03  0.7818608E-02  0.1038575E+00
         21   -1    0    0  503  502  0.00000000000E+00  0.00000000000E+00  0.18251419428E+03  0.18251419428E+03  0.00000000000E+00 0.  1.
         21   -1    0    0  501  503 -0.00000000000E+00 -0.00000000000E+00 -0.12048450806E+04  0.12048450806E+04  0.00000000000E+00 0.  1.
    9000007    2    1    2  501    0 -0.10499550570E+03 -0.42472256338E+02 -0.83333033745E+03  0.93068744932E+03  0.39863733923E+03 0.  0.
    9000005    1    3    3    0    0  0.63400832078E+02  0.66422972123E+02 -0.21308411374E+02  0.94269428358E+02  0.99999687468E+00 0.  0.
          4    1    3    3  501    0 -0.16839633778E+03 -0.10889522846E+03 -0.81202192608E+03  0.83641802096E+03  0.00000000000E+00 0.  1.
   -9000007    1    1    2    0  502  0.10499550570E+03  0.42472256338E+02 -0.18900054886E+03  0.45667182554E+03  0.40000000000E+03 0.  1.
<mgrwt>
<rscale>  2 0.41539768E+03</rscale>
<asrwt>0</asrwt>
<pdfrwt beam="1">  1       21 0.28079107E-01 0.41572581E+03</pdfrwt>
<pdfrwt beam="2">  1       21 0.18536078E+00 0.41572581E+03</pdfrwt>
<totfact> 0.17435040E+03</totfact>
</mgrwt>
</event>
<event>
 6    1  0.9598567E-004  0.4410712E+03  0.7818608E-02  0.1030436E+00
         21   -1    0    0  503  502  0.00000000000E+00  0.00000000000E+00  0.46774587726E+03  0.46774587726E+03  0.00000000000E+00 0. -1.
         21   -1    0    0  501  503 -0.00000000000E+00 -0.00000000000E+00 -0.66811526827E+03  0.66811526827E+03  0.00000000000E+00 0. -1.
    9000007    2    1    2  501    0  0.18261882773E+03  0.31605131856E+02 -0.44927608334E+03  0.62959731897E+03  0.40024400607E+03 0.  0.
    9000005    1    3    3    0    0  0.13424954334E+03  0.19868716761E+03 -0.36397452697E+03  0.43586464268E+03  0.99999687468E+00 0.  0.
          4    1    3    3  501    0  0.48369284395E+02 -0.16708203575E+03 -0.85301556368E+02  0.19373267629E+03  0.00000000000E+00 0.  1.
   -9000007    1    1    2    0  502 -0.18261882773E+03 -0.31605131856E+02  0.24890669233E+03  0.50626382656E+03  0.40000000000E+03 0. -1.
<mgrwt>
<rscale>  2 0.44101582E+03</rscale>
<asrwt>0</asrwt>
<pdfrwt beam="1">  1       21 0.71960904E-01 0.44107118E+03</pdfrwt>
<pdfrwt beam="2">  1       21 0.10278696E+00 0.44107118E+03</pdfrwt>
<totfact> 0.11466388E+03</totfact>
</mgrwt>
</event>
<event>
 6    1  0.9598567E-004  0.5566680E+03  0.7818608E-02  0.1000020E+00
         21   -1    0    0  503  502  0.00000000000E+00  0.00000000000E+00  0.97419859176E+03  0.97419859176E+03  0.00000000000E+00 0.  1.
         21   -1    0    0  501  503 -0.00000000000E+00 -0.00000000000E+00 -0.36590290257E+03  0.36590290257E+03  0.00000000000E+00 0. -1.
    9000007    2    1    2  501    0  0.18236086152E+03 -0.33983588174E+03  0.60695772483E+02  0.55996716032E+03  0.40141665823E+03 0.  0.
    9000005    1    3    3    0    0  0.25125258308E+02  0.70900389279E+02 -0.68330397332E+02  0.10162768815E+03  0.99999687468E+00 0.  0.
          4    1    3    3  501    0  0.15723560321E+03 -0.41073627102E+03  0.12902616981E+03  0.45833947217E+03  0.00000000000E+00 0.  1.
   -9000007    1    1    2    0  502 -0.18236086152E+03  0.33983588174E+03  0.54759991671E+03  0.78013433402E+03  0.40000000000E+03 0. -1.
<mgrwt>
<rscale>  2 0.55641263E+03</rscale>
<asrwt>0</asrwt>
<pdfrwt beam="1">  1       21 0.14987671E+00 0.55666798E+03</pdfrwt>
<pdfrwt beam="2">  1       21 0.56292755E-01 0.55666798E+03</pdfrwt>
<totfact> 0.71610973E+02</totfact>
</mgrwt>
</event>
<event>
 6    1  0.9598567E-004  0.4543173E+03  0.7818608E-02  0.1026692E+00
         21   -1    0    0  503  502  0.00000000000E+00  0.00000000000E+00  0.19297467316E+04  0.19297467316E+04  0.00000000000E+00 0. -1.
         21   -1    0    0  501  503 -0.00000000000E+00 -0.00000000000E+00 -0.10681600218E+03  0.10681600218E+03  0.00000000000E+00 0. -1.
    9000007    2    1    2  501    0 -0.33172657173E+02  0.21284683164E+03  0.82861009420E+03  0.94336662853E+03  0.39615869131E+03 0.  0.
    9000005    1    3    3    0    0  0.99673469508E+02  0.25154868085E+03  0.33443381516E+03  0.43018428153E+03  0.99999687468E+00 0.  0.
          4    1    3    3  501    0 -0.13284612668E+03 -0.38701849211E+02  0.49417627904E+03  0.51318234700E+03  0.00000000000E+00 0.  1.
   -9000007    1    1    2    0  502  0.33172657173E+02 -0.21284683164E+03  0.99432063525E+03  0.10931961053E+04  0.40000000000E+03 0. -1.
<mgrwt>
<rscale>  2 0.45347033E+03</rscale>
<asrwt>0</asrwt>
<pdfrwt beam="1">  1       21 0.29688409E+00 0.45431729E+03</pdfrwt>
<pdfrwt beam="2">  1       21 0.16433233E-01 0.45431729E+03</pdfrwt>
<totfact> 0.95179842E+02</totfact>
</mgrwt>
</event>
<event>
 6    1  0.9598567E-004  0.4200266E+03  0.7818608E-02  0.1037083E+00
         21   -1    0    0  503  502  0.00000000000E+00  0.00000000000E+00  0.34582773082E+03  0.34582773082E+03  0.00000000000E+00 0.  1.
         21   -1    0    0  501  503 -0.00000000000E+00 -0.00000000000E+00 -0.70658815042E+03  0.70658815042E+03  0.00000000000E+00 0.  1.
    9000007    2    1    2  501    0 -0.12222120976E+03  0.34971367634E+02 -0.45815012470E+03  0.62154957329E+03  0.40032651003E+03 0.  0.
    9000005    1    3    3    0    0  0.34494413071E+02 -0.16207594636E+03 -0.14896403533E+03  0.22282226265E+03  0.99999687468E+00 0.  0.
          4    1    3    3  501    0 -0.15671562283E+03  0.19704731399E+03 -0.30918608937E+03  0.39872731064E+03  0.00000000000E+00 0.  1.
   -9000007    1    1    2    0  502  0.12222120976E+03 -0.34971367634E+02  0.97389705098E+02  0.43086630795E+03  0.40000000000E+03 0.  1.
<mgrwt>
<rscale>  2 0.41994877E+03</rscale>
<asrwt>0</asrwt>
<pdfrwt beam="1">  1       21 0.53204267E-01 0.42002659E+03</pdfrwt>
<pdfrwt beam="2">  1       21 0.10870587E+00 0.42002659E+03</pdfrwt>
<totfact> 0.19592257E+03</totfact>
</mgrwt>
</event>
<event>
 6    1  0.9598567E-004  0.4966817E+03  0.7818608E-02  0.1014656E+00
         21   -1    0    0  503  502  0.00000000000E+00  0.00000000000E+00  0.69627907185E+03  0.69627907185E+03  0.00000000000E+00 0.  1.
         21   -1    0    0  501  503 -0.00000000000E+00 -0.00000000000E+00 -0.56507677131E+03  0.56507677131E+03  0.00000000000E+00 0.  1.
    9000007    2    1    2  501    0  0.11775117167E+03  0.26986545810E+03 -0.31965551489E+03  0.59056118483E+03  0.39986267759E+03 0.  0.
    9000005    1    3    3    0    0  0.21818699427E+03  0.25275609674E+03 -0.10020911847E+03  0.34861737812E+03  0.99999687468E+00 0.  0.
          4    1    3    3  501    0 -0.10043582260E+03  0.17109361359E+02 -0.21944639641E+03  0.24194380671E+03  0.00000000000E+00 0.  1.
   -9000007    1    1    2    0  502 -0.11775117167E+03 -0.26986545810E+03  0.45085781542E+03  0.67079465832E+03  0.40000000000E+03 0. -1.
<mgrwt>
<rscale>  2 0.49665404E+03</rscale>
<asrwt>0</asrwt>
<pdfrwt beam="1">  1       21 0.10711986E+00 0.49668169E+03</pdfrwt>
<pdfrwt beam="2">  1       21 0.86934888E-01 0.49668169E+03</pdfrwt>
<totfact> 0.65458600E+02</totfact>
</mgrwt>
</event>
<event>
 6    1  0.9598567E-004  0.5104060E+03  0.7818608E-02  0.1011206E+00
         21   -1    0    0  503  502  0.00000000000E+00  0.00000000000E+00  0.35143103271E+03  0.35143103271E+03  0.00000000000E+00 0.  1.
         21   -1    0    0  501  503 -0.00000000000E+00 -0.00000000000E+00 -0.12573088911E+04  0.12573088911E+04  0.00000000000E+00 0. -1.
    9000007    2    1    2  501    0  0.29961642960E+03 -0.94921519454E+02 -0.96992054565E+03  0.10960201509E+04  0.40216191573E+03 0.  0.
    9000005    1    3    3    0    0  0.23503373492E+03 -0.19652510294E+03 -0.35277375388E+03  0.46724008182E+03  0.99999687468E+00 0.  0.
          4    1    3    3  501    0  0.64582694678E+02  0.10160358348E+03 -0.61714679177E+03  0.62878006904E+03  0.00000000000E+00 0.  1.
   -9000007    1    1    2    0  502 -0.29961642960E+03  0.94921519454E+02  0.64042687297E+02  0.51271977292E+03  0.40000000000E+03 0.  1.
<mgrwt>
<rscale>  2 0.50998007E+03</rscale>
<asrwt>0</asrwt>
<pdfrwt beam="1">  1       21 0.54066313E-01 0.51040602E+03</pdfrwt>
<pdfrwt beam="2">  1       21 0.19343214E+00 0.51040602E+03</pdfrwt>
<totfact> 0.38218759E+02</totfact>
</mgrwt>
</event>
<event>
 6    1  0.9598567E-004  0.4979061E+03  0.7818608E-02  0.1014344E+00
         21   -1    0    0  503  502  0.00000000000E+00  0.00000000000E+00  0.86693961494E+03  0.86693961494E+03  0.00000000000E+00 0.  1.
         21   -1    0    0  501  503 -0.00000000000E+00 -0.00000000000E+00 -0.50023240190E+03  0.50023240190E+03  0.00000000000E+00 0. -1.
    9000007    2    1    2  501    0 -0.24061813900E+03 -0.17324371735E+03 -0.26422585495E+03  0.56343884552E+03  0.39967181011E+03 0.  0.
    9000005    1    3    3    0    0 -0.13332214011E+03 -0.26521978257E+03 -0.29533132052E+03  0.41873370415E+03  0.99999687468E+00 0.  0.
          4    1    3    3  501    0 -0.10729599889E+03  0.91976065218E+02  0.31105465576E+02  0.14470514137E+03  0.00000000000E+00 0.  1.
   -9000007    1    1    2    0  502  0.24061813900E+03  0.17324371735E+03  0.63093306799E+03  0.80373317133E+03  0.40000000000E+03 0.  1.
<mgrwt>
<rscale>  2 0.49784017E+03</rscale>
<asrwt>0</asrwt>
<pdfrwt beam="1">  1       21 0.13337533E+00 0.49790609E+03</pdfrwt>
<pdfrwt beam="2">  1       21 0.76958831E-01 0.49790609E+03</pdfrwt>
<totfact> 0.49738792E+02</totfact>
</mgrwt>
</event>
<event>
 6    1  0.9598567E-004  0.5259827E+03  0.7818608E-02  0.1007213E+00
         21   -1    0    0  503  502  0.00000000000E+00  0.00000000000E+00  0.89800710427E+03  0.89800710427E+03  0.00000000000E+00 0. -1.
         21   -1    0    0  501  503 -0.00000000000E+00 -0.00000000000E+00 -0.41251552690E+03  0.41251552690E+03  0.00000000000E+00 0. -1.
    9000007    2    1    2  501    0 -0.23833046187E+03 -0.24460309094E+03  0.57247269084E+03  0.77742058160E+03  0.40003212093E+03 0.  0.
    9000005    1    3    3    0    0 -0.88947734022E+02  0.70093343031E+02  0.34064969469E+03  0.35898188062E+03  0.99999687468E+00 0.  0.
          4    1    3    3  501    0 -0.14938272785E+03 -0.31469643397E+03  0.23182299615E+03  0.41843870098E+03  0.00000000000E+00 0.  1.
   -9000007    1    1    2    0  502  0.23833046187E+03  0.24460309094E+03 -0.86981113476E+02  0.53310204957E+03  0.40000000000E+03 0. -1.
<mgrwt>
<rscale>  2 0.52597657E+03</rscale>
<asrwt>0</asrwt>
<pdfrwt beam="1">  1       21 0.13815494E+00 0.52598268E+03</pdfrwt>
<pdfrwt beam="2">  1       21 0.63463928E-01 0.52598268E+03</pdfrwt>
<totfact> 0.69303216E+02</totfact>
</mgrwt>
</event>
<event>
 6    1  0.9598567E-004  0.6377597E+03  0.7818608E-02  0.9830034E-01
         21   -1    0    0  503  502  0.00000000000E+00  0.00000000000E+00  0.12632786422E+04  0.12632786422E+04  0.00000000000E+00 0. -1.
         21   -1    0    0  501  503 -0.00000000000E+00 -0.00000000000E+00 -0.59677856148E+03  0.59677856148E+03  0.00000000000E+00 0.  1.
    9000007    2    1    2  501    0 -0.46648522404E+03  0.17067213504E+03 -0.29787789845E+03  0.70387282018E+03  0.39996032638E+03 0.  0.
    9000005    1    3    3    0    0 -0.26082836435E+03  0.24517128771E+03 -0.31727269782E+02  0.35937169561E+03  0.99999687468E+00 0.  0.
          4    1    3    3  501    0 -0.20565685969E+03 -0.74499152673E+02 -0.26615062867E+03  0.34450112457E+03  0.00000000000E+00 0.  1.
   -9000007    1    1    2    0  502  0.46648522404E+03 -0.17067213504E+03  0.96437797912E+03  0.11561843835E+04  0.40000000000E+03 0. -1.
<mgrwt>
<rscale>  2 0.63775348E+03</rscale>
<asrwt>0</asrwt>
<pdfrwt beam="1">  1       21 0.19435056E+00 0.63775971E+03</pdfrwt>
<pdfrwt beam="2">  1       21 0.91812086E-01 0.63775971E+03</pdfrwt>
<totfact> 0.10742348E+02</totfact>
</mgrwt>
</event>
<event>
 6    1  0.9598567E-004  0.4328053E+03  0.7818608E-02  0.1033239E+00
         21   -1    0    0  503  502  0.00000000000E+00  0.00000000000E+00  0.15569882549E+04  0.15569882549E+04  0.00000000000E+00 0. -1.
         21   -1    0    0  501  503 -0.00000000000E+00 -0.00000000000E+00 -0.13009182934E+03  0.13009182934E+03  0.00000000000E+00 0. -1.
    9000007    2    1    2  501    0  0.28019017846E+02 -0.15385430372E+03  0.47400701047E+03  0.64187462619E+03  0.40356434138E+03 0.  0.
    9000005    1    3    3    0    0  0.38204127396E+02 -0.71529583531E+02  0.53360489750E+03  0.53973254794E+03  0.99999687468E+00 0.  0.
          4    1    3    3  501    0 -0.10185109550E+02 -0.82324720189E+02 -0.59597887033E+02  0.10214207825E+03  0.00000000000E+00 0.  1.
   -9000007    1    1    2    0  502 -0.28019017846E+02  0.15385430372E+03  0.95288941507E+03  0.10452054580E+04  0.40000000000E+03 0. -1.
<mgrwt>
<rscale>  2 0.43197246E+03</rscale>
<asrwt>0</asrwt>
<pdfrwt beam="1">  1       21 0.23953664E+00 0.43280526E+03</pdfrwt>
<pdfrwt beam="2">  1       21 0.20014129E-01 0.43280526E+03</pdfrwt>
<totfact> 0.14795946E+03</totfact>
</mgrwt>
</event>
<event>
 6    1  0.9598567E-004  0.4087793E+03  0.7818608E-02  0.1040791E+00
         21   -1    0    0  503  502  0.00000000000E+00  0.00000000000E+00  0.55513296218E+03  0.55513296218E+03  0.00000000000E+00 0.  1.
         21   -1    0    0  501  503 -0.00000000000E+00 -0.00000000000E+00 -0.41795318662E+03  0.41795318662E+03  0.00000000000E+00 0.  1.
    9000007    2    1    2  501    0 -0.70553626651E+02  0.45074153310E+02 -0.18885598788E+03  0.45029669541E+03  0.40011377907E+03 0.  0.
    9000005    1    3    3    0    0 -0.55962876084E+02  0.25767119205E+02 -0.31544929421E+03  0.32141102213E+03  0.99999687468E+00 0.  0.
          4    1    3    3  501    0 -0.14590750567E+02  0.19307034106E+02  0.12659330633E+03  0.12888567328E+03  0.00000000000E+00 0.  1.
   -9000007    1    1    2    0  502  0.70553626651E+02 -0.45074153310E+02  0.32603576345E+03  0.52278945339E+03  0.40000000000E+03 0.  1.
<mgrwt>
<rscale>  2 0.40875147E+03</rscale>
<asrwt>0</asrwt>
<pdfrwt beam="1">  1       21 0.85405071E-01 0.40877932E+03</pdfrwt>
<pdfrwt beam="2">  1       21 0.64300491E-01 0.40877932E+03</pdfrwt>
<totfact> 0.23263572E+03</totfact>
</mgrwt>
</event>
<event>
 6    1  0.9598567E-004  0.4598272E+03  0.7818608E-02  0.1024873E+00
         21   -1    0    0  503  502  0.00000000000E+00  0.00000000000E+00  0.98948528488E+03  0.98948528488E+03  0.00000000000E+00 0. -1.
         21   -1    0    0  501  503 -0.00000000000E+00 -0.00000000000E+00 -0.24691973084E+03  0.24691973084E+03  0.00000000000E+00 0. -1.
    9000007    2    1    2  501    0  0.17753985505E+03  0.13924617255E+03  0.14377725659E+03  0.48178105515E+03  0.40066343593E+03 0.  0.
    9000005    1    3    3    0    0 -0.41767208209E+01  0.54252981732E+02 -0.13083220053E+03  0.14170002015E+03  0.99999687468E+00 0.  0.
          4    1    3    3  501    0  0.18171657587E+03  0.84993190814E+02  0.27460945711E+03  0.34008103500E+03  0.00000000000E+00 0.  1.
   -9000007    1    1    2    0  502 -0.17753985505E+03 -0.13924617255E+03  0.59878829745E+03  0.75462396057E+03  0.40000000000E+03 0. -1.
<mgrwt>
<rscale>  2 0.45968268E+03</rscale>
<asrwt>0</asrwt>
<pdfrwt beam="1">  1       21 0.15222850E+00 0.45982723E+03</pdfrwt>
<pdfrwt beam="2">  1       21 0.37987652E-01 0.45982723E+03</pdfrwt>
<totfact> 0.16314218E+03</totfact>
</mgrwt>
</event>
<event>
 6    1  0.9598567E-004  0.4559330E+03  0.7818608E-02  0.1025975E+00
         21   -1    0    0  503  502  0.00000000000E+00  0.00000000000E+00  0.65207812804E+03  0.65207812804E+03  0.00000000000E+00 0. -1.
         21   -1    0    0  501  503 -0.00000000000E+00 -0.00000000000E+00 -0.35769193871E+03  0.35769193871E+03  0.00000000000E+00 0. -1.
    9000007    2    1    2  501    0  0.16642445994E+03 -0.14173430102E+03 -0.19446268015E+02  0.45634751188E+03  0.40011146111E+03 0.  0.
    9000005    1    3    3    0    0  0.21082358725E+03 -0.13151956900E+03 -0.16866993029E+03  0.30032403724E+03  0.99999687468E+00 0.  0.
          4    1    3    3  501    0 -0.44399127307E+02 -0.10214732018E+02  0.14922366227E+03  0.15602347464E+03  0.00000000000E+00 0.  1.
   -9000007    1    1    2    0  502 -0.16642445994E+03  0.14173430102E+03  0.31383245735E+03  0.55342255487E+03  0.40000000000E+03 0. -1.
<mgrwt>
<rscale>  2 0.45590854E+03</rscale>
<asrwt>0</asrwt>
<pdfrwt beam="1">  1       21 0.10031971E+00 0.45593299E+03</pdfrwt>
<pdfrwt beam="2">  1       21 0.55029529E-01 0.45593299E+03</pdfrwt>
<totfact> 0.21886095E+03</totfact>
</mgrwt>
</event>
<event>
 6    1  0.9598567E-004  0.4692829E+03  0.7818608E-02  0.1022243E+00
         21   -1    0    0  503  502  0.00000000000E+00  0.00000000000E+00  0.52446492492E+03  0.52446492492E+03  0.00000000000E+00 0.  1.
         21   -1    0    0  501  503 -0.00000000000E+00 -0.00000000000E+00 -0.44470651942E+03  0.44470651942E+03  0.00000000000E+00 0.  1.
    9000007    2    1    2  501    0 -0.21506257818E+03  0.11821396617E+03 -0.78080335795E+02  0.47405577847E+03  0.39800237177E+03 0.  0.
    9000005    1    3    3    0    0  0.94871920331E+02  0.98585130336E+02 -0.89147227878E+02  0.16330320702E+03  0.99999687468E+00 0.  0.
          4    1    3    3  501    0 -0.30993449851E+03  0.19628835838E+02  0.11066892083E+02  0.31075257145E+03  0.00000000000E+00 0.  1.
   -9000007    1    1    2    0  502  0.21506257818E+03 -0.11821396617E+03  0.15783874129E+03  0.49511566587E+03  0.40000000000E+03 0.  1.
<mgrwt>
<rscale>  2 0.46885695E+03</rscale>
<asrwt>0</asrwt>
<pdfrwt beam="1">  1       21 0.80686911E-01 0.46928292E+03</pdfrwt>
<pdfrwt beam="2">  1       21 0.68416388E-01 0.46928292E+03</pdfrwt>
<totfact> 0.22600699E+03</totfact>
</mgrwt>
</event>
<event>
 6    1  0.9598567E-004  0.4364728E+03  0.7818608E-02  0.1031899E+00
         21   -1    0    0  503  502  0.00000000000E+00  0.00000000000E+00  0.15719480393E+03  0.15719480393E+03  0.00000000000E+00 0. -1.
         21   -1    0    0  501  503 -0.00000000000E+00 -0.00000000000E+00 -0.21789755101E+04  0.21789755101E+04  0.00000000000E+00 0. -1.
    9000007    2    1    2  501    0  0.15436081683E+03 -0.81739137992E+02 -0.17894469252E+04  0.18417135068E+04  0.39909872766E+03 0.  0.
    9000005    1    3    3    0    0  0.10715789644E+03  0.15403080916E+03 -0.95766421226E+03  0.97587399206E+03  0.99999687468E+00 0.  0.
          4    1    3    3  501    0  0.47202920393E+02 -0.23576994715E+03 -0.83178271293E+03  0.86583951469E+03  0.00000000000E+00 0.  1.
   -9000007    1    1    2    0  502 -0.15436081683E+03  0.81739137992E+02 -0.23233378094E+03  0.49445680723E+03  0.40000000000E+03 0. -1.
<mgrwt>
<rscale>  2 0.43626625E+03</rscale>
<asrwt>0</asrwt>
<pdfrwt beam="1">  1       21 0.24183816E-01 0.43647285E+03</pdfrwt>
<pdfrwt beam="2">  1       21 0.33522700E+00 0.43647285E+03</pdfrwt>
<totfact> 0.27073732E+02</totfact>
</mgrwt>
</event>
<event>
 6    1  0.9598567E-004  0.4196361E+03  0.7818608E-02  0.1037245E+00
         21   -1    0    0  503  502  0.00000000000E+00  0.00000000000E+00  0.22975954467E+04  0.22975954467E+04  0.00000000000E+00 0. -1.
         21   -1    0    0  501  503 -0.00000000000E+00 -0.00000000000E+00 -0.18910455024E+03  0.18910455024E+03  0.00000000000E+00 0. -1.
    9000007    2    1    2  501    0  0.82518273537E+02  0.96359862066E+02  0.94451159534E+02  0.42940795389E+03  0.39921883829E+03 0.  0.
    9000005    1    3    3    0    0  0.35108984293E+01 -0.10197772415E+03 -0.98362977986E+02  0.14173234656E+03  0.99999687468E+00 0.  0.
          4    1    3    3  501    0  0.79007375108E+02  0.19833758621E+03  0.19281413752E+03  0.28767560733E+03  0.00000000000E+00 0.  1.
   -9000007    1    1    2    0  502 -0.82518273537E+02 -0.96359862066E+02  0.20140397369E+04  0.20572920430E+04  0.40000000000E+03 0. -1.
<mgrwt>
<rscale>  2 0.41944988E+03</rscale>
<asrwt>0</asrwt>
<pdfrwt beam="1">  1       21 0.35347620E+00 0.41963614E+03</pdfrwt>
<pdfrwt beam="2">  1       21 0.29093009E-01 0.41963614E+03</pdfrwt>
<totfact> 0.14758646E+02</totfact>
</mgrwt>
</event>
<event>
 6    1  0.9598567E-004  0.4340080E+03  0.7818608E-02  0.1032605E+00
         21   -1    0    0  503  502  0.00000000000E+00  0.00000000000E+00  0.12267749460E+04  0.12267749460E+04  0.00000000000E+00 0.  1.
         21   -1    0    0  501  503 -0.00000000000E+00 -0.00000000000E+00 -0.24002027841E+03  0.24002027841E+03  0.00000000000E+00 0.  1.
    9000007    2    1    2  501    0  0.10802768631E+02  0.16793051303E+03  0.93365994160E+03  0.10296037252E+04  0.40005698020E+03 0.  0.
    9000005    1    3    3    0    0  0.36976402996E+02  0.20828304533E+03  0.18985292071E+03  0.28424322832E+03  0.99999687468E+00 0.  0.
          4    1    3    3  501    0 -0.26173634365E+02 -0.40352532299E+02  0.74380702089E+03  0.74536049689E+03  0.00000000000E+00 0.  1.
   -9000007    1    1    2    0  502 -0.10802768631E+02 -0.16793051303E+03  0.53094725967E+02  0.43719149917E+03  0.40000000000E+03 0.  1.
<mgrwt>
<rscale>  2 0.43399487E+03</rscale>
<asrwt>0</asrwt>
<pdfrwt beam="1">  1       21 0.18873460E+00 0.43400800E+03</pdfrwt>
<pdfrwt beam="2">  1       21 0.36926197E-01 0.43400800E+03</pdfrwt>
<totfact> 0.94725630E+02</totfact>
</mgrwt>
</event>
<event>
 6    1  0.9598567E-004  0.5863043E+03  0.7818608E-02  0.9934345E-01
         21   -1    0    0  503  502  0.00000000000E+00  0.00000000000E+00  0.63663346838E+03  0.63663346838E+03  0.00000000000E+00 0.  1.
         21   -1    0    0  501  503 -0.00000000000E+00 -0.00000000000E+00 -0.56952811548E+03  0.56952811548E+03  0.00000000000E+00 0. -1.
    9000007    2    1    2  501    0 -0.31178093205E+03  0.29418597168E+03 -0.10432291836E+03  0.59530940231E+03  0.39969648192E+03 0.  0.
    9000005    1    3    3    0    0 -0.18368172410E+03 -0.45461805018E+02 -0.13282478122E+03  0.23119077400E+03  0.99999687468E+00 0.  0.
          4    1    3    3  501    0 -0.12809920795E+03  0.33964777670E+03  0.28501862861E+02  0.36411862831E+03  0.00000000000E+00 0.  1.
   -9000007    1    1    2    0  502  0.31178093205E+03 -0.29418597168E+03  0.17142827126E+03  0.61085218156E+03  0.40000000000E+03 0.  1.
<mgrwt>
<rscale>  2 0.58625254E+03</rscale>
<asrwt>0</asrwt>
<pdfrwt beam="1">  1       21 0.97943610E-01 0.58630430E+03</pdfrwt>
<pdfrwt beam="2">  1       21 0.87619710E-01 0.58630430E+03</pdfrwt>
<totfact> 0.77580760E+02</totfact>
</mgrwt>
</event>
<event>
 6    1  0.9598567E-004  0.4733970E+03  0.7818608E-02  0.1020970E+00
         21   -1    0    0  503  502  0.00000000000E+00  0.00000000000E+00  0.15441676582E+04  0.15441676582E+04  0.00000000000E+00 0. -1.
         21   -1    0    0  501  503 -0.00000000000E+00 -0.00000000000E+00 -0.52001018075E+03  0.52001018075E+03  0.00000000000E+00 0.  1.
    9000007    2    1    2  501    0 -0.58589791325E+02  0.24619367972E+03 -0.36424410953E+03  0.59730938599E+03  0.40007579242E+03 0.  0.
    9000005    1    3    3    0    0 -0.10189119538E+03  0.30271032659E+03 -0.40459351221E+03  0.51547285829E+03  0.99999687468E+00 0.  0.
          4    1    3    3  501    0  0.43301404059E+02 -0.56516646879E+02  0.40349402681E+02  0.81836527692E+02  0.00000000000E+00 0.  1.
   -9000007    1    1    2    0  502  0.58589791325E+02 -0.24619367972E+03  0.13884015869E+04  0.14668684529E+04  0.40000000000E+03 0. -1.
<mgrwt>
<rscale>  2 0.47338100E+03</rscale>
<asrwt>0</asrwt>
<pdfrwt beam="1">  1       21 0.23756425E+00 0.47339701E+03</pdfrwt>
<pdfrwt beam="2">  1       21 0.80001567E-01 0.47339701E+03</pdfrwt>
<totfact> 0.83920953E+01</totfact>
</mgrwt>
</event>
<event>
 6    1  0.9598567E-004  0.4693991E+03  0.7818608E-02  0.1022121E+00
         21   -1    0    0  503  502  0.00000000000E+00  0.00000000000E+00  0.48273802949E+03  0.48273802949E+03  0.00000000000E+00 0.  1.
         21   -1    0    0  501  503 -0.00000000000E+00 -0.00000000000E+00 -0.85420243818E+03  0.85420243818E+03  0.00000000000E+00 0. -1.
    9000007    2    1    2  501    0  0.94405429318E+02  0.22676669877E+03 -0.64209550913E+03  0.79511326894E+03  0.39947834341E+03 0.  0.
    9000005    1    3    3    0    0  0.21939379435E+03  0.18021973739E+03 -0.58454692779E+03  0.64985298455E+03  0.99999687468E+00 0.  0.
          4    1    3    3  501    0 -0.12498836504E+03  0.46546961386E+02 -0.57548581337E+02  0.14526028439E+03  0.00000000000E+00 0.  1.
   -9000007    1    1    2    0  502 -0.94405429318E+02 -0.22676669877E+03  0.27063110044E+03  0.54182719873E+03  0.40000000000E+03 0.  1.
<mgrwt>
<rscale>  2 0.46928795E+03</rscale>
<asrwt>0</asrwt>
<pdfrwt beam="1">  1       21 0.74267390E-01 0.46939911E+03</pdfrwt>
<pdfrwt beam="2">  1       21 0.13141576E+00 0.46939911E+03</pdfrwt>
<totfact> 0.56768093E+02</totfact>
</mgrwt>
</event>
<event>
 6    1  0.9598567E-004  0.4126656E+03  0.7818608E-02  0.1040391E+00
         21   -1    0    0  503  502  0.00000000000E+00  0.00000000000E+00  0.27783694426E+03  0.27783694426E+03  0.00000000000E+00 0.  1.
         21   -1    0    0  501  503 -0.00000000000E+00 -0.00000000000E+00 -0.60638164690E+03  0.60638164690E+03  0.00000000000E+00 0.  1.
    9000007    2    1    2  501    0 -0.11635703494E+02  0.36983012643E+02 -0.11143095292E+03  0.42744565726E+03  0.41084035808E+03 0.  0.
    9000005    1    3    3    0    0 -0.57641255750E+02 -0.12025380799E+03 -0.20062943704E+03  0.24090799841E+03  0.99999687468E+00 0.  0.
          4    1    3    3  501    0  0.46005552256E+02  0.15723682063E+03  0.89198484118E+02  0.18653765885E+03  0.00000000000E+00 0.  1.
   -9000007    1    1    2    0  502  0.11635703494E+02 -0.36983012643E+02 -0.21711374973E+03  0.45677293390E+03  0.40000000000E+03 0.  1.
<mgrwt>
<rscale>  2 0.40994100E+03</rscale>
<asrwt>0</asrwt>
<pdfrwt beam="1">  1       21 0.42744146E-01 0.41266564E+03</pdfrwt>
<pdfrwt beam="2">  1       21 0.93289483E-01 0.41266564E+03</pdfrwt>
<totfact> 0.45204097E+03</totfact>
</mgrwt>
</event>
<event>
 6    1  0.9598567E-004  0.4039898E+03  0.7818608E-02  0.1042438E+00
         21   -1    0    0  503  502  0.00000000000E+00  0.00000000000E+00  0.11627012069E+04  0.11627012069E+04  0.00000000000E+00 0. -1.
         21   -1    0    0  501  503 -0.00000000000E+00 -0.00000000000E+00 -0.16705311976E+03  0.16705311976E+03  0.00000000000E+00 0. -1.
    9000007    2    1    2  501    0 -0.35330151244E+02 -0.44266407828E+02  0.76398749135E+03  0.86405660703E+03  0.39963633314E+03 0.  0.
    9000005    1    3    3    0    0 -0.14364472693E+03  0.13197759829E+03  0.41036637012E+03  0.45437149090E+03  0.99999687468E+00 0.  0.
          4    1    3    3  501    0  0.10831457568E+03 -0.17624400612E+03  0.35362112123E+03  0.40968511613E+03  0.00000000000E+00 0.  1.
   -9000007    1    1    2    0  502  0.35330151244E+02  0.44266407828E+02  0.23166059584E+03  0.46569771968E+03  0.40000000000E+03 0. -1.
<mgrwt>
<rscale>  2 0.40389972E+03</rscale>
<asrwt>0</asrwt>
<pdfrwt beam="1">  1       21 0.17887710E+00 0.40398977E+03</pdfrwt>
<pdfrwt beam="2">  1       21 0.25700481E-01 0.40398977E+03</pdfrwt>
<totfact> 0.23134566E+03</totfact>
</mgrwt>
</event>
<event>
 6    1  0.9598567E-004  0.5233784E+03  0.7818608E-02  0.1008007E+00
         21   -1    0    0  503  502  0.00000000000E+00  0.00000000000E+00  0.12680676526E+04  0.12680676526E+04  0.00000000000E+00 0. -1.
         21   -1    0    0  501  503 -0.00000000000E+00 -0.00000000000E+00 -0.23220405001E+03  0.23220405001E+03  0.00000000000E+00 0.  1.
    9000007    2    1    2  501    0 -0.32715900329E+03 -0.83017818834E+02  0.31244759130E+03  0.60737994150E+03  0.39668869955E+03 0.  0.
    9000005    1    3    3    0    0 -0.47332904632E+02 -0.14227485967E+03  0.28244501316E+03  0.31977918164E+03  0.99999687468E+00 0.  0.
          4    1    3    3  501    0 -0.27982609866E+03  0.59257040840E+02  0.30002578136E+02  0.28760075986E+03  0.00000000000E+00 0.  1.
   -9000007    1    1    2    0  502  0.32715900329E+03  0.83017818834E+02  0.72341601133E+03  0.89289176115E+03  0.40000000000E+03 0.  1.
<mgrwt>
<rscale>  2 0.52274569E+03</rscale>
<asrwt>0</asrwt>
<pdfrwt beam="1">  1       21 0.19508733E+00 0.52337842E+03</pdfrwt>
<pdfrwt beam="2">  1       21 0.35723701E-01 0.52337842E+03</pdfrwt>
<totfact> 0.88247172E+02</totfact>
</mgrwt>
</event>
<event>
 6    1  0.9598567E-004  0.4152255E+03  0.7818608E-02  0.1038669E+00
         21   -1    0    0  503  502  0.00000000000E+00  0.00000000000E+00  0.42379293995E+03  0.42379293995E+03  0.00000000000E+00 0.  1.
         21   -1    0    0  501  503 -0.00000000000E+00 -0.00000000000E+00 -0.50849394886E+03  0.50849394886E+03  0.00000000000E+00 0. -1.
    9000007    2    1    2  501    0  0.14749871237E+02 -0.10870788556E+03 -0.25125356422E+03  0.48532523859E+03  0.40047131058E+03 0.  0.
    9000005    1    3    3    0    0  0.10962714117E+03  0.11222922334E+03 -0.17045212855E+03  0.23166449183E+03  0.99999687468E+00 0.  0.
          4    1    3    3  501    0 -0.94877269935E+02 -0.22093710891E+03 -0.80801435668E+02  0.25366074676E+03  0.00000000000E+00 0.  1.
   -9000007    1    1    2    0  502 -0.14749871237E+02  0.10870788556E+03  0.16655255531E+03  0.44696165022E+03  0.40000000000E+03 0. -1.
<mgrwt>
<rscale>  2 0.41511184E+03</rscale>
<asrwt>0</asrwt>
<pdfrwt beam="1">  1       21 0.65198914E-01 0.41522552E+03</pdfrwt>
<pdfrwt beam="2">  1       21 0.78229838E-01 0.41522552E+03</pdfrwt>
<totfact> 0.27571992E+03</totfact>
</mgrwt>
</event>
<event>
 6    1  0.9598567E-004  0.4312709E+03  0.7818608E-02  0.1033561E+00
         21   -1    0    0  503  502  0.00000000000E+00  0.00000000000E+00  0.47634151674E+03  0.47634151674E+03  0.00000000000E+00 0. -1.
         21   -1    0    0  501  503 -0.00000000000E+00 -0.00000000000E+00 -0.40125030679E+03  0.40125030679E+03  0.00000000000E+00 0. -1.
    9000007    2    1    2  501    0 -0.10886006977E+03 -0.11892887776E+03  0.11322884802E+03  0.44463793200E+03  0.39860698162E+03 0.  0.
    9000005    1    3    3    0    0 -0.23034957618E+03  0.35357842282E+02  0.72659404660E+02  0.24411368937E+03  0.99999687468E+00 0.  0.
          4    1    3    3  501    0  0.12148950641E+03 -0.15428672004E+03  0.40569443363E+02  0.20052424263E+03  0.00000000000E+00 0.  1.
   -9000007    1    1    2    0  502  0.10886006977E+03  0.11892887776E+03 -0.38137638077E+02  0.43295389153E+03  0.40000000000E+03 0. -1.
<mgrwt>
<rscale>  2 0.43094762E+03</rscale>
<asrwt>0</asrwt>
<pdfrwt beam="1">  1       21 0.73283311E-01 0.43127090E+03</pdfrwt>
<pdfrwt beam="2">  1       21 0.61730816E-01 0.43127090E+03</pdfrwt>
<totfact> 0.35897697E+03</totfact>
</mgrwt>
</event>
<event>
 6    1  0.9598567E-004  0.4171719E+03  0.7818608E-02  0.1037992E+00
         21   -1    0    0  503  502  0.00000000000E+00  0.00000000000E+00  0.16647869122E+03  0.16647869122E+03  0.00000000000E+00 0.  1.
         21   -1    0    0  501  503 -0.00000000000E+00 -0.00000000000E+00 -0.10605513775E+04  0.10605513775E+04  0.00000000000E+00 0.  1.
    9000007    2    1    2  501    0 -0.19240012869E+02 -0.11688532080E+03 -0.37357289948E+03  0.55998255588E+03  0.39998924405E+03 0.  0.
    9000005    1    3    3    0    0  0.37980992443E+02 -0.70375045512E+02 -0.44807639846E+03  0.45515784259E+03  0.99999687468E+00 0.  0.
          4    1    3    3  501    0 -0.57221005312E+02 -0.46510275290E+02  0.74503498982E+02  0.10482471329E+03  0.00000000000E+00 0.  1.
   -9000007    1    1    2    0  502  0.19240012869E+02  0.11688532080E+03 -0.52049978680E+03  0.66704751283E+03  0.40000000000E+03 0.  1.
<mgrwt>
<rscale>  2 0.41716928E+03</rscale>
<asrwt>0</asrwt>
<pdfrwt beam="1">  1       21 0.25612107E-01 0.41717185E+03</pdfrwt>
<pdfrwt beam="2">  1       21 0.16316175E+00 0.41717185E+03</pdfrwt>
<totfact> 0.30086321E+03</totfact>
</mgrwt>
</event>
<event>
 6    1  0.9598567E-004  0.4829842E+03  0.7818608E-02  0.1018320E+00
         21   -1    0    0  503  502  0.00000000000E+00  0.00000000000E+00  0.50221078027E+03  0.50221078027E+03  0.00000000000E+00 0. -1.
         21   -1    0    0  501  503 -0.00000000000E+00 -0.00000000000E+00 -0.83789473393E+03  0.83789473393E+03  0.00000000000E+00 0.  1.
    9000007    2    1    2  501    0 -0.27013599588E+03 -0.17328256062E+02 -0.61516095165E+03  0.78209017647E+03  0.39996040174E+03 0.  0.
    9000005    1    3    3    0    0 -0.41628866512E+02  0.17385748353E+03 -0.17195726225E+03  0.24805178318E+03  0.99999687468E+00 0.  0.
          4    1    3    3  501    0 -0.22850712937E+03 -0.19118573960E+03 -0.44320368940E+03  0.53403839328E+03  0.00000000000E+00 0.  1.
   -9000007    1    1    2    0  502  0.27013599588E+03  0.17328256062E+02  0.27947699799E+03  0.55801533772E+03  0.40000000000E+03 0. -1.
<mgrwt>
<rscale>  2 0.48297599E+03</rscale>
<asrwt>0</asrwt>
<pdfrwt beam="1">  1       21 0.77263198E-01 0.48298419E+03</pdfrwt>
<pdfrwt beam="2">  1       21 0.12890688E+00 0.48298419E+03</pdfrwt>
<totfact> 0.54204201E+02</totfact>
</mgrwt>
</event>
<event>
 6    1  0.9598567E-004  0.4212318E+03  0.7818608E-02  0.1036793E+00
         21   -1    0    0  503  502  0.00000000000E+00  0.00000000000E+00  0.73477301587E+02  0.73477301587E+02  0.00000000000E+00 0.  1.
         21   -1    0    0  501  503 -0.00000000000E+00 -0.00000000000E+00 -0.26962237805E+04  0.26962237805E+04  0.00000000000E+00 0.  1.
    9000007    2    1    2  501    0 -0.68518257554E+02  0.10690059015E+03 -0.85911566321E+03  0.95682597831E+03  0.40163882059E+03 0.  0.
    9000005    1    3    3    0    0 -0.11828376830E+03 -0.48069096412E+02 -0.59593512650E+02  0.14090448757E+03  0.99999687468E+00 0.  0.
          4    1    3    3  501    0  0.49765510750E+02  0.15496968656E+03 -0.79952215056E+03  0.81592149073E+03  0.00000000000E+00 0.  1.
   -9000007    1    1    2    0  502  0.68518257554E+02 -0.10690059015E+03 -0.17636308157E+04  0.18128751038E+04  0.40000000000E+03 0. -1.
<mgrwt>
<rscale>  2 0.42084068E+03</rscale>
<asrwt>0</asrwt>
<pdfrwt beam="1">  1       21 0.11304201E-01 0.42123180E+03</pdfrwt>
<pdfrwt beam="2">  1       21 0.41480362E+00 0.42123180E+03</pdfrwt>
<totfact> 0.36008629E+02</totfact>
</mgrwt>
</event>
<event>
 6    1  0.9598567E-004  0.4093747E+03  0.7818608E-02  0.1040946E+00
         21   -1    0    0  503  502  0.00000000000E+00  0.00000000000E+00  0.27152400956E+03  0.27152400956E+03  0.00000000000E+00 0. -1.
         21   -1    0    0  501  503 -0.00000000000E+00 -0.00000000000E+00 -0.61745526734E+03  0.61745526734E+03  0.00000000000E+00 0. -1.
    9000007    2    1    2  501    0 -0.45232142018E+02 -0.44991579334E+02 -0.12743873817E+03  0.42875197436E+03  0.40437289059E+03 0.  0.
    9000005    1    3    3    0    0  0.70093638065E+02  0.29856748842E+02  0.12205460776E+03  0.14388492213E+03  0.99999687468E+00 0.  0.
          4    1    3    3  501    0 -0.11532578008E+03 -0.74848328177E+02 -0.24949334592E+03  0.28486705223E+03  0.00000000000E+00 0.  1.
   -9000007    1    1    2    0  502  0.45232142018E+02  0.44991579334E+02 -0.21849251961E+03  0.46022730254E+03  0.40000000000E+03 0.  1.
<mgrwt>
<rscale>  2 0.40829065E+03</rscale>
<asrwt>0</asrwt>
<pdfrwt beam="1">  1       21 0.41772925E-01 0.40937467E+03</pdfrwt>
<pdfrwt beam="2">  1       21 0.94993117E-01 0.40937467E+03</pdfrwt>
<totfact> 0.45460246E+03</totfact>
</mgrwt>
</event>
<event>
 6    1  0.9598567E-004  0.4675830E+03  0.7818608E-02  0.1022706E+00
         21   -1    0    0  503  502  0.00000000000E+00  0.00000000000E+00  0.36451055907E+03  0.36451055907E+03  0.00000000000E+00 0.  1.
         21   -1    0    0  501  503 -0.00000000000E+00 -0.00000000000E+00 -0.60033894348E+03  0.60033894348E+03  0.00000000000E+00 0.  1.
    9000007    2    1    2  501    0  0.22468522885E+03  0.90279448529E+02 -0.14803291518E+03  0.48909549542E+03  0.39833005005E+03 0.  0.
    9000005    1    3    3    0    0 -0.97533888309E+00 -0.71213235849E+02  0.96016896700E+02  0.11955133078E+03  0.99999687468E+00 0.  0.
          4    1    3    3  501    0  0.22566056773E+03  0.16149268438E+03 -0.24404981188E+03  0.36954416464E+03  0.00000000000E+00 0.  1.
   -9000007    1    1    2    0  502 -0.22468522885E+03 -0.90279448529E+02 -0.87795469226E+02  0.47575400714E+03  0.40000000000E+03 0.  1.
<mgrwt>
<rscale>  2 0.46722561E+03</rscale>
<asrwt>0</asrwt>
<pdfrwt beam="1">  1       21 0.56078548E-01 0.46758297E+03</pdfrwt>
<pdfrwt beam="2">  1       21 0.92359837E-01 0.46758297E+03</pdfrwt>
<totfact> 0.25526799E+03</totfact>
</mgrwt>
</event>
<event>
 6    1  0.9598567E-004  0.4971828E+03  0.7818608E-02  0.1014530E+00
         21   -1    0    0  503  502  0.00000000000E+00  0.00000000000E+00  0.10584472935E+04  0.10584472935E+04  0.00000000000E+00 0.  1.
         21   -1    0    0  501  503 -0.00000000000E+00 -0.00000000000E+00 -0.23803722387E+03  0.23803722387E+03  0.00000000000E+00 0.  1.
    9000007    2    1    2  501    0 -0.11180420371E+03 -0.27329580185E+03  0.32007660200E+03  0.59113045443E+03  0.39974417785E+03 0.  0.
    9000005    1    3    3    0    0  0.96916999512E+02  0.10984504795E+02  0.19301909059E+03  0.21626588605E+03  0.99999687468E+00 0.  0.
          4    1    3    3  501    0 -0.20872120322E+03 -0.28428030665E+03  0.12705751141E+03  0.37486456838E+03  0.00000000000E+00 0.  1.
   -9000007    1    1    2    0  502  0.11180420371E+03  0.27329580185E+03  0.50033346762E+03  0.70535406294E+03  0.40000000000E+03 0.  1.
<mgrwt>
<rscale>  2 0.49713138E+03</rscale>
<asrwt>0</asrwt>
<pdfrwt beam="1">  1       21 0.16283804E+00 0.49718284E+03</pdfrwt>
<pdfrwt beam="2">  1       21 0.36621112E-01 0.49718284E+03</pdfrwt>
<totfact> 0.14374169E+03</totfact>
</mgrwt>
</event>
<event>
 6    1  0.9598567E-004  0.4673741E+03  0.7818608E-02  0.1022671E+00
         21   -1    0    0  503  502  0.00000000000E+00  0.00000000000E+00  0.29443712405E+03  0.29443712405E+03  0.00000000000E+00 0.  1.
         21   -1    0    0  501  503 -0.00000000000E+00 -0.00000000000E+00 -0.81039849923E+03  0.81039849923E+03  0.00000000000E+00 0.  1.
    9000007    2    1    2  501    0  0.21720311155E+02 -0.24076288062E+03 -0.41876635982E+03  0.62746217659E+03  0.39988121027E+03 0.  0.
    9000005    1    3    3    0    0  0.18269515281E+03 -0.11930600261E+03 -0.78430861987E+02  0.23187031122E+03  0.99999687468E+00 0.  0.
          4    1    3    3  501    0 -0.16097484165E+03 -0.12145687801E+03 -0.34033549783E+03  0.39559186537E+03  0.00000000000E+00 0.  1.
   -9000007    1    1    2    0  502 -0.21720311155E+02  0.24076288062E+03 -0.97195015357E+02  0.47737344670E+03  0.40000000000E+03 0.  1.
<mgrwt>
<rscale>  2 0.46734867E+03</rscale>
<asrwt>0</asrwt>
<pdfrwt beam="1">  1       21 0.45298020E-01 0.46737409E+03</pdfrwt>
<pdfrwt beam="2">  1       21 0.12467669E+00 0.46737409E+03</pdfrwt>
<totfact> 0.19161876E+03</totfact>
</mgrwt>
</event>
<event>
 6    1  0.9598567E-004  0.4284741E+03  0.7818608E-02  0.1034350E+00
         21   -1    0    0  503  502  0.00000000000E+00  0.00000000000E+00  0.61471072981E+03  0.61471072981E+03  0.00000000000E+00 0. -1.
         21   -1    0    0  501  503 -0.00000000000E+00 -0.00000000000E+00 -0.33597401223E+03  0.33597401223E+03  0.00000000000E+00 0. -1.
    9000007    2    1    2  501    0  0.14589097754E+03  0.47246103346E+02 -0.19157061863E+02  0.42890214800E+03  0.40009209931E+03 0.  0.
    9000005    1    3    3    0    0  0.48077349561E+02 -0.92160487567E+02 -0.17140935185E+03  0.20046733626E+03  0.99999687468E+00 0.  0.
          4    1    3    3  501    0  0.97813627976E+02  0.13940659091E+03  0.15225228999E+03  0.22843481174E+03  0.00000000000E+00 0.  1.
   -9000007    1    1    2    0  502 -0.14589097754E+03 -0.47246103346E+02  0.29789377945E+03  0.52178259404E+03  0.40000000000E+03 0. -1.
<mgrwt>
<rscale>  2 0.42845261E+03</rscale>
<asrwt>0</asrwt>
<pdfrwt beam="1">  1       21 0.94570881E-01 0.42847411E+03</pdfrwt>
<pdfrwt beam="2">  1       21 0.51688310E-01 0.42847411E+03</pdfrwt>
<totfact> 0.29160145E+03</totfact>
</mgrwt>
</event>
<event>
 6    1  0.9598567E-004  0.5111303E+03  0.7818608E-02  0.1010924E+00
         21   -1    0    0  503  502  0.00000000000E+00  0.00000000000E+00  0.40191371414E+03  0.40191371414E+03  0.00000000000E+00 0.  1.
         21   -1    0    0  501  503 -0.00000000000E+00 -0.00000000000E+00 -0.96135040407E+03  0.96135040407E+03  0.00000000000E+00 0. -1.
    9000007    2    1    2  501    0  0.28269088686E+03 -0.14608233164E+03 -0.66770780628E+03  0.84079228187E+03  0.39980465423E+03 0.  0.
    9000005    1    3    3    0    0  0.18256340248E+03 -0.21455683713E+03 -0.66189133022E+03  0.71935051630E+03  0.99999687468E+00 0.  0.
          4    1    3    3  501    0  0.10012748438E+03  0.68474505487E+02 -0.58164760597E+01  0.12144176557E+03  0.00000000000E+00 0.  1.
   -9000007    1    1    2    0  502 -0.28269088686E+03  0.14608233164E+03  0.10827111635E+03  0.52247183634E+03  0.40000000000E+03 0.  1.
<mgrwt>
<rscale>  2 0.51109208E+03</rscale>
<asrwt>0</asrwt>
<pdfrwt beam="1">  1       21 0.61832879E-01 0.51113030E+03</pdfrwt>
<pdfrwt beam="2">  1       21 0.14790006E+00 0.51113030E+03</pdfrwt>
<totfact> 0.61462489E+02</totfact>
</mgrwt>
</event>
<event>
 6    1  0.9598567E-004  0.4905296E+03  0.7818608E-02  0.1016291E+00
         21   -1    0    0  503  502  0.00000000000E+00  0.00000000000E+00  0.44107484696E+03  0.44107484696E+03  0.00000000000E+00 0. -1.
         21   -1    0    0  501  503 -0.00000000000E+00 -0.00000000000E+00 -0.54538948877E+03  0.54538948877E+03  0.00000000000E+00 0. -1.
    9000007    2    1    2  501    0  0.27856419635E+03  0.54966223833E+02 -0.48105940352E+02  0.49272481394E+03  0.39980528202E+03 0.  0.
    9000005    1    3    3    0    0  0.36807347203E+03  0.11130104399E+03 -0.34193893162E+02  0.38605210209E+03  0.99999687468E+00 0.  0.
          4    1    3    3  501    0 -0.89509275684E+02 -0.56334820161E+02 -0.13912047190E+02  0.10667271185E+03  0.00000000000E+00 0.  1.
   -9000007    1    1    2    0  502 -0.27856419635E+03 -0.54966223833E+02 -0.56208701457E+02  0.49373952178E+03  0.40000000000E+03 0. -1.
<mgrwt>
<rscale>  2 0.49048991E+03</rscale>
<asrwt>0</asrwt>
<pdfrwt beam="1">  1       21 0.67857669E-01 0.49052961E+03</pdfrwt>
<pdfrwt beam="2">  1       21 0.83906075E-01 0.49052961E+03</pdfrwt>
<totfact> 0.20861768E+03</totfact>
</mgrwt>
</event>
<event>
 6    1  0.9598567E-004  0.4799599E+03  0.7818608E-02  0.1019160E+00
         21   -1    0    0  503  502  0.00000000000E+00  0.00000000000E+00  0.43580808587E+03  0.43580808587E+03  0.00000000000E+00 0.  1.
         21   -1    0    0  501  503 -0.00000000000E+00 -0.00000000000E+00 -0.53413823121E+03  0.53413823121E+03  0.00000000000E+00 0. -1.
    9000007    2    1    2  501    0  0.51993537269E+02  0.26011182247E+03  0.12838338824E+01  0.47975815630E+03  0.39975586575E+03 0.  0.
    9000005    1    3    3    0    0  0.19808037270E+03  0.23065709765E+02  0.21512282945E+02  0.20057826235E+03  0.99999687468E+00 0.  0.
          4    1    3    3  501    0 -0.14608683543E+03  0.23704611270E+03 -0.20228449063E+02  0.27917989395E+03  0.00000000000E+00 0.  1.
   -9000007    1    1    2    0  502 -0.51993537269E+02 -0.26011182247E+03 -0.99613979220E+02  0.49018816077E+03  0.40000000000E+03 0. -1.
<mgrwt>
<rscale>  2 0.47990901E+03</rscale>
<asrwt>0</asrwt>
<pdfrwt beam="1">  1       21 0.67047398E-01 0.47995988E+03</pdfrwt>
<pdfrwt beam="2">  1       21 0.82175113E-01 0.47995988E+03</pdfrwt>
<totfact> 0.22581057E+03</totfact>
</mgrwt>
</event>
<event>
 6    1  0.9598567E-004  0.4885092E+03  0.7818608E-02  0.1016829E+00
         21   -1    0    0  503  502  0.00000000000E+00  0.00000000000E+00  0.25155118017E+04  0.25155118017E+04  0.00000000000E+00 0. -1.
         21   -1    0    0  501  503 -0.00000000000E+00 -0.00000000000E+00 -0.11027210350E+03  0.11027210350E+03  0.00000000000E+00 0. -1.
    9000007    2    1    2  501    0  0.28007070943E+03  0.10495856866E+02  0.71172921086E+03  0.86324949814E+03  0.40011431012E+03 0.  0.
    9000005    1    3    3    0    0  0.23673358033E+03  0.99609672834E+02  0.71938732313E+03  0.76386124110E+03  0.99999687468E+00 0.  0.
          4    1    3    3  501    0  0.43337129107E+02 -0.89113815967E+02 -0.76581122700E+01  0.99388257048E+02  0.00000000000E+00 0.  1.
   -9000007    1    1    2    0  502 -0.28007070943E+03 -0.10495856866E+02  0.16935104874E+04  0.17625344071E+04  0.40000000000E+03 0. -1.
<mgrwt>
<rscale>  2 0.48848578E+03</rscale>
<asrwt>0</asrwt>
<pdfrwt beam="1">  1       21 0.38700177E+00 0.48850919E+03</pdfrwt>
<pdfrwt beam="2">  1       21 0.16964941E-01 0.48850919E+03</pdfrwt>
<totfact> 0.24599463E+02</totfact>
</mgrwt>
</event>
<event>
 6    1  0.9598567E-004  0.5098306E+03  0.7818608E-02  0.1011246E+00
         21   -1    0    0  503  502  0.00000000000E+00  0.00000000000E+00  0.11220226030E+04  0.11220226030E+04  0.00000000000E+00 0.  1.
         21   -1    0    0  501  503 -0.00000000000E+00 -0.00000000000E+00 -0.24687748412E+03  0.24687748412E+03  0.00000000000E+00 0. -1.
    9000007    2    1    2  501    0 -0.28595929183E+03  0.13473874723E+03  0.26755990845E+03  0.57575001652E+03  0.39996566143E+03 0.  0.
    9000005    1    3    3    0    0 -0.37967814734E+03  0.56600961250E+02  0.17143907924E+03  0.42041827061E+03  0.99999687468E+00 0.  0.
          4    1    3    3  501    0  0.93718855512E+02  0.78137785984E+02  0.96120829212E+02  0.15533174590E+03  0.00000000000E+00 0.  1.
   -9000007    1    1    2    0  502  0.28595929183E+03 -0.13473874723E+03  0.60758521047E+03  0.79315007065E+03  0.40000000000E+03 0.  1.
<mgrwt>
<rscale>  2 0.50982387E+03</rscale>
<asrwt>0</asrwt>
<pdfrwt beam="1">  1       21 0.17261886E+00 0.50983061E+03</pdfrwt>
<pdfrwt beam="2">  1       21 0.37981152E-01 0.50983061E+03</pdfrwt>
<totfact> 0.11248529E+03</totfact>
</mgrwt>
</event>
<event>
 6    1  0.9598567E-004  0.5087712E+03  0.7818608E-02  0.1011544E+00
         21   -1    0    0  503  502  0.00000000000E+00  0.00000000000E+00  0.99796648417E+03  0.99796648417E+03  0.00000000000E+00 0. -1.
         21   -1    0    0  501  503 -0.00000000000E+00 -0.00000000000E+00 -0.25920426573E+03  0.25920426573E+03  0.00000000000E+00 0. -1.
    9000007    2    1    2  501    0 -0.21718495349E+03 -0.22732972102E+03  0.35959244638E+03  0.62264902283E+03  0.39942079572E+03 0.  0.
    9000005    1    3    3    0    0 -0.14545089522E+03  0.97749077407E+02  0.11642979187E+03  0.21039900543E+03  0.99999687468E+00 0.  0.
          4    1    3    3  501    0 -0.71734058271E+02 -0.32507879843E+03  0.24316265451E+03  0.41225001740E+03  0.00000000000E+00 0.  1.
   -9000007    1    1    2    0  502  0.21718495349E+03  0.22732972102E+03  0.37916977205E+03  0.63452172707E+03  0.40000000000E+03 0. -1.
<mgrwt>
<rscale>  2 0.50865732E+03</rscale>
<asrwt>0</asrwt>
<pdfrwt beam="1">  1       21 0.15353330E+00 0.50877117E+03</pdfrwt>
<pdfrwt beam="2">  1       21 0.39877580E-01 0.50877117E+03</pdfrwt>
<totfact> 0.14157562E+03</totfact>
</mgrwt>
</event>
<event>
 6    1  0.9598567E-004  0.5167927E+03  0.7818608E-02  0.1009493E+00
         21   -1    0    0  503  502  0.00000000000E+00  0.00000000000E+00  0.52119180494E+03  0.52119180494E+03  0.00000000000E+00 0.  1.
         21   -1    0    0  501  503 -0.00000000000E+00 -0.00000000000E+00 -0.62703304590E+03  0.62703304590E+03  0.00000000000E+00 0.  1.
    9000007    2    1    2  501    0  0.32460718574E+03  0.41290062679E+02 -0.29847326930E+03  0.59669806758E+03  0.39985947163E+03 0.  0.
    9000005    1    3    3    0    0  0.30633040567E+03 -0.49446729112E+02 -0.28856548822E+02  0.31163600059E+03  0.99999687468E+00 0.  0.
          4    1    3    3  501    0  0.18276780070E+02  0.90736791791E+02 -0.26961672048E+03  0.28506206699E+03  0.00000000000E+00 0.  1.
   -9000007    1    1    2    0  502 -0.32460718574E+03 -0.41290062679E+02  0.19263202834E+03  0.55152678326E+03  0.40000000000E+03 0.  1.
<mgrwt>
<rscale>  2 0.51676551E+03</rscale>
<asrwt>0</asrwt>
<pdfrwt beam="1">  1       21 0.80183354E-01 0.51679270E+03</pdfrwt>
<pdfrwt beam="2">  1       21 0.96466623E-01 0.51679270E+03</pdfrwt>
<totfact> 0.10144041E+03</totfact>
</mgrwt>
</event>
<event>
 6    1  0.9598567E-004  0.4754675E+03  0.7818608E-02  0.1020416E+00
         21   -1    0    0  503  502  0.00000000000E+00  0.00000000000E+00  0.59354048869E+03  0.59354048869E+03  0.00000000000E+00 0. -1.
         21   -1    0    0  501  503 -0.00000000000E+00 -0.00000000000E+00 -0.57191272797E+03  0.57191272797E+03  0.00000000000E+00 0. -1.
    9000007    2    1    2  501    0 -0.23489222563E+03  0.10252837490E+03 -0.32625073582E+03  0.57663586494E+03  0.40047840490E+03 0.  0.
    9000005    1    3    3    0    0 -0.33081860963E+03  0.89932247633E+02 -0.33520731879E+03  0.47947232267E+03  0.99999687468E+00 0.  0.
          4    1    3    3  501    0  0.95926383999E+02  0.12596127271E+02  0.89565829639E+01  0.97163542276E+02  0.00000000000E+00 0.  1.
   -9000007    1    1    2    0  502  0.23489222563E+03 -0.10252837490E+03  0.34787849654E+03  0.58881735171E+03  0.40000000000E+03 0. -1.
<mgrwt>
<rscale>  2 0.47536678E+03</rscale>
<asrwt>0</asrwt>
<pdfrwt beam="1">  1       21 0.91313921E-01 0.47546754E+03</pdfrwt>
<pdfrwt beam="2">  1       21 0.87986573E-01 0.47546754E+03</pdfrwt>
<totfact> 0.94549784E+02</totfact>
</mgrwt>
</event>
<event>
 6    1  0.9598567E-004  0.4829233E+03  0.7818608E-02  0.1018694E+00
         21   -1    0    0  503  502  0.00000000000E+00  0.00000000000E+00  0.17324570145E+04  0.17324570145E+04  0.00000000000E+00 0. -1.
         21   -1    0    0  501  503 -0.00000000000E+00 -0.00000000000E+00 -0.67036504861E+03  0.67036504861E+03  0.00000000000E+00 0. -1.
    9000007    2    1    2  501    0 -0.21109231777E+03 -0.15371199044E+03 -0.54386495410E+03  0.72732662251E+03  0.40623587345E+03 0.  0.
    9000005    1    3    3    0    0 -0.53833189951E+02 -0.18537182371E+03 -0.53261747359E+03  0.56651840088E+03  0.99999687468E+00 0.  0.
          4    1    3    3  501    0 -0.15725912782E+03  0.31659833268E+02 -0.11247480511E+02  0.16080822163E+03  0.00000000000E+00 0.  1.
   -9000007    1    1    2    0  502  0.21109231777E+03  0.15371199044E+03  0.16059569200E+04  0.16754954406E+04  0.40000000000E+03 0. -1.
<mgrwt>
<rscale>  2 0.48160953E+03</rscale>
<asrwt>0</asrwt>
<pdfrwt beam="1">  1       21 0.26653185E+00 0.48292331E+03</pdfrwt>
<pdfrwt beam="2">  1       21 0.10313309E+00 0.48292331E+03</pdfrwt>
<totfact> 0.30246158E+01</totfact>
</mgrwt>
</event>
<event>
 6    1  0.9598567E-004  0.4007110E+03  0.7818608E-02  0.1043538E+00
         21   -1    0    0  503  502  0.00000000000E+00  0.00000000000E+00  0.13376186439E+04  0.13376186439E+04  0.00000000000E+00 0.  1.
         21   -1    0    0  501  503 -0.00000000000E+00 -0.00000000000E+00 -0.14650270998E+03  0.14650270998E+03  0.00000000000E+00 0.  1.
    9000007    2    1    2  501    0 -0.19321925776E+02 -0.12538314870E+02  0.28012839238E+03  0.48891843638E+03  0.40004846589E+03 0.  0.
    9000005    1    3    3    0    0 -0.14667757290E+03 -0.14841677671E+03  0.10638190585E+03  0.23422203117E+03  0.99999687468E+00 0.  0.
          4    1    3    3  501    0  0.12735564712E+03  0.13587846184E+03  0.17374648653E+03  0.25469640521E+03  0.00000000000E+00 0.  1.
   -9000007    1    1    2    0  502  0.19321925776E+02  0.12538314870E+02  0.91098754149E+03  0.99520291745E+03  0.40000000000E+03 0. -1.
<mgrwt>
<rscale>  2 0.40069892E+03</rscale>
<asrwt>0</asrwt>
<pdfrwt beam="1">  1       21 0.20578748E+00 0.40071102E+03</pdfrwt>
<pdfrwt beam="2">  1       21 0.22538879E-01 0.40071102E+03</pdfrwt>
<totfact> 0.19623971E+03</totfact>
</mgrwt>
</event>
<event>
 6    1  0.9598567E-004  0.4075775E+03  0.7818608E-02  0.1041201E+00
         21   -1    0    0  503  502  0.00000000000E+00  0.00000000000E+00  0.10688392879E+03  0.10688392879E+03  0.00000000000E+00 0.  1.
         21   -1    0    0  501  503 -0.00000000000E+00 -0.00000000000E+00 -0.18535874675E+04  0.18535874675E+04  0.00000000000E+00 0.  1.
    9000007    2    1    2  501    0  0.57199936215E+02 -0.52075816250E+02 -0.12678658737E+04  0.13317669882E+04  0.40016960624E+03 0.  0.
    9000005    1    3    3    0    0 -0.10180937260E+03  0.77832059832E+02 -0.15981926255E+03  0.20485647308E+03  0.99999687468E+00 0.  0.
          4    1    3    3  501    0  0.15900930881E+03 -0.12990787608E+03 -0.11080466111E+04  0.11269105151E+04  0.00000000000E+00 0.  1.
   -9000007    1    1    2    0  502 -0.57199936215E+02  0.52075816250E+02 -0.47883766499E+03  0.62870440809E+03  0.40000000000E+03 0.  1.
<mgrwt>
<rscale>  2 0.40753589E+03</rscale>
<asrwt>0</asrwt>
<pdfrwt beam="1">  1       21 0.16443681E-01 0.40757752E+03</pdfrwt>
<pdfrwt beam="2">  1       21 0.28516732E+00 0.40757752E+03</pdfrwt>
<totfact> 0.11469345E+03</totfact>
</mgrwt>
</event>
<event>
 6    1  0.9598567E-004  0.4872494E+03  0.7818608E-02  0.1017169E+00
         21   -1    0    0  503  502  0.00000000000E+00  0.00000000000E+00  0.22928213340E+03  0.22928213340E+03  0.00000000000E+00 0.  1.
         21   -1    0    0  501  503 -0.00000000000E+00 -0.00000000000E+00 -0.22283323444E+04  0.22283323444E+04  0.00000000000E+00 0.  1.
    9000007    2    1    2  501    0  0.16400595568E+03  0.22475331558E+03 -0.18986238041E+04  0.19601233025E+04  0.39987373623E+03 0.  0.
    9000005    1    3    3    0    0  0.16938756801E+03 -0.35045211782E+02 -0.12413958265E+04  0.12533893701E+04  0.99999687468E+00 0.  0.
          4    1    3    3  501    0 -0.53816123349E+01  0.25979852736E+03 -0.65722797764E+03  0.70673393237E+03  0.00000000000E+00 0.  1.
   -9000007    1    1    2    0  502 -0.16400595568E+03 -0.22475331558E+03 -0.10042640690E+03  0.49749117536E+03  0.40000000000E+03 0.  1.
<mgrwt>
<rscale>  2 0.48722351E+03</rscale>
<asrwt>0</asrwt>
<pdfrwt beam="1">  1       21 0.35274173E-01 0.48724943E+03</pdfrwt>
<pdfrwt beam="2">  1       21 0.34282037E+00 0.48724943E+03</pdfrwt>
<totfact> 0.11150929E+02</totfact>
</mgrwt>
</event>
<event>
 6    1  0.9598567E-004  0.4323009E+03  0.7818608E-02  0.1033213E+00
         21   -1    0    0  503  502  0.00000000000E+00  0.00000000000E+00  0.10766241240E+03  0.10766241240E+03  0.00000000000E+00 0.  1.
         21   -1    0    0  501  503 -0.00000000000E+00 -0.00000000000E+00 -0.18358997962E+04  0.18358997962E+04  0.00000000000E+00 0. -1.
    9000007    2    1    2  501    0 -0.12954706799E+03  0.96185274179E+02 -0.10963571883E+04  0.11785088567E+04  0.40106108159E+03 0.  0.
    9000005    1    3    3    0    0 -0.69062657434E+02  0.12819235321E+03 -0.11003672354E+04  0.11099603520E+04  0.99999687468E+00 0.  0.
          4    1    3    3  501    0 -0.60484410560E+02 -0.32007079027E+02  0.40100471068E+01  0.68548504772E+02  0.00000000000E+00 0.  1.
   -9000007    1    1    2    0  502  0.12954706799E+03 -0.96185274179E+02 -0.63188019546E+03  0.76505335187E+03  0.40000000000E+03 0.  1.
<mgrwt>
<rscale>  2 0.43205460E+03</rscale>
<asrwt>0</asrwt>
<pdfrwt beam="1">  1       21 0.16563450E-01 0.43230087E+03</pdfrwt>
<pdfrwt beam="2">  1       21 0.28244610E+00 0.43230087E+03</pdfrwt>
<totfact> 0.11589379E+03</totfact>
</mgrwt>
</event>
<event>
 6    1  0.9598567E-004  0.4688219E+03  0.7818608E-02  0.1022295E+00
         21   -1    0    0  503  502  0.00000000000E+00  0.00000000000E+00  0.11869640151E+04  0.11869640151E+04  0.00000000000E+00 0.  1.
         21   -1    0    0  501  503 -0.00000000000E+00 -0.00000000000E+00 -0.18719607503E+03  0.18719607503E+03  0.00000000000E+00 0.  1.
    9000007    2    1    2  501    0 -0.15231812778E+03 -0.19129346932E+03  0.57498306545E+03  0.74151785856E+03  0.39931091339E+03 0.  0.
    9000005    1    3    3    0    0  0.62664433461E+02 -0.18600511357E+03  0.10036001499E+03  0.22044923701E+03  0.99999687468E+00 0.  0.
          4    1    3    3  501    0 -0.21498256124E+03 -0.52883557535E+01  0.47462305045E+03  0.52106862155E+03  0.00000000000E+00 0.  1.
   -9000007    1    1    2    0  502  0.15231812778E+03  0.19129346932E+03  0.42478487460E+03  0.63264223155E+03  0.40000000000E+03 0.  1.
<mgrwt>
<rscale>  2 0.46867491E+03</rscale>
<asrwt>0</asrwt>
<pdfrwt beam="1">  1       21 0.18260984E+00 0.46882193E+03</pdfrwt>
<pdfrwt beam="2">  1       21 0.28799397E-01 0.46882193E+03</pdfrwt>
<totfact> 0.16939970E+03</totfact>
</mgrwt>
</event>
<event>
 6    1  0.9598567E-004  0.4067123E+03  0.7818608E-02  0.1041575E+00
         21   -1    0    0  503  502  0.00000000000E+00  0.00000000000E+00  0.11515835589E+03  0.11515835589E+03  0.00000000000E+00 0. -1.
         21   -1    0    0  501  503 -0.00000000000E+00 -0.00000000000E+00 -0.15425433854E+04  0.15425433854E+04  0.00000000000E+00 0. -1.
    9000007    2    1    2  501    0  0.78656590545E+01  0.73164525194E+02 -0.93420994749E+03  0.10184548579E+04  0.39885731198E+03 0.  0.
    9000005    1    3    3    0    0 -0.51516145862E+02 -0.15827732822E+03 -0.36804687542E+03  0.40393703521E+03  0.99999687468E+00 0.  0.
          4    1    3    3  501    0  0.59381804916E+02  0.23144185342E+03 -0.56616307207E+03  0.61451782272E+03  0.00000000000E+00 0.  1.
   -9000007    1    1    2    0  502 -0.78656590545E+01 -0.73164525194E+02 -0.49317508200E+03  0.63924688333E+03  0.40000000000E+03 0. -1.
<mgrwt>
<rscale>  2 0.40643109E+03</rscale>
<asrwt>0</asrwt>
<pdfrwt beam="1">  1       21 0.17716670E-01 0.40671233E+03</pdfrwt>
<pdfrwt beam="2">  1       21 0.23731437E+00 0.40671233E+03</pdfrwt>
<totfact> 0.19480659E+03</totfact>
</mgrwt>
</event>
<event>
 6    1  0.9598567E-004  0.4124090E+03  0.7818608E-02  0.1039615E+00
         21   -1    0    0  503  502  0.00000000000E+00  0.00000000000E+00  0.95146056900E+03  0.95146056900E+03  0.00000000000E+00 0.  1.
         21   -1    0    0  501  503 -0.00000000000E+00 -0.00000000000E+00 -0.30424765731E+03  0.30424765731E+03  0.00000000000E+00 0.  1.
    9000007    2    1    2  501    0  0.41288034749E+02  0.91523186418E+02  0.72711146712E+03  0.83563088269E+03  0.39938288775E+03 0.  0.
    9000005    1    3    3    0    0 -0.13608633822E+03 -0.10262608037E+02  0.82768903763E+02  0.15961360844E+03  0.99999687468E+00 0.  0.
          4    1    3    3  501    0  0.17737437297E+03  0.10178579445E+03  0.64434256335E+03  0.67601727425E+03  0.00000000000E+00 0.  1.
   -9000007    1    1    2    0  502 -0.41288034749E+02 -0.91523186418E+02 -0.79898555424E+02  0.42007734362E+03  0.40000000000E+03 0.  1.
<mgrwt>
<rscale>  2 0.41225930E+03</rscale>
<asrwt>0</asrwt>
<pdfrwt beam="1">  1       21 0.14637855E+00 0.41240901E+03</pdfrwt>
<pdfrwt beam="2">  1       21 0.46807333E-01 0.41240901E+03</pdfrwt>
<totfact> 0.12004557E+03</totfact>
</mgrwt>
</event>
<event>
 6    1  0.9598567E-004  0.4229783E+03  0.7818608E-02  0.1036106E+00
         21   -1    0    0  503  502  0.00000000000E+00  0.00000000000E+00  0.19770596518E+03  0.19770596518E+03  0.00000000000E+00 0.  1.
         21   -1    0    0  501  503 -0.00000000000E+00 -0.00000000000E+00 -0.91557528647E+03  0.91557528647E+03  0.00000000000E+00 0.  1.
    9000007    2    1    2  501    0  0.91593108673E+02  0.10230984111E+03 -0.29856402447E+03  0.51773651523E+03  0.40006752098E+03 0.  0.
    9000005    1    3    3    0    0 -0.38357817047E+01 -0.15093906898E+03 -0.87332592071E+02  0.17442848792E+03  0.99999687468E+00 0.  0.
          4    1    3    3  501    0  0.95428890378E+02  0.25324891009E+03 -0.21123143240E+03  0.34330802731E+03  0.00000000000E+00 0.  1.
   -9000007    1    1    2    0  502 -0.91593108673E+02 -0.10230984111E+03 -0.41930529682E+03  0.59554473643E+03  0.40000000000E+03 0.  1.
<mgrwt>
<rscale>  2 0.42296231E+03</rscale>
<asrwt>0</asrwt>
<pdfrwt beam="1">  1       21 0.30416303E-01 0.42297828E+03</pdfrwt>
<pdfrwt beam="2">  1       21 0.14085773E+00 0.42297828E+03</pdfrwt>
<totfact> 0.31942197E+03</totfact>
</mgrwt>
</event>
<event>
 6    1  0.9598567E-004  0.4154279E+03  0.7818608E-02  0.1039318E+00
         21   -1    0    0  503  502  0.00000000000E+00  0.00000000000E+00  0.73812726812E+03  0.73812726812E+03  0.00000000000E+00 0. -1.
         21   -1    0    0  501  503 -0.00000000000E+00 -0.00000000000E+00 -0.55910585293E+03  0.55910585293E+03  0.00000000000E+00 0. -1.
    9000007    2    1    2  501    0  0.69511353618E+02 -0.18167669523E+02 -0.40864722830E+03  0.58272886841E+03  0.40916803930E+03 0.  0.
    9000005    1    3    3    0    0  0.17263260427E+03 -0.13453522770E+03 -0.35726168420E+03  0.41897333393E+03  0.99999687468E+00 0.  0.
          4    1    3    3  501    0 -0.10312125065E+03  0.11636755818E+03 -0.51385544095E+02  0.16375553448E+03  0.00000000000E+00 0.  1.
   -9000007    1    1    2    0  502 -0.69511353618E+02  0.18167669523E+02  0.58766864349E+03  0.71450425264E+03  0.40000000000E+03 0. -1.
<mgrwt>
<rscale>  2 0.41315262E+03</rscale>
<asrwt>0</asrwt>
<pdfrwt beam="1">  1       21 0.11355804E+00 0.41542794E+03</pdfrwt>
<pdfrwt beam="2">  1       21 0.86016285E-01 0.41542794E+03</pdfrwt>
<totfact> 0.60148226E+02</totfact>
</mgrwt>
</event>
<event>
 6    1  0.9598567E-004  0.4871848E+03  0.7818608E-02  0.1017182E+00
         21   -1    0    0  503  502  0.00000000000E+00  0.00000000000E+00  0.43562919916E+03  0.43562919916E+03  0.00000000000E+00 0. -1.
         21   -1    0    0  501  503 -0.00000000000E+00 -0.00000000000E+00 -0.68340197053E+03  0.68340197053E+03  0.00000000000E+00 0.  1.
    9000007    2    1    2  501    0  0.11155643699E+03  0.25476305039E+03 -0.37586107272E+03  0.61528950631E+03  0.39995072211E+03 0.  0.
    9000005    1    3    3    0    0 -0.13703239297E+03  0.14691674912E+03 -0.86134438070E+02  0.21859219865E+03  0.99999687468E+00 0.  0.
          4    1    3    3  501    0  0.24858882996E+03  0.10784630126E+03 -0.28972663465E+03  0.39669730766E+03  0.00000000000E+00 0.  1.
   -9000007    1    1    2    0  502 -0.11155643699E+03 -0.25476305039E+03  0.12808830135E+03  0.50374166337E+03  0.40000000000E+03 0. -1.
<mgrwt>
<rscale>  2 0.48717471E+03</rscale>
<asrwt>0</asrwt>
<pdfrwt beam="1">  1       21 0.67019877E-01 0.48718482E+03</pdfrwt>
<pdfrwt beam="2">  1       21 0.10513876E+00 0.48718482E+03</pdfrwt>
<totfact> 0.12500031E+03</totfact>
</mgrwt>
</event>
<event>
 6    1  0.9598567E-004  0.4672263E+03  0.7818608E-02  0.1022798E+00
         21   -1    0    0  503  502  0.00000000000E+00  0.00000000000E+00  0.77080137342E+03  0.77080137342E+03  0.00000000000E+00 0.  1.
         21   -1    0    0  501  503 -0.00000000000E+00 -0.00000000000E+00 -0.37328730356E+03  0.37328730356E+03  0.00000000000E+00 0.  1.
    9000007    2    1    2  501    0 -0.24142790235E+03  0.35969542785E+01 -0.83671763950E+02  0.47338741951E+03  0.39849004348E+03 0.  0.
    9000005    1    3    3    0    0 -0.52494434160E+02  0.18619252924E+03 -0.83331612283E+02  0.21063827089E+03  0.99999687468E+00 0.  0.
          4    1    3    3  501    0 -0.18893346819E+03 -0.18259557496E+03 -0.34015166687E+00  0.26274914862E+03  0.00000000000E+00 0.  1.
   -9000007    1    1    2    0  502  0.24142790235E+03 -0.35969542785E+01  0.48118583382E+03  0.67070125747E+03  0.40000000000E+03 0.  1.
<mgrwt>
<rscale>  2 0.46690290E+03</rscale>
<asrwt>0</asrwt>
<pdfrwt beam="1">  1       21 0.11858483E+00 0.46722625E+03</pdfrwt>
<pdfrwt beam="2">  1       21 0.57428816E-01 0.46722625E+03</pdfrwt>
<totfact> 0.13122267E+03</totfact>
</mgrwt>
</event>
<event>
 6    1  0.9598567E-004  0.4158715E+03  0.7818608E-02  0.1038438E+00
         21   -1    0    0  503  502  0.00000000000E+00  0.00000000000E+00  0.45974775953E+03  0.45974775953E+03  0.00000000000E+00 0. -1.
         21   -1    0    0  501  503 -0.00000000000E+00 -0.00000000000E+00 -0.37958528020E+03  0.37958528020E+03  0.00000000000E+00 0.  1.
    9000007    2    1    2  501    0  0.39738126056E+02  0.10571060536E+03  0.81047548314E+02  0.42369541620E+03  0.40024398793E+03 0.  0.
    9000005    1    3    3    0    0  0.22995743583E+02 -0.12421767134E+03  0.13711204626E+03  0.18643912497E+03  0.99999687468E+00 0.  0.
          4    1    3    3  501    0  0.16742382473E+02  0.22992827670E+03 -0.56064497942E+02  0.23725629123E+03  0.00000000000E+00 0.  1.
   -9000007    1    1    2    0  502 -0.39738126056E+02 -0.10571060536E+03 -0.88506897523E+00  0.41563762353E+03  0.40000000000E+03 0.  1.
<mgrwt>
<rscale>  2 0.41581278E+03</rscale>
<asrwt>0</asrwt>
<pdfrwt beam="1">  1       21 0.70730424E-01 0.41587150E+03</pdfrwt>
<pdfrwt beam="2">  1       21 0.58397735E-01 0.41587150E+03</pdfrwt>
<totfact> 0.44162216E+03</totfact>
</mgrwt>
</event>
<event>
 6    1  0.9598567E-004  0.4940821E+03  0.7818608E-02  0.1015427E+00
         21   -1    0    0  503  502  0.00000000000E+00  0.00000000000E+00  0.18444122367E+04  0.18444122367E+04  0.00000000000E+00 0. -1.
         21   -1    0    0  501  503 -0.00000000000E+00 -0.00000000000E+00 -0.21310696867E+03  0.21310696867E+03  0.00000000000E+00 0. -1.
    9000007    2    1    2  501    0  0.10713911490E+03 -0.26951500987E+03  0.18022885465E+03  0.52463307522E+03  0.39829673999E+03 0.  0.
    9000005    1    3    3    0    0  0.16927261368E+03  0.39496819140E+02  0.95127623422E+02  0.19815014811E+03  0.99999687468E+00 0.  0.
          4    1    3    3  501    0 -0.62133498780E+02 -0.30901182901E+03  0.85101231225E+02  0.32648292711E+03  0.00000000000E+00 0.  1.
   -9000007    1    1    2    0  502 -0.10713911490E+03  0.26951500987E+03  0.14510764134E+04  0.15328861302E+04  0.40000000000E+03 0. -1.
<mgrwt>
<rscale>  2 0.49373727E+03</rscale>
<asrwt>0</asrwt>
<pdfrwt beam="1">  1       21 0.28375572E+00 0.49408211E+03</pdfrwt>
<pdfrwt beam="2">  1       21 0.32785689E-01 0.49408211E+03</pdfrwt>
<totfact> 0.29362564E+02</totfact>
</mgrwt>
</event>
<event>
 6    1  0.9598567E-004  0.4475405E+03  0.7818608E-02  0.1029019E+00
         21   -1    0    0  503  502  0.00000000000E+00  0.00000000000E+00  0.86972160618E+03  0.86972160618E+03  0.00000000000E+00 0.  1.
         21   -1    0    0  501  503 -0.00000000000E+00 -0.00000000000E+00 -0.22649990183E+03  0.22649990183E+03  0.00000000000E+00 0.  1.
    9000007    2    1    2  501    0  0.90806410506E+02 -0.17901589034E+03  0.31939990494E+03  0.54381490871E+03  0.39169613539E+03 0.  0.
    9000005    1    3    3    0    0 -0.50518479820E+01 -0.91299964441E+02  0.38678418503E+03  0.39744711656E+03  0.99999687468E+00 0.  0.
          4    1    3    3  501    0  0.95858258488E+02 -0.87715925895E+02 -0.67384280092E+02  0.14636779215E+03  0.00000000000E+00 0.  1.
   -9000007    1    1    2    0  502 -0.90806410506E+02  0.17901589034E+03  0.32382179941E+03  0.55240659930E+03  0.40000000000E+03 0.  1.
<mgrwt>
<rscale>  2 0.44567739E+03</rscale>
<asrwt>0</asrwt>
<pdfrwt beam="1">  1       21 0.13380332E+00 0.44754049E+03</pdfrwt>
<pdfrwt beam="2">  1       21 0.34846139E-01 0.44754049E+03</pdfrwt>
<totfact> 0.27589604E+03</totfact>
</mgrwt>
</event>
<event>
 6    1  0.9598567E-004  0.5509575E+03  0.7818608E-02  0.1001291E+00
         21   -1    0    0  503  502  0.00000000000E+00  0.00000000000E+00  0.86849488187E+03  0.86849488187E+03  0.00000000000E+00 0.  1.
         21   -1    0    0  501  503 -0.00000000000E+00 -0.00000000000E+00 -0.37090780998E+03  0.37090780998E+03  0.00000000000E+00 0.  1.
    9000007    2    1    2  501    0  0.98900581936E+02 -0.36525804986E+03  0.99325882445E+02  0.55983905015E+03  0.40044895187E+03 0.  0.
    9000005    1    3    3    0    0 -0.15592944802E+03 -0.11534540270E+03  0.30535555043E+02  0.19634656808E+03  0.99999687468E+00 0.  0.
          4    1    3    3  501    0  0.25483002995E+03 -0.24991264716E+03  0.68790327402E+02  0.36349248207E+03  0.00000000000E+00 0.  1.
   -9000007    1    1    2    0  502 -0.98900581936E+02  0.36525804986E+03  0.39826118945E+03  0.67956364169E+03  0.40000000000E+03 0.  1.
<mgrwt>
<rscale>  2 0.55087589E+03</rscale>
<asrwt>0</asrwt>
<pdfrwt beam="1">  1       21 0.13361460E+00 0.55095747E+03</pdfrwt>
<pdfrwt beam="2">  1       21 0.57062740E-01 0.55095747E+03</pdfrwt>
<totfact> 0.94821032E+02</totfact>
</mgrwt>
</event>
<event>
 6    1  0.9598567E-004  0.4189356E+03  0.7818608E-02  0.1037490E+00
         21   -1    0    0  503  502  0.00000000000E+00  0.00000000000E+00  0.11486465668E+04  0.11486465668E+04  0.00000000000E+00 0.  1.
         21   -1    0    0  501  503 -0.00000000000E+00 -0.00000000000E+00 -0.15608884409E+03  0.15608884409E+03  0.00000000000E+00 0.  1.
    9000007    2    1    2  501    0  0.31628837678E+02  0.12044353886E+03  0.39615186945E+03  0.57589594212E+03  0.39901479052E+03 0.  0.
    9000005    1    3    3    0    0 -0.12505318929E+03  0.19396919720E+03  0.15097366368E+03  0.27578324229E+03  0.99999687468E+00 0.  0.
          4    1    3    3  501    0  0.15668202697E+03 -0.73525658332E+02  0.24517820578E+03  0.30011269982E+03  0.00000000000E+00 0.  1.
   -9000007    1    1    2    0  502 -0.31628837678E+02 -0.12044353886E+03  0.59640585322E+03  0.72883946873E+03  0.40000000000E+03 0.  1.
<mgrwt>
<rscale>  2 0.41870025E+03</rscale>
<asrwt>0</asrwt>
<pdfrwt beam="1">  1       21 0.17671485E+00 0.41893559E+03</pdfrwt>
<pdfrwt beam="2">  1       21 0.24013669E-01 0.41893559E+03</pdfrwt>
<totfact> 0.27159706E+03</totfact>
</mgrwt>
</event>
<event>
 6    1  0.9598567E-004  0.4093876E+03  0.7818608E-02  0.1041355E+00
         21   -1    0    0  503  502  0.00000000000E+00  0.00000000000E+00  0.44385580574E+03  0.44385580574E+03  0.00000000000E+00 0.  1.
         21   -1    0    0  501  503 -0.00000000000E+00 -0.00000000000E+00 -0.66782327127E+03  0.66782327127E+03  0.00000000000E+00 0.  1.
    9000007    2    1    2  501    0  0.53637900186E+02 -0.68710817922E+02 -0.48295592006E+03  0.62724825592E+03  0.39063506370E+03 0.  0.
    9000005    1    3    3    0    0  0.30057347487E+02  0.85597133070E+02  0.26416261918E+02  0.94494085610E+02  0.99999687468E+00 0.  0.
          4    1    3    3  501    0  0.23580552699E+02 -0.15430795099E+03 -0.50937218198E+03  0.53275417031E+03  0.00000000000E+00 0.  1.
   -9000007    1    1    2    0  502 -0.53637900186E+02  0.68710817922E+02  0.25898845453E+03  0.48443082109E+03  0.40000000000E+03 0.  1.
<mgrwt>
<rscale>  2 0.40708188E+03</rscale>
<asrwt>0</asrwt>
<pdfrwt beam="1">  1       21 0.68285509E-01 0.40938759E+03</pdfrwt>
<pdfrwt beam="2">  1       21 0.10274204E+00 0.40938759E+03</pdfrwt>
<totfact> 0.13090662E+03</totfact>
</mgrwt>
</event>
<event>
 6    1  0.9598567E-004  0.4270894E+03  0.7818608E-02  0.1034822E+00
         21   -1    0    0  503  502  0.00000000000E+00  0.00000000000E+00  0.30995690857E+03  0.30995690857E+03  0.00000000000E+00 0. -1.
         21   -1    0    0  501  503 -0.00000000000E+00 -0.00000000000E+00 -0.76177711613E+03  0.76177711613E+03  0.00000000000E+00 0. -1.
    9000007    2    1    2  501    0  0.31229302328E+02  0.14497850069E+03 -0.48207988353E+03  0.64405460858E+03  0.40051378221E+03 0.  0.
    9000005    1    3    3    0    0  0.19064614043E+03  0.10289826470E+03 -0.41080621382E+03  0.46443164087E+03  0.99999687468E+00 0.  0.
          4    1    3    3  501    0 -0.15941683810E+03  0.42080235993E+02 -0.71273669712E+02  0.17962296770E+03  0.00000000000E+00 0.  1.
   -9000007    1    1    2    0  502 -0.31229302328E+02 -0.14497850069E+03  0.30259675968E+02  0.42767941612E+03  0.40000000000E+03 0. -1.
<mgrwt>
<rscale>  2 0.42696887E+03</rscale>
<asrwt>0</asrwt>
<pdfrwt beam="1">  1       21 0.47685679E-01 0.42708936E+03</pdfrwt>
<pdfrwt beam="2">  1       21 0.11719648E+00 0.42708936E+03</pdfrwt>
<totfact> 0.20451180E+03</totfact>
</mgrwt>
</event>
<event>
 6    1  0.9598567E-004  0.4457539E+03  0.7818608E-02  0.1029754E+00
         21   -1    0    0  503  502  0.00000000000E+00  0.00000000000E+00  0.71872860526E+03  0.71872860526E+03  0.00000000000E+00 0.  1.
         21   -1    0    0  501  503 -0.00000000000E+00 -0.00000000000E+00 -0.39336256699E+03  0.39336256699E+03  0.00000000000E+00 0.  1.
    9000007    2    1    2  501    0  0.11797881015E+03 -0.12659948965E+03 -0.14701343185E+03  0.46937133109E+03  0.41079199954E+03 0.  0.
    9000005    1    3    3    0    0  0.66092874511E+02 -0.83590490674E+01  0.13978187204E+03  0.15484867938E+03  0.99999687468E+00 0.  0.
          4    1    3    3  501    0  0.51885935636E+02 -0.11824044058E+03 -0.28679530389E+03  0.31452265171E+03  0.00000000000E+00 0.  1.
   -9000007    1    1    2    0  502 -0.11797881015E+03  0.12659948965E+03  0.47237947012E+03  0.64271984116E+03  0.40000000000E+03 0.  1.
<mgrwt>
<rscale>  2 0.44325151E+03</rscale>
<asrwt>0</asrwt>
<pdfrwt beam="1">  1       21 0.11057363E+00 0.44575385E+03</pdfrwt>
<pdfrwt beam="2">  1       21 0.60517318E-01 0.44575385E+03</pdfrwt>
<totfact> 0.14058339E+03</totfact>
</mgrwt>
</event>
<event>
 6    1  0.9598567E-004  0.5150249E+03  0.7818608E-02  0.1009979E+00
         21   -1    0    0  503  502  0.00000000000E+00  0.00000000000E+00  0.26219655163E+03  0.26219655163E+03  0.00000000000E+00 0. -1.
         21   -1    0    0  501  503 -0.00000000000E+00 -0.00000000000E+00 -0.18610749476E+04  0.18610749476E+04  0.00000000000E+00 0.  1.
    9000007    2    1    2  501    0 -0.31910586921E+03 -0.58498629845E+02 -0.15169840874E+04  0.16017762229E+04  0.39899335974E+03 0.  0.
    9000005    1    3    3    0    0 -0.26697661766E+03  0.13811866260E+03 -0.74278508586E+03  0.80130141838E+03  0.99999687468E+00 0.  0.
          4    1    3    3  501    0 -0.52129251554E+02 -0.19661729244E+03 -0.77419900159E+03  0.80047480449E+03  0.00000000000E+00 0.  1.
   -9000007    1    1    2    0  502  0.31910586921E+03  0.58498629845E+02 -0.81894308468E+02  0.52149527632E+03  0.40000000000E+03 0. -1.
<mgrwt>
<rscale>  2 0.51482943E+03</rscale>
<asrwt>0</asrwt>
<pdfrwt beam="1">  1       21 0.40337933E-01 0.51502490E+03</pdfrwt>
<pdfrwt beam="2">  1       21 0.28631921E+00 0.51502490E+03</pdfrwt>
<totfact> 0.18367578E+02</totfact>
</mgrwt>
</event>
<event>
 6    1  0.9598567E-004  0.4716932E+03  0.7818608E-02  0.1021458E+00
         21   -1    0    0  503  502  0.00000000000E+00  0.00000000000E+00  0.63811919548E+03  0.63811919548E+03  0.00000000000E+00 0.  1.
         21   -1    0    0  501  503 -0.00000000000E+00 -0.00000000000E+00 -0.90669415631E+03  0.90669415631E+03  0.00000000000E+00 0. -1.
    9000007    2    1    2  501    0 -0.17265616417E+03  0.18078812879E+03 -0.74031577480E+03  0.87770474437E+03  0.39975451634E+03 0.  0.
    9000005    1    3    3    0    0 -0.18341124242E+03  0.28116571665E+03 -0.68440855875E+03  0.76230566006E+03  0.99999687468E+00 0.  0.
          4    1    3    3  501    0  0.10755078252E+02 -0.10037758786E+03 -0.55907216044E+02  0.11539908431E+03  0.00000000000E+00 0.  1.
   -9000007    1    1    2    0  502  0.17265616417E+03 -0.18078812879E+03  0.47174081397E+03  0.66710860743E+03  0.40000000000E+03 0.  1.
<mgrwt>
<rscale>  2 0.47164118E+03</rscale>
<asrwt>0</asrwt>
<pdfrwt beam="1">  1       21 0.98172184E-01 0.47169323E+03</pdfrwt>
<pdfrwt beam="2">  1       21 0.13949141E+00 0.47169323E+03</pdfrwt>
<totfact> 0.25191431E+02</totfact>
</mgrwt>
</event>
<event>
 6    1  0.9598567E-004  0.4078897E+03  0.7818608E-02  0.1041147E+00
         21   -1    0    0  503  502  0.00000000000E+00  0.00000000000E+00  0.20844389509E+04  0.20844389509E+04  0.00000000000E+00 0. -1.
         21   -1    0    0  501  503 -0.00000000000E+00 -0.00000000000E+00 -0.13363815233E+03  0.13363815233E+03  0.00000000000E+00 0. -1.
    9000007    2    1    2  501    0  0.79192781692E+02 -0.10124205025E+02  0.27003392647E+03  0.48852476966E+03  0.39920437488E+03 0.  0.
    9000005    1    3    3    0    0  0.21670334937E+03  0.58936114300E+02  0.68163004731E+02  0.23469342216E+03  0.99999687468E+00 0.  0.
          4    1    3    3  501    0 -0.13751056768E+03 -0.69060319325E+02  0.20187092174E+03  0.25383134750E+03  0.00000000000E+00 0.  1.
   -9000007    1    1    2    0  502 -0.79192781692E+02  0.10124205025E+02  0.16807668721E+04  0.17295523335E+04  0.40000000000E+03 0. -1.
<mgrwt>
<rscale>  2 0.40769449E+03</rscale>
<asrwt>0</asrwt>
<pdfrwt beam="1">  1       21 0.32068289E+00 0.40788969E+03</pdfrwt>
<pdfrwt beam="2">  1       21 0.20559717E-01 0.40788969E+03</pdfrwt>
<totfact> 0.46111897E+02</totfact>
</mgrwt>
</event>
<event>
 6    1  0.9598567E-004  0.6094724E+03  0.7818608E-02  0.9886081E-01
         21   -1    0    0  503  502  0.00000000000E+00  0.00000000000E+00  0.36961148604E+03  0.36961148604E+03  0.00000000000E+00 0.  1.
         21   -1    0    0  501  503 -0.00000000000E+00 -0.00000000000E+00 -0.12965099678E+04  0.12965099678E+04  0.00000000000E+00 0. -1.
    9000007    2    1    2  501    0  0.45887323242E+03 -0.23844029565E+02 -0.85884586558E+03  0.10531252550E+04  0.40040404688E+03 0.  0.
    9000005    1    3    3    0    0  0.37049819955E+03 -0.13554223045E+03 -0.81271700378E+03  0.90341050489E+03  0.99999687468E+00 0.  0.
          4    1    3    3  501    0  0.88375032874E+02  0.11169820089E+03 -0.46128861798E+02  0.14971475013E+03  0.00000000000E+00 0.  1.
   -9000007    1    1    2    0  502 -0.45887323242E+03  0.23844029565E+02 -0.68052616151E+02  0.61299619880E+03  0.40000000000E+03 0.  1.
<mgrwt>
<rscale>  2 0.60940603E+03</rscale>
<asrwt>0</asrwt>
<pdfrwt beam="1">  1       21 0.56863305E-01 0.60947238E+03</pdfrwt>
<pdfrwt beam="2">  1       21 0.19946307E+00 0.60947238E+03</pdfrwt>
<totfact> 0.29954372E+02</totfact>
</mgrwt>
</event>
<event>
 6    1  0.9598567E-004  0.4285458E+03  0.7818608E-02  0.1034381E+00
         21   -1    0    0  503  502  0.00000000000E+00  0.00000000000E+00  0.70171497239E+03  0.70171497239E+03  0.00000000000E+00 0.  1.
         21   -1    0    0  501  503 -0.00000000000E+00 -0.00000000000E+00 -0.16983593588E+04  0.16983593588E+04  0.00000000000E+00 0.  1.
    9000007    2    1    2  501    0 -0.39163300147E+02  0.14872047615E+03 -0.16021403365E+04  0.16582678269E+04  0.39918289546E+03 0.  0.
    9000005    1    3    3    0    0 -0.22001616852E+03  0.87125715486E+02 -0.90314691050E+03  0.93363448236E+03  0.99999687468E+00 0.  0.
          4    1    3    3  501    0  0.18085286837E+03  0.61594760665E+02 -0.69899342596E+03  0.72463334458E+03  0.00000000000E+00 0.  1.
   -9000007    1    1    2    0  502  0.39163300147E+02 -0.14872047615E+03  0.60549595009E+03  0.74180650421E+03  0.40000000000E+03 0.  1.
<mgrwt>
<rscale>  2 0.42835508E+03</rscale>
<asrwt>0</asrwt>
<pdfrwt beam="1">  1       21 0.10795615E+00 0.42854585E+03</pdfrwt>
<pdfrwt beam="2">  1       21 0.26128605E+00 0.42854585E+03</pdfrwt>
<totfact> 0.30174425E+01</totfact>
</mgrwt>
</event>
<event>
 6    1  0.9598567E-004  0.4176770E+03  0.7818608E-02  0.1038049E+00
         21   -1    0    0  503  502  0.00000000000E+00  0.00000000000E+00  0.13329130851E+03  0.13329130851E+03  0.00000000000E+00 0.  1.
         21   -1    0    0  501  503 -0.00000000000E+00 -0.00000000000E+00 -0.13645114283E+04  0.13645114283E+04  0.00000000000E+00 0.  1.
    9000007    2    1    2  501    0 -0.80455632255E+02 -0.75560721309E+02 -0.45505321753E+03  0.61767911394E+03  0.40282940018E+03 0.  0.
    9000005    1    3    3    0    0 -0.21909754017E+03 -0.18630736495E+02 -0.40288141744E+03  0.45898286784E+03  0.99999687468E+00 0.  0.
          4    1    3    3  501    0  0.13864190792E+03 -0.56929984814E+02 -0.52171800085E+02  0.15869624610E+03  0.00000000000E+00 0.  1.
   -9000007    1    1    2    0  502  0.80455632255E+02  0.75560721309E+02 -0.77616690231E+03  0.88012362291E+03  0.40000000000E+03 0.  1.
<mgrwt>
<rscale>  2 0.41699326E+03</rscale>
<asrwt>0</asrwt>
<pdfrwt beam="1">  1       21 0.20506355E-01 0.41767698E+03</pdfrwt>
<pdfrwt beam="2">  1       21 0.20992484E+00 0.41767698E+03</pdfrwt>
<totfact> 0.21918213E+03</totfact>
</mgrwt>
</event>
<event>
 6    1  0.9598567E-004  0.4506985E+03  0.7818608E-02  0.1027566E+00
         21   -1    0    0  503  502  0.00000000000E+00  0.00000000000E+00  0.43103192158E+03  0.43103192158E+03  0.00000000000E+00 0. -1.
         21   -1    0    0  501  503 -0.00000000000E+00 -0.00000000000E+00 -0.47748863482E+03  0.47748863482E+03  0.00000000000E+00 0. -1.
    9000007    2    1    2  501    0 -0.21516505121E+02 -0.20655783190E+03 -0.78068823496E+02  0.45671482002E+03  0.39920494450E+03 0.  0.
    9000005    1    3    3    0    0 -0.88557731576E+02 -0.26951231127E+03  0.60820863695E+02  0.29013709725E+03  0.99999687468E+00 0.  0.
          4    1    3    3  501    0  0.67041226455E+02  0.62954479367E+02 -0.13888968719E+03  0.16657772277E+03  0.00000000000E+00 0.  1.
   -9000007    1    1    2    0  502  0.21516505121E+02  0.20655783190E+03  0.31612110253E+02  0.45180573638E+03  0.40000000000E+03 0. -1.
<mgrwt>
<rscale>  2 0.45052198E+03</rscale>
<asrwt>0</asrwt>
<pdfrwt beam="1">  1       21 0.66312604E-01 0.45069846E+03</pdfrwt>
<pdfrwt beam="2">  1       21 0.73459790E-01 0.45069846E+03</pdfrwt>
<totfact> 0.30256283E+03</totfact>
</mgrwt>
</event>
<event>
 6    1  0.9598567E-004  0.5727920E+03  0.7818608E-02  0.9964015E-01
         21   -1    0    0  503  502  0.00000000000E+00  0.00000000000E+00  0.17458842917E+04  0.17458842917E+04  0.00000000000E+00 0. -1.
         21   -1    0    0  501  503 -0.00000000000E+00 -0.00000000000E+00 -0.20160649871E+03  0.20160649871E+03  0.00000000000E+00 0.  1.
    9000007    2    1    2  501    0 -0.40850007068E+03 -0.13705796632E+02  0.51629271874E+03  0.77113477734E+03  0.40128607850E+03 0.  0.
    9000005    1    3    3    0    0  0.53100528313E+02 -0.82617260575E+02  0.45614856004E+02  0.10829124126E+03  0.99999687468E+00 0.  0.
          4    1    3    3  501    0 -0.46160059899E+03  0.68911463943E+02  0.47067786274E+03  0.66284353608E+03  0.00000000000E+00 0.  1.
   -9000007    1    1    2    0  502  0.40850007068E+03  0.13705796632E+02  0.10279850743E+04  0.11763560131E+04  0.40000000000E+03 0. -1.
<mgrwt>
<rscale>  2 0.57256680E+03</rscale>
<asrwt>0</asrwt>
<pdfrwt beam="1">  1       21 0.26859757E+00 0.57279200E+03</pdfrwt>
<pdfrwt beam="2">  1       21 0.31016386E-01 0.57279200E+03</pdfrwt>
<totfact> 0.39115042E+02</totfact>
</mgrwt>
</event>
<event>
 6    1  0.9598567E-004  0.5795240E+03  0.7818608E-02  0.9948825E-01
         21   -1    0    0  503  502  0.00000000000E+00  0.00000000000E+00  0.85480354695E+03  0.85480354695E+03  0.00000000000E+00 0. -1.
         21   -1    0    0  501  503 -0.00000000000E+00 -0.00000000000E+00 -0.39338059015E+03  0.39338059015E+03  0.00000000000E+00 0.  1.
    9000007    2    1    2  501    0 -0.37695534413E+03 -0.18370316756E+03  0.20870828281E+03  0.61596037000E+03  0.40000730600E+03 0.  0.
    9000005    1    3    3    0    0 -0.10783255598E+03  0.26619310617E+02  0.24839983388E+03  0.27210278442E+03  0.99999687468E+00 0.  0.
          4    1    3    3  501    0 -0.26912278816E+03 -0.21032247818E+03 -0.39691551070E+02  0.34385758558E+03  0.00000000000E+00 0.  1.
   -9000007    1    1    2    0  502  0.37695534413E+03  0.18370316756E+03  0.25271467400E+03  0.63222376711E+03  0.40000000000E+03 0. -1.
<mgrwt>
<rscale>  2 0.57952271E+03</rscale>
<asrwt>0</asrwt>
<pdfrwt beam="1">  1       21 0.13150824E+00 0.57952397E+03</pdfrwt>
<pdfrwt beam="2">  1       21 0.60520091E-01 0.57952397E+03</pdfrwt>
<totfact> 0.86054797E+02</totfact>
</mgrwt>
</event>
<event>
 6    1  0.9598567E-004  0.6266696E+03  0.7818608E-02  0.9851739E-01
         21   -1    0    0  503  502  0.00000000000E+00  0.00000000000E+00  0.23959181256E+04  0.23959181256E+04  0.00000000000E+00 0.  1.
         21   -1    0    0  501  503 -0.00000000000E+00 -0.00000000000E+00 -0.23354708381E+03  0.23354708381E+03  0.00000000000E+00 0. -1.
    9000007    2    1    2  501    0  0.63494529691E+02 -0.47775586421E+03  0.36301811354E+03  0.72422160781E+03  0.40054034175E+03 0.  0.
    9000005    1    3    3    0    0  0.54823204020E+02 -0.16669403375E+03 -0.71735044815E+02  0.18957690059E+03  0.99999687468E+00 0.  0.
          4    1    3    3  501    0  0.86713256706E+01 -0.31106183045E+03  0.43475315836E+03  0.53464470722E+03  0.00000000000E+00 0.  1.
   -9000007    1    1    2    0  502 -0.63494529691E+02  0.47775586421E+03  0.17993529283E+04  0.19052436016E+04  0.40000000000E+03 0.  1.
<mgrwt>
<rscale>  2 0.62658327E+03</rscale>
<asrwt>0</asrwt>
<pdfrwt beam="1">  1       21 0.36860277E+00 0.62666960E+03</pdfrwt>
<pdfrwt beam="2">  1       21 0.35930322E-01 0.62666960E+03</pdfrwt>
<totfact> 0.68857556E+01</totfact>
</mgrwt>
</event>
<event>
 6    1  0.9598567E-004  0.4027535E+03  0.7818608E-02  0.1042846E+00
         21   -1    0    0  503  502  0.00000000000E+00  0.00000000000E+00  0.13913125066E+03  0.13913125066E+03  0.00000000000E+00 0. -1.
         21   -1    0    0  501  503 -0.00000000000E+00 -0.00000000000E+00 -0.15296080494E+04  0.15296080494E+04  0.00000000000E+00 0. -1.
    9000007    2    1    2  501    0 -0.45184181090E+02 -0.44490717127E+01 -0.11025303834E+04  0.11737902698E+04  0.40018614007E+03 0.  0.
    9000005    1    3    3    0    0  0.12816304880E+03  0.62700305691E+02 -0.84043922202E+03  0.85246476837E+03  0.99999687468E+00 0.  0.
          4    1    3    3  501    0 -0.17334722989E+03 -0.67149377404E+02 -0.26209116138E+03  0.32132550143E+03  0.00000000000E+00 0.  1.
   -9000007    1    1    2    0  502  0.45184181090E+02  0.44490717127E+01 -0.28794641536E+03  0.49494903028E+03  0.40000000000E+03 0. -1.
<mgrwt>
<rscale>  2 0.40270722E+03</rscale>
<asrwt>0</asrwt>
<pdfrwt beam="1">  1       21 0.21404808E-01 0.40275346E+03</pdfrwt>
<pdfrwt beam="2">  1       21 0.23532432E+00 0.40275346E+03</pdfrwt>
<totfact> 0.14037453E+03</totfact>
</mgrwt>
</event>
<event>
 6    1  0.9598567E-004  0.4608616E+03  0.7818608E-02  0.1024553E+00
         21   -1    0    0  503  502  0.00000000000E+00  0.00000000000E+00  0.30960755556E+03  0.30960755556E+03  0.00000000000E+00 0.  1.
         21   -1    0    0  501  503 -0.00000000000E+00 -0.00000000000E+00 -0.77764175397E+03  0.77764175397E+03  0.00000000000E+00 0. -1.
    9000007    2    1    2  501    0 -0.19712618201E+03 -0.11633875222E+03 -0.42100779889E+03  0.62399460729E+03  0.39966018853E+03 0.  0.
    9000005    1    3    3    0    0  0.26120814217E+02  0.94780043570E+02  0.53400959120E+01  0.98463547634E+02  0.99999687468E+00 0.  0.
          4    1    3    3  501    0 -0.22324699622E+03 -0.21111879579E+03 -0.42634789481E+03  0.52553105966E+03  0.00000000000E+00 0.  1.
   -9000007    1    1    2    0  502  0.19712618201E+03  0.11633875222E+03 -0.47026399519E+02  0.46325470225E+03  0.40000000000E+03 0.  1.
<mgrwt>
<rscale>  2 0.46078788E+03</rscale>
<asrwt>0</asrwt>
<pdfrwt beam="1">  1       21 0.47631932E-01 0.46086162E+03</pdfrwt>
<pdfrwt beam="2">  1       21 0.11963719E+00 0.46086162E+03</pdfrwt>
<totfact> 0.19205921E+03</totfact>
</mgrwt>
</event>
<event>
 6    1  0.9598567E-004  0.4692859E+03  0.7818608E-02  0.1022131E+00
         21   -1    0    0  503  502  0.00000000000E+00  0.00000000000E+00  0.53803982898E+03  0.53803982898E+03  0.00000000000E+00 0. -1.
         21   -1    0    0  501  503 -0.00000000000E+00 -0.00000000000E+00 -0.46458944682E+03  0.46458944682E+03  0.00000000000E+00 0. -1.
    9000007    2    1    2  501    0  0.18973720334E+03 -0.15565683612E+03 -0.13636352510E+03  0.48857564762E+03  0.39985234213E+03 0.  0.
    9000005    1    3    3    0    0  0.30871951989E+03 -0.15334324448E+03 -0.13314483708E+03  0.36952732000E+03  0.99999687468E+00 0.  0.
          4    1    3    3  501    0 -0.11898231654E+03 -0.23135916364E+01 -0.32186880205E+01  0.11904832762E+03  0.00000000000E+00 0.  1.
   -9000007    1    1    2    0  502 -0.18973720334E+03  0.15565683612E+03  0.20981390727E+03  0.51405362818E+03  0.40000000000E+03 0. -1.
<mgrwt>
<rscale>  2 0.46925444E+03</rscale>
<asrwt>0</asrwt>
<pdfrwt beam="1">  1       21 0.82775359E-01 0.46928590E+03</pdfrwt>
<pdfrwt beam="2">  1       21 0.71475299E-01 0.46928590E+03</pdfrwt>
<totfact> 0.19298990E+03</totfact>
</mgrwt>
</event>
<event>
 6    1  0.9598567E-004  0.4033980E+03  0.7818608E-02  0.1042618E+00
         21   -1    0    0  503  502  0.00000000000E+00  0.00000000000E+00  0.56219986358E+03  0.56219986358E+03  0.00000000000E+00 0. -1.
         21   -1    0    0  501  503 -0.00000000000E+00 -0.00000000000E+00 -0.67006628563E+03  0.67006628563E+03  0.00000000000E+00 0. -1.
    9000007    2    1    2  501    0 -0.43789743271E+02 -0.27091605055E+02 -0.51834210467E+03  0.65681694840E+03  0.40009807492E+03 0.  0.
    9000005    1    3    3    0    0 -0.32096254614E+02 -0.21197982093E+03 -0.23320742195E+03  0.31678433624E+03  0.99999687468E+00 0.  0.
          4    1    3    3  501    0 -0.11693488657E+02  0.18488821587E+03 -0.28513468272E+03  0.34003261216E+03  0.00000000000E+00 0.  1.
   -9000007    1    1    2    0  502  0.43789743271E+02  0.27091605055E+02  0.41047568262E+03  0.57544920080E+03  0.40000000000E+03 0. -1.
<mgrwt>
<rscale>  2 0.40337370E+03</rscale>
<asrwt>0</asrwt>
<pdfrwt beam="1">  1       21 0.86492286E-01 0.40339802E+03</pdfrwt>
<pdfrwt beam="2">  1       21 0.10308712E+00 0.40339802E+03</pdfrwt>
<totfact> 0.75825998E+02</totfact>
</mgrwt>
</event>
<event>
 6    1  0.9598567E-004  0.6348579E+03  0.7818608E-02  0.9835880E-01
         21   -1    0    0  503  502  0.00000000000E+00  0.00000000000E+00  0.25639308839E+04  0.25639308839E+04  0.00000000000E+00 0.  1.
         21   -1    0    0  501  503 -0.00000000000E+00 -0.00000000000E+00 -0.34544364650E+03  0.34544364650E+03  0.00000000000E+00 0. -1.
    9000007    2    1    2  501    0  0.42664526973E+03  0.24701885509E+03  0.34788817037E+02  0.63526299135E+03  0.39912943444E+03 0.  0.
    9000005    1    3    3    0    0  0.70243548853E+02  0.23013145080E+03 -0.90546323555E+02  0.25708807344E+03  0.99999687468E+00 0.  0.
          4    1    3    3  501    0  0.35640172087E+03  0.16887404286E+02  0.12533514059E+03  0.37817491790E+03  0.00000000000E+00 0.  1.
   -9000007    1    1    2    0  502 -0.42664526973E+03 -0.24701885509E+03  0.21836984204E+04  0.22741115391E+04  0.40000000000E+03 0.  1.
<mgrwt>
<rscale>  2 0.63472078E+03</rscale>
<asrwt>0</asrwt>
<pdfrwt beam="1">  1       21 0.39445089E+00 0.63485786E+03</pdfrwt>
<pdfrwt beam="2">  1       21 0.53145178E-01 0.63485786E+03</pdfrwt>
<totfact> 0.20614786E+01</totfact>
</mgrwt>
</event>
<event>
 6    1  0.9598567E-004  0.6289465E+03  0.7818608E-02  0.9850479E-01
         21   -1    0    0  503  502  0.00000000000E+00  0.00000000000E+00  0.18651210919E+04  0.18651210919E+04  0.00000000000E+00 0.  1.
         21   -1    0    0  501  503 -0.00000000000E+00 -0.00000000000E+00 -0.30819165911E+03  0.30819165911E+03  0.00000000000E+00 0.  1.
    9000007    2    1    2  501    0  0.45951709155E+03  0.12585060816E+03  0.16733580460E+03  0.65082636864E+03  0.41058416630E+03 0.  0.
    9000005    1    3    3    0    0  0.99127665768E+02 -0.14656910474E+03  0.55109119708E+02  0.18532892827E+03  0.99999687468E+00 0.  0.
          4    1    3    3  501    0  0.36038942578E+03  0.27241971290E+03  0.11222668489E+03  0.46549744037E+03  0.00000000000E+00 0.  1.
   -9000007    1    1    2    0  502 -0.45951709155E+03 -0.12585060816E+03  0.13895936282E+04  0.15224863824E+04  0.40000000000E+03 0.  1.
<mgrwt>
<rscale>  2 0.62722499E+03</rscale>
<asrwt>0</asrwt>
<pdfrwt beam="1">  1       21 0.28694170E+00 0.62894649E+03</pdfrwt>
<pdfrwt beam="2">  1       21 0.47414103E-01 0.62894649E+03</pdfrwt>
<totfact> 0.12294095E+02</totfact>
</mgrwt>
</event>
<event>
 6    1  0.9598567E-004  0.4682375E+03  0.7818608E-02  0.1022433E+00
         21   -1    0    0  503  502  0.00000000000E+00  0.00000000000E+00  0.46211445265E+03  0.46211445265E+03  0.00000000000E+00 0.  1.
         21   -1    0    0  501  503 -0.00000000000E+00 -0.00000000000E+00 -0.48256463447E+03  0.48256463447E+03  0.00000000000E+00 0.  1.
    9000007    2    1    2  501    0  0.31958915816E+02 -0.24129853804E+03 -0.72237073803E+02  0.47358648588E+03  0.39977444643E+03 0.  0.
    9000005    1    3    3    0    0 -0.16543536444E+03 -0.11808036445E+03 -0.12000557177E+03  0.23603849162E+03  0.99999687468E+00 0.  0.
          4    1    3    3  501    0  0.19739428026E+03 -0.12321817359E+03  0.47768497965E+02  0.23754799426E+03  0.00000000000E+00 0.  1.
   -9000007    1    1    2    0  502 -0.31958915816E+02  0.24129853804E+03  0.51786891974E+02  0.47109260124E+03  0.40000000000E+03 0.  1.
<mgrwt>
<rscale>  2 0.46818933E+03</rscale>
<asrwt>0</asrwt>
<pdfrwt beam="1">  1       21 0.71094531E-01 0.46823750E+03</pdfrwt>
<pdfrwt beam="2">  1       21 0.74240713E-01 0.46823750E+03</pdfrwt>
<totfact> 0.25107043E+03</totfact>
</mgrwt>
</event>
<event>
 6    1  0.9598567E-004  0.4629029E+03  0.7818608E-02  0.1023994E+00
         21   -1    0    0  503  502  0.00000000000E+00  0.00000000000E+00  0.18576723931E+03  0.18576723931E+03  0.00000000000E+00 0.  1.
         21   -1    0    0  501  503 -0.00000000000E+00 -0.00000000000E+00 -0.12384947180E+04  0.12384947180E+04  0.00000000000E+00 0. -1.
    9000007    2    1    2  501    0  0.18533087426E+03 -0.14117919165E+03 -0.71450094563E+03  0.85095899657E+03  0.39917479308E+03 0.  0.
    9000005    1    3    3    0    0 -0.10150947765E+02  0.51074425863E+02 -0.50036157891E+03  0.50306495441E+03  0.99999687468E+00 0.  0.
          4    1    3    3  501    0  0.19548182202E+03 -0.19225361751E+03 -0.21413936672E+03  0.34789404215E+03  0.00000000000E+00 0.  1.
   -9000007    1    1    2    0  502 -0.18533087426E+03  0.14117919165E+03 -0.33822653302E+03  0.57330296070E+03  0.40000000000E+03 0.  1.
<mgrwt>
<rscale>  2 0.46272458E+03</rscale>
<asrwt>0</asrwt>
<pdfrwt beam="1">  1       21 0.28579575E-01 0.46290290E+03</pdfrwt>
<pdfrwt beam="2">  1       21 0.19053765E+00 0.46290290E+03</pdfrwt>
<totfact> 0.15196317E+03</totfact>
</mgrwt>
</event>
<event>
 6    1  0.9598567E-004  0.4628512E+03  0.7818608E-02  0.1024029E+00
         21   -1    0    0  503  502  0.00000000000E+00  0.00000000000E+00  0.27123189217E+03  0.27123189217E+03  0.00000000000E+00 0.  1.
         21   -1    0    0  501  503 -0.00000000000E+00 -0.00000000000E+00 -0.16874794460E+04  0.16874794460E+04  0.00000000000E+00 0.  1.
    9000007    2    1    2  501    0  0.47486505831E+02 -0.22596683591E+03 -0.14234328669E+04  0.14967940210E+04  0.40114241313E+03 0.  0.
    9000005    1    3    3    0    0 -0.46055135141E+02 -0.48117669951E+02 -0.79132137074E+01  0.67082073457E+02  0.99999687468E+00 0.  0.
          4    1    3    3  501    0  0.93541640971E+02 -0.17784916596E+03 -0.14155196532E+04  0.14297119475E+04  0.00000000000E+00 0.  1.
   -9000007    1    1    2    0  502 -0.47486505831E+02  0.22596683591E+03  0.71853130554E+01  0.46191731716E+03  0.40000000000E+03 0.  1.
<mgrwt>
<rscale>  2 0.46260354E+03</rscale>
<asrwt>0</asrwt>
<pdfrwt beam="1">  1       21 0.41727982E-01 0.46285118E+03</pdfrwt>
<pdfrwt beam="2">  1       21 0.25961223E+00 0.46285118E+03</pdfrwt>
<totfact> 0.25579161E+02</totfact>
</mgrwt>
</event>
<event>
 6    1  0.9598567E-004  0.4745693E+03  0.7818608E-02  0.1020644E+00
         21   -1    0    0  503  502  0.00000000000E+00  0.00000000000E+00  0.92442881792E+02  0.92442881792E+02  0.00000000000E+00 0.  1.
         21   -1    0    0  501  503 -0.00000000000E+00 -0.00000000000E+00 -0.25922685664E+04  0.25922685664E+04  0.00000000000E+00 0.  1.
    9000007    2    1    2  501    0  0.25521298884E+03 -0.31241752241E+01 -0.92029842021E+03  0.10354540974E+04  0.40009070903E+03 0.  0.
    9000005    1    3    3    0    0 -0.20941088506E+02  0.66704136434E+02  0.22244481410E+01  0.69956552006E+02  0.99999687468E+00 0.  0.
          4    1    3    3  501    0  0.27615407734E+03 -0.69828311658E+02 -0.92252286835E+03  0.96549754540E+03  0.00000000000E+00 0.  1.
   -9000007    1    1    2    0  502 -0.25521298884E+03  0.31241752241E+01 -0.15795272644E+04  0.16492573508E+04  0.40000000000E+03 0.  1.
<mgrwt>
<rscale>  2 0.47455017E+03</rscale>
<asrwt>0</asrwt>
<pdfrwt beam="1">  1       21 0.14221981E-01 0.47456928E+03</pdfrwt>
<pdfrwt beam="2">  1       21 0.39881058E+00 0.47456928E+03</pdfrwt>
<totfact> 0.28974223E+02</totfact>
</mgrwt>
</event>
<event>
 6    1  0.9598567E-004  0.5769599E+03  0.7818608E-02  0.9954487E-01
         21   -1    0    0  503  502  0.00000000000E+00  0.00000000000E+00  0.50039675761E+03  0.50039675761E+03  0.00000000000E+00 0. -1.
         21   -1    0    0  501  503 -0.00000000000E+00 -0.00000000000E+00 -0.66902145851E+03  0.66902145851E+03  0.00000000000E+00 0. -1.
    9000007    2    1    2  501    0 -0.41165258630E+03 -0.58522165769E+02 -0.39199855807E+02  0.57812007962E+03  0.39975430213E+03 0.  0.
    9000005    1    3    3    0    0 -0.15571793318E+02 -0.14689219760E+03  0.61474588684E+02  0.15999976097E+03  0.99999687468E+00 0.  0.
          4    1    3    3  501    0 -0.39608079298E+03  0.88370031828E+02 -0.10067444449E+03  0.41812031865E+03  0.00000000000E+00 0.  1.
   -9000007    1    1    2    0  502  0.41165258630E+03  0.58522165769E+02 -0.12942484509E+03  0.59129813650E+03  0.40000000000E+03 0. -1.
<mgrwt>
<rscale>  2 0.57691729E+03</rscale>
<asrwt>0</asrwt>
<pdfrwt beam="1">  1       21 0.76984117E-01 0.57695987E+03</pdfrwt>
<pdfrwt beam="2">  1       21 0.10292638E+00 0.57695987E+03</pdfrwt>
<totfact> 0.93245447E+02</totfact>
</mgrwt>
</event>
<event>
 6    1  0.9598567E-004  0.7576125E+03  0.7818608E-02  0.9623647E-01
         21   -1    0    0  503  502  0.00000000000E+00  0.00000000000E+00  0.51502211709E+03  0.51502211709E+03  0.00000000000E+00 0. -1.
         21   -1    0    0  501  503 -0.00000000000E+00 -0.00000000000E+00 -0.21689149080E+04  0.21689149080E+04  0.00000000000E+00 0.  1.
    9000007    2    1    2  501    0 -0.44358745456E+03 -0.46536368251E+03 -0.17630348858E+04  0.19189238333E+04  0.40080354603E+03 0.  0.
    9000005    1    3    3    0    0 -0.47257093934E+03 -0.25631103875E+03 -0.13897038733E+04  0.14900659371E+04  0.99999687468E+00 0.  0.
          4    1    3    3  501    0  0.28983484786E+02 -0.20905264376E+03 -0.37333101244E+03  0.42885789617E+03  0.00000000000E+00 0.  1.
   -9000007    1    1    2    0  502  0.44358745456E+03  0.46536368251E+03  0.10914209487E+03  0.76501319185E+03  0.40000000000E+03 0. -1.
<mgrwt>
<rscale>  2 0.75750626E+03</rscale>
<asrwt>0</asrwt>
<pdfrwt beam="1">  1       21 0.79234171E-01 0.75761248E+03</pdfrwt>
<pdfrwt beam="2">  1       21 0.33367922E+00 0.75761248E+03</pdfrwt>
<totfact> 0.19200942E+01</totfact>
</mgrwt>
</event>
<event>
 6    1  0.9598567E-004  0.4853010E+03  0.7818608E-02  0.1017709E+00
         21   -1    0    0  503  502  0.00000000000E+00  0.00000000000E+00  0.13785564385E+04  0.13785564385E+04  0.00000000000E+00 0.  1.
         21   -1    0    0  501  503 -0.00000000000E+00 -0.00000000000E+00 -0.17136374695E+03  0.17136374695E+03  0.00000000000E+00 0. -1.
    9000007    2    1    2  501    0  0.66664957940E+02 -0.26603665304E+03  0.55685881947E+03  0.73865335970E+03  0.40037148200E+03 0.  0.
    9000005    1    3    3    0    0  0.14292390781E+03 -0.32064123633E+03  0.28854852847E+03  0.45442193954E+03  0.99999687468E+00 0.  0.
          4    1    3    3  501    0 -0.76258949869E+02  0.54604583292E+02  0.26831029100E+03  0.28423142016E+03  0.00000000000E+00 0.  1.
   -9000007    1    1    2    0  502 -0.66664957940E+02  0.26603665304E+03  0.65033387205E+03  0.81126682572E+03  0.40000000000E+03 0. -1.
<mgrwt>
<rscale>  2 0.48522436E+03</rscale>
<asrwt>0</asrwt>
<pdfrwt beam="1">  1       21 0.21208560E+00 0.48530098E+03</pdfrwt>
<pdfrwt beam="2">  1       21 0.26363654E-01 0.48530098E+03</pdfrwt>
<totfact> 0.12674117E+03</totfact>
</mgrwt>
</event>
<event>
 6    1  0.9598567E-004  0.4613049E+03  0.7818608E-02  0.1024417E+00
         21   -1    0    0  503  502  0.00000000000E+00  0.00000000000E+00  0.55955148484E+03  0.55955148484E+03  0.00000000000E+00 0. -1.
         21   -1    0    0  501  503 -0.00000000000E+00 -0.00000000000E+00 -0.47511908568E+03  0.47511908568E+03  0.00000000000E+00 0. -1.
    9000007    2    1    2  501    0 -0.22348885573E+03 -0.51842383942E+02 -0.18905888817E+03  0.49854336019E+03  0.40020909208E+03 0.  0.
    9000005    1    3    3    0    0 -0.32051727879E+03  0.12475253365E+02 -0.62877403396E+02  0.32686622004E+03  0.99999687468E+00 0.  0.
          4    1    3    3  501    0  0.97028423060E+02 -0.64317637307E+02 -0.12618148477E+03  0.17167714015E+03  0.00000000000E+00 0.  1.
   -9000007    1    1    2    0  502  0.22348885573E+03  0.51842383942E+02  0.27349128733E+03  0.53612721033E+03  0.40000000000E+03 0. -1.
<mgrwt>
<rscale>  2 0.46125956E+03</rscale>
<asrwt>0</asrwt>
<pdfrwt beam="1">  1       21 0.86084844E-01 0.46130491E+03</pdfrwt>
<pdfrwt beam="2">  1       21 0.73095244E-01 0.46130491E+03</pdfrwt>
<totfact> 0.16785450E+03</totfact>
</mgrwt>
</event>
<event>
 6    1  0.9598567E-004  0.4191822E+03  0.7818608E-02  0.1037415E+00
         21   -1    0    0  503  502  0.00000000000E+00  0.00000000000E+00  0.26129729087E+03  0.26129729087E+03  0.00000000000E+00 0.  1.
         21   -1    0    0  501  503 -0.00000000000E+00 -0.00000000000E+00 -0.84453462939E+03  0.84453462939E+03  0.00000000000E+00 0.  1.
    9000007    2    1    2  501    0  0.22054668589E+02 -0.11992401752E+03 -0.41152170123E+02  0.42119734023E+03  0.40105550729E+03 0.  0.
    9000005    1    3    3    0    0  0.20048561691E+03  0.63514587124E+01 -0.19770344819E+02  0.20156063640E+03  0.99999687468E+00 0.  0.
          4    1    3    3  501    0 -0.17843094833E+03 -0.12627547623E+03 -0.21381825304E+02  0.21963670383E+03  0.00000000000E+00 0.  1.
   -9000007    1    1    2    0  502 -0.22054668589E+02  0.11992401752E+03 -0.54208516840E+03  0.68463458004E+03  0.40000000000E+03 0.  1.
<mgrwt>
<rscale>  2 0.41892951E+03</rscale>
<asrwt>0</asrwt>
<pdfrwt beam="1">  1       21 0.40199583E-01 0.41918218E+03</pdfrwt>
<pdfrwt beam="2">  1       21 0.12992840E+00 0.41918218E+03</pdfrwt>
<totfact> 0.22498221E+03</totfact>
</mgrwt>
</event>
<event>
 6    1  0.9598567E-004  0.6134733E+03  0.7818608E-02  0.9877853E-01
         21   -1    0    0  503  502  0.00000000000E+00  0.00000000000E+00  0.54096459395E+03  0.54096459395E+03  0.00000000000E+00 0. -1.
         21   -1    0    0  501  503 -0.00000000000E+00 -0.00000000000E+00 -0.75229608531E+03  0.75229608531E+03  0.00000000000E+00 0.  1.
    9000007    2    1    2  501    0 -0.38975052795E+03 -0.25380141842E+03 -0.28306783504E+03  0.67563074392E+03  0.40003608445E+03 0.  0.
    9000005    1    3    3    0    0  0.34208244325E+02  0.54113895999E+02  0.23915987161E+02  0.68348314944E+02  0.99999687468E+00 0.  0.
          4    1    3    3  501    0 -0.42395877228E+03 -0.30791531441E+03 -0.30698382220E+03  0.60728242897E+03  0.00000000000E+00 0.  1.
   -9000007    1    1    2    0  502  0.38975052795E+03  0.25380141842E+03  0.71736343678E+02  0.61762993535E+03  0.40000000000E+03 0. -1.
<mgrwt>
<rscale>  2 0.61346743E+03</rscale>
<asrwt>0</asrwt>
<pdfrwt beam="1">  1       21 0.83225323E-01 0.61347331E+03</pdfrwt>
<pdfrwt beam="2">  1       21 0.11573786E+00 0.61347331E+03</pdfrwt>
<totfact> 0.57363640E+02</totfact>
</mgrwt>
</event>
<event>
 6    1  0.9598567E-004  0.5545441E+03  0.7818608E-02  0.1000466E+00
         21   -1    0    0  503  502  0.00000000000E+00  0.00000000000E+00  0.98113024638E+03  0.98113024638E+03  0.00000000000E+00 0.  1.
         21   -1    0    0  501  503 -0.00000000000E+00 -0.00000000000E+00 -0.75494197724E+03  0.75494197724E+03  0.00000000000E+00 0. -1.
    9000007    2    1    2  501    0  0.37650707477E+03 -0.75905225064E+02 -0.55087797564E+03  0.78142510069E+03  0.39954907508E+03 0.  0.
    9000005    1    3    3    0    0  0.37029412557E+03 -0.20274561303E+03 -0.46538053894E+03  0.62833396299E+03  0.99999687468E+00 0.  0.
          4    1    3    3  501    0  0.62129491927E+01  0.12684038797E+03 -0.85497436700E+02  0.15309113769E+03  0.00000000000E+00 0.  1.
   -9000007    1    1    2    0  502 -0.37650707477E+03  0.75905225064E+02  0.77706624478E+03  0.95464712293E+03  0.40000000000E+03 0.  1.
<mgrwt>
<rscale>  2 0.55446281E+03</rscale>
<asrwt>0</asrwt>
<pdfrwt beam="1">  1       21 0.15094312E+00 0.55454412E+03</pdfrwt>
<pdfrwt beam="2">  1       21 0.11614492E+00 0.55454412E+03</pdfrwt>
<totfact> 0.12936838E+02</totfact>
</mgrwt>
</event>
<event>
 6    1  0.9598567E-004  0.4923064E+03  0.7818608E-02  0.1015837E+00
         21   -1    0    0  503  502  0.00000000000E+00  0.00000000000E+00  0.14308703201E+04  0.14308703201E+04  0.00000000000E+00 0.  1.
         21   -1    0    0  501  503 -0.00000000000E+00 -0.00000000000E+00 -0.19195601567E+03  0.19195601567E+03  0.00000000000E+00 0. -1.
    9000007    2    1    2  501    0 -0.23095007367E+03 -0.16904156317E+03  0.34049076129E+03  0.59858132140E+03  0.40056541688E+03 0.  0.
    9000005    1    3    3    0    0 -0.28850283900E+03 -0.35756047263E+02  0.81907682968E+02  0.30203021629E+03  0.99999687468E+00 0.  0.
          4    1    3    3  501    0  0.57552765338E+02 -0.13328551590E+03  0.25858307832E+03  0.29655110511E+03  0.00000000000E+00 0.  1.
   -9000007    1    1    2    0  502  0.23095007367E+03  0.16904156317E+03  0.89842354315E+03  0.10242450144E+04  0.40000000000E+03 0.  1.
<mgrwt>
<rscale>  2 0.49219142E+03</rscale>
<asrwt>0</asrwt>
<pdfrwt beam="1">  1       21 0.22013389E+00 0.49230645E+03</pdfrwt>
<pdfrwt beam="2">  1       21 0.29531696E-01 0.49230645E+03</pdfrwt>
<totfact> 0.89590104E+02</totfact>
</mgrwt>
</event>
<event>
 6    1  0.9598567E-004  0.4122846E+03  0.7818608E-02  0.1039627E+00
         21   -1    0    0  503  502  0.00000000000E+00  0.00000000000E+00  0.13028839239E+04  0.13028839239E+04  0.00000000000E+00 0.  1.
         21   -1    0    0  501  503 -0.00000000000E+00 -0.00000000000E+00 -0.13215284044E+03  0.13215284044E+03  0.00000000000E+00 0. -1.
    9000007    2    1    2  501    0  0.53566516122E+02  0.83153691430E+02  0.66843400009E+03  0.78535509768E+03  0.40024331214E+03 0.  0.
    9000005    1    3    3    0    0  0.57079486596E+02  0.22480074745E+03  0.23852703094E+03  0.33270044834E+03  0.99999687468E+00 0.  0.
          4    1    3    3  501    0 -0.35129704743E+01 -0.14164705602E+03  0.42990696916E+03  0.45265464934E+03  0.00000000000E+00 0.  1.
   -9000007    1    1    2    0  502 -0.53566516122E+02 -0.83153691430E+02  0.50229708335E+03  0.64968166666E+03  0.40000000000E+03 0. -1.
<mgrwt>
<rscale>  2 0.41222557E+03</rscale>
<asrwt>0</asrwt>
<pdfrwt beam="1">  1       21 0.20044367E+00 0.41228463E+03</pdfrwt>
<pdfrwt beam="2">  1       21 0.20331207E-01 0.41228463E+03</pdfrwt>
<totfact> 0.25774809E+03</totfact>
</mgrwt>
</event>
<event>
 6    1  0.9598567E-004  0.4961509E+03  0.7818608E-02  0.1014806E+00
         21   -1    0    0  503  502  0.00000000000E+00  0.00000000000E+00  0.27911113455E+04  0.27911113455E+04  0.00000000000E+00 0. -1.
         21   -1    0    0  501  503 -0.00000000000E+00 -0.00000000000E+00 -0.33673792415E+03  0.33673792415E+03  0.00000000000E+00 0.  1.
    9000007    2    1    2  501    0 -0.20910604116E+03  0.20601054852E+03 -0.11662727177E+03  0.50941266614E+03  0.39966693803E+03 0.  0.
    9000005    1    3    3    0    0 -0.11031319991E+03  0.25849105383E+02  0.14035797280E+03  0.18038441963E+03  0.99999687468E+00 0.  0.
          4    1    3    3  501    0 -0.98792841247E+02  0.18016144313E+03 -0.25698524457E+03  0.32902824651E+03  0.00000000000E+00 0.  1.
   -9000007    1    1    2    0  502  0.20910604116E+03 -0.20601054852E+03  0.25710006931E+04  0.26184366035E+04  0.40000000000E+03 0. -1.
<mgrwt>
<rscale>  2 0.49608373E+03</rscale>
<asrwt>0</asrwt>
<pdfrwt beam="1">  1       21 0.42940173E+00 0.49615087E+03</pdfrwt>
<pdfrwt beam="2">  1       21 0.51805836E-01 0.49615087E+03</pdfrwt>
<totfact> 0.14004373E+01</totfact>
</mgrwt>
</event>
<event>
 6    1  0.9598567E-004  0.5217608E+03  0.7818608E-02  0.1008251E+00
         21   -1    0    0  503  502  0.00000000000E+00  0.00000000000E+00  0.22017872368E+03  0.22017872368E+03  0.00000000000E+00 0. -1.
         21   -1    0    0  501  503 -0.00000000000E+00 -0.00000000000E+00 -0.15511304112E+04  0.15511304112E+04  0.00000000000E+00 0.  1.
    9000007    2    1    2  501    0 -0.24376218670E+03  0.22976389025E+03 -0.10644462985E+04  0.11854451820E+04  0.40002863414E+03 0.  0.
    9000005    1    3    3    0    0 -0.47719101628E+02  0.20273834133E+03 -0.91243219127E+03  0.93590247962E+03  0.99999687468E+00 0.  0.
          4    1    3    3  501    0 -0.19604308508E+03  0.27025548925E+02 -0.15201410725E+03  0.24954270237E+03  0.00000000000E+00 0.  1.
   -9000007    1    1    2    0  502  0.24376218670E+03 -0.22976389025E+03 -0.26650538899E+03  0.58586395288E+03  0.40000000000E+03 0. -1.
<mgrwt>
<rscale>  2 0.52175534E+03</rscale>
<asrwt>0</asrwt>
<pdfrwt beam="1">  1       21 0.33873650E-01 0.52176082E+03</pdfrwt>
<pdfrwt beam="2">  1       21 0.23863545E+00 0.52176082E+03</pdfrwt>
<totfact> 0.51301287E+02</totfact>
</mgrwt>
</event>
<event>
 6    1  0.9598567E-004  0.4337104E+03  0.7818608E-02  0.1032760E+00
         21   -1    0    0  503  502  0.00000000000E+00  0.00000000000E+00  0.46749838086E+03  0.46749838086E+03  0.00000000000E+00 0. -1.
         21   -1    0    0  501  503 -0.00000000000E+00 -0.00000000000E+00 -0.72884242555E+03  0.72884242555E+03  0.00000000000E+00 0. -1.
    9000007    2    1    2  501    0  0.81050030865E+02  0.14422907570E+03 -0.53156883533E+03  0.68605405246E+03  0.40091595432E+03 0.  0.
    9000005    1    3    3    0    0  0.20396431748E+03  0.11372840561E+01 -0.41996433174E+03  0.46687661770E+03  0.99999687468E+00 0.  0.
          4    1    3    3  501    0 -0.12291428662E+03  0.14309179164E+03 -0.11160450359E+03  0.21917743477E+03  0.00000000000E+00 0.  1.
   -9000007    1    1    2    0  502 -0.81050030865E+02 -0.14422907570E+03  0.27022479063E+03  0.51028675395E+03  0.40000000000E+03 0. -1.
<mgrwt>
<rscale>  2 0.43349864E+03</rscale>
<asrwt>0</asrwt>
<pdfrwt beam="1">  1       21 0.71922828E-01 0.43371043E+03</pdfrwt>
<pdfrwt beam="2">  1       21 0.11212960E+00 0.43371043E+03</pdfrwt>
<totfact> 0.92901717E+02</totfact>
</mgrwt>
</event>
<event>
 6    1  0.9598567E-004  0.5156961E+03  0.7818608E-02  0.1009762E+00
         21   -1    0    0  503  502  0.00000000000E+00  0.00000000000E+00  0.58641096248E+03  0.58641096248E+03  0.00000000000E+00 0.  1.
         21   -1    0    0  501  503 -0.00000000000E+00 -0.00000000000E+00 -0.45351047807E+03  0.45351047807E+03  0.00000000000E+00 0.  1.
    9000007    2    1    2  501    0  0.32433508948E+03 -0.27371169399E+02  0.68488693984E+02  0.52021834268E+03  0.39999248953E+03 0.  0.
    9000005    1    3    3    0    0 -0.78563505679E+02  0.38486634937E+02  0.69877781553E+02  0.11197030786E+03  0.99999687468E+00 0.  0.
          4    1    3    3  501    0  0.40289859516E+03 -0.65857804336E+02 -0.13890875693E+01  0.40824803483E+03  0.00000000000E+00 0.  1.
   -9000007    1    1    2    0  502 -0.32433508948E+03  0.27371169399E+02  0.64411790427E+02  0.51970309786E+03  0.40000000000E+03 0.  1.
<mgrwt>
<rscale>  2 0.51569461E+03</rscale>
<asrwt>0</asrwt>
<pdfrwt beam="1">  1       21 0.90217071E-01 0.51569606E+03</pdfrwt>
<pdfrwt beam="2">  1       21 0.69770843E-01 0.51569606E+03</pdfrwt>
<totfact> 0.16377822E+03</totfact>
</mgrwt>
</event>
<event>
 6    1  0.9598567E-004  0.4647704E+03  0.7818608E-02  0.1023410E+00
         21   -1    0    0  503  502  0.00000000000E+00  0.00000000000E+00  0.71613810470E+03  0.71613810470E+03  0.00000000000E+00 0.  1.
         21   -1    0    0  501  503 -0.00000000000E+00 -0.00000000000E+00 -0.38354680083E+03  0.38354680083E+03  0.00000000000E+00 0.  1.
    9000007    2    1    2  501    0 -0.11880833170E+03  0.20456498518E+03 -0.87850547344E+02  0.47300029339E+03  0.40006162780E+03 0.  0.
    9000005    1    3    3    0    0 -0.16244544962E+03 -0.14675652155E+02  0.90945349969E+02  0.18675105232E+03  0.99999687468E+00 0.  0.
          4    1    3    3  501    0  0.43637117913E+02  0.21924063734E+03 -0.17879589731E+03  0.28624924108E+03  0.00000000000E+00 0.  1.
   -9000007    1    1    2    0  502  0.11880833170E+03 -0.20456498518E+03  0.42044185121E+03  0.62668461214E+03  0.40000000000E+03 0.  1.
<mgrwt>
<rscale>  2 0.46475717E+03</rscale>
<asrwt>0</asrwt>
<pdfrwt beam="1">  1       21 0.11017509E+00 0.46477044E+03</pdfrwt>
<pdfrwt beam="2">  1       21 0.59007200E-01 0.46477044E+03</pdfrwt>
<totfact> 0.14881036E+03</totfact>
</mgrwt>
</event>
<event>
 6    1  0.9598567E-004  0.6855886E+03  0.7818608E-02  0.9742637E-01
         21   -1    0    0  503  502  0.00000000000E+00  0.00000000000E+00  0.48114410054E+03  0.48114410054E+03  0.00000000000E+00 0.  1.
         21   -1    0    0  501  503 -0.00000000000E+00 -0.00000000000E+00 -0.11577416133E+04  0.11577416133E+04  0.00000000000E+00 0.  1.
    9000007    2    1    2  501    0 -0.50547648055E+03  0.23350652070E+03 -0.66321795386E+03  0.95316654373E+03  0.39829215179E+03 0.  0.
    9000005    1    3    3    0    0  0.28244846216E+02 -0.18871678722E+02 -0.19968480288E+03  0.20255599742E+03  0.99999687468E+00 0.  0.
          4    1    3    3  501    0 -0.53372132677E+03  0.25237819942E+03 -0.46353315098E+03  0.75061054632E+03  0.00000000000E+00 0.  1.
   -9000007    1    1    2    0  502  0.50547648055E+03 -0.23350652070E+03 -0.13379558868E+02  0.68571917006E+03  0.40000000000E+03 0.  1.
<mgrwt>
<rscale>  2 0.68533974E+03</rscale>
<asrwt>0</asrwt>
<pdfrwt beam="1">  1       21 0.74022170E-01 0.68558863E+03</pdfrwt>
<pdfrwt beam="2">  1       21 0.17811409E+00 0.68558863E+03</pdfrwt>
<totfact> 0.22764003E+02</totfact>
</mgrwt>
</event>
<event>
 6    1  0.9598567E-004  0.5015323E+03  0.7818608E-02  0.1013399E+00
         21   -1    0    0  503  502  0.00000000000E+00  0.00000000000E+00  0.10041255824E+04  0.10041255824E+04  0.00000000000E+00 0. -1.
         21   -1    0    0  501  503 -0.00000000000E+00 -0.00000000000E+00 -0.25594783124E+03  0.25594783124E+03  0.00000000000E+00 0.  1.
    9000007    2    1    2  501    0 -0.20875544296E+03 -0.21898822151E+03  0.28081473167E+03  0.57453503533E+03  0.39962346925E+03 0.  0.
    9000005    1    3    3    0    0  0.33431958297E+01 -0.25065770302E+03  0.43059419511E+02  0.25435324776E+03  0.99999687468E+00 0.  0.
          4    1    3    3  501    0 -0.21209863879E+03  0.31669481511E+02  0.23775531216E+03  0.32018178758E+03  0.00000000000E+00 0.  1.
   -9000007    1    1    2    0  502  0.20875544296E+03  0.21898822151E+03  0.46736301945E+03  0.68553837826E+03  0.40000000000E+03 0.  1.
<mgrwt>
<rscale>  2 0.50145725E+03</rscale>
<asrwt>0</asrwt>
<pdfrwt beam="1">  1       21 0.15448086E+00 0.50153233E+03</pdfrwt>
<pdfrwt beam="2">  1       21 0.39376590E-01 0.50153233E+03</pdfrwt>
<totfact> 0.14325462E+03</totfact>
</mgrwt>
</event>
<event>
 6    1  0.9598567E-004  0.5313365E+03  0.7818608E-02  0.1005943E+00
         21   -1    0    0  503  502  0.00000000000E+00  0.00000000000E+00  0.39279038445E+03  0.39279038445E+03  0.00000000000E+00 0.  1.
         21   -1    0    0  501  503 -0.00000000000E+00 -0.00000000000E+00 -0.11249393775E+04  0.11249393775E+04  0.00000000000E+00 0. -1.
    9000007    2    1    2  501    0 -0.34244519217E+03  0.71061876689E+02  0.90482746045E+02  0.53842313065E+03  0.39924158141E+03 0.  0.
    9000005    1    3    3    0    0 -0.35910218501E+02  0.17401414572E+03  0.11892979748E+03  0.21381244919E+03  0.99999687468E+00 0.  0.
          4    1    3    3  501    0 -0.30653497367E+03 -0.10295226904E+03 -0.28447051439E+02  0.32461068146E+03  0.00000000000E+00 0.  1.
   -9000007    1    1    2    0  502  0.34244519217E+03 -0.71061876689E+02 -0.82263173907E+03  0.97930663129E+03  0.40000000000E+03 0.  1.
<mgrwt>
<rscale>  2 0.53119379E+03</rscale>
<asrwt>0</asrwt>
<pdfrwt beam="1">  1       21 0.60429292E-01 0.53133652E+03</pdfrwt>
<pdfrwt beam="2">  1       21 0.17306759E+00 0.53133652E+03</pdfrwt>
<totfact> 0.41320236E+02</totfact>
</mgrwt>
</event>
<event>
 6    1  0.9598567E-004  0.4129642E+03  0.7818608E-02  0.1039521E+00
         21   -1    0    0  503  502  0.00000000000E+00  0.00000000000E+00  0.64679888177E+03  0.64679888177E+03  0.00000000000E+00 0.  1.
         21   -1    0    0  501  503 -0.00000000000E+00 -0.00000000000E+00 -0.36571389010E+03  0.36571389010E+03  0.00000000000E+00 0.  1.
    9000007    2    1    2  501    0 -0.95352855515E+02  0.80674215629E+01 -0.12807337309E+03  0.43236811939E+03  0.40172397417E+03 0.  0.
    9000005    1    3    3    0    0  0.72204724495E+02 -0.15383554782E+03 -0.10128616116E+03  0.19783524571E+03  0.99999687468E+00 0.  0.
          4    1    3    3  501    0 -0.16755758001E+03  0.16190296938E+03 -0.26787211936E+02  0.23453287368E+03  0.00000000000E+00 0.  1.
   -9000007    1    1    2    0  502  0.95352855515E+02 -0.80674215629E+01  0.40915836476E+03  0.58014465248E+03  0.40000000000E+03 0.  1.
<mgrwt>
<rscale>  2 0.41254431E+03</rscale>
<asrwt>0</asrwt>
<pdfrwt beam="1">  1       21 0.99507521E-01 0.41296417E+03</pdfrwt>
<pdfrwt beam="2">  1       21 0.56263675E-01 0.41296417E+03</pdfrwt>
<totfact> 0.21633774E+03</totfact>
</mgrwt>
</event>
<event>
 6    1  0.9598567E-004  0.4426992E+03  0.7818608E-02  0.1029935E+00
         21   -1    0    0  503  502  0.00000000000E+00  0.00000000000E+00  0.10487985383E+04  0.10487985383E+04  0.00000000000E+00 0. -1.
         21   -1    0    0  501  503 -0.00000000000E+00 -0.00000000000E+00 -0.20196828602E+03  0.20196828602E+03  0.00000000000E+00 0.  1.
    9000007    2    1    2  501    0 -0.17238757056E+03  0.79152640575E+02  0.25190593384E+03  0.50920255897E+03  0.39980999432E+03 0.  0.
    9000005    1    3    3    0    0 -0.31734795900E+02  0.15322809974E+03 -0.53107770158E+02  0.16524945708E+03  0.99999687468E+00 0.  0.
          4    1    3    3  501    0 -0.14065277466E+03 -0.74075459166E+02  0.30501370400E+03  0.34395310188E+03  0.00000000000E+00 0.  1.
   -9000007    1    1    2    0  502  0.17238757056E+03 -0.79152640575E+02  0.59492431846E+03  0.74156426538E+03  0.40000000000E+03 0.  1.
<mgrwt>
<rscale>  2 0.44265631E+03</rscale>
<asrwt>0</asrwt>
<pdfrwt beam="1">  1       21 0.16135362E+00 0.44269924E+03</pdfrwt>
<pdfrwt beam="2">  1       21 0.31072045E-01 0.44269924E+03</pdfrwt>
<totfact> 0.20987239E+03</totfact>
</mgrwt>
</event>
<event>
 6    1  0.9598567E-004  0.5362881E+03  0.7818608E-02  0.1004738E+00
         21   -1    0    0  503  502  0.00000000000E+00  0.00000000000E+00  0.69484420114E+03  0.69484420114E+03  0.00000000000E+00 0.  1.
         21   -1    0    0  501  503 -0.00000000000E+00 -0.00000000000E+00 -0.42550117486E+03  0.42550117486E+03  0.00000000000E+00 0.  1.
    9000007    2    1    2  501    0  0.37633325864E+02 -0.35474602519E+03  0.41283889716E+02  0.53787479358E+03  0.40042967475E+03 0.  0.
    9000005    1    3    3    0    0  0.93688208361E+02  0.78682334119E+01  0.12994505396E+03  0.16039359877E+03  0.99999687468E+00 0.  0.
          4    1    3    3  501    0 -0.56054882497E+02 -0.36261425860E+03 -0.88661164248E+02  0.37748119481E+03  0.00000000000E+00 0.  1.
   -9000007    1    1    2    0  502 -0.37633325864E+02  0.35474602519E+03  0.22805913656E+03  0.58247058241E+03  0.40000000000E+03 0.  1.
<mgrwt>
<rscale>  2 0.53620790E+03</rscale>
<asrwt>0</asrwt>
<pdfrwt beam="1">  1       21 0.10689911E+00 0.53628811E+03</pdfrwt>
<pdfrwt beam="2">  1       21 0.65461719E-01 0.53628811E+03</pdfrwt>
<totfact> 0.12430160E+03</totfact>
</mgrwt>
</event>
<event>
 6    1  0.9598567E-004  0.4583147E+03  0.7818608E-02  0.1025507E+00
         21   -1    0    0  503  502  0.00000000000E+00  0.00000000000E+00  0.28401502905E+03  0.28401502905E+03  0.00000000000E+00 0. -1.
         21   -1    0    0  501  503 -0.00000000000E+00 -0.00000000000E+00 -0.10005866512E+04  0.10005866512E+04  0.00000000000E+00 0. -1.
    9000007    2    1    2  501    0 -0.67230646902E+02 -0.20635207817E+03 -0.69051559224E+03  0.82877270276E+03  0.40367223048E+03 0.  0.
    9000005    1    3    3    0    0 -0.76881558457E+02  0.83413933464E+01 -0.58366279741E+03  0.58876448088E+03  0.99999687468E+00 0.  0.
          4    1    3    3  501    0  0.96509115554E+01 -0.21469347151E+03 -0.10685279483E+03  0.24000822187E+03  0.00000000000E+00 0.  1.
   -9000007    1    1    2    0  502  0.67230646902E+02  0.20635207817E+03 -0.26056029945E+02  0.45582897752E+03  0.40000000000E+03 0. -1.
<mgrwt>
<rscale>  2 0.45750483E+03</rscale>
<asrwt>0</asrwt>
<pdfrwt beam="1">  1       21 0.43694621E-01 0.45831475E+03</pdfrwt>
<pdfrwt beam="2">  1       21 0.15393641E+00 0.45831475E+03</pdfrwt>
<totfact> 0.11857061E+03</totfact>
</mgrwt>
</event>
<event>
 6    1  0.9598567E-004  0.4188776E+03  0.7818608E-02  0.1037619E+00
         21   -1    0    0  503  502  0.00000000000E+00  0.00000000000E+00  0.16283589587E+03  0.16283589587E+03  0.00000000000E+00 0.  1.
         21   -1    0    0  501  503 -0.00000000000E+00 -0.00000000000E+00 -0.14541299489E+04  0.14541299489E+04  0.00000000000E+00 0.  1.
    9000007    2    1    2  501    0  0.99990862289E+02 -0.73893773183E+02 -0.10589828093E+04  0.11379804836E+04  0.39761354154E+03 0.  0.
    9000005    1    3    3    0    0  0.16054857523E+03  0.12243457213E+03 -0.40594682002E+03  0.45338713054E+03  0.99999687468E+00 0.  0.
          4    1    3    3  501    0 -0.60557712942E+02 -0.19632834531E+03 -0.65303598927E+03  0.68459335306E+03  0.00000000000E+00 0.  1.
   -9000007    1    1    2    0  502 -0.99990862289E+02  0.73893773183E+02 -0.23231124376E+03  0.47898536119E+03  0.40000000000E+03 0.  1.
<mgrwt>
<rscale>  2 0.41830688E+03</rscale>
<asrwt>0</asrwt>
<pdfrwt beam="1">  1       21 0.25051677E-01 0.41887762E+03</pdfrwt>
<pdfrwt beam="2">  1       21 0.22371230E+00 0.41887762E+03</pdfrwt>
<totfact> 0.12156746E+03</totfact>
</mgrwt>
</event>
<event>
 6    1  0.9598567E-004  0.4136475E+03  0.7818608E-02  0.1039166E+00
         21   -1    0    0  503  502  0.00000000000E+00  0.00000000000E+00  0.14966262721E+04  0.14966262721E+04  0.00000000000E+00 0. -1.
         21   -1    0    0  501  503 -0.00000000000E+00 -0.00000000000E+00 -0.13419729681E+03  0.13419729681E+03  0.00000000000E+00 0. -1.
    9000007    2    1    2  501    0  0.27974633514E+02 -0.10097441579E+03  0.36721966033E+03  0.55313159374E+03  0.40015730444E+03 0.  0.
    9000005    1    3    3    0    0  0.12794352167E+02 -0.24848744600E+03  0.30154435927E+03  0.39094719192E+03  0.99999687468E+00 0.  0.
          4    1    3    3  501    0  0.15180281347E+02  0.14751303021E+03  0.65675301053E+02  0.16218440182E+03  0.00000000000E+00 0.  1.
   -9000007    1    1    2    0  502 -0.27974633514E+02  0.10097441579E+03  0.99520931494E+03  0.10776919752E+04  0.40000000000E+03 0. -1.
<mgrwt>
<rscale>  2 0.41360948E+03</rscale>
<asrwt>0</asrwt>
<pdfrwt beam="1">  1       21 0.23025018E+00 0.41364753E+03</pdfrwt>
<pdfrwt beam="2">  1       21 0.20645739E-01 0.41364753E+03</pdfrwt>
<totfact> 0.16085432E+03</totfact>
</mgrwt>
</event>
<event>
 6    1  0.9598567E-004  0.4133760E+03  0.7818608E-02  0.1039263E+00
         21   -1    0    0  503  502  0.00000000000E+00  0.00000000000E+00  0.27389496258E+03  0.27389496258E+03  0.00000000000E+00 0.  1.
         21   -1    0    0  501  503 -0.00000000000E+00 -0.00000000000E+00 -0.69926932704E+03  0.69926932704E+03  0.00000000000E+00 0.  1.
    9000007    2    1    2  501    0  0.10336463598E+03  0.30810247893E+01 -0.37285768749E+03  0.55668890974E+03  0.40023236553E+03 0.  0.
    9000005    1    3    3    0    0 -0.12650591368E+01  0.18072382212E+03 -0.77859905134E+02  0.19678888454E+03  0.99999687468E+00 0.  0.
          4    1    3    3  501    0  0.10462969511E+03 -0.17764279733E+03 -0.29499778235E+03  0.35990002520E+03  0.00000000000E+00 0.  1.
   -9000007    1    1    2    0  502 -0.10336463598E+03 -0.30810247893E+01 -0.52516676975E+02  0.41647537988E+03  0.40000000000E+03 0.  1.
<mgrwt>
<rscale>  2 0.41331971E+03</rscale>
<asrwt>0</asrwt>
<pdfrwt beam="1">  1       21 0.42137688E-01 0.41337596E+03</pdfrwt>
<pdfrwt beam="2">  1       21 0.10757989E+00 0.41337596E+03</pdfrwt>
<totfact> 0.32945126E+03</totfact>
</mgrwt>
</event>
<event>
 6    1  0.9598567E-004  0.4876087E+03  0.7818608E-02  0.1017167E+00
         21   -1    0    0  503  502  0.00000000000E+00  0.00000000000E+00  0.97427944030E+03  0.97427944030E+03  0.00000000000E+00 0.  1.
         21   -1    0    0  501  503 -0.00000000000E+00 -0.00000000000E+00 -0.26216359776E+03  0.26216359776E+03  0.00000000000E+00 0.  1.
    9000007    2    1    2  501    0 -0.26847649023E+03  0.64810051838E+02  0.19064440604E+03  0.52355284475E+03  0.40184863204E+03 0.  0.
    9000005    1    3    3    0    0 -0.81915586841E+02  0.67347044494E+02  0.29239504637E+03  0.31103319904E+03  0.99999687468E+00 0.  0.
          4    1    3    3  501    0 -0.18656090339E+03 -0.25369926556E+01 -0.10175064033E+03  0.21251964571E+03  0.00000000000E+00 0.  1.
   -9000007    1    1    2    0  502  0.26847649023E+03 -0.64810051838E+02  0.52147143649E+03  0.71289019330E+03  0.40000000000E+03 0.  1.
<mgrwt>
<rscale>  2 0.48722771E+03</rscale>
<asrwt>0</asrwt>
<pdfrwt beam="1">  1       21 0.14988914E+00 0.48760875E+03</pdfrwt>
<pdfrwt beam="2">  1       21 0.40332862E-01 0.48760875E+03</pdfrwt>
<totfact> 0.14883329E+03</totfact>
</mgrwt>
</event>
<event>
 6    1  0.9598567E-004  0.4942429E+03  0.7818608E-02  0.1015308E+00
         21   -1    0    0  503  502  0.00000000000E+00  0.00000000000E+00  0.10790538248E+04  0.10790538248E+04  0.00000000000E+00 0.  1.
         21   -1    0    0  501  503 -0.00000000000E+00 -0.00000000000E+00 -0.31904816497E+03  0.31904816497E+03  0.00000000000E+00 0.  1.
    9000007    2    1    2  501    0  0.26079264438E+03 -0.12663215344E+03  0.31073226256E+01  0.49425266687E+03  0.40028432096E+03 0.  0.
    9000005    1    3    3    0    0  0.94810750233E+02 -0.16882561153E+03 -0.16490887928E+03  0.25433659573E+03  0.99999687468E+00 0.  0.
          4    1    3    3  501    0  0.16598189415E+03  0.42193458091E+02  0.16801620190E+03  0.23991607114E+03  0.00000000000E+00 0.  1.
   -9000007    1    1    2    0  502 -0.26079264438E+03  0.12663215344E+03  0.75689833720E+03  0.90384932290E+03  0.40000000000E+03 0.  1.
<mgrwt>
<rscale>  2 0.49418533E+03</rscale>
<asrwt>0</asrwt>
<pdfrwt beam="1">  1       21 0.16600828E+00 0.49424290E+03</pdfrwt>
<pdfrwt beam="2">  1       21 0.49084333E-01 0.49424290E+03</pdfrwt>
<totfact> 0.74063934E+02</totfact>
</mgrwt>
</event>
<event>
 6    1  0.9598567E-004  0.5128721E+03  0.7818608E-02  0.1010549E+00
         21   -1    0    0  503  502  0.00000000000E+00  0.00000000000E+00  0.34896264017E+04  0.34896264017E+04  0.00000000000E+00 0.  1.
         21   -1    0    0  501  503 -0.00000000000E+00 -0.00000000000E+00 -0.98669335447E+02  0.98669335447E+02  0.00000000000E+00 0. -1.
    9000007    2    1    2  501    0  0.30366355793E+03 -0.97923221922E+02  0.82197696699E+03  0.96885700639E+03  0.40154358512E+03 0.  0.
    9000005    1    3    3    0    0 -0.75068697438E+02  0.63548217283E+02  0.20122959195E+03  0.22398221788E+03  0.99999687468E+00 0.  0.
          4    1    3    3  501    0  0.37873225537E+03 -0.16147143920E+03  0.62074737504E+03  0.74487478851E+03  0.00000000000E+00 0.  1.
   -9000007    1    1    2    0  502 -0.30366355793E+03  0.97923221922E+02  0.25689800993E+04  0.26194387308E+04  0.40000000000E+03 0.  1.
<mgrwt>
<rscale>  2 0.51256990E+03</rscale>
<asrwt>0</asrwt>
<pdfrwt beam="1">  1       21 0.53686551E+00 0.51287207E+03</pdfrwt>
<pdfrwt beam="2">  1       21 0.15179900E-01 0.51287207E+03</pdfrwt>
<totfact> 0.27841784E+01</totfact>
</mgrwt>
</event>
<event>
 6    1  0.9598567E-004  0.4469801E+03  0.7818608E-02  0.1028639E+00
         21   -1    0    0  503  502  0.00000000000E+00  0.00000000000E+00  0.21513118672E+03  0.21513118672E+03  0.00000000000E+00 0.  1.
         21   -1    0    0  501  503 -0.00000000000E+00 -0.00000000000E+00 -0.97479122516E+03  0.97479122516E+03  0.00000000000E+00 0.  1.
    9000007    2    1    2  501    0 -0.17640260649E+03 -0.93130915836E+02 -0.24988654189E+03  0.51193991591E+03  0.39980988810E+03 0.  0.
    9000005    1    3    3    0    0 -0.11362515814E+03  0.50238792134E+02 -0.31788039819E+03  0.34129688007E+03  0.99999687468E+00 0.  0.
          4    1    3    3  501    0 -0.62777448344E+02 -0.14336970797E+03  0.67993856304E+02  0.17064303583E+03  0.00000000000E+00 0.  1.
   -9000007    1    1    2    0  502  0.17640260649E+03  0.93130915836E+02 -0.50977349655E+03  0.67798249597E+03  0.40000000000E+03 0.  1.
<mgrwt>
<rscale>  2 0.44693761E+03</rscale>
<asrwt>0</asrwt>
<pdfrwt beam="1">  1       21 0.33097106E-01 0.44698014E+03</pdfrwt>
<pdfrwt beam="2">  1       21 0.14996788E+00 0.44698014E+03</pdfrwt>
<totfact> 0.22584447E+03</totfact>
</mgrwt>
</event>
<event>
 6    1  0.9598567E-004  0.4208752E+03  0.7818608E-02  0.1036849E+00
         21   -1    0    0  503  502  0.00000000000E+00  0.00000000000E+00  0.28218747797E+03  0.28218747797E+03  0.00000000000E+00 0.  1.
         21   -1    0    0  501  503 -0.00000000000E+00 -0.00000000000E+00 -0.64279111587E+03  0.64279111587E+03  0.00000000000E+00 0. -1.
    9000007    2    1    2  501    0  0.30087756335E+01 -0.12818424004E+03 -0.25412282323E+03  0.49164452407E+03  0.40086865260E+03 0.  0.
    9000005    1    3    3    0    0 -0.10872367608E+03 -0.23942032406E+03 -0.16719154669E+03  0.31160382313E+03  0.99999687468E+00 0.  0.
          4    1    3    3  501    0  0.11173245172E+03  0.11123608402E+03 -0.86931276539E+02  0.18004070094E+03  0.00000000000E+00 0.  1.
   -9000007    1    1    2    0  502 -0.30087756335E+01  0.12818424004E+03 -0.10648081467E+03  0.43333406976E+03  0.40000000000E+03 0.  1.
<mgrwt>
<rscale>  2 0.42066822E+03</rscale>
<asrwt>0</asrwt>
<pdfrwt beam="1">  1       21 0.43413459E-01 0.42087519E+03</pdfrwt>
<pdfrwt beam="2">  1       21 0.98890940E-01 0.42087519E+03</pdfrwt>
<totfact> 0.37941466E+03</totfact>
</mgrwt>
</event>
<event>
 6    1  0.9598567E-004  0.4154688E+03  0.7818608E-02  0.1038627E+00
         21   -1    0    0  503  502  0.00000000000E+00  0.00000000000E+00  0.51884802361E+03  0.51884802361E+03  0.00000000000E+00 0.  1.
         21   -1    0    0  501  503 -0.00000000000E+00 -0.00000000000E+00 -0.86426045072E+03  0.86426045072E+03  0.00000000000E+00 0.  1.
    9000007    2    1    2  501    0 -0.52694185651E+02  0.95290871488E+02 -0.71550846247E+03  0.82738542930E+03  0.40094545934E+03 0.  0.
    9000005    1    3    3    0    0  0.41126359302E+01  0.22796753345E+03 -0.24253603423E+03  0.33288261891E+03  0.99999687468E+00 0.  0.
          4    1    3    3  501    0 -0.56806821582E+02 -0.13267666196E+03 -0.47297242824E+03  0.49450281039E+03  0.00000000000E+00 0.  1.
   -9000007    1    1    2    0  502  0.52694185651E+02 -0.95290871488E+02  0.37009603536E+03  0.55572304503E+03  0.40000000000E+03 0.  1.
<mgrwt>
<rscale>  2 0.41524049E+03</rscale>
<asrwt>0</asrwt>
<pdfrwt beam="1">  1       21 0.79822774E-01 0.41546876E+03</pdfrwt>
<pdfrwt beam="2">  1       21 0.13296315E+00 0.41546876E+03</pdfrwt>
<totfact> 0.47853431E+02</totfact>
</mgrwt>
</event>
<event>
 6    1  0.9598567E-004  0.4726446E+03  0.7818608E-02  0.1021181E+00
         21   -1    0    0  503  502  0.00000000000E+00  0.00000000000E+00  0.34665156962E+03  0.34665156962E+03  0.00000000000E+00 0.  1.
         21   -1    0    0  501  503 -0.00000000000E+00 -0.00000000000E+00 -0.15668452577E+04  0.15668452577E+04  0.00000000000E+00 0. -1.
    9000007    2    1    2  501    0 -0.10537584273E+03 -0.22866754011E+03 -0.13442020365E+04  0.14248548494E+04  0.39992413633E+03 0.  0.
    9000005    1    3    3    0    0 -0.77731787858E+02 -0.28141047172E+03 -0.13325755722E+04  0.13641820773E+04  0.99999687468E+00 0.  0.
          4    1    3    3  501    0 -0.27644054868E+02  0.52742931611E+02 -0.11626464328E+02  0.60672772124E+02  0.00000000000E+00 0.  1.
   -9000007    1    1    2    0  502  0.10537584273E+03  0.22866754011E+03  0.12400834839E+03  0.48864197794E+03  0.40000000000E+03 0.  1.
<mgrwt>
<rscale>  2 0.47262854E+03</rscale>
<asrwt>0</asrwt>
<pdfrwt beam="1">  1       21 0.53331010E-01 0.47264459E+03</pdfrwt>
<pdfrwt beam="2">  1       21 0.24105312E+00 0.47264459E+03</pdfrwt>
<totfact> 0.19714022E+02</totfact>
</mgrwt>
</event>
<event>
 6    1  0.9598567E-004  0.4030623E+03  0.7818608E-02  0.1042765E+00
         21   -1    0    0  503  502  0.00000000000E+00  0.00000000000E+00  0.23810549818E+03  0.23810549818E+03  0.00000000000E+00 0.  1.
         21   -1    0    0  501  503 -0.00000000000E+00 -0.00000000000E+00 -0.69849957571E+03  0.69849957571E+03  0.00000000000E+00 0.  1.
    9000007    2    1    2  501    0  0.28460354391E+02  0.35661745055E+02 -0.30337077051E+03  0.50447306769E+03  0.40047159674E+03 0.  0.
    9000005    1    3    3    0    0 -0.11059471297E+03  0.17411482845E+03 -0.14214956286E+03  0.25050880671E+03  0.99999687468E+00 0.  0.
          4    1    3    3  501    0  0.13905506736E+03 -0.13845308340E+03 -0.16122120765E+03  0.25396426098E+03  0.00000000000E+00 0.  1.
   -9000007    1    1    2    0  502 -0.28460354391E+02 -0.35661745055E+02 -0.15702330702E+03  0.43213200620E+03  0.40000000000E+03 0. -1.
<mgrwt>
<rscale>  2 0.40294515E+03</rscale>
<asrwt>0</asrwt>
<pdfrwt beam="1">  1       21 0.36631616E-01 0.40306234E+03</pdfrwt>
<pdfrwt beam="2">  1       21 0.10746147E+00 0.40306234E+03</pdfrwt>
<totfact> 0.44200255E+03</totfact>
</mgrwt>
</event>
<event>
 6    1  0.9598567E-004  0.4099190E+03  0.7818608E-02  0.1040517E+00
         21   -1    0    0  503  502  0.00000000000E+00  0.00000000000E+00  0.85705510426E+03  0.85705510426E+03  0.00000000000E+00 0.  1.
         21   -1    0    0  501  503 -0.00000000000E+00 -0.00000000000E+00 -0.23457774205E+03  0.23457774205E+03  0.00000000000E+00 0.  1.
    9000007    2    1    2  501    0  0.58430116585E+02  0.67966819836E+02  0.87684814713E+02  0.41781043945E+03  0.39855158946E+03 0.  0.
    9000005    1    3    3    0    0 -0.23439999563E+02 -0.13978035809E+03  0.12791049378E+03  0.19091903126E+03  0.99999687468E+00 0.  0.
          4    1    3    3  501    0  0.81870116148E+02  0.20774717792E+03 -0.40225679067E+02  0.22689140819E+03  0.00000000000E+00 0.  1.
   -9000007    1    1    2    0  502 -0.58430116585E+02 -0.67966819836E+02  0.53479254750E+03  0.67382240686E+03  0.40000000000E+03 0.  1.
<mgrwt>
<rscale>  2 0.40956521E+03</rscale>
<asrwt>0</asrwt>
<pdfrwt beam="1">  1       21 0.13185463E+00 0.40991898E+03</pdfrwt>
<pdfrwt beam="2">  1       21 0.36088884E-01 0.40991898E+03</pdfrwt>
<totfact> 0.27095942E+03</totfact>
</mgrwt>
</event>
<event>
 6    1  0.9598567E-004  0.6520156E+03  0.7818608E-02  0.9803924E-01
         21   -1    0    0  503  502  0.00000000000E+00  0.00000000000E+00  0.12267812301E+04  0.12267812301E+04  0.00000000000E+00 0. -1.
         21   -1    0    0  501  503 -0.00000000000E+00 -0.00000000000E+00 -0.41671265635E+03  0.41671265635E+03  0.00000000000E+00 0. -1.
    9000007    2    1    2  501    0  0.26390000155E+03 -0.43922954836E+03  0.65822135958E+02  0.65532964547E+03  0.40318554498E+03 0.  0.
    9000005    1    3    3    0    0  0.33027343388E+03 -0.35679406411E+03 -0.61160879302E+02  0.49002469168E+03  0.99999687468E+00 0.  0.
          4    1    3    3  501    0 -0.66373432327E+02 -0.82435484257E+02  0.12698301526E+03  0.16530495379E+03  0.00000000000E+00 0.  1.
   -9000007    1    1    2    0  502 -0.26390000155E+03  0.43922954836E+03  0.74424643783E+03  0.98816424101E+03  0.40000000000E+03 0. -1.
<mgrwt>
<rscale>  2 0.65152383E+03</rscale>
<asrwt>0</asrwt>
<pdfrwt beam="1">  1       21 0.18873557E+00 0.65201564E+03</pdfrwt>
<pdfrwt beam="2">  1       21 0.64109640E-01 0.65201564E+03</pdfrwt>
<totfact> 0.26816555E+02</totfact>
</mgrwt>
</event>
<event>
 6    1  0.9598567E-004  0.4380655E+03  0.7818608E-02  0.1031346E+00
         21   -1    0    0  503  502  0.00000000000E+00  0.00000000000E+00  0.14000968338E+04  0.14000968338E+04  0.00000000000E+00 0. -1.
         21   -1    0    0  501  503 -0.00000000000E+00 -0.00000000000E+00 -0.14188338500E+03  0.14188338500E+03  0.00000000000E+00 0.  1.
    9000007    2    1    2  501    0  0.16782579442E+03 -0.60753789369E+02  0.77148888127E+03  0.88718458287E+03  0.40005608353E+03 0.  0.
    9000005    1    3    3    0    0 -0.12902849021E+03 -0.20872681416E+02  0.31682267364E+03  0.34272675215E+03  0.99999687468E+00 0.  0.
          4    1    3    3  501    0  0.29685428463E+03 -0.39881107952E+02  0.45466620763E+03  0.54445783072E+03  0.00000000000E+00 0.  1.
   -9000007    1    1    2    0  502 -0.16782579442E+03  0.60753789369E+02  0.48672456755E+03  0.65479563594E+03  0.40000000000E+03 0.  1.
<mgrwt>
<rscale>  2 0.43805270E+03</rscale>
<asrwt>0</asrwt>
<pdfrwt beam="1">  1       21 0.21539950E+00 0.43806551E+03</pdfrwt>
<pdfrwt beam="2">  1       21 0.21828214E-01 0.43806551E+03</pdfrwt>
<totfact> 0.17759847E+03</totfact>
</mgrwt>
</event>
<event>
 6    1  0.9598567E-004  0.7748206E+03  0.7818608E-02  0.9597576E-01
         21   -1    0    0  503  502  0.00000000000E+00  0.00000000000E+00  0.12139155669E+04  0.12139155669E+04  0.00000000000E+00 0. -1.
         21   -1    0    0  501  503 -0.00000000000E+00 -0.00000000000E+00 -0.49393390464E+03  0.49393390464E+03  0.00000000000E+00 0.  1.
    9000007    2    1    2  501    0  0.14725110544E+03  0.64704254893E+03  0.36558249111E+03  0.85582498790E+03  0.39804384674E+03 0.  0.
    9000005    1    3    3    0    0  0.12468678149E+03  0.58496538539E+03  0.45010898573E+03  0.74855219899E+03  0.99999687468E+00 0.  0.
          4    1    3    3  501    0  0.22564323953E+02  0.62077163540E+02 -0.84526494617E+02  0.10727278891E+03  0.00000000000E+00 0.  1.
   -9000007    1    1    2    0  502 -0.14725110544E+03 -0.64704254893E+03  0.35439917110E+03  0.85202448360E+03  0.40000000000E+03 0.  1.
<mgrwt>
<rscale>  2 0.77456846E+03</rscale>
<asrwt>0</asrwt>
<pdfrwt beam="1">  1       21 0.18675624E+00 0.77482059E+03</pdfrwt>
<pdfrwt beam="2">  1       21 0.75989832E-01 0.77482059E+03</pdfrwt>
<totfact> 0.18090268E+02</totfact>
</mgrwt>
</event>
<event>
 6    1  0.9598567E-004  0.5691548E+03  0.7818608E-02  0.9971592E-01
         21   -1    0    0  503  502  0.00000000000E+00  0.00000000000E+00  0.36120759350E+03  0.36120759350E+03  0.00000000000E+00 0. -1.
         21   -1    0    0  501  503 -0.00000000000E+00 -0.00000000000E+00 -0.13057448313E+04  0.13057448313E+04  0.00000000000E+00 0. -1.
    9000007    2    1    2  501    0 -0.74022562966E+02 -0.39806764027E+03 -0.93874560831E+03  0.10977681585E+04  0.39989301901E+03 0.  0.
    9000005    1    3    3    0    0  0.48730828379E+01 -0.10392522783E+03 -0.70820889220E+03  0.71581075355E+03  0.99999687468E+00 0.  0.
          4    1    3    3  501    0 -0.78895645804E+02 -0.29414241245E+03 -0.23053671611E+03  0.38195740496E+03  0.00000000000E+00 0.  1.
   -9000007    1    1    2    0  502  0.74022562966E+02  0.39806764027E+03 -0.57916295341E+01  0.56918426633E+03  0.40000000000E+03 0. -1.
<mgrwt>
<rscale>  2 0.56913600E+03</rscale>
<asrwt>0</asrwt>
<pdfrwt beam="1">  1       21 0.55570399E-01 0.56915480E+03</pdfrwt>
<pdfrwt beam="2">  1       21 0.20088382E+00 0.56915480E+03</pdfrwt>
<totfact> 0.31289489E+02</totfact>
</mgrwt>
</event>
<event>
 6    1  0.9598567E-004  0.4889336E+03  0.7818608E-02  0.1016733E+00
         21   -1    0    0  503  502  0.00000000000E+00  0.00000000000E+00  0.24819515565E+03  0.24819515565E+03  0.00000000000E+00 0. -1.
         21   -1    0    0  501  503 -0.00000000000E+00 -0.00000000000E+00 -0.96312356372E+03  0.96312356372E+03  0.00000000000E+00 0. -1.
    9000007    2    1    2  501    0 -0.26306771847E+03  0.97473611333E+02 -0.34184183377E+03  0.59658355580E+03  0.40043772341E+03 0.  0.
    9000005    1    3    3    0    0 -0.19009508043E+03  0.22994573927E+03 -0.33000956394E+03  0.44488031526E+03  0.99999687468E+00 0.  0.
          4    1    3    3  501    0 -0.72972638041E+02 -0.13247212794E+03 -0.11832269832E+02  0.15170324055E+03  0.00000000000E+00 0.  1.
   -9000007    1    1    2    0  502  0.26306771847E+03 -0.97473611333E+02 -0.37308657429E+03  0.61473516357E+03  0.40000000000E+03 0. -1.
<mgrwt>
<rscale>  2 0.48884400E+03</rscale>
<asrwt>0</asrwt>
<pdfrwt beam="1">  1       21 0.38183871E-01 0.48893364E+03</pdfrwt>
<pdfrwt beam="2">  1       21 0.14817285E+00 0.48893364E+03</pdfrwt>
<totfact> 0.17179518E+03</totfact>
</mgrwt>
</event>
<event>
 6    1  0.9598567E-004  0.5669476E+03  0.7818608E-02  0.9976581E-01
         21   -1    0    0  503  502  0.00000000000E+00  0.00000000000E+00  0.46878813461E+03  0.46878813461E+03  0.00000000000E+00 0.  1.
         21   -1    0    0  501  503 -0.00000000000E+00 -0.00000000000E+00 -0.28220851044E+04  0.28220851044E+04  0.00000000000E+00 0. -1.
    9000007    2    1    2  501    0 -0.21912886426E+03 -0.33676710844E+03 -0.26083427289E+04  0.26691997848E+04  0.39968256855E+03 0.  0.
    9000005    1    3    3    0    0 -0.11924318618E+03 -0.39894159485E+03 -0.23315622286E+04  0.23684502865E+04  0.99999687468E+00 0.  0.
          4    1    3    3  501    0 -0.99885678082E+02  0.62174486408E+02 -0.27678050025E+03  0.30074949837E+03  0.00000000000E+00 0.  1.
   -9000007    1    1    2    0  502  0.21912886426E+03  0.33676710844E+03  0.25504575904E+03  0.62167345422E+03  0.40000000000E+03 0.  1.
<mgrwt>
<rscale>  2 0.56689158E+03</rscale>
<asrwt>0</asrwt>
<pdfrwt beam="1">  1       21 0.72121251E-01 0.56694757E+03</pdfrwt>
<pdfrwt beam="2">  1       21 0.43416694E+00 0.56694757E+03</pdfrwt>
<totfact> 0.59776625E+00</totfact>
</mgrwt>
</event>
<event>
 6    1  0.9598567E-004  0.4072285E+03  0.7818608E-02  0.1041435E+00
         21   -1    0    0  503  502  0.00000000000E+00  0.00000000000E+00  0.70948292704E+03  0.70948292704E+03  0.00000000000E+00 0. -1.
         21   -1    0    0  501  503 -0.00000000000E+00 -0.00000000000E+00 -0.31400482364E+03  0.31400482364E+03  0.00000000000E+00 0. -1.
    9000007    2    1    2  501    0 -0.22777697210E+02 -0.63787312110E+02 -0.62127158135E+02  0.41194035263E+03  0.40155625468E+03 0.  0.
    9000005    1    3    3    0    0  0.10455291852E+03 -0.18923293565E+03  0.16164835502E+02  0.21680110380E+03  0.99999687468E+00 0.  0.
          4    1    3    3  501    0 -0.12733061573E+03  0.12544562354E+03 -0.78291993637E+02  0.19513924883E+03  0.00000000000E+00 0.  1.
   -9000007    1    1    2    0  502  0.22777697210E+02  0.63787312110E+02  0.45760526153E+03  0.61154739805E+03  0.40000000000E+03 0.  1.
<mgrwt>
<rscale>  2 0.40684436E+03</rscale>
<asrwt>0</asrwt>
<pdfrwt beam="1">  1       21 0.10915122E+00 0.40722852E+03</pdfrwt>
<pdfrwt beam="2">  1       21 0.48308435E-01 0.40722852E+03</pdfrwt>
<totfact> 0.23942890E+03</totfact>
</mgrwt>
</event>
<event>
 6    1  0.9598567E-004  0.4339717E+03  0.7818608E-02  0.1032666E+00
         21   -1    0    0  503  502  0.00000000000E+00  0.00000000000E+00  0.24785660235E+03  0.24785660235E+03  0.00000000000E+00 0. -1.
         21   -1    0    0  501  503 -0.00000000000E+00 -0.00000000000E+00 -0.78328790660E+03  0.78328790660E+03  0.00000000000E+00 0. -1.
    9000007    2    1    2  501    0  0.65251554468E+02 -0.15515691910E+03 -0.35894613723E+03  0.56265923801E+03  0.39926388991E+03 0.  0.
    9000005    1    3    3    0    0 -0.83058161052E+02 -0.22362162662E+03 -0.31190344318E+03  0.39267040616E+03  0.99999687468E+00 0.  0.
          4    1    3    3  501    0  0.14830971552E+03  0.68464707515E+02 -0.47042694045E+02  0.16998883186E+03  0.00000000000E+00 0.  1.
   -9000007    1    1    2    0  502 -0.65251554468E+02  0.15515691910E+03 -0.17648516703E+03  0.46848527094E+03  0.40000000000E+03 0. -1.
<mgrwt>
<rscale>  2 0.43380200E+03</rscale>
<asrwt>0</asrwt>
<pdfrwt beam="1">  1       21 0.38131786E-01 0.43397170E+03</pdfrwt>
<pdfrwt beam="2">  1       21 0.12050583E+00 0.43397170E+03</pdfrwt>
<totfact> 0.30244539E+03</totfact>
</mgrwt>
</event>
<event>
 6    1  0.9598567E-004  0.4157057E+03  0.7818608E-02  0.1038538E+00
         21   -1    0    0  503  502  0.00000000000E+00  0.00000000000E+00  0.30794984460E+03  0.30794984460E+03  0.00000000000E+00 0. -1.
         21   -1    0    0  501  503 -0.00000000000E+00 -0.00000000000E+00 -0.80392212568E+03  0.80392212568E+03  0.00000000000E+00 0. -1.
    9000007    2    1    2  501    0  0.10820039576E+03 -0.33224602887E+02 -0.55398055275E+03  0.69213853170E+03  0.39918679132E+03 0.  0.
    9000005    1    3    3    0    0  0.25293166451E+03  0.10329862341E+02 -0.41880313069E+03  0.48936509401E+03  0.99999687468E+00 0.  0.
          4    1    3    3  501    0 -0.14473126876E+03 -0.43554465227E+02 -0.13517742206E+03  0.20277343769E+03  0.00000000000E+00 0.  1.
   -9000007    1    1    2    0  502 -0.10820039576E+03  0.33224602887E+02  0.58008271668E+02  0.41973343858E+03  0.40000000000E+03 0. -1.
<mgrwt>
<rscale>  2 0.41550992E+03</rscale>
<asrwt>0</asrwt>
<pdfrwt beam="1">  1       21 0.47376899E-01 0.41570566E+03</pdfrwt>
<pdfrwt beam="2">  1       21 0.12368033E+00 0.41570566E+03</pdfrwt>
<totfact> 0.18167159E+03</totfact>
</mgrwt>
</event>
<event>
 6    1  0.9598567E-004  0.5519013E+03  0.7818608E-02  0.1001061E+00
         21   -1    0    0  503  502  0.00000000000E+00  0.00000000000E+00  0.22229181465E+03  0.22229181465E+03  0.00000000000E+00 0. -1.
         21   -1    0    0  501  503 -0.00000000000E+00 -0.00000000000E+00 -0.14566075148E+04  0.14566075148E+04  0.00000000000E+00 0.  1.
    9000007    2    1    2  501    0 -0.37433795597E+03  0.65943810212E+02 -0.82192481299E+03  0.99002798066E+03  0.40014686415E+03 0.  0.
    9000005    1    3    3    0    0 -0.93839022107E+02 -0.11101159309E+03 -0.52542728422E+03  0.54516434849E+03  0.99999687468E+00 0.  0.
          4    1    3    3  501    0 -0.28049893386E+03  0.17695540330E+03 -0.29649752877E+03  0.44486363217E+03  0.00000000000E+00 0.  1.
   -9000007    1    1    2    0  502  0.37433795597E+03 -0.65943810212E+02 -0.41239088718E+03  0.68887134881E+03  0.40000000000E+03 0. -1.
<mgrwt>
<rscale>  2 0.55187464E+03</rscale>
<asrwt>0</asrwt>
<pdfrwt beam="1">  1       21 0.34198740E-01 0.55190126E+03</pdfrwt>
<pdfrwt beam="2">  1       21 0.22409347E+00 0.55190126E+03</pdfrwt>
<totfact> 0.61420816E+02</totfact>
</mgrwt>
</event>
<event>
 6    1  0.9598567E-004  0.4122850E+03  0.7818608E-02  0.1039635E+00
         21   -1    0    0  503  502  0.00000000000E+00  0.00000000000E+00  0.26061089568E+03  0.26061089568E+03  0.00000000000E+00 0. -1.
         21   -1    0    0  501  503 -0.00000000000E+00 -0.00000000000E+00 -0.65173291244E+03  0.65173291244E+03  0.00000000000E+00 0. -1.
    9000007    2    1    2  501    0  0.78606812470E+02 -0.61642975534E+02 -0.19888749105E+03  0.45744491795E+03  0.39965076187E+03 0.  0.
    9000005    1    3    3    0    0 -0.58467423212E+02 -0.16869294258E+03  0.17988471525E+02  0.17944451386E+03  0.99999687468E+00 0.  0.
          4    1    3    3  501    0  0.13707423568E+03  0.10704996705E+03 -0.21687596258E+03  0.27800040409E+03  0.00000000000E+00 0.  1.
   -9000007    1    1    2    0  502 -0.78606812470E+02  0.61642975534E+02 -0.19223452571E+03  0.45489889016E+03  0.40000000000E+03 0. -1.
<mgrwt>
<rscale>  2 0.41220023E+03</rscale>
<asrwt>0</asrwt>
<pdfrwt beam="1">  1       21 0.40093984E-01 0.41228496E+03</pdfrwt>
<pdfrwt beam="2">  1       21 0.10026660E+00 0.41228496E+03</pdfrwt>
<totfact> 0.43396675E+03</totfact>
</mgrwt>
</event>
<event>
 6    1  0.9598567E-004  0.4461477E+03  0.7818608E-02  0.1028981E+00
         21   -1    0    0  503  502  0.00000000000E+00  0.00000000000E+00  0.93003658127E+03  0.93003658127E+03  0.00000000000E+00 0. -1.
         21   -1    0    0  501  503 -0.00000000000E+00 -0.00000000000E+00 -0.29253281791E+03  0.29253281791E+03  0.00000000000E+00 0. -1.
    9000007    2    1    2  501    0  0.18899488179E+03  0.57694961490E+02  0.38057306772E+00  0.44476882478E+03  0.39846127634E+03 0.  0.
    9000005    1    3    3    0    0  0.26493963201E+03 -0.88086603878E+02  0.15947201967E+02  0.27965616681E+03  0.99999687468E+00 0.  0.
          4    1    3    3  501    0 -0.75944750218E+02  0.14578156537E+03 -0.15566628899E+02  0.16511265797E+03  0.00000000000E+00 0.  1.
   -9000007    1    1    2    0  502 -0.18899488179E+03 -0.57694961490E+02  0.63712319029E+03  0.77780057439E+03  0.40000000000E+03 0. -1.
<mgrwt>
<rscale>  2 0.44580254E+03</rscale>
<asrwt>0</asrwt>
<pdfrwt beam="1">  1       21 0.14308255E+00 0.44614770E+03</pdfrwt>
<pdfrwt beam="2">  1       21 0.45005049E-01 0.44614770E+03</pdfrwt>
<totfact> 0.13655683E+03</totfact>
</mgrwt>
</event>
<event>
 6    1  0.9598567E-004  0.5154083E+03  0.7818608E-02  0.1009851E+00
         21   -1    0    0  503  502  0.00000000000E+00  0.00000000000E+00  0.31373809634E+03  0.31373809634E+03  0.00000000000E+00 0. -1.
         21   -1    0    0  501  503 -0.00000000000E+00 -0.00000000000E+00 -0.12732045046E+04  0.12732045046E+04  0.00000000000E+00 0.  1.
    9000007    2    1    2  501    0  0.22545449437E+03 -0.23412804658E+03 -0.20168925727E+02  0.51552978043E+03  0.39964796725E+03 0.  0.
    9000005    1    3    3    0    0  0.11731465479E+03  0.39594063240E+02  0.13469771392E+03  0.18296145004E+03  0.99999687468E+00 0.  0.
          4    1    3    3  501    0  0.10813983958E+03 -0.27372210982E+03 -0.15486663965E+03  0.33256833039E+03  0.00000000000E+00 0.  1.
   -9000007    1    1    2    0  502 -0.22545449437E+03  0.23412804658E+03 -0.93929748250E+03  0.10714128205E+04  0.40000000000E+03 0.  1.
<mgrwt>
<rscale>  2 0.51533995E+03</rscale>
<asrwt>0</asrwt>
<pdfrwt beam="1">  1       21 0.48267399E-01 0.51540826E+03</pdfrwt>
<pdfrwt beam="2">  1       21 0.19587762E+00 0.51540826E+03</pdfrwt>
<totfact> 0.46792766E+02</totfact>
</mgrwt>
</event>
<event>
 6    1  0.9598567E-004  0.8121287E+03  0.7818608E-02  0.9542671E-01
         21   -1    0    0  503  502  0.00000000000E+00  0.00000000000E+00  0.22166183349E+03  0.22166183349E+03  0.00000000000E+00 0.  1.
         21   -1    0    0  501  503 -0.00000000000E+00 -0.00000000000E+00 -0.29808194038E+04  0.29808194038E+04  0.00000000000E+00 0.  1.
    9000007    2    1    2  501    0  0.57162665689E+03 -0.41568743054E+03 -0.14500879045E+04  0.16619565005E+04  0.39973916986E+03 0.  0.
    9000005    1    3    3    0    0  0.16658378992E+03 -0.76508127523E+02 -0.92778363131E+02  0.20545675287E+03  0.99999687468E+00 0.  0.
          4    1    3    3  501    0  0.40504286697E+03 -0.33917930302E+03 -0.13573095414E+04  0.14564997476E+04  0.00000000000E+00 0.  1.
   -9000007    1    1    2    0  502 -0.57162665689E+03  0.41568743054E+03 -0.13090696658E+04  0.15405247368E+04  0.40000000000E+03 0.  1.
<mgrwt>
<rscale>  2 0.81209662E+03</rscale>
<asrwt>0</asrwt>
<pdfrwt beam="1">  1       21 0.34101820E-01 0.81212873E+03</pdfrwt>
<pdfrwt beam="2">  1       21 0.45858761E+00 0.81212873E+03</pdfrwt>
<totfact> 0.18006422E+01</totfact>
</mgrwt>
</event>
<event>
 6    1  0.9598567E-004  0.4136597E+03  0.7818608E-02  0.1039242E+00
         21   -1    0    0  503  502  0.00000000000E+00  0.00000000000E+00  0.43662218247E+03  0.43662218247E+03  0.00000000000E+00 0. -1.
         21   -1    0    0  501  503 -0.00000000000E+00 -0.00000000000E+00 -0.40573950699E+03  0.40573950699E+03  0.00000000000E+00 0. -1.
    9000007    2    1    2  501    0  0.45498721117E+02 -0.95100896041E+02  0.96079782195E+02  0.42359567272E+03  0.39885793881E+03 0.  0.
    9000005    1    3    3    0    0 -0.86524372521E+02 -0.11335999954E+03  0.20619779229E+03  0.25070996405E+03  0.99999687468E+00 0.  0.
          4    1    3    3  501    0  0.13202309364E+03  0.18259103500E+02 -0.11011801010E+03  0.17288570867E+03  0.00000000000E+00 0.  1.
   -9000007    1    1    2    0  502 -0.45498721117E+02  0.95100896041E+02 -0.65197106717E+02  0.41876601674E+03  0.40000000000E+03 0. -1.
<mgrwt>
<rscale>  2 0.41338332E+03</rscale>
<asrwt>0</asrwt>
<pdfrwt beam="1">  1       21 0.67172644E-01 0.41365966E+03</pdfrwt>
<pdfrwt beam="2">  1       21 0.62421463E-01 0.41365966E+03</pdfrwt>
<totfact> 0.42880282E+03</totfact>
</mgrwt>
</event>
<event>
 6    1  0.9598567E-004  0.4412408E+03  0.7818608E-02  0.1030386E+00
         21   -1    0    0  503  502  0.00000000000E+00  0.00000000000E+00  0.43319767743E+03  0.43319767743E+03  0.00000000000E+00 0.  1.
         21   -1    0    0  501  503 -0.00000000000E+00 -0.00000000000E+00 -0.60902442035E+03  0.60902442035E+03  0.00000000000E+00 0. -1.
    9000007    2    1    2  501    0 -0.15229552304E+03 -0.10619435727E+03 -0.35490419289E+03  0.56626001846E+03  0.40027772175E+03 0.  0.
    9000005    1    3    3    0    0  0.10604902199E+03 -0.13219756205E+03 -0.20667254792E+03  0.26727725780E+03  0.99999687468E+00 0.  0.
          4    1    3    3  501    0 -0.25834454503E+03  0.26003204783E+02 -0.14823164496E+03  0.29898276067E+03  0.00000000000E+00 0.  1.
   -9000007    1    1    2    0  502  0.15229552304E+03  0.10619435727E+03  0.17907744996E+03  0.47596207931E+03  0.40000000000E+03 0.  1.
<mgrwt>
<rscale>  2 0.44117778E+03</rscale>
<asrwt>0</asrwt>
<pdfrwt beam="1">  1       21 0.66645797E-01 0.44124078E+03</pdfrwt>
<pdfrwt beam="2">  1       21 0.93696064E-01 0.44124078E+03</pdfrwt>
<totfact> 0.17039536E+03</totfact>
</mgrwt>
</event>
<event>
 6    1  0.9598567E-004  0.4421162E+03  0.7818608E-02  0.1030100E+00
         21   -1    0    0  503  502  0.00000000000E+00  0.00000000000E+00  0.49395038371E+03  0.49395038371E+03  0.00000000000E+00 0.  1.
         21   -1    0    0  501  503 -0.00000000000E+00 -0.00000000000E+00 -0.47539212599E+03  0.47539212599E+03  0.00000000000E+00 0.  1.
    9000007    2    1    2  501    0  0.16409769324E+03  0.92405002620E+02  0.20769608200E+03  0.48846845758E+03  0.39999629265E+03 0.  0.
    9000005    1    3    3    0    0  0.16594350482E+03  0.17861796525E+03 -0.20356501777E+02  0.24465692604E+03  0.99999687468E+00 0.  0.
          4    1    3    3  501    0 -0.18458115810E+01 -0.86212962629E+02  0.22805258377E+03  0.24381153154E+03  0.00000000000E+00 0.  1.
   -9000007    1    1    2    0  502 -0.16409769324E+03 -0.92405002620E+02 -0.18913782427E+03  0.48087405212E+03  0.40000000000E+03 0.  1.
<mgrwt>
<rscale>  2 0.44211536E+03</rscale>
<asrwt>0</asrwt>
<pdfrwt beam="1">  1       21 0.75992366E-01 0.44211620E+03</pdfrwt>
<pdfrwt beam="2">  1       21 0.73137250E-01 0.44211620E+03</pdfrwt>
<totfact> 0.22538328E+03</totfact>
</mgrwt>
</event>
<event>
 6    1  0.9598567E-004  0.5377391E+03  0.7818608E-02  0.1004382E+00
         21   -1    0    0  503  502  0.00000000000E+00  0.00000000000E+00  0.20181376713E+04  0.20181376713E+04  0.00000000000E+00 0. -1.
         21   -1    0    0  501  503 -0.00000000000E+00 -0.00000000000E+00 -0.24046514390E+03  0.24046514390E+03  0.00000000000E+00 0. -1.
    9000007    2    1    2  501    0 -0.20507473595E+03 -0.29514011623E+03  0.17067870183E+03  0.56402543692E+03  0.39978761700E+03 0.  0.
    9000005    1    3    3    0    0 -0.63382587510E+02 -0.36275686407E+03  0.62887913491E+02  0.37358504318E+03  0.99999687468E+00 0.  0.
          4    1    3    3  501    0 -0.14169214844E+03  0.67616747844E+02  0.10779078834E+03  0.19044039374E+03  0.00000000000E+00 0.  1.
   -9000007    1    1    2    0  502  0.20507473595E+03  0.29514011623E+03  0.16069938256E+04  0.16945773783E+04  0.40000000000E+03 0. -1.
<mgrwt>
<rscale>  2 0.53769960E+03</rscale>
<asrwt>0</asrwt>
<pdfrwt beam="1">  1       21 0.31048271E+00 0.53773910E+03</pdfrwt>
<pdfrwt beam="2">  1       21 0.36994639E-01 0.53773910E+03</pdfrwt>
<totfact> 0.15483770E+02</totfact>
</mgrwt>
</event>
<event>
 6    1  0.9598567E-004  0.4142842E+03  0.7818608E-02  0.1038969E+00
         21   -1    0    0  503  502  0.00000000000E+00  0.00000000000E+00  0.79046739875E+03  0.79046739875E+03  0.00000000000E+00 0.  1.
         21   -1    0    0  501  503 -0.00000000000E+00 -0.00000000000E+00 -0.21695843963E+03  0.21695843963E+03  0.00000000000E+00 0.  1.
    9000007    2    1    2  501    0  0.59388854493E+02 -0.90024111709E+02  0.28657740514E+03  0.50348031216E+03  0.39966791074E+03 0.  0.
    9000005    1    3    3    0    0  0.20094855916E+03  0.57623178714E+02  0.13422922341E+03  0.24843356972E+03  0.99999687468E+00 0.  0.
          4    1    3    3  501    0 -0.14155970467E+03 -0.14764729042E+03  0.15234818173E+03  0.25504674244E+03  0.00000000000E+00 0.  1.
   -9000007    1    1    2    0  502 -0.59388854493E+02  0.90024111709E+02  0.28693155399E+03  0.50394552622E+03  0.40000000000E+03 0. -1.
<mgrwt>
<rscale>  2 0.41420399E+03</rscale>
<asrwt>0</asrwt>
<pdfrwt beam="1">  1       21 0.12161037E+00 0.41428417E+03</pdfrwt>
<pdfrwt beam="2">  1       21 0.33378222E-01 0.41428417E+03</pdfrwt>
<totfact> 0.38989094E+03</totfact>
</mgrwt>
</event>
<event>
 6    1  0.9598567E-004  0.6021346E+03  0.7818608E-02  0.9901059E-01
         21   -1    0    0  503  502  0.00000000000E+00  0.00000000000E+00  0.82731849843E+03  0.82731849843E+03  0.00000000000E+00 0. -1.
         21   -1    0    0  501  503 -0.00000000000E+00 -0.00000000000E+00 -0.45727758372E+03  0.45727758372E+03  0.00000000000E+00 0. -1.
    9000007    2    1    2  501    0  0.35792138485E+03 -0.27256261536E+03  0.53645719793E+02  0.60451960381E+03  0.40020993380E+03 0.  0.
    9000005    1    3    3    0    0  0.14495151677E+03 -0.33125231646E+03  0.10734542347E+03  0.37717778210E+03  0.99999687468E+00 0.  0.
          4    1    3    3  501    0  0.21296986808E+03  0.58689701098E+02 -0.53699703680E+02  0.22734182171E+03  0.00000000000E+00 0.  1.
   -9000007    1    1    2    0  502 -0.35792138485E+03  0.27256261536E+03  0.31639519491E+03  0.68007647834E+03  0.40000000000E+03 0. -1.
<mgrwt>
<rscale>  2 0.60209973E+03</rscale>
<asrwt>0</asrwt>
<pdfrwt beam="1">  1       21 0.12727977E+00 0.60213461E+03</pdfrwt>
<pdfrwt beam="2">  1       21 0.70350397E-01 0.60213461E+03</pdfrwt>
<totfact> 0.66435892E+02</totfact>
</mgrwt>
</event>
<event>
 6    1  0.9598567E-004  0.4739677E+03  0.7818608E-02  0.1020807E+00
         21   -1    0    0  503  502  0.00000000000E+00  0.00000000000E+00  0.15859122677E+04  0.15859122677E+04  0.00000000000E+00 0.  1.
         21   -1    0    0  501  503 -0.00000000000E+00 -0.00000000000E+00 -0.14616475536E+03  0.14616475536E+03  0.00000000000E+00 0.  1.
    9000007    2    1    2  501    0  0.23492838841E+03  0.97231699913E+02  0.56765343894E+03  0.73950792018E+03  0.39999523262E+03 0.  0.
    9000005    1    3    3    0    0 -0.64544606782E+02 -0.54252564971E+02  0.29587777103E+03  0.30765890603E+03  0.99999687468E+00 0.  0.
          4    1    3    3  501    0  0.29947299519E+03  0.15148426488E+03  0.27177566790E+03  0.43184901415E+03  0.00000000000E+00 0.  1.
   -9000007    1    1    2    0  502 -0.23492838841E+03 -0.97231699913E+02  0.87209407341E+03  0.99256910290E+03  0.40000000000E+03 0.  1.
<mgrwt>
<rscale>  2 0.47396666E+03</rscale>
<asrwt>0</asrwt>
<pdfrwt beam="1">  1       21 0.24398649E+00 0.47396767E+03</pdfrwt>
<pdfrwt beam="2">  1       21 0.22486887E-01 0.47396767E+03</pdfrwt>
<totfact> 0.10893619E+03</totfact>
</mgrwt>
</event>
<event>
 6    1  0.9598567E-004  0.8236772E+03  0.7818608E-02  0.9526369E-01
         21   -1    0    0  503  502  0.00000000000E+00  0.00000000000E+00  0.61443755354E+03  0.61443755354E+03  0.00000000000E+00 0.  1.
         21   -1    0    0  501  503 -0.00000000000E+00 -0.00000000000E+00 -0.18194592995E+04  0.18194592995E+04  0.00000000000E+00 0.  1.
    9000007    2    1    2  501    0  0.10498661356E+03  0.71233559450E+03 -0.13655481248E+04  0.15947229101E+04  0.39996911211E+03 0.  0.
    9000005    1    3    3    0    0  0.23539005087E+03  0.25676765094E+03 -0.53199530463E+03  0.63589158413E+03  0.99999687468E+00 0.  0.
          4    1    3    3  501    0 -0.13040343731E+03  0.45556794355E+03 -0.83355282020E+03  0.95883132600E+03  0.00000000000E+00 0.  1.
   -9000007    1    1    2    0  502 -0.10498661356E+03 -0.71233559450E+03  0.16052637883E+03  0.83917394294E+03  0.40000000000E+03 0.  1.
<mgrwt>
<rscale>  2 0.82367349E+03</rscale>
<asrwt>0</asrwt>
<pdfrwt beam="1">  1       21 0.94528857E-01 0.82367724E+03</pdfrwt>
<pdfrwt beam="2">  1       21 0.27991681E+00 0.82367724E+03</pdfrwt>
<totfact> 0.26401983E+01</totfact>
</mgrwt>
</event>
<event>
 6    1  0.9598567E-004  0.4113173E+03  0.7818608E-02  0.1039980E+00
         21   -1    0    0  503  502  0.00000000000E+00  0.00000000000E+00  0.39127171849E+03  0.39127171849E+03  0.00000000000E+00 0.  1.
         21   -1    0    0  501  503 -0.00000000000E+00 -0.00000000000E+00 -0.66495426294E+03  0.66495426294E+03  0.00000000000E+00 0.  1.
    9000007    2    1    2  501    0 -0.43004448871E+01 -0.95725770436E+02 -0.44952408698E+03  0.60889817653E+03  0.39937847671E+03 0.  0.
    9000005    1    3    3    0    0  0.10030783187E+03 -0.68198135394E+02 -0.48114641478E+03  0.49620108752E+03  0.99999687468E+00 0.  0.
          4    1    3    3  501    0 -0.10460827675E+03 -0.27527635041E+02  0.31622327805E+02  0.11269708901E+03  0.00000000000E+00 0.  1.
   -9000007    1    1    2    0  502  0.43004448871E+01  0.95725770436E+02  0.17584154253E+03  0.44732780489E+03  0.40000000000E+03 0.  1.
<mgrwt>
<rscale>  2 0.41116611E+03</rscale>
<asrwt>0</asrwt>
<pdfrwt beam="1">  1       21 0.60195649E-01 0.41131729E+03</pdfrwt>
<pdfrwt beam="2">  1       21 0.10230066E+00 0.41131729E+03</pdfrwt>
<totfact> 0.17471593E+03</totfact>
</mgrwt>
</event>
<event>
 6    1  0.9598567E-004  0.4689274E+03  0.7818608E-02  0.1022234E+00
         21   -1    0    0  503  502  0.00000000000E+00  0.00000000000E+00  0.13813727563E+03  0.13813727563E+03  0.00000000000E+00 0. -1.
         21   -1    0    0  501  503 -0.00000000000E+00 -0.00000000000E+00 -0.26682593723E+04  0.26682593723E+04  0.00000000000E+00 0.  1.
    9000007    2    1    2  501    0  0.24195107860E+03 -0.36777819905E+02 -0.21563880359E+04  0.22067550211E+04  0.39983175100E+03 0.  0.
    9000005    1    3    3    0    0 -0.78415813644E+02 -0.66573864856E+01 -0.10909637211E+04  0.10937989767E+04  0.99999687468E+00 0.  0.
          4    1    3    3  501    0  0.32036689225E+03 -0.30120433419E+02 -0.10654243148E+04  0.11129560444E+04  0.00000000000E+00 0.  1.
   -9000007    1    1    2    0  502 -0.24195107860E+03  0.36777819905E+02 -0.37373406069E+03  0.59964162680E+03  0.40000000000E+03 0. -1.
<mgrwt>
<rscale>  2 0.46889155E+03</rscale>
<asrwt>0</asrwt>
<pdfrwt beam="1">  1       21 0.21251888E-01 0.46892743E+03</pdfrwt>
<pdfrwt beam="2">  1       21 0.41050145E+00 0.46892743E+03</pdfrwt>
<totfact> 0.11482013E+02</totfact>
</mgrwt>
</event>
<event>
 6    1  0.9598567E-004  0.4686807E+03  0.7818608E-02  0.1022953E+00
         21   -1    0    0  503  502  0.00000000000E+00  0.00000000000E+00  0.13545881979E+04  0.13545881979E+04  0.00000000000E+00 0.  1.
         21   -1    0    0  501  503 -0.00000000000E+00 -0.00000000000E+00 -0.17452263686E+03  0.17452263686E+03  0.00000000000E+00 0.  1.
    9000007    2    1    2  501    0 -0.62339258986E+02  0.21728822510E+03  0.36726121606E+03  0.59543462793E+03  0.41056210168E+03 0.  0.
    9000005    1    3    3    0    0 -0.70619606611E+01  0.29509519011E+03  0.39768162845E+03  0.49526025493E+03  0.99999687468E+00 0.  0.
          4    1    3    3  501    0 -0.55277298325E+02 -0.77806965009E+02 -0.30420412394E+02  0.10017437299E+03  0.00000000000E+00 0.  1.
   -9000007    1    1    2    0  502  0.62339258986E+02 -0.21728822510E+03  0.81280434502E+03  0.93367620686E+03  0.40000000000E+03 0. -1.
<mgrwt>
<rscale>  2 0.46635745E+03</rscale>
<asrwt>0</asrwt>
<pdfrwt beam="1">  1       21 0.20839818E+00 0.46868070E+03</pdfrwt>
<pdfrwt beam="2">  1       21 0.26849637E-01 0.46868070E+03</pdfrwt>
<totfact> 0.13018949E+03</totfact>
</mgrwt>
</event>
<event>
 6    1  0.9598567E-004  0.1024492E+04  0.7818608E-02  0.9282145E-01
         21   -1    0    0  503  502  0.00000000000E+00  0.00000000000E+00  0.14140572121E+04  0.14140572121E+04  0.00000000000E+00 0.  1.
         21   -1    0    0  501  503 -0.00000000000E+00 -0.00000000000E+00 -0.78944665223E+03  0.78944665223E+03  0.00000000000E+00 0. -1.
    9000007    2    1    2  501    0 -0.60082977148E+03  0.72703995940E+03  0.58214055492E+03  0.11781321180E+04  0.39940473825E+03 0.  0.
    9000005    1    3    3    0    0 -0.63838450135E+03  0.58894062007E+03  0.42968594844E+03  0.96902881268E+03  0.99999687468E+00 0.  0.
          4    1    3    3  501    0  0.37554729869E+02  0.13809933934E+03  0.15245460648E+03  0.20910330533E+03  0.00000000000E+00 0.  1.
   -9000007    1    1    2    0  502  0.60082977148E+03 -0.72703995940E+03  0.42470004968E+02  0.10253717463E+04  0.40000000000E+03 0. -1.
<mgrwt>
<rscale>  2 0.10244338E+04</rscale>
<asrwt>0</asrwt>
<pdfrwt beam="1">  1       21 0.21754726E+00 0.10244918E+04</pdfrwt>
<pdfrwt beam="2">  1       21 0.12145333E+00 0.10244918E+04</pdfrwt>
<totfact> 0.32989810E+01</totfact>
</mgrwt>
</event>
<event>
 6    1  0.9598567E-004  0.5013034E+03  0.7818608E-02  0.1013446E+00
         21   -1    0    0  503  502  0.00000000000E+00  0.00000000000E+00  0.52120676621E+03  0.52120676621E+03  0.00000000000E+00 0.  1.
         21   -1    0    0  501  503 -0.00000000000E+00 -0.00000000000E+00 -0.74816527600E+03  0.74816527600E+03  0.00000000000E+00 0.  1.
    9000007    2    1    2  501    0  0.27812108823E+03  0.11812624191E+03 -0.49199380264E+03  0.70231926229E+03  0.39986159557E+03 0.  0.
    9000005    1    3    3    0    0 -0.27507861425E+02  0.10608179751E+03  0.14586316572E+02  0.11056125374E+03  0.99999687468E+00 0.  0.
          4    1    3    3  501    0  0.30562894966E+03  0.12044444397E+02 -0.50658011921E+03  0.59175800855E+03  0.00000000000E+00 0.  1.
   -9000007    1    1    2    0  502 -0.27812108823E+03 -0.11812624191E+03  0.26503529285E+03  0.56705277991E+03  0.40000000000E+03 0.  1.
<mgrwt>
<rscale>  2 0.50127584E+03</rscale>
<asrwt>0</asrwt>
<pdfrwt beam="1">  1       21 0.80185657E-01 0.50130345E+03</pdfrwt>
<pdfrwt beam="2">  1       21 0.11510235E+00 0.50130345E+03</pdfrwt>
<totfact> 0.65979246E+02</totfact>
</mgrwt>
</event>
<event>
 6    1  0.9598567E-004  0.4216560E+03  0.7818608E-02  0.1036539E+00
         21   -1    0    0  503  502  0.00000000000E+00  0.00000000000E+00  0.57265790610E+03  0.57265790610E+03  0.00000000000E+00 0.  1.
         21   -1    0    0  501  503 -0.00000000000E+00 -0.00000000000E+00 -0.90238040575E+03  0.90238040575E+03  0.00000000000E+00 0.  1.
    9000007    2    1    2  501    0 -0.13264303739E+03 -0.97253628139E+01 -0.76223448378E+03  0.87108850064E+03  0.40013124052E+03 0.  0.
    9000005    1    3    3    0    0 -0.12222660932E+03  0.17383024559E+03 -0.25719786800E+03  0.33362859830E+03  0.99999687468E+00 0.  0.
          4    1    3    3  501    0 -0.10416428071E+02 -0.18355560840E+03 -0.50503661578E+03  0.53745990234E+03  0.00000000000E+00 0.  1.
   -9000007    1    1    2    0  502  0.13264303739E+03  0.97253628139E+01  0.43251198413E+03  0.60394981121E+03  0.40000000000E+03 0.  1.
<mgrwt>
<rscale>  2 0.42162484E+03</rscale>
<asrwt>0</asrwt>
<pdfrwt beam="1">  1       21 0.88101217E-01 0.42165598E+03</pdfrwt>
<pdfrwt beam="2">  1       21 0.13882775E+00 0.42165598E+03</pdfrwt>
<totfact> 0.33852459E+02</totfact>
</mgrwt>
</event>
<event>
 6    1  0.9598567E-004  0.4057439E+03  0.7818608E-02  0.1041847E+00
         21   -1    0    0  503  502  0.00000000000E+00  0.00000000000E+00  0.19181993483E+03  0.19181993483E+03  0.00000000000E+00 0.  1.
         21   -1    0    0  501  503 -0.00000000000E+00 -0.00000000000E+00 -0.92219830672E+03  0.92219830672E+03  0.00000000000E+00 0.  1.
    9000007    2    1    2  501    0  0.65325963716E+02  0.51687912938E+00 -0.21761558773E+03  0.46041788849E+03  0.40045017083E+03 0.  0.
    9000005    1    3    3    0    0 -0.11664599976E+02  0.18220215308E+03 -0.18589409097E+03  0.26055959113E+03  0.99999687468E+00 0.  0.
          4    1    3    3  501    0  0.76990563692E+02 -0.18168527395E+03 -0.31721496762E+02  0.19985829736E+03  0.00000000000E+00 0.  1.
   -9000007    1    1    2    0  502 -0.65325963716E+02 -0.51687912938E+00 -0.51276278416E+03  0.65360035306E+03  0.40000000000E+03 0.  1.
<mgrwt>
<rscale>  2 0.40563275E+03</rscale>
<asrwt>0</asrwt>
<pdfrwt beam="1">  1       21 0.29510759E-01 0.40574387E+03</pdfrwt>
<pdfrwt beam="2">  1       21 0.14187666E+00 0.40574387E+03</pdfrwt>
<totfact> 0.33501467E+03</totfact>
</mgrwt>
</event>
<event>
 6    1  0.9598567E-004  0.6703438E+03  0.7818608E-02  0.9770567E-01
         21   -1    0    0  503  502  0.00000000000E+00  0.00000000000E+00  0.30963414000E+03  0.30963414000E+03  0.00000000000E+00 0.  1.
         21   -1    0    0  501  503 -0.00000000000E+00 -0.00000000000E+00 -0.15231140997E+04  0.15231140997E+04  0.00000000000E+00 0. -1.
    9000007    2    1    2  501    0  0.48161654279E+03 -0.23187886979E+03 -0.81492683922E+03  0.10552092411E+04  0.40452253912E+03 0.  0.
    9000005    1    3    3    0    0  0.15307428054E+03 -0.13365576909E+03 -0.63752002657E+03  0.66912508864E+03  0.99999687468E+00 0.  0.
          4    1    3    3  501    0  0.32854226226E+03 -0.98223100698E+02 -0.17740681265E+03  0.38608415245E+03  0.00000000000E+00 0.  1.
   -9000007    1    1    2    0  502 -0.48161654279E+03  0.23187886979E+03 -0.39855312051E+03  0.77753899865E+03  0.40000000000E+03 0.  1.
<mgrwt>
<rscale>  2 0.66966290E+03</rscale>
<asrwt>0</asrwt>
<pdfrwt beam="1">  1       21 0.47636022E-01 0.67034378E+03</pdfrwt>
<pdfrwt beam="2">  1       21 0.23432524E+00 0.67034378E+03</pdfrwt>
<totfact> 0.25398957E+02</totfact>
</mgrwt>
</event>
<event>
 6    1  0.9598567E-004  0.4616713E+03  0.7818608E-02  0.1024427E+00
         21   -1    0    0  503  502  0.00000000000E+00  0.00000000000E+00  0.55304751390E+03  0.55304751390E+03  0.00000000000E+00 0.  1.
         21   -1    0    0  501  503 -0.00000000000E+00 -0.00000000000E+00 -0.42026066873E+03  0.42026066873E+03  0.00000000000E+00 0.  1.
    9000007    2    1    2  501    0  0.19203120421E+03  0.12088999866E+03 -0.76635030540E+02  0.46798858356E+03  0.40205722388E+03 0.  0.
    9000005    1    3    3    0    0  0.83587471073E+02  0.19816098066E+03 -0.19463820176E+03  0.29006838703E+03  0.99999687468E+00 0.  0.
          4    1    3    3  501    0  0.10844373314E+03 -0.77270981999E+02  0.11800317122E+03  0.17792019653E+03  0.00000000000E+00 0.  1.
   -9000007    1    1    2    0  502 -0.19203120421E+03 -0.12088999866E+03  0.20942187571E+03  0.50531959906E+03  0.40000000000E+03 0.  1.
<mgrwt>
<rscale>  2 0.46122303E+03</rscale>
<asrwt>0</asrwt>
<pdfrwt beam="1">  1       21 0.85084233E-01 0.46167130E+03</pdfrwt>
<pdfrwt beam="2">  1       21 0.64655487E-01 0.46167130E+03</pdfrwt>
<totfact> 0.22722578E+03</totfact>
</mgrwt>
</event>
<event>
 6    1  0.9598567E-004  0.4718878E+03  0.7818608E-02  0.1021754E+00
         21   -1    0    0  503  502  0.00000000000E+00  0.00000000000E+00  0.85146539325E+03  0.85146539325E+03  0.00000000000E+00 0. -1.
         21   -1    0    0  501  503 -0.00000000000E+00 -0.00000000000E+00 -0.42203242315E+03  0.42203242315E+03  0.00000000000E+00 0. -1.
    9000007    2    1    2  501    0 -0.10975083112E+02 -0.24021562353E+03 -0.18072140355E+03  0.50531010631E+03  0.40602226491E+03 0.  0.
    9000005    1    3    3    0    0 -0.71491402151E+02 -0.20664766070E+03 -0.29770958673E+03  0.36938634826E+03  0.99999687468E+00 0.  0.
          4    1    3    3  501    0  0.60516319039E+02 -0.33567962833E+02  0.11698818318E+03  0.13592375805E+03  0.00000000000E+00 0.  1.
   -9000007    1    1    2    0  502  0.10975083112E+02  0.24021562353E+03  0.61015437366E+03  0.76818771009E+03  0.40000000000E+03 0. -1.
<mgrwt>
<rscale>  2 0.47058953E+03</rscale>
<asrwt>0</asrwt>
<pdfrwt beam="1">  1       21 0.13099468E+00 0.47188778E+03</pdfrwt>
<pdfrwt beam="2">  1       21 0.64928065E-01 0.47188778E+03</pdfrwt>
<totfact> 0.77387027E+02</totfact>
</mgrwt>
</event>
<event>
 6    1  0.9598567E-004  0.4301216E+03  0.7818608E-02  0.1033839E+00
         21   -1    0    0  503  502  0.00000000000E+00  0.00000000000E+00  0.29086909907E+03  0.29086909907E+03  0.00000000000E+00 0.  1.
         21   -1    0    0  501  503 -0.00000000000E+00 -0.00000000000E+00 -0.90897217742E+03  0.90897217742E+03  0.00000000000E+00 0.  1.
    9000007    2    1    2  501    0 -0.15599318772E+03  0.25897455841E+02 -0.63792786498E+03  0.76926308962E+03  0.39976141298E+03 0.  0.
    9000005    1    3    3    0    0 -0.13292011656E+03 -0.36003078092E+02 -0.10223773994E+02  0.13809237694E+03  0.99999687468E+00 0.  0.
          4    1    3    3  501    0 -0.23073071155E+02  0.61900533933E+02 -0.62770409099E+03  0.63117071269E+03  0.00000000000E+00 0.  1.
   -9000007    1    1    2    0  502  0.15599318772E+03 -0.25897455841E+02  0.19824786630E+02  0.43057818686E+03  0.40000000000E+03 0.  1.
<mgrwt>
<rscale>  2 0.43006608E+03</rscale>
<asrwt>0</asrwt>
<pdfrwt beam="1">  1       21 0.44749092E-01 0.43012156E+03</pdfrwt>
<pdfrwt beam="2">  1       21 0.13984187E+00 0.43012156E+03</pdfrwt>
<totfact> 0.14789559E+03</totfact>
</mgrwt>
</event>
<event>
 6    1  0.9598567E-004  0.4752195E+03  0.7818608E-02  0.1020475E+00
         21   -1    0    0  503  502  0.00000000000E+00  0.00000000000E+00  0.12887144078E+04  0.12887144078E+04  0.00000000000E+00 0. -1.
         21   -1    0    0  501  503 -0.00000000000E+00 -0.00000000000E+00 -0.32792225068E+03  0.32792225068E+03  0.00000000000E+00 0. -1.
    9000007    2    1    2  501    0 -0.24753235356E+03 -0.67537676331E+02 -0.71396072862E+02  0.48030653661E+03  0.39970409818E+03 0.  0.
    9000005    1    3    3    0    0 -0.32412070908E+03 -0.97814562277E+02 -0.14645376307E+03  0.36887887898E+03  0.99999687468E+00 0.  0.
          4    1    3    3  501    0  0.76588355525E+02  0.30276885946E+02  0.75057690206E+02  0.11142765762E+03  0.00000000000E+00 0.  1.
   -9000007    1    1    2    0  502  0.24753235356E+03  0.67537676331E+02  0.10321882300E+04  0.11363301219E+04  0.40000000000E+03 0. -1.
<mgrwt>
<rscale>  2 0.47515726E+03</rscale>
<asrwt>0</asrwt>
<pdfrwt beam="1">  1       21 0.19826375E+00 0.47521953E+03</pdfrwt>
<pdfrwt beam="2">  1       21 0.50449578E-01 0.47521953E+03</pdfrwt>
<totfact> 0.41785247E+02</totfact>
</mgrwt>
</event>
<event>
 6    1  0.9598567E-004  0.5408054E+03  0.7818608E-02  0.1003654E+00
         21   -1    0    0  503  502  0.00000000000E+00  0.00000000000E+00  0.65362854639E+03  0.65362854639E+03  0.00000000000E+00 0. -1.
         21   -1    0    0  501  503 -0.00000000000E+00 -0.00000000000E+00 -0.60797077167E+03  0.60797077167E+03  0.00000000000E+00 0.  1.
    9000007    2    1    2  501    0  0.62005198870E+02 -0.35864438999E+03 -0.30142097467E+03  0.61899983049E+03  0.39979462605E+03 0.  0.
    9000005    1    3    3    0    0 -0.19565128819E+02 -0.15282608942E+03  0.83279086888E+02  0.17514283936E+03  0.99999687468E+00 0.  0.
          4    1    3    3  501    0  0.81570327688E+02 -0.20581830057E+03 -0.38470006156E+03  0.44385699113E+03  0.00000000000E+00 0.  1.
   -9000007    1    1    2    0  502 -0.62005198870E+02  0.35864438999E+03  0.34707874939E+03  0.64259948758E+03  0.40000000000E+03 0. -1.
<mgrwt>
<rscale>  2 0.54076739E+03</rscale>
<asrwt>0</asrwt>
<pdfrwt beam="1">  1       21 0.10055824E+00 0.54080537E+03</pdfrwt>
<pdfrwt beam="2">  1       21 0.93533965E-01 0.54080537E+03</pdfrwt>
<totfact> 0.63231962E+02</totfact>
</mgrwt>
</event>
<event>
 6    1  0.9598567E-004  0.5782747E+03  0.7818608E-02  0.9951903E-01
         21   -1    0    0  503  502  0.00000000000E+00  0.00000000000E+00  0.16919458159E+04  0.16919458159E+04  0.00000000000E+00 0. -1.
         21   -1    0    0  501  503 -0.00000000000E+00 -0.00000000000E+00 -0.20327942979E+03  0.20327942979E+03  0.00000000000E+00 0.  1.
    9000007    2    1    2  501    0 -0.15307670949E+03 -0.38753485523E+03  0.90576668496E+03  0.10746231469E+04  0.40098114316E+03 0.  0.
    9000005    1    3    3    0    0 -0.20810309181E+03 -0.43859584709E+03  0.85748179921E+03  0.98536757094E+03  0.99999687468E+00 0.  0.
          4    1    3    3  501    0  0.55026382315E+02  0.51060991853E+02  0.48284885751E+02  0.89255575913E+02  0.00000000000E+00 0.  1.
   -9000007    1    1    2    0  502  0.15307670949E+03  0.38753485523E+03  0.58289970114E+03  0.82060209883E+03  0.40000000000E+03 0.  1.
<mgrwt>
<rscale>  2 0.57810464E+03</rscale>
<asrwt>0</asrwt>
<pdfrwt beam="1">  1       21 0.26029935E+00 0.57827469E+03</pdfrwt>
<pdfrwt beam="2">  1       21 0.31273760E-01 0.57827469E+03</pdfrwt>
<totfact> 0.43160385E+02</totfact>
</mgrwt>
</event>
<event>
 6    1  0.9598567E-004  0.5494056E+03  0.7818608E-02  0.1001635E+00
         21   -1    0    0  503  502  0.00000000000E+00  0.00000000000E+00  0.12437206049E+04  0.12437206049E+04  0.00000000000E+00 0. -1.
         21   -1    0    0  501  503 -0.00000000000E+00 -0.00000000000E+00 -0.31996139334E+03  0.31996139334E+03  0.00000000000E+00 0.  1.
    9000007    2    1    2  501    0  0.37466032026E+03  0.37612620844E+02  0.77632754717E+02  0.55486335954E+03  0.40007679054E+03 0.  0.
    9000005    1    3    3    0    0  0.52243311753E+00 -0.10391720194E+03 -0.73461661207E+02  0.12726615204E+03  0.99999687468E+00 0.  0.
          4    1    3    3  501    0  0.37413788715E+03  0.14152982278E+03  0.15109441592E+03  0.42759720750E+03  0.00000000000E+00 0.  1.
   -9000007    1    1    2    0  502 -0.37466032026E+03 -0.37612620844E+02  0.84612645682E+03  0.10088186387E+04  0.40000000000E+03 0. -1.
<mgrwt>
<rscale>  2 0.54939161E+03</rscale>
<asrwt>0</asrwt>
<pdfrwt beam="1">  1       21 0.19134163E+00 0.54940559E+03</pdfrwt>
<pdfrwt beam="2">  1       21 0.49224830E-01 0.54940559E+03</pdfrwt>
<totfact> 0.47534338E+02</totfact>
</mgrwt>
</event>
<event>
 6    1  0.9598567E-004  0.6381753E+03  0.7818608E-02  0.9829234E-01
         21   -1    0    0  503  502  0.00000000000E+00  0.00000000000E+00  0.88127762032E+03  0.88127762032E+03  0.00000000000E+00 0. -1.
         21   -1    0    0  501  503 -0.00000000000E+00 -0.00000000000E+00 -0.46716458019E+03  0.46716458019E+03  0.00000000000E+00 0.  1.
    9000007    2    1    2  501    0  0.49577922312E+03 -0.38000760527E+02  0.13698583770E+03  0.65271194948E+03  0.40003334035E+03 0.  0.
    9000005    1    3    3    0    0  0.71806420225E+02  0.15552951806E+03  0.22299463514E+02  0.17275375261E+03  0.99999687468E+00 0.  0.
          4    1    3    3  501    0  0.42397280289E+03 -0.19353027859E+03  0.11468637419E+03  0.47995819687E+03  0.00000000000E+00 0.  1.
   -9000007    1    1    2    0  502 -0.49577922312E+03  0.38000760527E+02  0.27712720242E+03  0.69573025103E+03  0.40000000000E+03 0. -1.
<mgrwt>
<rscale>  2 0.63817012E+03</rscale>
<asrwt>0</asrwt>
<pdfrwt beam="1">  1       21 0.13558117E+00 0.63817534E+03</pdfrwt>
<pdfrwt beam="2">  1       21 0.71871474E-01 0.63817534E+03</pdfrwt>
<totfact> 0.53005615E+02</totfact>
</mgrwt>
</event>
<event>
 6    1  0.9598567E-004  0.4065125E+03  0.7818608E-02  0.1041587E+00
         21   -1    0    0  503  502  0.00000000000E+00  0.00000000000E+00  0.24921592728E+03  0.24921592728E+03  0.00000000000E+00 0. -1.
         21   -1    0    0  501  503 -0.00000000000E+00 -0.00000000000E+00 -0.14788941768E+04  0.14788941768E+04  0.00000000000E+00 0. -1.
    9000007    2    1    2  501    0 -0.56034475855E+02 -0.41710007068E+02 -0.12570389960E+04  0.13211356606E+04  0.40046574012E+03 0.  0.
    9000005    1    3    3    0    0 -0.19126607562E+02 -0.32811416403E+00 -0.12649759315E+04  0.12651209594E+04  0.99999687468E+00 0.  0.
          4    1    3    3  501    0 -0.36907868293E+02 -0.41381892904E+02  0.79369354591E+01  0.56014701166E+02  0.00000000000E+00 0.  1.
   -9000007    1    1    2    0  502  0.56034475855E+02  0.41710007068E+02  0.27360746538E+02  0.40697444345E+03  0.40000000000E+03 0. -1.
<mgrwt>
<rscale>  2 0.40639773E+03</rscale>
<asrwt>0</asrwt>
<pdfrwt beam="1">  1       21 0.38340912E-01 0.40651248E+03</pdfrwt>
<pdfrwt beam="2">  1       21 0.22752218E+00 0.40651248E+03</pdfrwt>
<totfact> 0.49612113E+02</totfact>
</mgrwt>
</event>
<event>
 6    1  0.9598567E-004  0.6062663E+03  0.7818608E-02  0.9892718E-01
         21   -1    0    0  503  502  0.00000000000E+00  0.00000000000E+00  0.37180186346E+03  0.37180186346E+03  0.00000000000E+00 0. -1.
         21   -1    0    0  501  503 -0.00000000000E+00 -0.00000000000E+00 -0.19016735328E+04  0.19016735328E+04  0.00000000000E+00 0.  1.
    9000007    2    1    2  501    0  0.44167652451E+03 -0.10928013534E+03 -0.15530706073E+04  0.16672093730E+04  0.40067253673E+03 0.  0.
    9000005    1    3    3    0    0  0.25798800689E+03 -0.25514384258E+03 -0.79965838252E+03  0.87812910260E+03  0.99999687468E+00 0.  0.
          4    1    3    3  501    0  0.18368851762E+03  0.14586370724E+03 -0.75341222482E+03  0.78908027038E+03  0.00000000000E+00 0.  1.
   -9000007    1    1    2    0  502 -0.44167652451E+03  0.10928013534E+03  0.23198937984E+02  0.60626602330E+03  0.40000000000E+03 0. -1.
<mgrwt>
<rscale>  2 0.60615517E+03</rscale>
<asrwt>0</asrwt>
<pdfrwt beam="1">  1       21 0.57200286E-01 0.60626626E+03</pdfrwt>
<pdfrwt beam="2">  1       21 0.29256516E+00 0.60626626E+03</pdfrwt>
<totfact> 0.76574715E+01</totfact>
</mgrwt>
</event>
<event>
 6    1  0.9598567E-004  0.5477617E+03  0.7818608E-02  0.1002017E+00
         21   -1    0    0  503  502  0.00000000000E+00  0.00000000000E+00  0.21046108112E+03  0.21046108112E+03  0.00000000000E+00 0. -1.
         21   -1    0    0  501  503 -0.00000000000E+00 -0.00000000000E+00 -0.20963528143E+04  0.20963528143E+04  0.00000000000E+00 0. -1.
    9000007    2    1    2  501    0  0.27356233148E+03 -0.25535576517E+03 -0.15953967747E+04  0.16867895113E+04  0.39990632739E+03 0.  0.
    9000005    1    3    3    0    0  0.64131463166E+02 -0.76706720621E+01 -0.10517558504E+04  0.10537376583E+04  0.99999687468E+00 0.  0.
          4    1    3    3  501    0  0.20943086832E+03 -0.24768509311E+03 -0.54364092432E+03  0.63305185297E+03  0.00000000000E+00 0.  1.
   -9000007    1    1    2    0  502 -0.27356233148E+03  0.25535576517E+03 -0.29049495850E+03  0.62002438414E+03  0.40000000000E+03 0. -1.
<mgrwt>
<rscale>  2 0.54774463E+03</rscale>
<asrwt>0</asrwt>
<pdfrwt beam="1">  1       21 0.32378627E-01 0.54776173E+03</pdfrwt>
<pdfrwt beam="2">  1       21 0.32251583E+00 0.54776173E+03</pdfrwt>
<totfact> 0.17058025E+02</totfact>
</mgrwt>
</event>
<event>
 6    1  0.9598567E-004  0.4840463E+03  0.7818608E-02  0.1018503E+00
         21   -1    0    0  503  502  0.00000000000E+00  0.00000000000E+00  0.66818103237E+03  0.66818103237E+03  0.00000000000E+00 0.  1.
         21   -1    0    0  501  503 -0.00000000000E+00 -0.00000000000E+00 -0.94959502729E+03  0.94959502729E+03  0.00000000000E+00 0.  1.
    9000007    2    1    2  501    0 -0.53690790539E+02 -0.25449189960E+03 -0.78615126757E+03  0.92321969596E+03  0.40823028253E+03 0.  0.
    9000005    1    3    3    0    0 -0.12953542075E+03 -0.26360384616E+03 -0.26217529466E+03  0.39370458222E+03  0.99999687468E+00 0.  0.
          4    1    3    3  501    0  0.75844630207E+02  0.91119465576E+01 -0.52397597291E+03  0.52951511374E+03  0.00000000000E+00 0.  1.
   -9000007    1    1    2    0  502  0.53690790539E+02  0.25449189960E+03  0.50473727265E+03  0.69455636370E+03  0.40000000000E+03 0.  1.
<mgrwt>
<rscale>  2 0.48230675E+03</rscale>
<asrwt>0</asrwt>
<pdfrwt beam="1">  1       21 0.10279708E+00 0.48404627E+03</pdfrwt>
<pdfrwt beam="2">  1       21 0.14609154E+00 0.48404627E+03</pdfrwt>
<totfact> 0.19773418E+02</totfact>
</mgrwt>
</event>
<event>
 6    1  0.9598567E-004  0.4989117E+03  0.7818608E-02  0.1014071E+00
         21   -1    0    0  503  502  0.00000000000E+00  0.00000000000E+00  0.76436101784E+03  0.76436101784E+03  0.00000000000E+00 0. -1.
         21   -1    0    0  501  503 -0.00000000000E+00 -0.00000000000E+00 -0.37423567568E+03  0.37423567568E+03  0.00000000000E+00 0. -1.
    9000007    2    1    2  501    0  0.36073665846E+02 -0.29580779693E+03 -0.10199483732E+02  0.49901594935E+03  0.40013663434E+03 0.  0.
    9000005    1    3    3    0    0  0.90408609621E+02 -0.37703407524E+03  0.38865060300E+02  0.38966640026E+03  0.99999687468E+00 0.  0.
          4    1    3    3  501    0 -0.54334943774E+02  0.81226278311E+02 -0.49064544033E+02  0.10934954908E+03  0.00000000000E+00 0.  1.
   -9000007    1    1    2    0  502 -0.36073665846E+02  0.29580779693E+03  0.40032482589E+03  0.63958074418E+03  0.40000000000E+03 0. -1.
<mgrwt>
<rscale>  2 0.49888431E+03</rscale>
<asrwt>0</asrwt>
<pdfrwt beam="1">  1       21 0.11759400E+00 0.49891170E+03</pdfrwt>
<pdfrwt beam="2">  1       21 0.57574719E-01 0.49891170E+03</pdfrwt>
<totfact> 0.13171285E+03</totfact>
</mgrwt>
</event>
<event>
 6    1  0.9598567E-004  0.4521262E+03  0.7818608E-02  0.1027170E+00
         21   -1    0    0  503  502  0.00000000000E+00  0.00000000000E+00  0.24371293218E+03  0.24371293218E+03  0.00000000000E+00 0.  1.
         21   -1    0    0  501  503 -0.00000000000E+00 -0.00000000000E+00 -0.15844397363E+04  0.15844397363E+04  0.00000000000E+00 0.  1.
    9000007    2    1    2  501    0 -0.15961200788E+03 -0.13763029149E+03 -0.42026479827E+02  0.45300154134E+03  0.39878074333E+03 0.  0.
    9000005    1    3    3    0    0  0.13187074701E+03 -0.83648970802E+01 -0.15330409139E+02  0.13302588792E+03  0.99999687468E+00 0.  0.
          4    1    3    3  501    0 -0.29148275489E+03 -0.12926539441E+03 -0.26696070687E+02  0.31997565341E+03  0.00000000000E+00 0.  1.
   -9000007    1    1    2    0  502  0.15961200788E+03  0.13763029149E+03 -0.12987003243E+04  0.13751511272E+04  0.40000000000E+03 0.  1.
<mgrwt>
<rscale>  2 0.45185636E+03</rscale>
<asrwt>0</asrwt>
<pdfrwt beam="1">  1       21 0.37494298E-01 0.45212619E+03</pdfrwt>
<pdfrwt beam="2">  1       21 0.24375995E+00 0.45212619E+03</pdfrwt>
<totfact> 0.40118086E+02</totfact>
</mgrwt>
</event>
<event>
 6    1  0.9598567E-004  0.4288645E+03  0.7818608E-02  0.1034234E+00
         21   -1    0    0  503  502  0.00000000000E+00  0.00000000000E+00  0.23402505574E+03  0.23402505574E+03  0.00000000000E+00 0.  1.
         21   -1    0    0  501  503 -0.00000000000E+00 -0.00000000000E+00 -0.80169836574E+03  0.80169836574E+03  0.00000000000E+00 0.  1.
    9000007    2    1    2  501    0 -0.96373392191E+02 -0.12098310192E+03 -0.35723266367E+03  0.55801011069E+03  0.39979415450E+03 0.  0.
    9000005    1    3    3    0    0 -0.43601012978E+02  0.13432832982E+03 -0.38794481710E+02  0.14646214640E+03  0.99999687468E+00 0.  0.
          4    1    3    3  501    0 -0.52772379213E+02 -0.25531143173E+03 -0.31843818196E+03  0.41154796429E+03  0.00000000000E+00 0.  1.
   -9000007    1    1    2    0  502  0.96373392191E+02  0.12098310192E+03 -0.21044064634E+03  0.47771331079E+03  0.40000000000E+03 0.  1.
<mgrwt>
<rscale>  2 0.42881648E+03</rscale>
<asrwt>0</asrwt>
<pdfrwt beam="1">  1       21 0.36003855E-01 0.42886448E+03</pdfrwt>
<pdfrwt beam="2">  1       21 0.12333821E+00 0.42886448E+03</pdfrwt>
<totfact> 0.32099786E+03</totfact>
</mgrwt>
</event>
<event>
 6    1  0.9598567E-004  0.4413625E+03  0.7818608E-02  0.1030396E+00
         21   -1    0    0  503  502  0.00000000000E+00  0.00000000000E+00  0.11348034257E+04  0.11348034257E+04  0.00000000000E+00 0.  1.
         21   -1    0    0  501  503 -0.00000000000E+00 -0.00000000000E+00 -0.17979917870E+03  0.17979917870E+03  0.00000000000E+00 0. -1.
    9000007    2    1    2  501    0  0.18318552235E+03 -0.35268674335E+02  0.33431408950E+03  0.55298781556E+03  0.39903483397E+03 0.  0.
    9000005    1    3    3    0    0  0.24006524953E+03 -0.22226839037E+02  0.29795540877E+02  0.24292824178E+03  0.99999687468E+00 0.  0.
          4    1    3    3  501    0 -0.56879727179E+02 -0.13041835298E+02  0.30451854863E+03  0.31005957377E+03  0.00000000000E+00 0.  1.
   -9000007    1    1    2    0  502 -0.18318552235E+03  0.35268674335E+02  0.62069015752E+03  0.76161478887E+03  0.40000000000E+03 0.  1.
<mgrwt>
<rscale>  2 0.44114366E+03</rscale>
<asrwt>0</asrwt>
<pdfrwt beam="1">  1       21 0.17458514E+00 0.44136245E+03</pdfrwt>
<pdfrwt beam="2">  1       21 0.27661413E-01 0.44136245E+03</pdfrwt>
<totfact> 0.21147394E+03</totfact>
</mgrwt>
</event>
<event>
 6    1  0.9598567E-004  0.4623709E+03  0.7818608E-02  0.1024124E+00
         21   -1    0    0  503  502  0.00000000000E+00  0.00000000000E+00  0.40850632782E+03  0.40850632782E+03  0.00000000000E+00 0. -1.
         21   -1    0    0  501  503 -0.00000000000E+00 -0.00000000000E+00 -0.10902656387E+04  0.10902656387E+04  0.00000000000E+00 0. -1.
    9000007    2    1    2  501    0  0.56783115961E+01  0.23107983007E+03 -0.88154093685E+03  0.99544023778E+03  0.40044564247E+03 0.  0.
    9000005    1    3    3    0    0  0.43517840900E+02  0.31398500009E+03 -0.42669371500E+03  0.53155329852E+03  0.99999687468E+00 0.  0.
          4    1    3    3  501    0 -0.37839529304E+02 -0.82905170018E+02 -0.45484722185E+03  0.46388693926E+03  0.00000000000E+00 0.  1.
   -9000007    1    1    2    0  502 -0.56783115961E+01 -0.23107983007E+03  0.19978162597E+03  0.50333172875E+03  0.40000000000E+03 0. -1.
<mgrwt>
<rscale>  2 0.46227439E+03</rscale>
<asrwt>0</asrwt>
<pdfrwt beam="1">  1       21 0.62847128E-01 0.46237089E+03</pdfrwt>
<pdfrwt beam="2">  1       21 0.16773317E+00 0.46237089E+03</pdfrwt>
<totfact> 0.42701110E+02</totfact>
</mgrwt>
</event>
<event>
 6    1  0.9598567E-004  0.4928597E+03  0.7818608E-02  0.1015735E+00
         21   -1    0    0  503  502  0.00000000000E+00  0.00000000000E+00  0.32087562485E+03  0.32087562485E+03  0.00000000000E+00 0.  1.
         21   -1    0    0  501  503 -0.00000000000E+00 -0.00000000000E+00 -0.16469684688E+04  0.16469684688E+04  0.00000000000E+00 0. -1.
    9000007    2    1    2  501    0 -0.10532678886E+03  0.26588396847E+03 -0.13873775172E+04  0.14723203018E+04  0.40140089499E+03 0.  0.
    9000005    1    3    3    0    0 -0.11748380313E+03  0.36769978958E+03 -0.10097470882E+04  0.10810160783E+04  0.99999687468E+00 0.  0.
          4    1    3    3  501    0  0.12157014278E+02 -0.10181582111E+03 -0.37763042900E+03  0.39130422350E+03  0.00000000000E+00 0.  1.
   -9000007    1    1    2    0  502  0.10532678886E+03 -0.26588396847E+03  0.61284673296E+02  0.49552379188E+03  0.40000000000E+03 0.  1.
<mgrwt>
<rscale>  2 0.49257440E+03</rscale>
<asrwt>0</asrwt>
<pdfrwt beam="1">  1       21 0.49365481E-01 0.49285971E+03</pdfrwt>
<pdfrwt beam="2">  1       21 0.25337977E+00 0.49285971E+03</pdfrwt>
<totfact> 0.19303485E+02</totfact>
</mgrwt>
</event>
<event>
 6    1  0.9598567E-004  0.4542703E+03  0.7818608E-02  0.1026471E+00
         21   -1    0    0  503  502  0.00000000000E+00  0.00000000000E+00  0.25352232006E+03  0.25352232006E+03  0.00000000000E+00 0.  1.
         21   -1    0    0  501  503 -0.00000000000E+00 -0.00000000000E+00 -0.83203753447E+03  0.83203753447E+03  0.00000000000E+00 0.  1.
    9000007    2    1    2  501    0  0.16539974775E+03  0.13720210087E+03 -0.37006833096E+03  0.58592839409E+03  0.40022496222E+03 0.  0.
    9000005    1    3    3    0    0  0.15297366125E+03  0.16394832555E+03 -0.44888454510E+03  0.50177517805E+03  0.99999687468E+00 0.  0.
          4    1    3    3  501    0  0.12426086501E+02 -0.26746224684E+02  0.78816214132E+02  0.84153216045E+02  0.00000000000E+00 0.  1.
   -9000007    1    1    2    0  502 -0.16539974775E+03 -0.13720210087E+03 -0.20844688345E+03  0.49963146044E+03  0.40000000000E+03 0.  1.
<mgrwt>
<rscale>  2 0.45422075E+03</rscale>
<asrwt>0</asrwt>
<pdfrwt beam="1">  1       21 0.39003434E-01 0.45427031E+03</pdfrwt>
<pdfrwt beam="2">  1       21 0.12800577E+00 0.45427031E+03</pdfrwt>
<totfact> 0.24542993E+03</totfact>
</mgrwt>
</event>
<event>
 6    1  0.9598567E-004  0.8242429E+03  0.7818608E-02  0.9525710E-01
         21   -1    0    0  503  502  0.00000000000E+00  0.00000000000E+00  0.94542097061E+03  0.94542097061E+03  0.00000000000E+00 0.  1.
         21   -1    0    0  501  503 -0.00000000000E+00 -0.00000000000E+00 -0.71825745619E+03  0.71825745619E+03  0.00000000000E+00 0.  1.
    9000007    2    1    2  501    0 -0.17707606488E+03  0.69858462378E+03  0.11341207220E+03  0.83162326040E+03  0.39919736946E+03 0.  0.
    9000005    1    3    3    0    0 -0.21833467554E+03  0.19322382621E+03  0.14093404896E+03  0.32383465489E+03  0.99999687468E+00 0.  0.
          4    1    3    3  501    0  0.41258610666E+02  0.50536079757E+03 -0.27521976759E+02  0.50778860551E+03  0.00000000000E+00 0.  1.
   -9000007    1    1    2    0  502  0.17707606488E+03 -0.69858462378E+03  0.11375144222E+03  0.83205516640E+03  0.40000000000E+03 0.  1.
<mgrwt>
<rscale>  2 0.82414561E+03</rscale>
<asrwt>0</asrwt>
<pdfrwt beam="1">  1       21 0.14544938E+00 0.82424293E+03</pdfrwt>
<pdfrwt beam="2">  1       21 0.11050115E+00 0.82424293E+03</pdfrwt>
<totfact> 0.14817766E+02</totfact>
</mgrwt>
</event>
<event>
 6    1  0.9598567E-004  0.4088759E+03  0.7818608E-02  0.1040881E+00
         21   -1    0    0  503  502  0.00000000000E+00  0.00000000000E+00  0.14414973594E+04  0.14414973594E+04  0.00000000000E+00 0. -1.
         21   -1    0    0  501  503 -0.00000000000E+00 -0.00000000000E+00 -0.14934351332E+03  0.14934351332E+03  0.00000000000E+00 0. -1.
    9000007    2    1    2  501    0  0.29032812472E+02  0.71148326325E+02  0.26856991894E+03  0.48919254206E+03  0.40159003138E+03 0.  0.
    9000005    1    3    3    0    0 -0.90189258350E+02  0.11931268330E+03 -0.40066953376E+02  0.15484178850E+03  0.99999687468E+00 0.  0.
          4    1    3    3  501    0  0.11922207082E+03 -0.48164356977E+02  0.30863687231E+03  0.33435075356E+03  0.00000000000E+00 0.  1.
   -9000007    1    1    2    0  502 -0.29032812472E+02 -0.71148326325E+02  0.10235839272E+04  0.11016483307E+04  0.40000000000E+03 0. -1.
<mgrwt>
<rscale>  2 0.40848499E+03</rscale>
<asrwt>0</asrwt>
<pdfrwt beam="1">  1       21 0.22176882E+00 0.40887595E+03</pdfrwt>
<pdfrwt beam="2">  1       21 0.22975926E-01 0.40887595E+03</pdfrwt>
<totfact> 0.14858118E+03</totfact>
</mgrwt>
</event>
<event>
 6    1  0.9598567E-004  0.4182313E+03  0.7818608E-02  0.1037726E+00
         21   -1    0    0  503  502  0.00000000000E+00  0.00000000000E+00  0.20618780740E+03  0.20618780740E+03  0.00000000000E+00 0.  1.
         21   -1    0    0  501  503 -0.00000000000E+00 -0.00000000000E+00 -0.12515670327E+04  0.12515670327E+04  0.00000000000E+00 0.  1.
    9000007    2    1    2  501    0 -0.72045357617E+02 -0.98624784763E+02 -0.93702640687E+03  0.10257158199E+04  0.39894495150E+03 0.  0.
    9000005    1    3    3    0    0  0.13966350005E+03 -0.12497680327E+03 -0.29819477119E+03  0.35220195366E+03  0.99999687468E+00 0.  0.
          4    1    3    3  501    0 -0.21170885767E+03  0.26352018508E+02 -0.63883163568E+03  0.67351386625E+03  0.00000000000E+00 0.  1.
   -9000007    1    1    2    0  502  0.72045357617E+02  0.98624784763E+02 -0.10835281847E+03  0.43203902022E+03  0.40000000000E+03 0.  1.
<mgrwt>
<rscale>  2 0.41797879E+03</rscale>
<asrwt>0</asrwt>
<pdfrwt beam="1">  1       21 0.31721202E-01 0.41823125E+03</pdfrwt>
<pdfrwt beam="2">  1       21 0.19254877E+00 0.41823125E+03</pdfrwt>
<totfact> 0.12211013E+03</totfact>
</mgrwt>
</event>
<event>
 6    1  0.9598567E-004  0.4251721E+03  0.7818608E-02  0.1035422E+00
         21   -1    0    0  503  502  0.00000000000E+00  0.00000000000E+00  0.38801710868E+03  0.38801710868E+03  0.00000000000E+00 0.  1.
         21   -1    0    0  501  503 -0.00000000000E+00 -0.00000000000E+00 -0.51984970822E+03  0.51984970822E+03  0.00000000000E+00 0.  1.
    9000007    2    1    2  501    0 -0.13330387347E+03 -0.54785144094E+02 -0.21263568900E+03  0.47508456915E+03  0.39964994296E+03 0.  0.
    9000005    1    3    3    0    0 -0.27311171563E+02  0.16810703028E+03 -0.43185274972E+02  0.17570384654E+03  0.99999687468E+00 0.  0.
          4    1    3    3  501    0 -0.10599270191E+03 -0.22289217437E+03 -0.16945041403E+03  0.29938072261E+03  0.00000000000E+00 0.  1.
   -9000007    1    1    2    0  502  0.13330387347E+03  0.54785144094E+02  0.80803089465E+02  0.43278224774E+03  0.40000000000E+03 0.  1.
<mgrwt>
<rscale>  2 0.42508977E+03</rscale>
<asrwt>0</asrwt>
<pdfrwt beam="1">  1       21 0.59694940E-01 0.42517212E+03</pdfrwt>
<pdfrwt beam="2">  1       21 0.79976878E-01 0.42517212E+03</pdfrwt>
<totfact> 0.31706290E+03</totfact>
</mgrwt>
</event>
<event>
 6    1  0.9598567E-004  0.4926545E+03  0.7818608E-02  0.1015728E+00
         21   -1    0    0  503  502  0.00000000000E+00  0.00000000000E+00  0.14857873897E+04  0.14857873897E+04  0.00000000000E+00 0. -1.
         21   -1    0    0  501  503 -0.00000000000E+00 -0.00000000000E+00 -0.24080845580E+03  0.24080845580E+03  0.00000000000E+00 0. -1.
    9000007    2    1    2  501    0 -0.18689729305E+03  0.21809968179E+03  0.13274799372E+03  0.51022594549E+03  0.40026293392E+03 0.  0.
    9000005    1    3    3    0    0 -0.17815738660E+03  0.76339303663E+02 -0.11447637306E+03  0.22510793781E+03  0.99999687468E+00 0.  0.
          4    1    3    3  501    0 -0.87399064525E+01  0.14176037812E+03  0.24722436678E+03  0.28511800768E+03  0.00000000000E+00 0.  1.
   -9000007    1    1    2    0  502  0.18689729305E+03 -0.21809968179E+03  0.11122309402E+04  0.12163699000E+04  0.40000000000E+03 0. -1.
<mgrwt>
<rscale>  2 0.49260112E+03</rscale>
<asrwt>0</asrwt>
<pdfrwt beam="1">  1       21 0.22858267E+00 0.49265453E+03</pdfrwt>
<pdfrwt beam="2">  1       21 0.37047455E-01 0.49265453E+03</pdfrwt>
<totfact> 0.50124280E+02</totfact>
</mgrwt>
</event>
<event>
 6    1  0.9598567E-004  0.4728448E+03  0.7818608E-02  0.1021127E+00
         21   -1    0    0  503  502  0.00000000000E+00  0.00000000000E+00  0.23495203284E+03  0.23495203284E+03  0.00000000000E+00 0. -1.
         21   -1    0    0  501  503 -0.00000000000E+00 -0.00000000000E+00 -0.10003461487E+04  0.10003461487E+04  0.00000000000E+00 0. -1.
    9000007    2    1    2  501    0 -0.22141200902E+03  0.12066051671E+03 -0.51925773790E+03  0.70222655917E+03  0.39988911463E+03 0.  0.
    9000005    1    3    3    0    0 -0.10436665975E+03  0.14964563432E+03 -0.54858654957E+03  0.57813010465E+03  0.99999687468E+00 0.  0.
          4    1    3    3  501    0 -0.11704534927E+03 -0.28985117609E+02  0.29328811673E+02  0.12409645452E+03  0.00000000000E+00 0.  1.
   -9000007    1    1    2    0  502  0.22141200902E+03 -0.12066051671E+03 -0.24613637798E+03  0.53307162239E+03  0.40000000000E+03 0. -1.
<mgrwt>
<rscale>  2 0.47282138E+03</rscale>
<asrwt>0</asrwt>
<pdfrwt beam="1">  1       21 0.36146467E-01 0.47284484E+03</pdfrwt>
<pdfrwt beam="2">  1       21 0.15389941E+00 0.47284484E+03</pdfrwt>
<totfact> 0.17433688E+03</totfact>
</mgrwt>
</event>
<event>
 6    1  0.9598567E-004  0.4600217E+03  0.7818608E-02  0.1024878E+00
         21   -1    0    0  503  502  0.00000000000E+00  0.00000000000E+00  0.14967463238E+04  0.14967463238E+04  0.00000000000E+00 0. -1.
         21   -1    0    0  501  503 -0.00000000000E+00 -0.00000000000E+00 -0.14654392375E+03  0.14654392375E+03  0.00000000000E+00 0.  1.
    9000007    2    1    2  501    0  0.21943853462E+03  0.58878678667E+02  0.83462706040E+03  0.95232143484E+03  0.39836392412E+03 0.  0.
    9000005    1    3    3    0    0  0.61914003617E+01 -0.33030922707E+02  0.66230066898E+03  0.66315349009E+03  0.99999687468E+00 0.  0.
          4    1    3    3  501    0  0.21324713426E+03  0.91909601374E+02  0.17232639142E+03  0.28916794476E+03  0.00000000000E+00 0.  1.
   -9000007    1    1    2    0  502 -0.21943853462E+03 -0.58878678667E+02  0.51557533969E+03  0.69096881274E+03  0.40000000000E+03 0. -1.
<mgrwt>
<rscale>  2 0.45966582E+03</rscale>
<asrwt>0</asrwt>
<pdfrwt beam="1">  1       21 0.23026865E+00 0.46002171E+03</pdfrwt>
<pdfrwt beam="2">  1       21 0.22545220E-01 0.46002171E+03</pdfrwt>
<totfact> 0.13288042E+03</totfact>
</mgrwt>
</event>
<event>
 6    1  0.9598567E-004  0.4502354E+03  0.7818608E-02  0.1027682E+00
         21   -1    0    0  503  502  0.00000000000E+00  0.00000000000E+00  0.87421667745E+03  0.87421667745E+03  0.00000000000E+00 0.  1.
         21   -1    0    0  501  503 -0.00000000000E+00 -0.00000000000E+00 -0.24482161162E+03  0.24482161162E+03  0.00000000000E+00 0. -1.
    9000007    2    1    2  501    0  0.19828127143E+03 -0.55020891975E+02  0.18513739829E+03  0.48681393307E+03  0.40046121914E+03 0.  0.
    9000005    1    3    3    0    0  0.29580727504E+03 -0.94033649965E+02  0.21503211992E+03  0.37760307716E+03  0.99999687468E+00 0.  0.
          4    1    3    3  501    0 -0.97526003616E+02  0.39012757990E+02 -0.29894721632E+02  0.10921085591E+03  0.00000000000E+00 0.  1.
   -9000007    1    1    2    0  502 -0.19828127143E+03  0.55020891975E+02  0.44425766754E+03  0.63222435600E+03  0.40000000000E+03 0.  1.
<mgrwt>
<rscale>  2 0.45013286E+03</rscale>
<asrwt>0</asrwt>
<pdfrwt beam="1">  1       21 0.13449487E+00 0.45023544E+03</pdfrwt>
<pdfrwt beam="2">  1       21 0.37664864E-01 0.45023544E+03</pdfrwt>
<totfact> 0.23216335E+03</totfact>
</mgrwt>
</event>
<event>
 6    1  0.9598567E-004  0.5961113E+03  0.7818608E-02  0.9913587E-01
         21   -1    0    0  503  502  0.00000000000E+00  0.00000000000E+00  0.75076716345E+03  0.75076716345E+03  0.00000000000E+00 0. -1.
         21   -1    0    0  501  503 -0.00000000000E+00 -0.00000000000E+00 -0.47732691842E+03  0.47732691842E+03  0.00000000000E+00 0. -1.
    9000007    2    1    2  501    0  0.25557601765E+03  0.36034201385E+03  0.79586438990E+02  0.60140056358E+03  0.40022889559E+03 0.  0.
    9000005    1    3    3    0    0  0.13421192124E+03  0.25512722259E+03 -0.14705096846E+03  0.32361663559E+03  0.99999687468E+00 0.  0.
          4    1    3    3  501    0  0.12136409641E+03  0.10521479126E+03  0.22663740745E+03  0.27778392799E+03  0.00000000000E+00 0.  1.
   -9000007    1    1    2    0  502 -0.25557601765E+03 -0.36034201385E+03  0.19385380605E+03  0.62669351829E+03  0.40000000000E+03 0. -1.
<mgrwt>
<rscale>  2 0.59607284E+03</rscale>
<asrwt>0</asrwt>
<pdfrwt beam="1">  1       21 0.11550264E+00 0.59611126E+03</pdfrwt>
<pdfrwt beam="2">  1       21 0.73434910E-01 0.59611126E+03</pdfrwt>
<totfact> 0.77463668E+02</totfact>
</mgrwt>
</event>
<event>
 6    1  0.9598567E-004  0.5845409E+03  0.7818608E-02  0.9938233E-01
         21   -1    0    0  503  502  0.00000000000E+00  0.00000000000E+00  0.43219667169E+03  0.43219667169E+03  0.00000000000E+00 0.  1.
         21   -1    0    0  501  503 -0.00000000000E+00 -0.00000000000E+00 -0.87548861539E+03  0.87548861539E+03  0.00000000000E+00 0. -1.
    9000007    2    1    2  501    0 -0.39382504293E+03  0.16306427042E+03 -0.42586930523E+03  0.72288474923E+03  0.39938649804E+03 0.  0.
    9000005    1    3    3    0    0 -0.17117196793E+03  0.16478534971E+03 -0.43970507871E+03  0.49979556852E+03  0.99999687468E+00 0.  0.
          4    1    3    3  501    0 -0.22265307500E+03 -0.17210792849E+01  0.13835773480E+02  0.22308918071E+03  0.00000000000E+00 0.  1.
   -9000007    1    1    2    0  502  0.39382504293E+03 -0.16306427042E+03 -0.17422638472E+02  0.58480053784E+03  0.40000000000E+03 0.  1.
<mgrwt>
<rscale>  2 0.58443601E+03</rscale>
<asrwt>0</asrwt>
<pdfrwt beam="1">  1       21 0.66491796E-01 0.58454095E+03</pdfrwt>
<pdfrwt beam="2">  1       21 0.13469056E+00 0.58454095E+03</pdfrwt>
<totfact> 0.65431552E+02</totfact>
</mgrwt>
</event>
<event>
 6    1  0.9598567E-004  0.4444699E+03  0.7818608E-02  0.1029420E+00
         21   -1    0    0  503  502  0.00000000000E+00  0.00000000000E+00  0.91695119338E+03  0.91695119338E+03  0.00000000000E+00 0. -1.
         21   -1    0    0  501  503 -0.00000000000E+00 -0.00000000000E+00 -0.27500747523E+03  0.27500747523E+03  0.00000000000E+00 0. -1.
    9000007    2    1    2  501    0 -0.18352138805E+03  0.58715510904E+02  0.43208461387E+02  0.44656513578E+03  0.40053194413E+03 0.  0.
    9000005    1    3    3    0    0  0.87793247276E+02  0.12442998786E+03 -0.35803082912E+02  0.15643956305E+03  0.99999687468E+00 0.  0.
          4    1    3    3  501    0 -0.27131463532E+03 -0.65714476959E+02  0.79011544299E+02  0.29012557274E+03  0.00000000000E+00 0.  1.
   -9000007    1    1    2    0  502  0.18352138805E+03 -0.58715510904E+02  0.59873525676E+03  0.74539353283E+03  0.40000000000E+03 0. -1.
<mgrwt>
<rscale>  2 0.44434998E+03</rscale>
<asrwt>0</asrwt>
<pdfrwt beam="1">  1       21 0.14106941E+00 0.44446985E+03</pdfrwt>
<pdfrwt beam="2">  1       21 0.42308843E-01 0.44446985E+03</pdfrwt>
<totfact> 0.16143819E+03</totfact>
</mgrwt>
</event>
<event>
 6    1  0.9598567E-004  0.8794712E+03  0.7818608E-02  0.9451750E-01
         21   -1    0    0  503  502  0.00000000000E+00  0.00000000000E+00  0.52904899391E+03  0.52904899391E+03  0.00000000000E+00 0. -1.
         21   -1    0    0  501  503 -0.00000000000E+00 -0.00000000000E+00 -0.34039022963E+04  0.34039022963E+04  0.00000000000E+00 0.  1.
    9000007    2    1    2  501    0 -0.20313194079E+03  0.75644371342E+03 -0.29228457164E+04  0.30521715512E+04  0.39906693584E+03 0.  0.
    9000005    1    3    3    0    0 -0.40385380699E+02  0.18588618671E+03 -0.24931802763E+03  0.31360027468E+03  0.99999687468E+00 0.  0.
          4    1    3    3  501    0 -0.16274656010E+03  0.57055752671E+03 -0.26735276887E+04  0.27385712765E+04  0.00000000000E+00 0.  1.
   -9000007    1    1    2    0  502  0.20313194079E+03 -0.75644371342E+03  0.47992413938E+02  0.88077973906E+03  0.40000000000E+03 0. -1.
<mgrwt>
<rscale>  2 0.87936523E+03</rscale>
<asrwt>0</asrwt>
<pdfrwt beam="1">  1       21 0.81392153E-01 0.87947125E+03</pdfrwt>
<pdfrwt beam="2">  1       21 0.52367728E+00 0.87947125E+03</pdfrwt>
<totfact> 0.90236370E-01</totfact>
</mgrwt>
</event>
<event>
 6    1  0.9598567E-004  0.4414486E+03  0.7818608E-02  0.1030310E+00
         21   -1    0    0  503  502  0.00000000000E+00  0.00000000000E+00  0.16678164446E+03  0.16678164446E+03  0.00000000000E+00 0. -1.
         21   -1    0    0  501  503 -0.00000000000E+00 -0.00000000000E+00 -0.13750967548E+04  0.13750967548E+04  0.00000000000E+00 0. -1.
    9000007    2    1    2  501    0 -0.53459465126E+02  0.17872998139E+03 -0.90322448475E+03  0.10053314670E+04  0.40009319927E+03 0.  0.
    9000005    1    3    3    0    0  0.14965258583E+03  0.18140043570E+03 -0.42433860650E+03  0.48514561471E+03  0.99999687468E+00 0.  0.
          4    1    3    3  501    0 -0.20311205095E+03 -0.26704543066E+01 -0.47888587825E+03  0.52018585232E+03  0.00000000000E+00 0.  1.
   -9000007    1    1    2    0  502  0.53459465126E+02 -0.17872998139E+03 -0.30509062560E+03  0.53654693224E+03  0.40000000000E+03 0. -1.
<mgrwt>
<rscale>  2 0.44142751E+03</rscale>
<asrwt>0</asrwt>
<pdfrwt beam="1">  1       21 0.25658715E-01 0.44144863E+03</pdfrwt>
<pdfrwt beam="2">  1       21 0.21155335E+00 0.44144863E+03</pdfrwt>
<totfact> 0.13735786E+03</totfact>
</mgrwt>
</event>
<event>
 6    1  0.9598567E-004  0.4054591E+03  0.7818608E-02  0.1041948E+00
         21   -1    0    0  503  502  0.00000000000E+00  0.00000000000E+00  0.68684493219E+03  0.68684493219E+03  0.00000000000E+00 0.  1.
         21   -1    0    0  501  503 -0.00000000000E+00 -0.00000000000E+00 -0.24416503198E+03  0.24416503198E+03  0.00000000000E+00 0.  1.
    9000007    2    1    2  501    0 -0.62249281823E+02 -0.10727549551E+02  0.15412880946E+03  0.43376577328E+03  0.40050843032E+03 0.  0.
    9000005    1    3    3    0    0 -0.10569010105E+03 -0.98906907048E+02 -0.90094489484E+02  0.17050217228E+03  0.99999687468E+00 0.  0.
          4    1    3    3  501    0  0.43440819232E+02  0.88179357497E+02  0.24422329894E+03  0.26326360100E+03  0.00000000000E+00 0.  1.
   -9000007    1    1    2    0  502  0.62249281823E+02  0.10727549551E+02  0.28855109075E+03  0.49724419090E+03  0.40000000000E+03 0. -1.
<mgrwt>
<rscale>  2 0.40533346E+03</rscale>
<asrwt>0</asrwt>
<pdfrwt beam="1">  1       21 0.10566845E+00 0.40545907E+03</pdfrwt>
<pdfrwt beam="2">  1       21 0.37563851E-01 0.40545907E+03</pdfrwt>
<totfact> 0.43732368E+03</totfact>
</mgrwt>
</event>
<event>
 6    1  0.9598567E-004  0.4204911E+03  0.7818608E-02  0.1037492E+00
         21   -1    0    0  503  502  0.00000000000E+00  0.00000000000E+00  0.11956149807E+03  0.11956149807E+03  0.00000000000E+00 0.  1.
         21   -1    0    0  501  503 -0.00000000000E+00 -0.00000000000E+00 -0.15860467270E+04  0.15860467270E+04  0.00000000000E+00 0.  1.
    9000007    2    1    2  501    0 -0.11677881885E+03 -0.56351247677E+02 -0.97369783385E+03  0.10578025656E+04  0.39248699413E+03 0.  0.
    9000005    1    3    3    0    0 -0.11744118294E+03 -0.96742366026E+02 -0.97594438927E+02  0.18076833610E+03  0.99999687468E+00 0.  0.
          4    1    3    3  501    0  0.66236408800E+00  0.40391118349E+02 -0.87610339492E+03  0.87703422953E+03  0.00000000000E+00 0.  1.
   -9000007    1    1    2    0  502  0.11677881885E+03  0.56351247677E+02 -0.49278739510E+03  0.64780565945E+03  0.40000000000E+03 0.  1.
<mgrwt>
<rscale>  2 0.41869451E+03</rscale>
<asrwt>0</asrwt>
<pdfrwt beam="1">  1       21 0.18394076E-01 0.42049109E+03</pdfrwt>
<pdfrwt beam="2">  1       21 0.24400719E+00 0.42049109E+03</pdfrwt>
<totfact> 0.16390332E+03</totfact>
</mgrwt>
</event>
<event>
 6    1  0.9598567E-004  0.4526758E+03  0.7818608E-02  0.1026945E+00
         21   -1    0    0  503  502  0.00000000000E+00  0.00000000000E+00  0.55723386948E+03  0.55723386948E+03  0.00000000000E+00 0. -1.
         21   -1    0    0  501  503 -0.00000000000E+00 -0.00000000000E+00 -0.96367124781E+03  0.96367124781E+03  0.00000000000E+00 0. -1.
    9000007    2    1    2  501    0  0.21072180563E+03 -0.22620616516E+02 -0.80130492364E+03  0.92020906270E+03  0.39972461366E+03 0.  0.
    9000005    1    3    3    0    0 -0.14357500528E+02 -0.17227553619E+03 -0.40661975387E+03  0.44184343655E+03  0.99999687468E+00 0.  0.
          4    1    3    3  501    0  0.22507930616E+03  0.14965491968E+03 -0.39468516977E+03  0.47836562615E+03  0.00000000000E+00 0.  1.
   -9000007    1    1    2    0  502 -0.21072180563E+03  0.22620616516E+02  0.39486754531E+03  0.60069605459E+03  0.40000000000E+03 0. -1.
<mgrwt>
<rscale>  2 0.45261495E+03</rscale>
<asrwt>0</asrwt>
<pdfrwt beam="1">  1       21 0.85728288E-01 0.45267579E+03</pdfrwt>
<pdfrwt beam="2">  1       21 0.14825711E+00 0.45267579E+03</pdfrwt>
<totfact> 0.29805177E+02</totfact>
</mgrwt>
</event>
<event>
 6    1  0.9598567E-004  0.5461995E+03  0.7818608E-02  0.1002391E+00
         21   -1    0    0  503  502  0.00000000000E+00  0.00000000000E+00  0.19787043059E+04  0.19787043059E+04  0.00000000000E+00 0.  1.
         21   -1    0    0  501  503 -0.00000000000E+00 -0.00000000000E+00 -0.23515562316E+03  0.23515562316E+03  0.00000000000E+00 0. -1.
    9000007    2    1    2  501    0  0.46143832136E+02  0.36905907353E+03  0.20831644515E+03  0.58435943003E+03  0.39968281067E+03 0.  0.
    9000005    1    3    3    0    0  0.12705943301E+02 -0.51762638751E+02 -0.63010332606E+02  0.82535530377E+02  0.99999687468E+00 0.  0.
          4    1    3    3  501    0  0.33437888835E+02  0.42082171228E+03  0.27132677776E+03  0.50182389966E+03  0.00000000000E+00 0.  1.
   -9000007    1    1    2    0  502 -0.46143832136E+02 -0.36905907353E+03  0.15352322376E+04  0.16295004990E+04  0.40000000000E+03 0. -1.
<mgrwt>
<rscale>  2 0.54614139E+03</rscale>
<asrwt>0</asrwt>
<pdfrwt beam="1">  1       21 0.30441604E+00 0.54619946E+03</pdfrwt>
<pdfrwt beam="2">  1       21 0.36177789E-01 0.54619946E+03</pdfrwt>
<totfact> 0.17564316E+02</totfact>
</mgrwt>
</event>
<event>
 6    1  0.9598567E-004  0.4711298E+03  0.7818608E-02  0.1021722E+00
         21   -1    0    0  503  502  0.00000000000E+00  0.00000000000E+00  0.26901641505E+04  0.26901641505E+04  0.00000000000E+00 0.  1.
         21   -1    0    0  501  503 -0.00000000000E+00 -0.00000000000E+00 -0.10543448727E+03  0.10543448727E+03  0.00000000000E+00 0. -1.
    9000007    2    1    2  501    0  0.45353867834E+02 -0.24475758454E+03  0.63449679070E+03  0.78926578761E+03  0.39798374033E+03 0.  0.
    9000005    1    3    3    0    0  0.19672100663E+03 -0.23324874430E+03  0.50356276831E+03  0.58879588381E+03  0.99999687468E+00 0.  0.
          4    1    3    3  501    0 -0.15136713880E+03 -0.11508840237E+02  0.13093402239E+03  0.20046990380E+03  0.00000000000E+00 0.  1.
   -9000007    1    1    2    0  502 -0.45353867834E+02  0.24475758454E+03  0.19502328725E+04  0.20063328501E+04  0.40000000000E+03 0.  1.
<mgrwt>
<rscale>  2 0.47070151E+03</rscale>
<asrwt>0</asrwt>
<pdfrwt beam="1">  1       21 0.41387136E+00 0.47112976E+03</pdfrwt>
<pdfrwt beam="2">  1       21 0.16220692E-01 0.47112976E+03</pdfrwt>
<totfact> 0.18172660E+02</totfact>
</mgrwt>
</event>
<event>
 6    1  0.9598567E-004  0.4751592E+03  0.7818608E-02  0.1020569E+00
         21   -1    0    0  503  502  0.00000000000E+00  0.00000000000E+00  0.14717350125E+04  0.14717350125E+04  0.00000000000E+00 0.  1.
         21   -1    0    0  501  503 -0.00000000000E+00 -0.00000000000E+00 -0.15603171034E+03  0.15603171034E+03  0.00000000000E+00 0.  1.
    9000007    2    1    2  501    0 -0.93898306866E+01  0.25377113534E+03  0.77277865392E+03  0.90717312607E+03  0.40160711478E+03 0.  0.
    9000005    1    3    3    0    0  0.10329834634E+03  0.12026606611E+03  0.54028696496E+02  0.16749500009E+03  0.99999687468E+00 0.  0.
          4    1    3    3  501    0 -0.11268817703E+03  0.13350506923E+03  0.71874995743E+03  0.73967812598E+03  0.00000000000E+00 0.  1.
   -9000007    1    1    2    0  502  0.93898306866E+01 -0.25377113534E+03  0.54292464829E+03  0.72059359682E+03  0.40000000000E+03 0.  1.
<mgrwt>
<rscale>  2 0.47481941E+03</rscale>
<asrwt>0</asrwt>
<pdfrwt beam="1">  1       21 0.22642076E+00 0.47515917E+03</pdfrwt>
<pdfrwt beam="2">  1       21 0.24004879E-01 0.47515917E+03</pdfrwt>
<totfact> 0.12362756E+03</totfact>
</mgrwt>
</event>
<event>
 6    1  0.9598567E-004  0.4702017E+03  0.7818608E-02  0.1021866E+00
         21   -1    0    0  503  502  0.00000000000E+00  0.00000000000E+00  0.83260534294E+03  0.83260534294E+03  0.00000000000E+00 0. -1.
         21   -1    0    0  501  503 -0.00000000000E+00 -0.00000000000E+00 -0.30116657350E+03  0.30116657350E+03  0.00000000000E+00 0.  1.
    9000007    2    1    2  501    0 -0.27196967377E+02 -0.24558765710E+03  0.46076577243E+03  0.65832723526E+03  0.40004584649E+03 0.  0.
    9000005    1    3    3    0    0  0.33073265853E+02 -0.18100949831E+03  0.52024959526E+03  0.55183233029E+03  0.99999687468E+00 0.  0.
          4    1    3    3  501    0 -0.60270233230E+02 -0.64578158793E+02 -0.59483822833E+02  0.10649490497E+03  0.00000000000E+00 0.  1.
   -9000007    1    1    2    0  502  0.27196967377E+02  0.24558765710E+03  0.70672997016E+02  0.47544468118E+03  0.40000000000E+03 0.  1.
<mgrwt>
<rscale>  2 0.47019196E+03</rscale>
<asrwt>0</asrwt>
<pdfrwt beam="1">  1       21 0.12809313E+00 0.47020171E+03</pdfrwt>
<pdfrwt beam="2">  1       21 0.46333319E-01 0.47020171E+03</pdfrwt>
<totfact> 0.17023162E+03</totfact>
</mgrwt>
</event>
<event>
 6    1  0.9598567E-004  0.1146672E+04  0.7818608E-02  0.9160998E-01
         21   -1    0    0  503  502  0.00000000000E+00  0.00000000000E+00  0.13724642139E+04  0.13724642139E+04  0.00000000000E+00 0. -1.
         21   -1    0    0  501  503 -0.00000000000E+00 -0.00000000000E+00 -0.12332677206E+04  0.12332677206E+04  0.00000000000E+00 0.  1.
    9000007    2    1    2  501    0  0.20608517950E+03  0.10540472761E+04  0.68567032654E+03  0.13360388961E+04  0.40170807012E+03 0.  0.
    9000005    1    3    3    0    0  0.28876109512E+03  0.10145817159E+04  0.62427923660E+03  0.12257587828E+04  0.99999687468E+00 0.  0.
          4    1    3    3  501    0 -0.82675915615E+02  0.39465560233E+02  0.61391089939E+02  0.11028011331E+03  0.00000000000E+00 0.  1.
   -9000007    1    1    2    0  502 -0.20608517950E+03 -0.10540472761E+04 -0.54647383317E+03  0.12696930384E+04  0.40000000000E+03 0.  1.
<mgrwt>
<rscale>  2 0.11465224E+04</rscale>
<asrwt>0</asrwt>
<pdfrwt beam="1">  1       21 0.21114834E+00 0.11466718E+04</pdfrwt>
<pdfrwt beam="2">  1       21 0.18973349E+00 0.11466718E+04</pdfrwt>
<totfact> 0.10019536E+01</totfact>
</mgrwt>
</event>
<event>
 6    1  0.9598567E-004  0.4698745E+03  0.7818608E-02  0.1022087E+00
         21   -1    0    0  503  502  0.00000000000E+00  0.00000000000E+00  0.45483610620E+03  0.45483610620E+03  0.00000000000E+00 0.  1.
         21   -1    0    0  501  503 -0.00000000000E+00 -0.00000000000E+00 -0.68664431097E+03  0.68664431097E+03  0.00000000000E+00 0. -1.
    9000007    2    1    2  501    0 -0.16547046895E+03 -0.17793522967E+03 -0.42650715353E+03  0.63457894479E+03  0.40216994307E+03 0.  0.
    9000005    1    3    3    0    0 -0.29185227346E+03 -0.18081732211E+03 -0.30498712193E+03  0.45922848130E+03  0.99999687468E+00 0.  0.
          4    1    3    3  501    0  0.12638180451E+03  0.28820924392E+01 -0.12152003160E+03  0.17535046349E+03  0.00000000000E+00 0.  1.
   -9000007    1    1    2    0  502  0.16547046895E+03  0.17793522967E+03  0.19469894876E+03  0.50690147238E+03  0.40000000000E+03 0.  1.
<mgrwt>
<rscale>  2 0.46940987E+03</rscale>
<asrwt>0</asrwt>
<pdfrwt beam="1">  1       21 0.69974786E-01 0.46987454E+03</pdfrwt>
<pdfrwt beam="2">  1       21 0.10563759E+00 0.46987454E+03</pdfrwt>
<totfact> 0.11288331E+03</totfact>
</mgrwt>
</event>
<event>
 6    1  0.9598567E-004  0.4729497E+03  0.7818608E-02  0.1021110E+00
         21   -1    0    0  503  502  0.00000000000E+00  0.00000000000E+00  0.16063465473E+04  0.16063465473E+04  0.00000000000E+00 0.  1.
         21   -1    0    0  501  503 -0.00000000000E+00 -0.00000000000E+00 -0.18585480382E+03  0.18585480382E+03  0.00000000000E+00 0.  1.
    9000007    2    1    2  501    0  0.25212787125E+03 -0.10626739157E+02  0.11592208988E+04  0.12518830696E+04  0.39967078545E+03 0.  0.
    9000005    1    3    3    0    0  0.12333682266E+03  0.12753744583E+03  0.17324076744E+03  0.24797406197E+03  0.99999687468E+00 0.  0.
          4    1    3    3  501    0  0.12879104859E+03 -0.13816418498E+03  0.98598013132E+03  0.10039090076E+04  0.00000000000E+00 0.  1.
   -9000007    1    1    2    0  502 -0.25212787125E+03  0.10626739157E+02  0.26127084470E+03  0.54031828151E+03  0.40000000000E+03 0.  1.
<mgrwt>
<rscale>  2 0.47288005E+03</rscale>
<asrwt>0</asrwt>
<pdfrwt beam="1">  1       21 0.24713023E+00 0.47294967E+03</pdfrwt>
<pdfrwt beam="2">  1       21 0.28593048E-01 0.47294967E+03</pdfrwt>
<totfact> 0.65216797E+02</totfact>
</mgrwt>
</event>
<event>
 6    1  0.9598567E-004  0.4237207E+03  0.7818608E-02  0.1035992E+00
         21   -1    0    0  503  502  0.00000000000E+00  0.00000000000E+00  0.60374235387E+03  0.60374235387E+03  0.00000000000E+00 0. -1.
         21   -1    0    0  501  503 -0.00000000000E+00 -0.00000000000E+00 -0.65149915971E+03  0.65149915971E+03  0.00000000000E+00 0. -1.
    9000007    2    1    2  501    0 -0.11779315210E+03  0.75259708022E+02 -0.48731513389E+03  0.64470832522E+03  0.39828825560E+03 0.  0.
    9000005    1    3    3    0    0 -0.39812536228E+02 -0.32476928623E+02 -0.50758151414E+03  0.51017622683E+03  0.99999687468E+00 0.  0.
          4    1    3    3  501    0 -0.77980615870E+02  0.10773663665E+03  0.20266380246E+02  0.13453209838E+03  0.00000000000E+00 0.  1.
   -9000007    1    1    2    0  502  0.11779315210E+03 -0.75259708022E+02  0.43955832805E+03  0.61053318836E+03  0.40000000000E+03 0. -1.
<mgrwt>
<rscale>  2 0.42331626E+03</rscale>
<asrwt>0</asrwt>
<pdfrwt beam="1">  1       21 0.92883439E-01 0.42372072E+03</pdfrwt>
<pdfrwt beam="2">  1       21 0.10023064E+00 0.42372072E+03</pdfrwt>
<totfact> 0.67970092E+02</totfact>
</mgrwt>
</event>
<event>
 6    1  0.9598567E-004  0.4945569E+03  0.7818608E-02  0.1015249E+00
         21   -1    0    0  503  502  0.00000000000E+00  0.00000000000E+00  0.75236809282E+03  0.75236809282E+03  0.00000000000E+00 0.  1.
         21   -1    0    0  501  503 -0.00000000000E+00 -0.00000000000E+00 -0.45510572740E+03  0.45510572740E+03  0.00000000000E+00 0.  1.
    9000007    2    1    2  501    0 -0.27078446058E+03 -0.10612392345E+03 -0.17461964099E+03  0.52391026122E+03  0.39925359307E+03 0.  0.
    9000005    1    3    3    0    0 -0.20567548911E+03  0.65602017658E+02 -0.24561835065E+03  0.32700979452E+03  0.99999687468E+00 0.  0.
          4    1    3    3  501    0 -0.65108971467E+02 -0.17172594111E+03  0.70998709658E+02  0.19690046671E+03  0.00000000000E+00 0.  1.
   -9000007    1    1    2    0  502  0.27078446058E+03  0.10612392345E+03  0.47188200641E+03  0.68356355900E+03  0.40000000000E+03 0.  1.
<mgrwt>
<rscale>  2 0.49440594E+03</rscale>
<asrwt>0</asrwt>
<pdfrwt beam="1">  1       21 0.11574894E+00 0.49455688E+03</pdfrwt>
<pdfrwt beam="2">  1       21 0.70016265E-01 0.49455688E+03</pdfrwt>
<totfact> 0.88937491E+02</totfact>
</mgrwt>
</event>
<event>
 6    1  0.9598567E-004  0.4855674E+03  0.7818608E-02  0.1017682E+00
         21   -1    0    0  503  502  0.00000000000E+00  0.00000000000E+00  0.18349608848E+04  0.18349608848E+04  0.00000000000E+00 0. -1.
         21   -1    0    0  501  503 -0.00000000000E+00 -0.00000000000E+00 -0.12874853707E+03  0.12874853707E+03  0.00000000000E+00 0.  1.
    9000007    2    1    2  501    0  0.11463796363E+03 -0.25026745202E+03  0.91426885958E+03  0.10347583205E+04  0.39882524254E+03 0.  0.
    9000005    1    3    3    0    0  0.10577257495E+03 -0.35960943792E+03  0.71378101263E+03  0.80622026732E+03  0.99999687468E+00 0.  0.
          4    1    3    3  501    0  0.88653886813E+01  0.10934198589E+03  0.20048784695E+03  0.22853805322E+03  0.00000000000E+00 0.  1.
   -9000007    1    1    2    0  502 -0.11463796363E+03  0.25026745202E+03  0.79194348817E+03  0.92895110135E+03  0.40000000000E+03 0.  1.
<mgrwt>
<rscale>  2 0.48532536E+03</rscale>
<asrwt>0</asrwt>
<pdfrwt beam="1">  1       21 0.28230165E+00 0.48556736E+03</pdfrwt>
<pdfrwt beam="2">  1       21 0.19807469E-01 0.48556736E+03</pdfrwt>
<totfact> 0.80617564E+02</totfact>
</mgrwt>
</event>
<event>
 6    1  0.9598567E-004  0.4753323E+03  0.7818608E-02  0.1020462E+00
         21   -1    0    0  503  502  0.00000000000E+00  0.00000000000E+00  0.44189990060E+03  0.44189990060E+03  0.00000000000E+00 0.  1.
         21   -1    0    0  501  503 -0.00000000000E+00 -0.00000000000E+00 -0.58108148773E+03  0.58108148773E+03  0.00000000000E+00 0.  1.
    9000007    2    1    2  501    0  0.25544516864E+03 -0.14074480915E+02 -0.24758634366E+03  0.53594759439E+03  0.40061265728E+03 0.  0.
    9000005    1    3    3    0    0  0.31814839724E+03  0.45441499647E+02 -0.56625631248E+02  0.32632927338E+03  0.99999687468E+00 0.  0.
          4    1    3    3  501    0 -0.62703228599E+02 -0.59515980562E+02 -0.19096071241E+03  0.20961832101E+03  0.00000000000E+00 0.  1.
   -9000007    1    1    2    0  502 -0.25544516864E+03  0.14074480915E+02  0.10840475653E+03  0.48703379393E+03  0.40000000000E+03 0.  1.
<mgrwt>
<rscale>  2 0.47520322E+03</rscale>
<asrwt>0</asrwt>
<pdfrwt beam="1">  1       21 0.67984600E-01 0.47533233E+03</pdfrwt>
<pdfrwt beam="2">  1       21 0.89397151E-01 0.47533233E+03</pdfrwt>
<totfact> 0.17991607E+03</totfact>
</mgrwt>
</event>
<event>
 6    1  0.9598567E-004  0.4269807E+03  0.7818608E-02  0.1034819E+00
         21   -1    0    0  503  502  0.00000000000E+00  0.00000000000E+00  0.90460977987E+03  0.90460977987E+03  0.00000000000E+00 0.  1.
         21   -1    0    0  501  503 -0.00000000000E+00 -0.00000000000E+00 -0.28201097133E+03  0.28201097133E+03  0.00000000000E+00 0.  1.
    9000007    2    1    2  501    0  0.76489225787E+02 -0.12826945998E+03  0.62825104856E+03  0.75961301843E+03  0.40001112702E+03 0.  0.
    9000005    1    3    3    0    0  0.19034623279E+03 -0.32853987494E+02  0.11390893917E+03  0.22424834279E+03  0.99999687468E+00 0.  0.
          4    1    3    3  501    0 -0.11385700700E+03 -0.95415472483E+02  0.51434210939E+03  0.53536467564E+03  0.00000000000E+00 0.  1.
   -9000007    1    1    2    0  502 -0.76489225787E+02  0.12826945998E+03 -0.56522400198E+01  0.42700773277E+03  0.40000000000E+03 0.  1.
<mgrwt>
<rscale>  2 0.42697814E+03</rscale>
<asrwt>0</asrwt>
<pdfrwt beam="1">  1       21 0.13917073E+00 0.42698075E+03</pdfrwt>
<pdfrwt beam="2">  1       21 0.43386304E-01 0.42698075E+03</pdfrwt>
<totfact> 0.15999356E+03</totfact>
</mgrwt>
</event>
<event>
 6    1  0.9598567E-004  0.4335001E+03  0.7818608E-02  0.1032772E+00
         21   -1    0    0  503  502  0.00000000000E+00  0.00000000000E+00  0.19177024594E+04  0.19177024594E+04  0.00000000000E+00 0. -1.
         21   -1    0    0  501  503 -0.00000000000E+00 -0.00000000000E+00 -0.11901502494E+03  0.11901502494E+03  0.00000000000E+00 0. -1.
    9000007    2    1    2  501    0  0.60877910404E+02  0.15518242510E+03  0.47113045488E+03  0.64022357491E+03  0.40016823376E+03 0.  0.
    9000005    1    3    3    0    0  0.70338276919E+02  0.60528151930E+02 -0.53446216969E+02  0.10709168258E+03  0.99999687468E+00 0.  0.
          4    1    3    3  501    0 -0.94603665147E+01  0.94654273170E+02  0.52457667185E+03  0.53313189233E+03  0.00000000000E+00 0.  1.
   -9000007    1    1    2    0  502 -0.60877910404E+02 -0.15518242510E+03  0.13275569796E+04  0.13964939094E+04  0.40000000000E+03 0. -1.
<mgrwt>
<rscale>  2 0.43346125E+03</rscale>
<asrwt>0</asrwt>
<pdfrwt beam="1">  1       21 0.29503112E+00 0.43350008E+03</pdfrwt>
<pdfrwt beam="2">  1       21 0.18310005E-01 0.43350008E+03</pdfrwt>
<totfact> 0.80623092E+02</totfact>
</mgrwt>
</event>
<event>
 6    1  0.9598567E-004  0.4801958E+03  0.7818608E-02  0.1019083E+00
         21   -1    0    0  503  502  0.00000000000E+00  0.00000000000E+00  0.11428415119E+04  0.11428415119E+04  0.00000000000E+00 0. -1.
         21   -1    0    0  501  503 -0.00000000000E+00 -0.00000000000E+00 -0.81266541949E+03  0.81266541949E+03  0.00000000000E+00 0.  1.
    9000007    2    1    2  501    0  0.20787672604E+03  0.16536874998E+03 -0.68264997598E+03  0.83462504576E+03  0.40003552418E+03 0.  0.
    9000005    1    3    3    0    0  0.12117851666E+03  0.21984716891E+03 -0.15045268477E+03  0.29266708207E+03  0.99999687468E+00 0.  0.
          4    1    3    3  501    0  0.86698209388E+02 -0.54478418928E+02 -0.53219729121E+03  0.54195796370E+03  0.00000000000E+00 0.  1.
   -9000007    1    1    2    0  502 -0.20787672604E+03 -0.16536874998E+03  0.10128260684E+04  0.11208818856E+04  0.40000000000E+03 0. -1.
<mgrwt>
<rscale>  2 0.48018837E+03</rscale>
<asrwt>0</asrwt>
<pdfrwt beam="1">  1       21 0.17582177E+00 0.48019577E+03</pdfrwt>
<pdfrwt beam="2">  1       21 0.12502545E+00 0.48019577E+03</pdfrwt>
<totfact> 0.72273622E+01</totfact>
</mgrwt>
</event>
<event>
 6    1  0.9598567E-004  0.4237435E+03  0.7818608E-02  0.1035864E+00
         21   -1    0    0  503  502  0.00000000000E+00  0.00000000000E+00  0.57735744053E+03  0.57735744053E+03  0.00000000000E+00 0.  1.
         21   -1    0    0  501  503 -0.00000000000E+00 -0.00000000000E+00 -0.33099532471E+03  0.33099532471E+03  0.00000000000E+00 0.  1.
    9000007    2    1    2  501    0  0.13985016776E+03  0.68487173817E+00  0.11308250292E+02  0.42378196735E+03  0.39988090834E+03 0.  0.
    9000005    1    3    3    0    0  0.20978903418E+03  0.13734393920E+02  0.15650120792E+03  0.26209483115E+03  0.99999687468E+00 0.  0.
          4    1    3    3  501    0 -0.69938866429E+02 -0.13049522181E+02 -0.14519295763E+03  0.16168713620E+03  0.00000000000E+00 0.  1.
   -9000007    1    1    2    0  502 -0.13985016776E+03 -0.68487173817E+00  0.23505386553E+03  0.48457079789E+03  0.40000000000E+03 0.  1.
<mgrwt>
<rscale>  2 0.42371537E+03</rscale>
<asrwt>0</asrwt>
<pdfrwt beam="1">  1       21 0.88824221E-01 0.42374348E+03</pdfrwt>
<pdfrwt beam="2">  1       21 0.50922358E-01 0.42374348E+03</pdfrwt>
<totfact> 0.34997372E+03</totfact>
</mgrwt>
</event>
<event>
 6    1  0.9598567E-004  0.4599099E+03  0.7818608E-02  0.1024838E+00
         21   -1    0    0  503  502  0.00000000000E+00  0.00000000000E+00  0.90606022700E+03  0.90606022700E+03  0.00000000000E+00 0. -1.
         21   -1    0    0  501  503 -0.00000000000E+00 -0.00000000000E+00 -0.33411375372E+03  0.33411375372E+03  0.00000000000E+00 0. -1.
    9000007    2    1    2  501    0 -0.12452989234E+03 -0.18976152085E+03 -0.54842472454E+02  0.46275420263E+03  0.39952049558E+03 0.  0.
    9000005    1    3    3    0    0  0.66338703471E+02  0.18680273178E+02 -0.14955860704E+03  0.16467711777E+03  0.99999687468E+00 0.  0.
          4    1    3    3  501    0 -0.19086859581E+03 -0.20844179403E+03  0.94716134589E+02  0.29807708486E+03  0.00000000000E+00 0.  1.
   -9000007    1    1    2    0  502  0.12452989234E+03  0.18976152085E+03  0.62678894573E+03  0.77741977809E+03  0.40000000000E+03 0. -1.
<mgrwt>
<rscale>  2 0.45980563E+03</rscale>
<asrwt>0</asrwt>
<pdfrwt beam="1">  1       21 0.13939388E+00 0.45990991E+03</pdfrwt>
<pdfrwt beam="2">  1       21 0.51402116E-01 0.45990991E+03</pdfrwt>
<totfact> 0.10990503E+03</totfact>
</mgrwt>
</event>
<event>
 6    1  0.9598567E-004  0.4718180E+03  0.7818608E-02  0.1021452E+00
         21   -1    0    0  503  502  0.00000000000E+00  0.00000000000E+00  0.14059717886E+04  0.14059717886E+04  0.00000000000E+00 0.  1.
         21   -1    0    0  501  503 -0.00000000000E+00 -0.00000000000E+00 -0.18701864252E+03  0.18701864252E+03  0.00000000000E+00 0. -1.
    9000007    2    1    2  501    0  0.23734792215E+03  0.79235047851E+02  0.92221199360E+03  0.10356148481E+04  0.39926297547E+03 0.  0.
    9000005    1    3    3    0    0  0.16714478281E+03 -0.11587505178E+03  0.71145306418E+03  0.73995328810E+03  0.99999687468E+00 0.  0.
          4    1    3    3  501    0  0.70203139342E+02  0.19511009963E+03  0.21075892942E+03  0.29566156004E+03  0.00000000000E+00 0.  1.
   -9000007    1    1    2    0  502 -0.23734792215E+03 -0.79235047851E+02  0.29674115252E+03  0.55737558303E+03  0.40000000000E+03 0. -1.
<mgrwt>
<rscale>  2 0.47166176E+03</rscale>
<asrwt>0</asrwt>
<pdfrwt beam="1">  1       21 0.21630335E+00 0.47181800E+03</pdfrwt>
<pdfrwt beam="2">  1       21 0.28772100E-01 0.47181800E+03</pdfrwt>
<totfact> 0.10077373E+03</totfact>
</mgrwt>
</event>
<event>
 6    1  0.9598567E-004  0.8120436E+03  0.7818608E-02  0.9542902E-01
         21   -1    0    0  503  502  0.00000000000E+00  0.00000000000E+00  0.11039409055E+04  0.11039409055E+04  0.00000000000E+00 0. -1.
         21   -1    0    0  501  503 -0.00000000000E+00 -0.00000000000E+00 -0.79694593616E+03  0.79694593616E+03  0.00000000000E+00 0. -1.
    9000007    2    1    2  501    0  0.17150935597E+03 -0.68504558769E+03 -0.32253190570E+03  0.87375150355E+03  0.40088894144E+03 0.  0.
    9000005    1    3    3    0    0  0.27001442616E+02 -0.19815954623E+03 -0.30605612819E+03  0.36560584960E+03  0.99999687468E+00 0.  0.
          4    1    3    3  501    0  0.14450791335E+03 -0.48688604146E+03 -0.16475777517E+02  0.50814565395E+03  0.00000000000E+00 0.  1.
   -9000007    1    1    2    0  502 -0.17150935597E+03  0.68504558769E+03  0.62952687506E+03  0.10271353381E+04  0.40000000000E+03 0. -1.
<mgrwt>
<rscale>  2 0.81193399E+03</rscale>
<asrwt>0</asrwt>
<pdfrwt beam="1">  1       21 0.16983706E+00 0.81204363E+03</pdfrwt>
<pdfrwt beam="2">  1       21 0.12260707E+00 0.81204363E+03</pdfrwt>
<totfact> 0.73604968E+01</totfact>
</mgrwt>
</event>
<event>
 6    1  0.9598567E-004  0.4088024E+03  0.7818608E-02  0.1040776E+00
         21   -1    0    0  503  502  0.00000000000E+00  0.00000000000E+00  0.61495717724E+03  0.61495717724E+03  0.00000000000E+00 0.  1.
         21   -1    0    0  501  503 -0.00000000000E+00 -0.00000000000E+00 -0.86100695582E+03  0.86100695582E+03  0.00000000000E+00 0.  1.
    9000007    2    1    2  501    0 -0.65864796193E+02  0.52522668114E+02 -0.73354457795E+03  0.83976606527E+03  0.40002824211E+03 0.  0.
    9000005    1    3    3    0    0  0.19163468238E+01 -0.17236303638E+03 -0.27483917653E+03  0.32442296720E+03  0.99999687468E+00 0.  0.
          4    1    3    3  501    0 -0.67781143017E+02  0.22488570449E+03 -0.45870540142E+03  0.51534309807E+03  0.00000000000E+00 0.  1.
   -9000007    1    1    2    0  502  0.65864796193E+02 -0.52522668114E+02  0.48749479937E+03  0.63619806779E+03  0.40000000000E+03 0.  1.
<mgrwt>
<rscale>  2 0.40879548E+03</rscale>
<asrwt>0</asrwt>
<pdfrwt beam="1">  1       21 0.94608797E-01 0.40880239E+03</pdfrwt>
<pdfrwt beam="2">  1       21 0.13246261E+00 0.40880239E+03</pdfrwt>
<totfact> 0.32546839E+02</totfact>
</mgrwt>
</event>
<event>
 6    1  0.9598567E-004  0.4404184E+03  0.7818608E-02  0.1030624E+00
         21   -1    0    0  503  502  0.00000000000E+00  0.00000000000E+00  0.27736566862E+03  0.27736566862E+03  0.00000000000E+00 0.  1.
         21   -1    0    0  501  503 -0.00000000000E+00 -0.00000000000E+00 -0.69925892425E+03  0.69925892425E+03  0.00000000000E+00 0.  1.
    9000007    2    1    2  501    0  0.12672883543E+03 -0.13358410430E+03 -0.20684836501E+03  0.48657437541E+03  0.40007932469E+03 0.  0.
    9000005    1    3    3    0    0  0.22042885506E+03 -0.10374248217E+03  0.14818844320E+02  0.24407372019E+03  0.99999687468E+00 0.  0.
          4    1    3    3  501    0 -0.93700019624E+02 -0.29841622132E+02 -0.22166720933E+03  0.24250065521E+03  0.00000000000E+00 0.  1.
   -9000007    1    1    2    0  502 -0.12672883543E+03  0.13358410430E+03 -0.21504489063E+03  0.49005021746E+03  0.40000000000E+03 0. -1.
<mgrwt>
<rscale>  2 0.44040040E+03</rscale>
<asrwt>0</asrwt>
<pdfrwt beam="1">  1       21 0.42671642E-01 0.44041841E+03</pdfrwt>
<pdfrwt beam="2">  1       21 0.10757830E+00 0.44041841E+03</pdfrwt>
<totfact> 0.31773112E+03</totfact>
</mgrwt>
</event>
<event>
 6    1  0.9598567E-004  0.4842842E+03  0.7818608E-02  0.1018004E+00
         21   -1    0    0  503  502  0.00000000000E+00  0.00000000000E+00  0.24681300350E+03  0.24681300350E+03  0.00000000000E+00 0. -1.
         21   -1    0    0  501  503 -0.00000000000E+00 -0.00000000000E+00 -0.10957108961E+04  0.10957108961E+04  0.00000000000E+00 0.  1.
    9000007    2    1    2  501    0  0.20416291373E+03 -0.18124206332E+03 -0.66977436331E+03  0.82617477390E+03  0.39929422538E+03 0.  0.
    9000005    1    3    3    0    0  0.29707405395E+03 -0.17707908010E+03 -0.34561911581E+03  0.48894127188E+03  0.99999687468E+00 0.  0.
          4    1    3    3  501    0 -0.92911140215E+02 -0.41629832204E+01 -0.32415524750E+03  0.33723350202E+03  0.00000000000E+00 0.  1.
   -9000007    1    1    2    0  502 -0.20416291373E+03  0.18124206332E+03 -0.17912352928E+03  0.51634912569E+03  0.40000000000E+03 0. -1.
<mgrwt>
<rscale>  2 0.48413843E+03</rscale>
<asrwt>0</asrwt>
<pdfrwt beam="1">  1       21 0.37971231E-01 0.48428419E+03</pdfrwt>
<pdfrwt beam="2">  1       21 0.16857091E+00 0.48428419E+03</pdfrwt>
<totfact> 0.12165028E+03</totfact>
</mgrwt>
</event>
<event>
 6    1  0.9598567E-004  0.5185764E+03  0.7818608E-02  0.1009154E+00
         21   -1    0    0  503  502  0.00000000000E+00  0.00000000000E+00  0.21296236515E+03  0.21296236515E+03  0.00000000000E+00 0. -1.
         21   -1    0    0  501  503 -0.00000000000E+00 -0.00000000000E+00 -0.13002093625E+04  0.13002093625E+04  0.00000000000E+00 0. -1.
    9000007    2    1    2  501    0  0.39582393601E+02 -0.32476600901E+03 -0.68031001585E+03  0.85541992536E+03  0.40234537967E+03 0.  0.
    9000005    1    3    3    0    0 -0.10246065880E+03 -0.59216665778E+02 -0.78505125107E+01  0.11860619988E+03  0.99999687468E+00 0.  0.
          4    1    3    3  501    0  0.14204305240E+03 -0.26554934323E+03 -0.67245950334E+03  0.73681372549E+03  0.00000000000E+00 0.  1.
   -9000007    1    1    2    0  502 -0.39582393601E+02  0.32476600901E+03 -0.40693698144E+03  0.65775180225E+03  0.40000000000E+03 0. -1.
<mgrwt>
<rscale>  2 0.51812145E+03</rscale>
<asrwt>0</asrwt>
<pdfrwt beam="1">  1       21 0.32763441E-01 0.51857645E+03</pdfrwt>
<pdfrwt beam="2">  1       21 0.20003221E+00 0.51857645E+03</pdfrwt>
<totfact> 0.97535617E+02</totfact>
</mgrwt>
</event>
<event>
 6    1  0.9598567E-004  0.5424902E+03  0.7818608E-02  0.1003291E+00
         21   -1    0    0  503  502  0.00000000000E+00  0.00000000000E+00  0.10088853917E+03  0.10088853917E+03  0.00000000000E+00 0.  1.
         21   -1    0    0  501  503 -0.00000000000E+00 -0.00000000000E+00 -0.29202004807E+04  0.29202004807E+04  0.00000000000E+00 0. -1.
    9000007    2    1    2  501    0 -0.23110684612E+03 -0.28440334966E+03 -0.14833273549E+04  0.15791630664E+04  0.39899913390E+03 0.  0.
    9000005    1    3    3    0    0 -0.28872928549E+02 -0.52858204431E+02 -0.10280284250E+04  0.10297917646E+04  0.99999687468E+00 0.  0.
          4    1    3    3  501    0 -0.20223391757E+03 -0.23154514523E+03 -0.45529892986E+03  0.54937130179E+03  0.00000000000E+00 0.  1.
   -9000007    1    1    2    0  502  0.23110684612E+03  0.28440334966E+03 -0.13359845866E+04  0.14419259535E+04  0.40000000000E+03 0.  1.
<mgrwt>
<rscale>  2 0.54230574E+03</rscale>
<asrwt>0</asrwt>
<pdfrwt beam="1">  1       21 0.15521316E-01 0.54249022E+03</pdfrwt>
<pdfrwt beam="2">  1       21 0.44926155E+00 0.54249022E+03</pdfrwt>
<totfact> 0.10987908E+02</totfact>
</mgrwt>
</event>
<event>
 6    1  0.9598567E-004  0.4437191E+03  0.7818608E-02  0.1029675E+00
         21   -1    0    0  503  502  0.00000000000E+00  0.00000000000E+00  0.76573180863E+03  0.76573180863E+03  0.00000000000E+00 0. -1.
         21   -1    0    0  501  503 -0.00000000000E+00 -0.00000000000E+00 -0.28055882989E+03  0.28055882989E+03  0.00000000000E+00 0. -1.
    9000007    2    1    2  501    0 -0.64866406108E+02  0.18077326531E+03  0.89615919161E+02  0.45185644412E+03  0.39906967943E+03 0.  0.
    9000005    1    3    3    0    0 -0.13248925071E+03  0.23024419573E+03  0.18589251385E+03  0.32422649170E+03  0.99999687468E+00 0.  0.
          4    1    3    3  501    0  0.67622844601E+02 -0.49470930429E+02 -0.96276594690E+02  0.12762995242E+03  0.00000000000E+00 0.  1.
   -9000007    1    1    2    0  502  0.64866406108E+02 -0.18077326531E+03  0.39555705957E+03  0.59443419440E+03  0.40000000000E+03 0. -1.
<mgrwt>
<rscale>  2 0.44350932E+03</rscale>
<asrwt>0</asrwt>
<pdfrwt beam="1">  1       21 0.11780489E+00 0.44371908E+03</pdfrwt>
<pdfrwt beam="2">  1       21 0.43162897E-01 0.44371908E+03</pdfrwt>
<totfact> 0.24715436E+03</totfact>
</mgrwt>
</event>
<event>
 6    1  0.9598567E-004  0.4512715E+03  0.7818608E-02  0.1027362E+00
         21   -1    0    0  503  502  0.00000000000E+00  0.00000000000E+00  0.20349547511E+03  0.20349547511E+03  0.00000000000E+00 0.  1.
         21   -1    0    0  501  503 -0.00000000000E+00 -0.00000000000E+00 -0.10043007236E+04  0.10043007236E+04  0.00000000000E+00 0.  1.
    9000007    2    1    2  501    0 -0.15680261659E+03 -0.13805400530E+03 -0.43896856995E+03  0.62937442276E+03  0.39971588618E+03 0.  0.
    9000005    1    3    3    0    0 -0.96943732670E+02  0.10760615111E+03 -0.31726244716E+03  0.34876013452E+03  0.99999687468E+00 0.  0.
          4    1    3    3  501    0 -0.59858883920E+02 -0.24566015642E+03 -0.12170612280E+03  0.28061428823E+03  0.00000000000E+00 0.  1.
   -9000007    1    1    2    0  502  0.15680261659E+03  0.13805400530E+03 -0.36183667849E+03  0.57842177592E+03  0.40000000000E+03 0.  1.
<mgrwt>
<rscale>  2 0.45120854E+03</rscale>
<asrwt>0</asrwt>
<pdfrwt beam="1">  1       21 0.31306996E-01 0.45127150E+03</pdfrwt>
<pdfrwt beam="2">  1       21 0.15450780E+00 0.45127150E+03</pdfrwt>
<totfact> 0.23234694E+03</totfact>
</mgrwt>
</event>
<event>
 6    1  0.9598567E-004  0.5659021E+03  0.7818608E-02  0.9979024E-01
         21   -1    0    0  503  502  0.00000000000E+00  0.00000000000E+00  0.48405549722E+03  0.48405549722E+03  0.00000000000E+00 0.  1.
         21   -1    0    0  501  503 -0.00000000000E+00 -0.00000000000E+00 -0.69565749977E+03  0.69565749977E+03  0.00000000000E+00 0.  1.
    9000007    2    1    2  501    0  0.12441836560E+03 -0.37985015706E+03 -0.23732042107E+03  0.61364983040E+03  0.40059837816E+03 0.  0.
    9000005    1    3    3    0    0 -0.13524065213E+03 -0.14302031901E+03 -0.16033195702E+03  0.25387434308E+03  0.99999687468E+00 0.  0.
          4    1    3    3  501    0  0.25965901773E+03 -0.23682983805E+03 -0.76988464042E+02  0.35977548732E+03  0.00000000000E+00 0.  1.
   -9000007    1    1    2    0  502 -0.12441836560E+03  0.37985015706E+03  0.25718418511E+02  0.56606316659E+03  0.40000000000E+03 0.  1.
<mgrwt>
<rscale>  2 0.56579616E+03</rscale>
<asrwt>0</asrwt>
<pdfrwt beam="1">  1       21 0.74470077E-01 0.56590205E+03</pdfrwt>
<pdfrwt beam="2">  1       21 0.10702423E+00 0.56590205E+03</pdfrwt>
<totfact> 0.91692281E+02</totfact>
</mgrwt>
</event>
<event>
 6    1  0.9598567E-004  0.4141401E+03  0.7818608E-02  0.1039109E+00
         21   -1    0    0  503  502  0.00000000000E+00  0.00000000000E+00  0.44928352330E+03  0.44928352330E+03  0.00000000000E+00 0.  1.
         21   -1    0    0  501  503 -0.00000000000E+00 -0.00000000000E+00 -0.52819698997E+03  0.52819698997E+03  0.00000000000E+00 0.  1.
    9000007    2    1    2  501    0 -0.44175874453E+02 -0.91536521176E+02 -0.29801089443E+03  0.51021814003E+03  0.40147430132E+03 0.  0.
    9000005    1    3    3    0    0 -0.13228145926E+02  0.22430234074E+02  0.95696268111E+02  0.99181021216E+02  0.99999687468E+00 0.  0.
          4    1    3    3  501    0 -0.30947728527E+02 -0.11396675525E+03 -0.39370716254E+03  0.41103711881E+03  0.00000000000E+00 0.  1.
   -9000007    1    1    2    0  502  0.44175874453E+02  0.91536521176E+02  0.21909742777E+03  0.46726237324E+03  0.40000000000E+03 0.  1.
<mgrwt>
<rscale>  2 0.41378242E+03</rscale>
<asrwt>0</asrwt>
<pdfrwt beam="1">  1       21 0.69120543E-01 0.41414014E+03</pdfrwt>
<pdfrwt beam="2">  1       21 0.81261075E-01 0.41414014E+03</pdfrwt>
<totfact> 0.22183152E+03</totfact>
</mgrwt>
</event>
<event>
 6    1  0.9598567E-004  0.6330513E+03  0.7818608E-02  0.9839267E-01
         21   -1    0    0  503  502  0.00000000000E+00  0.00000000000E+00  0.11003401446E+04  0.11003401446E+04  0.00000000000E+00 0. -1.
         21   -1    0    0  501  503 -0.00000000000E+00 -0.00000000000E+00 -0.13627465061E+04  0.13627465061E+04  0.00000000000E+00 0.  1.
    9000007    2    1    2  501    0  0.40777179187E+03 -0.27216259875E+03 -0.11855119840E+04  0.13439466663E+04  0.40050426106E+03 0.  0.
    9000005    1    3    3    0    0  0.23219911722E+03 -0.10509933048E+03 -0.18615220406E+03  0.31561993342E+03  0.99999687468E+00 0.  0.
          4    1    3    3  501    0  0.17557267466E+03 -0.16706326827E+03 -0.99935977995E+03  0.10283267328E+04  0.00000000000E+00 0.  1.
   -9000007    1    1    2    0  502 -0.40777179187E+03  0.27216259875E+03  0.92310562252E+03  0.11191399844E+04  0.40000000000E+03 0. -1.
<mgrwt>
<rscale>  2 0.63297158E+03</rscale>
<asrwt>0</asrwt>
<pdfrwt beam="1">  1       21 0.16928310E+00 0.63305132E+03</pdfrwt>
<pdfrwt beam="2">  1       21 0.20965331E+00 0.63305132E+03</pdfrwt>
<totfact> 0.17215412E+01</totfact>
</mgrwt>
</event>
<event>
 6    1  0.9598567E-004  0.4088600E+03  0.7818608E-02  0.1040757E+00
         21   -1    0    0  503  502  0.00000000000E+00  0.00000000000E+00  0.17785277267E+04  0.17785277267E+04  0.00000000000E+00 0.  1.
         21   -1    0    0  501  503 -0.00000000000E+00 -0.00000000000E+00 -0.13223419067E+03  0.13223419067E+03  0.00000000000E+00 0.  1.
    9000007    2    1    2  501    0 -0.47285072993E+02 -0.70051157107E+02  0.30934097467E+03  0.51269711413E+03  0.40002931079E+03 0.  0.
    9000005    1    3    3    0    0  0.22891680572E+02  0.15980555487E+03  0.78706796259E+02  0.17960402049E+03  0.99999687468E+00 0.  0.
          4    1    3    3  501    0 -0.70176753566E+02 -0.22985671197E+03  0.23063417841E+03  0.33309309364E+03  0.00000000000E+00 0.  1.
   -9000007    1    1    2    0  502  0.47285072993E+02  0.70051157107E+02  0.13369525614E+04  0.13980648033E+04  0.40000000000E+03 0.  1.
<mgrwt>
<rscale>  2 0.40885282E+03</rscale>
<asrwt>0</asrwt>
<pdfrwt beam="1">  1       21 0.27361963E+00 0.40885999E+03</pdfrwt>
<pdfrwt beam="2">  1       21 0.20343723E-01 0.40885999E+03</pdfrwt>
<totfact> 0.90035171E+02</totfact>
</mgrwt>
</event>
<event>
 6    1  0.9598567E-004  0.4180489E+03  0.7818608E-02  0.1037776E+00
         21   -1    0    0  503  502  0.00000000000E+00  0.00000000000E+00  0.15987870878E+04  0.15987870878E+04  0.00000000000E+00 0.  1.
         21   -1    0    0  501  503 -0.00000000000E+00 -0.00000000000E+00 -0.11309851921E+03  0.11309851921E+03  0.00000000000E+00 0.  1.
    9000007    2    1    2  501    0 -0.62982461713E+02 -0.10027799931E+03  0.58223611033E+03  0.71677314505E+03  0.40092690813E+03 0.  0.
    9000005    1    3    3    0    0  0.11893430243E+03 -0.16020101291E+03  0.16966112162E+03  0.26190767269E+03  0.99999687468E+00 0.  0.
          4    1    3    3  501    0 -0.18191676414E+03  0.59923013603E+02  0.41257498872E+03  0.45486547237E+03  0.00000000000E+00 0.  1.
   -9000007    1    1    2    0  502  0.62982461713E+02  0.10027799931E+03  0.90345245830E+03  0.99511246201E+03  0.40000000000E+03 0.  1.
<mgrwt>
<rscale>  2 0.41782647E+03</rscale>
<asrwt>0</asrwt>
<pdfrwt beam="1">  1       21 0.24596723E+00 0.41804886E+03</pdfrwt>
<pdfrwt beam="2">  1       21 0.17399773E-01 0.41804886E+03</pdfrwt>
<totfact> 0.17719057E+03</totfact>
</mgrwt>
</event>
<event>
 6    1  0.9598567E-004  0.4351576E+03  0.7818608E-02  0.1032250E+00
         21   -1    0    0  503  502  0.00000000000E+00  0.00000000000E+00  0.50316771216E+03  0.50316771216E+03  0.00000000000E+00 0. -1.
         21   -1    0    0  501  503 -0.00000000000E+00 -0.00000000000E+00 -0.49504468765E+03  0.49504468765E+03  0.00000000000E+00 0. -1.
    9000007    2    1    2  501    0 -0.14759587989E+03 -0.86594632544E+02 -0.24042092736E+03  0.49715624512E+03  0.40009865734E+03 0.  0.
    9000005    1    3    3    0    0  0.12482511254E+03 -0.95716800797E+02 -0.12598575322E+03  0.20153516984E+03  0.99999687468E+00 0.  0.
          4    1    3    3  501    0 -0.27242099243E+03  0.91221682527E+01 -0.11443517414E+03  0.29562107528E+03  0.00000000000E+00 0.  1.
   -9000007    1    1    2    0  502  0.14759587989E+03  0.86594632544E+02  0.24854395187E+03  0.50105615469E+03  0.40000000000E+03 0. -1.
<mgrwt>
<rscale>  2 0.43513489E+03</rscale>
<asrwt>0</asrwt>
<pdfrwt beam="1">  1       21 0.77410417E-01 0.43515757E+03</pdfrwt>
<pdfrwt beam="2">  1       21 0.76160721E-01 0.43515757E+03</pdfrwt>
<totfact> 0.19752345E+03</totfact>
</mgrwt>
</event>
<event>
 6    1  0.9598567E-004  0.4424602E+03  0.7818608E-02  0.1030086E+00
         21   -1    0    0  503  502  0.00000000000E+00  0.00000000000E+00  0.36568777820E+03  0.36568777820E+03  0.00000000000E+00 0. -1.
         21   -1    0    0  501  503 -0.00000000000E+00 -0.00000000000E+00 -0.59743455747E+03  0.59743455747E+03  0.00000000000E+00 0.  1.
    9000007    2    1    2  501    0  0.15447052292E+03  0.10913232820E+03 -0.27276419879E+03  0.51876500624E+03  0.39868009237E+03 0.  0.
    9000005    1    3    3    0    0  0.20715356513E+03 -0.95593955689E+02 -0.11866038369E+03  0.25716160398E+03  0.99999687468E+00 0.  0.
          4    1    3    3  501    0 -0.52683042210E+02  0.20472628388E+03 -0.15410381509E+03  0.26160340226E+03  0.00000000000E+00 0.  1.
   -9000007    1    1    2    0  502 -0.15447052292E+03 -0.10913232820E+03  0.41017419514E+02  0.44435732942E+03  0.40000000000E+03 0.  1.
<mgrwt>
<rscale>  2 0.44216165E+03</rscale>
<asrwt>0</asrwt>
<pdfrwt beam="1">  1       21 0.56259659E-01 0.44246018E+03</pdfrwt>
<pdfrwt beam="2">  1       21 0.91913008E-01 0.44246018E+03</pdfrwt>
<totfact> 0.25876563E+03</totfact>
</mgrwt>
</event>
<event>
 6    1  0.9598567E-004  0.4143735E+03  0.7818608E-02  0.1038952E+00
         21   -1    0    0  503  502  0.00000000000E+00  0.00000000000E+00  0.12808327183E+04  0.12808327183E+04  0.00000000000E+00 0. -1.
         21   -1    0    0  501  503 -0.00000000000E+00 -0.00000000000E+00 -0.13920254574E+03  0.13920254574E+03  0.00000000000E+00 0.  1.
    9000007    2    1    2  501    0 -0.90364516167E+02 -0.59494695100E+02  0.70900967672E+03  0.82098112797E+03  0.39951211028E+03 0.  0.
    9000005    1    3    3    0    0 -0.40793774141E+02  0.16711403636E+03  0.39274557800E+03  0.42876721212E+03  0.99999687468E+00 0.  0.
          4    1    3    3  501    0 -0.49570742026E+02 -0.22660873146E+03  0.31626409873E+03  0.39221391585E+03  0.00000000000E+00 0.  1.
   -9000007    1    1    2    0  502  0.90364516167E+02  0.59494695100E+02  0.43262049581E+03  0.59905413605E+03  0.40000000000E+03 0. -1.
<mgrwt>
<rscale>  2 0.41425567E+03</rscale>
<asrwt>0</asrwt>
<pdfrwt beam="1">  1       21 0.19705118E+00 0.41437346E+03</pdfrwt>
<pdfrwt beam="2">  1       21 0.21415777E-01 0.41437346E+03</pdfrwt>
<totfact> 0.24567001E+03</totfact>
</mgrwt>
</event>
<event>
 6    1  0.9598567E-004  0.4969928E+03  0.7818608E-02  0.1014641E+00
         21   -1    0    0  503  502  0.00000000000E+00  0.00000000000E+00  0.12791672623E+04  0.12791672623E+04  0.00000000000E+00 0.  1.
         21   -1    0    0  501  503 -0.00000000000E+00 -0.00000000000E+00 -0.23703744034E+03  0.23703744034E+03  0.00000000000E+00 0. -1.
    9000007    2    1    2  501    0 -0.23243265675E+03 -0.17850229316E+03  0.19352421103E+03  0.53334179688E+03  0.40138988959E+03 0.  0.
    9000005    1    3    3    0    0 -0.37809315579E+02 -0.26175670164E+03  0.30638607619E+02  0.26624394729E+03  0.99999687468E+00 0.  0.
          4    1    3    3  501    0 -0.19462334117E+03  0.83254408477E+02  0.16288560341E+03  0.26709784959E+03  0.00000000000E+00 0.  1.
   -9000007    1    1    2    0  502  0.23243265675E+03  0.17850229316E+03  0.84860561091E+03  0.98286290573E+03  0.40000000000E+03 0.  1.
<mgrwt>
<rscale>  2 0.49671211E+03</rscale>
<asrwt>0</asrwt>
<pdfrwt beam="1">  1       21 0.19679496E+00 0.49699281E+03</pdfrwt>
<pdfrwt beam="2">  1       21 0.36467299E-01 0.49699281E+03</pdfrwt>
<totfact> 0.83268403E+02</totfact>
</mgrwt>
</event>
<event>
 6    1  0.9598567E-004  0.4340814E+03  0.7818608E-02  0.1032615E+00
         21   -1    0    0  503  502  0.00000000000E+00  0.00000000000E+00  0.99127173609E+02  0.99127173609E+02  0.00000000000E+00 0.  1.
         21   -1    0    0  501  503 -0.00000000000E+00 -0.00000000000E+00 -0.22819207440E+04  0.22819207440E+04  0.00000000000E+00 0.  1.
    9000007    2    1    2  501    0 -0.92366584143E+02  0.14105000332E+03 -0.15787279926E+04  0.16371918082E+04  0.39948498435E+03 0.  0.
    9000005    1    3    3    0    0  0.55924653905E+02 -0.77969004383E+02 -0.11508133967E+03  0.14983807024E+03  0.99999687468E+00 0.  0.
          4    1    3    3  501    0 -0.14829123805E+03  0.21901900770E+03 -0.14636466530E+04  0.14873537379E+04  0.00000000000E+00 0.  1.
   -9000007    1    1    2    0  502  0.92366584143E+02 -0.14105000332E+03 -0.60406557771E+03  0.74385610939E+03  0.40000000000E+03 0.  1.
<mgrwt>
<rscale>  2 0.43396275E+03</rscale>
<asrwt>0</asrwt>
<pdfrwt beam="1">  1       21 0.15250336E-01 0.43408143E+03</pdfrwt>
<pdfrwt beam="2">  1       21 0.35106468E+00 0.43408143E+03</pdfrwt>
<totfact> 0.52014854E+02</totfact>
</mgrwt>
</event>
<event>
 6    1  0.9598567E-004  0.4593135E+03  0.7818608E-02  0.1024991E+00
         21   -1    0    0  503  502  0.00000000000E+00  0.00000000000E+00  0.30780010474E+03  0.30780010474E+03  0.00000000000E+00 0.  1.
         21   -1    0    0  501  503 -0.00000000000E+00 -0.00000000000E+00 -0.76371561091E+03  0.76371561091E+03  0.00000000000E+00 0.  1.
    9000007    2    1    2  501    0 -0.20307823993E+03 -0.98631444127E+02 -0.39970906422E+03  0.60877594275E+03  0.39983981686E+03 0.  0.
    9000005    1    3    3    0    0 -0.95453146883E+02  0.15269458373E+03 -0.20653683761E+03  0.27401716084E+03  0.99999687468E+00 0.  0.
          4    1    3    3  501    0 -0.10762509305E+03 -0.25132602786E+03 -0.19317222660E+03  0.33475878191E+03  0.00000000000E+00 0.  1.
   -9000007    1    1    2    0  502  0.20307823993E+03  0.98631444127E+02 -0.56206441952E+02  0.46273977290E+03  0.40000000000E+03 0.  1.
<mgrwt>
<rscale>  2 0.45927867E+03</rscale>
<asrwt>0</asrwt>
<pdfrwt beam="1">  1       21 0.47353863E-01 0.45931355E+03</pdfrwt>
<pdfrwt beam="2">  1       21 0.11749471E+00 0.45931355E+03</pdfrwt>
<totfact> 0.20367099E+03</totfact>
</mgrwt>
</event>
<event>
 6    1  0.9598567E-004  0.5046708E+03  0.7818608E-02  0.1012573E+00
         21   -1    0    0  503  502  0.00000000000E+00  0.00000000000E+00  0.29919570203E+03  0.29919570203E+03  0.00000000000E+00 0. -1.
         21   -1    0    0  501  503 -0.00000000000E+00 -0.00000000000E+00 -0.14044095758E+04  0.14044095758E+04  0.00000000000E+00 0. -1.
    9000007    2    1    2  501    0 -0.28028144636E+03  0.12667354593E+03 -0.10872897429E+04  0.11987041480E+04  0.40011095083E+03 0.  0.
    9000005    1    3    3    0    0 -0.24949175272E+03 -0.66507862932E+02 -0.86442445268E+03  0.90216410087E+03  0.99999687468E+00 0.  0.
          4    1    3    3  501    0 -0.30789693640E+02  0.19318140886E+03 -0.22286529026E+03  0.29654004716E+03  0.00000000000E+00 0.  1.
   -9000007    1    1    2    0  502  0.28028144636E+03 -0.12667354593E+03 -0.17924130825E+02  0.50490112980E+03  0.40000000000E+03 0. -1.
<mgrwt>
<rscale>  2 0.50464884E+03</rscale>
<asrwt>0</asrwt>
<pdfrwt beam="1">  1       21 0.46030107E-01 0.50467083E+03</pdfrwt>
<pdfrwt beam="2">  1       21 0.21606301E+00 0.50467083E+03</pdfrwt>
<totfact> 0.38214088E+02</totfact>
</mgrwt>
</event>
<event>
 6    1  0.9598567E-004  0.5353290E+03  0.7818608E-02  0.1004959E+00
         21   -1    0    0  503  502  0.00000000000E+00  0.00000000000E+00  0.39161761472E+03  0.39161761472E+03  0.00000000000E+00 0. -1.
         21   -1    0    0  501  503 -0.00000000000E+00 -0.00000000000E+00 -0.81152500766E+03  0.81152500766E+03  0.00000000000E+00 0.  1.
    9000007    2    1    2  501    0 -0.22783827771E+03 -0.27325230958E+03 -0.39880026186E+03  0.66739770503E+03  0.39975110049E+03 0.  0.
    9000005    1    3    3    0    0 -0.17564435716E+03  0.69067072456E+02 -0.13371202451E+03  0.23130306135E+03  0.99999687468E+00 0.  0.
          4    1    3    3  501    0 -0.52193920548E+02 -0.34231938204E+03 -0.26508823736E+03  0.43609464368E+03  0.00000000000E+00 0.  1.
   -9000007    1    1    2    0  502  0.22783827771E+03  0.27325230958E+03 -0.21107131068E+02  0.53574491735E+03  0.40000000000E+03 0. -1.
<mgrwt>
<rscale>  2 0.53528248E+03</rscale>
<asrwt>0</asrwt>
<pdfrwt beam="1">  1       21 0.60248864E-01 0.53532897E+03</pdfrwt>
<pdfrwt beam="2">  1       21 0.12485000E+00 0.53532897E+03</pdfrwt>
<totfact> 0.10098917E+03</totfact>
</mgrwt>
</event>
<event>
 6    1  0.9598567E-004  0.4296778E+03  0.7818608E-02  0.1033974E+00
         21   -1    0    0  503  502  0.00000000000E+00  0.00000000000E+00  0.48068112481E+03  0.48068112481E+03  0.00000000000E+00 0.  1.
         21   -1    0    0  501  503 -0.00000000000E+00 -0.00000000000E+00 -0.46050812746E+03  0.46050812746E+03  0.00000000000E+00 0.  1.
    9000007    2    1    2  501    0 -0.81834686119E+02  0.13388836166E+03 -0.18178774738E+03  0.46641440915E+03  0.39984072670E+03 0.  0.
    9000005    1    3    3    0    0  0.42227901377E+02 -0.25741228948E+02  0.10468703716E+03  0.11578506926E+03  0.99999687468E+00 0.  0.
          4    1    3    3  501    0 -0.12406258750E+03  0.15962959061E+03 -0.28647478454E+03  0.35062933989E+03  0.00000000000E+00 0.  1.
   -9000007    1    1    2    0  502  0.81834686119E+02 -0.13388836166E+03  0.20196074474E+03  0.47477484311E+03  0.40000000000E+03 0.  1.
<mgrwt>
<rscale>  2 0.42964073E+03</rscale>
<asrwt>0</asrwt>
<pdfrwt beam="1">  1       21 0.73950942E-01 0.42967780E+03</pdfrwt>
<pdfrwt beam="2">  1       21 0.70847404E-01 0.42967780E+03</pdfrwt>
<totfact> 0.25891426E+03</totfact>
</mgrwt>
</event>
<event>
 6    1  0.9598567E-004  0.4206077E+03  0.7818608E-02  0.1036913E+00
         21   -1    0    0  503  502  0.00000000000E+00  0.00000000000E+00  0.55402149847E+03  0.55402149847E+03  0.00000000000E+00 0.  1.
         21   -1    0    0  501  503 -0.00000000000E+00 -0.00000000000E+00 -0.38433426553E+03  0.38433426553E+03  0.00000000000E+00 0.  1.
    9000007    2    1    2  501    0  0.12334501386E+03 -0.35217774858E+02 -0.10868858281E+03  0.43442384508E+03  0.40057032470E+03 0.  0.
    9000005    1    3    3    0    0  0.24668939016E+02  0.48099807002E+02  0.14226324239E+03  0.15219059799E+03  0.99999687468E+00 0.  0.
          4    1    3    3  501    0  0.98676074846E+02 -0.83317581860E+02 -0.25095182520E+03  0.28223324710E+03  0.00000000000E+00 0.  1.
   -9000007    1    1    2    0  502 -0.12334501386E+03  0.35217774858E+02  0.27837581575E+03  0.50393191892E+03  0.40000000000E+03 0.  1.
<mgrwt>
<rscale>  2 0.42047189E+03</rscale>
<asrwt>0</asrwt>
<pdfrwt beam="1">  1       21 0.85234077E-01 0.42060774E+03</pdfrwt>
<pdfrwt beam="2">  1       21 0.59128349E-01 0.42060774E+03</pdfrwt>
<totfact> 0.27973259E+03</totfact>
</mgrwt>
</event>
<event>
 6    1  0.9598567E-004  0.4215475E+03  0.7818608E-02  0.1036568E+00
         21   -1    0    0  503  502  0.00000000000E+00  0.00000000000E+00  0.32917031699E+03  0.32917031699E+03  0.00000000000E+00 0.  1.
         21   -1    0    0  501  503 -0.00000000000E+00 -0.00000000000E+00 -0.56117530590E+03  0.56117530590E+03  0.00000000000E+00 0. -1.
    9000007    2    1    2  501    0 -0.31342297784E+02 -0.12913971720E+03 -0.20292493675E+03  0.46784703636E+03  0.40005363801E+03 0.  0.
    9000005    1    3    3    0    0 -0.76629584150E+02  0.54848029620E+02 -0.25457122005E+03  0.27145516314E+03  0.99999687468E+00 0.  0.
          4    1    3    3  501    0  0.45287286366E+02 -0.18398774682E+03  0.51646283308E+02  0.19639187322E+03  0.00000000000E+00 0.  1.
   -9000007    1    1    2    0  502  0.31342297784E+02  0.12913971720E+03 -0.29080052160E+02  0.42249858653E+03  0.40000000000E+03 0.  1.
<mgrwt>
<rscale>  2 0.42153480E+03</rscale>
<asrwt>0</asrwt>
<pdfrwt beam="1">  1       21 0.50641587E-01 0.42154753E+03</pdfrwt>
<pdfrwt beam="2">  1       21 0.86334663E-01 0.42154753E+03</pdfrwt>
<totfact> 0.37889928E+03</totfact>
</mgrwt>
</event>
<event>
 6    1  0.9598567E-004  0.4726018E+03  0.7818608E-02  0.1021202E+00
         21   -1    0    0  503  502  0.00000000000E+00  0.00000000000E+00  0.20520039760E+03  0.20520039760E+03  0.00000000000E+00 0.  1.
         21   -1    0    0  501  503 -0.00000000000E+00 -0.00000000000E+00 -0.10880231489E+04  0.10880231489E+04  0.00000000000E+00 0.  1.
    9000007    2    1    2  501    0  0.23397235041E+03  0.91793659292E+02 -0.43957155526E+03  0.64542669606E+03  0.40022909833E+03 0.  0.
    9000005    1    3    3    0    0  0.16223416692E+03  0.12278818133E+03 -0.50439930761E+03  0.54389017632E+03  0.99999687468E+00 0.  0.
          4    1    3    3  501    0  0.71738183490E+02 -0.30994522039E+02  0.64827752344E+02  0.10153651974E+03  0.00000000000E+00 0.  1.
   -9000007    1    1    2    0  502 -0.23397235041E+03 -0.91793659292E+02 -0.44325119600E+03  0.64779685041E+03  0.40000000000E+03 0.  1.
<mgrwt>
<rscale>  2 0.47255330E+03</rscale>
<asrwt>0</asrwt>
<pdfrwt beam="1">  1       21 0.31569293E-01 0.47260181E+03</pdfrwt>
<pdfrwt beam="2">  1       21 0.16738817E+00 0.47260181E+03</pdfrwt>
<totfact> 0.18118156E+03</totfact>
</mgrwt>
</event>
<event>
 6    1  0.9598567E-004  0.6088921E+03  0.7818608E-02  0.9887398E-01
         21   -1    0    0  503  502  0.00000000000E+00  0.00000000000E+00  0.33047236417E+03  0.33047236417E+03  0.00000000000E+00 0.  1.
         21   -1    0    0  501  503 -0.00000000000E+00 -0.00000000000E+00 -0.12469335911E+04  0.12469335911E+04  0.00000000000E+00 0. -1.
    9000007    2    1    2  501    0 -0.37099936472E+03 -0.27038685595E+03 -0.20730617768E+03  0.64271324406E+03  0.39919278838E+03 0.  0.
    9000005    1    3    3    0    0  0.36077965042E+02 -0.17398745696E+03 -0.12261592712E+03  0.21589099174E+03  0.99999687468E+00 0.  0.
          4    1    3    3  501    0 -0.40707732976E+03 -0.96399398996E+02 -0.84690250557E+02  0.42682225232E+03  0.00000000000E+00 0.  1.
   -9000007    1    1    2    0  502  0.37099936472E+03  0.27038685595E+03 -0.70915504925E+03  0.93469271120E+03  0.40000000000E+03 0. -1.
<mgrwt>
<rscale>  2 0.60875955E+03</rscale>
<asrwt>0</asrwt>
<pdfrwt beam="1">  1       21 0.50841902E-01 0.60889209E+03</pdfrwt>
<pdfrwt beam="2">  1       21 0.19183594E+00 0.60889209E+03</pdfrwt>
<totfact> 0.43042602E+02</totfact>
</mgrwt>
</event>
<event>
 6    1  0.9598567E-004  0.4055028E+03  0.7818608E-02  0.1041904E+00
         21   -1    0    0  503  502  0.00000000000E+00  0.00000000000E+00  0.71089246667E+02  0.71089246667E+02  0.00000000000E+00 0.  1.
         21   -1    0    0  501  503 -0.00000000000E+00 -0.00000000000E+00 -0.32115543037E+04  0.32115543037E+04  0.00000000000E+00 0.  1.
    9000007    2    1    2  501    0  0.66050120660E+02 -0.83586884977E+01 -0.24386023007E+04  0.24720611580E+04  0.39984084545E+03 0.  0.
    9000005    1    3    3    0    0 -0.28012736064E+02  0.18252120128E+03 -0.13783635670E+04  0.13906781889E+04  0.99999687468E+00 0.  0.
          4    1    3    3  501    0  0.94062856724E+02 -0.19087988978E+03 -0.10602387337E+04  0.10813829691E+04  0.00000000000E+00 0.  1.
   -9000007    1    1    2    0  502 -0.66050120660E+02  0.83586884977E+01 -0.70186275627E+03  0.81058239233E+03  0.40000000000E+03 0.  1.
<mgrwt>
<rscale>  2 0.40546350E+03</rscale>
<asrwt>0</asrwt>
<pdfrwt beam="1">  1       21 0.10936807E-01 0.40550276E+03</pdfrwt>
<pdfrwt beam="2">  1       21 0.49408529E+00 0.40550276E+03</pdfrwt>
<totfact> 0.11194308E+02</totfact>
</mgrwt>
</event>
<event>
 6    1  0.9598567E-004  0.4288116E+03  0.7818608E-02  0.1034353E+00
         21   -1    0    0  503  502  0.00000000000E+00  0.00000000000E+00  0.49151400170E+03  0.49151400170E+03  0.00000000000E+00 0.  1.
         21   -1    0    0  501  503 -0.00000000000E+00 -0.00000000000E+00 -0.57808385839E+03  0.57808385839E+03  0.00000000000E+00 0.  1.
    9000007    2    1    2  501    0 -0.47115313372E+02 -0.14282844466E+03 -0.36200559915E+03  0.56118398776E+03  0.40157140952E+03 0.  0.
    9000005    1    3    3    0    0 -0.59514802098E+01  0.10230492893E+03  0.20978560317E+02  0.10460792793E+03  0.99999687468E+00 0.  0.
          4    1    3    3  501    0 -0.41163833162E+02 -0.24513337358E+03 -0.38298415947E+03  0.45657605983E+03  0.00000000000E+00 0.  1.
   -9000007    1    1    2    0  502  0.47115313372E+02  0.14282844466E+03  0.27543574246E+03  0.50841387234E+03  0.40000000000E+03 0.  1.
<mgrwt>
<rscale>  2 0.42844335E+03</rscale>
<asrwt>0</asrwt>
<pdfrwt beam="1">  1       21 0.75617539E-01 0.42881163E+03</pdfrwt>
<pdfrwt beam="2">  1       21 0.88935978E-01 0.42881163E+03</pdfrwt>
<totfact> 0.14575458E+03</totfact>
</mgrwt>
</event>
<event>
 6    1  0.9598567E-004  0.4149633E+03  0.7818608E-02  0.1038749E+00
         21   -1    0    0  503  502  0.00000000000E+00  0.00000000000E+00  0.36411572954E+03  0.36411572954E+03  0.00000000000E+00 0.  1.
         21   -1    0    0  501  503 -0.00000000000E+00 -0.00000000000E+00 -0.48016148328E+03  0.48016148328E+03  0.00000000000E+00 0.  1.
    9000007    2    1    2  501    0  0.95591357666E+02  0.52385151091E+02 -0.46635090044E+01  0.41498952822E+03  0.40039061989E+03 0.  0.
    9000005    1    3    3    0    0 -0.76208608981E+01 -0.85171963143E+02  0.15711521793E+03  0.17888133644E+03  0.99999687468E+00 0.  0.
          4    1    3    3  501    0  0.10321221856E+03  0.13755711423E+03 -0.16177872693E+03  0.23610819178E+03  0.00000000000E+00 0.  1.
   -9000007    1    1    2    0  502 -0.95591357666E+02 -0.52385151091E+02 -0.11138224474E+03  0.42928768461E+03  0.40000000000E+03 0.  1.
<mgrwt>
<rscale>  2 0.41486907E+03</rscale>
<asrwt>0</asrwt>
<pdfrwt beam="1">  1       21 0.56017805E-01 0.41496332E+03</pdfrwt>
<pdfrwt beam="2">  1       21 0.73870997E-01 0.41496332E+03</pdfrwt>
<totfact> 0.43826191E+03</totfact>
</mgrwt>
</event>
<event>
 6    1  0.9598567E-004  0.5344707E+03  0.7818608E-02  0.1005234E+00
         21   -1    0    0  503  502  0.00000000000E+00  0.00000000000E+00  0.56879811714E+03  0.56879811714E+03  0.00000000000E+00 0.  1.
         21   -1    0    0  501  503 -0.00000000000E+00 -0.00000000000E+00 -0.52357829679E+03  0.52357829679E+03  0.00000000000E+00 0. -1.
    9000007    2    1    2  501    0  0.31120259353E+03 -0.16546971499E+03 -0.90895986360E+02  0.54214483212E+03  0.40178558692E+03 0.  0.
    9000005    1    3    3    0    0  0.57149400879E+02 -0.23154034736E+03 -0.13786509308E+03  0.27547190484E+03  0.99999687468E+00 0.  0.
          4    1    3    3  501    0  0.25405319265E+03  0.66070632365E+02  0.46969106715E+02  0.26667292728E+03  0.00000000000E+00 0.  1.
   -9000007    1    1    2    0  502 -0.31120259353E+03  0.16546971499E+03  0.13611580671E+03  0.55023158182E+03  0.40000000000E+03 0. -1.
<mgrwt>
<rscale>  2 0.53413514E+03</rscale>
<asrwt>0</asrwt>
<pdfrwt beam="1">  1       21 0.87507403E-01 0.53447071E+03</pdfrwt>
<pdfrwt beam="2">  1       21 0.80550507E-01 0.53447071E+03</pdfrwt>
<totfact> 0.12592458E+03</totfact>
</mgrwt>
</event>
<event>
 6    1  0.9598567E-004  0.4021357E+03  0.7818608E-02  0.1043052E+00
         21   -1    0    0  503  502  0.00000000000E+00  0.00000000000E+00  0.10872101300E+04  0.10872101300E+04  0.00000000000E+00 0.  1.
         21   -1    0    0  501  503 -0.00000000000E+00 -0.00000000000E+00 -0.26428633436E+03  0.26428633436E+03  0.00000000000E+00 0.  1.
    9000007    2    1    2  501    0  0.26505680628E+02 -0.30373244002E+02 -0.35395080054E+02  0.40369037796E+03  0.40011001551E+03 0.  0.
    9000005    1    3    3    0    0  0.80755542931E+01  0.17028469265E+03 -0.92893203993E+02  0.19414489040E+03  0.99999687468E+00 0.  0.
          4    1    3    3  501    0  0.18430126335E+02 -0.20065793665E+03  0.57498123940E+02  0.20954548756E+03  0.00000000000E+00 0.  1.
   -9000007    1    1    2    0  502 -0.26505680628E+02  0.30373244002E+02  0.85831887571E+03  0.94780608642E+03  0.40000000000E+03 0.  1.
<mgrwt>
<rscale>  2 0.40210832E+03</rscale>
<asrwt>0</asrwt>
<pdfrwt beam="1">  1       21 0.16726309E+00 0.40213569E+03</pdfrwt>
<pdfrwt beam="2">  1       21 0.40659437E-01 0.40213569E+03</pdfrwt>
<totfact> 0.11204454E+03</totfact>
</mgrwt>
</event>
<event>
 6    1  0.9598567E-004  0.4006259E+03  0.7818608E-02  0.1043575E+00
         21   -1    0    0  503  502  0.00000000000E+00  0.00000000000E+00  0.29240009376E+03  0.29240009376E+03  0.00000000000E+00 0. -1.
         21   -1    0    0  501  503 -0.00000000000E+00 -0.00000000000E+00 -0.67982785964E+03  0.67982785964E+03  0.00000000000E+00 0. -1.
    9000007    2    1    2  501    0 -0.80366044610E+01  0.20892949276E+02 -0.40716206137E+03  0.57111631712E+03  0.39986472852E+03 0.  0.
    9000005    1    3    3    0    0 -0.16826519520E+03 -0.85417220355E+02 -0.28985367809E+03  0.34586909684E+03  0.99999687468E+00 0.  0.
          4    1    3    3  501    0  0.16022859074E+03  0.10631016963E+03 -0.11730838328E+03  0.22524722028E+03  0.00000000000E+00 0.  1.
   -9000007    1    1    2    0  502  0.80366044610E+01 -0.20892949276E+02  0.19734295495E+02  0.40111163628E+03  0.40000000000E+03 0. -1.
<mgrwt>
<rscale>  2 0.40059212E+03</rscale>
<asrwt>0</asrwt>
<pdfrwt beam="1">  1       21 0.44984630E-01 0.40062589E+03</pdfrwt>
<pdfrwt beam="2">  1       21 0.10458890E+00 0.40062589E+03</pdfrwt>
<totfact> 0.30977053E+03</totfact>
</mgrwt>
</event>
<event>
 6    1  0.9598567E-004  0.4047007E+03  0.7818608E-02  0.1042178E+00
         21   -1    0    0  503  502  0.00000000000E+00  0.00000000000E+00  0.44364868604E+03  0.44364868604E+03  0.00000000000E+00 0.  1.
         21   -1    0    0  501  503 -0.00000000000E+00 -0.00000000000E+00 -0.42727288317E+03  0.42727288317E+03  0.00000000000E+00 0.  1.
    9000007    2    1    2  501    0  0.44115799515E+02  0.41255235671E+02 -0.15259856768E+03  0.43251475341E+03  0.40016807822E+03 0.  0.
    9000005    1    3    3    0    0  0.15291142342E+03  0.66405354615E+02  0.72073149326E+02  0.18162354853E+03  0.99999687468E+00 0.  0.
          4    1    3    3  501    0 -0.10879562391E+03 -0.25150118944E+02 -0.22467171701E+03  0.25089120488E+03  0.00000000000E+00 0.  1.
   -9000007    1    1    2    0  502 -0.44115799515E+02 -0.41255235671E+02  0.16897437055E+03  0.43840681580E+03  0.40000000000E+03 0.  1.
<mgrwt>
<rscale>  2 0.40465918E+03</rscale>
<asrwt>0</asrwt>
<pdfrwt beam="1">  1       21 0.68253644E-01 0.40470074E+03</pdfrwt>
<pdfrwt beam="2">  1       21 0.65734290E-01 0.40470074E+03</pdfrwt>
<totfact> 0.37030787E+03</totfact>
</mgrwt>
</event>
<event>
 6    1  0.9598567E-004  0.4303402E+03  0.7818608E-02  0.1034401E+00
         21   -1    0    0  503  502  0.00000000000E+00  0.00000000000E+00  0.20270446252E+03  0.20270446252E+03  0.00000000000E+00 0.  1.
         21   -1    0    0  501  503 -0.00000000000E+00 -0.00000000000E+00 -0.93097920224E+03  0.93097920224E+03  0.00000000000E+00 0.  1.
    9000007    2    1    2  501    0  0.52938315518E+02  0.14963368729E+03 -0.25157841191E+03  0.49147490232E+03  0.39123289311E+03 0.  0.
    9000005    1    3    3    0    0 -0.12296926950E+03  0.86850408985E+02 -0.26440182449E+03  0.30425936234E+03  0.99999687468E+00 0.  0.
          4    1    3    3  501    0  0.17590758501E+03  0.62783278304E+02  0.12823412582E+02  0.18721553998E+03  0.00000000000E+00 0.  1.
   -9000007    1    1    2    0  502 -0.52938315518E+02 -0.14963368729E+03 -0.47669632781E+03  0.64220876245E+03  0.40000000000E+03 0.  1.
<mgrwt>
<rscale>  2 0.42829148E+03</rscale>
<asrwt>0</asrwt>
<pdfrwt beam="1">  1       21 0.31185302E-01 0.43034022E+03</pdfrwt>
<pdfrwt beam="2">  1       21 0.14322757E+00 0.43034022E+03</pdfrwt>
<totfact> 0.28986086E+03</totfact>
</mgrwt>
</event>
<event>
 6    1  0.9598567E-004  0.5066638E+03  0.7818608E-02  0.1012190E+00
         21   -1    0    0  503  502  0.00000000000E+00  0.00000000000E+00  0.78786902197E+03  0.78786902197E+03  0.00000000000E+00 0.  1.
         21   -1    0    0  501  503 -0.00000000000E+00 -0.00000000000E+00 -0.33203133064E+03  0.33203133064E+03  0.00000000000E+00 0.  1.
    9000007    2    1    2  501    0 -0.28220658384E+03 -0.12216285678E+03  0.14385207119E+03  0.52668930524E+03  0.40267094051E+03 0.  0.
    9000005    1    3    3    0    0 -0.35005006737E+02 -0.12510511857E+03  0.23061251049E+03  0.26468806392E+03  0.99999687468E+00 0.  0.
          4    1    3    3  501    0 -0.24720157710E+03  0.29422617987E+01 -0.86760439305E+02  0.26200124132E+03  0.00000000000E+00 0.  1.
   -9000007    1    1    2    0  502  0.28220658384E+03  0.12216285678E+03  0.31198562014E+03  0.59321104736E+03  0.40000000000E+03 0.  1.
<mgrwt>
<rscale>  2 0.50613293E+03</rscale>
<asrwt>0</asrwt>
<pdfrwt beam="1">  1       21 0.12121062E+00 0.50666380E+03</pdfrwt>
<pdfrwt beam="2">  1       21 0.51081744E-01 0.50666380E+03</pdfrwt>
<totfact> 0.15745475E+03</totfact>
</mgrwt>
</event>
<event>
 6    1  0.9598567E-004  0.6354367E+03  0.7818608E-02  0.9834621E-01
         21   -1    0    0  503  502  0.00000000000E+00  0.00000000000E+00  0.10470712603E+04  0.10470712603E+04  0.00000000000E+00 0.  1.
         21   -1    0    0  501  503 -0.00000000000E+00 -0.00000000000E+00 -0.58066443442E+03  0.58066443442E+03  0.00000000000E+00 0.  1.
    9000007    2    1    2  501    0 -0.47294468626E+03 -0.14062234859E+03 -0.23863682015E+03  0.67876895980E+03  0.40041034911E+03 0.  0.
    9000005    1    3    3    0    0 -0.46201304447E+02  0.70403651961E+01  0.10261406841E+03  0.11275980801E+03  0.99999687468E+00 0.  0.
          4    1    3    3  501    0 -0.42674338182E+03 -0.14766271379E+03 -0.34125088856E+03  0.56600915179E+03  0.00000000000E+00 0.  1.
   -9000007    1    1    2    0  502  0.47294468626E+03  0.14062234859E+03  0.70504364606E+03  0.94896673495E+03  0.40000000000E+03 0.  1.
<mgrwt>
<rscale>  2 0.63537204E+03</rscale>
<asrwt>0</asrwt>
<pdfrwt beam="1">  1       21 0.16108789E+00 0.63543668E+03</pdfrwt>
<pdfrwt beam="2">  1       21 0.89332990E-01 0.63543668E+03</pdfrwt>
<totfact> 0.19931432E+02</totfact>
</mgrwt>
</event>
<event>
 6    1  0.9598567E-004  0.5180944E+03  0.7818608E-02  0.1009179E+00
         21   -1    0    0  503  502  0.00000000000E+00  0.00000000000E+00  0.61297567441E+03  0.61297567441E+03  0.00000000000E+00 0. -1.
         21   -1    0    0  501  503 -0.00000000000E+00 -0.00000000000E+00 -0.67402884723E+03  0.67402884723E+03  0.00000000000E+00 0. -1.
    9000007    2    1    2  501    0  0.68276601941E+02 -0.32165197025E+03 -0.41160741514E+03  0.66169662856E+03  0.40037492393E+03 0.  0.
    9000005    1    3    3    0    0  0.11407832751E+03 -0.11899384589E+03 -0.42262357733E+03  0.45363541338E+03  0.99999687468E+00 0.  0.
          4    1    3    3  501    0 -0.45801725572E+02 -0.20265812435E+03  0.11016162190E+02  0.20806121517E+03  0.00000000000E+00 0.  1.
   -9000007    1    1    2    0  502 -0.68276601941E+02  0.32165197025E+03  0.35055424232E+03  0.62530789307E+03  0.40000000000E+03 0. -1.
<mgrwt>
<rscale>  2 0.51802192E+03</rscale>
<asrwt>0</asrwt>
<pdfrwt beam="1">  1       21 0.94303950E-01 0.51809436E+03</pdfrwt>
<pdfrwt beam="2">  1       21 0.10369675E+00 0.51809436E+03</pdfrwt>
<totfact> 0.57970064E+02</totfact>
</mgrwt>
</event>
<event>
 6    1  0.9598567E-004  0.5158679E+03  0.7818608E-02  0.1009771E+00
         21   -1    0    0  503  502  0.00000000000E+00  0.00000000000E+00  0.38342168760E+03  0.38342168760E+03  0.00000000000E+00 0.  1.
         21   -1    0    0  501  503 -0.00000000000E+00 -0.00000000000E+00 -0.84393075646E+03  0.84393075646E+03  0.00000000000E+00 0.  1.
    9000007    2    1    2  501    0  0.13036599459E+03  0.29853704556E+03 -0.48968437966E+03  0.71066021566E+03  0.39890787198E+03 0.  0.
    9000005    1    3    3    0    0  0.15158823821E+03  0.33598909529E+02 -0.20364810686E+01  0.15528370144E+03  0.99999687468E+00 0.  0.
          4    1    3    3  501    0 -0.21222243615E+02  0.26493813603E+03 -0.48764789860E+03  0.55537651422E+03  0.00000000000E+00 0.  1.
   -9000007    1    1    2    0  502 -0.13036599459E+03 -0.29853704556E+03  0.29175310804E+02  0.51669222839E+03  0.40000000000E+03 0.  1.
<mgrwt>
<rscale>  2 0.51565615E+03</rscale>
<asrwt>0</asrwt>
<pdfrwt beam="1">  1       21 0.58987953E-01 0.51586787E+03</pdfrwt>
<pdfrwt beam="2">  1       21 0.12983550E+00 0.51586787E+03</pdfrwt>
<totfact> 0.96232957E+02</totfact>
</mgrwt>
</event>
<event>
 6    1  0.9598567E-004  0.4668369E+03  0.7818608E-02  0.1022873E+00
         21   -1    0    0  503  502  0.00000000000E+00  0.00000000000E+00  0.20731311583E+03  0.20731311583E+03  0.00000000000E+00 0.  1.
         21   -1    0    0  501  503 -0.00000000000E+00 -0.00000000000E+00 -0.11543222583E+04  0.11543222583E+04  0.00000000000E+00 0.  1.
    9000007    2    1    2  501    0 -0.24069302123E+03  0.18965278664E+01 -0.67833516802E+03  0.82300523030E+03  0.39907678665E+03 0.  0.
    9000005    1    3    3    0    0 -0.16541833646E+03 -0.15438911014E+03 -0.16194141338E+03  0.27825392132E+03  0.99999687468E+00 0.  0.
          4    1    3    3  501    0 -0.75274684776E+02  0.15628563801E+03 -0.51639375463E+03  0.54475130898E+03  0.00000000000E+00 0.  1.
   -9000007    1    1    2    0  502  0.24069302123E+03 -0.18965278664E+01 -0.26867397445E+03  0.53863014382E+03  0.40000000000E+03 0.  1.
<mgrwt>
<rscale>  2 0.46663911E+03</rscale>
<asrwt>0</asrwt>
<pdfrwt beam="1">  1       21 0.31894326E-01 0.46683694E+03</pdfrwt>
<pdfrwt beam="2">  1       21 0.17758804E+00 0.46683694E+03</pdfrwt>
<totfact> 0.15012764E+03</totfact>
</mgrwt>
</event>
<event>
 6    1  0.9598567E-004  0.4574610E+03  0.7818608E-02  0.1025829E+00
         21   -1    0    0  503  502  0.00000000000E+00  0.00000000000E+00  0.59347381165E+03  0.59347381165E+03  0.00000000000E+00 0. -1.
         21   -1    0    0  501  503 -0.00000000000E+00 -0.00000000000E+00 -0.35728551647E+03  0.35728551647E+03  0.00000000000E+00 0.  1.
    9000007    2    1    2  501    0  0.22043384442E+03 -0.26066641329E+02  0.18824634759E+03  0.49079304686E+03  0.39518423288E+03 0.  0.
    9000005    1    3    3    0    0  0.14183089740E+03  0.50824048803E+02  0.29894436177E+03  0.33476531903E+03  0.99999687468E+00 0.  0.
          4    1    3    3  501    0  0.78602947019E+02 -0.76890690132E+02 -0.11069801418E+03  0.15602772784E+03  0.00000000000E+00 0.  1.
   -9000007    1    1    2    0  502 -0.22043384442E+03  0.26066641329E+02  0.47941947596E+02  0.45996628126E+03  0.40000000000E+03 0.  1.
<mgrwt>
<rscale>  2 0.45640613E+03</rscale>
<asrwt>0</asrwt>
<pdfrwt beam="1">  1       21 0.91303664E-01 0.45746098E+03</pdfrwt>
<pdfrwt beam="2">  1       21 0.54967002E-01 0.45746098E+03</pdfrwt>
<totfact> 0.27494611E+03</totfact>
</mgrwt>
</event>
<event>
 6    1  0.9598567E-004  0.5817328E+03  0.7818608E-02  0.9944343E-01
         21   -1    0    0  503  502  0.00000000000E+00  0.00000000000E+00  0.57024291101E+03  0.57024291101E+03  0.00000000000E+00 0. -1.
         21   -1    0    0  501  503 -0.00000000000E+00 -0.00000000000E+00 -0.13024061679E+04  0.13024061679E+04  0.00000000000E+00 0. -1.
    9000007    2    1    2  501    0  0.10621875308E+03 -0.40803383356E+03 -0.10572480631E+04  0.12067255366E+04  0.40079798018E+03 0.  0.
    9000005    1    3    3    0    0 -0.80399614943E+02 -0.12363335831E+03 -0.69228045123E+03  0.70781532091E+03  0.99999687468E+00 0.  0.
          4    1    3    3  501    0  0.18661836802E+03 -0.28440047525E+03 -0.36496761190E+03  0.49891021571E+03  0.00000000000E+00 0.  1.
   -9000007    1    1    2    0  502 -0.10621875308E+03  0.40803383356E+03  0.32508480629E+03  0.66592354224E+03  0.40000000000E+03 0. -1.
<mgrwt>
<rscale>  2 0.58159538E+03</rscale>
<asrwt>0</asrwt>
<pdfrwt beam="1">  1       21 0.87729680E-01 0.58173280E+03</pdfrwt>
<pdfrwt beam="2">  1       21 0.20037018E+00 0.58173280E+03</pdfrwt>
<totfact> 0.11146034E+02</totfact>
</mgrwt>
</event>
<event>
 6    1  0.9598567E-004  0.4020856E+03  0.7818608E-02  0.1043521E+00
         21   -1    0    0  503  502  0.00000000000E+00  0.00000000000E+00  0.35209718175E+03  0.35209718175E+03  0.00000000000E+00 0. -1.
         21   -1    0    0  501  503 -0.00000000000E+00 -0.00000000000E+00 -0.56198062079E+03  0.56198062079E+03  0.00000000000E+00 0. -1.
    9000007    2    1    2  501    0 -0.24060361374E+02 -0.33074816037E+02 -0.30553177344E+03  0.50077228804E+03  0.39465222087E+03 0.  0.
    9000005    1    3    3    0    0 -0.19647737083E+03 -0.45313220513E+02 -0.80725281609E+02  0.21719626214E+03  0.99999687468E+00 0.  0.
          4    1    3    3  501    0  0.17241700946E+03  0.12238404476E+02 -0.22480649183E+03  0.28357602590E+03  0.00000000000E+00 0.  1.
   -9000007    1    1    2    0  502  0.24060361374E+02  0.33074816037E+02  0.95648334394E+02  0.41330551450E+03  0.40000000000E+03 0. -1.
<mgrwt>
<rscale>  2 0.40074905E+03</rscale>
<asrwt>0</asrwt>
<pdfrwt beam="1">  1       21 0.54168797E-01 0.40208562E+03</pdfrwt>
<pdfrwt beam="2">  1       21 0.86458557E-01 0.40208562E+03</pdfrwt>
<totfact> 0.32943023E+03</totfact>
</mgrwt>
</event>
<event>
 6    1  0.9598567E-004  0.5593599E+03  0.7818608E-02  0.9993900E-01
         21   -1    0    0  503  502  0.00000000000E+00  0.00000000000E+00  0.70323465348E+03  0.70323465348E+03  0.00000000000E+00 0. -1.
         21   -1    0    0  501  503 -0.00000000000E+00 -0.00000000000E+00 -0.56654821837E+03  0.56654821837E+03  0.00000000000E+00 0. -1.
    9000007    2    1    2  501    0 -0.34754087267E+03  0.17916148656E+03  0.36314987365E+03  0.66631855191E+03  0.39902266282E+03 0.  0.
    9000005    1    3    3    0    0 -0.21697183285E+03 -0.94228369454E+02  0.24657486514E+03  0.34169566279E+03  0.99999687468E+00 0.  0.
          4    1    3    3  501    0 -0.13056903982E+03  0.27338985602E+03  0.11657500852E+03  0.32462288912E+03  0.00000000000E+00 0.  1.
   -9000007    1    1    2    0  502  0.34754087267E+03 -0.17916148656E+03 -0.22646343854E+03  0.60346431994E+03  0.40000000000E+03 0. -1.
<mgrwt>
<rscale>  2 0.55918520E+03</rscale>
<asrwt>0</asrwt>
<pdfrwt beam="1">  1       21 0.10818995E+00 0.55935990E+03</pdfrwt>
<pdfrwt beam="2">  1       21 0.87161264E-01 0.55935990E+03</pdfrwt>
<totfact> 0.62028917E+02</totfact>
</mgrwt>
</event>
<event>
 6    1  0.9598567E-004  0.4107717E+03  0.7818608E-02  0.1040149E+00
         21   -1    0    0  503  502  0.00000000000E+00  0.00000000000E+00  0.17222492097E+03  0.17222492097E+03  0.00000000000E+00 0. -1.
         21   -1    0    0  501  503 -0.00000000000E+00 -0.00000000000E+00 -0.12173462497E+04  0.12173462497E+04  0.00000000000E+00 0. -1.
    9000007    2    1    2  501    0  0.37854889459E+02  0.85442241471E+02 -0.82997374503E+03  0.92586668279E+03  0.39954890512E+03 0.  0.
    9000005    1    3    3    0    0 -0.90368028768E+02  0.15993458397E+03 -0.71501054077E+03  0.73823202665E+03  0.99999687468E+00 0.  0.
          4    1    3    3  501    0  0.12822291823E+03 -0.74492342501E+02 -0.11496320426E+03  0.18763465614E+03  0.00000000000E+00 0.  1.
   -9000007    1    1    2    0  502 -0.37854889459E+02 -0.85442241471E+02 -0.21514758366E+03  0.46370448784E+03  0.40000000000E+03 0. -1.
<mgrwt>
<rscale>  2 0.41066182E+03</rscale>
<asrwt>0</asrwt>
<pdfrwt beam="1">  1       21 0.26496142E-01 0.41077168E+03</pdfrwt>
<pdfrwt beam="2">  1       21 0.18728404E+00 0.41077168E+03</pdfrwt>
<totfact> 0.18992750E+03</totfact>
</mgrwt>
</event>
<event>
 6    1  0.9598567E-004  0.5416438E+03  0.7818608E-02  0.1003522E+00
         21   -1    0    0  503  502  0.00000000000E+00  0.00000000000E+00  0.27945862074E+03  0.27945862074E+03  0.00000000000E+00 0. -1.
         21   -1    0    0  501  503 -0.00000000000E+00 -0.00000000000E+00 -0.12442338882E+04  0.12442338882E+04  0.00000000000E+00 0. -1.
    9000007    2    1    2  501    0 -0.35858204729E+03  0.69259649612E+02 -0.78497493157E+03  0.95298580273E+03  0.39826914683E+03 0.  0.
    9000005    1    3    3    0    0 -0.29764259053E+03 -0.68063800728E+02 -0.24197533216E+03  0.38958549002E+03  0.99999687468E+00 0.  0.
          4    1    3    3  501    0 -0.60939456758E+02  0.13732345034E+03 -0.54299959941E+03  0.56340031271E+03  0.00000000000E+00 0.  1.
   -9000007    1    1    2    0  502  0.35858204729E+03 -0.69259649612E+02 -0.17980033587E+03  0.57070670619E+03  0.40000000000E+03 0. -1.
<mgrwt>
<rscale>  2 0.54132426E+03</rscale>
<asrwt>0</asrwt>
<pdfrwt beam="1">  1       21 0.42993634E-01 0.54164378E+03</pdfrwt>
<pdfrwt beam="2">  1       21 0.19142060E+00 0.54164378E+03</pdfrwt>
<totfact> 0.63360944E+02</totfact>
</mgrwt>
</event>
<event>
 6    1  0.9598567E-004  0.5307405E+03  0.7818608E-02  0.1006062E+00
         21   -1    0    0  503  502  0.00000000000E+00  0.00000000000E+00  0.13526862025E+03  0.13526862025E+03  0.00000000000E+00 0. -1.
         21   -1    0    0  501  503 -0.00000000000E+00 -0.00000000000E+00 -0.23285556265E+04  0.23285556265E+04  0.00000000000E+00 0. -1.
    9000007    2    1    2  501    0 -0.93754375735E+02  0.33599936856E+03 -0.69548049144E+03  0.87476483488E+03  0.39979362642E+03 0.  0.
    9000005    1    3    3    0    0 -0.10887057032E+03  0.39364250224E+03 -0.70466427614E+03  0.81446912939E+03  0.99999687468E+00 0.  0.
          4    1    3    3  501    0  0.15116194586E+02 -0.57643133683E+02  0.91837847039E+01  0.60295705494E+02  0.00000000000E+00 0.  1.
   -9000007    1    1    2    0  502  0.93754375735E+02 -0.33599936856E+03 -0.14978065148E+04  0.15890594118E+04  0.40000000000E+03 0. -1.
<mgrwt>
<rscale>  2 0.53070160E+03</rscale>
<asrwt>0</asrwt>
<pdfrwt beam="1">  1       21 0.20810557E-01 0.53074048E+03</pdfrwt>
<pdfrwt beam="2">  1       21 0.35823933E+00 0.53074048E+03</pdfrwt>
<totfact> 0.24717105E+02</totfact>
</mgrwt>
</event>
<event>
 6    1  0.9598567E-004  0.4390137E+03  0.7818608E-02  0.1031594E+00
         21   -1    0    0  503  502  0.00000000000E+00  0.00000000000E+00  0.47578674975E+03  0.47578674975E+03  0.00000000000E+00 0. -1.
         21   -1    0    0  501  503 -0.00000000000E+00 -0.00000000000E+00 -0.67145732198E+03  0.67145732198E+03  0.00000000000E+00 0. -1.
    9000007    2    1    2  501    0  0.39969884711E+02  0.15820923044E+03 -0.46393405794E+03  0.63872361978E+03  0.40756017969E+03 0.  0.
    9000005    1    3    3    0    0  0.17701062338E+03 -0.30007660501E+02 -0.31429549279E+03  0.36196115436E+03  0.99999687468E+00 0.  0.
          4    1    3    3  501    0 -0.13704073867E+03  0.18821689094E+03 -0.14963856514E+03  0.27676246543E+03  0.00000000000E+00 0.  1.
   -9000007    1    1    2    0  502 -0.39969884711E+02 -0.15820923044E+03  0.26826348571E+03  0.50852045194E+03  0.40000000000E+03 0. -1.
<mgrwt>
<rscale>  2 0.43725079E+03</rscale>
<asrwt>0</asrwt>
<pdfrwt beam="1">  1       21 0.73197961E-01 0.43901373E+03</pdfrwt>
<pdfrwt beam="2">  1       21 0.10330113E+00 0.43901373E+03</pdfrwt>
<totfact> 0.10907255E+03</totfact>
</mgrwt>
</event>
<event>
 6    1  0.9598567E-004  0.7736460E+03  0.7818608E-02  0.9598994E-01
         21   -1    0    0  503  502  0.00000000000E+00  0.00000000000E+00  0.52841958211E+03  0.52841958211E+03  0.00000000000E+00 0. -1.
         21   -1    0    0  501  503 -0.00000000000E+00 -0.00000000000E+00 -0.11516514893E+04  0.11516514893E+04  0.00000000000E+00 0.  1.
    9000007    2    1    2  501    0  0.12685643537E+03 -0.64995047740E+03 -0.41972661348E+03  0.88010695794E+03  0.39986203756E+03 0.  0.
    9000005    1    3    3    0    0  0.15723933165E+03 -0.69862038742E+03 -0.38479300052E+03  0.81293376506E+03  0.99999687468E+00 0.  0.
          4    1    3    3  501    0 -0.30382896280E+02  0.48669910016E+02 -0.34933612967E+02  0.67173192884E+02  0.00000000000E+00 0.  1.
   -9000007    1    1    2    0  502 -0.12685643537E+03  0.64995047740E+03 -0.20350529371E+03  0.79996411347E+03  0.40000000000E+03 0.  1.
<mgrwt>
<rscale>  2 0.77362820E+03</rscale>
<asrwt>0</asrwt>
<pdfrwt beam="1">  1       21 0.81295321E-01 0.77364603E+03</pdfrwt>
<pdfrwt beam="2">  1       21 0.17717715E+00 0.77364603E+03</pdfrwt>
<totfact> 0.18103468E+02</totfact>
</mgrwt>
</event>
<event>
 6    1  0.9598567E-004  0.4926452E+03  0.7818608E-02  0.1015761E+00
         21   -1    0    0  503  502  0.00000000000E+00  0.00000000000E+00  0.42604918218E+03  0.42604918218E+03  0.00000000000E+00 0.  1.
         21   -1    0    0  501  503 -0.00000000000E+00 -0.00000000000E+00 -0.57037569597E+03  0.57037569597E+03  0.00000000000E+00 0.  1.
    9000007    2    1    2  501    0 -0.12881556876E+02  0.28612876651E+03 -0.97795778982E+02  0.50225819088E+03  0.40082872949E+03 0.  0.
    9000005    1    3    3    0    0  0.74507514552E+02  0.14223232071E+03  0.13855026562E+03  0.21208153827E+03  0.99999687468E+00 0.  0.
          4    1    3    3  501    0 -0.87389071428E+02  0.14389644580E+03 -0.23634604460E+03  0.29017665260E+03  0.00000000000E+00 0.  1.
   -9000007    1    1    2    0  502  0.12881556876E+02 -0.28612876651E+03 -0.46530734804E+02  0.49416668727E+03  0.40000000000E+03 0.  1.
<mgrwt>
<rscale>  2 0.49247659E+03</rscale>
<asrwt>0</asrwt>
<pdfrwt beam="1">  1       21 0.65546028E-01 0.49264518E+03</pdfrwt>
<pdfrwt beam="2">  1       21 0.87750107E-01 0.49264518E+03</pdfrwt>
<totfact> 0.20276446E+03</totfact>
</mgrwt>
</event>
<event>
 6    1  0.9598567E-004  0.4273262E+03  0.7818608E-02  0.1034717E+00
         21   -1    0    0  503  502  0.00000000000E+00  0.00000000000E+00  0.39327847057E+03  0.39327847057E+03  0.00000000000E+00 0. -1.
         21   -1    0    0  501  503 -0.00000000000E+00 -0.00000000000E+00 -0.51631532912E+03  0.51631532912E+03  0.00000000000E+00 0. -1.
    9000007    2    1    2  501    0 -0.10355025344E+03  0.10856789519E+03  0.82970026341E+02  0.43530646118E+03  0.40012254001E+03 0.  0.
    9000005    1    3    3    0    0 -0.51651101423E+02  0.69728512084E+02  0.24546788155E+03  0.26035626081E+03  0.99999687468E+00 0.  0.
          4    1    3    3  501    0 -0.51899152016E+02  0.38839383105E+02 -0.16249785521E+03  0.17495020037E+03  0.00000000000E+00 0.  1.
   -9000007    1    1    2    0  502  0.10355025344E+03 -0.10856789519E+03 -0.20600688489E+03  0.47428733851E+03  0.40000000000E+03 0. -1.
<mgrwt>
<rscale>  2 0.42729752E+03</rscale>
<asrwt>0</asrwt>
<pdfrwt beam="1">  1       21 0.60504380E-01 0.42732621E+03</pdfrwt>
<pdfrwt beam="2">  1       21 0.79433127E-01 0.42732621E+03</pdfrwt>
<totfact> 0.31247906E+03</totfact>
</mgrwt>
</event>
<event>
 6    1  0.9598567E-004  0.4098097E+03  0.7818608E-02  0.1040468E+00
         21   -1    0    0  503  502  0.00000000000E+00  0.00000000000E+00  0.43795404235E+03  0.43795404235E+03  0.00000000000E+00 0.  1.
         21   -1    0    0  501  503 -0.00000000000E+00 -0.00000000000E+00 -0.78712618215E+03  0.78712618215E+03  0.00000000000E+00 0.  1.
    9000007    2    1    2  501    0 -0.64016040625E+02  0.59319911043E+02 -0.61347822056E+03  0.73776655792E+03  0.40040861827E+03 0.  0.
    9000005    1    3    3    0    0  0.47753644780E+00 -0.16177592769E+03 -0.15187449577E+03  0.22189759187E+03  0.99999687468E+00 0.  0.
          4    1    3    3  501    0 -0.64493577073E+02  0.22109583873E+03 -0.46160372479E+03  0.51586896605E+03  0.00000000000E+00 0.  1.
   -9000007    1    1    2    0  502  0.64016040625E+02 -0.59319911043E+02  0.26430608076E+03  0.48731366657E+03  0.40000000000E+03 0.  1.
<mgrwt>
<rscale>  2 0.40970983E+03</rscale>
<asrwt>0</asrwt>
<pdfrwt beam="1">  1       21 0.67377545E-01 0.40980967E+03</pdfrwt>
<pdfrwt beam="2">  1       21 0.12109634E+00 0.40980967E+03</pdfrwt>
<totfact> 0.89636592E+02</totfact>
</mgrwt>
</event>
<event>
 6    1  0.9598567E-004  0.6096956E+03  0.7818608E-02  0.9886402E-01
         21   -1    0    0  503  502  0.00000000000E+00  0.00000000000E+00  0.11796222989E+04  0.11796222989E+04  0.00000000000E+00 0.  1.
         21   -1    0    0  501  503 -0.00000000000E+00 -0.00000000000E+00 -0.34683129460E+03  0.34683129460E+03  0.00000000000E+00 0. -1.
    9000007    2    1    2  501    0 -0.76199612000E+02 -0.45378673704E+03  0.64993950039E+03  0.88992908019E+03  0.39727022293E+03 0.  0.
    9000005    1    3    3    0    0  0.44304686306E+02 -0.87408092374E+02 -0.34836075570E+02  0.10400784584E+03  0.99999687468E+00 0.  0.
          4    1    3    3  501    0 -0.12050429831E+03 -0.36637864466E+03  0.68477557596E+03  0.78592123436E+03  0.00000000000E+00 0.  1.
   -9000007    1    1    2    0  502  0.76199612000E+02  0.45378673704E+03  0.18285150394E+03  0.63652451333E+03  0.40000000000E+03 0.  1.
<mgrwt>
<rscale>  2 0.60924830E+03</rscale>
<asrwt>0</asrwt>
<pdfrwt beam="1">  1       21 0.18148035E+00 0.60969565E+03</pdfrwt>
<pdfrwt beam="2">  1       21 0.53358661E-01 0.60969565E+03</pdfrwt>
<totfact> 0.45805574E+02</totfact>
</mgrwt>
</event>
<event>
 6    1  0.9598567E-004  0.4717961E+03  0.7818608E-02  0.1021482E+00
         21   -1    0    0  503  502  0.00000000000E+00  0.00000000000E+00  0.21452258818E+03  0.21452258818E+03  0.00000000000E+00 0. -1.
         21   -1    0    0  501  503 -0.00000000000E+00 -0.00000000000E+00 -0.10412412273E+04  0.10412412273E+04  0.00000000000E+00 0. -1.
    9000007    2    1    2  501    0 -0.24933310389E+03 -0.20606067062E+02 -0.36630550101E+03  0.59654316621E+03  0.39886391461E+03 0.  0.
    9000005    1    3    3    0    0  0.62462941299E+02 -0.12431718548E+03 -0.78604962331E+02  0.15980025575E+03  0.99999687468E+00 0.  0.
          4    1    3    3  501    0 -0.31179604519E+03  0.10371111841E+03 -0.28770053868E+03  0.43674291046E+03  0.00000000000E+00 0.  1.
   -9000007    1    1    2    0  502  0.24933310389E+03  0.20606067062E+02 -0.46041313812E+03  0.65922064929E+03  0.40000000000E+03 0.  1.
<mgrwt>
<rscale>  2 0.47155526E+03</rscale>
<asrwt>0</asrwt>
<pdfrwt beam="1">  1       21 0.33003476E-01 0.47179615E+03</pdfrwt>
<pdfrwt beam="2">  1       21 0.16019096E+00 0.47179615E+03</pdfrwt>
<totfact> 0.18760969E+03</totfact>
</mgrwt>
</event>
<event>
 6    1  0.9598567E-004  0.4304205E+03  0.7818608E-02  0.1033997E+00
         21   -1    0    0  503  502  0.00000000000E+00  0.00000000000E+00  0.83384190031E+03  0.83384190031E+03  0.00000000000E+00 0.  1.
         21   -1    0    0  501  503 -0.00000000000E+00 -0.00000000000E+00 -0.36342564702E+03  0.36342564702E+03  0.00000000000E+00 0.  1.
    9000007    2    1    2  501    0 -0.13311823026E+03  0.86841052744E+02 -0.14086811288E+03  0.44965106276E+03  0.39633372472E+03 0.  0.
    9000005    1    3    3    0    0  0.50826743828E+02  0.15706098702E+03 -0.18492414698E+03  0.24788999912E+03  0.99999687468E+00 0.  0.
          4    1    3    3  501    0 -0.18394497409E+03 -0.70219934280E+02  0.44056034099E+02  0.20176106365E+03  0.00000000000E+00 0.  1.
   -9000007    1    1    2    0  502  0.13311823026E+03 -0.86841052744E+02  0.61128436617E+03  0.74761648456E+03  0.40000000000E+03 0.  1.
<mgrwt>
<rscale>  2 0.42956674E+03</rscale>
<asrwt>0</asrwt>
<pdfrwt beam="1">  1       21 0.12828337E+00 0.43042053E+03</pdfrwt>
<pdfrwt beam="2">  1       21 0.55911638E-01 0.43042053E+03</pdfrwt>
<totfact> 0.11541368E+03</totfact>
</mgrwt>
</event>
<event>
 6    1  0.9598567E-004  0.4412197E+03  0.7818608E-02  0.1030383E+00
         21   -1    0    0  503  502  0.00000000000E+00  0.00000000000E+00  0.11546154369E+04  0.11546154369E+04  0.00000000000E+00 0.  1.
         21   -1    0    0  501  503 -0.00000000000E+00 -0.00000000000E+00 -0.18309024298E+03  0.18309024298E+03  0.00000000000E+00 0.  1.
    9000007    2    1    2  501    0 -0.14138683267E+02  0.18567429031E+03  0.29726139622E+03  0.53191010199E+03  0.39986144409E+03 0.  0.
    9000005    1    3    3    0    0  0.36329006063E+02  0.23053878354E+03  0.36694469338E+03  0.43487622996E+03  0.99999687468E+00 0.  0.
          4    1    3    3  501    0 -0.50467689330E+02 -0.44864493224E+02 -0.69683297157E+02  0.97033872031E+02  0.00000000000E+00 0.  1.
   -9000007    1    1    2    0  502  0.14138683267E+02 -0.18567429031E+03  0.67426379765E+03  0.80579557784E+03  0.40000000000E+03 0.  1.
<mgrwt>
<rscale>  2 0.44118832E+03</rscale>
<asrwt>0</asrwt>
<pdfrwt beam="1">  1       21 0.17763314E+00 0.44121972E+03</pdfrwt>
<pdfrwt beam="2">  1       21 0.28167730E-01 0.44121972E+03</pdfrwt>
<totfact> 0.19409174E+03</totfact>
</mgrwt>
</event>
<event>
 6    1  0.9598567E-004  0.4026888E+03  0.7818608E-02  0.1042862E+00
         21   -1    0    0  503  502  0.00000000000E+00  0.00000000000E+00  0.79969775537E+03  0.79969775537E+03  0.00000000000E+00 0. -1.
         21   -1    0    0  501  503 -0.00000000000E+00 -0.00000000000E+00 -0.44342943906E+03  0.44342943906E+03  0.00000000000E+00 0. -1.
    9000007    2    1    2  501    0 -0.38279888705E+02 -0.26322775526E+02 -0.27983259137E+03  0.49027753936E+03  0.39988441832E+03 0.  0.
    9000005    1    3    3    0    0 -0.71027786380E+02  0.17171583305E+03 -0.66530974067E+02  0.19737944235E+03  0.99999687468E+00 0.  0.
          4    1    3    3  501    0  0.32747897675E+02 -0.19803860858E+03 -0.21330161730E+03  0.29289809701E+03  0.00000000000E+00 0.  1.
   -9000007    1    1    2    0  502  0.38279888705E+02  0.26322775526E+02  0.63610090768E+03  0.75284965507E+03  0.40000000000E+03 0. -1.
<mgrwt>
<rscale>  2 0.40266006E+03</rscale>
<asrwt>0</asrwt>
<pdfrwt beam="1">  1       21 0.12303042E+00 0.40268876E+03</pdfrwt>
<pdfrwt beam="2">  1       21 0.68219914E-01 0.40268876E+03</pdfrwt>
<totfact> 0.84018691E+02</totfact>
</mgrwt>
</event>
<event>
 6    1  0.9598567E-004  0.4497665E+03  0.7818608E-02  0.1027801E+00
         21   -1    0    0  503  502  0.00000000000E+00  0.00000000000E+00  0.48092598554E+03  0.48092598554E+03  0.00000000000E+00 0.  1.
         21   -1    0    0  501  503 -0.00000000000E+00 -0.00000000000E+00 -0.45529455560E+03  0.45529455560E+03  0.00000000000E+00 0.  1.
    9000007    2    1    2  501    0 -0.92628175500E+02  0.18328864380E+03 -0.11657818128E+03  0.46462932052E+03  0.40014400820E+03 0.  0.
    9000005    1    3    3    0    0  0.95357927749E+02  0.46741306798E+01  0.91433977925E+02  0.13219740616E+03  0.99999687468E+00 0.  0.
          4    1    3    3  501    0 -0.18798610325E+03  0.17861451312E+03 -0.20801215921E+03  0.33243191436E+03  0.00000000000E+00 0.  1.
   -9000007    1    1    2    0  502  0.92628175500E+02 -0.18328864380E+03  0.14220961122E+03  0.47159122062E+03  0.40000000000E+03 0.  1.
<mgrwt>
<rscale>  2 0.44973450E+03</rscale>
<asrwt>0</asrwt>
<pdfrwt beam="1">  1       21 0.73988613E-01 0.44976653E+03</pdfrwt>
<pdfrwt beam="2">  1       21 0.70045316E-01 0.44976653E+03</pdfrwt>
<totfact> 0.26337639E+03</totfact>
</mgrwt>
</event>
<event>
 6    1  0.9598567E-004  0.4826376E+03  0.7818608E-02  0.1018413E+00
         21   -1    0    0  503  502  0.00000000000E+00  0.00000000000E+00  0.89183624794E+03  0.89183624794E+03  0.00000000000E+00 0. -1.
         21   -1    0    0  501  503 -0.00000000000E+00 -0.00000000000E+00 -0.90765302684E+03  0.90765302684E+03  0.00000000000E+00 0.  1.
    9000007    2    1    2  501    0  0.26972771660E+03 -0.13639559975E+02 -0.76724211563E+03  0.90641642479E+03  0.39998899040E+03 0.  0.
    9000005    1    3    3    0    0  0.34556010930E+03  0.62005765135E+02 -0.44487042373E+03  0.56671615289E+03  0.99999687468E+00 0.  0.
          4    1    3    3  501    0 -0.75832392693E+02 -0.75645325110E+02 -0.32237169190E+03  0.33970027190E+03  0.00000000000E+00 0.  1.
   -9000007    1    1    2    0  502 -0.26972771660E+03  0.13639559975E+02  0.75142533673E+03  0.89307284998E+03  0.40000000000E+03 0. -1.
<mgrwt>
<rscale>  2 0.48263535E+03</rscale>
<asrwt>0</asrwt>
<pdfrwt beam="1">  1       21 0.13720558E+00 0.48263763E+03</pdfrwt>
<pdfrwt beam="2">  1       21 0.13963893E+00 0.48263763E+03</pdfrwt>
<totfact> 0.10729843E+02</totfact>
</mgrwt>
</event>
<event>
 6    1  0.9598567E-004  0.8481245E+03  0.7818608E-02  0.9493154E-01
         21   -1    0    0  503  502  0.00000000000E+00  0.00000000000E+00  0.77173207201E+03  0.77173207201E+03  0.00000000000E+00 0.  1.
         21   -1    0    0  501  503 -0.00000000000E+00 -0.00000000000E+00 -0.14058098630E+04  0.14058098630E+04  0.00000000000E+00 0.  1.
    9000007    2    1    2  501    0 -0.68044515987E+03  0.31033771196E+03  0.31574607379E+03  0.90416827219E+03  0.39813260387E+03 0.  0.
    9000005    1    3    3    0    0  0.39805543810E+02  0.71929529781E+02  0.66022564422E+02  0.10544343308E+03  0.99999687468E+00 0.  0.
          4    1    3    3  501    0 -0.72025070368E+03  0.23840818218E+03  0.24972350936E+03  0.79872483911E+03  0.00000000000E+00 0.  1.
   -9000007    1    1    2    0  502  0.68044515987E+03 -0.31033771196E+03 -0.94982386473E+03  0.12733736628E+04  0.40000000000E+03 0.  1.
<mgrwt>
<rscale>  2 0.84790460E+03</rscale>
<asrwt>0</asrwt>
<pdfrwt beam="1">  1       21 0.11872801E+00 0.84812447E+03</pdfrwt>
<pdfrwt beam="2">  1       21 0.21627844E+00 0.84812447E+03</pdfrwt>
<totfact> 0.37528550E+01</totfact>
</mgrwt>
</event>
<event>
 6    1  0.9598567E-004  0.6008274E+03  0.7818608E-02  0.9903868E-01
         21   -1    0    0  503  502  0.00000000000E+00  0.00000000000E+00  0.62240355684E+03  0.62240355684E+03  0.00000000000E+00 0. -1.
         21   -1    0    0  501  503 -0.00000000000E+00 -0.00000000000E+00 -0.11563762424E+04  0.11563762424E+04  0.00000000000E+00 0. -1.
    9000007    2    1    2  501    0  0.43104461628E+03  0.12158961111E+03 -0.89511169135E+03  0.10780623980E+04  0.40051229609E+03 0.  0.
    9000005    1    3    3    0    0  0.39151802912E+03  0.65056610664E+02 -0.35171471935E+03  0.53030460447E+03  0.99999687468E+00 0.  0.
          4    1    3    3  501    0  0.39526587151E+02  0.56533000446E+02 -0.54339697201E+03  0.54775779357E+03  0.00000000000E+00 0.  1.
   -9000007    1    1    2    0  502 -0.43104461628E+03 -0.12158961111E+03  0.36113900584E+03  0.70071740116E+03  0.40000000000E+03 0. -1.
<mgrwt>
<rscale>  2 0.60074206E+03</rscale>
<asrwt>0</asrwt>
<pdfrwt beam="1">  1       21 0.95754394E-01 0.60082742E+03</pdfrwt>
<pdfrwt beam="2">  1       21 0.17790404E+00 0.60082742E+03</pdfrwt>
<totfact> 0.12840166E+02</totfact>
</mgrwt>
</event>
<event>
 6    1  0.9598567E-004  0.4434651E+03  0.7818608E-02  0.1029717E+00
         21   -1    0    0  503  502  0.00000000000E+00  0.00000000000E+00  0.23009102982E+03  0.23009102982E+03  0.00000000000E+00 0. -1.
         21   -1    0    0  501  503 -0.00000000000E+00 -0.00000000000E+00 -0.21070323778E+04  0.21070323778E+04  0.00000000000E+00 0. -1.
    9000007    2    1    2  501    0 -0.16227878648E+03 -0.99992962047E+02 -0.18397807154E+04  0.18924730848E+04  0.40041016333E+03 0.  0.
    9000005    1    3    3    0    0  0.21948648978E+01 -0.49996998849E+02 -0.15810385000E+04  0.15818306660E+04  0.99999687468E+00 0.  0.
          4    1    3    3  501    0 -0.16447365138E+03 -0.49995963198E+02 -0.25874221532E+03  0.31064241875E+03  0.00000000000E+00 0.  1.
   -9000007    1    1    2    0  502  0.16227878648E+03  0.99992962047E+02 -0.37160632603E+02  0.44465032286E+03  0.40000000000E+03 0. -1.
<mgrwt>
<rscale>  2 0.44337250E+03</rscale>
<asrwt>0</asrwt>
<pdfrwt beam="1">  1       21 0.35398618E-01 0.44346510E+03</pdfrwt>
<pdfrwt beam="2">  1       21 0.32415884E+00 0.44346510E+03</pdfrwt>
<totfact> 0.14787656E+02</totfact>
</mgrwt>
</event>
<event>
 6    1  0.9598567E-004  0.4826058E+03  0.7818608E-02  0.1018429E+00
         21   -1    0    0  503  502  0.00000000000E+00  0.00000000000E+00  0.93829765597E+03  0.93829765597E+03  0.00000000000E+00 0. -1.
         21   -1    0    0  501  503 -0.00000000000E+00 -0.00000000000E+00 -0.27879935856E+03  0.27879935856E+03  0.00000000000E+00 0. -1.
    9000007    2    1    2  501    0  0.20179078125E+02  0.26906922603E+03  0.12807438651E+03  0.49931096237E+03  0.40012866065E+03 0.  0.
    9000005    1    3    3    0    0 -0.14867449476E+03  0.14030390133E+03  0.18898561213E+03  0.27839872792E+03  0.99999687468E+00 0.  0.
          4    1    3    3  501    0  0.16885357289E+03  0.12876532470E+03 -0.60911225625E+02  0.22091223445E+03  0.00000000000E+00 0.  1.
   -9000007    1    1    2    0  502 -0.20179078125E+02 -0.26906922603E+03  0.53142391090E+03  0.71778605216E+03  0.40000000000E+03 0. -1.
<mgrwt>
<rscale>  2 0.48257916E+03</rscale>
<asrwt>0</asrwt>
<pdfrwt beam="1">  1       21 0.14435348E+00 0.48260583E+03</pdfrwt>
<pdfrwt beam="2">  1       21 0.42892209E-01 0.48260583E+03</pdfrwt>
<totfact> 0.14531675E+03</totfact>
</mgrwt>
</event>
<event>
 6    1  0.9598567E-004  0.4268508E+03  0.7818608E-02  0.1035000E+00
         21   -1    0    0  503  502  0.00000000000E+00  0.00000000000E+00  0.26645238473E+04  0.26645238473E+04  0.00000000000E+00 0.  1.
         21   -1    0    0  501  503 -0.00000000000E+00 -0.00000000000E+00 -0.69593200920E+02  0.69593200920E+02  0.00000000000E+00 0.  1.
    9000007    2    1    2  501    0  0.14163850544E+03 -0.25344807472E+02  0.10997865466E+04  0.11797169374E+04  0.40186786230E+03 0.  0.
    9000005    1    3    3    0    0 -0.18904670183E+01 -0.42186402629E+02  0.10072058445E+04  0.10080912060E+04  0.99999687468E+00 0.  0.
          4    1    3    3  501    0  0.14352897246E+03  0.16841595157E+02  0.92580702071E+02  0.17162573134E+03  0.00000000000E+00 0.  1.
   -9000007    1    1    2    0  502 -0.14163850544E+03  0.25344807472E+02  0.14951440998E+04  0.15544001108E+04  0.40000000000E+03 0.  1.
<mgrwt>
<rscale>  2 0.42641060E+03</rscale>
<asrwt>0</asrwt>
<pdfrwt beam="1">  1       21 0.40992667E+00 0.42685080E+03</pdfrwt>
<pdfrwt beam="2">  1       21 0.10706648E-01 0.42685080E+03</pdfrwt>
<totfact> 0.42565512E+02</totfact>
</mgrwt>
</event>
<event>
 6    1  0.9598567E-004  0.4224426E+03  0.7818608E-02  0.1036304E+00
         21   -1    0    0  503  502  0.00000000000E+00  0.00000000000E+00  0.17942241215E+04  0.17942241215E+04  0.00000000000E+00 0. -1.
         21   -1    0    0  501  503 -0.00000000000E+00 -0.00000000000E+00 -0.16459676911E+03  0.16459676911E+03  0.00000000000E+00 0. -1.
    9000007    2    1    2  501    0 -0.30853141015E+02 -0.13114500632E+03  0.19850945045E+03  0.46675876782E+03  0.40038333685E+03 0.  0.
    9000005    1    3    3    0    0  0.13877211011E+02  0.78887046440E+02 -0.81240721037E+02  0.11409118209E+03  0.99999687468E+00 0.  0.
          4    1    3    3  501    0 -0.44730352025E+02 -0.21003205276E+03  0.27975017149E+03  0.35266758573E+03  0.00000000000E+00 0.  1.
   -9000007    1    1    2    0  502  0.30853141015E+02  0.13114500632E+03  0.14311179019E+04  0.14920621228E+04  0.40000000000E+03 0. -1.
<mgrwt>
<rscale>  2 0.42235174E+03</rscale>
<asrwt>0</asrwt>
<pdfrwt beam="1">  1       21 0.27603447E+00 0.42244259E+03</pdfrwt>
<pdfrwt beam="2">  1       21 0.25322581E-01 0.42244259E+03</pdfrwt>
<totfact> 0.56700414E+02</totfact>
</mgrwt>
</event>
<event>
 6    1  0.9598567E-004  0.4317443E+03  0.7818608E-02  0.1033362E+00
         21   -1    0    0  503  502  0.00000000000E+00  0.00000000000E+00  0.15926496506E+04  0.15926496506E+04  0.00000000000E+00 0.  1.
         21   -1    0    0  501  503 -0.00000000000E+00 -0.00000000000E+00 -0.19884046948E+03  0.19884046948E+03  0.00000000000E+00 0.  1.
    9000007    2    1    2  501    0  0.10368859144E+03  0.12510738218E+03  0.12144546656E+03  0.44787090201E+03  0.39929458104E+03 0.  0.
    9000005    1    3    3    0    0 -0.43896377823E+02  0.21589674602E+03  0.15757804001E+03  0.27086922235E+03  0.99999687468E+00 0.  0.
          4    1    3    3  501    0  0.14758496926E+03 -0.90789363842E+02 -0.36132573451E+02  0.17700167966E+03  0.00000000000E+00 0.  1.
   -9000007    1    1    2    0  502 -0.10368859144E+03 -0.12510738218E+03  0.12723637146E+04  0.13436192181E+04  0.40000000000E+03 0.  1.
<mgrwt>
<rscale>  2 0.43158089E+03</rscale>
<asrwt>0</asrwt>
<pdfrwt beam="1">  1       21 0.24502302E+00 0.43174435E+03</pdfrwt>
<pdfrwt beam="2">  1       21 0.30590842E-01 0.43174435E+03</pdfrwt>
<totfact> 0.60029833E+02</totfact>
</mgrwt>
</event>
<event>
 6    1  0.9598567E-004  0.4263522E+03  0.7818608E-02  0.1035030E+00
         21   -1    0    0  503  502  0.00000000000E+00  0.00000000000E+00  0.80628613698E+03  0.80628613698E+03  0.00000000000E+00 0.  1.
         21   -1    0    0  501  503 -0.00000000000E+00 -0.00000000000E+00 -0.23400903266E+03  0.23400903266E+03  0.00000000000E+00 0.  1.
    9000007    2    1    2  501    0 -0.33709261522E+02  0.14323953600E+03  0.38610908460E+03  0.57520118930E+03  0.40015285077E+03 0.  0.
    9000005    1    3    3    0    0 -0.15851686647E+03 -0.53906533081E+02  0.26195838344E+03  0.31089661612E+03  0.99999687468E+00 0.  0.
          4    1    3    3  501    0  0.12480760495E+03  0.19714606908E+03  0.12415070116E+03  0.26430457318E+03  0.00000000000E+00 0.  1.
   -9000007    1    1    2    0  502  0.33709261522E+02 -0.14323953600E+03  0.18616801972E+03  0.46509398034E+03  0.40000000000E+03 0.  1.
<mgrwt>
<rscale>  2 0.42631631E+03</rscale>
<asrwt>0</asrwt>
<pdfrwt beam="1">  1       21 0.12404402E+00 0.42635218E+03</pdfrwt>
<pdfrwt beam="2">  1       21 0.36001390E-01 0.42635218E+03</pdfrwt>
<totfact> 0.31668589E+03</totfact>
</mgrwt>
</event>
<event>
 6    1  0.9598567E-004  0.4075152E+03  0.7818608E-02  0.1041231E+00
         21   -1    0    0  503  502  0.00000000000E+00  0.00000000000E+00  0.87915697160E+03  0.87915697160E+03  0.00000000000E+00 0. -1.
         21   -1    0    0  501  503 -0.00000000000E+00 -0.00000000000E+00 -0.21797699645E+03  0.21797699645E+03  0.00000000000E+00 0. -1.
    9000007    2    1    2  501    0 -0.31998481383E+02  0.69470105149E+02  0.12988567667E+03  0.42771359943E+03  0.40027320146E+03 0.  0.
    9000005    1    3    3    0    0  0.13390981742E+03  0.33465064821E+02 -0.78605641525E+02  0.15884456755E+03  0.99999687468E+00 0.  0.
          4    1    3    3  501    0 -0.16590829881E+03  0.36005040329E+02  0.20849131819E+03  0.26886903188E+03  0.00000000000E+00 0.  1.
   -9000007    1    1    2    0  502  0.31998481383E+02 -0.69470105149E+02  0.53129429848E+03  0.66942036862E+03  0.40000000000E+03 0. -1.
<mgrwt>
<rscale>  2 0.40744809E+03</rscale>
<asrwt>0</asrwt>
<pdfrwt beam="1">  1       21 0.13525492E+00 0.40751519E+03</pdfrwt>
<pdfrwt beam="2">  1       21 0.33534923E-01 0.40751519E+03</pdfrwt>
<totfact> 0.29436602E+03</totfact>
</mgrwt>
</event>
<event>
 6    1  0.9598567E-004  0.5840536E+03  0.7818608E-02  0.9939143E-01
         21   -1    0    0  503  502  0.00000000000E+00  0.00000000000E+00  0.12927664235E+04  0.12927664235E+04  0.00000000000E+00 0.  1.
         21   -1    0    0  501  503 -0.00000000000E+00 -0.00000000000E+00 -0.44024133811E+03  0.44024133811E+03  0.00000000000E+00 0.  1.
    9000007    2    1    2  501    0 -0.42274816435E+03 -0.49016393349E+02 -0.12234788626E+03  0.59656773762E+03  0.39975672979E+03 0.  0.
    9000005    1    3    3    0    0 -0.14591842317E+03  0.16385595749E+02  0.14488073689E+03  0.20628160821E+03  0.99999687468E+00 0.  0.
          4    1    3    3  501    0 -0.27682974118E+03 -0.65401989098E+02 -0.26722862315E+03  0.39028612941E+03  0.00000000000E+00 0.  1.
   -9000007    1    1    2    0  502  0.42274816435E+03  0.49016393349E+02  0.97487297162E+03  0.11364400240E+04  0.40000000000E+03 0.  1.
<mgrwt>
<rscale>  2 0.58401196E+03</rscale>
<asrwt>0</asrwt>
<pdfrwt beam="1">  1       21 0.19888714E+00 0.58405361E+03</pdfrwt>
<pdfrwt beam="2">  1       21 0.67729437E-01 0.58405361E+03</pdfrwt>
<totfact> 0.20707059E+02</totfact>
</mgrwt>
</event>
<event>
 6    1  0.9598567E-004  0.4599158E+03  0.7818608E-02  0.1024912E+00
         21   -1    0    0  503  502  0.00000000000E+00  0.00000000000E+00  0.25474737796E+03  0.25474737796E+03  0.00000000000E+00 0. -1.
         21   -1    0    0  501  503 -0.00000000000E+00 -0.00000000000E+00 -0.82789739655E+03  0.82789739655E+03  0.00000000000E+00 0. -1.
    9000007    2    1    2  501    0 -0.24292306654E+02 -0.22268013195E+03 -0.29582646020E+03  0.54684171986E+03  0.40167899459E+03 0.  0.
    9000005    1    3    3    0    0 -0.21276029744E+03 -0.10161916111E+03 -0.15823346219E+03  0.28395814238E+03  0.99999687468E+00 0.  0.
          4    1    3    3  501    0  0.18846799078E+03 -0.12106097084E+03 -0.13759299800E+03  0.26288357748E+03  0.00000000000E+00 0.  1.
   -9000007    1    1    2    0  502  0.24292306654E+02  0.22268013195E+03 -0.27732355839E+03  0.53580305465E+03  0.40000000000E+03 0. -1.
<mgrwt>
<rscale>  2 0.45954898E+03</rscale>
<asrwt>0</asrwt>
<pdfrwt beam="1">  1       21 0.39191904E-01 0.45991583E+03</pdfrwt>
<pdfrwt beam="2">  1       21 0.12736883E+00 0.45991583E+03</pdfrwt>
<totfact> 0.24565166E+03</totfact>
</mgrwt>
</event>
<event>
 6    1  0.9598567E-004  0.5180403E+03  0.7818608E-02  0.1009222E+00
         21   -1    0    0  503  502  0.00000000000E+00  0.00000000000E+00  0.51740617218E+03  0.51740617218E+03  0.00000000000E+00 0. -1.
         21   -1    0    0  501  503 -0.00000000000E+00 -0.00000000000E+00 -0.52833169981E+03  0.52833169981E+03  0.00000000000E+00 0.  1.
    9000007    2    1    2  501    0 -0.31270579433E+03 -0.10286311811E+03 -0.78894224209E+02  0.52325774931E+03  0.39900957223E+03 0.  0.
    9000005    1    3    3    0    0  0.85470883623E+02 -0.82138068485E+02 -0.16398205016E+02  0.11967387085E+03  0.99999687468E+00 0.  0.
          4    1    3    3  501    0 -0.39817667795E+03 -0.20725049625E+02 -0.62496019193E+02  0.40358387847E+03  0.00000000000E+00 0.  1.
   -9000007    1    1    2    0  502  0.31270579433E+03  0.10286311811E+03  0.67968696583E+02  0.52248012267E+03  0.40000000000E+03 0.  1.
<mgrwt>
<rscale>  2 0.51784909E+03</rscale>
<asrwt>0</asrwt>
<pdfrwt beam="1">  1       21 0.79600950E-01 0.51804028E+03</pdfrwt>
<pdfrwt beam="2">  1       21 0.81281800E-01 0.51804028E+03</pdfrwt>
<totfact> 0.15472938E+03</totfact>
</mgrwt>
</event>
<event>
 6    1  0.9598567E-004  0.4396900E+03  0.7818608E-02  0.1030946E+00
         21   -1    0    0  503  502  0.00000000000E+00  0.00000000000E+00  0.93309508088E+03  0.93309508088E+03  0.00000000000E+00 0.  1.
         21   -1    0    0  501  503 -0.00000000000E+00 -0.00000000000E+00 -0.21169872610E+03  0.21169872610E+03  0.00000000000E+00 0.  1.
    9000007    2    1    2  501    0  0.11217899734E+02 -0.18221273924E+03  0.44939485435E+03  0.62777142849E+03  0.39851462671E+03 0.  0.
    9000005    1    3    3    0    0  0.10275483562E+03  0.35207689826E+02 -0.12281877441E+02  0.10931597401E+03  0.99999687468E+00 0.  0.
          4    1    3    3  501    0 -0.91536935886E+02 -0.21742042907E+03  0.46167673179E+03  0.51845545448E+03  0.00000000000E+00 0.  1.
   -9000007    1    1    2    0  502 -0.11217899734E+02  0.18221273924E+03  0.27200150043E+03  0.51702237848E+03  0.40000000000E+03 0.  1.
<mgrwt>
<rscale>  2 0.43935193E+03</rscale>
<asrwt>0</asrwt>
<pdfrwt beam="1">  1       21 0.14355309E+00 0.43969003E+03</pdfrwt>
<pdfrwt beam="2">  1       21 0.32569035E-01 0.43969003E+03</pdfrwt>
<totfact> 0.26318685E+03</totfact>
</mgrwt>
</event>
<event>
 6    1  0.9598567E-004  0.4091930E+03  0.7818608E-02  0.1040921E+00
         21   -1    0    0  503  502  0.00000000000E+00  0.00000000000E+00  0.21467636314E+03  0.21467636314E+03  0.00000000000E+00 0. -1.
         21   -1    0    0  501  503 -0.00000000000E+00 -0.00000000000E+00 -0.10205173419E+04  0.10205173419E+04  0.00000000000E+00 0. -1.
    9000007    2    1    2  501    0  0.76054121407E+02 -0.40677733923E+02 -0.70541975777E+03  0.81385853079E+03  0.39662295203E+03 0.  0.
    9000005    1    3    3    0    0  0.13760301013E+03 -0.17568264219E+03 -0.57324717046E+03  0.61515225562E+03  0.99999687468E+00 0.  0.
          4    1    3    3  501    0 -0.61548888719E+02  0.13500490826E+03 -0.13217258731E+03  0.19870627518E+03  0.00000000000E+00 0.  1.
   -9000007    1    1    2    0  502 -0.76054121407E+02  0.40677733923E+02 -0.10042122099E+03  0.42133517423E+03  0.40000000000E+03 0. -1.
<mgrwt>
<rscale>  2 0.40836535E+03</rscale>
<asrwt>0</asrwt>
<pdfrwt beam="1">  1       21 0.33027133E-01 0.40919300E+03</pdfrwt>
<pdfrwt beam="2">  1       21 0.15700267E+00 0.40919300E+03</pdfrwt>
<totfact> 0.20325372E+03</totfact>
</mgrwt>
</event>
<event>
 6    1  0.9598567E-004  0.4310709E+03  0.7818608E-02  0.1033570E+00
         21   -1    0    0  503  502  0.00000000000E+00  0.00000000000E+00  0.94695435814E+02  0.94695435814E+02  0.00000000000E+00 0.  1.
         21   -1    0    0  501  503 -0.00000000000E+00 -0.00000000000E+00 -0.19596171521E+04  0.19596171521E+04  0.00000000000E+00 0.  1.
    9000007    2    1    2  501    0 -0.44892676063E+02 -0.15260007890E+03 -0.93831055757E+03  0.10325932645E+04  0.40064948637E+03 0.  0.
    9000005    1    3    3    0    0 -0.79119573124E+02 -0.27798648769E+03 -0.75016845750E+03  0.80392170565E+03  0.99999687468E+00 0.  0.
          4    1    3    3  501    0  0.34226897061E+02  0.12538640879E+03 -0.18814210007E+03  0.22867155881E+03  0.00000000000E+00 0.  1.
   -9000007    1    1    2    0  502  0.44892676063E+02  0.15260007890E+03 -0.92661115867E+03  0.10217193234E+04  0.40000000000E+03 0. -1.
<mgrwt>
<rscale>  2 0.43091996E+03</rscale>
<asrwt>0</asrwt>
<pdfrwt beam="1">  1       21 0.14568529E-01 0.43107093E+03</pdfrwt>
<pdfrwt beam="2">  1       21 0.30147955E+00 0.43107093E+03</pdfrwt>
<totfact> 0.11315768E+03</totfact>
</mgrwt>
</event>
<event>
 6    1  0.9598567E-004  0.4235688E+03  0.7818608E-02  0.1035919E+00
         21   -1    0    0  503  502  0.00000000000E+00  0.00000000000E+00  0.38670602147E+03  0.38670602147E+03  0.00000000000E+00 0. -1.
         21   -1    0    0  501  503 -0.00000000000E+00 -0.00000000000E+00 -0.51206230522E+03  0.51206230522E+03  0.00000000000E+00 0. -1.
    9000007    2    1    2  501    0  0.60231222838E+02  0.12527949773E+03 -0.20060156258E+03  0.46866996033E+03  0.40010972502E+03 0.  0.
    9000005    1    3    3    0    0  0.18130374661E+03  0.13137171851E+03 -0.25191284103E+03  0.33703212967E+03  0.99999687468E+00 0.  0.
          4    1    3    3  501    0 -0.12107252377E+03 -0.60922207873E+01  0.51311278450E+02  0.13163783066E+03  0.00000000000E+00 0.  1.
   -9000007    1    1    2    0  502 -0.60231222838E+02 -0.12527949773E+03  0.75245278836E+02  0.43009836636E+03  0.40000000000E+03 0. -1.
<mgrwt>
<rscale>  2 0.42354291E+03</rscale>
<asrwt>0</asrwt>
<pdfrwt beam="1">  1       21 0.59493234E-01 0.42356882E+03</pdfrwt>
<pdfrwt beam="2">  1       21 0.78778816E-01 0.42356882E+03</pdfrwt>
<totfact> 0.33091424E+03</totfact>
</mgrwt>
</event>
<event>
 6    1  0.9598567E-004  0.4158663E+03  0.7818608E-02  0.1038423E+00
         21   -1    0    0  503  502  0.00000000000E+00  0.00000000000E+00  0.10756456911E+03  0.10756456911E+03  0.00000000000E+00 0.  1.
         21   -1    0    0  501  503 -0.00000000000E+00 -0.00000000000E+00 -0.17463926797E+04  0.17463926797E+04  0.00000000000E+00 0. -1.
    9000007    2    1    2  501    0  0.11216110277E+03  0.18314353793E+02 -0.10806896775E+04  0.11579442898E+04  0.40003658687E+03 0.  0.
    9000005    1    3    3    0    0  0.14716019208E+03  0.12377575679E+03 -0.22896777348E+03  0.29900468456E+03  0.99999687468E+00 0.  0.
          4    1    3    3  501    0 -0.34999089307E+02 -0.10546140300E+03 -0.85172190399E+03  0.85893960527E+03  0.00000000000E+00 0.  1.
   -9000007    1    1    2    0  502 -0.11216110277E+03 -0.18314353793E+02 -0.55813843313E+03  0.69601295898E+03  0.40000000000E+03 0.  1.
<mgrwt>
<rscale>  2 0.41585753E+03</rscale>
<asrwt>0</asrwt>
<pdfrwt beam="1">  1       21 0.16548397E-01 0.41586632E+03</pdfrwt>
<pdfrwt beam="2">  1       21 0.26867577E+00 0.41586632E+03</pdfrwt>
<totfact> 0.14174959E+03</totfact>
</mgrwt>
</event>
<event>
 6    1  0.9598567E-004  0.4228922E+03  0.7818608E-02  0.1036544E+00
         21   -1    0    0  503  502  0.00000000000E+00  0.00000000000E+00  0.13453675318E+03  0.13453675318E+03  0.00000000000E+00 0.  1.
         21   -1    0    0  501  503 -0.00000000000E+00 -0.00000000000E+00 -0.13967545948E+04  0.13967545948E+04  0.00000000000E+00 0.  1.
    9000007    2    1    2  501    0  0.10255045348E+03 -0.63453253997E+02 -0.82189031511E+03  0.92430597619E+03  0.40533311806E+03 0.  0.
    9000005    1    3    3    0    0 -0.13414687588E+02 -0.36078730483E+02  0.39237026042E+02  0.54974292562E+02  0.99999687468E+00 0.  0.
          4    1    3    3  501    0  0.11596514107E+03 -0.27374523514E+02 -0.86112734116E+03  0.86933168363E+03  0.00000000000E+00 0.  1.
   -9000007    1    1    2    0  502 -0.10255045348E+03  0.63453253997E+02 -0.44032752647E+03  0.60698537175E+03  0.40000000000E+03 0.  1.
<mgrwt>
<rscale>  2 0.42160919E+03</rscale>
<asrwt>0</asrwt>
<pdfrwt beam="1">  1       21 0.20697962E-01 0.42289224E+03</pdfrwt>
<pdfrwt beam="2">  1       21 0.21488532E+00 0.42289224E+03</pdfrwt>
<totfact> 0.19950158E+03</totfact>
</mgrwt>
</event>
<event>
 6    1  0.9598567E-004  0.5283899E+03  0.7818608E-02  0.1006626E+00
         21   -1    0    0  503  502  0.00000000000E+00  0.00000000000E+00  0.68486416336E+03  0.68486416336E+03  0.00000000000E+00 0. -1.
         21   -1    0    0  501  503 -0.00000000000E+00 -0.00000000000E+00 -0.42820943808E+03  0.42820943808E+03  0.00000000000E+00 0. -1.
    9000007    2    1    2  501    0 -0.16777436791E+03  0.30174102715E+03  0.63069523451E+01  0.52837719012E+03  0.39993348372E+03 0.  0.
    9000005    1    3    3    0    0 -0.26952577420E+03  0.28627133406E+03 -0.71141175724E+02  0.39957162880E+03  0.99999687468E+00 0.  0.
          4    1    3    3  501    0  0.10175140629E+03  0.15469693087E+02  0.77448128069E+02  0.12880556132E+03  0.00000000000E+00 0.  1.
   -9000007    1    1    2    0  502  0.16777436791E+03 -0.30174102715E+03  0.25034777293E+03  0.58469641131E+03  0.40000000000E+03 0. -1.
<mgrwt>
<rscale>  2 0.52837731E+03</rscale>
<asrwt>0</asrwt>
<pdfrwt beam="1">  1       21 0.10536372E+00 0.52838990E+03</pdfrwt>
<pdfrwt beam="2">  1       21 0.65878375E-01 0.52838990E+03</pdfrwt>
<totfact> 0.12735880E+03</totfact>
</mgrwt>
</event>
<event>
 6    1  0.9598567E-004  0.4250775E+03  0.7818608E-02  0.1035572E+00
         21   -1    0    0  503  502  0.00000000000E+00  0.00000000000E+00  0.18112112700E+04  0.18112112700E+04  0.00000000000E+00 0.  1.
         21   -1    0    0  501  503 -0.00000000000E+00 -0.00000000000E+00 -0.14183264532E+03  0.14183264532E+03  0.00000000000E+00 0.  1.
    9000007    2    1    2  501    0  0.13520782913E+03  0.29602910163E+02  0.30142371707E+03  0.52110183598E+03  0.40191215073E+03 0.  0.
    9000005    1    3    3    0    0  0.10966442289E+02  0.11190259535E+03  0.34739957929E+03  0.36514369964E+03  0.99999687468E+00 0.  0.
          4    1    3    3  501    0  0.12424138684E+03 -0.82299685183E+02 -0.45975862220E+02  0.15595813634E+03  0.00000000000E+00 0.  1.
   -9000007    1    1    2    0  502 -0.13520782913E+03 -0.29602910163E+02  0.13679549076E+04  0.14319420793E+04  0.40000000000E+03 0.  1.
<mgrwt>
<rscale>  2 0.42462489E+03</rscale>
<asrwt>0</asrwt>
<pdfrwt beam="1">  1       21 0.27864787E+00 0.42507748E+03</pdfrwt>
<pdfrwt beam="2">  1       21 0.21820408E-01 0.42507748E+03</pdfrwt>
<totfact> 0.72788913E+02</totfact>
</mgrwt>
</event>
<event>
 6    1  0.9598567E-004  0.4449001E+03  0.7818608E-02  0.1029385E+00
         21   -1    0    0  503  502  0.00000000000E+00  0.00000000000E+00  0.82499261246E+03  0.82499261246E+03  0.00000000000E+00 0.  1.
         21   -1    0    0  501  503 -0.00000000000E+00 -0.00000000000E+00 -0.25034331955E+03  0.25034331955E+03  0.00000000000E+00 0.  1.
    9000007    2    1    2  501    0 -0.10914317547E+02  0.19046206438E+03  0.17335889473E+03  0.47748235130E+03  0.40192184455E+03 0.  0.
    9000005    1    3    3    0    0 -0.18854799936E+03  0.17093620045E+02  0.11826667916E+03  0.22322756841E+03  0.99999687468E+00 0.  0.
          4    1    3    3  501    0  0.17763368181E+03  0.17336844434E+03  0.55092215575E+02  0.25425478289E+03  0.00000000000E+00 0.  1.
   -9000007    1    1    2    0  502  0.10914317547E+02 -0.19046206438E+03  0.40129039818E+03  0.59785358071E+03  0.40000000000E+03 0.  1.
<mgrwt>
<rscale>  2 0.44446560E+03</rscale>
<asrwt>0</asrwt>
<pdfrwt beam="1">  1       21 0.12692194E+00 0.44490009E+03</pdfrwt>
<pdfrwt beam="2">  1       21 0.38514357E-01 0.44490009E+03</pdfrwt>
<totfact> 0.25836269E+03</totfact>
</mgrwt>
</event>
<event>
 6    1  0.9598567E-004  0.4179523E+03  0.7818608E-02  0.1037748E+00
         21   -1    0    0  503  502  0.00000000000E+00  0.00000000000E+00  0.13204822047E+03  0.13204822047E+03  0.00000000000E+00 0.  1.
         21   -1    0    0  501  503 -0.00000000000E+00 -0.00000000000E+00 -0.13521227400E+04  0.13521227400E+04  0.00000000000E+00 0.  1.
    9000007    2    1    2  501    0  0.11632779398E+03 -0.33940217018E+02 -0.49988379878E+03  0.65148928767E+03  0.39983794928E+03 0.  0.
    9000005    1    3    3    0    0 -0.39832214770E+02 -0.60530934325E+01 -0.49095637578E+03  0.49260776301E+03  0.99999687468E+00 0.  0.
          4    1    3    3  501    0  0.15616000875E+03 -0.27887123585E+02 -0.89274230021E+01  0.15888152465E+03  0.00000000000E+00 0.  1.
   -9000007    1    1    2    0  502 -0.11632779398E+03  0.33940217018E+02 -0.72019072078E+03  0.83268167284E+03  0.40000000000E+03 0.  1.
<mgrwt>
<rscale>  2 0.41791349E+03</rscale>
<asrwt>0</asrwt>
<pdfrwt beam="1">  1       21 0.20315109E-01 0.41795226E+03</pdfrwt>
<pdfrwt beam="2">  1       21 0.20801890E+00 0.41795226E+03</pdfrwt>
<totfact> 0.22956256E+03</totfact>
</mgrwt>
</event>
<event>
 6    1  0.9598567E-004  0.4374558E+03  0.7818608E-02  0.1031553E+00
         21   -1    0    0  503  502  0.00000000000E+00  0.00000000000E+00  0.89211954025E+03  0.89211954025E+03  0.00000000000E+00 0.  1.
         21   -1    0    0  501  503 -0.00000000000E+00 -0.00000000000E+00 -0.21439033086E+03  0.21439033086E+03  0.00000000000E+00 0. -1.
    9000007    2    1    2  501    0 -0.10397097788E+03  0.14337919404E+03  0.33288194094E+03  0.54947558483E+03  0.39968171611E+03 0.  0.
    9000005    1    3    3    0    0 -0.24306321534E+03  0.31728520838E+02  0.12368218129E+03  0.27456275721E+03  0.99999687468E+00 0.  0.
          4    1    3    3  501    0  0.13909223746E+03  0.11165067321E+03  0.20919975965E+03  0.27491282761E+03  0.00000000000E+00 0.  1.
   -9000007    1    1    2    0  502  0.10397097788E+03 -0.14337919404E+03  0.34484726845E+03  0.55703428627E+03  0.40000000000E+03 0.  1.
<mgrwt>
<rscale>  2 0.43738301E+03</rscale>
<asrwt>0</asrwt>
<pdfrwt beam="1">  1       21 0.13724916E+00 0.43745578E+03</pdfrwt>
<pdfrwt beam="2">  1       21 0.32983128E-01 0.43745578E+03</pdfrwt>
<totfact> 0.28943042E+03</totfact>
</mgrwt>
</event>
<event>
 6    1  0.9598567E-004  0.5995256E+03  0.7818608E-02  0.9906401E-01
         21   -1    0    0  503  502  0.00000000000E+00  0.00000000000E+00  0.11015042454E+04  0.11015042454E+04  0.00000000000E+00 0.  1.
         21   -1    0    0  501  503 -0.00000000000E+00 -0.00000000000E+00 -0.44812703630E+03  0.44812703630E+03  0.00000000000E+00 0. -1.
    9000007    2    1    2  501    0  0.20008033145E+02  0.44612843978E+03 -0.77307919606E+02  0.60446903983E+03  0.39996924820E+03 0.  0.
    9000005    1    3    3    0    0  0.66865778189E+02  0.38094320320E+03 -0.21690222374E+03  0.44343695270E+03  0.99999687468E+00 0.  0.
          4    1    3    3  501    0 -0.46857745043E+02  0.65185236581E+02  0.13959430414E+03  0.16103208713E+03  0.00000000000E+00 0.  1.
   -9000007    1    1    2    0  502 -0.20008033145E+02 -0.44612843978E+03  0.73068512872E+03  0.94516224189E+03  0.40000000000E+03 0.  1.
<mgrwt>
<rscale>  2 0.59952044E+03</rscale>
<asrwt>0</asrwt>
<pdfrwt beam="1">  1       21 0.16946219E+00 0.59952557E+03</pdfrwt>
<pdfrwt beam="2">  1       21 0.68942621E-01 0.59952557E+03</pdfrwt>
<totfact> 0.31870115E+02</totfact>
</mgrwt>
</event>
<event>
 6    1  0.9598567E-004  0.4243861E+03  0.7818608E-02  0.1035660E+00
         21   -1    0    0  503  502  0.00000000000E+00  0.00000000000E+00  0.13815607642E+03  0.13815607642E+03  0.00000000000E+00 0.  1.
         21   -1    0    0  501  503 -0.00000000000E+00 -0.00000000000E+00 -0.16240913335E+04  0.16240913335E+04  0.00000000000E+00 0. -1.
    9000007    2    1    2  501    0 -0.13675134784E+03  0.37451536636E+02 -0.11345378583E+04  0.12112631265E+04  0.39984829736E+03 0.  0.
    9000005    1    3    3    0    0 -0.21706419429E+03 -0.81527539195E+02 -0.94766790469E+03  0.97562239707E+03  0.99999687468E+00 0.  0.
          4    1    3    3  501    0  0.80312846449E+02  0.11897907583E+03 -0.18686995360E+03  0.23564072939E+03  0.00000000000E+00 0.  1.
   -9000007    1    1    2    0  502  0.13675134784E+03 -0.37451536636E+02 -0.35139739876E+03  0.55098428343E+03  0.40000000000E+03 0.  1.
<mgrwt>
<rscale>  2 0.42435033E+03</rscale>
<asrwt>0</asrwt>
<pdfrwt beam="1">  1       21 0.21254781E-01 0.42438608E+03</pdfrwt>
<pdfrwt beam="2">  1       21 0.24986020E+00 0.42438608E+03</pdfrwt>
<totfact> 0.11443621E+03</totfact>
</mgrwt>
</event>
<event>
 6    1  0.9598567E-004  0.4558126E+03  0.7818608E-02  0.1026023E+00
         21   -1    0    0  503  502  0.00000000000E+00  0.00000000000E+00  0.81143029677E+03  0.81143029677E+03  0.00000000000E+00 0.  1.
         21   -1    0    0  501  503 -0.00000000000E+00 -0.00000000000E+00 -0.43688421188E+03  0.43688421188E+03  0.00000000000E+00 0. -1.
    9000007    2    1    2  501    0  0.97055592550E+02  0.19515978760E+03 -0.21443217491E+03  0.50373239683E+03  0.40032241910E+03 0.  0.
    9000005    1    3    3    0    0  0.23426189482E+03  0.20640708957E+03 -0.11035702668E+03  0.33115282774E+03  0.99999687468E+00 0.  0.
          4    1    3    3  501    0 -0.13720630227E+03 -0.11247301969E+02 -0.10407514823E+03  0.17257956908E+03  0.00000000000E+00 0.  1.
   -9000007    1    1    2    0  502 -0.97055592550E+02 -0.19515978760E+03  0.58897825980E+03  0.74458211183E+03  0.40000000000E+03 0.  1.
<mgrwt>
<rscale>  2 0.45574185E+03</rscale>
<asrwt>0</asrwt>
<pdfrwt beam="1">  1       21 0.12483543E+00 0.45581265E+03</pdfrwt>
<pdfrwt beam="2">  1       21 0.67212956E-01 0.45581265E+03</pdfrwt>
<totfact> 0.81699349E+02</totfact>
</mgrwt>
</event>
<event>
 6    1  0.9598567E-004  0.8403940E+03  0.7818608E-02  0.9503323E-01
         21   -1    0    0  503  502  0.00000000000E+00  0.00000000000E+00  0.94228704932E+03  0.94228704932E+03  0.00000000000E+00 0.  1.
         21   -1    0    0  501  503 -0.00000000000E+00 -0.00000000000E+00 -0.76471632794E+03  0.76471632794E+03  0.00000000000E+00 0.  1.
    9000007    2    1    2  501    0 -0.72618790081E+03  0.13749576487E+03 -0.31551483996E+02  0.84098602788E+03  0.40001006277E+03 0.  0.
    9000005    1    3    3    0    0 -0.63540890772E+03  0.10263998554E+03 -0.17561655956E+03  0.66717435700E+03  0.99999687468E+00 0.  0.
          4    1    3    3  501    0 -0.90778993084E+02  0.34855779328E+02  0.14406507557E+03  0.17381167089E+03  0.00000000000E+00 0.  1.
   -9000007    1    1    2    0  502  0.72618790081E+03 -0.13749576487E+03  0.20912220538E+03  0.86601734937E+03  0.40000000000E+03 0.  1.
<mgrwt>
<rscale>  2 0.84039276E+03</rscale>
<asrwt>0</asrwt>
<pdfrwt beam="1">  1       21 0.14496724E+00 0.84039396E+03</pdfrwt>
<pdfrwt beam="2">  1       21 0.11764867E+00 0.84039396E+03</pdfrwt>
<totfact> 0.12697553E+02</totfact>
</mgrwt>
</event>
<event>
 6    1  0.9598567E-004  0.4410234E+03  0.7818608E-02  0.1030442E+00
         21   -1    0    0  503  502  0.00000000000E+00  0.00000000000E+00  0.12491431052E+04  0.12491431052E+04  0.00000000000E+00 0. -1.
         21   -1    0    0  501  503 -0.00000000000E+00 -0.00000000000E+00 -0.21829893457E+03  0.21829893457E+03  0.00000000000E+00 0. -1.
    9000007    2    1    2  501    0  0.15826652056E+03 -0.96728472602E+02  0.12246544306E+03  0.45771108469E+03  0.40012118584E+03 0.  0.
    9000005    1    3    3    0    0  0.24235240604E+03  0.34294345052E+02 -0.21439821730E+02  0.24570603730E+03  0.99999687468E+00 0.  0.
          4    1    3    3  501    0 -0.84085885484E+02 -0.13102281765E+03  0.14390526479E+03  0.21200504739E+03  0.00000000000E+00 0.  1.
   -9000007    1    1    2    0  502 -0.15826652056E+03  0.96728472602E+02  0.90837872760E+03  0.10097309551E+04  0.40000000000E+03 0. -1.
<mgrwt>
<rscale>  2 0.44099593E+03</rscale>
<asrwt>0</asrwt>
<pdfrwt beam="1">  1       21 0.19217586E+00 0.44102341E+03</pdfrwt>
<pdfrwt beam="2">  1       21 0.33584452E-01 0.44102341E+03</pdfrwt>
<totfact> 0.10838531E+03</totfact>
</mgrwt>
</event>
<event>
 6    1  0.9598567E-004  0.5554971E+03  0.7818608E-02  0.1000241E+00
         21   -1    0    0  503  502  0.00000000000E+00  0.00000000000E+00  0.10065674329E+04  0.10065674329E+04  0.00000000000E+00 0. -1.
         21   -1    0    0  501  503 -0.00000000000E+00 -0.00000000000E+00 -0.34853848760E+03  0.34853848760E+03  0.00000000000E+00 0. -1.
    9000007    2    1    2  501    0  0.37257955850E+03 -0.98800292004E+02  0.93529414346E+02  0.56312312678E+03  0.39972850718E+03 0.  0.
    9000005    1    3    3    0    0  0.32514240671E+03 -0.11208809086E+03 -0.10419112208E+03  0.35935792000E+03  0.99999687468E+00 0.  0.
          4    1    3    3  501    0  0.47437151798E+02  0.13287798854E+02  0.19772053643E+03  0.20376520678E+03  0.00000000000E+00 0.  1.
   -9000007    1    1    2    0  502 -0.37257955850E+03  0.98800292004E+02  0.56449953100E+03  0.79198279376E+03  0.40000000000E+03 0. -1.
<mgrwt>
<rscale>  2 0.55544822E+03</rscale>
<asrwt>0</asrwt>
<pdfrwt beam="1">  1       21 0.15485653E+00 0.55549710E+03</pdfrwt>
<pdfrwt beam="2">  1       21 0.53621306E-01 0.55549710E+03</pdfrwt>
<totfact> 0.72768872E+02</totfact>
</mgrwt>
</event>
<event>
 6    1  0.9598567E-004  0.5380984E+03  0.7818608E-02  0.1004366E+00
         21   -1    0    0  503  502  0.00000000000E+00  0.00000000000E+00  0.15518014953E+03  0.15518014953E+03  0.00000000000E+00 0. -1.
         21   -1    0    0  501  503 -0.00000000000E+00 -0.00000000000E+00 -0.29288464090E+04  0.29288464090E+04  0.00000000000E+00 0.  1.
    9000007    2    1    2  501    0  0.21444728305E+03 -0.28907127536E+03 -0.23167094826E+04  0.23780808557E+04  0.39821588380E+03 0.  0.
    9000005    1    3    3    0    0 -0.11118163819E+03 -0.77397600068E+02 -0.85443735420E+03  0.86511036141E+03  0.99999687468E+00 0.  0.
          4    1    3    3  501    0  0.32562892123E+03 -0.21167367529E+03 -0.14622721284E+04  0.15129704943E+04  0.00000000000E+00 0.  1.
   -9000007    1    1    2    0  502 -0.21444728305E+03  0.28907127536E+03 -0.45695677695E+03  0.70594570290E+03  0.40000000000E+03 0. -1.
<mgrwt>
<rscale>  2 0.53776682E+03</rscale>
<asrwt>0</asrwt>
<pdfrwt beam="1">  1       21 0.23873871E-01 0.53809835E+03</pdfrwt>
<pdfrwt beam="2">  1       21 0.45059171E+00 0.53809835E+03</pdfrwt>
<totfact> 0.47529601E+01</totfact>
</mgrwt>
</event>
<event>
 6    1  0.9598567E-004  0.4120652E+03  0.7818608E-02  0.1039725E+00
         21   -1    0    0  503  502  0.00000000000E+00  0.00000000000E+00  0.13627584771E+04  0.13627584771E+04  0.00000000000E+00 0.  1.
         21   -1    0    0  501  503 -0.00000000000E+00 -0.00000000000E+00 -0.14482654152E+03  0.14482654152E+03  0.00000000000E+00 0.  1.
    9000007    2    1    2  501    0 -0.70832188272E+02  0.65849029859E+02  0.32646392987E+03  0.52571511949E+03  0.40055510947E+03 0.  0.
    9000005    1    3    3    0    0 -0.22425861307E+03 -0.34442619486E+02  0.15550162383E+03  0.27506358280E+03  0.99999687468E+00 0.  0.
          4    1    3    3  501    0  0.15342642480E+03  0.10029164935E+03  0.17096230604E+03  0.25065153668E+03  0.00000000000E+00 0.  1.
   -9000007    1    1    2    0  502  0.70832188272E+02 -0.65849029859E+02  0.89146800572E+03  0.98186989914E+03  0.40000000000E+03 0.  1.
<mgrwt>
<rscale>  2 0.41193019E+03</rscale>
<asrwt>0</asrwt>
<pdfrwt beam="1">  1       21 0.20965514E+00 0.41206515E+03</pdfrwt>
<pdfrwt beam="2">  1       21 0.22281007E-01 0.41206515E+03</pdfrwt>
<totfact> 0.18825841E+03</totfact>
</mgrwt>
</event>
<event>
 6    1  0.9598567E-004  0.4262687E+03  0.7818608E-02  0.1035051E+00
         21   -1    0    0  503  502  0.00000000000E+00  0.00000000000E+00  0.15244198920E+03  0.15244198920E+03  0.00000000000E+00 0. -1.
         21   -1    0    0  501  503 -0.00000000000E+00 -0.00000000000E+00 -0.18188662328E+04  0.18188662328E+04  0.00000000000E+00 0. -1.
    9000007    2    1    2  501    0  0.14636104415E+03 -0.14895410577E+02 -0.14120135077E+04  0.14749532572E+04  0.40007691345E+03 0.  0.
    9000005    1    3    3    0    0  0.13820744376E+03 -0.44604841008E+01 -0.14386107898E+04  0.14452415708E+04  0.99999687468E+00 0.  0.
          4    1    3    3  501    0  0.81536003927E+01 -0.10434926476E+02  0.26597282168E+02  0.29711686399E+02  0.00000000000E+00 0.  1.
   -9000007    1    1    2    0  502 -0.14636104415E+03  0.14895410577E+02 -0.25441073595E+03  0.49635496478E+03  0.40000000000E+03 0. -1.
<mgrwt>
<rscale>  2 0.42625061E+03</rscale>
<asrwt>0</asrwt>
<pdfrwt beam="1">  1       21 0.23452616E-01 0.42626865E+03</pdfrwt>
<pdfrwt beam="2">  1       21 0.27982555E+00 0.42626865E+03</pdfrwt>
<totfact> 0.62289486E+02</totfact>
</mgrwt>
</event>
<event>
 6    1  0.9598567E-004  0.5797667E+03  0.7818608E-02  0.9948528E-01
         21   -1    0    0  503  502  0.00000000000E+00  0.00000000000E+00  0.11283780249E+04  0.11283780249E+04  0.00000000000E+00 0.  1.
         21   -1    0    0  501  503 -0.00000000000E+00 -0.00000000000E+00 -0.31744565682E+03  0.31744565682E+03  0.00000000000E+00 0.  1.
    9000007    2    1    2  501    0 -0.40054301278E+03 -0.12527839545E+03  0.22488139183E+03  0.62145414793E+03  0.39937981438E+03 0.  0.
    9000005    1    3    3    0    0 -0.16584167698E+03  0.86068604147E+02  0.24130798756E+03  0.30519143386E+03  0.99999687468E+00 0.  0.
          4    1    3    3  501    0 -0.23470133580E+03 -0.21134699960E+03 -0.16426595738E+02  0.31626271407E+03  0.00000000000E+00 0.  1.
   -9000007    1    1    2    0  502  0.40054301278E+03  0.12527839545E+03  0.58605097622E+03  0.82436953376E+03  0.40000000000E+03 0.  1.
<mgrwt>
<rscale>  2 0.57965970E+03</rscale>
<asrwt>0</asrwt>
<pdfrwt beam="1">  1       21 0.17359662E+00 0.57976666E+03</pdfrwt>
<pdfrwt beam="2">  1       21 0.48837794E-01 0.57976666E+03</pdfrwt>
<totfact> 0.63774957E+02</totfact>
</mgrwt>
</event>
<event>
 6    1  0.9598567E-004  0.5363717E+03  0.7818608E-02  0.1004740E+00
         21   -1    0    0  503  502  0.00000000000E+00  0.00000000000E+00  0.17779836982E+04  0.17779836982E+04  0.00000000000E+00 0. -1.
         21   -1    0    0  501  503 -0.00000000000E+00 -0.00000000000E+00 -0.19079269040E+03  0.19079269040E+03  0.00000000000E+00 0.  1.
    9000007    2    1    2  501    0  0.72072174459E+01 -0.35623964041E+03  0.40898719190E+03  0.67451101505E+03  0.40091889567E+03 0.  0.
    9000005    1    3    3    0    0 -0.11265871091E+03 -0.73605151523E+02  0.33165587515E+03  0.35791943646E+03  0.99999687468E+00 0.  0.
          4    1    3    3  501    0  0.11986592835E+03 -0.28263448889E+03  0.77331316745E+02  0.31659157860E+03  0.00000000000E+00 0.  1.
   -9000007    1    1    2    0  502 -0.72072174459E+01  0.35623964041E+03  0.11782038159E+04  0.12942653736E+04  0.40000000000E+03 0.  1.
<mgrwt>
<rscale>  2 0.53619998E+03</rscale>
<asrwt>0</asrwt>
<pdfrwt beam="1">  1       21 0.27353594E+00 0.53637169E+03</pdfrwt>
<pdfrwt beam="2">  1       21 0.29352723E-01 0.53637169E+03</pdfrwt>
<totfact> 0.41401006E+02</totfact>
</mgrwt>
</event>
<event>
 6    1  0.9598567E-004  0.4311934E+03  0.7818608E-02  0.1033942E+00
         21   -1    0    0  503  502  0.00000000000E+00  0.00000000000E+00  0.18587684567E+03  0.18587684567E+03  0.00000000000E+00 0. -1.
         21   -1    0    0  501  503 -0.00000000000E+00 -0.00000000000E+00 -0.10174798278E+04  0.10174798278E+04  0.00000000000E+00 0. -1.
    9000007    2    1    2  501    0 -0.99252800939E+02 -0.12679365107E+03 -0.51737543393E+03  0.66981501577E+03  0.39376016466E+03 0.  0.
    9000005    1    3    3    0    0  0.62419069682E+02 -0.10566117301E+03  0.47570084844E+01  0.12281715216E+03  0.99999687468E+00 0.  0.
          4    1    3    3  501    0 -0.16167187062E+03 -0.21132478068E+02 -0.52213244241E+03  0.54699786361E+03  0.00000000000E+00 0.  1.
   -9000007    1    1    2    0  502  0.99252800939E+02  0.12679365107E+03 -0.31422754821E+03  0.53354165770E+03  0.40000000000E+03 0.  1.
<mgrwt>
<rscale>  2 0.42974056E+03</rscale>
<asrwt>0</asrwt>
<pdfrwt beam="1">  1       21 0.28596438E-01 0.43119340E+03</pdfrwt>
<pdfrwt beam="2">  1       21 0.15653536E+00 0.43119340E+03</pdfrwt>
<totfact> 0.27045244E+03</totfact>
</mgrwt>
</event>
<event>
 6    1  0.9598567E-004  0.4569060E+03  0.7818608E-02  0.1025805E+00
         21   -1    0    0  503  502  0.00000000000E+00  0.00000000000E+00  0.60326341067E+03  0.60326341067E+03  0.00000000000E+00 0.  1.
         21   -1    0    0  501  503 -0.00000000000E+00 -0.00000000000E+00 -0.40399186581E+03  0.40399186581E+03  0.00000000000E+00 0. -1.
    9000007    2    1    2  501    0  0.14091429741E+03 -0.16547351961E+03 -0.92998817460E+02  0.46627441767E+03  0.40190139042E+03 0.  0.
    9000005    1    3    3    0    0 -0.10912579319E+03 -0.25486930149E+02 -0.13630644377E+03  0.17646095589E+03  0.99999687468E+00 0.  0.
          4    1    3    3  501    0  0.25004009059E+03 -0.13998658946E+03  0.43307626313E+02  0.28981346178E+03  0.00000000000E+00 0.  1.
   -9000007    1    1    2    0  502 -0.14091429741E+03  0.16547351961E+03  0.29227036233E+03  0.54098085881E+03  0.40000000000E+03 0.  1.
<mgrwt>
<rscale>  2 0.45648748E+03</rscale>
<asrwt>0</asrwt>
<pdfrwt beam="1">  1       21 0.92809756E-01 0.45690596E+03</pdfrwt>
<pdfrwt beam="2">  1       21 0.62152594E-01 0.45690596E+03</pdfrwt>
<totfact> 0.20228465E+03</totfact>
</mgrwt>
</event>
<event>
 6    1  0.9598567E-004  0.4554344E+03  0.7818608E-02  0.1026147E+00
         21   -1    0    0  503  502  0.00000000000E+00  0.00000000000E+00  0.41771079017E+03  0.41771079017E+03  0.00000000000E+00 0. -1.
         21   -1    0    0  501  503 -0.00000000000E+00 -0.00000000000E+00 -0.51532698788E+03  0.51532698788E+03  0.00000000000E+00 0.  1.
    9000007    2    1    2  501    0 -0.15387521705E+03 -0.15275409013E+03  0.41339411220E+02  0.45730670305E+03  0.40051102265E+03 0.  0.
    9000005    1    3    3    0    0 -0.27498012581E+03 -0.20072716838E+02  0.29223191298E+02  0.27725796374E+03  0.99999687468E+00 0.  0.
          4    1    3    3  501    0  0.12110490876E+03 -0.13268137329E+03  0.12116219922E+02  0.18004873931E+03  0.00000000000E+00 0.  1.
   -9000007    1    1    2    0  502  0.15387521705E+03  0.15275409013E+03 -0.13895560893E+03  0.47573107501E+03  0.40000000000E+03 0. -1.
<mgrwt>
<rscale>  2 0.45532200E+03</rscale>
<asrwt>0</asrwt>
<pdfrwt beam="1">  1       21 0.64263199E-01 0.45543438E+03</pdfrwt>
<pdfrwt beam="2">  1       21 0.79281075E-01 0.45543438E+03</pdfrwt>
<totfact> 0.27201453E+03</totfact>
</mgrwt>
</event>
<event>
 6    1  0.9598567E-004  0.4353564E+03  0.7818608E-02  0.1032226E+00
         21   -1    0    0  503  502  0.00000000000E+00  0.00000000000E+00  0.79518318223E+03  0.79518318223E+03  0.00000000000E+00 0. -1.
         21   -1    0    0  501  503 -0.00000000000E+00 -0.00000000000E+00 -0.23837936932E+03  0.23837936932E+03  0.00000000000E+00 0. -1.
    9000007    2    1    2  501    0 -0.72590935274E+02  0.15415935244E+03  0.29810606740E+03  0.52763857173E+03  0.40062536755E+03 0.  0.
    9000005    1    3    3    0    0 -0.15613188753E+03  0.21501187609E+03  0.66349702179E+02  0.27388055085E+03  0.99999687468E+00 0.  0.
          4    1    3    3  501    0  0.83540952256E+02 -0.60852523646E+02  0.23175636522E+03  0.25375802088E+03  0.00000000000E+00 0.  1.
   -9000007    1    1    2    0  502  0.72590935274E+02 -0.15415935244E+03  0.25869774550E+03  0.50592397982E+03  0.40000000000E+03 0. -1.
<mgrwt>
<rscale>  2 0.43521252E+03</rscale>
<asrwt>0</asrwt>
<pdfrwt beam="1">  1       21 0.12233587E+00 0.43535645E+03</pdfrwt>
<pdfrwt beam="2">  1       21 0.36673749E-01 0.43535645E+03</pdfrwt>
<totfact> 0.31495118E+03</totfact>
</mgrwt>
</event>
<event>
 6    1  0.9598567E-004  0.4173819E+03  0.7818608E-02  0.1038747E+00
         21   -1    0    0  503  502  0.00000000000E+00  0.00000000000E+00  0.16576546664E+04  0.16576546664E+04  0.00000000000E+00 0.  1.
         21   -1    0    0  501  503 -0.00000000000E+00 -0.00000000000E+00 -0.10695642473E+03  0.10695642473E+03  0.00000000000E+00 0.  1.
    9000007    2    1    2  501    0 -0.77444551016E+02 -0.41065111436E+01  0.96222362026E+03  0.10488479306E+04  0.41011359916E+03 0.  0.
    9000005    1    3    3    0    0 -0.24655119355E+03 -0.14330123980E+02  0.60589279632E+03  0.65429345413E+03  0.99999687468E+00 0.  0.
          4    1    3    3  501    0  0.16910664253E+03  0.10223612837E+02  0.35633082394E+03  0.39455447646E+03  0.00000000000E+00 0.  1.
   -9000007    1    1    2    0  502  0.77444551016E+02  0.41065111436E+01  0.58847462138E+03  0.71576316050E+03  0.40000000000E+03 0. -1.
<mgrwt>
<rscale>  2 0.41487618E+03</rscale>
<asrwt>0</asrwt>
<pdfrwt beam="1">  1       21 0.25502377E+00 0.41738194E+03</pdfrwt>
<pdfrwt beam="2">  1       21 0.16454836E-01 0.41738194E+03</pdfrwt>
<totfact> 0.17319118E+03</totfact>
</mgrwt>
</event>
<event>
 6    1  0.9598567E-004  0.4285246E+03  0.7818608E-02  0.1034342E+00
         21   -1    0    0  503  502  0.00000000000E+00  0.00000000000E+00  0.39085112956E+03  0.39085112956E+03  0.00000000000E+00 0.  1.
         21   -1    0    0  501  503 -0.00000000000E+00 -0.00000000000E+00 -0.14077526787E+04  0.14077526787E+04  0.00000000000E+00 0. -1.
    9000007    2    1    2  501    0 -0.14869498380E+03 -0.39027747576E+02 -0.12425441723E+04  0.13143022941E+04  0.39980137194E+03 0.  0.
    9000005    1    3    3    0    0  0.38733141156E+02  0.12284829113E+03 -0.77092939804E+03  0.78161697501E+03  0.99999687468E+00 0.  0.
          4    1    3    3  501    0 -0.18742812496E+03 -0.16187603870E+03 -0.47161477423E+03  0.53268531912E+03  0.00000000000E+00 0.  1.
   -9000007    1    1    2    0  502  0.14869498380E+03  0.39027747576E+02  0.22564262308E+03  0.48430151418E+03  0.40000000000E+03 0.  1.
<mgrwt>
<rscale>  2 0.42847828E+03</rscale>
<asrwt>0</asrwt>
<pdfrwt beam="1">  1       21 0.60130943E-01 0.42852464E+03</pdfrwt>
<pdfrwt beam="2">  1       21 0.21657734E+00 0.42852464E+03</pdfrwt>
<totfact> 0.22219286E+02</totfact>
</mgrwt>
</event>
<event>
 6    1  0.9598567E-004  0.4973612E+03  0.7818608E-02  0.1014506E+00
         21   -1    0    0  503  502  0.00000000000E+00  0.00000000000E+00  0.13223081391E+04  0.13223081391E+04  0.00000000000E+00 0. -1.
         21   -1    0    0  501  503 -0.00000000000E+00 -0.00000000000E+00 -0.18799982979E+03  0.18799982979E+03  0.00000000000E+00 0. -1.
    9000007    2    1    2  501    0 -0.11303206692E+03  0.27210709853E+03  0.50879998325E+03  0.71150937902E+03  0.40068647625E+03 0.  0.
    9000005    1    3    3    0    0 -0.20079927196E+03  0.17614669263E+03  0.51624164763E+03  0.58125247843E+03  0.99999687468E+00 0.  0.
          4    1    3    3  501    0  0.87767205040E+02  0.95960405906E+02 -0.74416643765E+01  0.13025690059E+03  0.00000000000E+00 0.  1.
   -9000007    1    1    2    0  502  0.11303206692E+03 -0.27210709853E+03  0.62550832609E+03  0.79879858990E+03  0.40000000000E+03 0. -1.
<mgrwt>
<rscale>  2 0.49722293E+03</rscale>
<asrwt>0</asrwt>
<pdfrwt beam="1">  1       21 0.20343202E+00 0.49736121E+03</pdfrwt>
<pdfrwt beam="2">  1       21 0.28923052E-01 0.49736121E+03</pdfrwt>
<totfact> 0.11975444E+03</totfact>
</mgrwt>
</event>
<event>
 6    1  0.9598567E-004  0.4355890E+03  0.7818608E-02  0.1032364E+00
         21   -1    0    0  503  502  0.00000000000E+00  0.00000000000E+00  0.11122510903E+04  0.11122510903E+04  0.00000000000E+00 0.  1.
         21   -1    0    0  501  503 -0.00000000000E+00 -0.00000000000E+00 -0.26899880375E+03  0.26899880375E+03  0.00000000000E+00 0.  1.
    9000007    2    1    2  501    0 -0.15900294222E+03  0.66751854611E+02  0.20105497893E+00  0.43231727011E+03  0.39643465525E+03 0.  0.
    9000005    1    3    3    0    0  0.38865505212E+02 -0.13357435942E+03 -0.46947840259E+02  0.14682553146E+03  0.99999687468E+00 0.  0.
          4    1    3    3  501    0 -0.19786844743E+03  0.20032621403E+03  0.47148895238E+02  0.28549173865E+03  0.00000000000E+00 0.  1.
   -9000007    1    1    2    0  502  0.15900294222E+03 -0.66751854611E+02  0.84305123158E+03  0.94893262395E+03  0.40000000000E+03 0.  1.
<mgrwt>
<rscale>  2 0.43476872E+03</rscale>
<asrwt>0</asrwt>
<pdfrwt beam="1">  1       21 0.17111555E+00 0.43558896E+03</pdfrwt>
<pdfrwt beam="2">  1       21 0.41384432E-01 0.43558896E+03</pdfrwt>
<totfact> 0.99695997E+02</totfact>
</mgrwt>
</event>
<event>
 6    1  0.9598567E-004  0.4401078E+03  0.7818608E-02  0.1030732E+00
         21   -1    0    0  503  502  0.00000000000E+00  0.00000000000E+00  0.26173668324E+03  0.26173668324E+03  0.00000000000E+00 0. -1.
         21   -1    0    0  501  503 -0.00000000000E+00 -0.00000000000E+00 -0.19669314850E+04  0.19669314850E+04  0.00000000000E+00 0. -1.
    9000007    2    1    2  501    0  0.74244465101E+01  0.18283949935E+03 -0.17329121372E+04  0.17879260037E+04  0.40026180762E+03 0.  0.
    9000005    1    3    3    0    0 -0.18629250757E+03  0.11383183123E+03 -0.11303272934E+04  0.11512182132E+04  0.99999687468E+00 0.  0.
          4    1    3    3  501    0  0.19371695409E+03  0.69007668128E+02 -0.60258484378E+03  0.63670779053E+03  0.00000000000E+00 0.  1.
   -9000007    1    1    2    0  502 -0.74244465101E+01 -0.18283949935E+03  0.27717335390E+02  0.44074216455E+03  0.40000000000E+03 0. -1.
<mgrwt>
<rscale>  2 0.44004832E+03</rscale>
<asrwt>0</asrwt>
<pdfrwt beam="1">  1       21 0.40267183E-01 0.44010785E+03</pdfrwt>
<pdfrwt beam="2">  1       21 0.30260483E+00 0.44010785E+03</pdfrwt>
<totfact> 0.15356830E+02</totfact>
</mgrwt>
</event>
<event>
 6    1  0.9598567E-004  0.6051680E+03  0.7818608E-02  0.9894775E-01
         21   -1    0    0  503  502  0.00000000000E+00  0.00000000000E+00  0.84489731457E+03  0.84489731457E+03  0.00000000000E+00 0. -1.
         21   -1    0    0  501  503 -0.00000000000E+00 -0.00000000000E+00 -0.43387181598E+03  0.43387181598E+03  0.00000000000E+00 0. -1.
    9000007    2    1    2  501    0  0.43782044952E+03 -0.12026446370E+03  0.22632137351E+03  0.64610342020E+03  0.40009746092E+03 0.  0.
    9000005    1    3    3    0    0  0.33938935278E+03 -0.17088555506E+03  0.32332588613E+03  0.49892648190E+03  0.99999687468E+00 0.  0.
          4    1    3    3  501    0  0.98431096740E+02  0.50621091362E+02 -0.97004512623E+02  0.14717693829E+03  0.00000000000E+00 0.  1.
   -9000007    1    1    2    0  502 -0.43782044952E+03  0.12026446370E+03  0.18470412508E+03  0.63266571036E+03  0.40000000000E+03 0. -1.
<mgrwt>
<rscale>  2 0.60515186E+03</rscale>
<asrwt>0</asrwt>
<pdfrwt beam="1">  1       21 0.12998420E+00 0.60516796E+03</pdfrwt>
<pdfrwt beam="2">  1       21 0.66749510E-01 0.60516796E+03</pdfrwt>
<totfact> 0.70741771E+02</totfact>
</mgrwt>
</event>
<event>
 6    1  0.9598567E-004  0.4364115E+03  0.7818608E-02  0.1031892E+00
         21   -1    0    0  503  502  0.00000000000E+00  0.00000000000E+00  0.14632583229E+03  0.14632583229E+03  0.00000000000E+00 0.  1.
         21   -1    0    0  501  503 -0.00000000000E+00 -0.00000000000E+00 -0.14865572847E+04  0.14865572847E+04  0.00000000000E+00 0. -1.
    9000007    2    1    2  501    0 -0.46416096684E+02  0.16822774007E+03 -0.95893272031E+03  0.10533628415E+04  0.39945749120E+03 0.  0.
    9000005    1    3    3    0    0  0.17055001374E+03  0.17919964388E+02 -0.40198562913E+03  0.43703761661E+03  0.99999687468E+00 0.  0.
          4    1    3    3  501    0 -0.21696611042E+03  0.15030777568E+03 -0.55694709118E+03  0.61632522492E+03  0.00000000000E+00 0.  1.
   -9000007    1    1    2    0  502  0.46416096684E+02 -0.16822774007E+03 -0.38129873206E+03  0.57952027543E+03  0.40000000000E+03 0.  1.
<mgrwt>
<rscale>  2 0.43628718E+03</rscale>
<asrwt>0</asrwt>
<pdfrwt beam="1">  1       21 0.22511668E-01 0.43641153E+03</pdfrwt>
<pdfrwt beam="2">  1       21 0.22870110E+00 0.43641153E+03</pdfrwt>
<totfact> 0.13784706E+03</totfact>
</mgrwt>
</event>
<event>
 6    1  0.9598567E-004  0.4308822E+03  0.7818608E-02  0.1033599E+00
         21   -1    0    0  503  502  0.00000000000E+00  0.00000000000E+00  0.31585926007E+03  0.31585926007E+03  0.00000000000E+00 0. -1.
         21   -1    0    0  501  503 -0.00000000000E+00 -0.00000000000E+00 -0.60542317846E+03  0.60542317846E+03  0.00000000000E+00 0. -1.
    9000007    2    1    2  501    0  0.32656970799E+02 -0.15682160451E+03 -0.65449157408E+02  0.43560052670E+03  0.39975584208E+03 0.  0.
    9000005    1    3    3    0    0  0.15835574746E+03 -0.71366507219E+02 -0.17628787066E+03  0.24748360439E+03  0.99999687468E+00 0.  0.
          4    1    3    3  501    0 -0.12569877666E+03 -0.85455097287E+02  0.11083871325E+03  0.18811692232E+03  0.00000000000E+00 0.  1.
   -9000007    1    1    2    0  502 -0.32656970799E+02  0.15682160451E+03 -0.22411476099E+03  0.48568191183E+03  0.40000000000E+03 0. -1.
<mgrwt>
<rscale>  2 0.43082555E+03</rscale>
<asrwt>0</asrwt>
<pdfrwt beam="1">  1       21 0.48593733E-01 0.43088223E+03</pdfrwt>
<pdfrwt beam="2">  1       21 0.93142026E-01 0.43088223E+03</pdfrwt>
<totfact> 0.34449894E+03</totfact>
</mgrwt>
</event>
<event>
 6    1  0.9598567E-004  0.5313610E+03  0.7818608E-02  0.1006062E+00
         21   -1    0    0  503  502  0.00000000000E+00  0.00000000000E+00  0.95832449186E+03  0.95832449186E+03  0.00000000000E+00 0.  1.
         21   -1    0    0  501  503 -0.00000000000E+00 -0.00000000000E+00 -0.48533332667E+03  0.48533332667E+03  0.00000000000E+00 0.  1.
    9000007    2    1    2  501    0 -0.34160817955E+03 -0.75155386986E+02 -0.21805972284E+03  0.57193778871E+03  0.39650764293E+03 0.  0.
    9000005    1    3    3    0    0 -0.47347067492E+02  0.63102579923E+02 -0.23347948057E+03  0.24644948414E+03  0.99999687468E+00 0.  0.
          4    1    3    3  501    0 -0.29426111206E+03 -0.13825796691E+03  0.15419757726E+02  0.32548830457E+03  0.00000000000E+00 0.  1.
   -9000007    1    1    2    0  502  0.34160817955E+03  0.75155386986E+02  0.69105088804E+03  0.87172002982E+03  0.40000000000E+03 0.  1.
<mgrwt>
<rscale>  2 0.53070375E+03</rscale>
<asrwt>0</asrwt>
<pdfrwt beam="1">  1       21 0.14743454E+00 0.53136097E+03</pdfrwt>
<pdfrwt beam="2">  1       21 0.74666666E-01 0.53136097E+03</pdfrwt>
<totfact> 0.40251232E+02</totfact>
</mgrwt>
</event>
<event>
 6    1  0.9598567E-004  0.1023607E+04  0.7818608E-02  0.9283072E-01
         21   -1    0    0  503  502  0.00000000000E+00  0.00000000000E+00  0.78253857369E+03  0.78253857369E+03  0.00000000000E+00 0. -1.
         21   -1    0    0  501  503 -0.00000000000E+00 -0.00000000000E+00 -0.18102312257E+04  0.18102312257E+04  0.00000000000E+00 0. -1.
    9000007    2    1    2  501    0 -0.23527469105E+03  0.91236845220E+03 -0.11754474010E+04  0.15585542325E+04  0.39955516580E+03 0.  0.
    9000005    1    3    3    0    0  0.36164653312E+02  0.43505815677E+03 -0.73398849854E+03  0.85400444841E+03  0.99999687468E+00 0.  0.
          4    1    3    3  501    0 -0.27143934436E+03  0.47731029543E+03 -0.44145890244E+03  0.70454978414E+03  0.00000000000E+00 0.  1.
   -9000007    1    1    2    0  502  0.23527469105E+03 -0.91236845220E+03  0.14775474899E+03  0.10342155668E+04  0.40000000000E+03 0. -1.
<mgrwt>
<rscale>  2 0.10235631E+04</rscale>
<asrwt>0</asrwt>
<pdfrwt beam="1">  1       21 0.12039055E+00 0.10236066E+04</pdfrwt>
<pdfrwt beam="2">  1       21 0.27849711E+00 0.10236066E+04</pdfrwt>
<totfact> 0.13760672E+01</totfact>
</mgrwt>
</event>
<event>
 6    1  0.9598567E-004  0.4722394E+03  0.7818608E-02  0.1021336E+00
         21   -1    0    0  503  502  0.00000000000E+00  0.00000000000E+00  0.21354877454E+03  0.21354877454E+03  0.00000000000E+00 0. -1.
         21   -1    0    0  501  503 -0.00000000000E+00 -0.00000000000E+00 -0.10455597674E+04  0.10455597674E+04  0.00000000000E+00 0. -1.
    9000007    2    1    2  501    0 -0.97932109028E+02 -0.23112623190E+03 -0.38377593991E+03  0.60801354445E+03  0.39923234480E+03 0.  0.
    9000005    1    3    3    0    0 -0.14170211538E+03 -0.25105173348E+03 -0.44496334750E+03  0.53018849761E+03  0.99999687468E+00 0.  0.
          4    1    3    3  501    0  0.43770006352E+02  0.19925501579E+02  0.61187407588E+02  0.77825046846E+02  0.00000000000E+00 0.  1.
   -9000007    1    1    2    0  502  0.97932109028E+02  0.23112623190E+03 -0.44823505295E+03  0.65109499748E+03  0.40000000000E+03 0. -1.
<mgrwt>
<rscale>  2 0.47207678E+03</rscale>
<asrwt>0</asrwt>
<pdfrwt beam="1">  1       21 0.32853658E-01 0.47223938E+03</pdfrwt>
<pdfrwt beam="2">  1       21 0.16085535E+00 0.47223938E+03</pdfrwt>
<totfact> 0.18712437E+03</totfact>
</mgrwt>
</event>
<event>
 6    1  0.9598567E-004  0.4590220E+03  0.7818608E-02  0.1025209E+00
         21   -1    0    0  503  502  0.00000000000E+00  0.00000000000E+00  0.11499143945E+04  0.11499143945E+04  0.00000000000E+00 0. -1.
         21   -1    0    0  501  503 -0.00000000000E+00 -0.00000000000E+00 -0.18293966881E+03  0.18293966881E+03  0.00000000000E+00 0.  1.
    9000007    2    1    2  501    0 -0.17256181875E+03  0.14464985618E+03  0.44783007658E+03  0.63988052205E+03  0.39773627296E+03 0.  0.
    9000005    1    3    3    0    0  0.12861484931E+02 -0.28342464798E+02  0.37465029362E+03  0.37594222377E+03  0.99999687468E+00 0.  0.
          4    1    3    3  501    0 -0.18542330369E+03  0.17299232098E+03  0.73179782958E+02  0.26393829829E+03  0.00000000000E+00 0.  1.
   -9000007    1    1    2    0  502  0.17256181875E+03 -0.14464985618E+03  0.51914464915E+03  0.69297354129E+03  0.40000000000E+03 0. -1.
<mgrwt>
<rscale>  2 0.45852834E+03</rscale>
<asrwt>0</asrwt>
<pdfrwt beam="1">  1       21 0.17690990E+00 0.45902196E+03</pdfrwt>
<pdfrwt beam="2">  1       21 0.28144565E-01 0.45902196E+03</pdfrwt>
<totfact> 0.19528171E+03</totfact>
</mgrwt>
</event>
<event>
 6    1  0.9598567E-004  0.5068606E+03  0.7818608E-02  0.1012020E+00
         21   -1    0    0  503  502  0.00000000000E+00  0.00000000000E+00  0.36166273330E+03  0.36166273330E+03  0.00000000000E+00 0.  1.
         21   -1    0    0  501  503 -0.00000000000E+00 -0.00000000000E+00 -0.73245729475E+03  0.73245729475E+03  0.00000000000E+00 0. -1.
    9000007    2    1    2  501    0 -0.30878872777E+03 -0.39461594309E+02 -0.28115754268E+03  0.57939438175E+03  0.39967560593E+03 0.  0.
    9000005    1    3    3    0    0 -0.99608460411E+02  0.17292268060E+03 -0.16687475018E+03  0.26013896497E+03  0.99999687468E+00 0.  0.
          4    1    3    3  501    0 -0.20918026736E+03 -0.21238427491E+03 -0.11428279250E+03  0.31925541679E+03  0.00000000000E+00 0.  1.
   -9000007    1    1    2    0  502  0.30878872777E+03  0.39461594309E+02 -0.89637018772E+02  0.51472564630E+03  0.40000000000E+03 0. -1.
<mgrwt>
<rscale>  2 0.50679662E+03</rscale>
<asrwt>0</asrwt>
<pdfrwt beam="1">  1       21 0.55640421E-01 0.50686063E+03</pdfrwt>
<pdfrwt beam="2">  1       21 0.11268574E+00 0.50686063E+03</pdfrwt>
<totfact> 0.15745538E+03</totfact>
</mgrwt>
</event>
<event>
 6    1  0.9598567E-004  0.4174050E+03  0.7818608E-02  0.1037944E+00
         21   -1    0    0  503  502  0.00000000000E+00  0.00000000000E+00  0.13642934148E+04  0.13642934148E+04  0.00000000000E+00 0.  1.
         21   -1    0    0  501  503 -0.00000000000E+00 -0.00000000000E+00 -0.43384188698E+03  0.43384188698E+03  0.00000000000E+00 0.  1.
    9000007    2    1    2  501    0  0.22071209523E+02  0.11721682150E+03 -0.29021198737E+03  0.50807858255E+03  0.39961722548E+03 0.  0.
    9000005    1    3    3    0    0  0.17897975289E+03 -0.36914333613E+02 -0.66823728045E+02  0.19458373672E+03  0.99999687468E+00 0.  0.
          4    1    3    3  501    0 -0.15690854337E+03  0.15413115511E+03 -0.22338825932E+03  0.31349484583E+03  0.00000000000E+00 0.  1.
   -9000007    1    1    2    0  502 -0.22071209523E+02 -0.11721682150E+03  0.12206635152E+04  0.12900567192E+04  0.40000000000E+03 0.  1.
<mgrwt>
<rscale>  2 0.41731325E+03</rscale>
<asrwt>0</asrwt>
<pdfrwt beam="1">  1       21 0.20989129E+00 0.41740499E+03</pdfrwt>
<pdfrwt beam="2">  1       21 0.66744906E-01 0.41740499E+03</pdfrwt>
<totfact> 0.19615834E+02</totfact>
</mgrwt>
</event>
<event>
 6    1  0.9598567E-004  0.4731728E+03  0.7818608E-02  0.1021038E+00
         21   -1    0    0  503  502  0.00000000000E+00  0.00000000000E+00  0.41518458061E+03  0.41518458061E+03  0.00000000000E+00 0.  1.
         21   -1    0    0  501  503 -0.00000000000E+00 -0.00000000000E+00 -0.62827972926E+03  0.62827972926E+03  0.00000000000E+00 0.  1.
    9000007    2    1    2  501    0 -0.40741967152E+02  0.24946470043E+03 -0.30310030487E+03  0.56180730245E+03  0.39983134648E+03 0.  0.
    9000005    1    3    3    0    0 -0.38042726617E+02  0.59853278204E+02  0.96343812766E+02  0.11963609076E+03  0.99999687468E+00 0.  0.
          4    1    3    3  501    0 -0.26992405344E+01  0.18961142222E+03 -0.39944411763E+03  0.44217121169E+03  0.00000000000E+00 0.  1.
   -9000007    1    1    2    0  502  0.40741967152E+02 -0.24946470043E+03  0.90005156213E+02  0.48165700741E+03  0.40000000000E+03 0. -1.
<mgrwt>
<rscale>  2 0.47313720E+03</rscale>
<asrwt>0</asrwt>
<pdfrwt beam="1">  1       21 0.63874551E-01 0.47317285E+03</pdfrwt>
<pdfrwt beam="2">  1       21 0.96658419E-01 0.47317285E+03</pdfrwt>
<totfact> 0.17171251E+03</totfact>
</mgrwt>
</event>
<event>
 6    1  0.9598567E-004  0.4511587E+03  0.7818608E-02  0.1027393E+00
         21   -1    0    0  503  502  0.00000000000E+00  0.00000000000E+00  0.19341231202E+04  0.19341231202E+04  0.00000000000E+00 0. -1.
         21   -1    0    0  501  503 -0.00000000000E+00 -0.00000000000E+00 -0.11006479900E+03  0.11006479900E+03  0.00000000000E+00 0.  1.
    9000007    2    1    2  501    0  0.97681135272E+02  0.18439789018E+03  0.69669506994E+03  0.82990126178E+03  0.39975980004E+03 0.  0.
    9000005    1    3    3    0    0 -0.68261351633E+02 -0.86268029649E+02  0.79156931072E+02  0.13553082600E+03  0.99999687468E+00 0.  0.
          4    1    3    3  501    0  0.16594248691E+03  0.27066591983E+03  0.61753813887E+03  0.69437043578E+03  0.00000000000E+00 0.  1.
   -9000007    1    1    2    0  502 -0.97681135272E+02 -0.18439789018E+03  0.11273632513E+04  0.12142866574E+04  0.40000000000E+03 0. -1.
<mgrwt>
<rscale>  2 0.45110547E+03</rscale>
<asrwt>0</asrwt>
<pdfrwt beam="1">  1       21 0.29755738E+00 0.45115871E+03</pdfrwt>
<pdfrwt beam="2">  1       21 0.16933047E-01 0.45115871E+03</pdfrwt>
<totfact> 0.89305696E+02</totfact>
</mgrwt>
</event>
<event>
 6    1  0.9598567E-004  0.4297573E+03  0.7818608E-02  0.1033946E+00
         21   -1    0    0  503  502  0.00000000000E+00  0.00000000000E+00  0.12649336884E+04  0.12649336884E+04  0.00000000000E+00 0. -1.
         21   -1    0    0  501  503 -0.00000000000E+00 -0.00000000000E+00 -0.16759201442E+03  0.16759201442E+03  0.00000000000E+00 0. -1.
    9000007    2    1    2  501    0 -0.22275664647E+02 -0.15554787744E+03  0.29133731228E+03  0.51910664319E+03  0.39987864417E+03 0.  0.
    9000005    1    3    3    0    0  0.10000641563E+03  0.45639918562E+02 -0.36194047768E+02  0.11573804224E+03  0.99999687468E+00 0.  0.
          4    1    3    3  501    0 -0.12228208028E+03 -0.20118779600E+03  0.32753136005E+03  0.40336860095E+03  0.00000000000E+00 0.  1.
   -9000007    1    1    2    0  502  0.22275664647E+02  0.15554787744E+03  0.80600436172E+03  0.91341905965E+03  0.40000000000E+03 0. -1.
<mgrwt>
<rscale>  2 0.42972907E+03</rscale>
<asrwt>0</asrwt>
<pdfrwt beam="1">  1       21 0.19460518E+00 0.42975731E+03</pdfrwt>
<pdfrwt beam="2">  1       21 0.25783388E-01 0.42975731E+03</pdfrwt>
<totfact> 0.17707414E+03</totfact>
</mgrwt>
</event>
<event>
 6    1  0.9598567E-004  0.4032444E+03  0.7818608E-02  0.1042663E+00
         21   -1    0    0  503  502  0.00000000000E+00  0.00000000000E+00  0.92781213009E+03  0.92781213009E+03  0.00000000000E+00 0. -1.
         21   -1    0    0  501  503 -0.00000000000E+00 -0.00000000000E+00 -0.17881150778E+03  0.17881150778E+03  0.00000000000E+00 0. -1.
    9000007    2    1    2  501    0 -0.10413723707E+00  0.50929319681E+02  0.29642831097E+03  0.50047555082E+03  0.40001528343E+03 0.  0.
    9000005    1    3    3    0    0 -0.17496888918E+03 -0.63591642242E+02  0.90317930316E+02  0.20692109045E+03  0.99999687468E+00 0.  0.
          4    1    3    3  501    0  0.17486475194E+03  0.11452096192E+03  0.20611038065E+03  0.29355446037E+03  0.00000000000E+00 0.  1.
   -9000007    1    1    2    0  502  0.10413723707E+00 -0.50929319681E+02  0.45257231133E+03  0.60614808705E+03  0.40000000000E+03 0.  1.
<mgrwt>
<rscale>  2 0.40324059E+03</rscale>
<asrwt>0</asrwt>
<pdfrwt beam="1">  1       21 0.14274032E+00 0.40324438E+03</pdfrwt>
<pdfrwt beam="2">  1       21 0.27509463E-01 0.40324438E+03</pdfrwt>
<totfact> 0.37896583E+03</totfact>
</mgrwt>
</event>
<event>
 6    1  0.9598567E-004  0.4524638E+03  0.7818608E-02  0.1027108E+00
         21   -1    0    0  503  502  0.00000000000E+00  0.00000000000E+00  0.95706353323E+03  0.95706353323E+03  0.00000000000E+00 0.  1.
         21   -1    0    0  501  503 -0.00000000000E+00 -0.00000000000E+00 -0.21316087154E+03  0.21316087154E+03  0.00000000000E+00 0.  1.
    9000007    2    1    2  501    0  0.14720100406E+03  0.14703322164E+03  0.37517850670E+03  0.58777749188E+03  0.40179169256E+03 0.  0.
    9000005    1    3    3    0    0 -0.48695292649E+02  0.56310909856E+02 -0.64146889084E+02  0.98274989025E+02  0.99999687468E+00 0.  0.
          4    1    3    3  501    0  0.19589629671E+03  0.90722311781E+02  0.43932539579E+03  0.48950250286E+03  0.00000000000E+00 0.  1.
   -9000007    1    1    2    0  502 -0.14720100406E+03 -0.14703322164E+03  0.36872415499E+03  0.58244691289E+03  0.40000000000E+03 0. -1.
<mgrwt>
<rscale>  2 0.45206568E+03</rscale>
<asrwt>0</asrwt>
<pdfrwt beam="1">  1       21 0.14724054E+00 0.45246378E+03</pdfrwt>
<pdfrwt beam="2">  1       21 0.32793981E-01 0.45246378E+03</pdfrwt>
<totfact> 0.24126345E+03</totfact>
</mgrwt>
</event>
<event>
 6    1  0.9598567E-004  0.4204855E+03  0.7818608E-02  0.1036934E+00
         21   -1    0    0  503  502  0.00000000000E+00  0.00000000000E+00  0.35433752851E+03  0.35433752851E+03  0.00000000000E+00 0. -1.
         21   -1    0    0  501  503 -0.00000000000E+00 -0.00000000000E+00 -0.75162732433E+03  0.75162732433E+03  0.00000000000E+00 0. -1.
    9000007    2    1    2  501    0  0.12769958008E+03  0.15297510939E+02  0.12214583342E+03  0.43786712830E+03  0.40033338711E+03 0.  0.
    9000005    1    3    3    0    0  0.88831556647E+02 -0.15127765837E+03 -0.62438615473E+02  0.18621373761E+03  0.99999687468E+00 0.  0.
          4    1    3    3  501    0  0.38868023437E+02  0.16657516931E+03  0.18458444890E+03  0.25165339070E+03  0.00000000000E+00 0.  1.
   -9000007    1    1    2    0  502 -0.12769958008E+03 -0.15297510939E+02 -0.51943562924E+03  0.66809772453E+03  0.40000000000E+03 0. -1.
<mgrwt>
<rscale>  2 0.42040608E+03</rscale>
<asrwt>0</asrwt>
<pdfrwt beam="1">  1       21 0.54513467E-01 0.42048545E+03</pdfrwt>
<pdfrwt beam="2">  1       21 0.11563497E+00 0.42048545E+03</pdfrwt>
<totfact> 0.15945331E+03</totfact>
</mgrwt>
</event>
<event>
 6    1  0.9598567E-004  0.4394984E+03  0.7818608E-02  0.1030903E+00
         21   -1    0    0  503  502  0.00000000000E+00  0.00000000000E+00  0.10277950528E+04  0.10277950528E+04  0.00000000000E+00 0.  1.
         21   -1    0    0  501  503 -0.00000000000E+00 -0.00000000000E+00 -0.61143768760E+03  0.61143768760E+03  0.00000000000E+00 0.  1.
    9000007    2    1    2  501    0 -0.79619237069E+02  0.16376705632E+03 -0.47395820442E+03  0.64634770922E+03  0.39996263579E+03 0.  0.
    9000005    1    3    3    0    0  0.26618451668E+00  0.26688432030E+03 -0.17223885960E+03  0.31763900269E+03  0.99999687468E+00 0.  0.
          4    1    3    3  501    0 -0.79885421586E+02 -0.10311726398E+03 -0.30171934482E+03  0.32870870653E+03  0.00000000000E+00 0.  1.
   -9000007    1    1    2    0  502  0.79619237069E+02 -0.16376705632E+03  0.89031556959E+03  0.99288503116E+03  0.40000000000E+03 0.  1.
<mgrwt>
<rscale>  2 0.43948993E+03</rscale>
<asrwt>0</asrwt>
<pdfrwt beam="1">  1       21 0.15812232E+00 0.43949843E+03</pdfrwt>
<pdfrwt beam="2">  1       21 0.94067337E-01 0.43949843E+03</pdfrwt>
<totfact> 0.20194448E+02</totfact>
</mgrwt>
</event>
<event>
 6    1  0.9598567E-004  0.5751543E+03  0.7818608E-02  0.9958498E-01
         21   -1    0    0  503  502  0.00000000000E+00  0.00000000000E+00  0.38025655633E+03  0.38025655633E+03  0.00000000000E+00 0. -1.
         21   -1    0    0  501  503 -0.00000000000E+00 -0.00000000000E+00 -0.11918766722E+04  0.11918766722E+04  0.00000000000E+00 0.  1.
    9000007    2    1    2  501    0 -0.72007699870E+02  0.40696110835E+03 -0.81454713548E+03  0.99697149471E+03  0.39957811852E+03 0.  0.
    9000005    1    3    3    0    0  0.33638535162E+02  0.51955543996E+02  0.34345193850E+02  0.70792103614E+02  0.99999687468E+00 0.  0.
          4    1    3    3  501    0 -0.10564623503E+03  0.35500556435E+03 -0.84889232933E+03  0.92617939110E+03  0.00000000000E+00 0.  1.
   -9000007    1    1    2    0  502  0.72007699870E+02 -0.40696110835E+03  0.29270196541E+01  0.57516173377E+03  0.40000000000E+03 0. -1.
<mgrwt>
<rscale>  2 0.57508094E+03</rscale>
<asrwt>0</asrwt>
<pdfrwt beam="1">  1       21 0.58501009E-01 0.57515429E+03</pdfrwt>
<pdfrwt beam="2">  1       21 0.18336564E+00 0.57515429E+03</pdfrwt>
<totfact> 0.36815915E+02</totfact>
</mgrwt>
</event>
<event>
 6    1  0.9598567E-004  0.5288760E+03  0.7818608E-02  0.1006559E+00
         21   -1    0    0  503  502  0.00000000000E+00  0.00000000000E+00  0.36481098560E+03  0.36481098560E+03  0.00000000000E+00 0.  1.
         21   -1    0    0  501  503 -0.00000000000E+00 -0.00000000000E+00 -0.99670273021E+03  0.99670273021E+03  0.00000000000E+00 0.  1.
    9000007    2    1    2  501    0  0.28017539021E+03  0.20300627453E+03 -0.64366006438E+03  0.83250682537E+03  0.39882269122E+03 0.  0.
    9000005    1    3    3    0    0  0.99027488631E+02  0.26379916220E+03 -0.55378260379E+03  0.62134741790E+03  0.99999687468E+00 0.  0.
          4    1    3    3  501    0  0.18114790158E+03 -0.60792887676E+02 -0.89877460589E+02  0.21115940747E+03  0.00000000000E+00 0.  1.
   -9000007    1    1    2    0  502 -0.28017539021E+03 -0.20300627453E+03  0.11768319766E+02  0.52900689044E+03  0.40000000000E+03 0.  1.
<mgrwt>
<rscale>  2 0.52865337E+03</rscale>
<asrwt>0</asrwt>
<pdfrwt beam="1">  1       21 0.56124768E-01 0.52887597E+03</pdfrwt>
<pdfrwt beam="2">  1       21 0.15333888E+00 0.52887597E+03</pdfrwt>
<totfact> 0.68394782E+02</totfact>
</mgrwt>
</event>
<event>
 6    1  0.9598567E-004  0.4948363E+03  0.7818608E-02  0.1015320E+00
         21   -1    0    0  503  502  0.00000000000E+00  0.00000000000E+00  0.20793867340E+03  0.20793867340E+03  0.00000000000E+00 0.  1.
         21   -1    0    0  501  503 -0.00000000000E+00 -0.00000000000E+00 -0.17802280275E+04  0.17802280275E+04  0.00000000000E+00 0.  1.
    9000007    2    1    2  501    0 -0.10385732235E+03 -0.27217025731E+03 -0.13662384129E+04  0.14521443294E+04  0.39655108160E+03 0.  0.
    9000005    1    3    3    0    0  0.12786725667E+03 -0.17061907559E+03 -0.86220408132E+03  0.88817666155E+03  0.99999687468E+00 0.  0.
          4    1    3    3  501    0 -0.23172457902E+03 -0.10155118172E+03 -0.50403433154E+03  0.56396766787E+03  0.00000000000E+00 0.  1.
   -9000007    1    1    2    0  502  0.10385732235E+03  0.27217025731E+03 -0.20605094127E+03  0.53602237152E+03  0.40000000000E+03 0.  1.
<mgrwt>
<rscale>  2 0.49413892E+03</rscale>
<asrwt>0</asrwt>
<pdfrwt beam="1">  1       21 0.31990565E-01 0.49483633E+03</pdfrwt>
<pdfrwt beam="2">  1       21 0.27388124E+00 0.49483633E+03</pdfrwt>
<totfact> 0.35387283E+02</totfact>
</mgrwt>
</event>
<event>
 6    1  0.9598567E-004  0.5551759E+03  0.7818608E-02  0.1000310E+00
         21   -1    0    0  503  502  0.00000000000E+00  0.00000000000E+00  0.96636059930E+03  0.96636059930E+03  0.00000000000E+00 0.  1.
         21   -1    0    0  501  503 -0.00000000000E+00 -0.00000000000E+00 -0.42547308344E+03  0.42547308344E+03  0.00000000000E+00 0.  1.
    9000007    2    1    2  501    0 -0.16446083454E+02  0.38445970654E+03 -0.77864232610E+02  0.56060960594E+03  0.40017565135E+03 0.  0.
    9000005    1    3    3    0    0  0.90486022408E+02 -0.27017408433E+02 -0.96546029593E+02  0.13505479049E+03  0.99999687468E+00 0.  0.
          4    1    3    3  501    0 -0.10693210586E+03  0.41147711498E+03  0.18681796983E+02  0.42555481545E+03  0.00000000000E+00 0.  1.
   -9000007    1    1    2    0  502  0.16446083454E+02 -0.38445970654E+03  0.61875174847E+03  0.83122407680E+03  0.40000000000E+03 0.  1.
<mgrwt>
<rscale>  2 0.55514426E+03</rscale>
<asrwt>0</asrwt>
<pdfrwt beam="1">  1       21 0.14867086E+00 0.55517591E+03</pdfrwt>
<pdfrwt beam="2">  1       21 0.65457397E-01 0.55517591E+03</pdfrwt>
<totfact> 0.52511213E+02</totfact>
</mgrwt>
</event>
<event>
 6    1  0.9598567E-004  0.4148357E+03  0.7818608E-02  0.1038837E+00
         21   -1    0    0  503  502  0.00000000000E+00  0.00000000000E+00  0.87611558612E+03  0.87611558612E+03  0.00000000000E+00 0. -1.
         21   -1    0    0  501  503 -0.00000000000E+00 -0.00000000000E+00 -0.29072836018E+03  0.29072836018E+03  0.00000000000E+00 0.  1.
    9000007    2    1    2  501    0 -0.10829921284E+03  0.18973041516E+02  0.62553000050E+03  0.75007046087E+03  0.39903536051E+03 0.  0.
    9000005    1    3    3    0    0 -0.89683747063E+02 -0.42313860735E+02  0.66663024156E+03  0.67396625751E+03  0.99999687468E+00 0.  0.
          4    1    3    3  501    0 -0.18615465781E+02  0.61286902251E+02 -0.41100241063E+02  0.76104203361E+02  0.00000000000E+00 0.  1.
   -9000007    1    1    2    0  502  0.10829921284E+03 -0.18973041516E+02 -0.40142774564E+02  0.41677348543E+03  0.40000000000E+03 0.  1.
<mgrwt>
<rscale>  2 0.41460303E+03</rscale>
<asrwt>0</asrwt>
<pdfrwt beam="1">  1       21 0.13478701E+00 0.41483575E+03</pdfrwt>
<pdfrwt beam="2">  1       21 0.44727440E-01 0.41483575E+03</pdfrwt>
<totfact> 0.16419558E+03</totfact>
</mgrwt>
</event>
<event>
 6    1  0.9598567E-004  0.6305813E+03  0.7818608E-02  0.9844159E-01
         21   -1    0    0  503  502  0.00000000000E+00  0.00000000000E+00  0.32037297002E+03  0.32037297002E+03  0.00000000000E+00 0. -1.
         21   -1    0    0  501  503 -0.00000000000E+00 -0.00000000000E+00 -0.12447012353E+04  0.12447012353E+04  0.00000000000E+00 0.  1.
    9000007    2    1    2  501    0 -0.45220166750E+03  0.18206153830E+03 -0.50919900359E+03  0.81011390457E+03  0.39920942035E+03 0.  0.
    9000005    1    3    3    0    0 -0.45621215006E+02  0.36024266202E+02  0.67795984309E+02  0.89310349322E+02  0.99999687468E+00 0.  0.
          4    1    3    3  501    0 -0.40658045250E+03  0.14603727209E+03 -0.57699498790E+03  0.72080355525E+03  0.00000000000E+00 0.  1.
   -9000007    1    1    2    0  502  0.45220166750E+03 -0.18206153830E+03 -0.41512926173E+03  0.75496030079E+03  0.40000000000E+03 0.  1.
<mgrwt>
<rscale>  2 0.63045594E+03</rscale>
<asrwt>0</asrwt>
<pdfrwt beam="1">  1       21 0.49288148E-01 0.63058128E+03</pdfrwt>
<pdfrwt beam="2">  1       21 0.19149250E+00 0.63058128E+03</pdfrwt>
<totfact> 0.45910571E+02</totfact>
</mgrwt>
</event>
<event>
 6    1  0.9598567E-004  0.4516505E+03  0.7818608E-02  0.1027596E+00
         21   -1    0    0  503  502  0.00000000000E+00  0.00000000000E+00  0.89443120242E+03  0.89443120242E+03  0.00000000000E+00 0.  1.
         21   -1    0    0  501  503 -0.00000000000E+00 -0.00000000000E+00 -0.23920195729E+03  0.23920195729E+03  0.00000000000E+00 0.  1.
    9000007    2    1    2  501    0 -0.13049721330E+02  0.20932726623E+03  0.46107669385E+03  0.64202008749E+03  0.39447417597E+03 0.  0.
    9000005    1    3    3    0    0 -0.84976587181E+02 -0.98237039632E+02  0.11520622292E+03  0.17362318428E+03  0.99999687468E+00 0.  0.
          4    1    3    3  501    0  0.71926865852E+02  0.30756430587E+03  0.34587047093E+03  0.46839690321E+03  0.00000000000E+00 0.  1.
   -9000007    1    1    2    0  502  0.13049721330E+02 -0.20932726623E+03  0.19415255128E+03  0.49161307223E+03  0.40000000000E+03 0.  1.
<mgrwt>
<rscale>  2 0.45042391E+03</rscale>
<asrwt>0</asrwt>
<pdfrwt beam="1">  1       21 0.13760480E+00 0.45165053E+03</pdfrwt>
<pdfrwt beam="2">  1       21 0.36800302E-01 0.45165053E+03</pdfrwt>
<totfact> 0.22910635E+03</totfact>
</mgrwt>
</event>
<event>
 6    1  0.9598567E-004  0.4300931E+03  0.7818608E-02  0.1033842E+00
         21   -1    0    0  503  502  0.00000000000E+00  0.00000000000E+00  0.11917521875E+04  0.11917521875E+04  0.00000000000E+00 0. -1.
         21   -1    0    0  501  503 -0.00000000000E+00 -0.00000000000E+00 -0.17873763088E+03  0.17873763088E+03  0.00000000000E+00 0. -1.
    9000007    2    1    2  501    0  0.27645381191E+02  0.15561437599E+03  0.25756946395E+03  0.50119275227E+03  0.39984002433E+03 0.  0.
    9000005    1    3    3    0    0 -0.13574979547E+03  0.14525631256E+03  0.33883202708E+01  0.19884638296E+03  0.99999687468E+00 0.  0.
          4    1    3    3  501    0  0.16339517666E+03  0.10358063424E+02  0.25418114368E+03  0.30234636931E+03  0.00000000000E+00 0.  1.
   -9000007    1    1    2    0  502 -0.27645381191E+02 -0.15561437599E+03  0.75544509272E+03  0.86929706616E+03  0.40000000000E+03 0. -1.
<mgrwt>
<rscale>  2 0.43005593E+03</rscale>
<asrwt>0</asrwt>
<pdfrwt beam="1">  1       21 0.18334649E+00 0.43009313E+03</pdfrwt>
<pdfrwt beam="2">  1       21 0.27498098E-01 0.43009313E+03</pdfrwt>
<totfact> 0.18641356E+03</totfact>
</mgrwt>
</event>
<event>
 6    1  0.9598567E-004  0.4408081E+03  0.7818608E-02  0.1030529E+00
         21   -1    0    0  503  502  0.00000000000E+00  0.00000000000E+00  0.72010021283E+03  0.72010021283E+03  0.00000000000E+00 0.  1.
         21   -1    0    0  501  503 -0.00000000000E+00 -0.00000000000E+00 -0.46013695930E+03  0.46013695930E+03  0.00000000000E+00 0.  1.
    9000007    2    1    2  501    0  0.17311762688E+03  0.65894287612E+02 -0.24978871645E+03  0.50632409111E+03  0.39957216182E+03 0.  0.
    9000005    1    3    3    0    0  0.26462339645E+03  0.62676918805E+02 -0.36719612138E+02  0.27441440926E+03  0.99999687468E+00 0.  0.
          4    1    3    3  501    0 -0.91505769565E+02  0.32173688062E+01 -0.21306910431E+03  0.23190968185E+03  0.00000000000E+00 0.  1.
   -9000007    1    1    2    0  502 -0.17311762688E+03 -0.65894287612E+02  0.50975196997E+03  0.67391308102E+03  0.40000000000E+03 0.  1.
<mgrwt>
<rscale>  2 0.44071101E+03</rscale>
<asrwt>0</asrwt>
<pdfrwt beam="1">  1       21 0.11078465E+00 0.44080809E+03</pdfrwt>
<pdfrwt beam="2">  1       21 0.70790301E-01 0.44080809E+03</pdfrwt>
<totfact> 0.98921758E+02</totfact>
</mgrwt>
</event>
<event>
 6    1  0.9598567E-004  0.4187725E+03  0.7818608E-02  0.1037467E+00
         21   -1    0    0  503  502  0.00000000000E+00  0.00000000000E+00  0.31183000882E+03  0.31183000882E+03  0.00000000000E+00 0. -1.
         21   -1    0    0  501  503 -0.00000000000E+00 -0.00000000000E+00 -0.99696458910E+03  0.99696458910E+03  0.00000000000E+00 0. -1.
    9000007    2    1    2  501    0  0.94911866150E+02 -0.79763214186E+02 -0.77461798445E+03  0.88056835831E+03  0.39999647392E+03 0.  0.
    9000005    1    3    3    0    0  0.82505355327E+02 -0.15532193030E+03 -0.10140989713E+03  0.20301971067E+03  0.99999687468E+00 0.  0.
          4    1    3    3  501    0  0.12406510823E+02  0.75558716115E+02 -0.67320808732E+03  0.67754864764E+03  0.00000000000E+00 0.  1.
   -9000007    1    1    2    0  502 -0.94911866150E+02  0.79763214186E+02  0.89483404170E+02  0.42822623962E+03  0.40000000000E+03 0. -1.
<mgrwt>
<rscale>  2 0.41877169E+03</rscale>
<asrwt>0</asrwt>
<pdfrwt beam="1">  1       21 0.47973848E-01 0.41877253E+03</pdfrwt>
<pdfrwt beam="2">  1       21 0.15337917E+00 0.41877253E+03</pdfrwt>
<totfact> 0.10014678E+03</totfact>
</mgrwt>
</event>
<event>
 6    1  0.9598567E-004  0.4423751E+03  0.7818608E-02  0.1030055E+00
         21   -1    0    0  503  502  0.00000000000E+00  0.00000000000E+00  0.69593281580E+03  0.69593281580E+03  0.00000000000E+00 0. -1.
         21   -1    0    0  501  503 -0.00000000000E+00 -0.00000000000E+00 -0.28332012012E+03  0.28332012012E+03  0.00000000000E+00 0. -1.
    9000007    2    1    2  501    0 -0.10405261015E+03  0.15769827991E+03  0.25135260177E+03  0.50840209855E+03  0.39949827312E+03 0.  0.
    9000005    1    3    3    0    0 -0.54436615787E+02  0.47733517140E+02 -0.10761387647E+03  0.12970574466E+03  0.99999687468E+00 0.  0.
          4    1    3    3  501    0 -0.49615994362E+02  0.10996476277E+03  0.35896647824E+03  0.37869635389E+03  0.00000000000E+00 0.  1.
   -9000007    1    1    2    0  502  0.10405261015E+03 -0.15769827991E+03  0.16126009390E+03  0.47085083737E+03  0.40000000000E+03 0. -1.
<mgrwt>
<rscale>  2 0.44226161E+03</rscale>
<asrwt>0</asrwt>
<pdfrwt beam="1">  1       21 0.10706659E+00 0.44237506E+03</pdfrwt>
<pdfrwt beam="2">  1       21 0.43587711E-01 0.44237506E+03</pdfrwt>
<totfact> 0.30737122E+03</totfact>
</mgrwt>
</event>
<event>
 6    1  0.9598567E-004  0.4630879E+03  0.7818608E-02  0.1023893E+00
         21   -1    0    0  503  502  0.00000000000E+00  0.00000000000E+00  0.10200975154E+04  0.10200975154E+04  0.00000000000E+00 0. -1.
         21   -1    0    0  501  503 -0.00000000000E+00 -0.00000000000E+00 -0.23270950438E+03  0.23270950438E+03  0.00000000000E+00 0. -1.
    9000007    2    1    2  501    0 -0.12353255069E+02 -0.23291830380E+03  0.19890553150E+03  0.50399785326E+03  0.40005860380E+03 0.  0.
    9000005    1    3    3    0    0  0.71690948529E+02 -0.15109744256E+03 -0.91613662912E+02  0.19069371378E+03  0.99999687468E+00 0.  0.
          4    1    3    3  501    0 -0.84044203598E+02 -0.81820861239E+02  0.29051919441E+03  0.31330413948E+03  0.00000000000E+00 0.  1.
   -9000007    1    1    2    0  502  0.12353255069E+02  0.23291830380E+03  0.58848247950E+03  0.74880916650E+03  0.40000000000E+03 0. -1.
<mgrwt>
<rscale>  2 0.46307527E+03</rscale>
<asrwt>0</asrwt>
<pdfrwt beam="1">  1       21 0.15693808E+00 0.46308792E+03</pdfrwt>
<pdfrwt beam="2">  1       21 0.35801463E-01 0.46308792E+03</pdfrwt>
<totfact> 0.16908480E+03</totfact>
</mgrwt>
</event>
<event>
 6    1  0.9598567E-004  0.5656543E+03  0.7818608E-02  0.9980697E-01
         21   -1    0    0  503  502  0.00000000000E+00  0.00000000000E+00  0.37206462232E+03  0.37206462232E+03  0.00000000000E+00 0. -1.
         21   -1    0    0  501  503 -0.00000000000E+00 -0.00000000000E+00 -0.10125320691E+04  0.10125320691E+04  0.00000000000E+00 0.  1.
    9000007    2    1    2  501    0 -0.38128068142E+03 -0.12078824910E+03 -0.59159861399E+03  0.81683536660E+03  0.39656819956E+03 0.  0.
    9000005    1    3    3    0    0  0.32452224337E+02  0.83937095643E+02 -0.42638004584E+02  0.99587058989E+02  0.99999687468E+00 0.  0.
          4    1    3    3  501    0 -0.41373290575E+03 -0.20472534475E+03 -0.54896060941E+03  0.71724830761E+03  0.00000000000E+00 0.  1.
   -9000007    1    1    2    0  502  0.38128068142E+03  0.12078824910E+03 -0.48868832792E+02  0.56776132482E+03  0.40000000000E+03 0. -1.
<mgrwt>
<rscale>  2 0.56504791E+03</rscale>
<asrwt>0</asrwt>
<pdfrwt beam="1">  1       21 0.57240711E-01 0.56565428E+03</pdfrwt>
<pdfrwt beam="2">  1       21 0.15577416E+00 0.56565428E+03</pdfrwt>
<totfact> 0.61893709E+02</totfact>
</mgrwt>
</event>
<event>
 6    1  0.9598567E-004  0.4389846E+03  0.7818608E-02  0.1031062E+00
         21   -1    0    0  503  502  0.00000000000E+00  0.00000000000E+00  0.59316466511E+03  0.59316466511E+03  0.00000000000E+00 0. -1.
         21   -1    0    0  501  503 -0.00000000000E+00 -0.00000000000E+00 -0.35062262205E+03  0.35062262205E+03  0.00000000000E+00 0.  1.
    9000007    2    1    2  501    0 -0.17925822961E+03 -0.23958342363E+02 -0.66803701077E+01  0.43899096558E+03  0.39995115385E+03 0.  0.
    9000005    1    3    3    0    0 -0.30659559191E+01 -0.61843394258E+02  0.17345708705E+03  0.18418025557E+03  0.99999687468E+00 0.  0.
          4    1    3    3  501    0 -0.17619227369E+03  0.37885051894E+02 -0.18013745716E+03  0.25481071001E+03  0.00000000000E+00 0.  1.
   -9000007    1    1    2    0  502  0.17925822961E+03  0.23958342363E+02  0.24922241317E+03  0.50479632158E+03  0.40000000000E+03 0. -1.
<mgrwt>
<rscale>  2 0.43897351E+03</rscale>
<asrwt>0</asrwt>
<pdfrwt beam="1">  1       21 0.91256102E-01 0.43898464E+03</pdfrwt>
<pdfrwt beam="2">  1       21 0.53941942E-01 0.43898464E+03</pdfrwt>
<totfact> 0.28859998E+03</totfact>
</mgrwt>
</event>
<event>
 6    1  0.9598567E-004  0.4453991E+03  0.7818608E-02  0.1029135E+00
         21   -1    0    0  503  502  0.00000000000E+00  0.00000000000E+00  0.13882070907E+04  0.13882070907E+04  0.00000000000E+00 0.  1.
         21   -1    0    0  501  503 -0.00000000000E+00 -0.00000000000E+00 -0.15564245804E+03  0.15564245804E+03  0.00000000000E+00 0. -1.
    9000007    2    1    2  501    0  0.19335289196E+03 -0.24765622899E+02  0.83857875596E+03  0.94952341946E+03  0.40047686231E+03 0.  0.
    9000005    1    3    3    0    0  0.79285233953E+02 -0.11373115792E+03  0.49377164994E+02  0.14717346576E+03  0.99999687468E+00 0.  0.
          4    1    3    3  501    0  0.11406765801E+03  0.88965535025E+02  0.78920159097E+03  0.80234995370E+03  0.00000000000E+00 0.  1.
   -9000007    1    1    2    0  502 -0.19335289196E+03  0.24765622899E+02  0.39398587669E+03  0.59432612927E+03  0.40000000000E+03 0. -1.
<mgrwt>
<rscale>  2 0.44529192E+03</rscale>
<asrwt>0</asrwt>
<pdfrwt beam="1">  1       21 0.21357031E+00 0.44539914E+03</pdfrwt>
<pdfrwt beam="2">  1       21 0.23944994E-01 0.44539914E+03</pdfrwt>
<totfact> 0.15216962E+03</totfact>
</mgrwt>
</event>
<event>
 6    1  0.9598567E-004  0.4968657E+03  0.7818608E-02  0.1015130E+00
         21   -1    0    0  503  502  0.00000000000E+00  0.00000000000E+00  0.12266695077E+04  0.12266695077E+04  0.00000000000E+00 0. -1.
         21   -1    0    0  501  503 -0.00000000000E+00 -0.00000000000E+00 -0.19828320746E+03  0.19828320746E+03  0.00000000000E+00 0. -1.
    9000007    2    1    2  501    0  0.13402401994E+03  0.24707173651E+03  0.54348588091E+03  0.73637788440E+03  0.40971771377E+03 0.  0.
    9000005    1    3    3    0    0  0.25690357491E+03  0.13070147233E+03  0.19218357366E+03  0.34643592142E+03  0.99999687468E+00 0.  0.
          4    1    3    3  501    0 -0.12287955497E+03  0.11637026418E+03  0.35130230725E+03  0.38994196298E+03  0.00000000000E+00 0.  1.
   -9000007    1    1    2    0  502 -0.13402401994E+03 -0.24707173651E+03  0.48490041936E+03  0.68857483079E+03  0.40000000000E+03 0. -1.
<mgrwt>
<rscale>  2 0.49485793E+03</rscale>
<asrwt>0</asrwt>
<pdfrwt beam="1">  1       21 0.18871838E+00 0.49686566E+03</pdfrwt>
<pdfrwt beam="2">  1       21 0.30505110E-01 0.49686566E+03</pdfrwt>
<totfact> 0.13549552E+03</totfact>
</mgrwt>
</event>
<event>
 6    1  0.9598567E-004  0.4275791E+03  0.7818608E-02  0.1034648E+00
         21   -1    0    0  503  502  0.00000000000E+00  0.00000000000E+00  0.29852976616E+03  0.29852976616E+03  0.00000000000E+00 0.  1.
         21   -1    0    0  501  503 -0.00000000000E+00 -0.00000000000E+00 -0.86663822471E+03  0.86663822471E+03  0.00000000000E+00 0.  1.
    9000007    2    1    2  501    0  0.14918983130E+03  0.23797339999E+02 -0.59976081658E+03  0.73641889067E+03  0.39971968462E+03 0.  0.
    9000005    1    3    3    0    0  0.24584781910E+03  0.43065064148E+02 -0.58595272960E+03  0.63689665663E+03  0.99999687468E+00 0.  0.
          4    1    3    3  501    0 -0.96657987807E+02 -0.19267724149E+02 -0.13808086974E+02  0.99522234032E+02  0.00000000000E+00 0.  1.
   -9000007    1    1    2    0  502 -0.14918983130E+03 -0.23797339999E+02  0.31652358033E+02  0.42874910020E+03  0.40000000000E+03 0. -1.
<mgrwt>
<rscale>  2 0.42751357E+03</rscale>
<asrwt>0</asrwt>
<pdfrwt beam="1">  1       21 0.45927657E-01 0.42757914E+03</pdfrwt>
<pdfrwt beam="2">  1       21 0.13332896E+00 0.42757914E+03</pdfrwt>
<totfact> 0.15894618E+03</totfact>
</mgrwt>
</event>
<event>
 6    1  0.9598567E-004  0.5213117E+03  0.7818608E-02  0.1008388E+00
         21   -1    0    0  503  502  0.00000000000E+00  0.00000000000E+00  0.35341472132E+03  0.35341472132E+03  0.00000000000E+00 0. -1.
         21   -1    0    0  501  503 -0.00000000000E+00 -0.00000000000E+00 -0.77392977243E+03  0.77392977243E+03  0.00000000000E+00 0. -1.
    9000007    2    1    2  501    0 -0.29113454174E+03 -0.16433682646E+03 -0.25812163382E+03  0.58132477258E+03  0.39943184580E+03 0.  0.
    9000005    1    3    3    0    0 -0.59526023731E+02 -0.26251537720E+03 -0.14006945087E+03  0.30344377046E+03  0.99999687468E+00 0.  0.
          4    1    3    3  501    0 -0.23160851801E+03  0.98178550737E+02 -0.11805218294E+03  0.27788100212E+03  0.00000000000E+00 0.  1.
   -9000007    1    1    2    0  502  0.29113454174E+03  0.16433682646E+03 -0.16239341729E+03  0.54601972117E+03  0.40000000000E+03 0. -1.
<mgrwt>
<rscale>  2 0.52120274E+03</rscale>
<asrwt>0</asrwt>
<pdfrwt beam="1">  1       21 0.54371497E-01 0.52131172E+03</pdfrwt>
<pdfrwt beam="2">  1       21 0.11906612E+00 0.52131172E+03</pdfrwt>
<totfact> 0.14339214E+03</totfact>
</mgrwt>
</event>
<event>
 6    1  0.9598567E-004  0.5470881E+03  0.7818608E-02  0.1002171E+00
         21   -1    0    0  503  502  0.00000000000E+00  0.00000000000E+00  0.16745694644E+04  0.16745694644E+04  0.00000000000E+00 0.  1.
         21   -1    0    0  501  503 -0.00000000000E+00 -0.00000000000E+00 -0.21242459252E+03  0.21242459252E+03  0.00000000000E+00 0. -1.
    9000007    2    1    2  501    0  0.36076321164E+03  0.95683396687E+02  0.35529156522E+03  0.65231610308E+03  0.39997349255E+03 0.  0.
    9000005    1    3    3    0    0  0.27174731600E+03  0.24648519141E+03  0.19784027220E+03  0.41682529510E+03  0.99999687468E+00 0.  0.
          4    1    3    3  501    0  0.89015895637E+02 -0.15080179472E+03  0.15745129303E+03  0.23549080798E+03  0.00000000000E+00 0.  1.
   -9000007    1    1    2    0  502 -0.36076321164E+03 -0.95683396687E+02  0.11068533067E+04  0.12346779539E+04  0.40000000000E+03 0.  1.
<mgrwt>
<rscale>  2 0.54708327E+03</rscale>
<asrwt>0</asrwt>
<pdfrwt beam="1">  1       21 0.25762606E+00 0.54708812E+03</pdfrwt>
<pdfrwt beam="2">  1       21 0.32680708E-01 0.54708812E+03</pdfrwt>
<totfact> 0.41583921E+02</totfact>
</mgrwt>
</event>
<event>
 6    1  0.9598567E-004  0.4461634E+03  0.7818608E-02  0.1028877E+00
         21   -1    0    0  503  502  0.00000000000E+00  0.00000000000E+00  0.80364566589E+03  0.80364566589E+03  0.00000000000E+00 0.  1.
         21   -1    0    0  501  503 -0.00000000000E+00 -0.00000000000E+00 -0.35363344337E+03  0.35363344337E+03  0.00000000000E+00 0.  1.
    9000007    2    1    2  501    0 -0.18480158629E+03 -0.70072395145E+02 -0.91752428001E+02  0.45544529459E+03  0.39993767197E+03 0.  0.
    9000005    1    3    3    0    0  0.94178040695E+02 -0.12035135697E+03 -0.78147253107E+02  0.17164482409E+03  0.99999687468E+00 0.  0.
          4    1    3    3  501    0 -0.27897962698E+03  0.50278961825E+02 -0.13605174894E+02  0.28380047050E+03  0.00000000000E+00 0.  1.
   -9000007    1    1    2    0  502  0.18480158629E+03  0.70072395145E+02  0.54176465053E+03  0.70183381467E+03  0.40000000000E+03 0.  1.
<mgrwt>
<rscale>  2 0.44614942E+03</rscale>
<asrwt>0</asrwt>
<pdfrwt beam="1">  1       21 0.12363779E+00 0.44616339E+03</pdfrwt>
<pdfrwt beam="2">  1       21 0.54405145E-01 0.44616339E+03</pdfrwt>
<totfact> 0.13373029E+03</totfact>
</mgrwt>
</event>
<event>
 6    1  0.9598567E-004  0.4812783E+03  0.7818608E-02  0.1018882E+00
         21   -1    0    0  503  502  0.00000000000E+00  0.00000000000E+00  0.49617694503E+03  0.49617694503E+03  0.00000000000E+00 0.  1.
         21   -1    0    0  501  503 -0.00000000000E+00 -0.00000000000E+00 -0.72116026555E+03  0.72116026555E+03  0.00000000000E+00 0.  1.
    9000007    2    1    2  501    0  0.54782806170E+02  0.25935206090E+03 -0.47504014931E+03  0.67623364843E+03  0.40170157638E+03 0.  0.
    9000005    1    3    3    0    0  0.19268766648E+03  0.11158242774E+03 -0.40526417383E+03  0.46240590997E+03  0.99999687468E+00 0.  0.
          4    1    3    3  501    0 -0.13790486031E+03  0.14776963316E+03 -0.69775975487E+02  0.21382773846E+03  0.00000000000E+00 0.  1.
   -9000007    1    1    2    0  502 -0.54782806170E+02 -0.25935206090E+03  0.25005682880E+03  0.54110356215E+03  0.40000000000E+03 0.  1.
<mgrwt>
<rscale>  2 0.48092308E+03</rscale>
<asrwt>0</asrwt>
<pdfrwt beam="1">  1       21 0.76334915E-01 0.48127830E+03</pdfrwt>
<pdfrwt beam="2">  1       21 0.11094773E+00 0.48127830E+03</pdfrwt>
<totfact> 0.81657741E+02</totfact>
</mgrwt>
</event>
<event>
 6    1  0.9598567E-004  0.4373307E+03  0.7818608E-02  0.1031586E+00
         21   -1    0    0  503  502  0.00000000000E+00  0.00000000000E+00  0.54708477694E+03  0.54708477694E+03  0.00000000000E+00 0. -1.
         21   -1    0    0  501  503 -0.00000000000E+00 -0.00000000000E+00 -0.51300928239E+03  0.51300928239E+03  0.00000000000E+00 0. -1.
    9000007    2    1    2  501    0  0.17350438601E+03 -0.31100724598E+02 -0.28227119270E+03  0.52051435848E+03  0.40023386179E+03 0.  0.
    9000005    1    3    3    0    0  0.27781380189E+03 -0.25918288417E+02 -0.30527044343E+03  0.41357382632E+03  0.99999687468E+00 0.  0.
          4    1    3    3  501    0 -0.10430941588E+03 -0.51824361811E+01  0.22999250728E+02  0.10694053216E+03  0.00000000000E+00 0.  1.
   -9000007    1    1    2    0  502 -0.17350438601E+03  0.31100724598E+02  0.31634668725E+03  0.53957970085E+03  0.40000000000E+03 0. -1.
<mgrwt>
<rscale>  2 0.43727722E+03</rscale>
<asrwt>0</asrwt>
<pdfrwt beam="1">  1       21 0.84166889E-01 0.43733073E+03</pdfrwt>
<pdfrwt beam="2">  1       21 0.78924505E-01 0.43733073E+03</pdfrwt>
<totfact> 0.14985691E+03</totfact>
</mgrwt>
</event>
<event>
 6    1  0.9598567E-004  0.4488679E+03  0.7818608E-02  0.1028073E+00
         21   -1    0    0  503  502  0.00000000000E+00  0.00000000000E+00  0.94499800904E+03  0.94499800904E+03  0.00000000000E+00 0.  1.
         21   -1    0    0  501  503 -0.00000000000E+00 -0.00000000000E+00 -0.36493276977E+03  0.36493276977E+03  0.00000000000E+00 0.  1.
    9000007    2    1    2  501    0 -0.11427752936E+03  0.16859145303E+03 -0.13242772828E+03  0.46783300505E+03  0.39981018702E+03 0.  0.
    9000005    1    3    3    0    0  0.29450682451E+02  0.19847202122E+03  0.74576473763E+02  0.21405872170E+03  0.99999687468E+00 0.  0.
          4    1    3    3  501    0 -0.14372821181E+03 -0.29880568192E+02 -0.20700420205E+03  0.25377428335E+03  0.00000000000E+00 0.  1.
   -9000007    1    1    2    0  502  0.11427752936E+03 -0.16859145303E+03  0.71249296755E+03  0.84209777375E+03  0.40000000000E+03 0.  1.
<mgrwt>
<rscale>  2 0.44882565E+03</rscale>
<asrwt>0</asrwt>
<pdfrwt beam="1">  1       21 0.14538431E+00 0.44886794E+03</pdfrwt>
<pdfrwt beam="2">  1       21 0.56143503E-01 0.44886794E+03</pdfrwt>
<totfact> 0.81607045E+02</totfact>
</mgrwt>
</event>
<event>
 6    1  0.9598567E-004  0.4663276E+03  0.7818608E-02  0.1022974E+00
         21   -1    0    0  503  502  0.00000000000E+00  0.00000000000E+00  0.65749992711E+03  0.65749992711E+03  0.00000000000E+00 0.  1.
         21   -1    0    0  501  503 -0.00000000000E+00 -0.00000000000E+00 -0.39113976346E+03  0.39113976346E+03  0.00000000000E+00 0.  1.
    9000007    2    1    2  501    0 -0.16304756568E+03 -0.17571817599E+03  0.33940066759E+03  0.57662665976E+03  0.39980508443E+03 0.  0.
    9000005    1    3    3    0    0 -0.19564303350E+03 -0.76935163854E+02 -0.11587902021E+02  0.21054808349E+03  0.99999687468E+00 0.  0.
          4    1    3    3  501    0  0.32595467815E+02 -0.98783012135E+02  0.35098856961E+03  0.36607857627E+03  0.00000000000E+00 0.  1.
   -9000007    1    1    2    0  502  0.16304756568E+03  0.17571817599E+03 -0.73040503937E+02  0.47201303082E+03  0.40000000000E+03 0.  1.
<mgrwt>
<rscale>  2 0.46628575E+03</rscale>
<asrwt>0</asrwt>
<pdfrwt beam="1">  1       21 0.10115383E+00 0.46632755E+03</pdfrwt>
<pdfrwt beam="2">  1       21 0.60175348E-01 0.46632755E+03</pdfrwt>
<totfact> 0.17587185E+03</totfact>
</mgrwt>
</event>
<event>
 6    1  0.9598567E-004  0.5083631E+03  0.7818608E-02  0.1011624E+00
         21   -1    0    0  503  502  0.00000000000E+00  0.00000000000E+00  0.11493408624E+04  0.11493408624E+04  0.00000000000E+00 0. -1.
         21   -1    0    0  501  503 -0.00000000000E+00 -0.00000000000E+00 -0.38914963275E+03  0.38914963275E+03  0.00000000000E+00 0. -1.
    9000007    2    1    2  501    0 -0.30163611304E+03 -0.85865827129E+02 -0.11976635870E+03  0.52228055511E+03  0.40009462957E+03 0.  0.
    9000005    1    3    3    0    0 -0.11944342517E+03 -0.12398145037E+03 -0.24390576896E+03  0.29854506524E+03  0.99999687468E+00 0.  0.
          4    1    3    3  501    0 -0.18219268787E+03  0.38115623238E+02  0.12413941026E+03  0.22373548987E+03  0.00000000000E+00 0.  1.
   -9000007    1    1    2    0  502  0.30163611304E+03  0.85865827129E+02  0.87995758838E+03  0.10162099401E+04  0.40000000000E+03 0. -1.
<mgrwt>
<rscale>  2 0.50834444E+03</rscale>
<asrwt>0</asrwt>
<pdfrwt beam="1">  1       21 0.17682167E+00 0.50836306E+03</pdfrwt>
<pdfrwt beam="2">  1       21 0.59869175E-01 0.50836306E+03</pdfrwt>
<totfact> 0.40004797E+02</totfact>
</mgrwt>
</event>
<event>
 6    1  0.9598567E-004  0.4211733E+03  0.7818608E-02  0.1036755E+00
         21   -1    0    0  503  502  0.00000000000E+00  0.00000000000E+00  0.10030649044E+04  0.10030649044E+04  0.00000000000E+00 0.  1.
         21   -1    0    0  501  503 -0.00000000000E+00 -0.00000000000E+00 -0.18424560128E+03  0.18424560128E+03  0.00000000000E+00 0.  1.
    9000007    2    1    2  501    0  0.83910369168E+02 -0.10171519057E+03  0.28716756960E+03  0.50904765413E+03  0.39909569165E+03 0.  0.
    9000005    1    3    3    0    0  0.11425613811E+03 -0.21866510405E+03  0.63383427020E+02  0.25472995827E+03  0.99999687468E+00 0.  0.
          4    1    3    3  501    0 -0.30345768944E+02  0.11694991348E+03  0.22378414258E+03  0.25431769586E+03  0.00000000000E+00 0.  1.
   -9000007    1    1    2    0  502 -0.83910369168E+02  0.10171519057E+03  0.53165173353E+03  0.67826285156E+03  0.40000000000E+03 0. -1.
<mgrwt>
<rscale>  2 0.42095843E+03</rscale>
<asrwt>0</asrwt>
<pdfrwt beam="1">  1       21 0.15431768E+00 0.42117328E+03</pdfrwt>
<pdfrwt beam="2">  1       21 0.28345478E-01 0.42117328E+03</pdfrwt>
<totfact> 0.28736437E+03</totfact>
</mgrwt>
</event>
<event>
 6    1  0.9598567E-004  0.4512388E+03  0.7818608E-02  0.1027379E+00
         21   -1    0    0  503  502  0.00000000000E+00  0.00000000000E+00  0.54931466897E+03  0.54931466897E+03  0.00000000000E+00 0. -1.
         21   -1    0    0  501  503 -0.00000000000E+00 -0.00000000000E+00 -0.70135300177E+03  0.70135300177E+03  0.00000000000E+00 0. -1.
    9000007    2    1    2  501    0  0.71682658509E+01  0.20872252754E+03 -0.50557454181E+03  0.67742746924E+03  0.39960715861E+03 0.  0.
    9000005    1    3    3    0    0  0.71658937027E+02  0.29149158943E+03 -0.48519168621E+03  0.57053862474E+03  0.99999687468E+00 0.  0.
          4    1    3    3  501    0 -0.64490671176E+02 -0.82769061893E+02 -0.20382855607E+02  0.10688884450E+03  0.00000000000E+00 0.  1.
   -9000007    1    1    2    0  502 -0.71682658509E+01 -0.20872252754E+03  0.35353620901E+03  0.57324020150E+03  0.40000000000E+03 0. -1.
<mgrwt>
<rscale>  2 0.45115175E+03</rscale>
<asrwt>0</asrwt>
<pdfrwt beam="1">  1       21 0.84509949E-01 0.45123883E+03</pdfrwt>
<pdfrwt beam="2">  1       21 0.10790046E+00 0.45123883E+03</pdfrwt>
<totfact> 0.70013831E+02</totfact>
</mgrwt>
</event>
<event>
 6    1  0.9598567E-004  0.5094403E+03  0.7818608E-02  0.1011348E+00
         21   -1    0    0  503  502  0.00000000000E+00  0.00000000000E+00  0.57100841775E+03  0.57100841775E+03  0.00000000000E+00 0.  1.
         21   -1    0    0  501  503 -0.00000000000E+00 -0.00000000000E+00 -0.10117321242E+04  0.10117321242E+04  0.00000000000E+00 0.  1.
    9000007    2    1    2  501    0  0.30012372539E+03 -0.97237555153E+02 -0.80768511047E+03  0.95489496806E+03  0.39992470500E+03 0.  0.
    9000005    1    3    3    0    0  0.44428747194E+02 -0.18726335420E+03 -0.15155730465E+03  0.24497365979E+03  0.99999687468E+00 0.  0.
          4    1    3    3  501    0  0.25569497820E+03  0.90025799043E+02 -0.65612780582E+03  0.70992130827E+03  0.00000000000E+00 0.  1.
   -9000007    1    1    2    0  502 -0.30012372539E+03  0.97237555153E+02  0.36696140399E+03  0.62784557392E+03  0.40000000000E+03 0.  1.
<mgrwt>
<rscale>  2 0.50942549E+03</rscale>
<asrwt>0</asrwt>
<pdfrwt beam="1">  1       21 0.87847450E-01 0.50944027E+03</pdfrwt>
<pdfrwt beam="2">  1       21 0.15565109E+00 0.50944027E+03</pdfrwt>
<totfact> 0.23994250E+02</totfact>
</mgrwt>
</event>
<event>
 6    1  0.9598567E-004  0.4488162E+03  0.7818608E-02  0.1028076E+00
         21   -1    0    0  503  502  0.00000000000E+00  0.00000000000E+00  0.18634511703E+04  0.18634511703E+04  0.00000000000E+00 0.  1.
         21   -1    0    0  501  503 -0.00000000000E+00 -0.00000000000E+00 -0.58578839011E+03  0.58578839011E+03  0.00000000000E+00 0. -1.
    9000007    2    1    2  501    0  0.16233668895E+03 -0.12281201216E+03 -0.46704263551E+03  0.64773103184E+03  0.39998834397E+03 0.  0.
    9000005    1    3    3    0    0 -0.59551148722E+02 -0.35583558730E+01 -0.37472203585E+03  0.37944249282E+03  0.99999687468E+00 0.  0.
          4    1    3    3  501    0  0.22188783767E+03 -0.11925365629E+03 -0.92320599658E+02  0.26828853902E+03  0.00000000000E+00 0.  1.
   -9000007    1    1    2    0  502 -0.16233668895E+03  0.12281201216E+03  0.17447054157E+04  0.18015085286E+04  0.40000000000E+03 0.  1.
<mgrwt>
<rscale>  2 0.44881361E+03</rscale>
<asrwt>0</asrwt>
<pdfrwt beam="1">  1       21 0.28668479E+00 0.44881621E+03</pdfrwt>
<pdfrwt beam="2">  1       21 0.90121292E-01 0.44881621E+03</pdfrwt>
<totfact> 0.32350803E+01</totfact>
</mgrwt>
</event>
<event>
 6    1  0.9598567E-004  0.4226998E+03  0.7818608E-02  0.1036323E+00
         21   -1    0    0  503  502  0.00000000000E+00  0.00000000000E+00  0.26565530373E+03  0.26565530373E+03  0.00000000000E+00 0. -1.
         21   -1    0    0  501  503 -0.00000000000E+00 -0.00000000000E+00 -0.68091048325E+03  0.68091048325E+03  0.00000000000E+00 0. -1.
    9000007    2    1    2  501    0 -0.13073045339E+03 -0.14416546532E+02 -0.14808188137E+03  0.44788767487E+03  0.40171736016E+03 0.  0.
    9000005    1    3    3    0    0 -0.16034566360E+03  0.48890922107E+02  0.96560077811E+02  0.19345775435E+03  0.99999687468E+00 0.  0.
          4    1    3    3  501    0  0.29615210211E+02 -0.63307468639E+02 -0.24464195918E+03  0.25442992051E+03  0.00000000000E+00 0.  1.
   -9000007    1    1    2    0  502  0.13073045339E+03  0.14416546532E+02 -0.26717329816E+03  0.49867811212E+03  0.40000000000E+03 0. -1.
<mgrwt>
<rscale>  2 0.42229127E+03</rscale>
<asrwt>0</asrwt>
<pdfrwt beam="1">  1       21 0.40870048E-01 0.42269981E+03</pdfrwt>
<pdfrwt beam="2">  1       21 0.10475546E+00 0.42269981E+03</pdfrwt>
<totfact> 0.37336368E+03</totfact>
</mgrwt>
</event>
<event>
 6    1  0.9598567E-004  0.4539951E+03  0.7818608E-02  0.1026701E+00
         21   -1    0    0  503  502  0.00000000000E+00  0.00000000000E+00  0.10377867126E+04  0.10377867126E+04  0.00000000000E+00 0.  1.
         21   -1    0    0  501  503 -0.00000000000E+00 -0.00000000000E+00 -0.25202790030E+03  0.25202790030E+03  0.00000000000E+00 0.  1.
    9000007    2    1    2  501    0 -0.16938814223E+02  0.21406688029E+03  0.92532626177E+02  0.46115660276E+03  0.39748153755E+03 0.  0.
    9000005    1    3    3    0    0  0.83000687928E+02 -0.71006038544E+02 -0.57964397529E+02  0.12366019198E+03  0.99999687468E+00 0.  0.
          4    1    3    3  501    0 -0.99939502151E+02  0.28507291883E+03  0.15049702371E+03  0.33749641078E+03  0.00000000000E+00 0.  1.
   -9000007    1    1    2    0  502  0.16938814223E+02 -0.21406688029E+03  0.69322618616E+03  0.82865801018E+03  0.40000000000E+03 0.  1.
<mgrwt>
<rscale>  2 0.45343974E+03</rscale>
<asrwt>0</asrwt>
<pdfrwt beam="1">  1       21 0.15965949E+00 0.45399510E+03</pdfrwt>
<pdfrwt beam="2">  1       21 0.38773524E-01 0.45399510E+03</pdfrwt>
<totfact> 0.13749710E+03</totfact>
</mgrwt>
</event>
<event>
 6    1  0.9598567E-004  0.4889431E+03  0.7818608E-02  0.1016748E+00
         21   -1    0    0  503  502  0.00000000000E+00  0.00000000000E+00  0.36703065548E+03  0.36703065548E+03  0.00000000000E+00 0.  1.
         21   -1    0    0  501  503 -0.00000000000E+00 -0.00000000000E+00 -0.13162832826E+04  0.13162832826E+04  0.00000000000E+00 0. -1.
    9000007    2    1    2  501    0  0.16030211592E+03 -0.22967535208E+03 -0.10733608759E+04  0.11794782573E+04  0.40077157326E+03 0.  0.
    9000005    1    3    3    0    0  0.23634886061E+03 -0.27799257977E+03 -0.99596653324E+03  0.10607030657E+04  0.99999687468E+00 0.  0.
          4    1    3    3  501    0 -0.76046744686E+02  0.48317227691E+02 -0.77394342652E+02  0.11877519162E+03  0.00000000000E+00 0.  1.
   -9000007    1    1    2    0  502 -0.16030211592E+03  0.22967535208E+03  0.12410824880E+03  0.50383568070E+03  0.40000000000E+03 0.  1.
<mgrwt>
<rscale>  2 0.48878500E+03</rscale>
<asrwt>0</asrwt>
<pdfrwt beam="1">  1       21 0.56466255E-01 0.48894314E+03</pdfrwt>
<pdfrwt beam="2">  1       21 0.20250512E+00 0.48894314E+03</pdfrwt>
<totfact> 0.30515563E+02</totfact>
</mgrwt>
</event>
<event>
 6    1  0.9598567E-004  0.5182533E+03  0.7818608E-02  0.1009122E+00
         21   -1    0    0  503  502  0.00000000000E+00  0.00000000000E+00  0.27817372453E+03  0.27817372453E+03  0.00000000000E+00 0. -1.
         21   -1    0    0  501  503 -0.00000000000E+00 -0.00000000000E+00 -0.11670696419E+04  0.11670696419E+04  0.00000000000E+00 0.  1.
    9000007    2    1    2  501    0  0.28113662628E+03 -0.17189716068E+03 -0.74473790248E+03  0.90731403114E+03  0.39999721404E+03 0.  0.
    9000005    1    3    3    0    0 -0.38945917695E+02 -0.12314174526E+03 -0.45820833533E+02  0.13704460117E+03  0.99999687468E+00 0.  0.
          4    1    3    3  501    0  0.32008254398E+03 -0.48755415418E+02 -0.69891706895E+03  0.77026942997E+03  0.00000000000E+00 0.  1.
   -9000007    1    1    2    0  502 -0.28113662628E+03  0.17189716068E+03 -0.14415801488E+03  0.53792933526E+03  0.40000000000E+03 0. -1.
<mgrwt>
<rscale>  2 0.51825272E+03</rscale>
<asrwt>0</asrwt>
<pdfrwt beam="1">  1       21 0.42795958E-01 0.51825326E+03</pdfrwt>
<pdfrwt beam="2">  1       21 0.17954917E+00 0.51825326E+03</pdfrwt>
<totfact> 0.78116441E+02</totfact>
</mgrwt>
</event>
<event>
 6    1  0.9598567E-004  0.4527513E+03  0.7818608E-02  0.1026941E+00
         21   -1    0    0  503  502  0.00000000000E+00  0.00000000000E+00  0.66102820788E+03  0.66102820788E+03  0.00000000000E+00 0. -1.
         21   -1    0    0  501  503 -0.00000000000E+00 -0.00000000000E+00 -0.32069284810E+03  0.32069284810E+03  0.00000000000E+00 0. -1.
    9000007    2    1    2  501    0  0.21598946802E+02  0.21099113562E+03  0.26068121801E+03  0.52201619837E+03  0.39945267570E+03 0.  0.
    9000005    1    3    3    0    0  0.42820984630E+02  0.32893155621E+03  0.17825463241E+03  0.37657047065E+03  0.99999687468E+00 0.  0.
          4    1    3    3  501    0 -0.21222037828E+02 -0.11794042059E+03  0.82426585608E+02  0.14544572772E+03  0.00000000000E+00 0.  1.
   -9000007    1    1    2    0  502 -0.21598946802E+02 -0.21099113562E+03  0.79654141762E+02  0.45970485761E+03  0.40000000000E+03 0. -1.
<mgrwt>
<rscale>  2 0.45263042E+03</rscale>
<asrwt>0</asrwt>
<pdfrwt beam="1">  1       21 0.10169665E+00 0.45275134E+03</pdfrwt>
<pdfrwt beam="2">  1       21 0.49337361E-01 0.45275134E+03</pdfrwt>
<totfact> 0.26775918E+03</totfact>
</mgrwt>
</event>
<event>
 6    1  0.9598567E-004  0.4999953E+03  0.7818608E-02  0.1013791E+00
         21   -1    0    0  503  502  0.00000000000E+00  0.00000000000E+00  0.18882064646E+04  0.18882064646E+04  0.00000000000E+00 0. -1.
         21   -1    0    0  501  503 -0.00000000000E+00 -0.00000000000E+00 -0.29588389379E+03  0.29588389379E+03  0.00000000000E+00 0.  1.
    9000007    2    1    2  501    0 -0.14973603044E+03  0.25995085733E+03 -0.15748403654E+02  0.50008098015E+03  0.39979700781E+03 0.  0.
    9000005    1    3    3    0    0 -0.26545650733E+03  0.80094630414E+02  0.37182589408E+02  0.27976034753E+03  0.99999687468E+00 0.  0.
          4    1    3    3  501    0  0.11572047688E+03  0.17985622692E+03 -0.52930993062E+02  0.22032063262E+03  0.00000000000E+00 0.  1.
   -9000007    1    1    2    0  502  0.14973603044E+03 -0.25995085733E+03  0.16080709744E+04  0.16840093782E+04  0.40000000000E+03 0.  1.
<mgrwt>
<rscale>  2 0.49995473E+03</rscale>
<asrwt>0</asrwt>
<pdfrwt beam="1">  1       21 0.29049329E+00 0.49999533E+03</pdfrwt>
<pdfrwt beam="2">  1       21 0.45520600E-01 0.49999533E+03</pdfrwt>
<totfact> 0.13574862E+02</totfact>
</mgrwt>
</event>
<event>
 6    1  0.9598567E-004  0.4910126E+03  0.7818608E-02  0.1016193E+00
         21   -1    0    0  503  502  0.00000000000E+00  0.00000000000E+00  0.47779593505E+03  0.47779593505E+03  0.00000000000E+00 0.  1.
         21   -1    0    0  501  503 -0.00000000000E+00 -0.00000000000E+00 -0.14468258755E+04  0.14468258755E+04  0.00000000000E+00 0.  1.
    9000007    2    1    2  501    0  0.28349418317E+03 -0.10678175560E+02 -0.12614647247E+04  0.13536567692E+04  0.40076230107E+03 0.  0.
    9000005    1    3    3    0    0  0.13989925232E+03  0.60063534594E+02 -0.10215269363E+03  0.18334558025E+03  0.99999687468E+00 0.  0.
          4    1    3    3  501    0  0.14359493085E+03 -0.70741710154E+02 -0.11593120311E+04  0.11703111890E+04  0.00000000000E+00 0.  1.
   -9000007    1    1    2    0  502 -0.28349418317E+03  0.10678175560E+02  0.29243478426E+03  0.57096504128E+03  0.40000000000E+03 0.  1.
<mgrwt>
<rscale>  2 0.49085705E+03</rscale>
<asrwt>0</asrwt>
<pdfrwt beam="1">  1       21 0.73507067E-01 0.49101262E+03</pdfrwt>
<pdfrwt beam="2">  1       21 0.22258860E+00 0.49101262E+03</pdfrwt>
<totfact> 0.12546464E+02</totfact>
</mgrwt>
</event>
<event>
 6    1  0.9598567E-004  0.4177496E+03  0.7818608E-02  0.1037907E+00
         21   -1    0    0  503  502  0.00000000000E+00  0.00000000000E+00  0.45754442586E+03  0.45754442586E+03  0.00000000000E+00 0.  1.
         21   -1    0    0  501  503 -0.00000000000E+00 -0.00000000000E+00 -0.38391440040E+03  0.38391440040E+03  0.00000000000E+00 0.  1.
    9000007    2    1    2  501    0  0.14651319034E+02 -0.11958292557E+03  0.77924820190E+02  0.42368713922E+03  0.39865245151E+03 0.  0.
    9000005    1    3    3    0    0  0.10873289083E+03 -0.84392807685E+02 -0.13216243669E+03  0.19082163715E+03  0.99999687468E+00 0.  0.
          4    1    3    3  501    0 -0.94081571800E+02 -0.35190117890E+02  0.21008725688E+03  0.23286550207E+03  0.00000000000E+00 0.  1.
   -9000007    1    1    2    0  502 -0.14651319034E+02  0.11958292557E+03 -0.42947947288E+01  0.41777168705E+03  0.40000000000E+03 0.  1.
<mgrwt>
<rscale>  2 0.41742671E+03</rscale>
<asrwt>0</asrwt>
<pdfrwt beam="1">  1       21 0.70391449E-01 0.41774961E+03</pdfrwt>
<pdfrwt beam="2">  1       21 0.59063754E-01 0.41774961E+03</pdfrwt>
<totfact> 0.43522763E+03</totfact>
</mgrwt>
</event>
<event>
 6    1  0.9598567E-004  0.4606238E+03  0.7818608E-02  0.1024658E+00
         21   -1    0    0  503  502  0.00000000000E+00  0.00000000000E+00  0.17258868490E+04  0.17258868490E+04  0.00000000000E+00 0. -1.
         21   -1    0    0  501  503 -0.00000000000E+00 -0.00000000000E+00 -0.13706457295E+03  0.13706457295E+03  0.00000000000E+00 0. -1.
    9000007    2    1    2  501    0 -0.22130842933E+03  0.56540890210E+02  0.10950789200E+04  0.11877056928E+04  0.39908981241E+03 0.  0.
    9000005    1    3    3    0    0 -0.17097614409E+03 -0.62522983424E+02  0.10242579030E+04  0.10403111155E+04  0.99999687468E+00 0.  0.
          4    1    3    3  501    0 -0.50332285235E+02  0.11906387363E+03  0.70821017070E+02  0.14739457724E+03  0.00000000000E+00 0.  1.
   -9000007    1    1    2    0  502  0.22130842933E+03 -0.56540890210E+02  0.49374335601E+03  0.67524572917E+03  0.40000000000E+03 0. -1.
<mgrwt>
<rscale>  2 0.46042614E+03</rscale>
<asrwt>0</asrwt>
<pdfrwt beam="1">  1       21 0.26552104E+00 0.46062381E+03</pdfrwt>
<pdfrwt beam="2">  1       21 0.21086859E-01 0.46062381E+03</pdfrwt>
<totfact> 0.91543854E+02</totfact>
</mgrwt>
</event>
<event>
 6    1  0.9598567E-004  0.4035302E+03  0.7818608E-02  0.1042604E+00
         21   -1    0    0  503  502  0.00000000000E+00  0.00000000000E+00  0.18709231347E+04  0.18709231347E+04  0.00000000000E+00 0.  1.
         21   -1    0    0  501  503 -0.00000000000E+00 -0.00000000000E+00 -0.32764058612E+03  0.32764058612E+03  0.00000000000E+00 0.  1.
    9000007    2    1    2  501    0 -0.10034704850E+02  0.52306148110E+02 -0.17069757361E+03  0.43772173822E+03  0.39953226408E+03 0.  0.
    9000005    1    3    3    0    0 -0.27620811578E+02 -0.12449807979E+03  0.64534874902E+02  0.14292806294E+03  0.99999687468E+00 0.  0.
          4    1    3    3  501    0  0.17586106727E+02  0.17680422790E+03 -0.23523244851E+03  0.29479367528E+03  0.00000000000E+00 0.  1.
   -9000007    1    1    2    0  502  0.10034704850E+02 -0.52306148110E+02  0.17139801222E+04  0.17608419826E+04  0.40000000000E+03 0.  1.
<mgrwt>
<rscale>  2 0.40341425E+03</rscale>
<asrwt>0</asrwt>
<pdfrwt beam="1">  1       21 0.28783432E+00 0.40353021E+03</pdfrwt>
<pdfrwt beam="2">  1       21 0.50406245E-01 0.40353021E+03</pdfrwt>
<totfact> 0.12060994E+02</totfact>
</mgrwt>
</event>
<event>
 6    1  0.9598567E-004  0.8557302E+03  0.7818608E-02  0.9482774E-01
         21   -1    0    0  503  502  0.00000000000E+00  0.00000000000E+00  0.48370316747E+03  0.48370316747E+03  0.00000000000E+00 0.  1.
         21   -1    0    0  501  503 -0.00000000000E+00 -0.00000000000E+00 -0.15961104842E+04  0.15961104842E+04  0.00000000000E+00 0. -1.
    9000007    2    1    2  501    0  0.64705138458E+03  0.39128677721E+03 -0.79304332042E+03  0.11667012827E+04  0.40061619863E+03 0.  0.
    9000005    1    3    3    0    0  0.74103134595E+02 -0.28899932429E+02 -0.27798274426E+03  0.28913990861E+03  0.99999687468E+00 0.  0.
          4    1    3    3  501    0  0.57294824999E+03  0.42018670964E+03 -0.51506057615E+03  0.87756137405E+03  0.00000000000E+00 0.  1.
   -9000007    1    1    2    0  502 -0.64705138458E+03 -0.39128677721E+03 -0.31936399633E+03  0.91311236902E+03  0.40000000000E+03 0.  1.
<mgrwt>
<rscale>  2 0.85565811E+03</rscale>
<asrwt>0</asrwt>
<pdfrwt beam="1">  1       21 0.74415870E-01 0.85573020E+03</pdfrwt>
<pdfrwt beam="2">  1       21 0.24555546E+00 0.85573020E+03</pdfrwt>
<totfact> 0.75502021E+01</totfact>
</mgrwt>
</event>
<event>
 6    1  0.9598567E-004  0.4009571E+03  0.7818608E-02  0.1043492E+00
         21   -1    0    0  503  502  0.00000000000E+00  0.00000000000E+00  0.14166283444E+03  0.14166283444E+03  0.00000000000E+00 0. -1.
         21   -1    0    0  501  503 -0.00000000000E+00 -0.00000000000E+00 -0.11443658588E+04  0.11443658588E+04  0.00000000000E+00 0. -1.
    9000007    2    1    2  501    0 -0.18398171323E+02  0.54487906826E+01 -0.56446888171E+03  0.69238120034E+03  0.40049772300E+03 0.  0.
    9000005    1    3    3    0    0 -0.11433040429E+03  0.14864175814E+03 -0.13930069302E+03  0.23360542947E+03  0.99999687468E+00 0.  0.
          4    1    3    3  501    0  0.95932232971E+02 -0.14319296746E+03 -0.42516818869E+03  0.45877577086E+03  0.00000000000E+00 0.  1.
   -9000007    1    1    2    0  502  0.18398171323E+02 -0.54487906826E+01 -0.43823414260E+03  0.59364749285E+03  0.40000000000E+03 0.  1.
<mgrwt>
<rscale>  2 0.40083277E+03</rscale>
<asrwt>0</asrwt>
<pdfrwt beam="1">  1       21 0.21794282E-01 0.40095712E+03</pdfrwt>
<pdfrwt beam="2">  1       21 0.17605628E+00 0.40095712E+03</pdfrwt>
<totfact> 0.33347352E+03</totfact>
</mgrwt>
</event>
<event>
 6    1  0.9598567E-004  0.4206843E+03  0.7818608E-02  0.1036864E+00
         21   -1    0    0  503  502  0.00000000000E+00  0.00000000000E+00  0.18766595975E+04  0.18766595975E+04  0.00000000000E+00 0.  1.
         21   -1    0    0  501  503 -0.00000000000E+00 -0.00000000000E+00 -0.11023225220E+03  0.11023225220E+03  0.00000000000E+00 0.  1.
    9000007    2    1    2  501    0 -0.58769079237E+02 -0.11628198440E+03  0.50469258659E+03  0.65687308820E+03  0.39974034382E+03 0.  0.
    9000005    1    3    3    0    0 -0.17166125829E+03  0.56071283539E+02  0.10949225208E+03  0.21118979543E+03  0.99999687468E+00 0.  0.
          4    1    3    3  501    0  0.11289217905E+03 -0.17235326794E+03  0.39520033451E+03  0.44568329277E+03  0.00000000000E+00 0.  1.
   -9000007    1    1    2    0  502  0.58769079237E+02  0.11628198440E+03  0.12617347587E+04  0.13300187615E+04  0.40000000000E+03 0.  1.
<mgrwt>
<rscale>  2 0.42062259E+03</rscale>
<asrwt>0</asrwt>
<pdfrwt beam="1">  1       21 0.28871684E+00 0.42068433E+03</pdfrwt>
<pdfrwt beam="2">  1       21 0.16958809E-01 0.42068433E+03</pdfrwt>
<totfact> 0.10232872E+03</totfact>
</mgrwt>
</event>
<event>
 6    1  0.9598567E-004  0.6630462E+03  0.7818608E-02  0.9782703E-01
         21   -1    0    0  503  502  0.00000000000E+00  0.00000000000E+00  0.15528851119E+04  0.15528851119E+04  0.00000000000E+00 0. -1.
         21   -1    0    0  501  503 -0.00000000000E+00 -0.00000000000E+00 -0.29328674297E+03  0.29328674297E+03  0.00000000000E+00 0. -1.
    9000007    2    1    2  501    0 -0.24674823035E+03  0.46770245290E+03  0.45692021593E+03  0.80505587144E+03  0.39963558249E+03 0.  0.
    9000005    1    3    3    0    0 -0.27749546902E+03  0.47585912602E+03  0.26639431448E+03  0.61189261633E+03  0.99999687468E+00 0.  0.
          4    1    3    3  501    0  0.30747238664E+02 -0.81566731172E+01  0.19052590145E+03  0.19316325511E+03  0.00000000000E+00 0.  1.
   -9000007    1    1    2    0  502  0.24674823035E+03 -0.46770245290E+03  0.80267815299E+03  0.10411159834E+04  0.40000000000E+03 0. -1.
<mgrwt>
<rscale>  2 0.66299126E+03</rscale>
<asrwt>0</asrwt>
<pdfrwt beam="1">  1       21 0.23890540E+00 0.66304621E+03</pdfrwt>
<pdfrwt beam="2">  1       21 0.45121038E-01 0.66304621E+03</pdfrwt>
<totfact> 0.26721412E+02</totfact>
</mgrwt>
</event>
<event>
 6    1  0.9598567E-004  0.4041650E+03  0.7818608E-02  0.1042405E+00
         21   -1    0    0  503  502  0.00000000000E+00  0.00000000000E+00  0.11563839501E+04  0.11563839501E+04  0.00000000000E+00 0.  1.
         21   -1    0    0  501  503 -0.00000000000E+00 -0.00000000000E+00 -0.14109272008E+03  0.14109272008E+03  0.00000000000E+00 0.  1.
    9000007    2    1    2  501    0 -0.57325563571E+02  0.79455485871E+01  0.52197371549E+03  0.65973728600E+03  0.39930862112E+03 0.  0.
    9000005    1    3    3    0    0 -0.66023674969E+02 -0.61621112926E+01 -0.52772116545E+02  0.84752543032E+02  0.99999687468E+00 0.  0.
          4    1    3    3  501    0  0.86981113985E+01  0.14107659880E+02  0.57474583203E+03  0.57498474297E+03  0.00000000000E+00 0.  1.
   -9000007    1    1    2    0  502  0.57325563571E+02 -0.79455485871E+01  0.49331751452E+03  0.63773938416E+03  0.40000000000E+03 0. -1.
<mgrwt>
<rscale>  2 0.40399384E+03</rscale>
<asrwt>0</asrwt>
<pdfrwt beam="1">  1       21 0.17790522E+00 0.40416501E+03</pdfrwt>
<pdfrwt beam="2">  1       21 0.21706573E-01 0.40416501E+03</pdfrwt>
<totfact> 0.32559699E+03</totfact>
</mgrwt>
</event>
<event>
 6    1  0.9598567E-004  0.4269351E+03  0.7818608E-02  0.1035344E+00
         21   -1    0    0  503  502  0.00000000000E+00  0.00000000000E+00  0.12001038407E+04  0.12001038407E+04  0.00000000000E+00 0. -1.
         21   -1    0    0  501  503 -0.00000000000E+00 -0.00000000000E+00 -0.15071872699E+03  0.15071872699E+03  0.00000000000E+00 0. -1.
    9000007    2    1    2  501    0  0.99417103585E+02  0.11130965723E+03  0.57826145391E+03  0.71503085407E+03  0.39320378039E+03 0.  0.
    9000005    1    3    3    0    0  0.20505435068E+03  0.19548382819E+03  0.35635679259E+03  0.45524979675E+03  0.99999687468E+00 0.  0.
          4    1    3    3  501    0 -0.10563724709E+03 -0.84174170961E+02  0.22190466132E+03  0.25978105733E+03  0.00000000000E+00 0.  1.
   -9000007    1    1    2    0  502 -0.99417103585E+02 -0.11130965723E+03  0.47112365981E+03  0.63579171362E+03  0.40000000000E+03 0. -1.
<mgrwt>
<rscale>  2 0.42533598E+03</rscale>
<asrwt>0</asrwt>
<pdfrwt beam="1">  1       21 0.18463135E+00 0.42693512E+03</pdfrwt>
<pdfrwt beam="2">  1       21 0.23187497E-01 0.42693512E+03</pdfrwt>
<totfact> 0.25483013E+03</totfact>
</mgrwt>
</event>
<event>
 6    1  0.9598567E-004  0.4071433E+03  0.7818608E-02  0.1041391E+00
         21   -1    0    0  503  502  0.00000000000E+00  0.00000000000E+00  0.33954225359E+04  0.33954225359E+04  0.00000000000E+00 0. -1.
         21   -1    0    0  501  503 -0.00000000000E+00 -0.00000000000E+00 -0.10517562085E+03  0.10517562085E+03  0.00000000000E+00 0. -1.
    9000007    2    1    2  501    0 -0.39342751367E+02 -0.64944918191E+02  0.36236745598E+03  0.54454609000E+03  0.39931763860E+03 0.  0.
    9000005    1    3    3    0    0 -0.18030404346E+03 -0.43723257330E+02  0.36811615629E+02  0.18914905857E+03  0.99999687468E+00 0.  0.
          4    1    3    3  501    0  0.14096129209E+03 -0.21221660861E+02  0.32555584036E+03  0.35539703143E+03  0.00000000000E+00 0.  1.
   -9000007    1    1    2    0  502  0.39342751367E+02  0.64944918191E+02  0.29278794590E+04  0.29560520667E+04  0.40000000000E+03 0. -1.
<mgrwt>
<rscale>  2 0.40697564E+03</rscale>
<asrwt>0</asrwt>
<pdfrwt beam="1">  1       21 0.52237261E+00 0.40714333E+03</pdfrwt>
<pdfrwt beam="2">  1       21 0.16180867E-01 0.40714333E+03</pdfrwt>
<totfact> 0.34128481E+01</totfact>
</mgrwt>
</event>
<event>
 6    1  0.9598567E-004  0.4180442E+03  0.7818608E-02  0.1037862E+00
         21   -1    0    0  503  502  0.00000000000E+00  0.00000000000E+00  0.14620923708E+03  0.14620923708E+03  0.00000000000E+00 0.  1.
         21   -1    0    0  501  503 -0.00000000000E+00 -0.00000000000E+00 -0.12992110364E+04  0.12992110364E+04  0.00000000000E+00 0.  1.
    9000007    2    1    2  501    0 -0.10084379310E+03 -0.54680334290E+02 -0.78744599844E+03  0.89153359452E+03  0.40199694046E+03 0.  0.
    9000005    1    3    3    0    0  0.62420833940E+02  0.18286710135E+02  0.17173874025E+02  0.67280801274E+02  0.99999687468E+00 0.  0.
          4    1    3    3  501    0 -0.16326462704E+03 -0.72967044425E+02 -0.80461987246E+03  0.82425279325E+03  0.00000000000E+00 0.  1.
   -9000007    1    1    2    0  502  0.10084379310E+03  0.54680334290E+02 -0.36555580090E+03  0.55388667896E+03  0.40000000000E+03 0.  1.
<mgrwt>
<rscale>  2 0.41756339E+03</rscale>
<asrwt>0</asrwt>
<pdfrwt beam="1">  1       21 0.22493728E-01 0.41804420E+03</pdfrwt>
<pdfrwt beam="2">  1       21 0.19987862E+00 0.41804420E+03</pdfrwt>
<totfact> 0.21372869E+03</totfact>
</mgrwt>
</event>
<event>
 6    1  0.9598567E-004  0.4630498E+03  0.7818608E-02  0.1023949E+00
         21   -1    0    0  503  502  0.00000000000E+00  0.00000000000E+00  0.45134400004E+03  0.45134400004E+03  0.00000000000E+00 0. -1.
         21   -1    0    0  501  503 -0.00000000000E+00 -0.00000000000E+00 -0.11846005866E+04  0.11846005866E+04  0.00000000000E+00 0. -1.
    9000007    2    1    2  501    0  0.21348005427E+03  0.90639038548E+02 -0.10000999614E+04  0.11020957732E+04  0.40078172544E+03 0.  0.
    9000005    1    3    3    0    0 -0.41434227675E+02 -0.85264793584E+02 -0.53483675796E+03  0.54317422427E+03  0.99999687468E+00 0.  0.
          4    1    3    3  501    0  0.25491428194E+03  0.17590383213E+03 -0.46526320349E+03  0.55892154889E+03  0.00000000000E+00 0.  1.
   -9000007    1    1    2    0  502 -0.21348005427E+03 -0.90639038548E+02  0.26684337492E+03  0.53384881345E+03  0.40000000000E+03 0. -1.
<mgrwt>
<rscale>  2 0.46288064E+03</rscale>
<asrwt>0</asrwt>
<pdfrwt beam="1">  1       21 0.69437540E-01 0.46304985E+03</pdfrwt>
<pdfrwt beam="2">  1       21 0.18224624E+00 0.46304985E+03</pdfrwt>
<totfact> 0.26893048E+02</totfact>
</mgrwt>
</event>
<event>
 6    1  0.9598567E-004  0.6536462E+03  0.7818608E-02  0.9800144E-01
         21   -1    0    0  503  502  0.00000000000E+00  0.00000000000E+00  0.72310029530E+03  0.72310029530E+03  0.00000000000E+00 0. -1.
         21   -1    0    0  501  503 -0.00000000000E+00 -0.00000000000E+00 -0.91701765650E+03  0.91701765650E+03  0.00000000000E+00 0.  1.
    9000007    2    1    2  501    0 -0.42214073360E+03  0.29755289421E+03 -0.58630971587E+03  0.87807314746E+03  0.40064054406E+03 0.  0.
    9000005    1    3    3    0    0 -0.25565743099E+02  0.22401698039E+03 -0.33176988359E+03  0.40113522705E+03  0.99999687468E+00 0.  0.
          4    1    3    3  501    0 -0.39657499050E+03  0.73535913820E+02 -0.25453983228E+03  0.47693792041E+03  0.00000000000E+00 0.  1.
   -9000007    1    1    2    0  502  0.42214073360E+03 -0.29755289421E+03  0.39239235468E+03  0.76204480434E+03  0.40000000000E+03 0. -1.
<mgrwt>
<rscale>  2 0.65354809E+03</rscale>
<asrwt>0</asrwt>
<pdfrwt beam="1">  1       21 0.11124620E+00 0.65364621E+03</pdfrwt>
<pdfrwt beam="2">  1       21 0.14107964E+00 0.65364621E+03</pdfrwt>
<totfact> 0.16678650E+02</totfact>
</mgrwt>
</event>
<event>
 6    1  0.9598567E-004  0.6513797E+03  0.7818608E-02  0.9804221E-01
         21   -1    0    0  503  502  0.00000000000E+00  0.00000000000E+00  0.33989461536E+03  0.33989461536E+03  0.00000000000E+00 0. -1.
         21   -1    0    0  501  503 -0.00000000000E+00 -0.00000000000E+00 -0.17717069840E+04  0.17717069840E+04  0.00000000000E+00 0. -1.
    9000007    2    1    2  501    0  0.11262690789E+02  0.51397341459E+03 -0.12897968133E+04  0.14449203134E+04  0.39990420502E+03 0.  0.
    9000005    1    3    3    0    0 -0.13979922723E+03  0.46662905512E+02 -0.43238651524E+03  0.45681544330E+03  0.99999687468E+00 0.  0.
          4    1    3    3  501    0  0.15106191802E+03  0.46731050907E+03 -0.85741029809E+03  0.98810487006E+03  0.00000000000E+00 0.  1.
   -9000007    1    1    2    0  502 -0.11262690789E+02 -0.51397341459E+03 -0.14201555527E+03  0.66668128596E+03  0.40000000000E+03 0. -1.
<mgrwt>
<rscale>  2 0.65136500E+03</rscale>
<asrwt>0</asrwt>
<pdfrwt beam="1">  1       21 0.52291480E-01 0.65137970E+03</pdfrwt>
<pdfrwt beam="2">  1       21 0.27257030E+00 0.65137970E+03</pdfrwt>
<totfact> 0.12094407E+02</totfact>
</mgrwt>
</event>
<event>
 6    1  0.9598567E-004  0.6461740E+03  0.7818608E-02  0.9814265E-01
         21   -1    0    0  503  502  0.00000000000E+00  0.00000000000E+00  0.13491437776E+04  0.13491437776E+04  0.00000000000E+00 0.  1.
         21   -1    0    0  501  503 -0.00000000000E+00 -0.00000000000E+00 -0.59303044257E+03  0.59303044257E+03  0.00000000000E+00 0. -1.
    9000007    2    1    2  501    0  0.46124873601E+03 -0.21163745964E+03 -0.29384459351E+03  0.70931069872E+03  0.39904412212E+03 0.  0.
    9000005    1    3    3    0    0  0.52895303652E+03 -0.19571546376E+03 -0.21353544270E+03  0.60307067819E+03  0.99999687468E+00 0.  0.
          4    1    3    3  501    0 -0.67704300512E+02 -0.15921995877E+02 -0.80309150806E+02  0.10624002054E+03  0.00000000000E+00 0.  1.
   -9000007    1    1    2    0  502 -0.46124873601E+03  0.21163745964E+03  0.10499579285E+04  0.12328635214E+04  0.40000000000E+03 0.  1.
<mgrwt>
<rscale>  2 0.64602611E+03</rscale>
<asrwt>0</asrwt>
<pdfrwt beam="1">  1       21 0.20756058E+00 0.64617398E+03</pdfrwt>
<pdfrwt beam="2">  1       21 0.91235453E-01 0.64617398E+03</pdfrwt>
<totfact> 0.88521163E+01</totfact>
</mgrwt>
</event>
<event>
 6    1  0.9598567E-004  0.6023166E+03  0.7818608E-02  0.9901000E-01
         21   -1    0    0  503  502  0.00000000000E+00  0.00000000000E+00  0.38838247697E+03  0.38838247697E+03  0.00000000000E+00 0.  1.
         21   -1    0    0  501  503 -0.00000000000E+00 -0.00000000000E+00 -0.96722179822E+03  0.96722179822E+03  0.00000000000E+00 0. -1.
    9000007    2    1    2  501    0 -0.17359743009E+03 -0.41551078684E+03 -0.41687589726E+03  0.73189165513E+03  0.39886664365E+03 0.  0.
    9000005    1    3    3    0    0 -0.12975355687E+03 -0.48166951988E+03 -0.42051840031E+03  0.65244021710E+03  0.99999687468E+00 0.  0.
          4    1    3    3  501    0 -0.43843873227E+02  0.66158733039E+02  0.36425030408E+01  0.79451438031E+02  0.00000000000E+00 0.  1.
   -9000007    1    1    2    0  502  0.17359743009E+03  0.41551078684E+03 -0.16196342399E+03  0.62371262006E+03  0.40000000000E+03 0.  1.
<mgrwt>
<rscale>  2 0.60212849E+03</rscale>
<asrwt>0</asrwt>
<pdfrwt beam="1">  1       21 0.59751150E-01 0.60231660E+03</pdfrwt>
<pdfrwt beam="2">  1       21 0.14880335E+00 0.60231660E+03</pdfrwt>
<totfact> 0.63093004E+02</totfact>
</mgrwt>
</event>
<event>
 6    1  0.9598567E-004  0.4690364E+03  0.7818608E-02  0.1022263E+00
         21   -1    0    0  503  502  0.00000000000E+00  0.00000000000E+00  0.36735411661E+03  0.36735411661E+03  0.00000000000E+00 0. -1.
         21   -1    0    0  501  503 -0.00000000000E+00 -0.00000000000E+00 -0.73202999470E+03  0.73202999470E+03  0.00000000000E+00 0. -1.
    9000007    2    1    2  501    0 -0.22817072001E+03 -0.83700511673E+02 -0.41805507254E+03  0.62830344781E+03  0.40115773173E+03 0.  0.
    9000005    1    3    3    0    0 -0.16118866288E+03  0.64227380489E+02 -0.43177771524E+03  0.46533851852E+03  0.99999687468E+00 0.  0.
          4    1    3    3  501    0 -0.66982057122E+02 -0.14792789216E+03  0.13722642699E+02  0.16296492929E+03  0.00000000000E+00 0.  1.
   -9000007    1    1    2    0  502  0.22817072001E+03  0.83700511673E+02  0.53379194450E+02  0.47108066350E+03  0.40000000000E+03 0. -1.
<mgrwt>
<rscale>  2 0.46878879E+03</rscale>
<asrwt>0</asrwt>
<pdfrwt beam="1">  1       21 0.56516018E-01 0.46903644E+03</pdfrwt>
<pdfrwt beam="2">  1       21 0.11262000E+00 0.46903644E+03</pdfrwt>
<totfact> 0.15453259E+03</totfact>
</mgrwt>
</event>
<event>
 6    1  0.9598567E-004  0.4370852E+03  0.7818608E-02  0.1031751E+00
         21   -1    0    0  503  502  0.00000000000E+00  0.00000000000E+00  0.76291368571E+03  0.76291368571E+03  0.00000000000E+00 0.  1.
         21   -1    0    0  501  503 -0.00000000000E+00 -0.00000000000E+00 -0.31767230301E+03  0.31767230301E+03  0.00000000000E+00 0.  1.
    9000007    2    1    2  501    0  0.59205874141E+02 -0.16231308854E+03 -0.27155223097E+02  0.43792789345E+03  0.40148793191E+03 0.  0.
    9000005    1    3    3    0    0 -0.77407967044E+02  0.96641667638E+02 -0.69664680564E+02  0.14207664480E+03  0.99999687468E+00 0.  0.
          4    1    3    3  501    0  0.13661384118E+03 -0.25895475618E+03  0.42509457467E+02  0.29585124865E+03  0.00000000000E+00 0.  1.
   -9000007    1    1    2    0  502 -0.59205874141E+02  0.16231308854E+03  0.47239660580E+03  0.64265809527E+03  0.40000000000E+03 0.  1.
<mgrwt>
<rscale>  2 0.43674317E+03</rscale>
<asrwt>0</asrwt>
<pdfrwt beam="1">  1       21 0.11737134E+00 0.43708516E+03</pdfrwt>
<pdfrwt beam="2">  1       21 0.48872662E-01 0.43708516E+03</pdfrwt>
<totfact> 0.19265996E+03</totfact>
</mgrwt>
</event>
<event>
 6    1  0.9598567E-004  0.4333873E+03  0.7818608E-02  0.1032834E+00
         21   -1    0    0  503  502  0.00000000000E+00  0.00000000000E+00  0.48493776365E+03  0.48493776365E+03  0.00000000000E+00 0. -1.
         21   -1    0    0  501  503 -0.00000000000E+00 -0.00000000000E+00 -0.52470495395E+03  0.52470495395E+03  0.00000000000E+00 0. -1.
    9000007    2    1    2  501    0  0.14759782677E+03 -0.74886415446E+02  0.23884398684E+03  0.49484442534E+03  0.40053896384E+03 0.  0.
    9000005    1    3    3    0    0  0.21111941749E+03 -0.71759997385E+02  0.32106170330E+03  0.39089963288E+03  0.99999687468E+00 0.  0.
          4    1    3    3  501    0 -0.63521590726E+02 -0.31264180617E+01 -0.82217716463E+02  0.10394479246E+03  0.00000000000E+00 0.  1.
   -9000007    1    1    2    0  502 -0.14759782677E+03  0.74886415446E+02 -0.27861117714E+03  0.51479829226E+03  0.40000000000E+03 0. -1.
<mgrwt>
<rscale>  2 0.43326273E+03</rscale>
<asrwt>0</asrwt>
<pdfrwt beam="1">  1       21 0.74605810E-01 0.43338730E+03</pdfrwt>
<pdfrwt beam="2">  1       21 0.80723839E-01 0.43338730E+03</pdfrwt>
<totfact> 0.18812273E+03</totfact>
</mgrwt>
</event>
<event>
 6    1  0.9598567E-004  0.4182267E+03  0.7818608E-02  0.1037733E+00
         21   -1    0    0  503  502  0.00000000000E+00  0.00000000000E+00  0.97698933790E+03  0.97698933790E+03  0.00000000000E+00 0.  1.
         21   -1    0    0  501  503 -0.00000000000E+00 -0.00000000000E+00 -0.18776577387E+03  0.18776577387E+03  0.00000000000E+00 0. -1.
    9000007    2    1    2  501    0 -0.70807002208E+02 -0.99498378109E+02  0.26526063630E+03  0.49434426130E+03  0.39887276756E+03 0.  0.
    9000005    1    3    3    0    0 -0.74129323438E+02  0.38171468946E+02 -0.84338020233E+02  0.11860067152E+03  0.99999687468E+00 0.  0.
          4    1    3    3  501    0  0.33223212296E+01 -0.13766984705E+03  0.34959865654E+03  0.37574358978E+03  0.00000000000E+00 0.  1.
   -9000007    1    1    2    0  502  0.70807002208E+02  0.99498378109E+02  0.52396292773E+03  0.67041085048E+03  0.40000000000E+03 0.  1.
<mgrwt>
<rscale>  2 0.41795693E+03</rscale>
<asrwt>0</asrwt>
<pdfrwt beam="1">  1       21 0.15030605E+00 0.41822668E+03</pdfrwt>
<pdfrwt beam="2">  1       21 0.28887043E-01 0.41822668E+03</pdfrwt>
<totfact> 0.29775348E+03</totfact>
</mgrwt>
</event>
<event>
 6    1  0.9598567E-004  0.4824960E+03  0.7818608E-02  0.1018458E+00
         21   -1    0    0  503  502  0.00000000000E+00  0.00000000000E+00  0.61046552417E+03  0.61046552417E+03  0.00000000000E+00 0.  1.
         21   -1    0    0  501  503 -0.00000000000E+00 -0.00000000000E+00 -0.39998801059E+03  0.39998801059E+03  0.00000000000E+00 0. -1.
    9000007    2    1    2  501    0  0.75498601349E+02 -0.25904127684E+03 -0.40576586539E+01  0.48241209506E+03  0.39987816014E+03 0.  0.
    9000005    1    3    3    0    0  0.12325645817E+03 -0.17966964117E+03 -0.18062653303E+03  0.28301992663E+03  0.99999687468E+00 0.  0.
          4    1    3    3  501    0 -0.47757856822E+02 -0.79371635662E+02  0.17656887437E+03  0.19939216844E+03  0.00000000000E+00 0.  1.
   -9000007    1    1    2    0  502 -0.75498601349E+02  0.25904127684E+03  0.21453517223E+03  0.52804143969E+03  0.40000000000E+03 0.  1.
<mgrwt>
<rscale>  2 0.48247078E+03</rscale>
<asrwt>0</asrwt>
<pdfrwt beam="1">  1       21 0.93917773E-01 0.48249603E+03</pdfrwt>
<pdfrwt beam="2">  1       21 0.61536617E-01 0.48249603E+03</pdfrwt>
<totfact> 0.19914249E+03</totfact>
</mgrwt>
</event>
<event>
 6    1  0.9598567E-004  0.5335419E+03  0.7818608E-02  0.1005417E+00
         21   -1    0    0  503  502  0.00000000000E+00  0.00000000000E+00  0.42329769886E+03  0.42329769886E+03  0.00000000000E+00 0.  1.
         21   -1    0    0  501  503 -0.00000000000E+00 -0.00000000000E+00 -0.10241480624E+04  0.10241480624E+04  0.00000000000E+00 0.  1.
    9000007    2    1    2  501    0 -0.18896272342E+03  0.29705392754E+03 -0.72514003775E+03  0.90027497456E+03  0.40089775349E+03 0.  0.
    9000005    1    3    3    0    0  0.48309939281E+02 -0.70105983304E+02 -0.19747263727E+03  0.21504683581E+03  0.99999687468E+00 0.  0.
          4    1    3    3  501    0 -0.23727266270E+03  0.36715991084E+03 -0.52766740048E+03  0.68522813874E+03  0.00000000000E+00 0.  1.
   -9000007    1    1    2    0  502  0.18896272342E+03 -0.29705392754E+03  0.12428967422E+03  0.54717078671E+03  0.40000000000E+03 0.  1.
<mgrwt>
<rscale>  2 0.53337326E+03</rscale>
<asrwt>0</asrwt>
<pdfrwt beam="1">  1       21 0.65122723E-01 0.53354190E+03</pdfrwt>
<pdfrwt beam="2">  1       21 0.15756124E+00 0.53354190E+03</pdfrwt>
<totfact> 0.45638531E+02</totfact>
</mgrwt>
</event>
<event>
 6    1  0.9598567E-004  0.4687615E+03  0.7818608E-02  0.1022335E+00
         21   -1    0    0  503  502  0.00000000000E+00  0.00000000000E+00  0.13697948704E+04  0.13697948704E+04  0.00000000000E+00 0. -1.
         21   -1    0    0  501  503 -0.00000000000E+00 -0.00000000000E+00 -0.24604030025E+03  0.24604030025E+03  0.00000000000E+00 0. -1.
    9000007    2    1    2  501    0 -0.41932906522E+02 -0.23900067776E+03  0.84755466730E+02  0.47636212159E+03  0.40107067847E+03 0.  0.
    9000005    1    3    3    0    0 -0.15063966835E+03  0.21729765379E+00 -0.75587820095E+02  0.16854339334E+03  0.99999687468E+00 0.  0.
          4    1    3    3  501    0  0.10870676183E+03 -0.23921797542E+03  0.16034328682E+03  0.30781872825E+03  0.00000000000E+00 0.  1.
   -9000007    1    1    2    0  502  0.41932906522E+02  0.23900067776E+03  0.10389991034E+04  0.11394730490E+04  0.40000000000E+03 0. -1.
<mgrwt>
<rscale>  2 0.46853244E+03</rscale>
<asrwt>0</asrwt>
<pdfrwt beam="1">  1       21 0.21073767E+00 0.46876154E+03</pdfrwt>
<pdfrwt beam="2">  1       21 0.37852355E-01 0.46876154E+03</pdfrwt>
<totfact> 0.63162647E+02</totfact>
</mgrwt>
</event>
<event>
 6    1  0.9598567E-004  0.5649084E+03  0.7818608E-02  0.9981016E-01
         21   -1    0    0  503  502  0.00000000000E+00  0.00000000000E+00  0.87922499067E+03  0.87922499067E+03  0.00000000000E+00 0. -1.
         21   -1    0    0  501  503 -0.00000000000E+00 -0.00000000000E+00 -0.36428743994E+03  0.36428743994E+03  0.00000000000E+00 0. -1.
    9000007    2    1    2  501    0  0.17848726747E+03 -0.35674052445E+03  0.21978777200E+03  0.60614683826E+03  0.39998227258E+03 0.  0.
    9000005    1    3    3    0    0  0.24844025453E+03 -0.21694293902E+03 -0.79431967443E+01  0.32992558742E+03  0.99999687468E+00 0.  0.
          4    1    3    3  501    0 -0.69952987065E+02 -0.13979758543E+03  0.22773096874E+03  0.27622125084E+03  0.00000000000E+00 0.  1.
   -9000007    1    1    2    0  502 -0.17848726747E+03  0.35674052445E+03  0.29514977873E+03  0.63736559236E+03  0.40000000000E+03 0. -1.
<mgrwt>
<rscale>  2 0.56490527E+03</rscale>
<asrwt>0</asrwt>
<pdfrwt beam="1">  1       21 0.13526538E+00 0.56490841E+03</pdfrwt>
<pdfrwt beam="2">  1       21 0.56044222E-01 0.56490841E+03</pdfrwt>
<totfact> 0.95029842E+02</totfact>
</mgrwt>
</event>
<event>
 6    1  0.9598567E-004  0.6006389E+03  0.7818608E-02  0.9904130E-01
         21   -1    0    0  503  502  0.00000000000E+00  0.00000000000E+00  0.40855443225E+03  0.40855443225E+03  0.00000000000E+00 0.  1.
         21   -1    0    0  501  503 -0.00000000000E+00 -0.00000000000E+00 -0.91903977585E+03  0.91903977585E+03  0.00000000000E+00 0.  1.
    9000007    2    1    2  501    0  0.23662887832E+03  0.38049157571E+03 -0.38686287038E+03  0.71436539181E+03  0.39985993460E+03 0.  0.
    9000005    1    3    3    0    0  0.10026288486E+03  0.23508917493E+03 -0.43930354420E+03  0.50824026817E+03  0.99999687468E+00 0.  0.
          4    1    3    3  501    0  0.13636599347E+03  0.14540240078E+03  0.52440673817E+02  0.20612512364E+03  0.00000000000E+00 0.  1.
   -9000007    1    1    2    0  502 -0.23662887832E+03 -0.38049157571E+03 -0.12362247323E+03  0.61322881629E+03  0.40000000000E+03 0.  1.
<mgrwt>
<rscale>  2 0.60061556E+03</rscale>
<asrwt>0</asrwt>
<pdfrwt beam="1">  1       21 0.62854528E-01 0.60063888E+03</pdfrwt>
<pdfrwt beam="2">  1       21 0.14139073E+00 0.60063888E+03</pdfrwt>
<totfact> 0.64829590E+02</totfact>
</mgrwt>
</event>
<event>
 6    1  0.9598567E-004  0.4685500E+03  0.7818608E-02  0.1022438E+00
         21   -1    0    0  503  502  0.00000000000E+00  0.00000000000E+00  0.65562627828E+03  0.65562627828E+03  0.00000000000E+00 0.  1.
         21   -1    0    0  501  503 -0.00000000000E+00 -0.00000000000E+00 -0.35305709502E+03  0.35305709502E+03  0.00000000000E+00 0. -1.
    9000007    2    1    2  501    0  0.11172333283E+03  0.21692620774E+03  0.26892884577E+03  0.53892731425E+03  0.39822210292E+03 0.  0.
    9000005    1    3    3    0    0  0.43085476935E+02  0.19120548361E+03 -0.57585651626E+02  0.20428656969E+03  0.99999687468E+00 0.  0.
          4    1    3    3  501    0  0.68637855895E+02  0.25720724129E+02  0.32651449740E+03  0.33464074456E+03  0.00000000000E+00 0.  1.
   -9000007    1    1    2    0  502 -0.11172333283E+03 -0.21692620774E+03  0.33640337488E+02  0.46975605905E+03  0.40000000000E+03 0.  1.
<mgrwt>
<rscale>  2 0.46817030E+03</rscale>
<asrwt>0</asrwt>
<pdfrwt beam="1">  1       21 0.10086558E+00 0.46854998E+03</pdfrwt>
<pdfrwt beam="2">  1       21 0.54316477E-01 0.46854998E+03</pdfrwt>
<totfact> 0.22112715E+03</totfact>
</mgrwt>
</event>
<event>
 6    1  0.9598567E-004  0.5238705E+03  0.7818608E-02  0.1007753E+00
         21   -1    0    0  503  502  0.00000000000E+00  0.00000000000E+00  0.24978631257E+04  0.24978631257E+04  0.00000000000E+00 0. -1.
         21   -1    0    0  501  503 -0.00000000000E+00 -0.00000000000E+00 -0.11085056772E+03  0.11085056772E+03  0.00000000000E+00 0.  1.
    9000007    2    1    2  501    0  0.80593964915E+02 -0.32854967559E+03  0.10655330135E+04  0.11871833691E+04  0.39950403312E+03 0.  0.
    9000005    1    3    3    0    0  0.87310738251E+02 -0.41275603610E+03  0.98006586112E+03  0.10670149026E+04  0.99999687468E+00 0.  0.
          4    1    3    3  501    0 -0.67167733354E+01  0.84206360505E+02  0.85467152428E+02  0.12016846649E+03  0.00000000000E+00 0.  1.
   -9000007    1    1    2    0  502 -0.80593964915E+02  0.32854967559E+03  0.13214795444E+04  0.14215303243E+04  0.40000000000E+03 0.  1.
<mgrwt>
<rscale>  2 0.52377580E+03</rscale>
<asrwt>0</asrwt>
<pdfrwt beam="1">  1       21 0.38428659E+00 0.52387048E+03</pdfrwt>
<pdfrwt beam="2">  1       21 0.17053935E-01 0.52387048E+03</pdfrwt>
<totfact> 0.24842353E+02</totfact>
</mgrwt>
</event>
<event>
 6    1  0.9598567E-004  0.4748773E+03  0.7818608E-02  0.1020590E+00
         21   -1    0    0  503  502  0.00000000000E+00  0.00000000000E+00  0.61874141216E+03  0.61874141216E+03  0.00000000000E+00 0. -1.
         21   -1    0    0  501  503 -0.00000000000E+00 -0.00000000000E+00 -0.51981249735E+03  0.51981249735E+03  0.00000000000E+00 0.  1.
    9000007    2    1    2  501    0  0.23469165938E+03  0.10211878136E+03 -0.26217419708E+03  0.54197710985E+03  0.39936882389E+03 0.  0.
    9000005    1    3    3    0    0 -0.13316593840E+02 -0.10839989723E+03 -0.17312870815E+03  0.20470080354E+03  0.99999687468E+00 0.  0.
          4    1    3    3  501    0  0.24800825322E+03  0.21051867858E+03 -0.89045488932E+02  0.33727630631E+03  0.00000000000E+00 0.  1.
   -9000007    1    1    2    0  502 -0.23469165938E+03 -0.10211878136E+03  0.36110311189E+03  0.59657679967E+03  0.40000000000E+03 0. -1.
<mgrwt>
<rscale>  2 0.47474433E+03</rscale>
<asrwt>0</asrwt>
<pdfrwt beam="1">  1       21 0.95190987E-01 0.47487727E+03</pdfrwt>
<pdfrwt beam="2">  1       21 0.79971153E-01 0.47487727E+03</pdfrwt>
<totfact> 0.10703351E+03</totfact>
</mgrwt>
</event>
<event>
 6    1  0.9598567E-004  0.4437470E+03  0.7818608E-02  0.1029631E+00
         21   -1    0    0  503  502  0.00000000000E+00  0.00000000000E+00  0.51072374603E+03  0.51072374603E+03  0.00000000000E+00 0. -1.
         21   -1    0    0  501  503 -0.00000000000E+00 -0.00000000000E+00 -0.53277245043E+03  0.53277245043E+03  0.00000000000E+00 0. -1.
    9000007    2    1    2  501    0  0.18511622247E+03 -0.51413812211E+02 -0.28558366955E+03  0.52739342205E+03  0.39959278447E+03 0.  0.
    9000005    1    3    3    0    0  0.11865336495E+03 -0.70603899538E+02 -0.38344676031E+03  0.40754870830E+03  0.99999687468E+00 0.  0.
          4    1    3    3  501    0  0.66462857514E+02  0.19190087328E+02  0.97863090766E+02  0.11984471375E+03  0.00000000000E+00 0.  1.
   -9000007    1    1    2    0  502 -0.18511622247E+03  0.51413812211E+02  0.26353496514E+03  0.51610277442E+03  0.40000000000E+03 0. -1.
<mgrwt>
<rscale>  2 0.44365521E+03</rscale>
<asrwt>0</asrwt>
<pdfrwt beam="1">  1       21 0.78572884E-01 0.44374700E+03</pdfrwt>
<pdfrwt beam="2">  1       21 0.81964993E-01 0.44374700E+03</pdfrwt>
<totfact> 0.16063060E+03</totfact>
</mgrwt>
</event>
<event>
 6    1  0.9598567E-004  0.4224251E+03  0.7818608E-02  0.1036287E+00
         21   -1    0    0  503  502  0.00000000000E+00  0.00000000000E+00  0.48957102397E+03  0.48957102397E+03  0.00000000000E+00 0. -1.
         21   -1    0    0  501  503 -0.00000000000E+00 -0.00000000000E+00 -0.36822976354E+03  0.36822976354E+03  0.00000000000E+00 0. -1.
    9000007    2    1    2  501    0 -0.12196884603E+03  0.59720648505E+02  0.17013332834E+02  0.42268324967E+03  0.39991089107E+03 0.  0.
    9000005    1    3    3    0    0 -0.22634448635E+03 -0.85854205571E+02 -0.55193599449E+01  0.24214506901E+03  0.99999687468E+00 0.  0.
          4    1    3    3  501    0  0.10437564032E+03  0.14557485408E+03  0.22532692779E+02  0.18053818066E+03  0.00000000000E+00 0.  1.
   -9000007    1    1    2    0  502  0.12196884603E+03 -0.59720648505E+02  0.10432792759E+03  0.43511753784E+03  0.40000000000E+03 0.  1.
<mgrwt>
<rscale>  2 0.42240399E+03</rscale>
<asrwt>0</asrwt>
<pdfrwt beam="1">  1       21 0.75318619E-01 0.42242509E+03</pdfrwt>
<pdfrwt beam="2">  1       21 0.56650733E-01 0.42242509E+03</pdfrwt>
<totfact> 0.40816431E+03</totfact>
</mgrwt>
</event>
<event>
 6    1  0.9598567E-004  0.5431810E+03  0.7818608E-02  0.1003191E+00
         21   -1    0    0  503  502  0.00000000000E+00  0.00000000000E+00  0.20062449904E+03  0.20062449904E+03  0.00000000000E+00 0. -1.
         21   -1    0    0  501  503 -0.00000000000E+00 -0.00000000000E+00 -0.14953377365E+04  0.14953377365E+04  0.00000000000E+00 0.  1.
    9000007    2    1    2  501    0 -0.23613435769E+03  0.27807267095E+03 -0.52911943335E+03  0.75829613395E+03  0.40244478726E+03 0.  0.
    9000005    1    3    3    0    0 -0.34150521406E+03  0.26504703683E+03 -0.38215235170E+03  0.57698974243E+03  0.99999687468E+00 0.  0.
          4    1    3    3  501    0  0.10537085637E+03  0.13025634116E+02 -0.14696708165E+03  0.18130639152E+03  0.00000000000E+00 0.  1.
   -9000007    1    1    2    0  502  0.23613435769E+03 -0.27807267095E+03 -0.76559380412E+03  0.93766610161E+03  0.40000000000E+03 0.  1.
<mgrwt>
<rscale>  2 0.54272827E+03</rscale>
<asrwt>0</asrwt>
<pdfrwt beam="1">  1       21 0.30865307E-01 0.54318105E+03</pdfrwt>
<pdfrwt beam="2">  1       21 0.23005196E+00 0.54318105E+03</pdfrwt>
<totfact> 0.69433178E+02</totfact>
</mgrwt>
</event>
<event>
 6    1  0.9598567E-004  0.4643512E+03  0.7818608E-02  0.1023561E+00
         21   -1    0    0  503  502  0.00000000000E+00  0.00000000000E+00  0.18315067965E+03  0.18315067965E+03  0.00000000000E+00 0. -1.
         21   -1    0    0  501  503 -0.00000000000E+00 -0.00000000000E+00 -0.12143909817E+04  0.12143909817E+04  0.00000000000E+00 0. -1.
    9000007    2    1    2  501    0 -0.41896204939E+02  0.23209218216E+03 -0.63948747125E+03  0.79001194731E+03  0.39944033097E+03 0.  0.
    9000005    1    3    3    0    0 -0.11668778443E+03  0.11879909680E+03 -0.63252674958E+03  0.65407977599E+03  0.99999687468E+00 0.  0.
          4    1    3    3  501    0  0.74791579489E+02  0.11329308537E+03 -0.69607216698E+01  0.13593217132E+03  0.00000000000E+00 0.  1.
   -9000007    1    1    2    0  502  0.41896204939E+02 -0.23209218216E+03 -0.39175283082E+03  0.60752971406E+03  0.40000000000E+03 0. -1.
<mgrwt>
<rscale>  2 0.46423069E+03</rscale>
<asrwt>0</asrwt>
<pdfrwt beam="1">  1       21 0.28177028E-01 0.46435124E+03</pdfrwt>
<pdfrwt beam="2">  1       21 0.18682938E+00 0.46435124E+03</pdfrwt>
<totfact> 0.16562294E+03</totfact>
</mgrwt>
</event>
<event>
 6    1  0.9598567E-004  0.4220750E+03  0.7818608E-02  0.1036522E+00
         21   -1    0    0  503  502  0.00000000000E+00  0.00000000000E+00  0.33806009643E+03  0.33806009643E+03  0.00000000000E+00 0. -1.
         21   -1    0    0  501  503 -0.00000000000E+00 -0.00000000000E+00 -0.54406471447E+03  0.54406471447E+03  0.00000000000E+00 0. -1.
    9000007    2    1    2  501    0 -0.57912330593E+02  0.12162850604E+03 -0.18540881192E+03  0.45954757684E+03  0.39832174975E+03 0.  0.
    9000005    1    3    3    0    0  0.85944782793E+02  0.19175395459E+03 -0.21063800013E+03  0.29753227033E+03  0.99999687468E+00 0.  0.
          4    1    3    3  501    0 -0.14385711339E+03 -0.70125448555E+02  0.25229188215E+02  0.16201530651E+03  0.00000000000E+00 0.  1.
   -9000007    1    1    2    0  502  0.57912330593E+02 -0.12162850604E+03 -0.20595806115E+02  0.42257723406E+03  0.40000000000E+03 0. -1.
<mgrwt>
<rscale>  2 0.42167693E+03</rscale>
<asrwt>0</asrwt>
<pdfrwt beam="1">  1       21 0.52009246E-01 0.42207503E+03</pdfrwt>
<pdfrwt beam="2">  1       21 0.83702263E-01 0.42207503E+03</pdfrwt>
<totfact> 0.38474891E+03</totfact>
</mgrwt>
</event>
<event>
 6    1  0.9598567E-004  0.5052309E+03  0.7818608E-02  0.1012466E+00
         21   -1    0    0  503  502  0.00000000000E+00  0.00000000000E+00  0.93410834826E+03  0.93410834826E+03  0.00000000000E+00 0. -1.
         21   -1    0    0  501  503 -0.00000000000E+00 -0.00000000000E+00 -0.27370362470E+03  0.27370362470E+03  0.00000000000E+00 0.  1.
    9000007    2    1    2  501    0  0.27545984880E+03  0.13921269825E+03  0.29726911381E+03  0.58561765064E+03  0.39915010092E+03 0.  0.
    9000005    1    3    3    0    0  0.29536229129E+03 -0.60058554334E+02  0.20890565754E+03  0.36672671953E+03  0.99999687468E+00 0.  0.
          4    1    3    3  501    0 -0.19902442492E+02  0.19927125258E+03  0.88363456267E+02  0.21889093112E+03  0.00000000000E+00 0.  1.
   -9000007    1    1    2    0  502 -0.27545984880E+03 -0.13921269825E+03  0.36313560975E+03  0.62219432232E+03  0.40000000000E+03 0.  1.
<mgrwt>
<rscale>  2 0.50506270E+03</rscale>
<asrwt>0</asrwt>
<pdfrwt beam="1">  1       21 0.14370898E+00 0.50523094E+03</pdfrwt>
<pdfrwt beam="2">  1       21 0.42108250E-01 0.50523094E+03</pdfrwt>
<totfact> 0.15156696E+03</totfact>
</mgrwt>
</event>
<event>
 6    1  0.9598567E-004  0.6052792E+03  0.7818608E-02  0.9894522E-01
         21   -1    0    0  503  502  0.00000000000E+00  0.00000000000E+00  0.46421705541E+03  0.46421705541E+03  0.00000000000E+00 0. -1.
         21   -1    0    0  501  503 -0.00000000000E+00 -0.00000000000E+00 -0.79682437318E+03  0.79682437318E+03  0.00000000000E+00 0. -1.
    9000007    2    1    2  501    0 -0.83614253215E+02  0.44651046923E+03 -0.22804464076E+03  0.64679693664E+03  0.39997371988E+03 0.  0.
    9000005    1    3    3    0    0  0.19024109595E+02  0.35294597110E+03  0.28983016645E+02  0.35464600732E+03  0.99999687468E+00 0.  0.
          4    1    3    3  501    0 -0.10263836281E+03  0.93564498126E+02 -0.25702765741E+03  0.29215092932E+03  0.00000000000E+00 0.  1.
   -9000007    1    1    2    0  502  0.83614253215E+02 -0.44651046923E+03 -0.10456267701E+03  0.61424449195E+03  0.40000000000E+03 0. -1.
<mgrwt>
<rscale>  2 0.60527489E+03</rscale>
<asrwt>0</asrwt>
<pdfrwt beam="1">  1       21 0.71418010E-01 0.60527923E+03</pdfrwt>
<pdfrwt beam="2">  1       21 0.12258836E+00 0.60527923E+03</pdfrwt>
<totfact> 0.70699294E+02</totfact>
</mgrwt>
</event>
<event>
 6    1  0.9598567E-004  0.6313842E+03  0.7818608E-02  0.9842430E-01
         21   -1    0    0  503  502  0.00000000000E+00  0.00000000000E+00  0.80091411327E+03  0.80091411327E+03  0.00000000000E+00 0.  1.
         21   -1    0    0  501  503 -0.00000000000E+00 -0.00000000000E+00 -0.55840614801E+03  0.55840614801E+03  0.00000000000E+00 0. -1.
    9000007    2    1    2  501    0 -0.10067776234E+03 -0.47781376286E+03 -0.10299114956E+03  0.63972895911E+03  0.40025486935E+03 0.  0.
    9000005    1    3    3    0    0 -0.15347524657E+03 -0.58622133365E+02 -0.13966723342E+03  0.21563659688E+03  0.99999687468E+00 0.  0.
          4    1    3    3  501    0  0.52797484227E+02 -0.41919162949E+03  0.36676083856E+02  0.42409236223E+03  0.00000000000E+00 0.  1.
   -9000007    1    1    2    0  502  0.10067776234E+03  0.47781376286E+03  0.34549911483E+03  0.71959130217E+03  0.40000000000E+03 0.  1.
<mgrwt>
<rscale>  2 0.63134378E+03</rscale>
<asrwt>0</asrwt>
<pdfrwt beam="1">  1       21 0.12321756E+00 0.63138417E+03</pdfrwt>
<pdfrwt beam="2">  1       21 0.85908638E-01 0.63138417E+03</pdfrwt>
<totfact> 0.45092717E+02</totfact>
</mgrwt>
</event>
<event>
 6    1  0.9598567E-004  0.4521629E+03  0.7818608E-02  0.1027079E+00
         21   -1    0    0  503  502  0.00000000000E+00  0.00000000000E+00  0.12459066616E+04  0.12459066616E+04  0.00000000000E+00 0.  1.
         21   -1    0    0  501  503 -0.00000000000E+00 -0.00000000000E+00 -0.49606640752E+03  0.49606640752E+03  0.00000000000E+00 0.  1.
    9000007    2    1    2  501    0  0.37777474621E+02  0.20741176609E+03 -0.33758897261E+03  0.56428503685E+03  0.40000563757E+03 0.  0.
    9000005    1    3    3    0    0 -0.15275871905E+03  0.87446232190E+01 -0.21267839435E+03  0.26200151545E+03  0.99999687468E+00 0.  0.
          4    1    3    3  501    0  0.19053619367E+03  0.19866714287E+03 -0.12491057826E+03  0.30228352141E+03  0.00000000000E+00 0.  1.
   -9000007    1    1    2    0  502 -0.37777474621E+02 -0.20741176609E+03  0.10874292267E+04  0.11776880323E+04  0.40000000000E+03 0.  1.
<mgrwt>
<rscale>  2 0.45216165E+03</rscale>
<asrwt>0</asrwt>
<pdfrwt beam="1">  1       21 0.19167795E+00 0.45216290E+03</pdfrwt>
<pdfrwt beam="2">  1       21 0.76317909E-01 0.45216290E+03</pdfrwt>
<totfact> 0.18787133E+02</totfact>
</mgrwt>
</event>
<event>
 6    1  0.9598567E-004  0.6302404E+03  0.7818608E-02  0.9844650E-01
         21   -1    0    0  503  502  0.00000000000E+00  0.00000000000E+00  0.54881973700E+03  0.54881973700E+03  0.00000000000E+00 0. -1.
         21   -1    0    0  501  503 -0.00000000000E+00 -0.00000000000E+00 -0.73989349806E+03  0.73989349806E+03  0.00000000000E+00 0. -1.
    9000007    2    1    2  501    0 -0.22541737045E+03  0.43172909636E+03 -0.19122063065E+03  0.65847278482E+03  0.39977252934E+03 0.  0.
    9000005    1    3    3    0    0 -0.30952484707E+03  0.29258296421E+03 -0.26075607133E+02  0.42672164133E+03  0.99999687468E+00 0.  0.
          4    1    3    3  501    0  0.84107476624E+02  0.13914613216E+03 -0.16514502351E+03  0.23175114349E+03  0.00000000000E+00 0.  1.
   -9000007    1    1    2    0  502  0.22541737045E+03 -0.43172909636E+03  0.14686957887E+00  0.63024045024E+03  0.40000000000E+03 0. -1.
<mgrwt>
<rscale>  2 0.63020434E+03</rscale>
<asrwt>0</asrwt>
<pdfrwt beam="1">  1       21 0.84433806E-01 0.63024043E+03</pdfrwt>
<pdfrwt beam="2">  1       21 0.11382977E+00 0.63024043E+03</pdfrwt>
<totfact> 0.57526507E+02</totfact>
</mgrwt>
</event>
<event>
 6    1  0.9598567E-004  0.4043970E+03  0.7818608E-02  0.1042273E+00
         21   -1    0    0  503  502  0.00000000000E+00  0.00000000000E+00  0.18779635571E+04  0.18779635571E+04  0.00000000000E+00 0.  1.
         21   -1    0    0  501  503 -0.00000000000E+00 -0.00000000000E+00 -0.93077240018E+02  0.93077240018E+02  0.00000000000E+00 0.  1.
    9000007    2    1    2  501    0  0.46356417241E+02 -0.37256362308E+02  0.64200169188E+03  0.75871979158E+03  0.39994074037E+03 0.  0.
    9000005    1    3    3    0    0  0.25683948757E+02 -0.21642876971E+03  0.28542042307E+03  0.35911961166E+03  0.99999687468E+00 0.  0.
          4    1    3    3  501    0  0.20672468484E+02  0.17917240740E+03  0.35658126880E+03  0.39960017992E+03  0.00000000000E+00 0.  1.
   -9000007    1    1    2    0  502 -0.46356417241E+02  0.37256362308E+02  0.11428846252E+04  0.12123210056E+04  0.40000000000E+03 0.  1.
<mgrwt>
<rscale>  2 0.40438237E+03</rscale>
<asrwt>0</asrwt>
<pdfrwt beam="1">  1       21 0.28891744E+00 0.40439703E+03</pdfrwt>
<pdfrwt beam="2">  1       21 0.14319577E-01 0.40439703E+03</pdfrwt>
<totfact> 0.14102724E+03</totfact>
</mgrwt>
</event>
<event>
 6    1  0.9598567E-004  0.4019520E+03  0.7818608E-02  0.1043107E+00
         21   -1    0    0  503  502  0.00000000000E+00  0.00000000000E+00  0.19184743998E+04  0.19184743998E+04  0.00000000000E+00 0. -1.
         21   -1    0    0  501  503 -0.00000000000E+00 -0.00000000000E+00 -0.85091478851E+02  0.85091478851E+02  0.00000000000E+00 0. -1.
    9000007    2    1    2  501    0 -0.33432125748E+02 -0.20914779486E+02  0.10185006690E+04  0.10949470259E+04  0.40001280196E+03 0.  0.
    9000005    1    3    3    0    0  0.16362196752E+03 -0.34755682173E+02  0.70363634722E+03  0.72324630302E+03  0.99999687468E+00 0.  0.
          4    1    3    3  501    0 -0.19705409327E+03  0.13840902687E+02  0.31486432173E+03  0.37170072284E+03  0.00000000000E+00 0.  1.
   -9000007    1    1    2    0  502  0.33432125748E+02  0.20914779486E+02  0.81488225195E+03  0.90861885275E+03  0.40000000000E+03 0.  1.
<mgrwt>
<rscale>  2 0.40194877E+03</rscale>
<asrwt>0</asrwt>
<pdfrwt beam="1">  1       21 0.29514987E+00 0.40195196E+03</pdfrwt>
<pdfrwt beam="2">  1       21 0.13090998E-01 0.40195196E+03</pdfrwt>
<totfact> 0.15283789E+03</totfact>
</mgrwt>
</event>
<event>
 6    1  0.9598567E-004  0.4394462E+03  0.7818608E-02  0.1031267E+00
         21   -1    0    0  503  502  0.00000000000E+00  0.00000000000E+00  0.58417759525E+03  0.58417759525E+03  0.00000000000E+00 0.  1.
         21   -1    0    0  501  503 -0.00000000000E+00 -0.00000000000E+00 -0.36852319075E+03  0.36852319075E+03  0.00000000000E+00 0.  1.
    9000007    2    1    2  501    0 -0.15633210014E+03  0.93129995882E+02 -0.52230465126E+02  0.43804048538E+03  0.39501711821E+03 0.  0.
    9000005    1    3    3    0    0  0.32645220222E+02 -0.42945100734E+02 -0.16909267876E+03  0.17749176343E+03  0.99999687468E+00 0.  0.
          4    1    3    3  501    0 -0.18897732037E+03  0.13607509662E+03  0.11686221364E+03  0.26054872195E+03  0.00000000000E+00 0.  1.
   -9000007    1    1    2    0  502  0.15633210014E+03 -0.93129995882E+02  0.26788486962E+03  0.51466030063E+03  0.40000000000E+03 0.  1.
<mgrwt>
<rscale>  2 0.43830907E+03</rscale>
<asrwt>0</asrwt>
<pdfrwt beam="1">  1       21 0.89873476E-01 0.43944615E+03</pdfrwt>
<pdfrwt beam="2">  1       21 0.56695876E-01 0.43944615E+03</pdfrwt>
<totfact> 0.26868331E+03</totfact>
</mgrwt>
</event>
<event>
 6    1  0.9598567E-004  0.4042530E+03  0.7818608E-02  0.1042402E+00
         21   -1    0    0  503  502  0.00000000000E+00  0.00000000000E+00  0.48767394444E+03  0.48767394444E+03  0.00000000000E+00 0.  1.
         21   -1    0    0  501  503 -0.00000000000E+00 -0.00000000000E+00 -0.15026093366E+04  0.15026093366E+04  0.00000000000E+00 0.  1.
    9000007    2    1    2  501    0  0.26027783652E+02  0.52373788210E+02 -0.13848239669E+04  0.14423434878E+04  0.39899480969E+03 0.  0.
    9000005    1    3    3    0    0  0.79244175355E+02  0.14936229630E+03 -0.24804052863E+03  0.30018967125E+03  0.99999687468E+00 0.  0.
          4    1    3    3  501    0 -0.53216391703E+02 -0.96988508091E+02 -0.11367834383E+04  0.11421538165E+04  0.00000000000E+00 0.  1.
   -9000007    1    1    2    0  502 -0.26027783652E+02 -0.52373788210E+02  0.36988857482E+03  0.54793979322E+03  0.40000000000E+03 0.  1.
<mgrwt>
<rscale>  2 0.40400409E+03</rscale>
<asrwt>0</asrwt>
<pdfrwt beam="1">  1       21 0.75026761E-01 0.40425296E+03</pdfrwt>
<pdfrwt beam="2">  1       21 0.23117067E+00 0.40425296E+03</pdfrwt>
<totfact> 0.11124437E+02</totfact>
</mgrwt>
</event>
<event>
 6    1  0.9598567E-004  0.4053096E+03  0.7818608E-02  0.1041980E+00
         21   -1    0    0  503  502  0.00000000000E+00  0.00000000000E+00  0.13409969623E+04  0.13409969623E+04  0.00000000000E+00 0. -1.
         21   -1    0    0  501  503 -0.00000000000E+00 -0.00000000000E+00 -0.23072304852E+03  0.23072304852E+03  0.00000000000E+00 0. -1.
    9000007    2    1    2  501    0 -0.41810556126E+02  0.50276696419E+02  0.16619394026E+02  0.40537697493E+03  0.39972292746E+03 0.  0.
    9000005    1    3    3    0    0  0.11202146604E+03 -0.12202951721E+03  0.47521309002E+02  0.17233480997E+03  0.99999687468E+00 0.  0.
          4    1    3    3  501    0 -0.15383202217E+03  0.17230621363E+03 -0.30901914976E+02  0.23304216496E+03  0.00000000000E+00 0.  1.
   -9000007    1    1    2    0  502  0.41810556126E+02 -0.50276696419E+02  0.10936545198E+04  0.11663430359E+04  0.40000000000E+03 0. -1.
<mgrwt>
<rscale>  2 0.40524122E+03</rscale>
<asrwt>0</asrwt>
<pdfrwt beam="1">  1       21 0.20630722E+00 0.40530960E+03</pdfrwt>
<pdfrwt beam="2">  1       21 0.35495854E-01 0.40530960E+03</pdfrwt>
<totfact> 0.79405738E+02</totfact>
</mgrwt>
</event>
<event>
 6    1  0.9598567E-004  0.4810177E+03  0.7818608E-02  0.1018886E+00
         21   -1    0    0  503  502  0.00000000000E+00  0.00000000000E+00  0.32911118753E+03  0.32911118753E+03  0.00000000000E+00 0.  1.
         21   -1    0    0  501  503 -0.00000000000E+00 -0.00000000000E+00 -0.18897358413E+04  0.18897358413E+04  0.00000000000E+00 0.  1.
    9000007    2    1    2  501    0 -0.12953350859E+03  0.23275881737E+03 -0.16598400619E+04  0.17281339822E+04  0.40052769232E+03 0.  0.
    9000005    1    3    3    0    0  0.93000814313E+02  0.36437003229E+02 -0.10382734345E+03  0.14407610457E+03  0.99999687468E+00 0.  0.
          4    1    3    3  501    0 -0.22253432290E+03  0.19632181415E+03 -0.15560127185E+04  0.15840578776E+04  0.00000000000E+00 0.  1.
   -9000007    1    1    2    0  502  0.12953350859E+03 -0.23275881737E+03  0.99215408162E+02  0.49071304663E+03  0.40000000000E+03 0.  1.
<mgrwt>
<rscale>  2 0.48090784E+03</rscale>
<asrwt>0</asrwt>
<pdfrwt beam="1">  1       21 0.50632491E-01 0.48101770E+03</pdfrwt>
<pdfrwt beam="2">  1       21 0.29072859E+00 0.48101770E+03</pdfrwt>
<totfact> 0.10918049E+02</totfact>
</mgrwt>
</event>
<event>
 6    1  0.9598567E-004  0.4470141E+03  0.7818608E-02  0.1029405E+00
         21   -1    0    0  503  502  0.00000000000E+00  0.00000000000E+00  0.81183667108E+03  0.81183667108E+03  0.00000000000E+00 0. -1.
         21   -1    0    0  501  503 -0.00000000000E+00 -0.00000000000E+00 -0.25291040713E+03  0.25291040713E+03  0.00000000000E+00 0. -1.
    9000007    2    1    2  501    0  0.25667770482E+02  0.17321654772E+03  0.16447340482E+03  0.47631197991E+03  0.41128918593E+03 0.  0.
    9000005    1    3    3    0    0 -0.14806628251E+03  0.11799762139E+03 -0.49018408486E+02  0.19557828876E+03  0.99999687468E+00 0.  0.
          4    1    3    3  501    0  0.17373405300E+03  0.55218926333E+02  0.21349181331E+03  0.28073369115E+03  0.00000000000E+00 0.  1.
   -9000007    1    1    2    0  502 -0.25667770482E+02 -0.17321654772E+03  0.39445285913E+03  0.58843509831E+03  0.40000000000E+03 0. -1.
<mgrwt>
<rscale>  2 0.44440011E+03</rscale>
<asrwt>0</asrwt>
<pdfrwt beam="1">  1       21 0.12489795E+00 0.44701410E+03</pdfrwt>
<pdfrwt beam="2">  1       21 0.38909294E-01 0.44701410E+03</pdfrwt>
<totfact> 0.26350146E+03</totfact>
</mgrwt>
</event>
<event>
 6    1  0.9598567E-004  0.5770395E+03  0.7818608E-02  0.9954371E-01
         21   -1    0    0  503  502  0.00000000000E+00  0.00000000000E+00  0.23673863815E+04  0.23673863815E+04  0.00000000000E+00 0. -1.
         21   -1    0    0  501  503 -0.00000000000E+00 -0.00000000000E+00 -0.22865642325E+03  0.22865642325E+03  0.00000000000E+00 0.  1.
    9000007    2    1    2  501    0  0.41557057559E+03 -0.16603000296E+02  0.26362316556E+03  0.63415594591E+03  0.39960233658E+03 0.  0.
    9000005    1    3    3    0    0  0.50142078777E+01 -0.12401840326E+03  0.15026613416E+03  0.19490155899E+03  0.99999687468E+00 0.  0.
          4    1    3    3  501    0  0.41055636771E+03  0.10741540297E+03  0.11335703140E+03  0.43925438692E+03  0.00000000000E+00 0.  1.
   -9000007    1    1    2    0  502 -0.41557057559E+03  0.16603000296E+02  0.18751067926E+04  0.19618868588E+04  0.40000000000E+03 0. -1.
<mgrwt>
<rscale>  2 0.57697057E+03</rscale>
<asrwt>0</asrwt>
<pdfrwt beam="1">  1       21 0.36421327E+00 0.57703948E+03</pdfrwt>
<pdfrwt beam="2">  1       21 0.35177913E-01 0.57703948E+03</pdfrwt>
<totfact> 0.78549743E+01</totfact>
</mgrwt>
</event>
<event>
 6    1  0.9598567E-004  0.4449181E+03  0.7818608E-02  0.1029288E+00
         21   -1    0    0  503  502  0.00000000000E+00  0.00000000000E+00  0.38549344600E+03  0.38549344600E+03  0.00000000000E+00 0. -1.
         21   -1    0    0  501  503 -0.00000000000E+00 -0.00000000000E+00 -0.56527530428E+03  0.56527530428E+03  0.00000000000E+00 0.  1.
    9000007    2    1    2  501    0  0.41089861488E+02  0.19043029141E+03 -0.23454359698E+03  0.50249325392E+03  0.39942045359E+03 0.  0.
    9000005    1    3    3    0    0  0.78671519953E+02  0.95967718922E+00  0.93255323004E+02  0.12201509863E+03  0.99999687468E+00 0.  0.
          4    1    3    3  501    0 -0.37581658464E+02  0.18947061423E+03 -0.32779891999E+03  0.38047815529E+03  0.00000000000E+00 0.  1.
   -9000007    1    1    2    0  502 -0.41089861488E+02 -0.19043029141E+03  0.54761738709E+02  0.44827549635E+03  0.40000000000E+03 0. -1.
<mgrwt>
<rscale>  2 0.44478775E+03</rscale>
<asrwt>0</asrwt>
<pdfrwt beam="1">  1       21 0.59306684E-01 0.44491805E+03</pdfrwt>
<pdfrwt beam="2">  1       21 0.86965431E-01 0.44491805E+03</pdfrwt>
<totfact> 0.26270617E+03</totfact>
</mgrwt>
</event>
<event>
 6    1  0.9598567E-004  0.5262633E+03  0.7818608E-02  0.1007155E+00
         21   -1    0    0  503  502  0.00000000000E+00  0.00000000000E+00  0.84994051942E+03  0.84994051942E+03  0.00000000000E+00 0.  1.
         21   -1    0    0  501  503 -0.00000000000E+00 -0.00000000000E+00 -0.71743516556E+03  0.71743516556E+03  0.00000000000E+00 0. -1.
    9000007    2    1    2  501    0 -0.29034435254E+03 -0.18070203172E+03 -0.51283332762E+03  0.73466019867E+03  0.39971804848E+03 0.  0.
    9000005    1    3    3    0    0 -0.32982934997E+03 -0.25452723510E+03 -0.49858041562E+03  0.64973451836E+03  0.99999687468E+00 0.  0.
          4    1    3    3  501    0  0.39484997435E+02  0.73825203382E+02 -0.14252911997E+02  0.84925680317E+02  0.00000000000E+00 0.  1.
   -9000007    1    1    2    0  502  0.29034435254E+03  0.18070203172E+03  0.64533868147E+03  0.83271548630E+03  0.40000000000E+03 0.  1.
<mgrwt>
<rscale>  2 0.52620973E+03</rscale>
<asrwt>0</asrwt>
<pdfrwt beam="1">  1       21 0.13076008E+00 0.52626331E+03</pdfrwt>
<pdfrwt beam="2">  1       21 0.11037464E+00 0.52626331E+03</pdfrwt>
<totfact> 0.21843859E+02</totfact>
</mgrwt>
</event>
<event>
 6    1  0.9598567E-004  0.6782633E+03  0.7818608E-02  0.9758576E-01
         21   -1    0    0  503  502  0.00000000000E+00  0.00000000000E+00  0.57209043898E+03  0.57209043898E+03  0.00000000000E+00 0. -1.
         21   -1    0    0  501  503 -0.00000000000E+00 -0.00000000000E+00 -0.10375313231E+04  0.10375313231E+04  0.00000000000E+00 0.  1.
    9000007    2    1    2  501    0 -0.15653864963E+03 -0.51496843575E+03 -0.62278440935E+03  0.92081567641E+03  0.41272781678E+03 0.  0.
    9000005    1    3    3    0    0  0.10280235781E+03 -0.36374982150E+03 -0.34121051010E+03  0.50922280939E+03  0.99999687468E+00 0.  0.
          4    1    3    3  501    0 -0.25934100745E+03 -0.15121861425E+03 -0.28157389925E+03  0.41159286702E+03  0.00000000000E+00 0.  1.
   -9000007    1    1    2    0  502  0.15653864963E+03  0.51496843575E+03  0.15734352527E+03  0.68880608562E+03  0.40000000000E+03 0. -1.
<mgrwt>
<rscale>  2 0.67633788E+03</rscale>
<asrwt>0</asrwt>
<pdfrwt beam="1">  1       21 0.88013915E-01 0.67826329E+03</pdfrwt>
<pdfrwt beam="2">  1       21 0.15962020E+00 0.67826329E+03</pdfrwt>
<totfact> 0.20885144E+02</totfact>
</mgrwt>
</event>
<event>
 6    1  0.9598567E-004  0.4114428E+03  0.7818608E-02  0.1039892E+00
         21   -1    0    0  503  502  0.00000000000E+00  0.00000000000E+00  0.40276427980E+03  0.40276427980E+03  0.00000000000E+00 0.  1.
         21   -1    0    0  501  503 -0.00000000000E+00 -0.00000000000E+00 -0.66982595883E+03  0.66982595883E+03  0.00000000000E+00 0.  1.
    9000007    2    1    2  501    0  0.94002126238E+02 -0.21185145734E+02 -0.46088067920E+03  0.61778147116E+03  0.39994716591E+03 0.  0.
    9000005    1    3    3    0    0 -0.12483377881E+03 -0.35873521066E+02 -0.28538536056E+02  0.13298808172E+03  0.99999687468E+00 0.  0.
          4    1    3    3  501    0  0.21883590505E+03  0.14688375333E+02 -0.43234214314E+03  0.48479338944E+03  0.00000000000E+00 0.  1.
   -9000007    1    1    2    0  502 -0.94002126238E+02  0.21185145734E+02  0.19381900017E+03  0.45480876746E+03  0.40000000000E+03 0.  1.
<mgrwt>
<rscale>  2 0.41143000E+03</rscale>
<asrwt>0</asrwt>
<pdfrwt beam="1">  1       21 0.61963735E-01 0.41144284E+03</pdfrwt>
<pdfrwt beam="2">  1       21 0.10305015E+00 0.41144284E+03</pdfrwt>
<totfact> 0.16105556E+03</totfact>
</mgrwt>
</event>
<event>
 6    1  0.9598567E-004  0.4054890E+03  0.7818608E-02  0.1041937E+00
         21   -1    0    0  503  502  0.00000000000E+00  0.00000000000E+00  0.87009374332E+03  0.87009374332E+03  0.00000000000E+00 0. -1.
         21   -1    0    0  501  503 -0.00000000000E+00 -0.00000000000E+00 -0.18902678990E+03  0.18902678990E+03  0.00000000000E+00 0. -1.
    9000007    2    1    2  501    0 -0.23711930294E+02 -0.62121360920E+02  0.31976637152E+03  0.51601885803E+03  0.39950420569E+03 0.  0.
    9000005    1    3    3    0    0  0.69943865590E+02 -0.21475839524E+03  0.18264610851E+03  0.29047188092E+03  0.99999687468E+00 0.  0.
          4    1    3    3  501    0 -0.93655795884E+02  0.15263703432E+03  0.13712026302E+03  0.22554697710E+03  0.00000000000E+00 0.  1.
   -9000007    1    1    2    0  502  0.23711930294E+02  0.62121360920E+02  0.36130058189E+03  0.54310167519E+03  0.40000000000E+03 0. -1.
<mgrwt>
<rscale>  2 0.40536666E+03</rscale>
<asrwt>0</asrwt>
<pdfrwt beam="1">  1       21 0.13386057E+00 0.40548899E+03</pdfrwt>
<pdfrwt beam="2">  1       21 0.29081045E-01 0.40548899E+03</pdfrwt>
<totfact> 0.40203775E+03</totfact>
</mgrwt>
</event>
<event>
 6    1  0.9598567E-004  0.5442725E+03  0.7818608E-02  0.1002839E+00
         21   -1    0    0  503  502  0.00000000000E+00  0.00000000000E+00  0.27048833710E+04  0.27048833710E+04  0.00000000000E+00 0. -1.
         21   -1    0    0  501  503 -0.00000000000E+00 -0.00000000000E+00 -0.16942733531E+03  0.16942733531E+03  0.00000000000E+00 0. -1.
    9000007    2    1    2  501    0 -0.25949077167E+03 -0.26208999783E+03  0.41300383502E+03  0.68323107022E+03  0.40025729228E+03 0.  0.
    9000005    1    3    3    0    0 -0.11725682821E+03 -0.35513701980E+03  0.27315008846E+03  0.46312356604E+03  0.99999687468E+00 0.  0.
          4    1    3    3  501    0 -0.14223394346E+03  0.93047021972E+02  0.13985374655E+03  0.22010750418E+03  0.00000000000E+00 0.  1.
   -9000007    1    1    2    0  502  0.25949077167E+03  0.26208999783E+03  0.21224522007E+04  0.21910796361E+04  0.40000000000E+03 0. -1.
<mgrwt>
<rscale>  2 0.54422517E+03</rscale>
<asrwt>0</asrwt>
<pdfrwt beam="1">  1       21 0.41613587E+00 0.54427248E+03</pdfrwt>
<pdfrwt beam="2">  1       21 0.26065746E-01 0.54427248E+03</pdfrwt>
<totfact> 0.67753479E+01</totfact>
</mgrwt>
</event>
<event>
 6    1  0.9598567E-004  0.4446164E+03  0.7818608E-02  0.1029362E+00
         21   -1    0    0  503  502  0.00000000000E+00  0.00000000000E+00  0.67088880212E+03  0.67088880212E+03  0.00000000000E+00 0. -1.
         21   -1    0    0  501  503 -0.00000000000E+00 -0.00000000000E+00 -0.29965719797E+03  0.29965719797E+03  0.00000000000E+00 0.  1.
    9000007    2    1    2  501    0 -0.56655887255E+01  0.19404042123E+03  0.24941065344E+03  0.50954260748E+03  0.39968013563E+03 0.  0.
    9000005    1    3    3    0    0  0.30827570157E+02 -0.10997812768E+03  0.14807289438E+03  0.18700831451E+03  0.99999687468E+00 0.  0.
          4    1    3    3  501    0 -0.36493158883E+02  0.30401854892E+03  0.10133775906E+03  0.32253429297E+03  0.00000000000E+00 0.  1.
   -9000007    1    1    2    0  502  0.56655887255E+01 -0.19404042123E+03  0.12182095071E+03  0.46100339261E+03  0.40000000000E+03 0. -1.
<mgrwt>
<rscale>  2 0.44454449E+03</rscale>
<asrwt>0</asrwt>
<pdfrwt beam="1">  1       21 0.10321366E+00 0.44461645E+03</pdfrwt>
<pdfrwt beam="2">  1       21 0.46101107E-01 0.44461645E+03</pdfrwt>
<totfact> 0.29889200E+03</totfact>
</mgrwt>
</event>
<event>
 6    1  0.9598567E-004  0.6071139E+03  0.7818608E-02  0.9891389E-01
         21   -1    0    0  503  502  0.00000000000E+00  0.00000000000E+00  0.53894064443E+03  0.53894064443E+03  0.00000000000E+00 0. -1.
         21   -1    0    0  501  503 -0.00000000000E+00 -0.00000000000E+00 -0.69767590148E+03  0.69767590148E+03  0.00000000000E+00 0.  1.
    9000007    2    1    2  501    0  0.57228561833E+02  0.45311383796E+03  0.11850031161E+02  0.60599257000E+03  0.39811972221E+03 0.  0.
    9000005    1    3    3    0    0  0.11745148702E+03  0.50837580433E+03 -0.82057396249E+01  0.52183248690E+03  0.99999687468E+00 0.  0.
          4    1    3    3  501    0 -0.60222925184E+02 -0.55261966369E+02  0.20055770786E+02  0.84160083095E+02  0.00000000000E+00 0.  1.
   -9000007    1    1    2    0  502 -0.57228561833E+02 -0.45311383796E+03 -0.17058528821E+03  0.63062397591E+03  0.40000000000E+03 0. -1.
<mgrwt>
<rscale>  2 0.60680434E+03</rscale>
<asrwt>0</asrwt>
<pdfrwt beam="1">  1       21 0.82913946E-01 0.60711388E+03</pdfrwt>
<pdfrwt beam="2">  1       21 0.10733475E+00 0.60711388E+03</pdfrwt>
<totfact> 0.70050041E+02</totfact>
</mgrwt>
</event>
<event>
 6    1  0.9598567E-004  0.5341765E+03  0.7818608E-02  0.1005247E+00
         21   -1    0    0  503  502  0.00000000000E+00  0.00000000000E+00  0.19223764772E+03  0.19223764772E+03  0.00000000000E+00 0. -1.
         21   -1    0    0  501  503 -0.00000000000E+00 -0.00000000000E+00 -0.16971362157E+04  0.16971362157E+04  0.00000000000E+00 0. -1.
    9000007    2    1    2  501    0 -0.33142835791E+03  0.12286326792E+03 -0.10880262991E+04  0.12120832112E+04  0.40050511146E+03 0.  0.
    9000005    1    3    3    0    0 -0.17612447964E+03  0.70168969326E+02 -0.10150077752E+04  0.10325624922E+04  0.99999687468E+00 0.  0.
          4    1    3    3  501    0 -0.15530387827E+03  0.52694298597E+02 -0.73018523859E+02  0.17952071896E+03  0.00000000000E+00 0.  1.
   -9000007    1    1    2    0  502  0.33142835791E+03 -0.12286326792E+03 -0.41687226890E+03  0.67729065224E+03  0.40000000000E+03 0. -1.
<mgrwt>
<rscale>  2 0.53408178E+03</rscale>
<asrwt>0</asrwt>
<pdfrwt beam="1">  1       21 0.29575023E-01 0.53417645E+03</pdfrwt>
<pdfrwt beam="2">  1       21 0.26109787E+00 0.53417645E+03</pdfrwt>
<totfact> 0.48633210E+02</totfact>
</mgrwt>
</event>
<event>
 6    1  0.9598567E-004  0.5260844E+03  0.7818608E-02  0.1007251E+00
         21   -1    0    0  503  502  0.00000000000E+00  0.00000000000E+00  0.50966014597E+03  0.50966014597E+03  0.00000000000E+00 0. -1.
         21   -1    0    0  501  503 -0.00000000000E+00 -0.00000000000E+00 -0.95333433562E+03  0.95333433562E+03  0.00000000000E+00 0. -1.
    9000007    2    1    2  501    0  0.20791799451E+03  0.27117315352E+03 -0.70223117015E+03  0.87680638567E+03  0.39861767395E+03 0.  0.
    9000005    1    3    3    0    0  0.28247276091E+03  0.11171143676E+03 -0.60186128437E+03  0.67417231578E+03  0.99999687468E+00 0.  0.
          4    1    3    3  501    0 -0.74554766401E+02  0.15946171676E+03 -0.10036988579E+03  0.20263406988E+03  0.00000000000E+00 0.  1.
   -9000007    1    1    2    0  502 -0.20791799451E+03 -0.27117315352E+03  0.25855698051E+03  0.58618809592E+03  0.40000000000E+03 0. -1.
<mgrwt>
<rscale>  2 0.52582161E+03</rscale>
<asrwt>0</asrwt>
<pdfrwt beam="1">  1       21 0.78409254E-01 0.52608438E+03</pdfrwt>
<pdfrwt beam="2">  1       21 0.14666682E+00 0.52608438E+03</pdfrwt>
<totfact> 0.36560936E+02</totfact>
</mgrwt>
</event>
<event>
 6    1  0.9598567E-004  0.4675888E+03  0.7818608E-02  0.1022675E+00
         21   -1    0    0  503  502  0.00000000000E+00  0.00000000000E+00  0.58442693390E+03  0.58442693390E+03  0.00000000000E+00 0.  1.
         21   -1    0    0  501  503 -0.00000000000E+00 -0.00000000000E+00 -0.53584807609E+03  0.53584807609E+03  0.00000000000E+00 0.  1.
    9000007    2    1    2  501    0 -0.16244447703E+03 -0.17692490242E+03 -0.28420187691E+03  0.54718370260E+03  0.40118408285E+03 0.  0.
    9000005    1    3    3    0    0  0.75310133496E+02 -0.75106636560E+01 -0.24032900340E+03  0.25196637899E+03  0.99999687468E+00 0.  0.
          4    1    3    3  501    0 -0.23775461053E+03 -0.16941423877E+03 -0.43872873517E+02  0.29521732360E+03  0.00000000000E+00 0.  1.
   -9000007    1    1    2    0  502  0.16244447703E+03  0.17692490242E+03  0.33278073472E+03  0.57309130740E+03  0.40000000000E+03 0.  1.
<mgrwt>
<rscale>  2 0.46733472E+03</rscale>
<asrwt>0</asrwt>
<pdfrwt beam="1">  1       21 0.89911836E-01 0.46758881E+03</pdfrwt>
<pdfrwt beam="2">  1       21 0.82438166E-01 0.46758881E+03</pdfrwt>
<totfact> 0.11462002E+03</totfact>
</mgrwt>
</event>
<event>
 6    1  0.9598567E-004  0.8031402E+03  0.7818608E-02  0.9555607E-01
         21   -1    0    0  503  502  0.00000000000E+00  0.00000000000E+00  0.16560341821E+04  0.16560341821E+04  0.00000000000E+00 0. -1.
         21   -1    0    0  501  503 -0.00000000000E+00 -0.00000000000E+00 -0.52713567574E+03  0.52713567574E+03  0.00000000000E+00 0. -1.
    9000007    2    1    2  501    0  0.68722354480E+03  0.11295112175E+03  0.62545879286E+01  0.80282079909E+03  0.39930935270E+03 0.  0.
    9000005    1    3    3    0    0  0.64023273398E+03 -0.78901115496E+01  0.92744577481E+02  0.64696426808E+03  0.99999687468E+00 0.  0.
          4    1    3    3  501    0  0.46990810815E+02  0.12084123330E+03 -0.86489989552E+02  0.15585653101E+03  0.00000000000E+00 0.  1.
   -9000007    1    1    2    0  502 -0.68722354480E+03 -0.11295112175E+03  0.11226439184E+04  0.13803490587E+04  0.40000000000E+03 0. -1.
<mgrwt>
<rscale>  2 0.80305423E+03</rscale>
<asrwt>0</asrwt>
<pdfrwt beam="1">  1       21 0.25477449E+00 0.80314018E+03</pdfrwt>
<pdfrwt beam="2">  1       21 0.81097797E-01 0.80314018E+03</pdfrwt>
<totfact> 0.54978710E+01</totfact>
</mgrwt>
</event>
<event>
 6    1  0.9598567E-004  0.4110857E+03  0.7818608E-02  0.1040012E+00
         21   -1    0    0  503  502  0.00000000000E+00  0.00000000000E+00  0.27055492878E+03  0.27055492878E+03  0.00000000000E+00 0. -1.
         21   -1    0    0  501  503 -0.00000000000E+00 -0.00000000000E+00 -0.74344639888E+03  0.74344639888E+03  0.00000000000E+00 0. -1.
    9000007    2    1    2  501    0 -0.45825881994E+02 -0.83014573642E+02 -0.43920370756E+03  0.60153763683E+03  0.39994524738E+03 0.  0.
    9000005    1    3    3    0    0 -0.11938156261E+02 -0.21427233974E+03 -0.41014183423E+03  0.46289575428E+03  0.99999687468E+00 0.  0.
          4    1    3    3  501    0 -0.33887725733E+02  0.13125776610E+03 -0.29061873324E+02  0.13864188255E+03  0.00000000000E+00 0.  1.
   -9000007    1    1    2    0  502  0.45825881994E+02  0.83014573642E+02 -0.33687762542E+02  0.41246369082E+03  0.40000000000E+03 0. -1.
<mgrwt>
<rscale>  2 0.41107235E+03</rscale>
<asrwt>0</asrwt>
<pdfrwt beam="1">  1       21 0.41623835E-01 0.41108567E+03</pdfrwt>
<pdfrwt beam="2">  1       21 0.11437637E+00 0.41108567E+03</pdfrwt>
<totfact> 0.29057111E+03</totfact>
</mgrwt>
</event>
<event>
 6    1  0.9598567E-004  0.4193183E+03  0.7818608E-02  0.1037335E+00
         21   -1    0    0  503  502  0.00000000000E+00  0.00000000000E+00  0.28911678601E+03  0.28911678601E+03  0.00000000000E+00 0. -1.
         21   -1    0    0  501  503 -0.00000000000E+00 -0.00000000000E+00 -0.70493445707E+03  0.70493445707E+03  0.00000000000E+00 0. -1.
    9000007    2    1    2  501    0 -0.92489130983E+02 -0.85285524726E+02 -0.39273097776E+03  0.57409784627E+03  0.39940312484E+03 0.  0.
    9000005    1    3    3    0    0 -0.16949178641E+03 -0.69423056605E+02 -0.44396119008E+03  0.48025989291E+03  0.99999687468E+00 0.  0.
          4    1    3    3  501    0  0.77002655425E+02 -0.15862468121E+02  0.51230212321E+02  0.93837953366E+02  0.00000000000E+00 0.  1.
   -9000007    1    1    2    0  502  0.92489130983E+02  0.85285524726E+02 -0.23086693302E+02  0.41995339680E+03  0.40000000000E+03 0. -1.
<mgrwt>
<rscale>  2 0.41917592E+03</rscale>
<asrwt>0</asrwt>
<pdfrwt beam="1">  1       21 0.44479505E-01 0.41931833E+03</pdfrwt>
<pdfrwt beam="2">  1       21 0.10845146E+00 0.41931833E+03</pdfrwt>
<totfact> 0.28793130E+03</totfact>
</mgrwt>
</event>
<event>
 6    1  0.9598567E-004  0.4113040E+03  0.7818608E-02  0.1040287E+00
         21   -1    0    0  503  502  0.00000000000E+00  0.00000000000E+00  0.94824795246E+02  0.94824795246E+02  0.00000000000E+00 0. -1.
         21   -1    0    0  501  503 -0.00000000000E+00 -0.00000000000E+00 -0.18273136224E+04  0.18273136224E+04  0.00000000000E+00 0. -1.
    9000007    2    1    2  501    0 -0.92868721525E+02  0.23374993644E+02 -0.10381712365E+04  0.11151390952E+04  0.39568256917E+03 0.  0.
    9000005    1    3    3    0    0 -0.17191422671E+03 -0.99748909041E+02 -0.86914745698E+03  0.89158434720E+03  0.99999687468E+00 0.  0.
          4    1    3    3  501    0  0.79045505185E+02  0.12312390269E+03 -0.16902377951E+03  0.22355474798E+03  0.00000000000E+00 0.  1.
   -9000007    1    1    2    0  502  0.92868721525E+02 -0.23374993644E+02 -0.69431759067E+03  0.80699932248E+03  0.40000000000E+03 0. -1.
<mgrwt>
<rscale>  2 0.41025059E+03</rscale>
<asrwt>0</asrwt>
<pdfrwt beam="1">  1       21 0.14588430E-01 0.41130401E+03</pdfrwt>
<pdfrwt beam="2">  1       21 0.28112517E+00 0.41130401E+03</pdfrwt>
<totfact> 0.15113620E+03</totfact>
</mgrwt>
</event>
<event>
 6    1  0.9598567E-004  0.4156541E+03  0.7818608E-02  0.1038645E+00
         21   -1    0    0  503  502  0.00000000000E+00  0.00000000000E+00  0.11983172895E+04  0.11983172895E+04  0.00000000000E+00 0. -1.
         21   -1    0    0  501  503 -0.00000000000E+00 -0.00000000000E+00 -0.17778875231E+03  0.17778875231E+03  0.00000000000E+00 0. -1.
    9000007    2    1    2  501    0  0.27028251935E+02 -0.10240739340E+03  0.20915110173E+03  0.46530905928E+03  0.40193349781E+03 0.  0.
    9000005    1    3    3    0    0  0.76681739771E+02  0.10386719419E+03 -0.42712129267E+02  0.13599194544E+03  0.99999687468E+00 0.  0.
          4    1    3    3  501    0 -0.49653487836E+02 -0.20627458759E+03  0.25186323100E+03  0.32931711384E+03  0.00000000000E+00 0.  1.
   -9000007    1    1    2    0  502 -0.27028251935E+02  0.10240739340E+03  0.81137743541E+03  0.91079698249E+03  0.40000000000E+03 0.  1.
<mgrwt>
<rscale>  2 0.41518597E+03</rscale>
<asrwt>0</asrwt>
<pdfrwt beam="1">  1       21 0.18435650E+00 0.41565411E+03</pdfrwt>
<pdfrwt beam="2">  1       21 0.27352117E-01 0.41565411E+03</pdfrwt>
<totfact> 0.18654516E+03</totfact>
</mgrwt>
</event>
<event>
 6    1  0.9598567E-004  0.4124699E+03  0.7818608E-02  0.1039559E+00
         21   -1    0    0  503  502  0.00000000000E+00  0.00000000000E+00  0.43592381752E+03  0.43592381752E+03  0.00000000000E+00 0. -1.
         21   -1    0    0  501  503 -0.00000000000E+00 -0.00000000000E+00 -0.40382997645E+03  0.40382997645E+03  0.00000000000E+00 0. -1.
    9000007    2    1    2  501    0 -0.25923467122E+02 -0.97259256747E+02 -0.61321379129E+02  0.41683797193E+03  0.39982770556E+03 0.  0.
    9000005    1    3    3    0    0 -0.16603380403E+03  0.80505049722E+02 -0.10274570197E+02  0.18481031870E+03  0.99999687468E+00 0.  0.
          4    1    3    3  501    0  0.14011033690E+03 -0.17776430647E+03 -0.51046808932E+02  0.23202765323E+03  0.00000000000E+00 0.  1.
   -9000007    1    1    2    0  502  0.25923467122E+02  0.97259256747E+02  0.93415220203E+02  0.42291582205E+03  0.40000000000E+03 0.  1.
<mgrwt>
<rscale>  2 0.41242809E+03</rscale>
<asrwt>0</asrwt>
<pdfrwt beam="1">  1       21 0.67065202E-01 0.41246986E+03</pdfrwt>
<pdfrwt beam="2">  1       21 0.62127689E-01 0.41246986E+03</pdfrwt>
<totfact> 0.43501718E+03</totfact>
</mgrwt>
</event>
<event>
 6    1  0.9598567E-004  0.4676907E+03  0.7818608E-02  0.1022594E+00
         21   -1    0    0  503  502  0.00000000000E+00  0.00000000000E+00  0.44295265139E+03  0.44295265139E+03  0.00000000000E+00 0.  1.
         21   -1    0    0  501  503 -0.00000000000E+00 -0.00000000000E+00 -0.49368627985E+03  0.49368627985E+03  0.00000000000E+00 0. -1.
    9000007    2    1    2  501    0 -0.23668190346E+03 -0.52117656720E+02 -0.34058869291E+02  0.46865108827E+03  0.39967394510E+03 0.  0.
    9000005    1    3    3    0    0 -0.23793164875E+03  0.53106654673E+02 -0.16965553620E+03  0.29701142605E+03  0.99999687468E+00 0.  0.
          4    1    3    3  501    0  0.12497452955E+01 -0.10522431139E+03  0.13559666690E+03  0.17163966222E+03  0.00000000000E+00 0.  1.
   -9000007    1    1    2    0  502  0.23668190346E+03  0.52117656720E+02 -0.16674759168E+02  0.46798784296E+03  0.40000000000E+03 0. -1.
<mgrwt>
<rscale>  2 0.46762096E+03</rscale>
<asrwt>0</asrwt>
<pdfrwt beam="1">  1       21 0.68146562E-01 0.46769068E+03</pdfrwt>
<pdfrwt beam="2">  1       21 0.75951735E-01 0.46769068E+03</pdfrwt>
<totfact> 0.26223577E+03</totfact>
</mgrwt>
</event>
<event>
 6    1  0.9598567E-004  0.5038734E+03  0.7818608E-02  0.1012780E+00
         21   -1    0    0  503  502  0.00000000000E+00  0.00000000000E+00  0.48685286410E+03  0.48685286410E+03  0.00000000000E+00 0. -1.
         21   -1    0    0  501  503 -0.00000000000E+00 -0.00000000000E+00 -0.84775815053E+03  0.84775815053E+03  0.00000000000E+00 0.  1.
    9000007    2    1    2  501    0 -0.28914682448E+03 -0.10140260997E+03 -0.59449386097E+03  0.77922646536E+03  0.39985317077E+03 0.  0.
    9000005    1    3    3    0    0 -0.25415083762E+03 -0.23746983297E+03 -0.32862485342E+03  0.47851840520E+03  0.99999687468E+00 0.  0.
          4    1    3    3  501    0 -0.34995986856E+02  0.13606722300E+03 -0.26586900755E+03  0.30070806016E+03  0.00000000000E+00 0.  1.
   -9000007    1    1    2    0  502  0.28914682448E+03  0.10140260997E+03  0.23358857454E+03  0.55538454927E+03  0.40000000000E+03 0. -1.
<mgrwt>
<rscale>  2 0.50384423E+03</rscale>
<asrwt>0</asrwt>
<pdfrwt beam="1">  1       21 0.74900442E-01 0.50387337E+03</pdfrwt>
<pdfrwt beam="2">  1       21 0.13042433E+00 0.50387337E+03</pdfrwt>
<totfact> 0.55979754E+02</totfact>
</mgrwt>
</event>
<event>
 6    1  0.9598567E-004  0.5080538E+03  0.7818608E-02  0.1011717E+00
         21   -1    0    0  503  502  0.00000000000E+00  0.00000000000E+00  0.10071709159E+04  0.10071709159E+04  0.00000000000E+00 0.  1.
         21   -1    0    0  501  503 -0.00000000000E+00 -0.00000000000E+00 -0.51501563813E+03  0.51501563813E+03  0.00000000000E+00 0.  1.
    9000007    2    1    2  501    0 -0.27246145003E+03  0.15454256476E+03 -0.29356567360E+03  0.58651777743E+03  0.39962939388E+03 0.  0.
    9000005    1    3    3    0    0 -0.84831020460E+02 -0.86802328151E+02 -0.24976603932E+03  0.27769591390E+03  0.99999687468E+00 0.  0.
          4    1    3    3  501    0 -0.18763042957E+03  0.24134489291E+03 -0.43799634279E+02  0.30882186353E+03  0.00000000000E+00 0.  1.
   -9000007    1    1    2    0  502  0.27246145003E+03 -0.15454256476E+03  0.78572095142E+03  0.93566877664E+03  0.40000000000E+03 0.  1.
<mgrwt>
<rscale>  2 0.50798083E+03</rscale>
<asrwt>0</asrwt>
<pdfrwt beam="1">  1       21 0.15494937E+00 0.50805378E+03</pdfrwt>
<pdfrwt beam="2">  1       21 0.79233175E-01 0.50805378E+03</pdfrwt>
<totfact> 0.30943966E+02</totfact>
</mgrwt>
</event>
<event>
 6    1  0.9598567E-004  0.4502052E+03  0.7818608E-02  0.1027678E+00
         21   -1    0    0  503  502  0.00000000000E+00  0.00000000000E+00  0.15841314893E+03  0.15841314893E+03  0.00000000000E+00 0.  1.
         21   -1    0    0  501  503 -0.00000000000E+00 -0.00000000000E+00 -0.13914386415E+04  0.13914386415E+04  0.00000000000E+00 0.  1.
    9000007    2    1    2  501    0  0.45529542763E+02 -0.20099586322E+03 -0.39617846455E+03  0.59970168408E+03  0.40026548416E+03 0.  0.
    9000005    1    3    3    0    0  0.18804886640E+01  0.24700124664E+02  0.73075431624E+02  0.77166385796E+02  0.99999687468E+00 0.  0.
          4    1    3    3  501    0  0.43649054099E+02 -0.22569598789E+03 -0.46925389617E+03  0.52253529828E+03  0.00000000000E+00 0.  1.
   -9000007    1    1    2    0  502 -0.45529542763E+02  0.20099586322E+03 -0.83684702804E+03  0.95015010637E+03  0.40000000000E+03 0. -1.
<mgrwt>
<rscale>  2 0.45014620E+03</rscale>
<asrwt>0</asrwt>
<pdfrwt beam="1">  1       21 0.24371252E-01 0.45020521E+03</pdfrwt>
<pdfrwt beam="2">  1       21 0.21406749E+00 0.45020521E+03</pdfrwt>
<totfact> 0.14564867E+03</totfact>
</mgrwt>
</event>
<event>
 6    1  0.9598567E-004  0.4115739E+03  0.7818608E-02  0.1039924E+00
         21   -1    0    0  503  502  0.00000000000E+00  0.00000000000E+00  0.73681940586E+02  0.73681940586E+02  0.00000000000E+00 0.  1.
         21   -1    0    0  501  503 -0.00000000000E+00 -0.00000000000E+00 -0.26401153171E+04  0.26401153171E+04  0.00000000000E+00 0.  1.
    9000007    2    1    2  501    0  0.51277882169E+02  0.82241648967E+02 -0.17734614312E+04  0.18203781981E+04  0.39902158592E+03 0.  0.
    9000005    1    3    3    0    0  0.11661373776E+03 -0.12179332537E+03 -0.11218232830E+04  0.11344253418E+04  0.99999687468E+00 0.  0.
          4    1    3    3  501    0 -0.65335855594E+02  0.20403497434E+03 -0.65163814824E+03  0.68595285627E+03  0.00000000000E+00 0.  1.
   -9000007    1    1    2    0  502 -0.51277882169E+02 -0.82241648967E+02 -0.79297194528E+03  0.89341905958E+03  0.40000000000E+03 0.  1.
<mgrwt>
<rscale>  2 0.41133603E+03</rscale>
<asrwt>0</asrwt>
<pdfrwt beam="1">  1       21 0.11335683E-01 0.41157394E+03</pdfrwt>
<pdfrwt beam="2">  1       21 0.40617159E+00 0.41157394E+03</pdfrwt>
<totfact> 0.41014858E+02</totfact>
</mgrwt>
</event>
<event>
 6    1  0.9598567E-004  0.4085634E+03  0.7818608E-02  0.1040879E+00
         21   -1    0    0  503  502  0.00000000000E+00  0.00000000000E+00  0.39185570061E+03  0.39185570061E+03  0.00000000000E+00 0.  1.
         21   -1    0    0  501  503 -0.00000000000E+00 -0.00000000000E+00 -0.15090364896E+04  0.15090364896E+04  0.00000000000E+00 0.  1.
    9000007    2    1    2  501    0 -0.58698480112E+02  0.58979191007E+02 -0.13638459635E+04  0.14236419782E+04  0.39969565113E+03 0.  0.
    9000005    1    3    3    0    0 -0.16302247095E+03 -0.90598921627E+02 -0.38313630164E+03  0.42612077661E+03  0.99999687468E+00 0.  0.
          4    1    3    3  501    0  0.10432399083E+03  0.14957811263E+03 -0.98070966181E+03  0.99752120159E+03  0.00000000000E+00 0.  1.
   -9000007    1    1    2    0  502  0.58698480112E+02 -0.58979191007E+02  0.24666517449E+03  0.47725021199E+03  0.40000000000E+03 0.  1.
<mgrwt>
<rscale>  2 0.40848889E+03</rscale>
<asrwt>0</asrwt>
<pdfrwt beam="1">  1       21 0.60285493E-01 0.40856341E+03</pdfrwt>
<pdfrwt beam="2">  1       21 0.23215946E+00 0.40856341E+03</pdfrwt>
<totfact> 0.17816182E+02</totfact>
</mgrwt>
</event>
<event>
 6    1  0.9598567E-004  0.4241697E+03  0.7818608E-02  0.1035728E+00
         21   -1    0    0  503  502  0.00000000000E+00  0.00000000000E+00  0.64441917576E+03  0.64441917576E+03  0.00000000000E+00 0.  1.
         21   -1    0    0  501  503 -0.00000000000E+00 -0.00000000000E+00 -0.45513072264E+03  0.45513072264E+03  0.00000000000E+00 0.  1.
    9000007    2    1    2  501    0 -0.73801408715E+01 -0.14055631270E+03 -0.24724457160E+03  0.49096824800E+03  0.40013672519E+03 0.  0.
    9000005    1    3    3    0    0 -0.54299156733E+02  0.13218030322E+03 -0.51097978610E+02  0.15176308640E+03  0.99999687468E+00 0.  0.
          4    1    3    3  501    0  0.46919015862E+02 -0.27273661593E+03 -0.19614659299E+03  0.33920516160E+03  0.00000000000E+00 0.  1.
   -9000007    1    1    2    0  502  0.73801408715E+01  0.14055631270E+03  0.43653302472E+03  0.60858165039E+03  0.40000000000E+03 0.  1.
<mgrwt>
<rscale>  2 0.42413746E+03</rscale>
<asrwt>0</asrwt>
<pdfrwt beam="1">  1       21 0.99141412E-01 0.42416971E+03</pdfrwt>
<pdfrwt beam="2">  1       21 0.70020111E-01 0.42416971E+03</pdfrwt>
<totfact> 0.13411642E+03</totfact>
</mgrwt>
</event>
<event>
 6    1  0.9598567E-004  0.4033371E+03  0.7818608E-02  0.1042683E+00
         21   -1    0    0  503  502  0.00000000000E+00  0.00000000000E+00  0.24406558290E+03  0.24406558290E+03  0.00000000000E+00 0. -1.
         21   -1    0    0  501  503 -0.00000000000E+00 -0.00000000000E+00 -0.69919136207E+03  0.69919136207E+03  0.00000000000E+00 0. -1.
    9000007    2    1    2  501    0 -0.39909342744E+02 -0.24311034467E+02 -0.12424101293E+03  0.42203865042E+03  0.40062078219E+03 0.  0.
    9000005    1    3    3    0    0 -0.12164165785E+03 -0.15303180724E+03  0.38264158289E+02  0.19919983121E+03  0.99999687468E+00 0.  0.
          4    1    3    3  501    0  0.81732315103E+02  0.12872077277E+03 -0.16250517122E+03  0.22283881921E+03  0.00000000000E+00 0.  1.
   -9000007    1    1    2    0  502  0.39909342744E+02  0.24311034467E+02 -0.33088476624E+03  0.52121829454E+03  0.40000000000E+03 0. -1.
<mgrwt>
<rscale>  2 0.40318283E+03</rscale>
<asrwt>0</asrwt>
<pdfrwt beam="1">  1       21 0.37548552E-01 0.40333707E+03</pdfrwt>
<pdfrwt beam="2">  1       21 0.10756790E+00 0.40333707E+03</pdfrwt>
<totfact> 0.41925882E+03</totfact>
</mgrwt>
</event>
<event>
 6    1  0.9598567E-004  0.4067718E+03  0.7818608E-02  0.1041506E+00
         21   -1    0    0  503  502  0.00000000000E+00  0.00000000000E+00  0.77430233464E+02  0.77430233464E+02  0.00000000000E+00 0.  1.
         21   -1    0    0  501  503 -0.00000000000E+00 -0.00000000000E+00 -0.21343548301E+04  0.21343548301E+04  0.00000000000E+00 0.  1.
    9000007    2    1    2  501    0 -0.41942565970E+02 -0.60861488842E+02 -0.10399441449E+04  0.11164711639E+04  0.39945054207E+03 0.  0.
    9000005    1    3    3    0    0  0.13282147067E+03 -0.35078174960E+02 -0.83356732663E+03  0.84481211488E+03  0.99999687468E+00 0.  0.
          4    1    3    3  501    0 -0.17476403664E+03 -0.25783313882E+02 -0.20637681830E+03  0.27165904901E+03  0.00000000000E+00 0.  1.
   -9000007    1    1    2    0  502  0.41942565970E+02  0.60861488842E+02 -0.10169804517E+04  0.10953138996E+04  0.40000000000E+03 0.  1.
<mgrwt>
<rscale>  2 0.40663666E+03</rscale>
<asrwt>0</asrwt>
<pdfrwt beam="1">  1       21 0.11912345E-01 0.40677180E+03</pdfrwt>
<pdfrwt beam="2">  1       21 0.32836225E+00 0.40677180E+03</pdfrwt>
<totfact> 0.11441250E+03</totfact>
</mgrwt>
</event>
<event>
 6    1  0.9598567E-004  0.5847369E+03  0.7818608E-02  0.9937714E-01
         21   -1    0    0  503  502  0.00000000000E+00  0.00000000000E+00  0.16056094056E+04  0.16056094056E+04  0.00000000000E+00 0. -1.
         21   -1    0    0  501  503 -0.00000000000E+00 -0.00000000000E+00 -0.49757721477E+03  0.49757721477E+03  0.00000000000E+00 0. -1.
    9000007    2    1    2  501    0 -0.40775140108E+03  0.12512406370E+03 -0.24149437645E+03  0.63242518758E+03  0.39965591154E+03 0.  0.
    9000005    1    3    3    0    0 -0.40582709115E+03  0.22887369608E+03 -0.24919398884E+03  0.52837244509E+03  0.99999687468E+00 0.  0.
          4    1    3    3  501    0 -0.19243099374E+01 -0.10374963239E+03  0.76996123884E+01  0.10405274249E+03  0.00000000000E+00 0.  1.
   -9000007    1    1    2    0  502  0.40775140108E+03 -0.12512406370E+03  0.13495265673E+04  0.14707614328E+04  0.40000000000E+03 0. -1.
<mgrwt>
<rscale>  2 0.58467805E+03</rscale>
<asrwt>0</asrwt>
<pdfrwt beam="1">  1       21 0.24701683E+00 0.58473690E+03</pdfrwt>
<pdfrwt beam="2">  1       21 0.76550341E-01 0.58473690E+03</pdfrwt>
<totfact> 0.76596413E+01</totfact>
</mgrwt>
</event>
<event>
 6    1  0.9598567E-004  0.4040344E+03  0.7818608E-02  0.1042396E+00
         21   -1    0    0  503  502  0.00000000000E+00  0.00000000000E+00  0.19042785275E+04  0.19042785275E+04  0.00000000000E+00 0. -1.
         21   -1    0    0  501  503 -0.00000000000E+00 -0.00000000000E+00 -0.85960330312E+02  0.85960330312E+02  0.00000000000E+00 0. -1.
    9000007    2    1    2  501    0  0.55878215253E+02 -0.91373112083E+01  0.85602727411E+03  0.94658676730E+03  0.40004743295E+03 0.  0.
    9000005    1    3    3    0    0  0.18355291565E+03 -0.39805179905E+02  0.18788770243E+03  0.26566692287E+03  0.99999687468E+00 0.  0.
          4    1    3    3  501    0 -0.12767470039E+03  0.30667868697E+02  0.66813957168E+03  0.68091984443E+03  0.00000000000E+00 0.  1.
   -9000007    1    1    2    0  502 -0.55878215253E+02  0.91373112083E+01  0.96229092309E+03  0.10436520905E+04  0.40000000000E+03 0. -1.
<mgrwt>
<rscale>  2 0.40402268E+03</rscale>
<asrwt>0</asrwt>
<pdfrwt beam="1">  1       21 0.29296590E+00 0.40403442E+03</pdfrwt>
<pdfrwt beam="2">  1       21 0.13224668E-01 0.40403442E+03</pdfrwt>
<totfact> 0.15440956E+03</totfact>
</mgrwt>
</event>
<event>
 6    1  0.9598567E-004  0.4207220E+03  0.7818608E-02  0.1036901E+00
         21   -1    0    0  503  502  0.00000000000E+00  0.00000000000E+00  0.10786968960E+04  0.10786968960E+04  0.00000000000E+00 0. -1.
         21   -1    0    0  501  503 -0.00000000000E+00 -0.00000000000E+00 -0.20126192359E+03  0.20126192359E+03  0.00000000000E+00 0. -1.
    9000007    2    1    2  501    0  0.82156958024E+02  0.97671094534E+02  0.16282604229E+03  0.45113113456E+03  0.40089596165E+03 0.  0.
    9000005    1    3    3    0    0  0.16279436233E+03  0.10733643050E+03 -0.67937320735E+02  0.20649356712E+03  0.99999687468E+00 0.  0.
          4    1    3    3  501    0 -0.80637404302E+02 -0.96653359669E+01  0.23076336303E+03  0.24463756745E+03  0.00000000000E+00 0.  1.
   -9000007    1    1    2    0  502 -0.82156958024E+02 -0.97671094534E+02  0.71460893014E+03  0.82882768504E+03  0.40000000000E+03 0. -1.
<mgrwt>
<rscale>  2 0.42050840E+03</rscale>
<asrwt>0</asrwt>
<pdfrwt beam="1">  1       21 0.16595337E+00 0.42072198E+03</pdfrwt>
<pdfrwt beam="2">  1       21 0.30963374E-01 0.42072198E+03</pdfrwt>
<totfact> 0.19713020E+03</totfact>
</mgrwt>
</event>
<event>
 6    1  0.9598567E-004  0.4416147E+03  0.7818608E-02  0.1030351E+00
         21   -1    0    0  503  502  0.00000000000E+00  0.00000000000E+00  0.25729338446E+03  0.25729338446E+03  0.00000000000E+00 0.  1.
         21   -1    0    0  501  503 -0.00000000000E+00 -0.00000000000E+00 -0.12375530384E+04  0.12375530384E+04  0.00000000000E+00 0.  1.
    9000007    2    1    2  501    0  0.16857774895E+03 -0.73987264388E+02 -0.95690738729E+03  0.10538952906E+04  0.40141121419E+03 0.  0.
    9000005    1    3    3    0    0 -0.93464426873E+02 -0.11025007485E+02 -0.47558085256E+02  0.10545103768E+03  0.99999687468E+00 0.  0.
          4    1    3    3  501    0  0.26204217583E+03 -0.62962256903E+02 -0.90934930203E+03  0.94844425288E+03  0.00000000000E+00 0.  1.
   -9000007    1    1    2    0  502 -0.16857774895E+03  0.73987264388E+02 -0.23352266667E+02  0.44095113232E+03  0.40000000000E+03 0.  1.
<mgrwt>
<rscale>  2 0.44129375E+03</rscale>
<asrwt>0</asrwt>
<pdfrwt beam="1">  1       21 0.39583598E-01 0.44161469E+03</pdfrwt>
<pdfrwt beam="2">  1       21 0.19039278E+00 0.44161469E+03</pdfrwt>
<totfact> 0.79770900E+02</totfact>
</mgrwt>
</event>
<event>
 6    1  0.9598567E-004  0.4259513E+03  0.7818608E-02  0.1035239E+00
         21   -1    0    0  503  502  0.00000000000E+00  0.00000000000E+00  0.88456481775E+03  0.88456481775E+03  0.00000000000E+00 0.  1.
         21   -1    0    0  501  503 -0.00000000000E+00 -0.00000000000E+00 -0.26794932158E+03  0.26794932158E+03  0.00000000000E+00 0.  1.
    9000007    2    1    2  501    0 -0.12076257109E+03  0.82770378236E+02  0.27700012617E+02  0.42570193466E+03  0.39877351013E+03 0.  0.
    9000005    1    3    3    0    0  0.88473430420E+02 -0.56084297099E+02  0.11896466451E+03  0.15851368290E+03  0.99999687468E+00 0.  0.
          4    1    3    3  501    0 -0.20923600151E+03  0.13885467534E+03 -0.91264651895E+02  0.26718825176E+03  0.00000000000E+00 0.  1.
   -9000007    1    1    2    0  502  0.12076257109E+03 -0.82770378236E+02  0.58891548355E+03  0.72681220467E+03  0.40000000000E+03 0.  1.
<mgrwt>
<rscale>  2 0.42566315E+03</rscale>
<asrwt>0</asrwt>
<pdfrwt beam="1">  1       21 0.13608689E+00 0.42595133E+03</pdfrwt>
<pdfrwt beam="2">  1       21 0.41222973E-01 0.42595133E+03</pdfrwt>
<totfact> 0.18882702E+03</totfact>
</mgrwt>
</event>
<event>
 6    1  0.9598567E-004  0.4188711E+03  0.7818608E-02  0.1037459E+00
         21   -1    0    0  503  502  0.00000000000E+00  0.00000000000E+00  0.45251625645E+03  0.45251625645E+03  0.00000000000E+00 0. -1.
         21   -1    0    0  501  503 -0.00000000000E+00 -0.00000000000E+00 -0.39216759803E+03  0.39216759803E+03  0.00000000000E+00 0. -1.
    9000007    2    1    2  501    0  0.45137625147E+02 -0.11582565555E+03 -0.16163042945E+02  0.41888222445E+03  0.39968498385E+03 0.  0.
    9000005    1    3    3    0    0  0.11098607226E+02 -0.19349562094E+03  0.14142330149E+03  0.23992766536E+03  0.99999687468E+00 0.  0.
          4    1    3    3  501    0  0.34039017921E+02  0.77669965391E+02 -0.15758634444E+03  0.17895455909E+03  0.00000000000E+00 0.  1.
   -9000007    1    1    2    0  502 -0.45137625147E+02  0.11582565555E+03  0.76511701366E+02  0.42580163003E+03  0.40000000000E+03 0. -1.
<mgrwt>
<rscale>  2 0.41879586E+03</rscale>
<asrwt>0</asrwt>
<pdfrwt beam="1">  1       21 0.69617886E-01 0.41887109E+03</pdfrwt>
<pdfrwt beam="2">  1       21 0.60333477E-01 0.41887109E+03</pdfrwt>
<totfact> 0.42572982E+03</totfact>
</mgrwt>
</event>
<event>
 6    1  0.9598567E-004  0.4247144E+03  0.7818608E-02  0.1035584E+00
         21   -1    0    0  503  502  0.00000000000E+00  0.00000000000E+00  0.87932936406E+03  0.87932936406E+03  0.00000000000E+00 0. -1.
         21   -1    0    0  501  503 -0.00000000000E+00 -0.00000000000E+00 -0.37600148726E+03  0.37600148726E+03  0.00000000000E+00 0. -1.
    9000007    2    1    2  501    0 -0.11623934460E+03 -0.82889789039E+02 -0.17184178647E+03  0.45768658439E+03  0.39945601459E+03 0.  0.
    9000005    1    3    3    0    0 -0.17451173230E+03 -0.13031250704E+03  0.50002360637E+02  0.22346572503E+03  0.99999687468E+00 0.  0.
          4    1    3    3  501    0  0.58272387701E+02  0.47422717999E+02 -0.22184414711E+03  0.23422085935E+03  0.00000000000E+00 0.  1.
   -9000007    1    1    2    0  502  0.11623934460E+03  0.82889789039E+02  0.67516966327E+03  0.79764426693E+03  0.40000000000E+03 0. -1.
<mgrwt>
<rscale>  2 0.42458625E+03</rscale>
<asrwt>0</asrwt>
<pdfrwt beam="1">  1       21 0.13528144E+00 0.42471438E+03</pdfrwt>
<pdfrwt beam="2">  1       21 0.57846383E-01 0.42471438E+03</pdfrwt>
<totfact> 0.93620421E+02</totfact>
</mgrwt>
</event>
<event>
 6    1  0.9598567E-004  0.1044257E+04  0.7818608E-02  0.9261299E-01
         21   -1    0    0  503  502  0.00000000000E+00  0.00000000000E+00  0.13728674547E+04  0.13728674547E+04  0.00000000000E+00 0. -1.
         21   -1    0    0  501  503 -0.00000000000E+00 -0.00000000000E+00 -0.11961075645E+04  0.11961075645E+04  0.00000000000E+00 0.  1.
    9000007    2    1    2  501    0  0.76241661871E+03 -0.59088875608E+03  0.83287422834E+03  0.13357213359E+04  0.40005422674E+03 0.  0.
    9000005    1    3    3    0    0  0.59695754376E+03 -0.49949720558E+03  0.42654886388E+03  0.88758137695E+03  0.99999687468E+00 0.  0.
          4    1    3    3  501    0  0.16545907495E+03 -0.91391550500E+02  0.40632536446E+03  0.44813995893E+03  0.00000000000E+00 0.  1.
   -9000007    1    1    2    0  502 -0.76241661871E+03  0.59088875608E+03 -0.65611433813E+03  0.12332536832E+04  0.40000000000E+03 0.  1.
<mgrwt>
<rscale>  2 0.10442515E+04</rscale>
<asrwt>0</asrwt>
<pdfrwt beam="1">  1       21 0.21121038E+00 0.10442567E+04</pdfrwt>
<pdfrwt beam="2">  1       21 0.18401655E+00 0.10442567E+04</pdfrwt>
<totfact> 0.11300944E+01</totfact>
</mgrwt>
</event>
<event>
 6    1  0.9598567E-004  0.4080550E+03  0.7818608E-02  0.1041061E+00
         21   -1    0    0  503  502  0.00000000000E+00  0.00000000000E+00  0.11841366874E+03  0.11841366874E+03  0.00000000000E+00 0. -1.
         21   -1    0    0  501  503 -0.00000000000E+00 -0.00000000000E+00 -0.15633761398E+04  0.15633761398E+04  0.00000000000E+00 0. -1.
    9000007    2    1    2  501    0 -0.51349317128E+02  0.62226203658E+02 -0.99001683728E+03  0.10706561223E+04  0.39957770373E+03 0.  0.
    9000005    1    3    3    0    0  0.16117130785E+03  0.10053468755E+03 -0.51284283155E+03  0.54689321054E+03  0.99999687468E+00 0.  0.
          4    1    3    3  501    0 -0.21252062498E+03 -0.38308483893E+02 -0.47717400573E+03  0.52376291175E+03  0.00000000000E+00 0.  1.
   -9000007    1    1    2    0  502  0.51349317128E+02 -0.62226203658E+02 -0.45494563382E+03  0.61113368629E+03  0.40000000000E+03 0. -1.
<mgrwt>
<rscale>  2 0.40795144E+03</rscale>
<asrwt>0</asrwt>
<pdfrwt beam="1">  1       21 0.18217487E-01 0.40805496E+03</pdfrwt>
<pdfrwt beam="2">  1       21 0.24051941E+00 0.40805496E+03</pdfrwt>
<totfact> 0.17648500E+03</totfact>
</mgrwt>
</event>
<event>
 6    1  0.9598567E-004  0.4360747E+03  0.7818608E-02  0.1031976E+00
         21   -1    0    0  503  502  0.00000000000E+00  0.00000000000E+00  0.23372724493E+03  0.23372724493E+03  0.00000000000E+00 0.  1.
         21   -1    0    0  501  503 -0.00000000000E+00 -0.00000000000E+00 -0.19404643400E+04  0.19404643400E+04  0.00000000000E+00 0.  1.
    9000007    2    1    2  501    0  0.13535105221E+03 -0.10881745130E+03 -0.16818520658E+04  0.17374074166E+04  0.39974618842E+03 0.  0.
    9000005    1    3    3    0    0  0.25973490332E+03 -0.12324152314E+03 -0.87823362658E+03  0.92409198454E+03  0.99999687468E+00 0.  0.
          4    1    3    3  501    0 -0.12438385111E+03  0.14424071839E+02 -0.80361843918E+03  0.81331543208E+03  0.00000000000E+00 0.  1.
   -9000007    1    1    2    0  502 -0.13535105221E+03  0.10881745130E+03 -0.24885029342E+02  0.43678416836E+03  0.40000000000E+03 0.  1.
<mgrwt>
<rscale>  2 0.43601649E+03</rscale>
<asrwt>0</asrwt>
<pdfrwt beam="1">  1       21 0.35958038E-01 0.43607470E+03</pdfrwt>
<pdfrwt beam="2">  1       21 0.29853297E+00 0.43607470E+03</pdfrwt>
<totfact> 0.20528457E+02</totfact>
</mgrwt>
</event>
<event>
 6    1  0.9598567E-004  0.4221186E+03  0.7818608E-02  0.1036384E+00
         21   -1    0    0  503  502  0.00000000000E+00  0.00000000000E+00  0.15623885992E+04  0.15623885992E+04  0.00000000000E+00 0. -1.
         21   -1    0    0  501  503 -0.00000000000E+00 -0.00000000000E+00 -0.12441965647E+03  0.12441965647E+03  0.00000000000E+00 0.  1.
    9000007    2    1    2  501    0  0.69205157253E+02 -0.11549825394E+03  0.47529592791E+03  0.63568098749E+03  0.40006861701E+03 0.  0.
    9000005    1    3    3    0    0  0.16438728810E+03  0.56270926025E+02  0.73889921273E+02  0.18881291816E+03  0.99999687468E+00 0.  0.
          4    1    3    3  501    0 -0.95182130850E+02 -0.17176917996E+03  0.40140600664E+03  0.44686806933E+03  0.00000000000E+00 0.  1.
   -9000007    1    1    2    0  502 -0.69205157253E+02  0.11549825394E+03  0.96267301483E+03  0.10511272682E+04  0.40000000000E+03 0. -1.
<mgrwt>
<rscale>  2 0.42210232E+03</rscale>
<asrwt>0</asrwt>
<pdfrwt beam="1">  1       21 0.24036746E+00 0.42211858E+03</pdfrwt>
<pdfrwt beam="2">  1       21 0.19141487E-01 0.42211858E+03</pdfrwt>
<totfact> 0.15996323E+03</totfact>
</mgrwt>
</event>
<event>
 6    1  0.9598567E-004  0.4636883E+03  0.7818608E-02  0.1023885E+00
         21   -1    0    0  503  502  0.00000000000E+00  0.00000000000E+00  0.58877588188E+03  0.58877588188E+03  0.00000000000E+00 0.  1.
         21   -1    0    0  501  503 -0.00000000000E+00 -0.00000000000E+00 -0.39768275178E+03  0.39768275178E+03  0.00000000000E+00 0.  1.
    9000007    2    1    2  501    0  0.19406760217E+03  0.12320694017E+03  0.24071984212E+03  0.52244894102E+03  0.40269674603E+03 0.  0.
    9000005    1    3    3    0    0 -0.74314105112E+02  0.47264805917E+01  0.21549005909E+03  0.22799537583E+03  0.99999687468E+00 0.  0.
          4    1    3    3  501    0  0.26838170728E+03  0.11848045958E+03  0.25229783033E+02  0.29445356520E+03  0.00000000000E+00 0.  1.
   -9000007    1    1    2    0  502 -0.19406760217E+03 -0.12320694017E+03 -0.49626712025E+02  0.46400969264E+03  0.40000000000E+03 0.  1.
<mgrwt>
<rscale>  2 0.46310218E+03</rscale>
<asrwt>0</asrwt>
<pdfrwt beam="1">  1       21 0.90580905E-01 0.46368832E+03</pdfrwt>
<pdfrwt beam="2">  1       21 0.61181962E-01 0.46368832E+03</pdfrwt>
<totfact> 0.22134363E+03</totfact>
</mgrwt>
</event>
<event>
 6    1  0.9598567E-004  0.4145842E+03  0.7818608E-02  0.1038941E+00
         21   -1    0    0  503  502  0.00000000000E+00  0.00000000000E+00  0.95783670555E+02  0.95783670555E+02  0.00000000000E+00 0.  1.
         21   -1    0    0  501  503 -0.00000000000E+00 -0.00000000000E+00 -0.18881230535E+04  0.18881230535E+04  0.00000000000E+00 0.  1.
    9000007    2    1    2  501    0 -0.70297204077E+02 -0.77228005027E+02 -0.67052222343E+03  0.78834007973E+03  0.40121586151E+03 0.  0.
    9000005    1    3    3    0    0  0.53938236393E+02  0.96141254236E+02 -0.50897988389E+03  0.52078210061E+03  0.99999687468E+00 0.  0.
          4    1    3    3  501    0 -0.12423544047E+03 -0.17336925926E+03 -0.16154233954E+03  0.26755797912E+03  0.00000000000E+00 0.  1.
   -9000007    1    1    2    0  502  0.70297204077E+02  0.77228005027E+02 -0.11218171595E+04  0.11955666444E+04  0.40000000000E+03 0.  1.
<mgrwt>
<rscale>  2 0.41428972E+03</rscale>
<asrwt>0</asrwt>
<pdfrwt beam="1">  1       21 0.14735951E-01 0.41458416E+03</pdfrwt>
<pdfrwt beam="2">  1       21 0.29048044E+00 0.41458416E+03</pdfrwt>
<totfact> 0.13013970E+03</totfact>
</mgrwt>
</event>
<event>
 6    1  0.9598567E-004  0.5938127E+03  0.7818608E-02  0.9918396E-01
         21   -1    0    0  503  502  0.00000000000E+00  0.00000000000E+00  0.24092597625E+03  0.24092597625E+03  0.00000000000E+00 0. -1.
         21   -1    0    0  501  503 -0.00000000000E+00 -0.00000000000E+00 -0.14638093691E+04  0.14638093691E+04  0.00000000000E+00 0.  1.
    9000007    2    1    2  501    0 -0.43286932349E+03 -0.71277883137E+02 -0.62817249594E+03  0.86441550223E+03  0.40019631182E+03 0.  0.
    9000005    1    3    3    0    0 -0.32003183548E+03  0.32942355643E+02 -0.13681215739E+03  0.34960569349E+03  0.99999687468E+00 0.  0.
          4    1    3    3  501    0 -0.11283748801E+03 -0.10422023878E+03 -0.49136033855E+03  0.51480980874E+03  0.00000000000E+00 0.  1.
   -9000007    1    1    2    0  502  0.43286932349E+03  0.71277883137E+02 -0.59471089692E+03  0.84031984313E+03  0.40000000000E+03 0.  1.
<mgrwt>
<rscale>  2 0.59377959E+03</rscale>
<asrwt>0</asrwt>
<pdfrwt beam="1">  1       21 0.37065535E-01 0.59381266E+03</pdfrwt>
<pdfrwt beam="2">  1       21 0.22520144E+00 0.59381266E+03</pdfrwt>
<totfact> 0.50445328E+02</totfact>
</mgrwt>
</event>
<event>
 6    1  0.9598567E-004  0.4971093E+03  0.7818608E-02  0.1014537E+00
         21   -1    0    0  503  502  0.00000000000E+00  0.00000000000E+00  0.52533804214E+03  0.52533804214E+03  0.00000000000E+00 0. -1.
         21   -1    0    0  501  503 -0.00000000000E+00 -0.00000000000E+00 -0.58880348152E+03  0.58880348152E+03  0.00000000000E+00 0. -1.
    9000007    2    1    2  501    0  0.13889759299E+03 -0.26041799360E+03 -0.28155190615E+03  0.57130473445E+03  0.40000943866E+03 0.  0.
    9000005    1    3    3    0    0  0.47602927700E+02 -0.29795157966E+03 -0.34159106752E+03  0.45577038072E+03  0.99999687468E+00 0.  0.
          4    1    3    3  501    0  0.91294665290E+02  0.37533586057E+02  0.60039161363E+02  0.11553435372E+03  0.00000000000E+00 0.  1.
   -9000007    1    1    2    0  502 -0.13889759299E+03  0.26041799360E+03  0.21808646677E+03  0.54283678921E+03  0.40000000000E+03 0. -1.
<mgrwt>
<rscale>  2 0.49710737E+03</rscale>
<asrwt>0</asrwt>
<pdfrwt beam="1">  1       21 0.80821238E-01 0.49710927E+03</pdfrwt>
<pdfrwt beam="2">  1       21 0.90585151E-01 0.49710927E+03</pdfrwt>
<totfact> 0.11660240E+03</totfact>
</mgrwt>
</event>
<event>
 6    1  0.9598567E-004  0.4582180E+03  0.7818608E-02  0.1025315E+00
         21   -1    0    0  503  502  0.00000000000E+00  0.00000000000E+00  0.13859483556E+04  0.13859483556E+04  0.00000000000E+00 0. -1.
         21   -1    0    0  501  503 -0.00000000000E+00 -0.00000000000E+00 -0.23703280457E+03  0.23703280457E+03  0.00000000000E+00 0. -1.
    9000007    2    1    2  501    0 -0.89072084546E+02  0.20451773444E+03  0.86855524250E+02  0.46637714823E+03  0.40025294797E+03 0.  0.
    9000005    1    3    3    0    0 -0.96523902719E+02  0.29566414675E+03 -0.36133132336E+02  0.31311460317E+03  0.99999687468E+00 0.  0.
          4    1    3    3  501    0  0.74518181726E+01 -0.91146412311E+02  0.12298865659E+03  0.15326254507E+03  0.00000000000E+00 0.  1.
   -9000007    1    1    2    0  502  0.89072084546E+02 -0.20451773444E+03  0.10620600268E+04  0.11566040120E+04  0.40000000000E+03 0. -1.
<mgrwt>
<rscale>  2 0.45816279E+03</rscale>
<asrwt>0</asrwt>
<pdfrwt beam="1">  1       21 0.21322282E+00 0.45821803E+03</pdfrwt>
<pdfrwt beam="2">  1       21 0.36466586E-01 0.45821803E+03</pdfrwt>
<totfact> 0.65995759E+02</totfact>
</mgrwt>
</event>
<event>
 6    1  0.9598567E-004  0.4100211E+03  0.7818608E-02  0.1040450E+00
         21   -1    0    0  503  502  0.00000000000E+00  0.00000000000E+00  0.91480092206E+03  0.91480092206E+03  0.00000000000E+00 0.  1.
         21   -1    0    0  501  503 -0.00000000000E+00 -0.00000000000E+00 -0.52619070503E+03  0.52619070503E+03  0.00000000000E+00 0.  1.
    9000007    2    1    2  501    0 -0.81348047180E+02 -0.25677025271E+02 -0.38721497810E+03  0.56396166876E+03  0.40104926152E+03 0.  0.
    9000005    1    3    3    0    0 -0.68650245830E+02 -0.14023723317E+03  0.39260716844E+01  0.15619139494E+03  0.99999687468E+00 0.  0.
          4    1    3    3  501    0 -0.12697801350E+02  0.11456020790E+03 -0.39114104978E+03  0.40777027383E+03  0.00000000000E+00 0.  1.
   -9000007    1    1    2    0  502  0.81348047180E+02  0.25677025271E+02  0.77582519513E+03  0.87702995833E+03  0.40000000000E+03 0.  1.
<mgrwt>
<rscale>  2 0.40976432E+03</rscale>
<asrwt>0</asrwt>
<pdfrwt beam="1">  1       21 0.14073860E+00 0.41002113E+03</pdfrwt>
<pdfrwt beam="2">  1       21 0.80952416E-01 0.41002113E+03</pdfrwt>
<totfact> 0.40006377E+02</totfact>
</mgrwt>
</event>
<event>
 6    1  0.9598567E-004  0.4845176E+03  0.7818608E-02  0.1017926E+00
         21   -1    0    0  503  502  0.00000000000E+00  0.00000000000E+00  0.10132575906E+03  0.10132575906E+03  0.00000000000E+00 0.  1.
         21   -1    0    0  501  503 -0.00000000000E+00 -0.00000000000E+00 -0.23772883756E+04  0.23772883756E+04  0.00000000000E+00 0.  1.
    9000007    2    1    2  501    0 -0.97802617864E+02 -0.25532722650E+03 -0.93714069300E+03  0.10548158738E+04  0.39955788633E+03 0.  0.
    9000005    1    3    3    0    0 -0.14365142734E+03 -0.34892592527E+03 -0.77644247426E+03  0.86327802574E+03  0.99999687468E+00 0.  0.
          4    1    3    3  501    0  0.45848809472E+02  0.93598698765E+02 -0.16069821873E+03  0.19153784807E+03  0.00000000000E+00 0.  1.
   -9000007    1    1    2    0  502  0.97802617864E+02  0.25532722650E+03 -0.13388219236E+04  0.14237982609E+04  0.40000000000E+03 0. -1.
<mgrwt>
<rscale>  2 0.48442638E+03</rscale>
<asrwt>0</asrwt>
<pdfrwt beam="1">  1       21 0.15588579E-01 0.48451764E+03</pdfrwt>
<pdfrwt beam="2">  1       21 0.36573667E+00 0.48451764E+03</pdfrwt>
<totfact> 0.39304813E+02</totfact>
</mgrwt>
</event>
<event>
 6    1  0.9598567E-004  0.4364237E+03  0.7818608E-02  0.1032135E+00
         21   -1    0    0  503  502  0.00000000000E+00  0.00000000000E+00  0.11240200650E+04  0.11240200650E+04  0.00000000000E+00 0.  1.
         21   -1    0    0  501  503 -0.00000000000E+00 -0.00000000000E+00 -0.16866201344E+03  0.16866201344E+03  0.00000000000E+00 0. -1.
    9000007    2    1    2  501    0  0.15175230791E+03  0.86237442406E+02  0.51515823809E+03  0.67280988581E+03  0.39600438475E+03 0.  0.
    9000005    1    3    3    0    0  0.89126525850E+02  0.24129426348E+03  0.24595507366E+03  0.35589514952E+03  0.99999687468E+00 0.  0.
          4    1    3    3  501    0  0.62625782060E+02 -0.15505682107E+03  0.26920316444E+03  0.31691473630E+03  0.00000000000E+00 0.  1.
   -9000007    1    1    2    0  502 -0.15175230791E+03 -0.86237442406E+02  0.44019981350E+03  0.61987219266E+03  0.40000000000E+03 0. -1.
<mgrwt>
<rscale>  2 0.43550603E+03</rscale>
<asrwt>0</asrwt>
<pdfrwt beam="1">  1       21 0.17292616E+00 0.43642372E+03</pdfrwt>
<pdfrwt beam="2">  1       21 0.25948003E-01 0.43642372E+03</pdfrwt>
<totfact> 0.24687785E+03</totfact>
</mgrwt>
</event>
<event>
 6    1  0.9598567E-004  0.4400912E+03  0.7818608E-02  0.1030780E+00
         21   -1    0    0  503  502  0.00000000000E+00  0.00000000000E+00  0.10538749675E+04  0.10538749675E+04  0.00000000000E+00 0. -1.
         21   -1    0    0  501  503 -0.00000000000E+00 -0.00000000000E+00 -0.18625653013E+03  0.18625653013E+03  0.00000000000E+00 0. -1.
    9000007    2    1    2  501    0  0.24745113551E+02 -0.17991778495E+03  0.35805421284E+03  0.56734740976E+03  0.40087096932E+03 0.  0.
    9000005    1    3    3    0    0 -0.12391713413E+03 -0.19289979224E+03  0.64715968522E+02  0.23823295858E+03  0.99999687468E+00 0.  0.
          4    1    3    3  501    0  0.14866224768E+03  0.12982007294E+02  0.29333824432E+03  0.32911445119E+03  0.00000000000E+00 0.  1.
   -9000007    1    1    2    0  502 -0.24745113551E+02  0.17991778495E+03  0.50956422456E+03  0.67278408791E+03  0.40000000000E+03 0. -1.
<mgrwt>
<rscale>  2 0.43989276E+03</rscale>
<asrwt>0</asrwt>
<pdfrwt beam="1">  1       21 0.16213461E+00 0.44009120E+03</pdfrwt>
<pdfrwt beam="2">  1       21 0.28654851E-01 0.44009120E+03</pdfrwt>
<totfact> 0.24342541E+03</totfact>
</mgrwt>
</event>
<event>
 6    1  0.9598567E-004  0.4087359E+03  0.7818608E-02  0.1040833E+00
         21   -1    0    0  503  502  0.00000000000E+00  0.00000000000E+00  0.10080599966E+03  0.10080599966E+03  0.00000000000E+00 0. -1.
         21   -1    0    0  501  503 -0.00000000000E+00 -0.00000000000E+00 -0.18921848818E+04  0.18921848818E+04  0.00000000000E+00 0. -1.
    9000007    2    1    2  501    0  0.42033042497E+01 -0.83948418400E+02 -0.12476979116E+04  0.13128041406E+04  0.39954928133E+03 0.  0.
    9000005    1    3    3    0    0  0.18975477718E+03 -0.54543757501E+02 -0.85473347936E+03  0.87724125398E+03  0.99999687468E+00 0.  0.
          4    1    3    3  501    0 -0.18555147293E+03 -0.29404660899E+02 -0.39296443228E+03  0.43556288665E+03  0.00000000000E+00 0.  1.
   -9000007    1    1    2    0  502 -0.42033042497E+01  0.83948418400E+02 -0.54368097049E+03  0.68018674083E+03  0.40000000000E+03 0. -1.
<mgrwt>
<rscale>  2 0.40862555E+03</rscale>
<asrwt>0</asrwt>
<pdfrwt beam="1">  1       21 0.15508615E-01 0.40873586E+03</pdfrwt>
<pdfrwt beam="2">  1       21 0.29110537E+00 0.40873586E+03</pdfrwt>
<totfact> 0.11775383E+03</totfact>
</mgrwt>
</event>
<event>
 6    1  0.9598567E-004  0.5121471E+03  0.7818608E-02  0.1010725E+00
         21   -1    0    0  503  502  0.00000000000E+00  0.00000000000E+00  0.16434812523E+03  0.16434812523E+03  0.00000000000E+00 0.  1.
         21   -1    0    0  501  503 -0.00000000000E+00 -0.00000000000E+00 -0.16592479568E+04  0.16592479568E+04  0.00000000000E+00 0. -1.
    9000007    2    1    2  501    0 -0.27585503936E+03  0.15840604216E+03 -0.56547040909E+03  0.76292293336E+03  0.40138029566E+03 0.  0.
    9000005    1    3    3    0    0 -0.42311552600E+02  0.20540212835E+03 -0.45360839719E+03  0.49974181315E+03  0.99999687468E+00 0.  0.
          4    1    3    3  501    0 -0.23354348676E+03 -0.46996086185E+02 -0.11186201190E+03  0.26318112021E+03  0.00000000000E+00 0.  1.
   -9000007    1    1    2    0  502  0.27585503936E+03 -0.15840604216E+03 -0.92942942248E+03  0.10606731487E+04  0.40000000000E+03 0. -1.
<mgrwt>
<rscale>  2 0.51187659E+03</rscale>
<asrwt>0</asrwt>
<pdfrwt beam="1">  1       21 0.25284326E-01 0.51214707E+03</pdfrwt>
<pdfrwt beam="2">  1       21 0.25526893E+00 0.51214707E+03</pdfrwt>
<totfact> 0.72642456E+02</totfact>
</mgrwt>
</event>
<event>
 6    1  0.9598567E-004  0.4252917E+03  0.7818608E-02  0.1035540E+00
         21   -1    0    0  503  502  0.00000000000E+00  0.00000000000E+00  0.21417216212E+04  0.21417216212E+04  0.00000000000E+00 0.  1.
         21   -1    0    0  501  503 -0.00000000000E+00 -0.00000000000E+00 -0.10506573533E+03  0.10506573533E+03  0.00000000000E+00 0.  1.
    9000007    2    1    2  501    0 -0.12135161751E+03 -0.64936631004E+02  0.51749940600E+03  0.66983479177E+03  0.40240530805E+03 0.  0.
    9000005    1    3    3    0    0 -0.11514587191E+03 -0.16919362678E+03  0.52662482442E+03  0.56499536356E+03  0.99999687468E+00 0.  0.
          4    1    3    3  501    0 -0.62057456042E+01  0.10425699577E+03 -0.91254184242E+01  0.10483942821E+03  0.00000000000E+00 0.  1.
   -9000007    1    1    2    0  502  0.12135161751E+03  0.64936631004E+02  0.15191564799E+04  0.15769525647E+04  0.40000000000E+03 0.  1.
<mgrwt>
<rscale>  2 0.42472175E+03</rscale>
<asrwt>0</asrwt>
<pdfrwt beam="1">  1       21 0.32949560E+00 0.42529168E+03</pdfrwt>
<pdfrwt beam="2">  1       21 0.16163961E-01 0.42529168E+03</pdfrwt>
<totfact> 0.63495582E+02</totfact>
</mgrwt>
</event>
<event>
 6    1  0.9598567E-004  0.4562298E+03  0.7818608E-02  0.1026255E+00
         21   -1    0    0  503  502  0.00000000000E+00  0.00000000000E+00  0.14558348051E+03  0.14558348051E+03  0.00000000000E+00 0. -1.
         21   -1    0    0  501  503 -0.00000000000E+00 -0.00000000000E+00 -0.18623508842E+04  0.18623508842E+04  0.00000000000E+00 0.  1.
    9000007    2    1    2  501    0  0.18117773640E+03 -0.12377490498E+03 -0.13474141502E+04  0.14209357062E+04  0.39419257931E+03 0.  0.
    9000005    1    3    3    0    0  0.23499492300E+03  0.96288135937E+00 -0.40072157018E+03  0.46454528065E+03  0.99999687468E+00 0.  0.
          4    1    3    3  501    0 -0.53817186602E+02 -0.12473778634E+03 -0.94669258004E+03  0.95639042552E+03  0.00000000000E+00 0.  1.
   -9000007    1    1    2    0  502 -0.18117773640E+03  0.12377490498E+03 -0.36935325344E+03  0.58699865851E+03  0.40000000000E+03 0. -1.
<mgrwt>
<rscale>  2 0.45495367E+03</rscale>
<asrwt>0</asrwt>
<pdfrwt beam="1">  1       21 0.22397458E-01 0.45622977E+03</pdfrwt>
<pdfrwt beam="2">  1       21 0.28651553E+00 0.45622977E+03</pdfrwt>
<totfact> 0.61019478E+02</totfact>
</mgrwt>
</event>
<event>
 6    1  0.9598567E-004  0.4492310E+03  0.7818608E-02  0.1027961E+00
         21   -1    0    0  503  502  0.00000000000E+00  0.00000000000E+00  0.39336467161E+03  0.39336467161E+03  0.00000000000E+00 0.  1.
         21   -1    0    0  501  503 -0.00000000000E+00 -0.00000000000E+00 -0.55402693674E+03  0.55402693674E+03  0.00000000000E+00 0. -1.
    9000007    2    1    2  501    0  0.18115125012E+03 -0.94224901151E+02  0.48741720871E+02  0.45186750523E+03  0.40014294885E+03 0.  0.
    9000005    1    3    3    0    0  0.26264190966E+03 -0.56926490813E+02 -0.92821260550E+02  0.28432056639E+03  0.99999687468E+00 0.  0.
          4    1    3    3  501    0 -0.81490659545E+02 -0.37298410338E+02  0.14156298142E+03  0.16754693884E+03  0.00000000000E+00 0.  1.
   -9000007    1    1    2    0  502 -0.18115125012E+03  0.94224901151E+02 -0.20940398600E+03  0.49552410312E+03  0.40000000000E+03 0. -1.
<mgrwt>
<rscale>  2 0.44919916E+03</rscale>
<asrwt>0</asrwt>
<pdfrwt beam="1">  1       21 0.60517642E-01 0.44923100E+03</pdfrwt>
<pdfrwt beam="2">  1       21 0.85234913E-01 0.44923100E+03</pdfrwt>
<totfact> 0.26304678E+03</totfact>
</mgrwt>
</event>
<event>
 6    1  0.9598567E-004  0.4423299E+03  0.7818608E-02  0.1030052E+00
         21   -1    0    0  503  502  0.00000000000E+00  0.00000000000E+00  0.44199620945E+03  0.44199620945E+03  0.00000000000E+00 0.  1.
         21   -1    0    0  501  503 -0.00000000000E+00 -0.00000000000E+00 -0.52132406701E+03  0.52132406701E+03  0.00000000000E+00 0.  1.
    9000007    2    1    2  501    0 -0.12926266376E+03  0.13689748210E+03 -0.22704568637E+03  0.49719763831E+03  0.40025740592E+03 0.  0.
    9000005    1    3    3    0    0 -0.37012982265E+02 -0.44836141790E+02  0.97759201847E+02  0.11374577797E+03  0.99999687468E+00 0.  0.
          4    1    3    3  501    0 -0.92249681495E+02  0.18173362389E+03 -0.32480488822E+03  0.38345186034E+03  0.00000000000E+00 0.  1.
   -9000007    1    1    2    0  502  0.12926266376E+03 -0.13689748210E+03  0.14771782881E+03  0.46612263815E+03  0.40000000000E+03 0.  1.
<mgrwt>
<rscale>  2 0.44227167E+03</rscale>
<asrwt>0</asrwt>
<pdfrwt beam="1">  1       21 0.67999417E-01 0.44232991E+03</pdfrwt>
<pdfrwt beam="2">  1       21 0.80203702E-01 0.44232991E+03</pdfrwt>
<totfact> 0.23461861E+03</totfact>
</mgrwt>
</event>
<event>
 6    1  0.9598567E-004  0.4968275E+03  0.7818608E-02  0.1014638E+00
         21   -1    0    0  503  502  0.00000000000E+00  0.00000000000E+00  0.45421067019E+03  0.45421067019E+03  0.00000000000E+00 0.  1.
         21   -1    0    0  501  503 -0.00000000000E+00 -0.00000000000E+00 -0.55765537608E+03  0.55765537608E+03  0.00000000000E+00 0.  1.
    9000007    2    1    2  501    0 -0.16594828922E+03 -0.24264895688E+03 -0.13381699363E+03  0.51453333386E+03  0.40052492169E+03 0.  0.
    9000005    1    3    3    0    0  0.11475254762E+03 -0.14281444575E+03 -0.11436436648E+03  0.21597296455E+03  0.99999687468E+00 0.  0.
          4    1    3    3  501    0 -0.28070083684E+03 -0.99834511129E+02 -0.19452627145E+02  0.29856036931E+03  0.00000000000E+00 0.  1.
   -9000007    1    1    2    0  502  0.16594828922E+03  0.24264895688E+03  0.30372287734E+02  0.49733271241E+03  0.40000000000E+03 0.  1.
<mgrwt>
<rscale>  2 0.49672170E+03</rscale>
<asrwt>0</asrwt>
<pdfrwt beam="1">  1       21 0.69878564E-01 0.49682750E+03</pdfrwt>
<pdfrwt beam="2">  1       21 0.85793135E-01 0.49682750E+03</pdfrwt>
<totfact> 0.18496759E+03</totfact>
</mgrwt>
</event>
<event>
 6    1  0.9598567E-004  0.5527262E+03  0.7818608E-02  0.1000874E+00
         21   -1    0    0  503  502  0.00000000000E+00  0.00000000000E+00  0.95192475839E+03  0.95192475839E+03  0.00000000000E+00 0.  1.
         21   -1    0    0  501  503 -0.00000000000E+00 -0.00000000000E+00 -0.54386777517E+03  0.54386777517E+03  0.00000000000E+00 0. -1.
    9000007    2    1    2  501    0  0.38092359524E+03 -0.15282486309E+02 -0.27488060409E+03  0.61730514722E+03  0.40021239171E+03 0.  0.
    9000005    1    3    3    0    0  0.14829075762E+03 -0.94455799454E+02 -0.32220362766E+03  0.36705343551E+03  0.99999687468E+00 0.  0.
          4    1    3    3  501    0  0.23263283762E+03  0.79173313145E+02  0.47323023571E+02  0.25025171171E+03  0.00000000000E+00 0.  1.
   -9000007    1    1    2    0  502 -0.38092359524E+03  0.15282486309E+02  0.68293758731E+03  0.87848738635E+03  0.40000000000E+03 0.  1.
<mgrwt>
<rscale>  2 0.55268780E+03</rscale>
<asrwt>0</asrwt>
<pdfrwt beam="1">  1       21 0.14644996E+00 0.55272624E+03</pdfrwt>
<pdfrwt beam="2">  1       21 0.83671965E-01 0.55272624E+03</pdfrwt>
<totfact> 0.31229047E+02</totfact>
</mgrwt>
</event>
<event>
 6    1  0.9598567E-004  0.4091125E+03  0.7818608E-02  0.1040704E+00
         21   -1    0    0  503  502  0.00000000000E+00  0.00000000000E+00  0.21340761856E+03  0.21340761856E+03  0.00000000000E+00 0. -1.
         21   -1    0    0  501  503 -0.00000000000E+00 -0.00000000000E+00 -0.80622926314E+03  0.80622926314E+03  0.00000000000E+00 0. -1.
    9000007    2    1    2  501    0 -0.35845334851E+02  0.75810466214E+02 -0.38217941049E+03  0.55985186063E+03  0.40042588481E+03 0.  0.
    9000005    1    3    3    0    0 -0.86043365308E+02 -0.82486826062E+02  0.23504049509E+02  0.12149476336E+03  0.99999687468E+00 0.  0.
          4    1    3    3  501    0  0.50198030457E+02  0.15829729228E+03 -0.40568346000E+03  0.43835709727E+03  0.00000000000E+00 0.  1.
   -9000007    1    1    2    0  502  0.35845334851E+02 -0.75810466214E+02 -0.21064223409E+03  0.45978502107E+03  0.40000000000E+03 0.  1.
<mgrwt>
<rscale>  2 0.40900821E+03</rscale>
<asrwt>0</asrwt>
<pdfrwt beam="1">  1       21 0.32831941E-01 0.40911246E+03</pdfrwt>
<pdfrwt beam="2">  1       21 0.12403527E+00 0.40911246E+03</pdfrwt>
<totfact> 0.38395364E+03</totfact>
</mgrwt>
</event>
<event>
 6    1  0.9598567E-004  0.5297870E+03  0.7818608E-02  0.1006286E+00
         21   -1    0    0  503  502  0.00000000000E+00  0.00000000000E+00  0.75311805859E+03  0.75311805859E+03  0.00000000000E+00 0.  1.
         21   -1    0    0  501  503 -0.00000000000E+00 -0.00000000000E+00 -0.39077200279E+03  0.39077200279E+03  0.00000000000E+00 0.  1.
    9000007    2    1    2  501    0 -0.20429065529E+03 -0.28089845445E+03  0.58042781434E+02  0.53295708932E+03  0.40004459880E+03 0.  0.
    9000005    1    3    3    0    0 -0.19595186734E+03 -0.33635700435E+03  0.15657463940E+03  0.41958287190E+03  0.99999687468E+00 0.  0.
          4    1    3    3  501    0 -0.83387879525E+01  0.55458549901E+02 -0.98531857969E+02  0.11337421742E+03  0.00000000000E+00 0.  1.
   -9000007    1    1    2    0  502  0.20429065529E+03  0.28089845445E+03  0.30430327437E+03  0.61093297206E+03  0.40000000000E+03 0. -1.
<mgrwt>
<rscale>  2 0.52977861E+03</rscale>
<asrwt>0</asrwt>
<pdfrwt beam="1">  1       21 0.11586432E+00 0.52978703E+03</pdfrwt>
<pdfrwt beam="2">  1       21 0.60118770E-01 0.52978703E+03</pdfrwt>
<totfact> 0.12303595E+03</totfact>
</mgrwt>
</event>
<event>
 6    1  0.9598567E-004  0.4523783E+03  0.7818608E-02  0.1027079E+00
         21   -1    0    0  503  502  0.00000000000E+00  0.00000000000E+00  0.27702941156E+03  0.27702941156E+03  0.00000000000E+00 0.  1.
         21   -1    0    0  501  503 -0.00000000000E+00 -0.00000000000E+00 -0.11641286104E+04  0.11641286104E+04  0.00000000000E+00 0.  1.
    9000007    2    1    2  501    0  0.20854543928E+03  0.33984845532E+02 -0.87960046116E+03  0.98871752749E+03  0.39902281628E+03 0.  0.
    9000005    1    3    3    0    0 -0.70928660297E+02 -0.24788477331E+01 -0.65258785485E+01  0.71278374155E+02  0.99999687468E+00 0.  0.
          4    1    3    3  501    0  0.27947409958E+03  0.36463693265E+02 -0.87307458261E+03  0.91743915333E+03  0.00000000000E+00 0.  1.
   -9000007    1    1    2    0  502 -0.20854543928E+03 -0.33984845532E+02 -0.74987376719E+01  0.45244049447E+03  0.40000000000E+03 0.  1.
<mgrwt>
<rscale>  2 0.45216224E+03</rscale>
<asrwt>0</asrwt>
<pdfrwt beam="1">  1       21 0.42619910E-01 0.45237835E+03</pdfrwt>
<pdfrwt beam="2">  1       21 0.17909671E+00 0.45237835E+03</pdfrwt>
<totfact> 0.81611083E+02</totfact>
</mgrwt>
</event>
<event>
 6    1  0.9598567E-004  0.4870987E+03  0.7818608E-02  0.1017238E+00
         21   -1    0    0  503  502  0.00000000000E+00  0.00000000000E+00  0.46987076691E+03  0.46987076691E+03  0.00000000000E+00 0. -1.
         21   -1    0    0  501  503 -0.00000000000E+00 -0.00000000000E+00 -0.55198562913E+03  0.55198562913E+03  0.00000000000E+00 0. -1.
    9000007    2    1    2  501    0 -0.21391282820E+03 -0.17750057941E+03 -0.19103590134E+03  0.52272820957E+03  0.39935562062E+03 0.  0.
    9000005    1    3    3    0    0 -0.26119249318E+03 -0.27394922672E+03 -0.15983617010E+03  0.41087504011E+03  0.99999687468E+00 0.  0.
          4    1    3    3  501    0  0.47279664978E+02  0.96448647318E+02 -0.31199731239E+02  0.11185316946E+03  0.00000000000E+00 0.  1.
   -9000007    1    1    2    0  502  0.21391282820E+03  0.17750057941E+03  0.10892103912E+03  0.49912818646E+03  0.40000000000E+03 0. -1.
<mgrwt>
<rscale>  2 0.48696640E+03</rscale>
<asrwt>0</asrwt>
<pdfrwt beam="1">  1       21 0.72287810E-01 0.48709871E+03</pdfrwt>
<pdfrwt beam="2">  1       21 0.84920866E-01 0.48709871E+03</pdfrwt>
<totfact> 0.17606293E+03</totfact>
</mgrwt>
</event>
<event>
 6    1  0.9598567E-004  0.4372577E+03  0.7818608E-02  0.1031669E+00
         21   -1    0    0  503  502  0.00000000000E+00  0.00000000000E+00  0.93610086013E+03  0.93610086013E+03  0.00000000000E+00 0.  1.
         21   -1    0    0  501  503 -0.00000000000E+00 -0.00000000000E+00 -0.27457444354E+03  0.27457444354E+03  0.00000000000E+00 0.  1.
    9000007    2    1    2  501    0 -0.13004295170E+03  0.11580768811E+03  0.23668666079E+02  0.43789778083E+03  0.40108810851E+03 0.  0.
    9000005    1    3    3    0    0 -0.15752189114E+03 -0.50566918320E+02  0.15303048763E+03  0.22536523590E+03  0.99999687468E+00 0.  0.
          4    1    3    3  501    0  0.27478939443E+02  0.16637460643E+03 -0.12936182155E+03  0.21253254492E+03  0.00000000000E+00 0.  1.
   -9000007    1    1    2    0  502  0.13004295170E+03 -0.11580768811E+03  0.63785775052E+03  0.77277752284E+03  0.40000000000E+03 0.  1.
<mgrwt>
<rscale>  2 0.43700797E+03</rscale>
<asrwt>0</asrwt>
<pdfrwt beam="1">  1       21 0.14401552E+00 0.43725766E+03</pdfrwt>
<pdfrwt beam="2">  1       21 0.42242222E-01 0.43725766E+03</pdfrwt>
<totfact> 0.15371412E+03</totfact>
</mgrwt>
</event>
<event>
 6    1  0.9598567E-004  0.5223409E+03  0.7818608E-02  0.1008114E+00
         21   -1    0    0  503  502  0.00000000000E+00  0.00000000000E+00  0.12184501938E+04  0.12184501938E+04  0.00000000000E+00 0. -1.
         21   -1    0    0  501  503 -0.00000000000E+00 -0.00000000000E+00 -0.39234539516E+03  0.39234539516E+03  0.00000000000E+00 0. -1.
    9000007    2    1    2  501    0  0.28547365596E+03  0.17667254964E+03 -0.11468914119E+03  0.53478367673E+03  0.40016444588E+03 0.  0.
    9000005    1    3    3    0    0 -0.60145374864E+02  0.64563786966E+02 -0.14546246644E+03  0.17013605685E+03  0.99999687468E+00 0.  0.
          4    1    3    3  501    0  0.34561903082E+03  0.11210876267E+03  0.30773325251E+02  0.36464761987E+03  0.00000000000E+00 0.  1.
   -9000007    1    1    2    0  502 -0.28547365596E+03 -0.17667254964E+03  0.94079393987E+03  0.10760119123E+04  0.40000000000E+03 0. -1.
<mgrwt>
<rscale>  2 0.52230937E+03</rscale>
<asrwt>0</asrwt>
<pdfrwt beam="1">  1       21 0.18745387E+00 0.52234087E+03</pdfrwt>
<pdfrwt beam="2">  1       21 0.60360831E-01 0.52234087E+03</pdfrwt>
<totfact> 0.32875469E+02</totfact>
</mgrwt>
</event>
<event>
 6    1  0.9598567E-004  0.4025907E+03  0.7818608E-02  0.1042937E+00
         21   -1    0    0  503  502  0.00000000000E+00  0.00000000000E+00  0.29529221960E+03  0.29529221960E+03  0.00000000000E+00 0. -1.
         21   -1    0    0  501  503 -0.00000000000E+00 -0.00000000000E+00 -0.55130726861E+03  0.55130726861E+03  0.00000000000E+00 0. -1.
    9000007    2    1    2  501    0 -0.38122729683E+02  0.25019307381E+02 -0.16034234864E+03  0.43279690985E+03  0.39940479235E+03 0.  0.
    9000005    1    3    3    0    0 -0.31357563418E+01 -0.44241962260E+02 -0.28365385267E+03  0.28710223322E+03  0.99999687468E+00 0.  0.
          4    1    3    3  501    0 -0.34986973341E+02  0.69261269641E+02  0.12331150402E+03  0.14569467664E+03  0.00000000000E+00 0.  1.
   -9000007    1    1    2    0  502  0.38122729683E+02 -0.25019307381E+02 -0.95672700367E+02  0.41380257836E+03  0.40000000000E+03 0. -1.
<mgrwt>
<rscale>  2 0.40244282E+03</rscale>
<asrwt>0</asrwt>
<pdfrwt beam="1">  1       21 0.45429573E-01 0.40259075E+03</pdfrwt>
<pdfrwt beam="2">  1       21 0.84816502E-01 0.40259075E+03</pdfrwt>
<totfact> 0.50016718E+03</totfact>
</mgrwt>
</event>
<event>
 6    1  0.9598567E-004  0.4823497E+03  0.7818608E-02  0.1018564E+00
         21   -1    0    0  503  502  0.00000000000E+00  0.00000000000E+00  0.10653739416E+04  0.10653739416E+04  0.00000000000E+00 0. -1.
         21   -1    0    0  501  503 -0.00000000000E+00 -0.00000000000E+00 -0.12840954723E+04  0.12840954723E+04  0.00000000000E+00 0. -1.
    9000007    2    1    2  501    0 -0.19696135526E+03  0.18403114966E+03 -0.11797701828E+04  0.12741667815E+04  0.39872554873E+03 0.  0.
    9000005    1    3    3    0    0 -0.13871926018E+03  0.76330021300E+02 -0.11315485243E+04  0.11425726971E+04  0.99999687468E+00 0.  0.
          4    1    3    3  501    0 -0.58242095087E+02  0.10770112836E+03 -0.48221658504E+02  0.13159408436E+03  0.00000000000E+00 0.  1.
   -9000007    1    1    2    0  502  0.19696135526E+03 -0.18403114966E+03  0.96104865216E+03  0.10753026324E+04  0.40000000000E+03 0. -1.
<mgrwt>
<rscale>  2 0.48208540E+03</rscale>
<asrwt>0</asrwt>
<pdfrwt beam="1">  1       21 0.16390369E+00 0.48234971E+03</pdfrwt>
<pdfrwt beam="2">  1       21 0.19755315E+00 0.48234971E+03</pdfrwt>
<totfact> 0.24656240E+01</totfact>
</mgrwt>
</event>
<event>
 6    1  0.9598567E-004  0.4833532E+03  0.7818608E-02  0.1018245E+00
         21   -1    0    0  503  502  0.00000000000E+00  0.00000000000E+00  0.45198107623E+03  0.45198107623E+03  0.00000000000E+00 0.  1.
         21   -1    0    0  501  503 -0.00000000000E+00 -0.00000000000E+00 -0.92208915629E+03  0.92208915629E+03  0.00000000000E+00 0. -1.
    9000007    2    1    2  501    0  0.58027993155E+02  0.26507179257E+03 -0.69066576939E+03  0.84277370747E+03  0.39952223192E+03 0.  0.
    9000005    1    3    3    0    0  0.21319328142E+03  0.56282606689E+02 -0.35829036205E+03  0.42070427926E+03  0.99999687468E+00 0.  0.
          4    1    3    3  501    0 -0.15516528827E+03  0.20878918588E+03 -0.33237540734E+03  0.42206942821E+03  0.00000000000E+00 0.  1.
   -9000007    1    1    2    0  502 -0.58027993155E+02 -0.26507179257E+03  0.22055768932E+03  0.53129652505E+03  0.40000000000E+03 0.  1.
<mgrwt>
<rscale>  2 0.48325433E+03</rscale>
<asrwt>0</asrwt>
<pdfrwt beam="1">  1       21 0.69535550E-01 0.48335319E+03</pdfrwt>
<pdfrwt beam="2">  1       21 0.14185987E+00 0.48335319E+03</pdfrwt>
<totfact> 0.53531626E+02</totfact>
</mgrwt>
</event>
<event>
 6    1  0.9598567E-004  0.4800617E+03  0.7818608E-02  0.1019132E+00
         21   -1    0    0  503  502  0.00000000000E+00  0.00000000000E+00  0.25505124206E+03  0.25505124206E+03  0.00000000000E+00 0. -1.
         21   -1    0    0  501  503 -0.00000000000E+00 -0.00000000000E+00 -0.95877112183E+03  0.95877112183E+03  0.00000000000E+00 0. -1.
    9000007    2    1    2  501    0 -0.20330844632E+03  0.17066030016E+03 -0.49791436221E+03  0.69150524426E+03  0.39975183346E+03 0.  0.
    9000005    1    3    3    0    0 -0.10121161227E+03  0.14470699831E+03 -0.54735465036E+03  0.57513652212E+03  0.99999687468E+00 0.  0.
          4    1    3    3  501    0 -0.10209683404E+03  0.25953301859E+02  0.49440288152E+02  0.11636872214E+03  0.00000000000E+00 0.  1.
   -9000007    1    1    2    0  502  0.20330844632E+03 -0.17066030016E+03 -0.20580551757E+03  0.52231711963E+03  0.40000000000E+03 0. -1.
<mgrwt>
<rscale>  2 0.48001003E+03</rscale>
<asrwt>0</asrwt>
<pdfrwt beam="1">  1       21 0.39238652E-01 0.48006173E+03</pdfrwt>
<pdfrwt beam="2">  1       21 0.14750325E+00 0.48006173E+03</pdfrwt>
<totfact> 0.16500621E+03</totfact>
</mgrwt>
</event>
<event>
 6    1  0.9598567E-004  0.4353884E+03  0.7818608E-02  0.1032276E+00
         21   -1    0    0  503  502  0.00000000000E+00  0.00000000000E+00  0.52280648600E+03  0.52280648600E+03  0.00000000000E+00 0.  1.
         21   -1    0    0  501  503 -0.00000000000E+00 -0.00000000000E+00 -0.49155728706E+03  0.49155728706E+03  0.00000000000E+00 0.  1.
    9000007    2    1    2  501    0 -0.15598392459E+03 -0.72332872213E+02 -0.24531134161E+03  0.49856462444E+03  0.39852979974E+03 0.  0.
    9000005    1    3    3    0    0 -0.18977858090E+03  0.93145210740E+02 -0.13615309845E+02  0.21184502994E+03  0.99999687468E+00 0.  0.
          4    1    3    3  501    0  0.33794656315E+02 -0.16547808295E+03 -0.23169603177E+03  0.28671959450E+03  0.00000000000E+00 0.  1.
   -9000007    1    1    2    0  502  0.15598392459E+03  0.72332872213E+02  0.27656054056E+03  0.51579914863E+03  0.40000000000E+03 0.  1.
<mgrwt>
<rscale>  2 0.43505039E+03</rscale>
<asrwt>0</asrwt>
<pdfrwt beam="1">  1       21 0.80431768E-01 0.43538837E+03</pdfrwt>
<pdfrwt beam="2">  1       21 0.75624197E-01 0.43538837E+03</pdfrwt>
<totfact> 0.18378720E+03</totfact>
</mgrwt>
</event>
<event>
 6    1  0.9598567E-004  0.4814506E+03  0.7818608E-02  0.1018758E+00
         21   -1    0    0  503  502  0.00000000000E+00  0.00000000000E+00  0.85014597225E+03  0.85014597225E+03  0.00000000000E+00 0. -1.
         21   -1    0    0  501  503 -0.00000000000E+00 -0.00000000000E+00 -0.46341994779E+03  0.46341994779E+03  0.00000000000E+00 0. -1.
    9000007    2    1    2  501    0 -0.23254363651E+03  0.13310961474E+03 -0.22825177492E+03  0.53254581394E+03  0.39963916072E+03 0.  0.
    9000005    1    3    3    0    0 -0.28445350859E+03  0.12003401911E+03 -0.30825544181E+03  0.43628474841E+03  0.99999687468E+00 0.  0.
          4    1    3    3  501    0  0.51909872081E+02  0.13075595622E+02  0.80003666897E+02  0.96261065532E+02  0.00000000000E+00 0.  1.
   -9000007    1    1    2    0  502  0.23254363651E+03 -0.13310961474E+03  0.61497779938E+03  0.78102010611E+03  0.40000000000E+03 0. -1.
<mgrwt>
<rscale>  2 0.48137568E+03</rscale>
<asrwt>0</asrwt>
<pdfrwt beam="1">  1       21 0.13079169E+00 0.48145063E+03</pdfrwt>
<pdfrwt beam="2">  1       21 0.71295377E-01 0.48145063E+03</pdfrwt>
<totfact> 0.62739502E+02</totfact>
</mgrwt>
</event>
<event>
 6    1  0.9598567E-004  0.4024796E+03  0.7818608E-02  0.1042968E+00
         21   -1    0    0  503  502  0.00000000000E+00  0.00000000000E+00  0.42457919993E+03  0.42457919993E+03  0.00000000000E+00 0. -1.
         21   -1    0    0  501  503 -0.00000000000E+00 -0.00000000000E+00 -0.58517710877E+03  0.58517710877E+03  0.00000000000E+00 0. -1.
    9000007    2    1    2  501    0  0.11871270746E+02 -0.42998852506E+02 -0.37845407315E+03  0.55209798995E+03  0.39949327483E+03 0.  0.
    9000005    1    3    3    0    0  0.10947726463E+03 -0.80604675519E+02  0.22430770578E+02  0.13779159862E+03  0.99999687468E+00 0.  0.
          4    1    3    3  501    0 -0.97605993888E+02  0.37605823013E+02 -0.40088484373E+03  0.41430639133E+03  0.00000000000E+00 0.  1.
   -9000007    1    1    2    0  502 -0.11871270746E+02  0.42998852506E+02  0.21785616432E+03  0.45765831875E+03  0.40000000000E+03 0. -1.
<mgrwt>
<rscale>  2 0.40235364E+03</rscale>
<asrwt>0</asrwt>
<pdfrwt beam="1">  1       21 0.65319877E-01 0.40247960E+03</pdfrwt>
<pdfrwt beam="2">  1       21 0.90027247E-01 0.40247960E+03</pdfrwt>
<totfact> 0.19903005E+03</totfact>
</mgrwt>
</event>
<event>
 6    1  0.9598567E-004  0.5096609E+03  0.7818608E-02  0.1011288E+00
         21   -1    0    0  503  502  0.00000000000E+00  0.00000000000E+00  0.34962641796E+03  0.34962641796E+03  0.00000000000E+00 0. -1.
         21   -1    0    0  501  503 -0.00000000000E+00 -0.00000000000E+00 -0.85377856351E+03  0.85377856351E+03  0.00000000000E+00 0. -1.
    9000007    2    1    2  501    0  0.31299200243E+03 -0.42311687565E+02 -0.46886721134E+03  0.69252407649E+03  0.39999857770E+03 0.  0.
    9000005    1    3    3    0    0  0.34104881731E+03  0.32510527916E+02 -0.50054713399E+03  0.60656381655E+03  0.99999687468E+00 0.  0.
          4    1    3    3  501    0 -0.28056814878E+02 -0.74822215481E+02  0.31679922646E+02  0.85960259943E+02  0.00000000000E+00 0.  1.
   -9000007    1    1    2    0  502 -0.31299200243E+03  0.42311687565E+02 -0.35284934211E+02  0.51088090498E+03  0.40000000000E+03 0. -1.
<mgrwt>
<rscale>  2 0.50966066E+03</rscale>
<asrwt>0</asrwt>
<pdfrwt beam="1">  1       21 0.53788679E-01 0.50966094E+03</pdfrwt>
<pdfrwt beam="2">  1       21 0.13135055E+00 0.50966094E+03</pdfrwt>
<totfact> 0.11435991E+03</totfact>
</mgrwt>
</event>
<event>
 6    1  0.9598567E-004  0.6502943E+03  0.7818608E-02  0.9806310E-01
         21   -1    0    0  503  502  0.00000000000E+00  0.00000000000E+00  0.43254008749E+03  0.43254008749E+03  0.00000000000E+00 0.  1.
         21   -1    0    0  501  503 -0.00000000000E+00 -0.00000000000E+00 -0.14124313781E+04  0.14124313781E+04  0.00000000000E+00 0. -1.
    9000007    2    1    2  501    0 -0.13475592389E+03  0.49446208395E+03 -0.10019486687E+04  0.11944805437E+04  0.40028830013E+03 0.  0.
    9000005    1    3    3    0    0 -0.22484470528E+03  0.34555334560E+03 -0.42605230339E+03  0.59286070992E+03  0.99999687468E+00 0.  0.
          4    1    3    3  501    0  0.90088781394E+02  0.14890873835E+03 -0.57589636530E+03  0.60161983383E+03  0.00000000000E+00 0.  1.
   -9000007    1    1    2    0  502  0.13475592389E+03 -0.49446208395E+03  0.22057378062E+02  0.65049092185E+03  0.40000000000E+03 0.  1.
<mgrwt>
<rscale>  2 0.65024991E+03</rscale>
<asrwt>0</asrwt>
<pdfrwt beam="1">  1       21 0.66544628E-01 0.65029427E+03</pdfrwt>
<pdfrwt beam="2">  1       21 0.21729714E+00 0.65029427E+03</pdfrwt>
<totfact> 0.15853612E+02</totfact>
</mgrwt>
</event>
<event>
 6    1  0.9598567E-004  0.4026418E+03  0.7818608E-02  0.1042884E+00
         21   -1    0    0  503  502  0.00000000000E+00  0.00000000000E+00  0.17195855219E+04  0.17195855219E+04  0.00000000000E+00 0.  1.
         21   -1    0    0  501  503 -0.00000000000E+00 -0.00000000000E+00 -0.94259911676E+02  0.94259911676E+02  0.00000000000E+00 0.  1.
    9000007    2    1    2  501    0 -0.18933606627E+02  0.41975082788E+02  0.79859603628E+03  0.89427913501E+03  0.39982390263E+03 0.  0.
    9000005    1    3    3    0    0 -0.19598397724E+03  0.85959227582E+02  0.50700634451E+03  0.55032276121E+03  0.99999687468E+00 0.  0.
          4    1    3    3  501    0  0.17705037061E+03 -0.43984144794E+02  0.29158969176E+03  0.34395637379E+03  0.00000000000E+00 0.  1.
   -9000007    1    1    2    0  502  0.18933606627E+02 -0.41975082788E+02  0.82672957398E+03  0.91956629861E+03  0.40000000000E+03 0. -1.
<mgrwt>
<rscale>  2 0.40259802E+03</rscale>
<asrwt>0</asrwt>
<pdfrwt beam="1">  1       21 0.26455160E+00 0.40264176E+03</pdfrwt>
<pdfrwt beam="2">  1       21 0.14501526E-01 0.40264176E+03</pdfrwt>
<totfact> 0.19319875E+03</totfact>
</mgrwt>
</event>
<event>
 6    1  0.9598567E-004  0.4035319E+03  0.7818608E-02  0.1042655E+00
         21   -1    0    0  503  502  0.00000000000E+00  0.00000000000E+00  0.18334432876E+04  0.18334432876E+04  0.00000000000E+00 0.  1.
         21   -1    0    0  501  503 -0.00000000000E+00 -0.00000000000E+00 -0.15530770840E+03  0.15530770840E+03  0.00000000000E+00 0.  1.
    9000007    2    1    2  501    0  0.50700942035E+02  0.16351697467E+02  0.18665668834E+03  0.44364671298E+03  0.39892821798E+03 0.  0.
    9000005    1    3    3    0    0  0.21302660454E+03  0.37379325061E+02  0.17735228646E+03  0.27970052143E+03  0.99999687468E+00 0.  0.
          4    1    3    3  501    0 -0.16232566250E+03 -0.21027627593E+02  0.93044018836E+01  0.16394619155E+03  0.00000000000E+00 0.  1.
   -9000007    1    1    2    0  502 -0.50700942035E+02 -0.16351697467E+02  0.14914788908E+04  0.15451042830E+04  0.40000000000E+03 0.  1.
<mgrwt>
<rscale>  2 0.40326601E+03</rscale>
<asrwt>0</asrwt>
<pdfrwt beam="1">  1       21 0.28206818E+00 0.40353186E+03</pdfrwt>
<pdfrwt beam="2">  1       21 0.23893495E-01 0.40353186E+03</pdfrwt>
<totfact> 0.59045841E+02</totfact>
</mgrwt>
</event>
<event>
 6    1  0.9598567E-004  0.5816326E+03  0.7818608E-02  0.9944823E-01
         21   -1    0    0  503  502  0.00000000000E+00  0.00000000000E+00  0.11598005781E+04  0.11598005781E+04  0.00000000000E+00 0.  1.
         21   -1    0    0  501  503 -0.00000000000E+00 -0.00000000000E+00 -0.30559688047E+03  0.30559688047E+03  0.00000000000E+00 0.  1.
    9000007    2    1    2  501    0  0.21240473930E+03 -0.36328175206E+03  0.26823692525E+03  0.64050566993E+03  0.40150599059E+03 0.  0.
    9000005    1    3    3    0    0 -0.86218064194E+02  0.37009525558E+01  0.11376779620E+03  0.14279833013E+03  0.99999687468E+00 0.  0.
          4    1    3    3  501    0  0.29862280350E+03 -0.36698270461E+03  0.15446912906E+03  0.49770733980E+03  0.00000000000E+00 0.  1.
   -9000007    1    1    2    0  502 -0.21240473930E+03  0.36328175206E+03  0.58596677240E+03  0.82489178867E+03  0.40000000000E+03 0.  1.
<mgrwt>
<rscale>  2 0.58137277E+03</rscale>
<asrwt>0</asrwt>
<pdfrwt beam="1">  1       21 0.17843086E+00 0.58163259E+03</pdfrwt>
<pdfrwt beam="2">  1       21 0.47014905E-01 0.58163259E+03</pdfrwt>
<totfact> 0.63767351E+02</totfact>
</mgrwt>
</event>
<event>
 6    1  0.9598567E-004  0.4210178E+03  0.7818608E-02  0.1036757E+00
         21   -1    0    0  503  502  0.00000000000E+00  0.00000000000E+00  0.50603348692E+03  0.50603348692E+03  0.00000000000E+00 0. -1.
         21   -1    0    0  501  503 -0.00000000000E+00 -0.00000000000E+00 -0.60278425531E+03  0.60278425531E+03  0.00000000000E+00 0. -1.
    9000007    2    1    2  501    0 -0.10020570504E+03 -0.84939954564E+02 -0.40734529335E+03  0.58563045440E+03  0.39972098007E+03 0.  0.
    9000005    1    3    3    0    0 -0.86724998576E+02 -0.18059326281E+03 -0.44016172021E+03  0.48360985503E+03  0.99999687468E+00 0.  0.
          4    1    3    3  501    0 -0.13480706461E+02  0.95653308247E+02  0.32816426856E+02  0.10202059938E+03  0.00000000000E+00 0.  1.
   -9000007    1    1    2    0  502  0.10020570504E+03  0.84939954564E+02  0.31059452496E+03  0.52318728782E+03  0.40000000000E+03 0. -1.
<mgrwt>
<rscale>  2 0.42095150E+03</rscale>
<asrwt>0</asrwt>
<pdfrwt beam="1">  1       21 0.77851306E-01 0.42101779E+03</pdfrwt>
<pdfrwt beam="2">  1       21 0.92736039E-01 0.42101779E+03</pdfrwt>
<totfact> 0.12389368E+03</totfact>
</mgrwt>
</event>
<event>
 6    1  0.9598567E-004  0.4432216E+03  0.7818608E-02  0.1029905E+00
         21   -1    0    0  503  502  0.00000000000E+00  0.00000000000E+00  0.16324910579E+03  0.16324910579E+03  0.00000000000E+00 0. -1.
         21   -1    0    0  501  503 -0.00000000000E+00 -0.00000000000E+00 -0.12526347139E+04  0.12526347139E+04  0.00000000000E+00 0.  1.
    9000007    2    1    2  501    0 -0.33061865478E+02 -0.18802215764E+03 -0.39612695785E+03  0.59305153127E+03  0.39792980951E+03 0.  0.
    9000005    1    3    3    0    0  0.11784784342E+03 -0.24835624335E+03 -0.28622978118E+03  0.39685945300E+03  0.99999687468E+00 0.  0.
          4    1    3    3  501    0 -0.15090970889E+03  0.60334085708E+02 -0.10989717666E+03  0.19619207827E+03  0.00000000000E+00 0.  1.
   -9000007    1    1    2    0  502  0.33061865478E+02  0.18802215764E+03 -0.69325865025E+03  0.82283228842E+03  0.40000000000E+03 0. -1.
<mgrwt>
<rscale>  2 0.44275404E+03</rscale>
<asrwt>0</asrwt>
<pdfrwt beam="1">  1       21 0.25115247E-01 0.44322164E+03</pdfrwt>
<pdfrwt beam="2">  1       21 0.19271303E+00 0.44322164E+03</pdfrwt>
<totfact> 0.19082020E+03</totfact>
</mgrwt>
</event>
<event>
 6    1  0.9598567E-004  0.5147263E+03  0.7818608E-02  0.1010019E+00
         21   -1    0    0  503  502  0.00000000000E+00  0.00000000000E+00  0.12965188457E+03  0.12965188457E+03  0.00000000000E+00 0.  1.
         21   -1    0    0  501  503 -0.00000000000E+00 -0.00000000000E+00 -0.24672079776E+04  0.24672079776E+04  0.00000000000E+00 0. -1.
    9000007    2    1    2  501    0  0.17282216220E+03  0.27399936148E+03 -0.62993312186E+03  0.81334665463E+03  0.39971726600E+03 0.  0.
    9000005    1    3    3    0    0  0.13871260278E+02  0.54501262346E+01  0.56961653340E+02  0.58887568150E+02  0.99999687468E+00 0.  0.
          4    1    3    3  501    0  0.15895090193E+03  0.26854923524E+03 -0.68689477520E+03  0.75445908648E+03  0.00000000000E+00 0.  1.
   -9000007    1    1    2    0  502 -0.17282216220E+03 -0.27399936148E+03 -0.17076229712E+04  0.17835132076E+04  0.40000000000E+03 0. -1.
<mgrwt>
<rscale>  2 0.51467136E+03</rscale>
<asrwt>0</asrwt>
<pdfrwt beam="1">  1       21 0.19946443E-01 0.51472629E+03</pdfrwt>
<pdfrwt beam="2">  1       21 0.37957047E+00 0.51472629E+03</pdfrwt>
<totfact> 0.19878370E+02</totfact>
</mgrwt>
</event>
<event>
 6    1  0.9598567E-004  0.5636755E+03  0.7818608E-02  0.9983781E-01
         21   -1    0    0  503  502  0.00000000000E+00  0.00000000000E+00  0.54381558656E+03  0.54381558656E+03  0.00000000000E+00 0. -1.
         21   -1    0    0  501  503 -0.00000000000E+00 -0.00000000000E+00 -0.15652650673E+04  0.15652650673E+04  0.00000000000E+00 0. -1.
    9000007    2    1    2  501    0 -0.66613127953E+02  0.39150411737E+03 -0.13455769198E+04  0.14588719339E+04  0.40002161161E+03 0.  0.
    9000005    1    3    3    0    0  0.85164938135E+02  0.10599296217E+03 -0.88932155785E+03  0.89965627212E+03  0.99999687468E+00 0.  0.
          4    1    3    3  501    0 -0.15177806609E+03  0.28551115520E+03 -0.45625536192E+03  0.55921566177E+03  0.00000000000E+00 0.  1.
   -9000007    1    1    2    0  502  0.66613127953E+02 -0.39150411737E+03  0.32412743906E+03  0.65020871994E+03  0.40000000000E+03 0. -1.
<mgrwt>
<rscale>  2 0.56367167E+03</rscale>
<asrwt>0</asrwt>
<pdfrwt beam="1">  1       21 0.83663937E-01 0.56367550E+03</pdfrwt>
<pdfrwt beam="2">  1       21 0.24081001E+00 0.56367550E+03</pdfrwt>
<totfact> 0.68813446E+01</totfact>
</mgrwt>
</event>
<event>
 6    1  0.9598567E-004  0.4371261E+03  0.7818608E-02  0.1031649E+00
         21   -1    0    0  503  502  0.00000000000E+00  0.00000000000E+00  0.34379362190E+03  0.34379362190E+03  0.00000000000E+00 0. -1.
         21   -1    0    0  501  503 -0.00000000000E+00 -0.00000000000E+00 -0.77662957648E+03  0.77662957648E+03  0.00000000000E+00 0. -1.
    9000007    2    1    2  501    0 -0.11103310625E+03  0.13622708481E+03 -0.51537592945E+03  0.67578962253E+03  0.40024129714E+03 0.  0.
    9000005    1    3    3    0    0 -0.10306860865E+03  0.22322899592E+03 -0.53271475957E+03  0.58671998242E+03  0.99999687468E+00 0.  0.
          4    1    3    3  501    0 -0.79644975949E+01 -0.87001911115E+02  0.17338830118E+02  0.89069640111E+02  0.00000000000E+00 0.  1.
   -9000007    1    1    2    0  502  0.11103310625E+03 -0.13622708481E+03  0.82539974869E+02  0.44463357585E+03  0.40000000000E+03 0. -1.
<mgrwt>
<rscale>  2 0.43707090E+03</rscale>
<asrwt>0</asrwt>
<pdfrwt beam="1">  1       21 0.52891327E-01 0.43712614E+03</pdfrwt>
<pdfrwt beam="2">  1       21 0.11948147E+00 0.43712614E+03</pdfrwt>
<totfact> 0.15563027E+03</totfact>
</mgrwt>
</event>
<event>
 6    1  0.9598567E-004  0.4179307E+03  0.7818608E-02  0.1037763E+00
         21   -1    0    0  503  502  0.00000000000E+00  0.00000000000E+00  0.11959132135E+03  0.11959132135E+03  0.00000000000E+00 0. -1.
         21   -1    0    0  501  503 -0.00000000000E+00 -0.00000000000E+00 -0.15942036541E+04  0.15942036541E+04  0.00000000000E+00 0. -1.
    9000007    2    1    2  501    0  0.12012380635E+03 -0.39922326982E+01 -0.98650837138E+03  0.10713845584E+04  0.40027545328E+03 0.  0.
    9000005    1    3    3    0    0  0.11392156595E+03 -0.18581041386E+03 -0.68909977566E+03  0.72274693627E+03  0.99999687468E+00 0.  0.
          4    1    3    3  501    0  0.62022404006E+01  0.18181818116E+03 -0.29740859572E+03  0.34863762217E+03  0.00000000000E+00 0.  1.
   -9000007    1    1    2    0  502 -0.12012380635E+03  0.39922326982E+01 -0.48810396141E+03  0.64241041704E+03  0.40000000000E+03 0. -1.
<mgrwt>
<rscale>  2 0.41786477E+03</rscale>
<asrwt>0</asrwt>
<pdfrwt beam="1">  1       21 0.18398664E-01 0.41793074E+03</pdfrwt>
<pdfrwt beam="2">  1       21 0.24526211E+00 0.41793074E+03</pdfrwt>
<totfact> 0.16114668E+03</totfact>
</mgrwt>
</event>
<event>
 6    1  0.9598567E-004  0.4295582E+03  0.7818608E-02  0.1034039E+00
         21   -1    0    0  503  502  0.00000000000E+00  0.00000000000E+00  0.55100973216E+03  0.55100973216E+03  0.00000000000E+00 0. -1.
         21   -1    0    0  501  503 -0.00000000000E+00 -0.00000000000E+00 -0.37253827001E+03  0.37253827001E+03  0.00000000000E+00 0.  1.
    9000007    2    1    2  501    0  0.15520312221E+03 -0.24890163391E+01  0.23685682561E+03  0.49053177267E+03  0.40053222069E+03 0.  0.
    9000005    1    3    3    0    0  0.23179879551E+03  0.98427656755E+02  0.37910539633E+02  0.25467016752E+03  0.99999687468E+00 0.  0.
          4    1    3    3  501    0 -0.76595673301E+02 -0.10091667309E+03  0.19894628598E+03  0.23586160514E+03  0.00000000000E+00 0.  1.
   -9000007    1    1    2    0  502 -0.15520312221E+03  0.24890163391E+01 -0.58385363466E+02  0.43301622950E+03  0.40000000000E+03 0. -1.
<mgrwt>
<rscale>  2 0.42943411E+03</rscale>
<asrwt>0</asrwt>
<pdfrwt beam="1">  1       21 0.84770728E-01 0.42955822E+03</pdfrwt>
<pdfrwt beam="2">  1       21 0.57313580E-01 0.42955822E+03</pdfrwt>
<totfact> 0.30220371E+03</totfact>
</mgrwt>
</event>
<event>
 6    1  0.9598567E-004  0.5160774E+03  0.7818608E-02  0.1009670E+00
         21   -1    0    0  503  502  0.00000000000E+00  0.00000000000E+00  0.64838537549E+03  0.64838537549E+03  0.00000000000E+00 0. -1.
         21   -1    0    0  501  503 -0.00000000000E+00 -0.00000000000E+00 -0.62173788357E+03  0.62173788357E+03  0.00000000000E+00 0. -1.
    9000007    2    1    2  501    0 -0.77880140324E+01 -0.32588395036E+03 -0.35665885924E+03  0.62732876537E+03  0.40009353372E+03 0.  0.
    9000005    1    3    3    0    0  0.18836651039E+03 -0.10537407525E+03 -0.19470529131E+03  0.29068331296E+03  0.99999687468E+00 0.  0.
          4    1    3    3  501    0 -0.19615452442E+03 -0.22050987510E+03 -0.16195356793E+03  0.33664545242E+03  0.00000000000E+00 0.  1.
   -9000007    1    1    2    0  502  0.77880140324E+01  0.32588395036E+03  0.38330635117E+03  0.64279449368E+03  0.40000000000E+03 0. -1.
<mgrwt>
<rscale>  2 0.51605923E+03</rscale>
<asrwt>0</asrwt>
<pdfrwt beam="1">  1       21 0.99751596E-01 0.51607736E+03</pdfrwt>
<pdfrwt beam="2">  1       21 0.95651982E-01 0.51607736E+03</pdfrwt>
<totfact> 0.61665599E+02</totfact>
</mgrwt>
</event>
<event>
 6    1  0.9598567E-004  0.5587153E+03  0.7818608E-02  0.9995027E-01
         21   -1    0    0  503  502  0.00000000000E+00  0.00000000000E+00  0.48952055731E+03  0.48952055731E+03  0.00000000000E+00 0.  1.
         21   -1    0    0  501  503 -0.00000000000E+00 -0.00000000000E+00 -0.63961763791E+03  0.63961763791E+03  0.00000000000E+00 0. -1.
    9000007    2    1    2  501    0  0.13354114223E+03 -0.36634403227E+03 -0.10702514848E+03  0.56887363451E+03  0.40015202484E+03 0.  0.
    9000005    1    3    3    0    0  0.63293331438E+02 -0.24985914801E+03 -0.25866462887E+03  0.36516301821E+03  0.99999687468E+00 0.  0.
          4    1    3    3  501    0  0.70247810794E+02 -0.11648488426E+03  0.15163948038E+03  0.20371061630E+03  0.00000000000E+00 0.  1.
   -9000007    1    1    2    0  502 -0.13354114223E+03  0.36634403227E+03 -0.43071932117E+02  0.56026456071E+03  0.40000000000E+03 0.  1.
<mgrwt>
<rscale>  2 0.55868812E+03</rscale>
<asrwt>0</asrwt>
<pdfrwt beam="1">  1       21 0.75310855E-01 0.55871534E+03</pdfrwt>
<pdfrwt beam="2">  1       21 0.98402713E-01 0.55871534E+03</pdfrwt>
<totfact> 0.11014719E+03</totfact>
</mgrwt>
</event>
<event>
 6    1  0.9598567E-004  0.4680149E+03  0.7818608E-02  0.1022667E+00
         21   -1    0    0  503  502  0.00000000000E+00  0.00000000000E+00  0.31378333742E+03  0.31378333742E+03  0.00000000000E+00 0. -1.
         21   -1    0    0  501  503 -0.00000000000E+00 -0.00000000000E+00 -0.71341540559E+03  0.71341540559E+03  0.00000000000E+00 0. -1.
    9000007    2    1    2  501    0 -0.23518957886E+03 -0.35973696042E+02 -0.11601945553E+03  0.48218098287E+03  0.40302573289E+03 0.  0.
    9000005    1    3    3    0    0 -0.10474747624E+03  0.18412384054E+03 -0.61582464371E+02  0.22060603425E+03  0.99999687468E+00 0.  0.
          4    1    3    3  501    0 -0.13044210262E+03 -0.22009753658E+03 -0.54436991155E+02  0.26157494863E+03  0.00000000000E+00 0.  1.
   -9000007    1    1    2    0  502  0.23518957886E+03  0.35973696042E+02 -0.28361261265E+03  0.54501776014E+03  0.40000000000E+03 0. -1.
<mgrwt>
<rscale>  2 0.46736282E+03</rscale>
<asrwt>0</asrwt>
<pdfrwt beam="1">  1       21 0.48274360E-01 0.46801494E+03</pdfrwt>
<pdfrwt beam="2">  1       21 0.10975622E+00 0.46801494E+03</pdfrwt>
<totfact> 0.23107864E+03</totfact>
</mgrwt>
</event>
<event>
 6    1  0.9598567E-004  0.4172177E+03  0.7818608E-02  0.1038024E+00
         21   -1    0    0  503  502  0.00000000000E+00  0.00000000000E+00  0.10932329094E+04  0.10932329094E+04  0.00000000000E+00 0. -1.
         21   -1    0    0  501  503 -0.00000000000E+00 -0.00000000000E+00 -0.20887884918E+03  0.20887884918E+03  0.00000000000E+00 0. -1.
    9000007    2    1    2  501    0 -0.52154976937E+02  0.10420985478E+03  0.12426989754E+03  0.43533164240E+03  0.40061302523E+03 0.  0.
    9000005    1    3    3    0    0  0.15365655129E+03  0.80203805243E+02 -0.31414062251E+02  0.17615569656E+03  0.99999687468E+00 0.  0.
          4    1    3    3  501    0 -0.20581152823E+03  0.24006049532E+02  0.15568395979E+03  0.25917594584E+03  0.00000000000E+00 0.  1.
   -9000007    1    1    2    0  502  0.52154976937E+02 -0.10420985478E+03  0.76008416270E+03  0.86678011620E+03  0.40000000000E+03 0. -1.
<mgrwt>
<rscale>  2 0.41707050E+03</rscale>
<asrwt>0</asrwt>
<pdfrwt beam="1">  1       21 0.16818967E+00 0.41721773E+03</pdfrwt>
<pdfrwt beam="2">  1       21 0.32135208E-01 0.41721773E+03</pdfrwt>
<totfact> 0.17653112E+03</totfact>
</mgrwt>
</event>
<event>
 6    1  0.9598567E-004  0.5567485E+03  0.7818608E-02  0.9999493E-01
         21   -1    0    0  503  502  0.00000000000E+00  0.00000000000E+00  0.78876855196E+03  0.78876855196E+03  0.00000000000E+00 0. -1.
         21   -1    0    0  501  503 -0.00000000000E+00 -0.00000000000E+00 -0.41514269968E+03  0.41514269968E+03  0.00000000000E+00 0. -1.
    9000007    2    1    2  501    0 -0.29063359945E+03  0.25572406080E+03  0.47527476772E+02  0.55877340985E+03  0.40013270063E+03 0.  0.
    9000005    1    3    3    0    0 -0.32221669631E+03  0.28251899952E+03  0.14537471388E+03  0.45252115078E+03  0.99999687468E+00 0.  0.
          4    1    3    3  501    0  0.31583096865E+02 -0.26794938721E+02 -0.97847237108E+02  0.10625225907E+03  0.00000000000E+00 0.  1.
   -9000007    1    1    2    0  502  0.29063359945E+03 -0.25572406080E+03  0.32609837551E+03  0.64513784179E+03  0.40000000000E+03 0. -1.
<mgrwt>
<rscale>  2 0.55672463E+03</rscale>
<asrwt>0</asrwt>
<pdfrwt beam="1">  1       21 0.12134901E+00 0.55674847E+03</pdfrwt>
<pdfrwt beam="2">  1       21 0.63868108E-01 0.55674847E+03</pdfrwt>
<totfact> 0.94810812E+02</totfact>
</mgrwt>
</event>
<event>
 6    1  0.9598567E-004  0.7043727E+03  0.7818608E-02  0.9709962E-01
         21   -1    0    0  503  502  0.00000000000E+00  0.00000000000E+00  0.79198069534E+03  0.79198069534E+03  0.00000000000E+00 0.  1.
         21   -1    0    0  501  503 -0.00000000000E+00 -0.00000000000E+00 -0.79054712863E+03  0.79054712863E+03  0.00000000000E+00 0.  1.
    9000007    2    1    2  501    0  0.19871415667E+03  0.54411323146E+03 -0.36019089865E+03  0.79112477958E+03  0.40074232206E+03 0.  0.
    9000005    1    3    3    0    0 -0.39054552324E+00  0.25090712752E+03  0.42714694876E+02  0.25451932013E+03  0.99999687468E+00 0.  0.
          4    1    3    3  501    0  0.19910470220E+03  0.29320610394E+03 -0.40290559352E+03  0.53660545946E+03  0.00000000000E+00 0.  1.
   -9000007    1    1    2    0  502 -0.19871415667E+03 -0.54411323146E+03  0.36162446536E+03  0.79140304438E+03  0.40000000000E+03 0.  1.
<mgrwt>
<rscale>  2 0.70426718E+03</rscale>
<asrwt>0</asrwt>
<pdfrwt beam="1">  1       21 0.12184318E+00 0.70437272E+03</pdfrwt>
<pdfrwt beam="2">  1       21 0.12162263E+00 0.70437272E+03</pdfrwt>
<totfact> 0.19242519E+02</totfact>
</mgrwt>
</event>
<event>
 6    1  0.9598567E-004  0.4467418E+03  0.7818608E-02  0.1028725E+00
         21   -1    0    0  503  502  0.00000000000E+00  0.00000000000E+00  0.53997400384E+03  0.53997400384E+03  0.00000000000E+00 0. -1.
         21   -1    0    0  501  503 -0.00000000000E+00 -0.00000000000E+00 -0.58917057691E+03  0.58917057691E+03  0.00000000000E+00 0. -1.
    9000007    2    1    2  501    0  0.72816331007E+02  0.18513776021E+03 -0.36947505340E+03  0.57945693009E+03  0.39960018822E+03 0.  0.
    9000005    1    3    3    0    0  0.71268708113E+02  0.56171455857E+02 -0.42822192909E+03  0.43773220325E+03  0.99999687468E+00 0.  0.
          4    1    3    3  501    0  0.15476228941E+01  0.12896630436E+03  0.58746875689E+02  0.14172472684E+03  0.00000000000E+00 0.  1.
   -9000007    1    1    2    0  502 -0.72816331007E+02 -0.18513776021E+03  0.32027848034E+03  0.54968765066E+03  0.40000000000E+03 0. -1.
<mgrwt>
<rscale>  2 0.44665226E+03</rscale>
<asrwt>0</asrwt>
<pdfrwt beam="1">  1       21 0.83072923E-01 0.44674177E+03</pdfrwt>
<pdfrwt beam="2">  1       21 0.90641628E-01 0.44674177E+03</pdfrwt>
<totfact> 0.11137954E+03</totfact>
</mgrwt>
</event>
<event>
 6    1  0.9598567E-004  0.4927563E+03  0.7818608E-02  0.1015738E+00
         21   -1    0    0  503  502  0.00000000000E+00  0.00000000000E+00  0.32672265852E+03  0.32672265852E+03  0.00000000000E+00 0.  1.
         21   -1    0    0  501  503 -0.00000000000E+00 -0.00000000000E+00 -0.75067013246E+03  0.75067013246E+03  0.00000000000E+00 0.  1.
    9000007    2    1    2  501    0 -0.21929675607E+03 -0.18431373389E+03 -0.15431598568E+03  0.51635468249E+03  0.40093155896E+03 0.  0.
    9000005    1    3    3    0    0 -0.21038607348E+03  0.15410688063E+02  0.63885504440E+02  0.22041358146E+03  0.99999687468E+00 0.  0.
          4    1    3    3  501    0 -0.89106825957E+01 -0.19972442195E+03 -0.21820149012E+03  0.29594110103E+03  0.00000000000E+00 0.  1.
   -9000007    1    1    2    0  502  0.21929675607E+03  0.18431373389E+03 -0.26963148825E+03  0.56103810849E+03  0.40000000000E+03 0.  1.
<mgrwt>
<rscale>  2 0.49256674E+03</rscale>
<asrwt>0</asrwt>
<pdfrwt beam="1">  1       21 0.50265024E-01 0.49275626E+03</pdfrwt>
<pdfrwt beam="2">  1       21 0.11548771E+00 0.49275626E+03</pdfrwt>
<totfact> 0.18511420E+03</totfact>
</mgrwt>
</event>
<event>
 6    1  0.9598567E-004  0.4164216E+03  0.7818608E-02  0.1038344E+00
         21   -1    0    0  503  502  0.00000000000E+00  0.00000000000E+00  0.86859488439E+03  0.86859488439E+03  0.00000000000E+00 0.  1.
         21   -1    0    0  501  503 -0.00000000000E+00 -0.00000000000E+00 -0.20011066722E+03  0.20011066722E+03  0.00000000000E+00 0.  1.
    9000007    2    1    2  501    0 -0.10423538924E+03 -0.38225889164E+02  0.29527955037E+03  0.51048699378E+03  0.40134863023E+03 0.  0.
    9000005    1    3    3    0    0 -0.18498412086E+03  0.10477599111E+03  0.27105690136E+03  0.34448508974E+03  0.99999687468E+00 0.  0.
          4    1    3    3  501    0  0.80748731626E+02 -0.14300188027E+03  0.24222649001E+02  0.16600190404E+03  0.00000000000E+00 0.  1.
   -9000007    1    1    2    0  502  0.10423538924E+03  0.38225889164E+02  0.37320466680E+03  0.55821855782E+03  0.40000000000E+03 0.  1.
<mgrwt>
<rscale>  2 0.41609632E+03</rscale>
<asrwt>0</asrwt>
<pdfrwt beam="1">  1       21 0.13362998E+00 0.41642161E+03</pdfrwt>
<pdfrwt beam="2">  1       21 0.30786257E-01 0.41642161E+03</pdfrwt>
<totfact> 0.35915517E+03</totfact>
</mgrwt>
</event>
<event>
 6    1  0.9598567E-004  0.4040717E+03  0.7818608E-02  0.1042408E+00
         21   -1    0    0  503  502  0.00000000000E+00  0.00000000000E+00  0.63609070850E+03  0.63609070850E+03  0.00000000000E+00 0. -1.
         21   -1    0    0  501  503 -0.00000000000E+00 -0.00000000000E+00 -0.37952165239E+03  0.37952165239E+03  0.00000000000E+00 0. -1.
    9000007    2    1    2  501    0 -0.54612954040E+02  0.33982912999E+01 -0.16083618164E+03  0.43490481347E+03  0.40034959264E+03 0.  0.
    9000005    1    3    3    0    0  0.10691205944E+02  0.19351124395E+03 -0.32771105993E+02  0.19656003867E+03  0.99999687468E+00 0.  0.
          4    1    3    3  501    0 -0.65304159984E+02 -0.19011295265E+03 -0.12806507565E+03  0.23834477480E+03  0.00000000000E+00 0.  1.
   -9000007    1    1    2    0  502  0.54612954040E+02 -0.33982912999E+01  0.41740523775E+03  0.58070754742E+03  0.40000000000E+03 0. -1.
<mgrwt>
<rscale>  2 0.40398506E+03</rscale>
<asrwt>0</asrwt>
<pdfrwt beam="1">  1       21 0.97860109E-01 0.40407168E+03</pdfrwt>
<pdfrwt beam="2">  1       21 0.58387947E-01 0.40407168E+03</pdfrwt>
<totfact> 0.20859745E+03</totfact>
</mgrwt>
</event>
<event>
 6    1  0.9598567E-004  0.5201759E+03  0.7818608E-02  0.1008653E+00
         21   -1    0    0  503  502  0.00000000000E+00  0.00000000000E+00  0.21592613776E+03  0.21592613776E+03  0.00000000000E+00 0.  1.
         21   -1    0    0  501  503 -0.00000000000E+00 -0.00000000000E+00 -0.13151681280E+04  0.13151681280E+04  0.00000000000E+00 0. -1.
    9000007    2    1    2  501    0  0.11532731145E+03  0.31190159824E+03 -0.38271531772E+03  0.64566020938E+03  0.39977880861E+03 0.  0.
    9000005    1    3    3    0    0 -0.14578711491E+01 -0.51634372681E+02 -0.22781989629E+03  0.23360466384E+03  0.99999687468E+00 0.  0.
          4    1    3    3  501    0  0.11678518259E+03  0.36353597092E+03 -0.15489542143E+03  0.41205554554E+03  0.00000000000E+00 0.  1.
   -9000007    1    1    2    0  502 -0.11532731145E+03 -0.31190159824E+03 -0.71652667251E+03  0.88543405637E+03  0.40000000000E+03 0. -1.
<mgrwt>
<rscale>  2 0.52013340E+03</rscale>
<asrwt>0</asrwt>
<pdfrwt beam="1">  1       21 0.33219406E-01 0.52017593E+03</pdfrwt>
<pdfrwt beam="2">  1       21 0.20233356E+00 0.52017593E+03</pdfrwt>
<totfact> 0.91495093E+02</totfact>
</mgrwt>
</event>
<event>
 6    1  0.9598567E-004  0.4236403E+03  0.7818608E-02  0.1035889E+00
         21   -1    0    0  503  502  0.00000000000E+00  0.00000000000E+00  0.97641660644E+03  0.97641660644E+03  0.00000000000E+00 0.  1.
         21   -1    0    0  501  503 -0.00000000000E+00 -0.00000000000E+00 -0.25402940941E+03  0.25402940941E+03  0.00000000000E+00 0.  1.
    9000007    2    1    2  501    0 -0.75639851654E+02 -0.11721258928E+03  0.37716234093E+02  0.42531589859E+03  0.40001365106E+03 0.  0.
    9000005    1    3    3    0    0 -0.83890541841E+02 -0.21844667057E+03  0.14682212899E+03  0.27625044516E+03  0.99999687468E+00 0.  0.
          4    1    3    3  501    0  0.82506901871E+01  0.10123408129E+03 -0.10910589490E+03  0.14906545343E+03  0.00000000000E+00 0.  1.
   -9000007    1    1    2    0  502  0.75639851654E+02  0.11721258928E+03  0.68467096293E+03  0.80513011726E+03  0.40000000000E+03 0.  1.
<mgrwt>
<rscale>  2 0.42363707E+03</rscale>
<asrwt>0</asrwt>
<pdfrwt beam="1">  1       21 0.15021794E+00 0.42364029E+03</pdfrwt>
<pdfrwt beam="2">  1       21 0.39081448E-01 0.42364029E+03</pdfrwt>
<totfact> 0.16200716E+03</totfact>
</mgrwt>
</event>
<event>
 6    1  0.9598567E-004  0.4790325E+03  0.7818608E-02  0.1019404E+00
         21   -1    0    0  503  502  0.00000000000E+00  0.00000000000E+00  0.94822819144E+03  0.94822819144E+03  0.00000000000E+00 0. -1.
         21   -1    0    0  501  503 -0.00000000000E+00 -0.00000000000E+00 -0.45382321061E+03  0.45382321061E+03  0.00000000000E+00 0. -1.
    9000007    2    1    2  501    0  0.26266335083E+03  0.21910767267E+02 -0.23176376293E+03  0.53211280536E+03  0.39994684425E+03 0.  0.
    9000005    1    3    3    0    0  0.18633434537E+03 -0.14723080176E+03 -0.25101156104E+03  0.34555057665E+03  0.99999687468E+00 0.  0.
          4    1    3    3  501    0  0.76329005457E+02  0.16914156903E+03  0.19247798111E+02  0.18656222871E+03  0.00000000000E+00 0.  1.
   -9000007    1    1    2    0  502 -0.26266335083E+03 -0.21910767267E+02  0.72616874377E+03  0.86993859669E+03  0.40000000000E+03 0. -1.
<mgrwt>
<rscale>  2 0.47902138E+03</rscale>
<asrwt>0</asrwt>
<pdfrwt beam="1">  1       21 0.14588126E+00 0.47903248E+03</pdfrwt>
<pdfrwt beam="2">  1       21 0.69818956E-01 0.47903248E+03</pdfrwt>
<totfact> 0.49294674E+02</totfact>
</mgrwt>
</event>
<event>
 6    1  0.9598567E-004  0.4379280E+03  0.7818608E-02  0.1031457E+00
         21   -1    0    0  503  502  0.00000000000E+00  0.00000000000E+00  0.20410868458E+03  0.20410868458E+03  0.00000000000E+00 0. -1.
         21   -1    0    0  501  503 -0.00000000000E+00 -0.00000000000E+00 -0.98462489921E+03  0.98462489921E+03  0.00000000000E+00 0. -1.
    9000007    2    1    2  501    0  0.29560676995E+02  0.17580407755E+03 -0.51977633000E+03  0.67906094891E+03  0.39896795837E+03 0.  0.
    9000005    1    3    3    0    0  0.20501731970E+03  0.14968915132E+03 -0.35879577926E+03  0.43951604591E+03  0.99999687468E+00 0.  0.
          4    1    3    3  501    0 -0.17545664271E+03  0.26114926228E+02 -0.16098055073E+03  0.23954490301E+03  0.00000000000E+00 0.  1.
   -9000007    1    1    2    0  502 -0.29560676995E+02 -0.17580407755E+03 -0.26073988463E+03  0.50967263488E+03  0.40000000000E+03 0. -1.
<mgrwt>
<rscale>  2 0.43769217E+03</rscale>
<asrwt>0</asrwt>
<pdfrwt beam="1">  1       21 0.31401337E-01 0.43792797E+03</pdfrwt>
<pdfrwt beam="2">  1       21 0.15148075E+00 0.43792797E+03</pdfrwt>
<totfact> 0.24505965E+03</totfact>
</mgrwt>
</event>
<event>
 6    1  0.9598567E-004  0.4102499E+03  0.7818608E-02  0.1040321E+00
         21   -1    0    0  503  502  0.00000000000E+00  0.00000000000E+00  0.19533671982E+03  0.19533671982E+03  0.00000000000E+00 0.  1.
         21   -1    0    0  501  503 -0.00000000000E+00 -0.00000000000E+00 -0.16390017615E+04  0.16390017615E+04  0.00000000000E+00 0.  1.
    9000007    2    1    2  501    0  0.84470074827E+02 -0.29034615031E+02 -0.13540093061E+04  0.14147954522E+04  0.40040825162E+03 0.  0.
    9000005    1    3    3    0    0 -0.98681634053E+02 -0.66588396296E+02 -0.10580635451E+04  0.10647401302E+04  0.99999687468E+00 0.  0.
          4    1    3    3  501    0  0.18315170888E+03  0.37553781265E+02 -0.29594576101E+03  0.35005532193E+03  0.00000000000E+00 0.  1.
   -9000007    1    1    2    0  502 -0.84470074827E+02  0.29034615031E+02 -0.89655735572E+02  0.41954302918E+03  0.40000000000E+03 0.  1.
<mgrwt>
<rscale>  2 0.41015024E+03</rscale>
<asrwt>0</asrwt>
<pdfrwt beam="1">  1       21 0.30051804E-01 0.41024989E+03</pdfrwt>
<pdfrwt beam="2">  1       21 0.25215411E+00 0.41024989E+03</pdfrwt>
<totfact> 0.56902251E+02</totfact>
</mgrwt>
</event>
<event>
 6    1  0.9598567E-004  0.4181033E+03  0.7818608E-02  0.1037803E+00
         21   -1    0    0  503  502  0.00000000000E+00  0.00000000000E+00  0.34844257052E+03  0.34844257052E+03  0.00000000000E+00 0.  1.
         21   -1    0    0  501  503 -0.00000000000E+00 -0.00000000000E+00 -0.77128177382E+03  0.77128177382E+03  0.00000000000E+00 0.  1.
    9000007    2    1    2  501    0  0.90716987987E+02 -0.73378480924E+02 -0.54370729411E+03  0.68587751797E+03  0.40149268314E+03 0.  0.
    9000005    1    3    3    0    0 -0.15589661243E+02 -0.25458250278E+02  0.62121152151E+02  0.68928931395E+02  0.99999687468E+00 0.  0.
          4    1    3    3  501    0  0.10630664923E+03 -0.47920230645E+02 -0.60582844627E+03  0.61694858658E+03  0.00000000000E+00 0.  1.
   -9000007    1    1    2    0  502 -0.90716987987E+02  0.73378480924E+02  0.12086809081E+03  0.43384682637E+03  0.40000000000E+03 0.  1.
<mgrwt>
<rscale>  2 0.41774452E+03</rscale>
<asrwt>0</asrwt>
<pdfrwt beam="1">  1       21 0.53606550E-01 0.41810327E+03</pdfrwt>
<pdfrwt beam="2">  1       21 0.11865873E+00 0.41810327E+03</pdfrwt>
<totfact> 0.15510445E+03</totfact>
</mgrwt>
</event>
<event>
 6    1  0.9598567E-004  0.4635313E+03  0.7818608E-02  0.1023783E+00
         21   -1    0    0  503  502  0.00000000000E+00  0.00000000000E+00  0.64974694410E+03  0.64974694410E+03  0.00000000000E+00 0.  1.
         21   -1    0    0  501  503 -0.00000000000E+00 -0.00000000000E+00 -0.33063202322E+03  0.33063202322E+03  0.00000000000E+00 0.  1.
    9000007    2    1    2  501    0 -0.19912677519E+03 -0.12220486468E+03  0.17038311857E+03  0.49385389031E+03  0.40034454702E+03 0.  0.
    9000005    1    3    3    0    0 -0.15567889628E+03 -0.28904008167E+02 -0.11157131833E+03  0.19370214119E+03  0.99999687468E+00 0.  0.
          4    1    3    3  501    0 -0.43447878918E+02 -0.93300856515E+02  0.28195443690E+03  0.30015174912E+03  0.00000000000E+00 0.  1.
   -9000007    1    1    2    0  502  0.19912677519E+03  0.12220486468E+03  0.14873180231E+03  0.48652507702E+03  0.40000000000E+03 0.  1.
<mgrwt>
<rscale>  2 0.46345689E+03</rscale>
<asrwt>0</asrwt>
<pdfrwt beam="1">  1       21 0.99961068E-01 0.46353129E+03</pdfrwt>
<pdfrwt beam="2">  1       21 0.50866465E-01 0.46353129E+03</pdfrwt>
<totfact> 0.26067867E+03</totfact>
</mgrwt>
</event>
<event>
 6    1  0.9598567E-004  0.7099149E+03  0.7818608E-02  0.9700458E-01
         21   -1    0    0  503  502  0.00000000000E+00  0.00000000000E+00  0.33572652520E+03  0.33572652520E+03  0.00000000000E+00 0.  1.
         21   -1    0    0  501  503 -0.00000000000E+00 -0.00000000000E+00 -0.17344825144E+04  0.17344825144E+04  0.00000000000E+00 0. -1.
    9000007    2    1    2  501    0  0.58638616846E+03  0.43641527709E+01 -0.10791914199E+04  0.12917558950E+04  0.40013920960E+03 0.  0.
    9000005    1    3    3    0    0  0.21257509529E+03  0.97682189622E+02 -0.74786368904E+03  0.78360135189E+03  0.99999687468E+00 0.  0.
          4    1    3    3  501    0  0.37381107317E+03 -0.93318036851E+02 -0.33132773082E+03  0.50815454306E+03  0.00000000000E+00 0.  1.
   -9000007    1    1    2    0  502 -0.58638616846E+03 -0.43641527709E+01 -0.31956456931E+03  0.77845314461E+03  0.40000000000E+03 0.  1.
<mgrwt>
<rscale>  2 0.70989529E+03</rscale>
<asrwt>0</asrwt>
<pdfrwt beam="1">  1       21 0.51650233E-01 0.70991490E+03</pdfrwt>
<pdfrwt beam="2">  1       21 0.26684347E+00 0.70991490E+03</pdfrwt>
<totfact> 0.13170107E+02</totfact>
</mgrwt>
</event>
<event>
 6    1  0.9598567E-004  0.4794411E+03  0.7818608E-02  0.1019380E+00
         21   -1    0    0  503  502  0.00000000000E+00  0.00000000000E+00  0.16146125063E+04  0.16146125063E+04  0.00000000000E+00 0.  1.
         21   -1    0    0  501  503 -0.00000000000E+00 -0.00000000000E+00 -0.31861524214E+03  0.31861524214E+03  0.00000000000E+00 0.  1.
    9000007    2    1    2  501    0 -0.14791149358E+03  0.21905696952E+03 -0.72120528432E+02  0.48353465670E+03  0.39842267478E+03 0.  0.
    9000005    1    3    3    0    0 -0.34332255957E+02  0.41889807551E+02  0.16076672108E+03  0.16964786582E+03  0.99999687468E+00 0.  0.
          4    1    3    3  501    0 -0.11357923763E+03  0.17716716197E+03 -0.23288724952E+03  0.31388679088E+03  0.00000000000E+00 0.  1.
   -9000007    1    1    2    0  502  0.14791149358E+03 -0.21905696952E+03  0.13681177926E+04  0.14496930917E+04  0.40000000000E+03 0.  1.
<mgrwt>
<rscale>  2 0.47911196E+03</rscale>
<asrwt>0</asrwt>
<pdfrwt beam="1">  1       21 0.24840192E+00 0.47944110E+03</pdfrwt>
<pdfrwt beam="2">  1       21 0.49017730E-01 0.47944110E+03</pdfrwt>
<totfact> 0.21182067E+02</totfact>
</mgrwt>
</event>
<event>
 6    1  0.9598567E-004  0.4096545E+03  0.7818608E-02  0.1040498E+00
         21   -1    0    0  503  502  0.00000000000E+00  0.00000000000E+00  0.19088714804E+04  0.19088714804E+04  0.00000000000E+00 0.  1.
         21   -1    0    0  501  503 -0.00000000000E+00 -0.00000000000E+00 -0.98558804895E+02  0.98558804895E+02  0.00000000000E+00 0.  1.
    9000007    2    1    2  501    0 -0.87720461344E+02 -0.11043963533E+02  0.57471500874E+03  0.70569358281E+03  0.39986152989E+03 0.  0.
    9000005    1    3    3    0    0 -0.17557014055E+03 -0.61950802986E+02  0.57475690088E+03  0.60415997165E+03  0.99999687468E+00 0.  0.
          4    1    3    3  501    0  0.87849679208E+02  0.50906839453E+02 -0.41892143928E-01  0.10153361116E+03  0.00000000000E+00 0.  1.
   -9000007    1    1    2    0  502  0.87720461344E+02  0.11043963533E+02  0.12355976668E+04  0.13017367025E+04  0.40000000000E+03 0.  1.
<mgrwt>
<rscale>  2 0.40962074E+03</rscale>
<asrwt>0</asrwt>
<pdfrwt beam="1">  1       21 0.29367251E+00 0.40965455E+03</pdfrwt>
<pdfrwt beam="2">  1       21 0.15162894E-01 0.40965455E+03</pdfrwt>
<totfact> 0.11844772E+03</totfact>
</mgrwt>
</event>
<event>
 6    1  0.9598567E-004  0.4313236E+03  0.7818608E-02  0.1033450E+00
         21   -1    0    0  503  502  0.00000000000E+00  0.00000000000E+00  0.24041167718E+03  0.24041167718E+03  0.00000000000E+00 0. -1.
         21   -1    0    0  501  503 -0.00000000000E+00 -0.00000000000E+00 -0.10578371645E+04  0.10578371645E+04  0.00000000000E+00 0. -1.
    9000007    2    1    2  501    0 -0.23796455451E+02  0.15934231296E+03 -0.74518761322E+03  0.86101371676E+03  0.40010473324E+03 0.  0.
    9000005    1    3    3    0    0  0.16318090272E+03 -0.21047593688E+02 -0.21640295886E+03  0.27184968054E+03  0.99999687468E+00 0.  0.
          4    1    3    3  501    0 -0.18697735817E+03  0.18038990664E+03 -0.52878465436E+03  0.58916403622E+03  0.00000000000E+00 0.  1.
   -9000007    1    1    2    0  502  0.23796455451E+02 -0.15934231296E+03 -0.72237874066E+02  0.43723512489E+03  0.40000000000E+03 0. -1.
<mgrwt>
<rscale>  2 0.43129930E+03</rscale>
<asrwt>0</asrwt>
<pdfrwt beam="1">  1       21 0.36986411E-01 0.43132359E+03</pdfrwt>
<pdfrwt beam="2">  1       21 0.16274418E+00 0.43132359E+03</pdfrwt>
<totfact> 0.14492721E+03</totfact>
</mgrwt>
</event>
<event>
 6    1  0.9598567E-004  0.4094763E+03  0.7818608E-02  0.1040573E+00
         21   -1    0    0  503  502  0.00000000000E+00  0.00000000000E+00  0.35218536201E+03  0.35218536201E+03  0.00000000000E+00 0. -1.
         21   -1    0    0  501  503 -0.00000000000E+00 -0.00000000000E+00 -0.55065037437E+03  0.55065037437E+03  0.00000000000E+00 0. -1.
    9000007    2    1    2  501    0  0.36153804407E+01 -0.86056151534E+02 -0.26577612088E+03  0.48816777581E+03  0.40031499937E+03 0.  0.
    9000005    1    3    3    0    0 -0.18413446683E+03 -0.11676761024E+03 -0.12331581010E+03  0.25049544046E+03  0.99999687468E+00 0.  0.
          4    1    3    3  501    0  0.18774984727E+03  0.30711458711E+02 -0.14246031078E+03  0.23767233536E+03  0.00000000000E+00 0.  1.
   -9000007    1    1    2    0  502 -0.36153804407E+01  0.86056151534E+02  0.67311108522E+02  0.41466796057E+03  0.40000000000E+03 0. -1.
<mgrwt>
<rscale>  2 0.40939928E+03</rscale>
<asrwt>0</asrwt>
<pdfrwt beam="1">  1       21 0.54182363E-01 0.40947629E+03</pdfrwt>
<pdfrwt beam="2">  1       21 0.84715443E-01 0.40947629E+03</pdfrwt>
<totfact> 0.34429891E+03</totfact>
</mgrwt>
</event>
<event>
 6    1  0.9598567E-004  0.4966928E+03  0.7818608E-02  0.1015245E+00
         21   -1    0    0  503  502  0.00000000000E+00  0.00000000000E+00  0.17716101813E+03  0.17716101813E+03  0.00000000000E+00 0. -1.
         21   -1    0    0  501  503 -0.00000000000E+00 -0.00000000000E+00 -0.14584389231E+04  0.14584389231E+04  0.00000000000E+00 0.  1.
    9000007    2    1    2  501    0 -0.13626916387E+02 -0.27862809271E+03 -0.85051659310E+03  0.98492750850E+03  0.41095549024E+03 0.  0.
    9000005    1    3    3    0    0 -0.19599453356E+03 -0.12034270951E+03 -0.57081092379E+03  0.61540420508E+03  0.99999687468E+00 0.  0.
          4    1    3    3  501    0  0.18236761717E+03 -0.15828538320E+03 -0.27970566931E+03  0.36952330342E+03  0.00000000000E+00 0.  1.
   -9000007    1    1    2    0  502  0.13626916387E+02  0.27862809271E+03 -0.43076131183E+03  0.65067243269E+03  0.40000000000E+03 0. -1.
<mgrwt>
<rscale>  2 0.49442085E+03</rscale>
<asrwt>0</asrwt>
<pdfrwt beam="1">  1       21 0.27255540E-01 0.49669278E+03</pdfrwt>
<pdfrwt beam="2">  1       21 0.22437523E+00 0.49669278E+03</pdfrwt>
<totfact> 0.98452719E+02</totfact>
</mgrwt>
</event>
<event>
 6    1  0.9598567E-004  0.5592943E+03  0.7818608E-02  0.9994644E-01
         21   -1    0    0  503  502  0.00000000000E+00  0.00000000000E+00  0.46893016324E+03  0.46893016324E+03  0.00000000000E+00 0.  1.
         21   -1    0    0  501  503 -0.00000000000E+00 -0.00000000000E+00 -0.97131849124E+03  0.97131849124E+03  0.00000000000E+00 0. -1.
    9000007    2    1    2  501    0 -0.23947578021E+02 -0.39017506669E+03  0.15348347226E+03  0.57828700363E+03  0.39755328341E+03 0.  0.
    9000005    1    3    3    0    0 -0.14828125015E+03 -0.38352385373E+03  0.18339023505E+03  0.45023422108E+03  0.99999687468E+00 0.  0.
          4    1    3    3  501    0  0.12433367213E+03 -0.66512129586E+01 -0.29906762784E+02  0.12805278255E+03  0.00000000000E+00 0.  1.
   -9000007    1    1    2    0  502  0.23947578021E+02  0.39017506669E+03 -0.65587180026E+03  0.86196165085E+03  0.40000000000E+03 0. -1.
<mgrwt>
<rscale>  2 0.55885694E+03</rscale>
<asrwt>0</asrwt>
<pdfrwt beam="1">  1       21 0.72143103E-01 0.55929426E+03</pdfrwt>
<pdfrwt beam="2">  1       21 0.14943361E+00 0.55929426E+03</pdfrwt>
<totfact> 0.41520450E+02</totfact>
</mgrwt>
</event>
<event>
 6    1  0.9598567E-004  0.4060123E+03  0.7818608E-02  0.1041723E+00
         21   -1    0    0  503  502  0.00000000000E+00  0.00000000000E+00  0.10424597276E+04  0.10424597276E+04  0.00000000000E+00 0. -1.
         21   -1    0    0  501  503 -0.00000000000E+00 -0.00000000000E+00 -0.27953612859E+03  0.27953612859E+03  0.00000000000E+00 0. -1.
    9000007    2    1    2  501    0  0.33732382455E+02  0.60492802420E+02 -0.54174625272E+02  0.40961065196E+03  0.40006092461E+03 0.  0.
    9000005    1    3    3    0    0 -0.17188687878E+03 -0.30909153010E+02  0.12012384784E+02  0.17505933913E+03  0.99999687468E+00 0.  0.
          4    1    3    3  501    0  0.20561926123E+03  0.91401955430E+02 -0.66187010056E+02  0.23455131282E+03  0.00000000000E+00 0.  1.
   -9000007    1    1    2    0  502 -0.33732382455E+02 -0.60492802420E+02  0.81709822426E+03  0.91238520421E+03  0.40000000000E+03 0.  1.
<mgrwt>
<rscale>  2 0.40599730E+03</rscale>
<asrwt>0</asrwt>
<pdfrwt beam="1">  1       21 0.16037842E+00 0.40601231E+03</pdfrwt>
<pdfrwt beam="2">  1       21 0.43005559E-01 0.40601231E+03</pdfrwt>
<totfact> 0.11200742E+03</totfact>
</mgrwt>
</event>
<event>
 6    1  0.9598567E-004  0.5030326E+03  0.7818608E-02  0.1013003E+00
         21   -1    0    0  503  502  0.00000000000E+00  0.00000000000E+00  0.14796867446E+04  0.14796867446E+04  0.00000000000E+00 0.  1.
         21   -1    0    0  501  503 -0.00000000000E+00 -0.00000000000E+00 -0.28242743709E+03  0.28242743709E+03  0.00000000000E+00 0. -1.
    9000007    2    1    2  501    0  0.29772230073E+03 -0.66356913018E+02  0.45017946452E+02  0.50485447805E+03  0.39976195447E+03 0.  0.
    9000005    1    3    3    0    0  0.12135651283E+02 -0.38393779384E+02 -0.15169399167E+03  0.15695038525E+03  0.99999687468E+00 0.  0.
          4    1    3    3  501    0  0.28558664945E+03 -0.27963133634E+02  0.19671193812E+03  0.34790409280E+03  0.00000000000E+00 0.  1.
   -9000007    1    1    2    0  502 -0.29772230073E+03  0.66356913018E+02  0.11522413610E+04  0.12572597036E+04  0.40000000000E+03 0.  1.
<mgrwt>
<rscale>  2 0.50298529E+03</rscale>
<asrwt>0</asrwt>
<pdfrwt beam="1">  1       21 0.22764411E+00 0.50303261E+03</pdfrwt>
<pdfrwt beam="2">  1       21 0.43450376E-01 0.50303261E+03</pdfrwt>
<totfact> 0.36384000E+02</totfact>
</mgrwt>
</event>
<event>
 6    1  0.9598567E-004  0.4515683E+03  0.7818608E-02  0.1027292E+00
         21   -1    0    0  503  502  0.00000000000E+00  0.00000000000E+00  0.42346596785E+03  0.42346596785E+03  0.00000000000E+00 0. -1.
         21   -1    0    0  501  503 -0.00000000000E+00 -0.00000000000E+00 -0.56008693053E+03  0.56008693053E+03  0.00000000000E+00 0. -1.
    9000007    2    1    2  501    0 -0.20918970602E+03 -0.12394488320E+02 -0.25306322687E+03  0.51721315384E+03  0.39944272840E+03 0.  0.
    9000005    1    3    3    0    0 -0.20462554528E+03  0.12806413964E+03 -0.28459599031E+03  0.37318616713E+03  0.99999687468E+00 0.  0.
          4    1    3    3  501    0 -0.45641607373E+01 -0.14045862796E+03  0.31532763444E+02  0.14402698671E+03  0.00000000000E+00 0.  1.
   -9000007    1    1    2    0  502  0.20918970602E+03  0.12394488320E+02  0.11644226418E+03  0.46633974453E+03  0.40000000000E+03 0. -1.
<mgrwt>
<rscale>  2 0.45144489E+03</rscale>
<asrwt>0</asrwt>
<pdfrwt beam="1">  1       21 0.65148611E-01 0.45156833E+03</pdfrwt>
<pdfrwt beam="2">  1       21 0.86167219E-01 0.45156833E+03</pdfrwt>
<totfact> 0.21769460E+03</totfact>
</mgrwt>
</event>
<event>
 6    1  0.9598567E-004  0.4861756E+03  0.7818608E-02  0.1017496E+00
         21   -1    0    0  503  502  0.00000000000E+00  0.00000000000E+00  0.17606023107E+03  0.17606023107E+03  0.00000000000E+00 0. -1.
         21   -1    0    0  501  503 -0.00000000000E+00 -0.00000000000E+00 -0.13417515398E+04  0.13417515398E+04  0.00000000000E+00 0.  1.
    9000007    2    1    2  501    0 -0.13761060353E+03  0.23964573797E+03 -0.60332284656E+03  0.77442422379E+03  0.39920879659E+03 0.  0.
    9000005    1    3    3    0    0  0.15857304686E+02 -0.12785788463E+02  0.51855642487E+02  0.55721971878E+02  0.99999687468E+00 0.  0.
          4    1    3    3  501    0 -0.15346790822E+03  0.25243152643E+03 -0.65517848905E+03  0.71870225191E+03  0.00000000000E+00 0.  1.
   -9000007    1    1    2    0  502  0.13761060353E+03 -0.23964573797E+03 -0.56236846217E+03  0.74338754710E+03  0.40000000000E+03 0. -1.
<mgrwt>
<rscale>  2 0.48601288E+03</rscale>
<asrwt>0</asrwt>
<pdfrwt beam="1">  1       21 0.27086190E-01 0.48617565E+03</pdfrwt>
<pdfrwt beam="2">  1       21 0.20642331E+00 0.48617565E+03</pdfrwt>
<totfact> 0.13085732E+03</totfact>
</mgrwt>
</event>
<event>
 6    1  0.9598567E-004  0.4269743E+03  0.7818608E-02  0.1034877E+00
         21   -1    0    0  503  502  0.00000000000E+00  0.00000000000E+00  0.21247862815E+04  0.21247862815E+04  0.00000000000E+00 0.  1.
         21   -1    0    0  501  503 -0.00000000000E+00 -0.00000000000E+00 -0.17337561364E+03  0.17337561364E+03  0.00000000000E+00 0.  1.
    9000007    2    1    2  501    0 -0.52127201705E+02  0.13778542047E+03  0.15877012130E+03  0.45553816893E+03  0.40075554230E+03 0.  0.
    9000005    1    3    3    0    0 -0.80877420849E+02 -0.77711677509E+02  0.20462277433E+03  0.23334896999E+03  0.99999687468E+00 0.  0.
          4    1    3    3  501    0  0.28750219144E+02  0.21549709798E+03 -0.45852653033E+02  0.22218919894E+03  0.00000000000E+00 0.  1.
   -9000007    1    1    2    0  502  0.52127201705E+02 -0.13778542047E+03  0.17926405466E+04  0.18426237263E+04  0.40000000000E+03 0.  1.
<mgrwt>
<rscale>  2 0.42679694E+03</rscale>
<asrwt>0</asrwt>
<pdfrwt beam="1">  1       21 0.32689018E+00 0.42697432E+03</pdfrwt>
<pdfrwt beam="2">  1       21 0.26673173E-01 0.42697432E+03</pdfrwt>
<totfact> 0.25282312E+02</totfact>
</mgrwt>
</event>
<event>
 6    1  0.9598567E-004  0.4933916E+03  0.7818608E-02  0.1015653E+00
         21   -1    0    0  503  502  0.00000000000E+00  0.00000000000E+00  0.65004290109E+03  0.65004290109E+03  0.00000000000E+00 0. -1.
         21   -1    0    0  501  503 -0.00000000000E+00 -0.00000000000E+00 -0.62288302175E+03  0.62288302175E+03  0.00000000000E+00 0. -1.
    9000007    2    1    2  501    0  0.28530170210E+03 -0.66849623687E+01 -0.38956183040E+03  0.62864435915E+03  0.40248423652E+03 0.  0.
    9000005    1    3    3    0    0  0.37554114077E+03 -0.72673204847E+01 -0.21668739689E+03  0.43363393586E+03  0.99999687468E+00 0.  0.
          4    1    3    3  501    0 -0.90239438677E+02  0.58235811591E+00 -0.17287443350E+03  0.19501042329E+03  0.00000000000E+00 0.  1.
   -9000007    1    1    2    0  502 -0.28530170210E+03  0.66849623687E+01  0.41672170974E+03  0.64428156369E+03  0.40000000000E+03 0. -1.
<mgrwt>
<rscale>  2 0.49288476E+03</rscale>
<asrwt>0</asrwt>
<pdfrwt beam="1">  1       21 0.10000660E+00 0.49339164E+03</pdfrwt>
<pdfrwt beam="2">  1       21 0.95828158E-01 0.49339164E+03</pdfrwt>
<totfact> 0.61546407E+02</totfact>
</mgrwt>
</event>
<event>
 6    1  0.9598567E-004  0.4729513E+03  0.7818608E-02  0.1021205E+00
         21   -1    0    0  503  502  0.00000000000E+00  0.00000000000E+00  0.18155672865E+03  0.18155672865E+03  0.00000000000E+00 0.  1.
         21   -1    0    0  501  503 -0.00000000000E+00 -0.00000000000E+00 -0.12331599920E+04  0.12331599920E+04  0.00000000000E+00 0.  1.
    9000007    2    1    2  501    0 -0.22313374384E+03  0.11787411401E+03 -0.57157120596E+03  0.74083709451E+03  0.39807409201E+03 0.  0.
    9000005    1    3    3    0    0 -0.15236102309E+03 -0.44163588285E+02 -0.53794669220E+03  0.56084930912E+03  0.99999687468E+00 0.  0.
          4    1    3    3  501    0 -0.70772720748E+02  0.16203770229E+03 -0.33624513757E+02  0.17998778540E+03  0.00000000000E+00 0.  1.
   -9000007    1    1    2    0  502  0.22313374384E+03 -0.11787411401E+03 -0.48003205736E+03  0.67387962611E+03  0.40000000000E+03 0.  1.
<mgrwt>
<rscale>  2 0.47254389E+03</rscale>
<asrwt>0</asrwt>
<pdfrwt beam="1">  1       21 0.27931806E-01 0.47295134E+03</pdfrwt>
<pdfrwt beam="2">  1       21 0.18971691E+00 0.47295134E+03</pdfrwt>
<totfact> 0.16039778E+03</totfact>
</mgrwt>
</event>
<event>
 6    1  0.9598567E-004  0.4202527E+03  0.7818608E-02  0.1036996E+00
         21   -1    0    0  503  502  0.00000000000E+00  0.00000000000E+00  0.19064925422E+04  0.19064925422E+04  0.00000000000E+00 0. -1.
         21   -1    0    0  501  503 -0.00000000000E+00 -0.00000000000E+00 -0.99964053123E+02  0.99964053123E+02  0.00000000000E+00 0. -1.
    9000007    2    1    2  501    0 -0.12803572531E+03 -0.96294710789E+01  0.63119769892E+03  0.75830262246E+03  0.40015804184E+03 0.  0.
    9000005    1    3    3    0    0 -0.14513312683E+03  0.12848584659E+03  0.11881220563E+03  0.22735341976E+03  0.99999687468E+00 0.  0.
          4    1    3    3  501    0  0.17097401517E+02 -0.13811531767E+03  0.51238549329E+03  0.53094920270E+03  0.00000000000E+00 0.  1.
   -9000007    1    1    2    0  502  0.12803572531E+03  0.96294710789E+01  0.11753307901E+04  0.12481539728E+04  0.40000000000E+03 0. -1.
<mgrwt>
<rscale>  2 0.42021507E+03</rscale>
<asrwt>0</asrwt>
<pdfrwt beam="1">  1       21 0.29330652E+00 0.42025270E+03</pdfrwt>
<pdfrwt beam="2">  1       21 0.15379087E-01 0.42025270E+03</pdfrwt>
<totfact> 0.11527305E+03</totfact>
</mgrwt>
</event>
<event>
 6    1  0.9598567E-004  0.4754270E+03  0.7818608E-02  0.1020408E+00
         21   -1    0    0  503  502  0.00000000000E+00  0.00000000000E+00  0.47531269822E+03  0.47531269822E+03  0.00000000000E+00 0.  1.
         21   -1    0    0  501  503 -0.00000000000E+00 -0.00000000000E+00 -0.64618261807E+03  0.64618261807E+03  0.00000000000E+00 0.  1.
    9000007    2    1    2  501    0  0.18300398347E+02  0.25607468716E+03 -0.37371025437E+03  0.60472326665E+03  0.40015212734E+03 0.  0.
    9000005    1    3    3    0    0 -0.10568128836E+03 -0.40372012795E+02 -0.22246379718E+03  0.24957879553E+03  0.99999687468E+00 0.  0.
          4    1    3    3  501    0  0.12398168671E+03  0.29644669996E+03 -0.15124645719E+03  0.35514447112E+03  0.00000000000E+00 0.  1.
   -9000007    1    1    2    0  502 -0.18300398347E+02 -0.25607468716E+03  0.20284033452E+03  0.51677204964E+03  0.40000000000E+03 0.  1.
<mgrwt>
<rscale>  2 0.47539503E+03</rscale>
<asrwt>0</asrwt>
<pdfrwt beam="1">  1       21 0.73125031E-01 0.47542704E+03</pdfrwt>
<pdfrwt beam="2">  1       21 0.99412710E-01 0.47542704E+03</pdfrwt>
<totfact> 0.11832107E+03</totfact>
</mgrwt>
</event>
<event>
 6    1  0.9598567E-004  0.4256873E+03  0.7818608E-02  0.1035232E+00
         21   -1    0    0  503  502  0.00000000000E+00  0.00000000000E+00  0.60702525302E+03  0.60702525302E+03  0.00000000000E+00 0. -1.
         21   -1    0    0  501  503 -0.00000000000E+00 -0.00000000000E+00 -0.37844672019E+03  0.37844672019E+03  0.00000000000E+00 0. -1.
    9000007    2    1    2  501    0  0.11737070840E+03 -0.86187877823E+02 -0.11215770615E+03  0.44021476966E+03  0.40000682357E+03 0.  0.
    9000005    1    3    3    0    0  0.21581429262E+03 -0.75803679091E+02  0.64544638495E+02  0.23767418247E+03  0.99999687468E+00 0.  0.
          4    1    3    3  501    0 -0.98443584218E+02 -0.10384198732E+02 -0.17670234464E+03  0.20254058719E+03  0.00000000000E+00 0.  1.
   -9000007    1    1    2    0  502 -0.11737070840E+03  0.86187877823E+02  0.34073623897E+03  0.54525720355E+03  0.40000000000E+03 0. -1.
<mgrwt>
<rscale>  2 0.42568571E+03</rscale>
<asrwt>0</asrwt>
<pdfrwt beam="1">  1       21 0.93388501E-01 0.42568732E+03</pdfrwt>
<pdfrwt beam="2">  1       21 0.58222572E-01 0.42568732E+03</pdfrwt>
<totfact> 0.23272693E+03</totfact>
</mgrwt>
</event>
<event>
 6    1  0.9598567E-004  0.5501861E+03  0.7818608E-02  0.1001480E+00
         21   -1    0    0  503  502  0.00000000000E+00  0.00000000000E+00  0.12004665559E+04  0.12004665559E+04  0.00000000000E+00 0. -1.
         21   -1    0    0  501  503 -0.00000000000E+00 -0.00000000000E+00 -0.91479905077E+03  0.91479905077E+03  0.00000000000E+00 0.  1.
    9000007    2    1    2  501    0 -0.26156052766E+03 -0.27152884261E+03 -0.75745101332E+03  0.93618203647E+03  0.40070306442E+03 0.  0.
    9000005    1    3    3    0    0 -0.86779424178E+02 -0.11827188298E+03 -0.29957428439E+01  0.14672723412E+03  0.99999687468E+00 0.  0.
          4    1    3    3  501    0 -0.17478110348E+03 -0.15325695963E+03 -0.75445527047E+03  0.78945480235E+03  0.00000000000E+00 0.  1.
   -9000007    1    1    2    0  502  0.26156052766E+03  0.27152884261E+03  0.10431185185E+04  0.11790835702E+04  0.40000000000E+03 0. -1.
<mgrwt>
<rscale>  2 0.55005812E+03</rscale>
<asrwt>0</asrwt>
<pdfrwt beam="1">  1       21 0.18468716E+00 0.55018612E+03</pdfrwt>
<pdfrwt beam="2">  1       21 0.14073832E+00 0.55018612E+03</pdfrwt>
<totfact> 0.44217182E+01</totfact>
</mgrwt>
</event>
<event>
 6    1  0.9598567E-004  0.4834662E+03  0.7818608E-02  0.1018193E+00
         21   -1    0    0  503  502  0.00000000000E+00  0.00000000000E+00  0.57094515368E+03  0.57094515368E+03  0.00000000000E+00 0. -1.
         21   -1    0    0  501  503 -0.00000000000E+00 -0.00000000000E+00 -0.41444506905E+03  0.41444506905E+03  0.00000000000E+00 0. -1.
    9000007    2    1    2  501    0 -0.26466421458E+03 -0.60764894249E+02  0.13303520450E+03  0.50135497665E+03  0.39989864732E+03 0.  0.
    9000005    1    3    3    0    0 -0.26963622944E+03  0.58804170135E+02  0.22040170209E+03  0.35318484811E+03  0.99999687468E+00 0.  0.
          4    1    3    3  501    0  0.49720148692E+01 -0.11956906438E+03 -0.87366497595E+02  0.14817012854E+03  0.00000000000E+00 0.  1.
   -9000007    1    1    2    0  502  0.26466421458E+03  0.60764894249E+02  0.23464880141E+02  0.48403524608E+03  0.40000000000E+03 0. -1.
<mgrwt>
<rscale>  2 0.48344519E+03</rscale>
<asrwt>0</asrwt>
<pdfrwt beam="1">  1       21 0.87837717E-01 0.48346615E+03</pdfrwt>
<pdfrwt beam="2">  1       21 0.63760779E-01 0.48346615E+03</pdfrwt>
<totfact> 0.21578585E+03</totfact>
</mgrwt>
</event>
<event>
 6    1  0.9598567E-004  0.4073008E+03  0.7818608E-02  0.1041367E+00
         21   -1    0    0  503  502  0.00000000000E+00  0.00000000000E+00  0.36173162620E+03  0.36173162620E+03  0.00000000000E+00 0. -1.
         21   -1    0    0  501  503 -0.00000000000E+00 -0.00000000000E+00 -0.47384027706E+03  0.47384027706E+03  0.00000000000E+00 0. -1.
    9000007    2    1    2  501    0  0.55969736553E+02  0.52548091885E+02 -0.13366237163E+03  0.42770124208E+03  0.39895965901E+03 0.  0.
    9000005    1    3    3    0    0  0.18424634580E+03  0.85162391349E+02 -0.19531546598E+03  0.28168862258E+03  0.99999687468E+00 0.  0.
          4    1    3    3  501    0 -0.12827660925E+03 -0.32614299464E+02  0.61653094353E+02  0.14601261950E+03  0.00000000000E+00 0.  1.
   -9000007    1    1    2    0  502 -0.55969736553E+02 -0.52548091885E+02  0.21553720769E+02  0.40787066118E+03  0.40000000000E+03 0. -1.
<mgrwt>
<rscale>  2 0.40704511E+03</rscale>
<asrwt>0</asrwt>
<pdfrwt beam="1">  1       21 0.55651020E-01 0.40730077E+03</pdfrwt>
<pdfrwt beam="2">  1       21 0.72898504E-01 0.40730077E+03</pdfrwt>
<totfact> 0.45936708E+03</totfact>
</mgrwt>
</event>
<event>
 6    1  0.9598567E-004  0.4067675E+03  0.7818608E-02  0.1041477E+00
         21   -1    0    0  503  502  0.00000000000E+00  0.00000000000E+00  0.38444428405E+03  0.38444428405E+03  0.00000000000E+00 0. -1.
         21   -1    0    0  501  503 -0.00000000000E+00 -0.00000000000E+00 -0.90623475036E+03  0.90623475036E+03  0.00000000000E+00 0. -1.
    9000007    2    1    2  501    0 -0.50643906881E+02  0.53805206370E+02 -0.72859465845E+03  0.83435921299E+03  0.39980659629E+03 0.  0.
    9000005    1    3    3    0    0 -0.24288080913E+01 -0.17093876062E+03 -0.38151097456E+03  0.41806408922E+03  0.99999687468E+00 0.  0.
          4    1    3    3  501    0 -0.48215098790E+02  0.22474396699E+03 -0.34708368389E+03  0.41629512377E+03  0.00000000000E+00 0.  1.
   -9000007    1    1    2    0  502  0.50643906881E+02 -0.53805206370E+02  0.20680419215E+03  0.45631982143E+03  0.40000000000E+03 0. -1.
<mgrwt>
<rscale>  2 0.40671995E+03</rscale>
<asrwt>0</asrwt>
<pdfrwt beam="1">  1       21 0.59145275E-01 0.40676751E+03</pdfrwt>
<pdfrwt beam="2">  1       21 0.13942073E+00 0.40676751E+03</pdfrwt>
<totfact> 0.83080536E+02</totfact>
</mgrwt>
</event>
<event>
 6    1  0.9598567E-004  0.4145300E+03  0.7818608E-02  0.1038902E+00
         21   -1    0    0  503  502  0.00000000000E+00  0.00000000000E+00  0.92135297012E+03  0.92135297012E+03  0.00000000000E+00 0.  1.
         21   -1    0    0  501  503 -0.00000000000E+00 -0.00000000000E+00 -0.19417456676E+03  0.19417456676E+03  0.00000000000E+00 0.  1.
    9000007    2    1    2  501    0 -0.91367237223E+02  0.59051928520E+02  0.47582191428E+03  0.63074388730E+03  0.39949499991E+03 0.  0.
    9000005    1    3    3    0    0 -0.77695212667E+02  0.99536143369E+02 -0.24476630396E+02  0.12862385213E+03  0.99999687468E+00 0.  0.
          4    1    3    3  501    0 -0.13672024557E+02 -0.40484214850E+02  0.50029854468E+03  0.50212003517E+03  0.00000000000E+00 0.  1.
   -9000007    1    1    2    0  502  0.91367237223E+02 -0.59051928520E+02  0.25135648908E+03  0.48478364958E+03  0.40000000000E+03 0.  1.
<mgrwt>
<rscale>  2 0.41440810E+03</rscale>
<asrwt>0</asrwt>
<pdfrwt beam="1">  1       21 0.14174661E+00 0.41452998E+03</pdfrwt>
<pdfrwt beam="2">  1       21 0.29873011E-01 0.41452998E+03</pdfrwt>
<totfact> 0.32664537E+03</totfact>
</mgrwt>
</event>
<event>
 6    1  0.9598567E-004  0.4893769E+03  0.7818608E-02  0.1016770E+00
         21   -1    0    0  503  502  0.00000000000E+00  0.00000000000E+00  0.20520849665E+04  0.20520849665E+04  0.00000000000E+00 0.  1.
         21   -1    0    0  501  503 -0.00000000000E+00 -0.00000000000E+00 -0.21763209405E+03  0.21763209405E+03  0.00000000000E+00 0. -1.
    9000007    2    1    2  501    0 -0.27736739420E+03  0.50568015674E+02  0.14060164020E+03  0.50658864986E+03  0.39670321825E+03 0.  0.
    9000005    1    3    3    0    0 -0.59709775219E+02  0.81994796818E+02 -0.12550438120E+03  0.16137147720E+03  0.99999687468E+00 0.  0.
          4    1    3    3  501    0 -0.21765761898E+03 -0.31426781144E+02  0.26610602140E+03  0.34521717266E+03  0.00000000000E+00 0.  1.
   -9000007    1    1    2    0  502  0.27736739420E+03 -0.50568015674E+02  0.16938512323E+04  0.17631284107E+04  0.40000000000E+03 0.  1.
<mgrwt>
<rscale>  2 0.48870281E+03</rscale>
<asrwt>0</asrwt>
<pdfrwt beam="1">  1       21 0.31570537E+00 0.48937695E+03</pdfrwt>
<pdfrwt beam="2">  1       21 0.33481862E-01 0.48937695E+03</pdfrwt>
<totfact> 0.18093728E+02</totfact>
</mgrwt>
</event>
<event>
 6    1  0.9598567E-004  0.4609624E+03  0.7818608E-02  0.1024519E+00
         21   -1    0    0  503  502  0.00000000000E+00  0.00000000000E+00  0.14277473271E+03  0.14277473271E+03  0.00000000000E+00 0.  1.
         21   -1    0    0  501  503 -0.00000000000E+00 -0.00000000000E+00 -0.19973706448E+04  0.19973706448E+04  0.00000000000E+00 0.  1.
    9000007    2    1    2  501    0  0.12948395005E+03  0.18899789649E+03 -0.14677668983E+04  0.15383788247E+04  0.39972921127E+03 0.  0.
    9000005    1    3    3    0    0 -0.11166387420E+03 -0.48888093145E+02 -0.37511258362E+03  0.39442276410E+03  0.99999687468E+00 0.  0.
          4    1    3    3  501    0  0.24114782424E+03  0.23788598964E+03 -0.10926543146E+04  0.11439560606E+04  0.00000000000E+00 0.  1.
   -9000007    1    1    2    0  502 -0.12948395005E+03 -0.18899789649E+03 -0.38682901385E+03  0.60176655287E+03  0.40000000000E+03 0.  1.
<mgrwt>
<rscale>  2 0.46090361E+03</rscale>
<asrwt>0</asrwt>
<pdfrwt beam="1">  1       21 0.21965345E-01 0.46096236E+03</pdfrwt>
<pdfrwt beam="2">  1       21 0.30728778E+00 0.46096236E+03</pdfrwt>
<totfact> 0.47376264E+02</totfact>
</mgrwt>
</event>
<event>
 6    1  0.9598567E-004  0.4982897E+03  0.7818608E-02  0.1014271E+00
         21   -1    0    0  503  502  0.00000000000E+00  0.00000000000E+00  0.66786838341E+03  0.66786838341E+03  0.00000000000E+00 0.  1.
         21   -1    0    0  501  503 -0.00000000000E+00 -0.00000000000E+00 -0.47532417797E+03  0.47532417797E+03  0.00000000000E+00 0. -1.
    9000007    2    1    2  501    0 -0.11079195830E+02  0.29693418291E+03 -0.17122917497E+03  0.52624545680E+03  0.39915184189E+03 0.  0.
    9000005    1    3    3    0    0  0.43905366512E+02  0.27483939175E+03 -0.28475512271E+03  0.39818444516E+03  0.99999687468E+00 0.  0.
          4    1    3    3  501    0 -0.54984562342E+02  0.22094791161E+02  0.11352594774E+03  0.12806101164E+03  0.00000000000E+00 0.  1.
   -9000007    1    1    2    0  502  0.11079195830E+02 -0.29693418291E+03  0.36377338041E+03  0.61694710458E+03  0.40000000000E+03 0.  1.
<mgrwt>
<rscale>  2 0.49811950E+03</rscale>
<asrwt>0</asrwt>
<pdfrwt beam="1">  1       21 0.10274898E+00 0.49828973E+03</pdfrwt>
<pdfrwt beam="2">  1       21 0.73126796E-01 0.49828973E+03</pdfrwt>
<totfact> 0.10820444E+03</totfact>
</mgrwt>
</event>
<event>
 6    1  0.9598567E-004  0.4993729E+03  0.7818608E-02  0.1013949E+00
         21   -1    0    0  503  502  0.00000000000E+00  0.00000000000E+00  0.19501387857E+03  0.19501387857E+03  0.00000000000E+00 0.  1.
         21   -1    0    0  501  503 -0.00000000000E+00 -0.00000000000E+00 -0.13989305096E+04  0.13989305096E+04  0.00000000000E+00 0.  1.
    9000007    2    1    2  501    0  0.29458222407E+03  0.50022670970E+02 -0.83583687979E+03  0.97365118523E+03  0.40011546651E+03 0.  0.
    9000005    1    3    3    0    0  0.76932563514E+02  0.21364606889E+03 -0.37895081618E+03  0.44177820584E+03  0.99999687468E+00 0.  0.
          4    1    3    3  501    0  0.21764966056E+03 -0.16362339791E+03 -0.45688606361E+03  0.53187297939E+03  0.00000000000E+00 0.  1.
   -9000007    1    1    2    0  502 -0.29458222407E+03 -0.50022670970E+02 -0.36807975127E+03  0.62029320297E+03  0.40000000000E+03 0.  1.
<mgrwt>
<rscale>  2 0.49934982E+03</rscale>
<asrwt>0</asrwt>
<pdfrwt beam="1">  1       21 0.30002134E-01 0.49937295E+03</pdfrwt>
<pdfrwt beam="2">  1       21 0.21522008E+00 0.49937295E+03</pdfrwt>
<totfact> 0.93112311E+02</totfact>
</mgrwt>
</event>
<event>
 6    1  0.9598567E-004  0.5158473E+03  0.7818608E-02  0.1009779E+00
         21   -1    0    0  503  502  0.00000000000E+00  0.00000000000E+00  0.12677106393E+04  0.12677106393E+04  0.00000000000E+00 0.  1.
         21   -1    0    0  501  503 -0.00000000000E+00 -0.00000000000E+00 -0.21153083690E+03  0.21153083690E+03  0.00000000000E+00 0. -1.
    9000007    2    1    2  501    0 -0.25410477649E+03  0.20153444679E+03  0.45686611472E+03  0.68907550192E+03  0.40113966381E+03 0.  0.
    9000005    1    3    3    0    0 -0.47868246820E+02 -0.99482855519E+02  0.81239171066E+01  0.11070323220E+03  0.99999687468E+00 0.  0.
          4    1    3    3  501    0 -0.20623652967E+03  0.30101730231E+03  0.44874219761E+03  0.57837226972E+03  0.00000000000E+00 0.  1.
   -9000007    1    1    2    0  502  0.25410477649E+03 -0.20153444679E+03  0.59931368766E+03  0.79016597427E+03  0.40000000000E+03 0. -1.
<mgrwt>
<rscale>  2 0.51562569E+03</rscale>
<asrwt>0</asrwt>
<pdfrwt beam="1">  1       21 0.19503240E+00 0.51584726E+03</pdfrwt>
<pdfrwt beam="2">  1       21 0.32543207E-01 0.51584726E+03</pdfrwt>
<totfact> 0.10697456E+03</totfact>
</mgrwt>
</event>
<event>
 6    1  0.9598567E-004  0.4027921E+03  0.7818608E-02  0.1042832E+00
         21   -1    0    0  503  502  0.00000000000E+00  0.00000000000E+00  0.17812636984E+03  0.17812636984E+03  0.00000000000E+00 0.  1.
         21   -1    0    0  501  503 -0.00000000000E+00 -0.00000000000E+00 -0.14046142717E+04  0.14046142717E+04  0.00000000000E+00 0.  1.
    9000007    2    1    2  501    0 -0.35213969615E+02 -0.29399882844E+02 -0.10827272242E+04  0.11552227949E+04  0.40017132209E+03 0.  0.
    9000005    1    3    3    0    0  0.16215938758E+03 -0.14213167787E+02 -0.24305204073E+03  0.29252858940E+03  0.99999687468E+00 0.  0.
          4    1    3    3  501    0 -0.19737335719E+03 -0.15186715058E+02 -0.83967518351E+03  0.86269420552E+03  0.00000000000E+00 0.  1.
   -9000007    1    1    2    0  502  0.35213969615E+02  0.29399882844E+02 -0.14376067765E+03  0.42751784665E+03  0.40000000000E+03 0.  1.
<mgrwt>
<rscale>  2 0.40274953E+03</rscale>
<asrwt>0</asrwt>
<pdfrwt beam="1">  1       21 0.27404057E-01 0.40279209E+03</pdfrwt>
<pdfrwt beam="2">  1       21 0.21609450E+00 0.40279209E+03</pdfrwt>
<totfact> 0.11504377E+03</totfact>
</mgrwt>
</event>
<event>
 6    1  0.9598567E-004  0.4222566E+03  0.7818608E-02  0.1036586E+00
         21   -1    0    0  503  502  0.00000000000E+00  0.00000000000E+00  0.27695718307E+03  0.27695718307E+03  0.00000000000E+00 0.  1.
         21   -1    0    0  501  503 -0.00000000000E+00 -0.00000000000E+00 -0.98150029706E+03  0.98150029706E+03  0.00000000000E+00 0.  1.
    9000007    2    1    2  501    0  0.96226560249E+02  0.80192279417E+02 -0.72478246708E+03  0.83881479404E+03  0.40324965163E+03 0.  0.
    9000005    1    3    3    0    0 -0.14354272799E+03 -0.36100220683E+02 -0.18577789333E+03  0.23753350571E+03  0.99999687468E+00 0.  0.
          4    1    3    3  501    0  0.23976928824E+03  0.11629250010E+03 -0.53900457376E+03  0.60128128833E+03  0.00000000000E+00 0.  1.
   -9000007    1    1    2    0  502 -0.96226560249E+02 -0.80192279417E+02  0.20239353086E+02  0.41964268609E+03  0.40000000000E+03 0.  1.
<mgrwt>
<rscale>  2 0.42147888E+03</rscale>
<asrwt>0</asrwt>
<pdfrwt beam="1">  1       21 0.42608797E-01 0.42225660E+03</pdfrwt>
<pdfrwt beam="2">  1       21 0.15100005E+00 0.42225660E+03</pdfrwt>
<totfact> 0.13373247E+03</totfact>
</mgrwt>
</event>
<event>
 6    1  0.9598567E-004  0.4055700E+03  0.7818608E-02  0.1041890E+00
         21   -1    0    0  503  502  0.00000000000E+00  0.00000000000E+00  0.24772255944E+03  0.24772255944E+03  0.00000000000E+00 0.  1.
         21   -1    0    0  501  503 -0.00000000000E+00 -0.00000000000E+00 -0.75095381320E+03  0.75095381320E+03  0.00000000000E+00 0.  1.
    9000007    2    1    2  501    0  0.62247774788E+02  0.24743210413E+02 -0.81205922682E+02  0.41336244662E+03  0.39973378450E+03 0.  0.
    9000005    1    3    3    0    0  0.12252453616E+03 -0.16417795669E+03 -0.62480431584E+02  0.21417625393E+03  0.99999687468E+00 0.  0.
          4    1    3    3  501    0 -0.60276761370E+02  0.18892116710E+03 -0.18725491098E+02  0.19918619269E+03  0.00000000000E+00 0.  1.
   -9000007    1    1    2    0  502 -0.62247774788E+02 -0.24743210413E+02 -0.42202533108E+03  0.58531392603E+03  0.40000000000E+03 0.  1.
<mgrwt>
<rscale>  2 0.40550433E+03</rscale>
<asrwt>0</asrwt>
<pdfrwt beam="1">  1       21 0.38111164E-01 0.40556998E+03</pdfrwt>
<pdfrwt beam="2">  1       21 0.11553135E+00 0.40556998E+03</pdfrwt>
<totfact> 0.34041320E+03</totfact>
</mgrwt>
</event>
<event>
 6    1  0.9598567E-004  0.6851339E+03  0.7818608E-02  0.9743133E-01
         21   -1    0    0  503  502  0.00000000000E+00  0.00000000000E+00  0.43773846514E+03  0.43773846514E+03  0.00000000000E+00 0. -1.
         21   -1    0    0  501  503 -0.00000000000E+00 -0.00000000000E+00 -0.11796807969E+04  0.11796807969E+04  0.00000000000E+00 0. -1.
    9000007    2    1    2  501    0  0.43336151855E+02  0.55417622257E+03 -0.61552500915E+03  0.92102092257E+03  0.40052365123E+03 0.  0.
    9000005    1    3    3    0    0  0.34739436670E+02  0.58447628800E+03 -0.41409564372E+03  0.71714403145E+03  0.99999687468E+00 0.  0.
          4    1    3    3  501    0  0.85967151845E+01 -0.30300065429E+02 -0.20142936542E+03  0.20387689112E+03  0.00000000000E+00 0.  1.
   -9000007    1    1    2    0  502 -0.43336151855E+02 -0.55417622257E+03 -0.12641732258E+03  0.69639833944E+03  0.40000000000E+03 0. -1.
<mgrwt>
<rscale>  2 0.68505742E+03</rscale>
<asrwt>0</asrwt>
<pdfrwt beam="1">  1       21 0.67344379E-01 0.68513393E+03</pdfrwt>
<pdfrwt beam="2">  1       21 0.18148935E+00 0.68513393E+03</pdfrwt>
<totfact> 0.26706565E+02</totfact>
</mgrwt>
</event>
