<event>
 4    1  0.2358610E-002  0.4932594E+03  0.7818608E-02  0.1015553E+00
          1   -1    0    0  502    0  0.00000000000E+00  0.00000000000E+00  0.32263996786E+03  0.32263996786E+03  0.00000000000E+00 0. -1.
         -1   -1    0    0    0  501 -0.00000000000E+00 -0.00000000000E+00 -0.14351889520E+04  0.14351889520E+04  0.00000000000E+00 0.  1.
    9000005    1    1    2  502    0 -0.12602512038E+03  0.25965851909E+03 -0.11617435209E+04  0.12621223736E+04  0.40000000000E+03 0.  1.
   -9000005    1    1    2    0  501  0.12602512038E+03 -0.25965851909E+03  0.49194536843E+02  0.49570654621E+03  0.40000000000E+03 0. -1.
<mgrwt>
<rscale>  2 0.49325944E+03</rscale>
<asrwt>0</asrwt>
<pdfrwt beam="1">  1        1 0.49636918E-01 0.49325944E+03</pdfrwt>
<pdfrwt beam="2">  1       -1 0.22079830E+00 0.49325944E+03</pdfrwt>
<totfact> 0.93093708E+00</totfact>
</mgrwt>
</event>
<event>
 4    1  0.2358610E-002  0.4452947E+03  0.7818608E-02  0.1029135E+00
         -2   -1    0    0    0  501 -0.00000000000E+00  0.00000000000E+00  0.28711826632E+03  0.28711826632E+03  0.00000000000E+00 0.  1.
          2   -1    0    0  502    0  0.00000000000E+00 -0.00000000000E+00 -0.76806240963E+03  0.76806240963E+03  0.00000000000E+00 0. -1.
    9000005    1    1    2  502    0 -0.19447031183E+03  0.21648954056E+02 -0.40800873399E+03  0.60395240409E+03  0.40000000000E+03 0. -1.
   -9000005    1    1    2    0  501  0.19447031183E+03 -0.21648954056E+02 -0.72935409307E+02  0.45122827186E+03  0.40000000000E+03 0. -1.
<mgrwt>
<rscale>  2 0.44529471E+03</rscale>
<asrwt>0</asrwt>
<pdfrwt beam="1">  1        2 0.11816345E+00 0.44529471E+03</pdfrwt>
<pdfrwt beam="2">  1       -2 0.44172041E-01 0.44529471E+03</pdfrwt>
<totfact> 0.18211793E+02</totfact>
</mgrwt>
</event>
<event>
 4    1  0.2358610E-002  0.4042022E+03  0.7818608E-02  0.1042334E+00
          2   -1    0    0  502    0  0.00000000000E+00  0.00000000000E+00  0.15492199756E+04  0.15492199756E+04  0.00000000000E+00 0. -1.
         -2   -1    0    0    0  501 -0.00000000000E+00 -0.00000000000E+00 -0.13368835011E+03  0.13368835011E+03  0.00000000000E+00 0.  1.
    9000005    1    1    2  502    0 -0.48891877121E+02  0.31448554660E+02  0.32110252382E+03  0.51622307004E+03  0.40000000000E+03 0.  1.
   -9000005    1    1    2    0  501  0.48891877121E+02 -0.31448554660E+02  0.10944291017E+04  0.11666852557E+04  0.40000000000E+03 0.  1.
<mgrwt>
<rscale>  2 0.40420221E+03</rscale>
<asrwt>0</asrwt>
<pdfrwt beam="1">  1        2 0.23834152E+00 0.40420221E+03</pdfrwt>
<pdfrwt beam="2">  1       -2 0.20567440E-01 0.40420221E+03</pdfrwt>
<totfact> 0.25370959E+02</totfact>
</mgrwt>
</event>
<event>
 4    1  0.2358610E-002  0.4638378E+03  0.7818608E-02  0.1023674E+00
          1   -1    0    0  502    0  0.00000000000E+00  0.00000000000E+00  0.45403181473E+03  0.45403181473E+03  0.00000000000E+00 0.  1.
         -1   -1    0    0    0  501 -0.00000000000E+00 -0.00000000000E+00 -0.52427925239E+03  0.52427925239E+03  0.00000000000E+00 0. -1.
    9000005    1    1    2  502    0  0.22724373837E+03 -0.59209657194E+02 -0.18682280148E+03  0.50004825696E+03  0.40000000000E+03 0. -1.
   -9000005    1    1    2    0  501 -0.22724373837E+03  0.59209657194E+02  0.11657536381E+03  0.47826281016E+03  0.40000000000E+03 0.  1.
<mgrwt>
<rscale>  2 0.46383780E+03</rscale>
<asrwt>0</asrwt>
<pdfrwt beam="1">  1        1 0.69851048E-01 0.46383780E+03</pdfrwt>
<pdfrwt beam="2">  1       -1 0.80658347E-01 0.46383780E+03</pdfrwt>
<totfact> 0.81047217E+01</totfact>
</mgrwt>
</event>
<event>
 4    1  0.2358610E-002  0.5070026E+03  0.7818608E-02  0.1011967E+00
         -1   -1    0    0    0  501 -0.00000000000E+00  0.00000000000E+00  0.23523632336E+03  0.23523632336E+03  0.00000000000E+00 0.  1.
          1   -1    0    0  502    0  0.00000000000E+00 -0.00000000000E+00 -0.12023948608E+04  0.12023948608E+04  0.00000000000E+00 0. -1.
    9000005    1    1    2  502    0  0.12117733401E+03  0.28699775776E+03 -0.26650321173E+03  0.57277885881E+03  0.40000000000E+03 0. -1.
   -9000005    1    1    2    0  501 -0.12117733401E+03 -0.28699775776E+03 -0.70065532570E+03  0.86485232535E+03  0.40000000000E+03 0. -1.
<mgrwt>
<rscale>  2 0.50700262E+03</rscale>
<asrwt>0</asrwt>
<pdfrwt beam="1">  1        1 0.18498383E+00 0.50700262E+03</pdfrwt>
<pdfrwt beam="2">  1       -1 0.36190203E-01 0.50700262E+03</pdfrwt>
<totfact> 0.81627997E+01</totfact>
</mgrwt>
</event>
<event>
 4    1  0.2358610E-002  0.4545337E+03  0.7818608E-02  0.1026379E+00
         -1   -1    0    0    0  501 -0.00000000000E+00  0.00000000000E+00  0.63194894452E+03  0.63194894452E+03  0.00000000000E+00 0. -1.
          1   -1    0    0  502    0  0.00000000000E+00 -0.00000000000E+00 -0.33265577450E+03  0.33265577450E+03  0.00000000000E+00 0.  1.
    9000005    1    1    2  502    0 -0.16073880207E+03 -0.14409678836E+03  0.21294199985E+03  0.50194137327E+03  0.40000000000E+03 0. -1.
   -9000005    1    1    2    0  501  0.16073880207E+03  0.14409678836E+03  0.86351170177E+02  0.46266334575E+03  0.40000000000E+03 0.  1.
<mgrwt>
<rscale>  2 0.45453366E+03</rscale>
<asrwt>0</asrwt>
<pdfrwt beam="1">  1        1 0.51177812E-01 0.45453366E+03</pdfrwt>
<pdfrwt beam="2">  1       -1 0.97222914E-01 0.45453366E+03</pdfrwt>
<totfact> 0.81241998E+01</totfact>
</mgrwt>
</event>
<event>
 4    1  0.2358610E-002  0.4300913E+03  0.7818608E-02  0.1033831E+00
          2   -1    0    0  502    0  0.00000000000E+00  0.00000000000E+00  0.13294027533E+04  0.13294027533E+04  0.00000000000E+00 0.  1.
         -2   -1    0    0    0  501 -0.00000000000E+00 -0.00000000000E+00 -0.14621034502E+03  0.14621034502E+03  0.00000000000E+00 0. -1.
    9000005    1    1    2  502    0 -0.13488001968E+03 -0.82376466052E+02  0.42939693025E+03  0.60775013416E+03  0.40000000000E+03 0.  1.
   -9000005    1    1    2    0  501  0.13488001968E+03  0.82376466052E+02  0.75379547804E+03  0.86786296417E+03  0.40000000000E+03 0. -1.
<mgrwt>
<rscale>  2 0.43009127E+03</rscale>
<asrwt>0</asrwt>
<pdfrwt beam="1">  1        2 0.20452349E+00 0.43009127E+03</pdfrwt>
<pdfrwt beam="2">  1       -2 0.22493900E-01 0.43009127E+03</pdfrwt>
<totfact> 0.28578894E+02</totfact>
</mgrwt>
</event>
<event>
 4    1  0.2358610E-002  0.4318075E+03  0.7818608E-02  0.1033291E+00
         -2   -1    0    0    0  501 -0.00000000000E+00  0.00000000000E+00  0.21934393865E+03  0.21934393865E+03  0.00000000000E+00 0.  1.
          2   -1    0    0  502    0  0.00000000000E+00 -0.00000000000E+00 -0.90229166632E+03  0.90229166632E+03  0.00000000000E+00 0. -1.
    9000005    1    1    2  502    0 -0.12129000872E+03 -0.10838086032E+03 -0.47639318632E+03  0.64296823022E+03  0.40000000000E+03 0. -1.
   -9000005    1    1    2    0  501  0.12129000872E+03  0.10838086032E+03 -0.20655454135E+03  0.47866737475E+03  0.40000000000E+03 0.  1.
<mgrwt>
<rscale>  2 0.43180745E+03</rscale>
<asrwt>0</asrwt>
<pdfrwt beam="1">  1        2 0.13881410E+00 0.43180745E+03</pdfrwt>
<pdfrwt beam="2">  1       -2 0.33745222E-01 0.43180745E+03</pdfrwt>
<totfact> 0.24714753E+02</totfact>
</mgrwt>
</event>
<event>
 4    1  0.2358610E-002  0.5828379E+03  0.7818608E-02  0.9941666E-01
          2   -1    0    0  502    0  0.00000000000E+00  0.00000000000E+00  0.26882179122E+04  0.26882179122E+04  0.00000000000E+00 0. -1.
         -2   -1    0    0    0  501 -0.00000000000E+00 -0.00000000000E+00 -0.16391931102E+03  0.16391931102E+03  0.00000000000E+00 0.  1.
    9000005    1    1    2  502    0  0.24484722872E+03 -0.34604883723E+03  0.19447207958E+04  0.20301819959E+04  0.40000000000E+03 0. -1.
   -9000005    1    1    2    0  501 -0.24484722872E+03  0.34604883723E+03  0.57957780546E+03  0.82195522734E+03  0.40000000000E+03 0.  1.
<mgrwt>
<rscale>  2 0.58283785E+03</rscale>
<asrwt>0</asrwt>
<pdfrwt beam="1">  1        2 0.41357195E+00 0.58283785E+03</pdfrwt>
<pdfrwt beam="2">  1       -2 0.25218358E-01 0.58283785E+03</pdfrwt>
<totfact> 0.40955747E+01</totfact>
</mgrwt>
</event>
<event>
 4    1  0.2358610E-002  0.4419942E+03  0.7818608E-02  0.1030137E+00
          2   -1    0    0  502    0  0.00000000000E+00  0.00000000000E+00  0.36464919416E+03  0.36464919416E+03  0.00000000000E+00 0. -1.
         -2   -1    0    0    0  501 -0.00000000000E+00 -0.00000000000E+00 -0.69617812534E+03  0.69617812534E+03  0.00000000000E+00 0.  1.
    9000005    1    1    2  502    0 -0.77623825836E+02  0.17126987569E+03  0.88861158495E+02  0.45083825719E+03  0.40000000000E+03 0. -1.
   -9000005    1    1    2    0  501  0.77623825836E+02 -0.17126987569E+03 -0.42039008967E+03  0.60998906232E+03  0.40000000000E+03 0.  1.
<mgrwt>
<rscale>  2 0.44199415E+03</rscale>
<asrwt>0</asrwt>
<pdfrwt beam="1">  1        2 0.56099877E-01 0.44199415E+03</pdfrwt>
<pdfrwt beam="2">  1       -2 0.10710432E+00 0.44199415E+03</pdfrwt>
<totfact> 0.63898244E+01</totfact>
</mgrwt>
</event>
<event>
 4    1  0.2358610E-002  0.7621615E+03  0.7818608E-02  0.9616462E-01
         -2   -1    0    0    0  501 -0.00000000000E+00  0.00000000000E+00  0.70600327474E+03  0.70600327474E+03  0.00000000000E+00 0. -1.
          2   -1    0    0  502    0  0.00000000000E+00 -0.00000000000E+00 -0.11131157370E+04  0.11131157370E+04  0.00000000000E+00 0.  1.
    9000005    1    1    2  502    0 -0.20201104962E+03  0.61650765445E+03  0.26096561365E+03  0.80560114428E+03  0.40000000000E+03 0. -1.
   -9000005    1    1    2    0  501  0.20201104962E+03 -0.61650765445E+03 -0.66807807593E+03  0.10135178675E+04  0.40000000000E+03 0.  1.
<mgrwt>
<rscale>  2 0.76216150E+03</rscale>
<asrwt>0</asrwt>
<pdfrwt beam="1">  1        2 0.17124857E+00 0.76216150E+03</pdfrwt>
<pdfrwt beam="2">  1       -2 0.10861589E+00 0.76216150E+03</pdfrwt>
<totfact> 0.14730826E+01</totfact>
</mgrwt>
</event>
<event>
 4    1  0.2358610E-002  0.5702643E+03  0.7818608E-02  0.9969094E-01
          1   -1    0    0  502    0  0.00000000000E+00  0.00000000000E+00  0.19070658286E+04  0.19070658286E+04  0.00000000000E+00 0.  1.
         -1   -1    0    0    0  501 -0.00000000000E+00 -0.00000000000E+00 -0.21309703206E+03  0.21309703206E+03  0.00000000000E+00 0. -1.
    9000005    1    1    2  502    0 -0.14326934319E+03 -0.38036205653E+03  0.13208065884E+04  0.14386561238E+04  0.40000000000E+03 0.  1.
   -9000005    1    1    2    0  501  0.14326934319E+03  0.38036205653E+03  0.37316220817E+03  0.68150673684E+03  0.40000000000E+03 0. -1.
<mgrwt>
<rscale>  2 0.57026432E+03</rscale>
<asrwt>0</asrwt>
<pdfrwt beam="1">  1        1 0.29339473E+00 0.57026432E+03</pdfrwt>
<pdfrwt beam="2">  1       -1 0.32784160E-01 0.57026432E+03</pdfrwt>
<totfact> 0.31970989E+01</totfact>
</mgrwt>
</event>
<event>
 4    1  0.2358610E-002  0.5824955E+03  0.7818608E-02  0.9942403E-01
          1   -1    0    0  502    0  0.00000000000E+00  0.00000000000E+00  0.22224630288E+04  0.22224630288E+04  0.00000000000E+00 0.  1.
         -1   -1    0    0    0  501 -0.00000000000E+00 -0.00000000000E+00 -0.23917283423E+03  0.23917283423E+03  0.00000000000E+00 0. -1.
    9000005    1    1    2  502    0  0.12807490706E+03 -0.40360602730E+03  0.17318565422E+04  0.18271913118E+04  0.40000000000E+03 0. -1.
   -9000005    1    1    2    0  501 -0.12807490706E+03  0.40360602730E+03  0.25143365241E+03  0.63444455128E+03  0.40000000000E+03 0. -1.
<mgrwt>
<rscale>  2 0.58249550E+03</rscale>
<asrwt>0</asrwt>
<pdfrwt beam="1">  1        1 0.34191737E+00 0.58249550E+03</pdfrwt>
<pdfrwt beam="2">  1       -1 0.36795822E-01 0.58249550E+03</pdfrwt>
<totfact> 0.16045022E+01</totfact>
</mgrwt>
</event>
<event>
 4    1  0.2358610E-002  0.5479843E+03  0.7818608E-02  0.1001962E+00
         -2   -1    0    0    0  501 -0.00000000000E+00  0.00000000000E+00  0.19942428697E+03  0.19942428697E+03  0.00000000000E+00 0. -1.
          2   -1    0    0  502    0  0.00000000000E+00 -0.00000000000E+00 -0.15541071897E+04  0.15541071897E+04  0.00000000000E+00 0.  1.
    9000005    1    1    2  502    0  0.34945154634E+03  0.13479768584E+03 -0.52271252152E+03  0.75730784989E+03  0.40000000000E+03 0.  1.
   -9000005    1    1    2    0  501 -0.34945154634E+03 -0.13479768584E+03 -0.83197038124E+03  0.99622362681E+03  0.40000000000E+03 0.  1.
<mgrwt>
<rscale>  2 0.54798431E+03</rscale>
<asrwt>0</asrwt>
<pdfrwt beam="1">  1        2 0.23909340E+00 0.54798431E+03</pdfrwt>
<pdfrwt beam="2">  1       -2 0.30680661E-01 0.54798431E+03</pdfrwt>
<totfact> 0.12090827E+02</totfact>
</mgrwt>
</event>
<event>
 4    1  0.2358610E-002  0.5771191E+03  0.7818608E-02  0.9954048E-01
          2   -1    0    0  502    0  0.00000000000E+00  0.00000000000E+00  0.16523636564E+04  0.16523636564E+04  0.00000000000E+00 0.  1.
         -2   -1    0    0    0  501 -0.00000000000E+00 -0.00000000000E+00 -0.20939453374E+03  0.20939453374E+03  0.00000000000E+00 0. -1.
    9000005    1    1    2  502    0  0.10710179872E+03  0.40198962980E+03  0.54153616616E+03  0.79140879260E+03  0.40000000000E+03 0. -1.
   -9000005    1    1    2    0  501 -0.10710179872E+03 -0.40198962980E+03  0.90143295653E+03  0.10703493976E+04  0.40000000000E+03 0. -1.
<mgrwt>
<rscale>  2 0.57711910E+03</rscale>
<asrwt>0</asrwt>
<pdfrwt beam="1">  1        2 0.25420978E+00 0.57711910E+03</pdfrwt>
<pdfrwt beam="2">  1       -2 0.32214545E-01 0.57711910E+03</pdfrwt>
<totfact> 0.97240720E+01</totfact>
</mgrwt>
</event>
<event>
 4    1  0.2358610E-002  0.4547281E+03  0.7818608E-02  0.1026321E+00
         -2   -1    0    0    0  501 -0.00000000000E+00  0.00000000000E+00  0.89538761032E+02  0.89538761032E+02  0.00000000000E+00 0.  1.
          2   -1    0    0  502    0  0.00000000000E+00 -0.00000000000E+00 -0.24702624925E+04  0.24702624925E+04  0.00000000000E+00 0. -1.
    9000005    1    1    2  502    0 -0.13207156604E+03  0.17127383485E+03 -0.86371373388E+03  0.97610401042E+03  0.40000000000E+03 0.  1.
   -9000005    1    1    2    0  501  0.13207156604E+03 -0.17127383485E+03 -0.15170099976E+04  0.15836972431E+04  0.40000000000E+03 0. -1.
<mgrwt>
<rscale>  2 0.45472808E+03</rscale>
<asrwt>0</asrwt>
<pdfrwt beam="1">  1        2 0.38004031E+00 0.45472808E+03</pdfrwt>
<pdfrwt beam="2">  1       -2 0.13775197E-01 0.45472808E+03</pdfrwt>
<totfact> 0.15812677E+02</totfact>
</mgrwt>
</event>
<event>
 4    1  0.2358610E-002  0.4927550E+03  0.7818608E-02  0.1015687E+00
          2   -1    0    0  502    0  0.00000000000E+00  0.00000000000E+00  0.22785326459E+04  0.22785326459E+04  0.00000000000E+00 0.  1.
         -2   -1    0    0    0  501 -0.00000000000E+00 -0.00000000000E+00 -0.10904074896E+03  0.10904074896E+03  0.00000000000E+00 0. -1.
    9000005    1    1    2  502    0 -0.27949804024E+03 -0.68471632411E+02  0.90479606676E+03  0.10302734789E+04  0.40000000000E+03 0. -1.
   -9000005    1    1    2    0  501  0.27949804024E+03  0.68471632411E+02  0.12646958301E+04  0.13572999159E+04  0.40000000000E+03 0. -1.
<mgrwt>
<rscale>  2 0.49275503E+03</rscale>
<asrwt>0</asrwt>
<pdfrwt beam="1">  1        2 0.35054345E+00 0.49275503E+03</pdfrwt>
<pdfrwt beam="2">  1       -2 0.16775502E-01 0.49275503E+03</pdfrwt>
<totfact> 0.14391477E+02</totfact>
</mgrwt>
</event>
<event>
 4    1  0.2358610E-002  0.4146273E+03  0.7818608E-02  0.1038829E+00
          2   -1    0    0  502    0  0.00000000000E+00  0.00000000000E+00  0.76368862002E+03  0.76368862002E+03  0.00000000000E+00 0. -1.
         -2   -1    0    0    0  501 -0.00000000000E+00 -0.00000000000E+00 -0.27921108557E+03  0.27921108557E+03  0.00000000000E+00 0.  1.
    9000005    1    1    2  502    0  0.85346219904E+02  0.68057200447E+02  0.12708652621E+02  0.41482197342E+03  0.40000000000E+03 0.  1.
   -9000005    1    1    2    0  501 -0.85346219904E+02 -0.68057200447E+02  0.47176888183E+03  0.62807773217E+03  0.40000000000E+03 0. -1.
<mgrwt>
<rscale>  2 0.41462725E+03</rscale>
<asrwt>0</asrwt>
<pdfrwt beam="1">  1        2 0.11749056E+00 0.41462725E+03</pdfrwt>
<pdfrwt beam="2">  1       -2 0.42955552E-01 0.41462725E+03</pdfrwt>
<totfact> 0.19431413E+02</totfact>
</mgrwt>
</event>
<event>
 4    1  0.2358610E-002  0.4955165E+03  0.7818608E-02  0.1014956E+00
         -2   -1    0    0    0  501 -0.00000000000E+00  0.00000000000E+00  0.18510652523E+03  0.18510652523E+03  0.00000000000E+00 0. -1.
          2   -1    0    0  502    0  0.00000000000E+00 -0.00000000000E+00 -0.17576526746E+04  0.17576526746E+04  0.00000000000E+00 0.  1.
    9000005    1    1    2  502    0  0.28714704514E+03  0.55526534680E+02 -0.30514850348E+03  0.58193833931E+03  0.40000000000E+03 0. -1.
   -9000005    1    1    2    0  501 -0.28714704514E+03 -0.55526534680E+02 -0.12673976459E+04  0.13608208605E+04  0.40000000000E+03 0.  1.
<mgrwt>
<rscale>  2 0.49551652E+03</rscale>
<asrwt>0</asrwt>
<pdfrwt beam="1">  1        2 0.27040811E+00 0.49551652E+03</pdfrwt>
<pdfrwt beam="2">  1       -2 0.28477926E-01 0.49551652E+03</pdfrwt>
<totfact> 0.10831200E+02</totfact>
</mgrwt>
</event>
<event>
 4    1  0.2358610E-002  0.5950509E+03  0.7818608E-02  0.9915727E-01
         -2   -1    0    0    0  501 -0.00000000000E+00  0.00000000000E+00  0.30136334865E+03  0.30136334865E+03  0.00000000000E+00 0. -1.
          2   -1    0    0  502    0  0.00000000000E+00 -0.00000000000E+00 -0.12907319516E+04  0.12907319516E+04  0.00000000000E+00 0.  1.
    9000005    1    1    2  502    0 -0.29996924791E+02 -0.43952907612E+03 -0.25626072528E+03  0.64788516234E+03  0.40000000000E+03 0.  1.
   -9000005    1    1    2    0  501  0.29996924791E+02  0.43952907612E+03 -0.73310787770E+03  0.94421013795E+03  0.40000000000E+03 0.  1.
<mgrwt>
<rscale>  2 0.59505094E+03</rscale>
<asrwt>0</asrwt>
<pdfrwt beam="1">  1        2 0.19857415E+00 0.59505094E+03</pdfrwt>
<pdfrwt beam="2">  1       -2 0.46363591E-01 0.59505094E+03</pdfrwt>
<totfact> 0.76284219E+01</totfact>
</mgrwt>
</event>
<event>
 4    1  0.2358610E-002  0.4979691E+03  0.7818608E-02  0.1014310E+00
          2   -1    0    0  502    0  0.00000000000E+00  0.00000000000E+00  0.32668994282E+03  0.32668994282E+03  0.00000000000E+00 0. -1.
         -2   -1    0    0    0  501 -0.00000000000E+00 -0.00000000000E+00 -0.87055445790E+03  0.87055445790E+03  0.00000000000E+00 0.  1.
    9000005    1    1    2  502    0  0.24691626241E+03  0.16433387325E+03 -0.57689887061E+02  0.50129969640E+03  0.40000000000E+03 0. -1.
   -9000005    1    1    2    0  501 -0.24691626241E+03 -0.16433387325E+03 -0.48617462802E+03  0.69594470432E+03  0.40000000000E+03 0.  1.
<mgrwt>
<rscale>  2 0.49796914E+03</rscale>
<asrwt>0</asrwt>
<pdfrwt beam="1">  1        2 0.50259991E-01 0.49796914E+03</pdfrwt>
<pdfrwt beam="2">  1       -2 0.13393146E+00 0.49796914E+03</pdfrwt>
<totfact> 0.41437777E+01</totfact>
</mgrwt>
</event>
<event>
 4    1  0.2358610E-002  0.4185458E+03  0.7818608E-02  0.1037541E+00
         -1   -1    0    0    0  501 -0.00000000000E+00  0.00000000000E+00  0.11325888990E+03  0.11325888990E+03  0.00000000000E+00 0. -1.
          1   -1    0    0  502    0  0.00000000000E+00 -0.00000000000E+00 -0.23282539613E+04  0.23282539613E+04  0.00000000000E+00 0.  1.
    9000005    1    1    2  502    0 -0.77558651214E+02 -0.95735217370E+02 -0.18147685220E+04  0.18624084849E+04  0.40000000000E+03 0.  1.
   -9000005    1    1    2    0  501  0.77558651214E+02  0.95735217370E+02 -0.40022654946E+03  0.57910436634E+03  0.40000000000E+03 0. -1.
<mgrwt>
<rscale>  2 0.41854579E+03</rscale>
<asrwt>0</asrwt>
<pdfrwt beam="1">  1        1 0.35819288E+00 0.41854579E+03</pdfrwt>
<pdfrwt beam="2">  1       -1 0.17424446E-01 0.41854579E+03</pdfrwt>
<totfact> 0.50235407E+01</totfact>
</mgrwt>
</event>
<event>
 4    1  0.2358610E-002  0.4434501E+03  0.7818608E-02  0.1029693E+00
         -1   -1    0    0    0  501 -0.00000000000E+00  0.00000000000E+00  0.34111376897E+03  0.34111376897E+03  0.00000000000E+00 0. -1.
          1   -1    0    0  502    0  0.00000000000E+00 -0.00000000000E+00 -0.60685334566E+03  0.60685334566E+03  0.00000000000E+00 0.  1.
    9000005    1    1    2  502    0 -0.11973885436E+03  0.14936746029E+03 -0.26844432191E+02  0.44426192159E+03  0.40000000000E+03 0.  1.
   -9000005    1    1    2    0  501  0.11973885436E+03 -0.14936746029E+03 -0.23889514450E+03  0.50370519305E+03  0.40000000000E+03 0. -1.
<mgrwt>
<rscale>  2 0.44345015E+03</rscale>
<asrwt>0</asrwt>
<pdfrwt beam="1">  1        1 0.93362052E-01 0.44345015E+03</pdfrwt>
<pdfrwt beam="2">  1       -1 0.52479042E-01 0.44345015E+03</pdfrwt>
<totfact> 0.12848053E+02</totfact>
</mgrwt>
</event>
<event>
 4    1  0.2358610E-002  0.4047255E+03  0.7818608E-02  0.1042156E+00
         -1   -1    0    0    0  501 -0.00000000000E+00  0.00000000000E+00  0.29666141692E+03  0.29666141692E+03  0.00000000000E+00 0. -1.
          1   -1    0    0  502    0  0.00000000000E+00 -0.00000000000E+00 -0.55402033263E+03  0.55402033263E+03  0.00000000000E+00 0.  1.
    9000005    1    1    2  502    0 -0.49313823622E+02  0.37025465274E+02 -0.15336759323E+03  0.43280983923E+03  0.40000000000E+03 0.  1.
   -9000005    1    1    2    0  501  0.49313823622E+02 -0.37025465274E+02 -0.10399132248E+03  0.41787191032E+03  0.40000000000E+03 0. -1.
<mgrwt>
<rscale>  2 0.40472551E+03</rscale>
<asrwt>0</asrwt>
<pdfrwt beam="1">  1        1 0.85233897E-01 0.40472551E+03</pdfrwt>
<pdfrwt beam="2">  1       -1 0.45640218E-01 0.40472551E+03</pdfrwt>
<totfact> 0.19015066E+02</totfact>
</mgrwt>
</event>
<event>
 4    1  0.2358610E-002  0.4887023E+03  0.7818608E-02  0.1016771E+00
          2   -1    0    0  502    0  0.00000000000E+00  0.00000000000E+00  0.11401423835E+04  0.11401423835E+04  0.00000000000E+00 0.  1.
         -2   -1    0    0    0  501 -0.00000000000E+00 -0.00000000000E+00 -0.20984711189E+03  0.20984711189E+03  0.00000000000E+00 0. -1.
    9000005    1    1    2  502    0  0.19739574695E+03  0.19966195558E+03  0.49361679878E+03  0.69461321716E+03  0.40000000000E+03 0.  1.
   -9000005    1    1    2    0  501 -0.19739574695E+03 -0.19966195558E+03  0.43667847278E+03  0.65537627819E+03  0.40000000000E+03 0. -1.
<mgrwt>
<rscale>  2 0.48870234E+03</rscale>
<asrwt>0</asrwt>
<pdfrwt beam="1">  1        2 0.17540652E+00 0.48870234E+03</pdfrwt>
<pdfrwt beam="2">  1       -2 0.32284172E-01 0.48870234E+03</pdfrwt>
<totfact> 0.18986127E+02</totfact>
</mgrwt>
</event>
<event>
 4    1  0.2358610E-002  0.5095737E+03  0.7818608E-02  0.1011310E+00
          1   -1    0    0  502    0  0.00000000000E+00  0.00000000000E+00  0.19656728632E+04  0.19656728632E+04  0.00000000000E+00 0.  1.
         -1   -1    0    0    0  501 -0.00000000000E+00 -0.00000000000E+00 -0.15816183002E+03  0.15816183002E+03  0.00000000000E+00 0. -1.
    9000005    1    1    2  502    0  0.19490462899E+02 -0.31509599215E+03  0.13348201821E+04  0.14287792975E+04  0.40000000000E+03 0. -1.
   -9000005    1    1    2    0  501 -0.19490462899E+02  0.31509599215E+03  0.47269085105E+03  0.69505539569E+03  0.40000000000E+03 0.  1.
<mgrwt>
<rscale>  2 0.50957371E+03</rscale>
<asrwt>0</asrwt>
<pdfrwt beam="1">  1        1 0.30241119E+00 0.50957371E+03</pdfrwt>
<pdfrwt beam="2">  1       -1 0.24332591E-01 0.50957371E+03</pdfrwt>
<totfact> 0.49336318E+01</totfact>
</mgrwt>
</event>
<event>
 4    1  0.2358610E-002  0.4664402E+03  0.7818608E-02  0.1022930E+00
         -2   -1    0    0    0  501 -0.00000000000E+00  0.00000000000E+00  0.16949731128E+03  0.16949731128E+03  0.00000000000E+00 0.  1.
          2   -1    0    0  502    0  0.00000000000E+00 -0.00000000000E+00 -0.12962469679E+04  0.12962469679E+04  0.00000000000E+00 0. -1.
    9000005    1    1    2  502    0 -0.23907316540E+03 -0.20260077373E+02 -0.63576971478E+03  0.78852367078E+03  0.40000000000E+03 0. -1.
   -9000005    1    1    2    0  501  0.23907316540E+03  0.20260077373E+02 -0.49097994185E+03  0.67722060841E+03  0.40000000000E+03 0.  1.
<mgrwt>
<rscale>  2 0.46644019E+03</rscale>
<asrwt>0</asrwt>
<pdfrwt beam="1">  1        2 0.19942260E+00 0.46644019E+03</pdfrwt>
<pdfrwt beam="2">  1       -2 0.26076510E-01 0.46644019E+03</pdfrwt>
<totfact> 0.22847729E+02</totfact>
</mgrwt>
</event>
<event>
 4    1  0.2358610E-002  0.5131326E+03  0.7818608E-02  0.1010407E+00
          2   -1    0    0  502    0  0.00000000000E+00  0.00000000000E+00  0.11318916917E+04  0.11318916917E+04  0.00000000000E+00 0. -1.
         -2   -1    0    0    0  501 -0.00000000000E+00 -0.00000000000E+00 -0.26339697567E+03  0.26339697567E+03  0.00000000000E+00 0.  1.
    9000005    1    1    2  502    0 -0.46435243339E+02 -0.31803903116E+03  0.19578812243E+03  0.54921584650E+03  0.40000000000E+03 0. -1.
   -9000005    1    1    2    0  501  0.46435243339E+02  0.31803903116E+03  0.67270659364E+03  0.84607282091E+03  0.40000000000E+03 0. -1.
<mgrwt>
<rscale>  2 0.51313259E+03</rscale>
<asrwt>0</asrwt>
<pdfrwt beam="1">  1        2 0.17413718E+00 0.51313259E+03</pdfrwt>
<pdfrwt beam="2">  1       -2 0.40522612E-01 0.51313259E+03</pdfrwt>
<totfact> 0.12427640E+02</totfact>
</mgrwt>
</event>
<event>
 4    1  0.2358610E-002  0.4137531E+03  0.7818608E-02  0.1039119E+00
         -2   -1    0    0    0  501 -0.00000000000E+00  0.00000000000E+00  0.29279640540E+03  0.29279640540E+03  0.00000000000E+00 0. -1.
          2   -1    0    0  502    0  0.00000000000E+00 -0.00000000000E+00 -0.59586308700E+03  0.59586308700E+03  0.00000000000E+00 0.  1.
    9000005    1    1    2  502    0 -0.95293913924E+02 -0.45942195768E+02 -0.21241015533E+03  0.46509105503E+03  0.40000000000E+03 0.  1.
   -9000005    1    1    2    0  501  0.95293913924E+02  0.45942195768E+02 -0.90656526278E+02  0.42356843737E+03  0.40000000000E+03 0.  1.
<mgrwt>
<rscale>  2 0.41375309E+03</rscale>
<asrwt>0</asrwt>
<pdfrwt beam="1">  1        2 0.91671244E-01 0.41375309E+03</pdfrwt>
<pdfrwt beam="2">  1       -2 0.45045601E-01 0.41375309E+03</pdfrwt>
<totfact> 0.23992054E+02</totfact>
</mgrwt>
</event>
<event>
 4    1  0.2358610E-002  0.4109513E+03  0.7818608E-02  0.1040052E+00
         -1   -1    0    0    0  501 -0.00000000000E+00  0.00000000000E+00  0.13726706327E+03  0.13726706327E+03  0.00000000000E+00 0.  1.
          1   -1    0    0  502    0  0.00000000000E+00 -0.00000000000E+00 -0.17950933625E+04  0.17950933625E+04  0.00000000000E+00 0. -1.
    9000005    1    1    2  502    0 -0.78917821786E+02 -0.51506659256E+02 -0.13708588757E+04  0.14311306774E+04  0.40000000000E+03 0. -1.
   -9000005    1    1    2    0  501  0.78917821786E+02  0.51506659256E+02 -0.28696742353E+03  0.50122974843E+03  0.40000000000E+03 0.  1.
<mgrwt>
<rscale>  2 0.41095128E+03</rscale>
<asrwt>0</asrwt>
<pdfrwt beam="1">  1        1 0.27616821E+00 0.41095128E+03</pdfrwt>
<pdfrwt beam="2">  1       -1 0.21118010E-01 0.41095128E+03</pdfrwt>
<totfact> 0.82490497E+01</totfact>
</mgrwt>
</event>
<event>
 4    1  0.2358610E-002  0.4790110E+03  0.7818608E-02  0.1019407E+00
         -3   -1    0    0    0  501 -0.00000000000E+00  0.00000000000E+00  0.85648194089E+03  0.85648194089E+03  0.00000000000E+00 0. -1.
          3   -1    0    0  502    0  0.00000000000E+00 -0.00000000000E+00 -0.28695216408E+03  0.28695216408E+03  0.00000000000E+00 0.  1.
    9000005    1    1    2  502    0  0.26290684550E+03 -0.18207728633E+02  0.43208033946E+03  0.64509297822E+03  0.40000000000E+03 0.  1.
   -9000005    1    1    2    0  501 -0.26290684550E+03  0.18207728633E+02  0.13744943735E+03  0.49834112676E+03  0.40000000000E+03 0. -1.
<mgrwt>
<rscale>  2 0.47901099E+03</rscale>
<asrwt>0</asrwt>
<pdfrwt beam="1">  1        3 0.44146487E-01 0.47901099E+03</pdfrwt>
<pdfrwt beam="2">  1       -3 0.13176645E+00 0.47901099E+03</pdfrwt>
<totfact> 0.59964509E+00</totfact>
</mgrwt>
</event>
<event>
 4    1  0.2358610E-002  0.4756720E+03  0.7818608E-02  0.1020331E+00
          2   -1    0    0  502    0  0.00000000000E+00  0.00000000000E+00  0.20662206379E+04  0.20662206379E+04  0.00000000000E+00 0. -1.
         -2   -1    0    0    0  501 -0.00000000000E+00 -0.00000000000E+00 -0.11425434137E+03  0.11425434137E+03  0.00000000000E+00 0.  1.
    9000005    1    1    2  502    0 -0.24893283636E+02  0.25621125536E+03  0.11982365993E+04  0.12891992983E+04  0.40000000000E+03 0. -1.
   -9000005    1    1    2    0  501  0.24893283636E+02 -0.25621125536E+03  0.75372969729E+03  0.89127568099E+03  0.40000000000E+03 0.  1.
<mgrwt>
<rscale>  2 0.47567203E+03</rscale>
<asrwt>0</asrwt>
<pdfrwt beam="1">  1        2 0.31788007E+00 0.47567203E+03</pdfrwt>
<pdfrwt beam="2">  1       -2 0.17577593E-01 0.47567203E+03</pdfrwt>
<totfact> 0.17373450E+02</totfact>
</mgrwt>
</event>
<event>
 4    1  0.2358610E-002  0.5211207E+03  0.7818608E-02  0.1008409E+00
         -2   -1    0    0    0  501 -0.00000000000E+00  0.00000000000E+00  0.12805552919E+03  0.12805552919E+03  0.00000000000E+00 0.  1.
          2   -1    0    0  502    0  0.00000000000E+00 -0.00000000000E+00 -0.21216133882E+04  0.21216133882E+04  0.00000000000E+00 0. -1.
    9000005    1    1    2  502    0 -0.30306950690E+03  0.14041258231E+03 -0.10201719409E+04  0.11455643187E+04  0.40000000000E+03 0. -1.
   -9000005    1    1    2    0  501  0.30306950690E+03 -0.14041258231E+03 -0.97338591806E+03  0.11041045987E+04  0.40000000000E+03 0.  1.
<mgrwt>
<rscale>  2 0.52112073E+03</rscale>
<asrwt>0</asrwt>
<pdfrwt beam="1">  1        2 0.32640207E+00 0.52112073E+03</pdfrwt>
<pdfrwt beam="2">  1       -2 0.19700850E-01 0.52112073E+03</pdfrwt>
<totfact> 0.13236072E+02</totfact>
</mgrwt>
</event>
<event>
 4    1  0.2358610E-002  0.6643911E+03  0.7818608E-02  0.9780144E-01
          1   -1    0    0  502    0  0.00000000000E+00  0.00000000000E+00  0.32352178808E+04  0.32352178808E+04  0.00000000000E+00 0.  1.
         -1   -1    0    0    0  501 -0.00000000000E+00 -0.00000000000E+00 -0.18243653270E+03  0.18243653270E+03  0.00000000000E+00 0. -1.
    9000005    1    1    2  502    0 -0.41225242351E+03  0.33386148735E+03  0.23844182639E+04  0.24752506965E+04  0.40000000000E+03 0.  1.
   -9000005    1    1    2    0  501  0.41225242351E+03 -0.33386148735E+03  0.66836308417E+03  0.94240371694E+03  0.40000000000E+03 0. -1.
<mgrwt>
<rscale>  2 0.66439111E+03</rscale>
<asrwt>0</asrwt>
<pdfrwt beam="1">  1        1 0.49772579E+00 0.66439111E+03</pdfrwt>
<pdfrwt beam="2">  1       -1 0.28067161E-01 0.66439111E+03</pdfrwt>
<totfact> 0.50016200E+00</totfact>
</mgrwt>
</event>
<event>
 4    1  0.2358610E-002  0.4006003E+03  0.7818608E-02  0.1043572E+00
          1   -1    0    0  502    0  0.00000000000E+00  0.00000000000E+00  0.15244413957E+04  0.15244413957E+04  0.00000000000E+00 0. -1.
         -1   -1    0    0    0  501 -0.00000000000E+00 -0.00000000000E+00 -0.10768624842E+03  0.10768624842E+03  0.00000000000E+00 0.  1.
    9000005    1    1    2  502    0  0.19636010668E+02  0.97466291223E+01  0.58618071314E+03  0.70999182963E+03  0.40000000000E+03 0.  1.
   -9000005    1    1    2    0  501 -0.19636010668E+02 -0.97466291223E+01  0.83057443415E+03  0.92213581448E+03  0.40000000000E+03 0. -1.
<mgrwt>
<rscale>  2 0.40060026E+03</rscale>
<asrwt>0</asrwt>
<pdfrwt beam="1">  1        1 0.23452943E+00 0.40060026E+03</pdfrwt>
<pdfrwt beam="2">  1       -1 0.16567116E-01 0.40060026E+03</pdfrwt>
<totfact> 0.18590745E+02</totfact>
</mgrwt>
</event>
<event>
 4    1  0.2358610E-002  0.4151788E+03  0.7818608E-02  0.1038647E+00
         -2   -1    0    0    0  501 -0.00000000000E+00  0.00000000000E+00  0.26937726281E+03  0.26937726281E+03  0.00000000000E+00 0.  1.
          2   -1    0    0  502    0  0.00000000000E+00 -0.00000000000E+00 -0.64947469111E+03  0.64947469111E+03  0.00000000000E+00 0. -1.
    9000005    1    1    2  502    0 -0.41772628270E+02  0.10309446477E+03 -0.13425458405E+03  0.43634586566E+03  0.40000000000E+03 0.  1.
   -9000005    1    1    2    0  501  0.41772628270E+02 -0.10309446477E+03 -0.24584284425E+03  0.48250608826E+03  0.40000000000E+03 0. -1.
<mgrwt>
<rscale>  2 0.41517878E+03</rscale>
<asrwt>0</asrwt>
<pdfrwt beam="1">  1        2 0.99919183E-01 0.41517878E+03</pdfrwt>
<pdfrwt beam="2">  1       -2 0.41442656E-01 0.41517878E+03</pdfrwt>
<totfact> 0.25481359E+02</totfact>
</mgrwt>
</event>
<event>
 4    1  0.2358610E-002  0.5003961E+03  0.7818608E-02  0.1013676E+00
          2   -1    0    0  502    0  0.00000000000E+00  0.00000000000E+00  0.82158597153E+03  0.82158597153E+03  0.00000000000E+00 0.  1.
         -2   -1    0    0    0  501 -0.00000000000E+00 -0.00000000000E+00 -0.34071410816E+03  0.34071410816E+03  0.00000000000E+00 0. -1.
    9000005    1    1    2  502    0 -0.22444996242E+03 -0.20004620610E+03  0.51682029323E+02  0.50305795129E+03  0.40000000000E+03 0. -1.
   -9000005    1    1    2    0  501  0.22444996242E+03  0.20004620610E+03  0.42918983405E+03  0.65924212840E+03  0.40000000000E+03 0. -1.
<mgrwt>
<rscale>  2 0.50039611E+03</rscale>
<asrwt>0</asrwt>
<pdfrwt beam="1">  1        2 0.12639784E+00 0.50039611E+03</pdfrwt>
<pdfrwt beam="2">  1       -2 0.52417555E-01 0.50039611E+03</pdfrwt>
<totfact> 0.11776827E+02</totfact>
</mgrwt>
</event>
<event>
 4    1  0.2358610E-002  0.4679327E+03  0.7818608E-02  0.1022505E+00
          1   -1    0    0  502    0  0.00000000000E+00  0.00000000000E+00  0.72655080086E+03  0.72655080086E+03  0.00000000000E+00 0.  1.
         -1   -1    0    0    0  501 -0.00000000000E+00 -0.00000000000E+00 -0.13255812115E+04  0.13255812115E+04  0.00000000000E+00 0. -1.
    9000005    1    1    2  502    0 -0.24151206112E+03 -0.25158250549E+02  0.60240221674E+03  0.76279056363E+03  0.40000000000E+03 0.  1.
   -9000005    1    1    2    0  501  0.24151206112E+03  0.25158250549E+02 -0.12014326273E+04  0.12893414487E+04  0.40000000000E+03 0. -1.
<mgrwt>
<rscale>  2 0.46793270E+03</rscale>
<asrwt>0</asrwt>
<pdfrwt beam="1">  1        1 0.11177705E+00 0.46793270E+03</pdfrwt>
<pdfrwt beam="2">  1       -1 0.20393557E+00 0.46793270E+03</pdfrwt>
<totfact> 0.39964130E+00</totfact>
</mgrwt>
</event>
<event>
 4    1  0.2358610E-002  0.4648197E+03  0.7818608E-02  0.1023393E+00
         -2   -1    0    0    0  501 -0.00000000000E+00  0.00000000000E+00  0.45972599223E+03  0.45972599223E+03  0.00000000000E+00 0.  1.
          2   -1    0    0  502    0  0.00000000000E+00 -0.00000000000E+00 -0.49232342725E+03  0.49232342725E+03  0.00000000000E+00 0. -1.
    9000005    1    1    2  502    0  0.93092112306E+02 -0.21769518803E+03  0.85134025751E+02  0.47255173114E+03  0.40000000000E+03 0.  1.
   -9000005    1    1    2    0  501 -0.93092112306E+02  0.21769518803E+03 -0.11773146077E+03  0.47949768834E+03  0.40000000000E+03 0. -1.
<mgrwt>
<rscale>  2 0.46481968E+03</rscale>
<asrwt>0</asrwt>
<pdfrwt beam="1">  1        2 0.75742066E-01 0.46481968E+03</pdfrwt>
<pdfrwt beam="2">  1       -2 0.70727076E-01 0.46481968E+03</pdfrwt>
<totfact> 0.11721978E+02</totfact>
</mgrwt>
</event>
<event>
 4    1  0.2358610E-002  0.4648967E+03  0.7818608E-02  0.1023371E+00
         -2   -1    0    0    0  501 -0.00000000000E+00  0.00000000000E+00  0.37546774770E+03  0.37546774770E+03  0.00000000000E+00 0. -1.
          2   -1    0    0  502    0  0.00000000000E+00 -0.00000000000E+00 -0.58264006375E+03  0.58264006375E+03  0.00000000000E+00 0.  1.
    9000005    1    1    2  502    0  0.22705082205E+03 -0.67652239549E+02 -0.51023536381E+02  0.46768825362E+03  0.40000000000E+03 0.  1.
   -9000005    1    1    2    0  501 -0.22705082205E+03  0.67652239549E+02 -0.15614877968E+03  0.49041955783E+03  0.40000000000E+03 0. -1.
<mgrwt>
<rscale>  2 0.46489666E+03</rscale>
<asrwt>0</asrwt>
<pdfrwt beam="1">  1        2 0.89636933E-01 0.46489666E+03</pdfrwt>
<pdfrwt beam="2">  1       -2 0.57764269E-01 0.46489666E+03</pdfrwt>
<totfact> 0.14825717E+02</totfact>
</mgrwt>
</event>
<event>
 4    1  0.2358610E-002  0.4881038E+03  0.7818608E-02  0.1016931E+00
         -2   -1    0    0    0  501 -0.00000000000E+00  0.00000000000E+00  0.15787401615E+03  0.15787401615E+03  0.00000000000E+00 0.  1.
          2   -1    0    0  502    0  0.00000000000E+00 -0.00000000000E+00 -0.16760589423E+04  0.16760589423E+04  0.00000000000E+00 0. -1.
    9000005    1    1    2  502    0  0.14599439041E+03 -0.23860218602E+03 -0.46966968416E+03  0.67737358778E+03  0.40000000000E+03 0. -1.
   -9000005    1    1    2    0  501 -0.14599439041E+03  0.23860218602E+03 -0.10485152420E+04  0.11565593707E+04  0.40000000000E+03 0. -1.
<mgrwt>
<rscale>  2 0.48810385E+03</rscale>
<asrwt>0</asrwt>
<pdfrwt beam="1">  1        2 0.25785522E+00 0.48810385E+03</pdfrwt>
<pdfrwt beam="2">  1       -2 0.24288310E-01 0.48810385E+03</pdfrwt>
<totfact> 0.15990800E+02</totfact>
</mgrwt>
</event>
<event>
 4    1  0.2358610E-002  0.5330120E+03  0.7818608E-02  0.1005504E+00
          1   -1    0    0  502    0  0.00000000000E+00  0.00000000000E+00  0.48807415165E+03  0.48807415165E+03  0.00000000000E+00 0.  1.
         -1   -1    0    0    0  501 -0.00000000000E+00 -0.00000000000E+00 -0.64510124250E+03  0.64510124250E+03  0.00000000000E+00 0. -1.
    9000005    1    1    2  502    0  0.28617959097E+03 -0.20543381482E+03  0.98567144858E+02  0.54204916069E+03  0.40000000000E+03 0. -1.
   -9000005    1    1    2    0  501 -0.28617959097E+03  0.20543381482E+03 -0.25559423571E+03  0.59112623346E+03  0.40000000000E+03 0. -1.
<mgrwt>
<rscale>  2 0.53301202E+03</rscale>
<asrwt>0</asrwt>
<pdfrwt beam="1">  1        1 0.75088331E-01 0.53301202E+03</pdfrwt>
<pdfrwt beam="2">  1       -1 0.99246345E-01 0.53301202E+03</pdfrwt>
<totfact> 0.46416936E+01</totfact>
</mgrwt>
</event>
<event>
 4    1  0.2358610E-002  0.4039222E+03  0.7818608E-02  0.1042430E+00
          1   -1    0    0  502    0  0.00000000000E+00  0.00000000000E+00  0.15392786433E+04  0.15392786433E+04  0.00000000000E+00 0. -1.
         -1   -1    0    0    0  501 -0.00000000000E+00 -0.00000000000E+00 -0.11650639824E+03  0.11650639824E+03  0.00000000000E+00 0.  1.
    9000005    1    1    2  502    0  0.55887870921E+02 -0.54515138992E+01  0.96008000475E+03  0.10415885890E+04  0.40000000000E+03 0. -1.
   -9000005    1    1    2    0  501 -0.55887870921E+02  0.54515138992E+01  0.46269224027E+03  0.61419645255E+03  0.40000000000E+03 0.  1.
<mgrwt>
<rscale>  2 0.40392224E+03</rscale>
<asrwt>0</asrwt>
<pdfrwt beam="1">  1        1 0.23681208E+00 0.40392224E+03</pdfrwt>
<pdfrwt beam="2">  1       -1 0.17924062E-01 0.40392224E+03</pdfrwt>
<totfact> 0.15980912E+02</totfact>
</mgrwt>
</event>
<event>
 4    1  0.2358610E-002  0.4159853E+03  0.7818608E-02  0.1038381E+00
         -2   -1    0    0    0  501 -0.00000000000E+00  0.00000000000E+00  0.61108089049E+03  0.61108089049E+03  0.00000000000E+00 0. -1.
          2   -1    0    0  502    0  0.00000000000E+00 -0.00000000000E+00 -0.32739940498E+03  0.32739940498E+03  0.00000000000E+00 0.  1.
    9000005    1    1    2  502    0 -0.24472348301E+02 -0.11155648777E+03 -0.30615877152E+02  0.41711039034E+03  0.40000000000E+03 0.  1.
   -9000005    1    1    2    0  501  0.24472348301E+02  0.11155648777E+03  0.31429736267E+03  0.52136990513E+03  0.40000000000E+03 0. -1.
<mgrwt>
<rscale>  2 0.41598527E+03</rscale>
<asrwt>0</asrwt>
<pdfrwt beam="1">  1        2 0.50369139E-01 0.41598527E+03</pdfrwt>
<pdfrwt beam="2">  1       -2 0.94012444E-01 0.41598527E+03</pdfrwt>
<totfact> 0.97968006E+01</totfact>
</mgrwt>
</event>
<event>
 4    1  0.2358610E-002  0.5145949E+03  0.7818608E-02  0.1010038E+00
          2   -1    0    0  502    0  0.00000000000E+00  0.00000000000E+00  0.87213341543E+03  0.87213341543E+03  0.00000000000E+00 0.  1.
         -2   -1    0    0    0  501 -0.00000000000E+00 -0.00000000000E+00 -0.50920219588E+03  0.50920219588E+03  0.00000000000E+00 0. -1.
    9000005    1    1    2  502    0 -0.31939916447E+03 -0.52840185736E+02 -0.25737195078E+03  0.57536791059E+03  0.40000000000E+03 0. -1.
   -9000005    1    1    2    0  501  0.31939916447E+03  0.52840185736E+02  0.62030317032E+03  0.80596770072E+03  0.40000000000E+03 0.  1.
<mgrwt>
<rscale>  2 0.51459490E+03</rscale>
<asrwt>0</asrwt>
<pdfrwt beam="1">  1        2 0.13417437E+00 0.51459490E+03</pdfrwt>
<pdfrwt beam="2">  1       -2 0.78338800E-01 0.51459490E+03</pdfrwt>
<totfact> 0.46109635E+01</totfact>
</mgrwt>
</event>
<event>
 4    1  0.2358610E-002  0.4143339E+03  0.7818608E-02  0.1038926E+00
          2   -1    0    0  502    0  0.00000000000E+00  0.00000000000E+00  0.17505198147E+04  0.17505198147E+04  0.00000000000E+00 0. -1.
         -2   -1    0    0    0  501 -0.00000000000E+00 -0.00000000000E+00 -0.16095948875E+03  0.16095948875E+03  0.00000000000E+00 0.  1.
    9000005    1    1    2  502    0 -0.66779164926E+02 -0.84930281750E+02  0.19737075468E+03  0.45894207089E+03  0.40000000000E+03 0.  1.
   -9000005    1    1    2    0  501  0.66779164926E+02  0.84930281750E+02  0.13921895713E+04  0.14525372326E+04  0.40000000000E+03 0. -1.
<mgrwt>
<rscale>  2 0.41433393E+03</rscale>
<asrwt>0</asrwt>
<pdfrwt beam="1">  1        2 0.26931073E+00 0.41433393E+03</pdfrwt>
<pdfrwt beam="2">  1       -2 0.24762999E-01 0.41433393E+03</pdfrwt>
<totfact> 0.14241984E+02</totfact>
</mgrwt>
</event>
<event>
 4    1  0.2358610E-002  0.5687802E+03  0.7818608E-02  0.9972382E-01
         -1   -1    0    0    0  501 -0.00000000000E+00  0.00000000000E+00  0.56008820311E+03  0.56008820311E+03  0.00000000000E+00 0.  1.
          1   -1    0    0  502    0  0.00000000000E+00 -0.00000000000E+00 -0.59330040614E+03  0.59330040614E+03  0.00000000000E+00 0. -1.
    9000005    1    1    2  502    0 -0.17211758606E+03  0.36590492052E+03 -0.11039830955E+03  0.57939508200E+03  0.40000000000E+03 0. -1.
   -9000005    1    1    2    0  501  0.17211758606E+03 -0.36590492052E+03  0.77186106521E+02  0.57399352726E+03  0.40000000000E+03 0.  1.
<mgrwt>
<rscale>  2 0.56878016E+03</rscale>
<asrwt>0</asrwt>
<pdfrwt beam="1">  1        1 0.91276985E-01 0.56878016E+03</pdfrwt>
<pdfrwt beam="2">  1       -1 0.86167416E-01 0.56878016E+03</pdfrwt>
<totfact> 0.48157588E+01</totfact>
</mgrwt>
</event>
<event>
 4    1  0.2358610E-002  0.4135900E+03  0.7818608E-02  0.1039173E+00
         -1   -1    0    0    0  501 -0.00000000000E+00  0.00000000000E+00  0.10137560575E+03  0.10137560575E+03  0.00000000000E+00 0.  1.
          1   -1    0    0  502    0  0.00000000000E+00 -0.00000000000E+00 -0.17703172269E+04  0.17703172269E+04  0.00000000000E+00 0. -1.
    9000005    1    1    2  502    0  0.24284196339E+02  0.10230810939E+03 -0.10370609483E+04  0.11164909682E+04  0.40000000000E+03 0. -1.
   -9000005    1    1    2    0  501 -0.24284196339E+02 -0.10230810939E+03 -0.63188067286E+03  0.75520186452E+03  0.40000000000E+03 0.  1.
<mgrwt>
<rscale>  2 0.41358998E+03</rscale>
<asrwt>0</asrwt>
<pdfrwt beam="1">  1        1 0.27235649E+00 0.41358998E+03</pdfrwt>
<pdfrwt beam="2">  1       -1 0.15596248E-01 0.41358998E+03</pdfrwt>
<totfact> 0.14044880E+02</totfact>
</mgrwt>
</event>
<event>
 4    1  0.2358610E-002  0.4175831E+03  0.7818608E-02  0.1037856E+00
         -1   -1    0    0    0  501 -0.00000000000E+00  0.00000000000E+00  0.32586203536E+03  0.32586203536E+03  0.00000000000E+00 0. -1.
          1   -1    0    0  502    0  0.00000000000E+00 -0.00000000000E+00 -0.60689280580E+03  0.60689280580E+03  0.00000000000E+00 0.  1.
    9000005    1    1    2  502    0 -0.10273807538E+03 -0.61810688920E+02  0.19867471890E+02  0.41805548655E+03  0.40000000000E+03 0. -1.
   -9000005    1    1    2    0  501  0.10273807538E+03  0.61810688920E+02 -0.30089824233E+03  0.51469935461E+03  0.40000000000E+03 0.  1.
<mgrwt>
<rscale>  2 0.41758313E+03</rscale>
<asrwt>0</asrwt>
<pdfrwt beam="1">  1        1 0.93368123E-01 0.41758313E+03</pdfrwt>
<pdfrwt beam="2">  1       -1 0.50132621E-01 0.41758313E+03</pdfrwt>
<totfact> 0.14041588E+02</totfact>
</mgrwt>
</event>
<event>
 4    1  0.2358610E-002  0.4544517E+03  0.7818608E-02  0.1026403E+00
          2   -1    0    0  502    0  0.00000000000E+00  0.00000000000E+00  0.91912177998E+03  0.91912177998E+03  0.00000000000E+00 0.  1.
         -2   -1    0    0    0  501 -0.00000000000E+00 -0.00000000000E+00 -0.23989373759E+03  0.23989373759E+03  0.00000000000E+00 0. -1.
    9000005    1    1    2  502    0 -0.84015035401E+02 -0.19866511837E+03  0.48545746398E+03  0.66497767238E+03  0.40000000000E+03 0.  1.
   -9000005    1    1    2    0  501  0.84015035401E+02  0.19866511837E+03  0.19377057841E+03  0.49403784520E+03  0.40000000000E+03 0. -1.
<mgrwt>
<rscale>  2 0.45445171E+03</rscale>
<asrwt>0</asrwt>
<pdfrwt beam="1">  1        2 0.14140335E+00 0.45445171E+03</pdfrwt>
<pdfrwt beam="2">  1       -2 0.36906729E-01 0.45445171E+03</pdfrwt>
<totfact> 0.20300540E+02</totfact>
</mgrwt>
</event>
<event>
 4    1  0.2358610E-002  0.4768891E+03  0.7818608E-02  0.1019994E+00
         -2   -1    0    0    0  501 -0.00000000000E+00  0.00000000000E+00  0.35309488165E+03  0.35309488165E+03  0.00000000000E+00 0.  1.
          2   -1    0    0  502    0  0.00000000000E+00 -0.00000000000E+00 -0.67073499569E+03  0.67073499569E+03  0.00000000000E+00 0. -1.
    9000005    1    1    2  502    0  0.14928122477E+03  0.21245776320E+03 -0.26085979012E+03  0.54357245637E+03  0.40000000000E+03 0. -1.
   -9000005    1    1    2    0  501 -0.14928122477E+03 -0.21245776320E+03 -0.56780323914E+02  0.48025742097E+03  0.40000000000E+03 0. -1.
<mgrwt>
<rscale>  2 0.47688907E+03</rscale>
<asrwt>0</asrwt>
<pdfrwt beam="1">  1        2 0.10319000E+00 0.47688907E+03</pdfrwt>
<pdfrwt beam="2">  1       -2 0.54322290E-01 0.47688907E+03</pdfrwt>
<totfact> 0.14197212E+02</totfact>
</mgrwt>
</event>
<event>
 4    1  0.2358610E-002  0.4609306E+03  0.7818608E-02  0.1024512E+00
          1   -1    0    0  502    0  0.00000000000E+00  0.00000000000E+00  0.18590233840E+04  0.18590233840E+04  0.00000000000E+00 0. -1.
         -1   -1    0    0    0  501 -0.00000000000E+00 -0.00000000000E+00 -0.11456167323E+03  0.11456167323E+03  0.00000000000E+00 0.  1.
    9000005    1    1    2  502    0  0.16015770638E+03  0.16372701195E+03  0.92079392601E+03  0.10297176698E+04  0.40000000000E+03 0. -1.
   -9000005    1    1    2    0  501 -0.16015770638E+03 -0.16372701195E+03  0.82366778476E+03  0.94386738740E+03  0.40000000000E+03 0. -1.
<mgrwt>
<rscale>  2 0.46093061E+03</rscale>
<asrwt>0</asrwt>
<pdfrwt beam="1">  1        1 0.28600358E+00 0.46093061E+03</pdfrwt>
<pdfrwt beam="2">  1       -1 0.17624874E-01 0.46093061E+03</pdfrwt>
<totfact> 0.99893071E+01</totfact>
</mgrwt>
</event>
<event>
 4    1  0.2358610E-002  0.4323904E+03  0.7818608E-02  0.1033108E+00
         -2   -1    0    0    0  501 -0.00000000000E+00  0.00000000000E+00  0.70747774814E+03  0.70747774814E+03  0.00000000000E+00 0. -1.
          2   -1    0    0  502    0  0.00000000000E+00 -0.00000000000E+00 -0.40504814793E+03  0.40504814793E+03  0.00000000000E+00 0.  1.
    9000005    1    1    2  502    0 -0.79107818445E+02 -0.14388668290E+03 -0.17673135377E+03  0.46711390031E+03  0.40000000000E+03 0.  1.
   -9000005    1    1    2    0  501  0.79107818445E+02  0.14388668290E+03  0.47916095398E+03  0.64541199576E+03  0.40000000000E+03 0.  1.
<mgrwt>
<rscale>  2 0.43239036E+03</rscale>
<asrwt>0</asrwt>
<pdfrwt beam="1">  1        2 0.62315100E-01 0.43239036E+03</pdfrwt>
<pdfrwt beam="2">  1       -2 0.10884273E+00 0.43239036E+03</pdfrwt>
<totfact> 0.54785664E+01</totfact>
</mgrwt>
</event>
<event>
 4    1  0.2358610E-002  0.4120154E+03  0.7818608E-02  0.1039697E+00
         -2   -1    0    0    0  501 -0.00000000000E+00  0.00000000000E+00  0.29964261095E+03  0.29964261095E+03  0.00000000000E+00 0.  1.
          2   -1    0    0  502    0  0.00000000000E+00 -0.00000000000E+00 -0.74906071203E+03  0.74906071203E+03  0.00000000000E+00 0. -1.
    9000005    1    1    2  502    0 -0.48542629343E+02 -0.86025018882E+02 -0.48354909652E+03  0.63527664799E+03  0.40000000000E+03 0. -1.
   -9000005    1    1    2    0  501  0.48542629343E+02  0.86025018882E+02  0.34130995438E+02  0.41342667498E+03  0.40000000000E+03 0.  1.
<mgrwt>
<rscale>  2 0.41201540E+03</rscale>
<asrwt>0</asrwt>
<pdfrwt beam="1">  1        2 0.11524011E+00 0.41201540E+03</pdfrwt>
<pdfrwt beam="2">  1       -2 0.46098864E-01 0.41201540E+03</pdfrwt>
<totfact> 0.17331343E+02</totfact>
</mgrwt>
</event>
<event>
 4    1  0.2358610E-002  0.4924802E+03  0.7818608E-02  0.1015761E+00
          2   -1    0    0  502    0  0.00000000000E+00  0.00000000000E+00  0.66316603674E+03  0.66316603674E+03  0.00000000000E+00 0. -1.
         -2   -1    0    0    0  501 -0.00000000000E+00 -0.00000000000E+00 -0.40695077699E+03  0.40695077699E+03  0.00000000000E+00 0.  1.
    9000005    1    1    2  502    0  0.98771958171E+02  0.26977932539E+03  0.29840644066E+03  0.57583260411E+03  0.40000000000E+03 0. -1.
   -9000005    1    1    2    0  501 -0.98771958171E+02 -0.26977932539E+03 -0.42191180914E+02  0.49428420961E+03  0.40000000000E+03 0.  1.
<mgrwt>
<rscale>  2 0.49248024E+03</rscale>
<asrwt>0</asrwt>
<pdfrwt beam="1">  1        2 0.10202554E+00 0.49248024E+03</pdfrwt>
<pdfrwt beam="2">  1       -2 0.62607812E-01 0.49248024E+03</pdfrwt>
<totfact> 0.10691985E+02</totfact>
</mgrwt>
</event>
<event>
 4    1  0.2358610E-002  0.6128576E+03  0.7818608E-02  0.9879084E-01
         -2   -1    0    0    0  501 -0.00000000000E+00  0.00000000000E+00  0.24835290667E+03  0.24835290667E+03  0.00000000000E+00 0. -1.
          2   -1    0    0  502    0  0.00000000000E+00 -0.00000000000E+00 -0.16318049031E+04  0.16318049031E+04  0.00000000000E+00 0.  1.
    9000005    1    1    2  502    0 -0.43834436566E+02 -0.46224773063E+03 -0.94608524041E+03  0.11272407482E+04  0.40000000000E+03 0.  1.
   -9000005    1    1    2    0  501  0.43834436566E+02  0.46224773063E+03 -0.43736675598E+03  0.75291706152E+03  0.40000000000E+03 0. -1.
<mgrwt>
<rscale>  2 0.61285759E+03</rscale>
<asrwt>0</asrwt>
<pdfrwt beam="1">  1        2 0.25104690E+00 0.61285759E+03</pdfrwt>
<pdfrwt beam="2">  1       -2 0.38208140E-01 0.61285759E+03</pdfrwt>
<totfact> 0.71851729E+01</totfact>
</mgrwt>
</event>
<event>
 4    1  0.2358610E-002  0.4053052E+03  0.7818608E-02  0.1041958E+00
         -1   -1    0    0    0  501 -0.00000000000E+00  0.00000000000E+00  0.67758321331E+03  0.67758321331E+03  0.00000000000E+00 0. -1.
          1   -1    0    0  502    0  0.00000000000E+00 -0.00000000000E+00 -0.32086717594E+03  0.32086717594E+03  0.00000000000E+00 0.  1.
    9000005    1    1    2  502    0  0.59626740907E+02  0.26776180487E+02  0.42517274530E+03  0.58740460964E+03  0.40000000000E+03 0. -1.
   -9000005    1    1    2    0  501 -0.59626740907E+02 -0.26776180487E+02 -0.68456707933E+02  0.41104577961E+03  0.40000000000E+03 0.  1.
<mgrwt>
<rscale>  2 0.40530521E+03</rscale>
<asrwt>0</asrwt>
<pdfrwt beam="1">  1        1 0.49364181E-01 0.40530521E+03</pdfrwt>
<pdfrwt beam="2">  1       -1 0.10424357E+00 0.40530521E+03</pdfrwt>
<totfact> 0.73105112E+01</totfact>
</mgrwt>
</event>
<event>
 4    1  0.2358610E-002  0.4097485E+03  0.7818608E-02  0.1040455E+00
         -2   -1    0    0    0  501 -0.00000000000E+00  0.00000000000E+00  0.19850224520E+03  0.19850224520E+03  0.00000000000E+00 0.  1.
          2   -1    0    0  502    0  0.00000000000E+00 -0.00000000000E+00 -0.11698146571E+04  0.11698146571E+04  0.00000000000E+00 0. -1.
    9000005    1    1    2  502    0  0.82776845105E+02 -0.32277608777E+02 -0.84571904094E+03  0.93975238564E+03  0.40000000000E+03 0. -1.
   -9000005    1    1    2    0  501 -0.82776845105E+02  0.32277608777E+02 -0.12559337097E+03  0.42856451667E+03  0.40000000000E+03 0.  1.
<mgrwt>
<rscale>  2 0.40974852E+03</rscale>
<asrwt>0</asrwt>
<pdfrwt beam="1">  1        2 0.17997148E+00 0.40974852E+03</pdfrwt>
<pdfrwt beam="2">  1       -2 0.30538807E-01 0.40974852E+03</pdfrwt>
<totfact> 0.20386700E+02</totfact>
</mgrwt>
</event>
<event>
 4    1  0.2358610E-002  0.4382735E+03  0.7818608E-02  0.1031278E+00
         -2   -1    0    0    0  501 -0.00000000000E+00  0.00000000000E+00  0.83904032565E+03  0.83904032565E+03  0.00000000000E+00 0.  1.
          2   -1    0    0  502    0  0.00000000000E+00 -0.00000000000E+00 -0.44129210403E+03  0.44129210403E+03  0.00000000000E+00 0. -1.
    9000005    1    1    2  502    0 -0.99913576740E+02 -0.14866381177E+03  0.64295855592E+03  0.77812554024E+03  0.40000000000E+03 0.  1.
   -9000005    1    1    2    0  501  0.99913576740E+02  0.14866381177E+03 -0.24521033430E+03  0.50220688943E+03  0.40000000000E+03 0. -1.
<mgrwt>
<rscale>  2 0.43827349E+03</rscale>
<asrwt>0</asrwt>
<pdfrwt beam="1">  1        2 0.67891093E-01 0.43827349E+03</pdfrwt>
<pdfrwt beam="2">  1       -2 0.12908313E+00 0.43827349E+03</pdfrwt>
<totfact> 0.32779528E+01</totfact>
</mgrwt>
</event>
<event>
 4    1  0.2358610E-002  0.5265205E+03  0.7818608E-02  0.1007079E+00
          1   -1    0    0  502    0  0.00000000000E+00  0.00000000000E+00  0.12658716143E+04  0.12658716143E+04  0.00000000000E+00 0. -1.
         -1   -1    0    0    0  501 -0.00000000000E+00 -0.00000000000E+00 -0.22439165845E+03  0.22439165845E+03  0.00000000000E+00 0.  1.
    9000005    1    1    2  502    0  0.34206004917E+03  0.14792023916E+02  0.63625927335E+03  0.82586302989E+03  0.40000000000E+03 0. -1.
   -9000005    1    1    2    0  501 -0.34206004917E+03 -0.14792023916E+02  0.40522068255E+03  0.66440024291E+03  0.40000000000E+03 0.  1.
<mgrwt>
<rscale>  2 0.52652054E+03</rscale>
<asrwt>0</asrwt>
<pdfrwt beam="1">  1        1 0.19474947E+00 0.52652054E+03</pdfrwt>
<pdfrwt beam="2">  1       -1 0.34521794E-01 0.52652054E+03</pdfrwt>
<totfact> 0.79788544E+01</totfact>
</mgrwt>
</event>
<event>
 4    1  0.2358610E-002  0.4480076E+03  0.7818608E-02  0.1028318E+00
         -2   -1    0    0    0  501 -0.00000000000E+00  0.00000000000E+00  0.65211560573E+03  0.65211560573E+03  0.00000000000E+00 0.  1.
          2   -1    0    0  502    0  0.00000000000E+00 -0.00000000000E+00 -0.54177616147E+03  0.54177616147E+03  0.00000000000E+00 0. -1.
    9000005    1    1    2  502    0  0.67742307501E+02  0.19005740456E+03  0.44747625988E+03  0.63320284302E+03  0.40000000000E+03 0.  1.
   -9000005    1    1    2    0  501 -0.67742307501E+02 -0.19005740456E+03 -0.33713681562E+03  0.56068892418E+03  0.40000000000E+03 0. -1.
<mgrwt>
<rscale>  2 0.44800763E+03</rscale>
<asrwt>0</asrwt>
<pdfrwt beam="1">  1        2 0.83350178E-01 0.44800763E+03</pdfrwt>
<pdfrwt beam="2">  1       -2 0.10032548E+00 0.44800763E+03</pdfrwt>
<totfact> 0.47749797E+01</totfact>
</mgrwt>
</event>
<event>
 4    1  0.2358610E-002  0.4785036E+03  0.7818608E-02  0.1019547E+00
         -2   -1    0    0    0  501 -0.00000000000E+00  0.00000000000E+00  0.14119327908E+03  0.14119327908E+03  0.00000000000E+00 0.  1.
          2   -1    0    0  502    0  0.00000000000E+00 -0.00000000000E+00 -0.16609621345E+04  0.16609621345E+04  0.00000000000E+00 0. -1.
    9000005    1    1    2  502    0 -0.22892747523E+03 -0.12867751142E+03 -0.62125323644E+03  0.78416916201E+03  0.40000000000E+03 0. -1.
   -9000005    1    1    2    0  501  0.22892747523E+03  0.12867751142E+03 -0.89851561901E+03  0.10179862516E+04  0.40000000000E+03 0. -1.
<mgrwt>
<rscale>  2 0.47850360E+03</rscale>
<asrwt>0</asrwt>
<pdfrwt beam="1">  1        2 0.25553265E+00 0.47850360E+03</pdfrwt>
<pdfrwt beam="2">  1       -2 0.21722042E-01 0.47850360E+03</pdfrwt>
<totfact> 0.19877762E+02</totfact>
</mgrwt>
</event>
<event>
 4    1  0.2358610E-002  0.5708795E+03  0.7818608E-02  0.9967734E-01
          2   -1    0    0  502    0  0.00000000000E+00  0.00000000000E+00  0.43623158532E+04  0.43623158532E+04  0.00000000000E+00 0. -1.
         -2   -1    0    0    0  501 -0.00000000000E+00 -0.00000000000E+00 -0.94835915184E+02  0.94835915184E+02  0.00000000000E+00 0.  1.
    9000005    1    1    2  502    0 -0.23684294139E+03  0.33137410529E+03  0.31604121345E+04  0.32115585370E+04  0.40000000000E+03 0. -1.
   -9000005    1    1    2    0  501  0.23684294139E+03 -0.33137410529E+03  0.11070678035E+04  0.12455932314E+04  0.40000000000E+03 0.  1.
<mgrwt>
<rscale>  2 0.57087948E+03</rscale>
<asrwt>0</asrwt>
<pdfrwt beam="1">  1        2 0.67112536E+00 0.57087948E+03</pdfrwt>
<pdfrwt beam="2">  1       -2 0.14590144E-01 0.57087948E+03</pdfrwt>
<totfact> 0.71740129E+00</totfact>
</mgrwt>
</event>
<event>
 4    1  0.2358610E-002  0.4232870E+03  0.7818608E-02  0.1036002E+00
         -2   -1    0    0    0  501 -0.00000000000E+00  0.00000000000E+00  0.12987346090E+03  0.12987346090E+03  0.00000000000E+00 0.  1.
          2   -1    0    0  502    0  0.00000000000E+00 -0.00000000000E+00 -0.14505571714E+04  0.14505571714E+04  0.00000000000E+00 0. -1.
    9000005    1    1    2  502    0 -0.13429905259E+03 -0.33699221306E+02 -0.48555338947E+03  0.64415368280E+03  0.40000000000E+03 0.  1.
   -9000005    1    1    2    0  501  0.13429905259E+03  0.33699221306E+02 -0.83513032099E+03  0.93627694945E+03  0.40000000000E+03 0. -1.
<mgrwt>
<rscale>  2 0.42328699E+03</rscale>
<asrwt>0</asrwt>
<pdfrwt beam="1">  1        2 0.22316264E+00 0.42328699E+03</pdfrwt>
<pdfrwt beam="2">  1       -2 0.19980533E-01 0.42328699E+03</pdfrwt>
<totfact> 0.30127061E+02</totfact>
</mgrwt>
</event>
<event>
 4    1  0.2358610E-002  0.4372170E+03  0.7818608E-02  0.1031604E+00
          2   -1    0    0  502    0  0.00000000000E+00  0.00000000000E+00  0.57732211118E+03  0.57732211118E+03  0.00000000000E+00 0. -1.
         -2   -1    0    0    0  501 -0.00000000000E+00 -0.00000000000E+00 -0.33120947695E+03  0.33120947695E+03  0.00000000000E+00 0.  1.
    9000005    1    1    2  502    0  0.77761720387E+02  0.15846715972E+03  0.11529423992E+03  0.45216312059E+03  0.40000000000E+03 0.  1.
   -9000005    1    1    2    0  501 -0.77761720387E+02 -0.15846715972E+03  0.13081839431E+03  0.45636846753E+03  0.40000000000E+03 0.  1.
<mgrwt>
<rscale>  2 0.43721702E+03</rscale>
<asrwt>0</asrwt>
<pdfrwt beam="1">  1        2 0.88818786E-01 0.43721702E+03</pdfrwt>
<pdfrwt beam="2">  1       -2 0.50955304E-01 0.43721702E+03</pdfrwt>
<totfact> 0.19428648E+02</totfact>
</mgrwt>
</event>
<event>
 4    1  0.2358610E-002  0.4038318E+03  0.7818608E-02  0.1042461E+00
          1   -1    0    0  502    0  0.00000000000E+00  0.00000000000E+00  0.48491227244E+03  0.48491227244E+03  0.00000000000E+00 0.  1.
         -1   -1    0    0    0  501 -0.00000000000E+00 -0.00000000000E+00 -0.33951676678E+03  0.33951676678E+03  0.00000000000E+00 0. -1.
    9000005    1    1    2  502    0 -0.34527533299E+02  0.43450679330E+02  0.11276863192E+03  0.41928138098E+03  0.40000000000E+03 0. -1.
   -9000005    1    1    2    0  501  0.34527533299E+02 -0.43450679330E+02  0.32626873741E+02  0.40514765824E+03  0.40000000000E+03 0. -1.
<mgrwt>
<rscale>  2 0.40383179E+03</rscale>
<asrwt>0</asrwt>
<pdfrwt beam="1">  1        1 0.74601888E-01 0.40383179E+03</pdfrwt>
<pdfrwt beam="2">  1       -1 0.52233349E-01 0.40383179E+03</pdfrwt>
<totfact> 0.17732695E+02</totfact>
</mgrwt>
</event>
<event>
 4    1  0.2358610E-002  0.4084797E+03  0.7818608E-02  0.1040882E+00
         -2   -1    0    0    0  501 -0.00000000000E+00  0.00000000000E+00  0.36203040152E+03  0.36203040152E+03  0.00000000000E+00 0. -1.
          2   -1    0    0  502    0  0.00000000000E+00 -0.00000000000E+00 -0.56520411489E+03  0.56520411489E+03  0.00000000000E+00 0.  1.
    9000005    1    1    2  502    0 -0.64869723530E+02 -0.51454336056E+02  0.97586712992E+02  0.41997475672E+03  0.40000000000E+03 0. -1.
   -9000005    1    1    2    0  501  0.64869723530E+02  0.51454336056E+02 -0.30076042637E+03  0.50725975969E+03  0.40000000000E+03 0.  1.
<mgrwt>
<rscale>  2 0.40847966E+03</rscale>
<asrwt>0</asrwt>
<pdfrwt beam="1">  1        2 0.86954479E-01 0.40847966E+03</pdfrwt>
<pdfrwt beam="2">  1       -2 0.55696985E-01 0.40847966E+03</pdfrwt>
<totfact> 0.16642064E+02</totfact>
</mgrwt>
</event>
<event>
 4    1  0.2358610E-002  0.4019023E+03  0.7818608E-02  0.1043123E+00
          1   -1    0    0  502    0  0.00000000000E+00  0.00000000000E+00  0.23813027008E+03  0.23813027008E+03  0.00000000000E+00 0. -1.
         -1   -1    0    0    0  501 -0.00000000000E+00 -0.00000000000E+00 -0.10221963771E+04  0.10221963771E+04  0.00000000000E+00 0.  1.
    9000005    1    1    2  502    0 -0.37205258922E+02 -0.11882941275E+02 -0.26526374484E+02  0.40277671746E+03  0.40000000000E+03 0. -1.
   -9000005    1    1    2    0  501  0.37205258922E+02  0.11882941275E+02 -0.75753973251E+03  0.85754992969E+03  0.40000000000E+03 0.  1.
<mgrwt>
<rscale>  2 0.40190227E+03</rscale>
<asrwt>0</asrwt>
<pdfrwt beam="1">  1        1 0.36635427E-01 0.40190227E+03</pdfrwt>
<pdfrwt beam="2">  1       -1 0.15726098E+00 0.40190227E+03</pdfrwt>
<totfact> 0.38590420E+01</totfact>
</mgrwt>
</event>
<event>
 4    1  0.2358610E-002  0.4283877E+03  0.7818608E-02  0.1034370E+00
         -1   -1    0    0    0  501 -0.00000000000E+00  0.00000000000E+00  0.14596737114E+04  0.14596737114E+04  0.00000000000E+00 0. -1.
          1   -1    0    0  502    0  0.00000000000E+00 -0.00000000000E+00 -0.13098309115E+03  0.13098309115E+03  0.00000000000E+00 0.  1.
    9000005    1    1    2  502    0 -0.11337709618E+03 -0.10325538419E+03  0.82371054343E+03  0.92844768278E+03  0.40000000000E+03 0. -1.
   -9000005    1    1    2    0  501  0.11337709618E+03  0.10325538419E+03  0.50498007679E+03  0.66220911973E+03  0.40000000000E+03 0.  1.
<mgrwt>
<rscale>  2 0.42838772E+03</rscale>
<asrwt>0</asrwt>
<pdfrwt beam="1">  1        1 0.20151246E-01 0.42838772E+03</pdfrwt>
<pdfrwt beam="2">  1       -1 0.22456518E+00 0.42838772E+03</pdfrwt>
<totfact> 0.28421296E+01</totfact>
</mgrwt>
</event>
<event>
 4    1  0.2358610E-002  0.4829959E+03  0.7818608E-02  0.1018315E+00
         -2   -1    0    0    0  501 -0.00000000000E+00  0.00000000000E+00  0.16317821145E+03  0.16317821145E+03  0.00000000000E+00 0. -1.
          2   -1    0    0  502    0  0.00000000000E+00 -0.00000000000E+00 -0.14303241745E+04  0.14303241745E+04  0.00000000000E+00 0.  1.
    9000005    1    1    2  502    0  0.19489438231E+03 -0.18788606283E+03 -0.65108468053E+03  0.81067641762E+03  0.40000000000E+03 0.  1.
   -9000005    1    1    2    0  501 -0.19489438231E+03  0.18788606283E+03 -0.61606128249E+03  0.78282596830E+03  0.40000000000E+03 0. -1.
<mgrwt>
<rscale>  2 0.48299585E+03</rscale>
<asrwt>0</asrwt>
<pdfrwt beam="1">  1        2 0.22004986E+00 0.48299585E+03</pdfrwt>
<pdfrwt beam="2">  1       -2 0.25104341E-01 0.48299585E+03</pdfrwt>
<totfact> 0.20539718E+02</totfact>
</mgrwt>
</event>
<event>
 4    1  0.2358610E-002  0.5092685E+03  0.7818608E-02  0.1011388E+00
          1   -1    0    0  502    0  0.00000000000E+00  0.00000000000E+00  0.46037049601E+03  0.46037049601E+03  0.00000000000E+00 0. -1.
         -1   -1    0    0    0  501 -0.00000000000E+00 -0.00000000000E+00 -0.63528817201E+03  0.63528817201E+03  0.00000000000E+00 0.  1.
    9000005    1    1    2  502    0 -0.30460228358E+03 -0.81067004827E+02  0.96876599592E+02  0.51840089312E+03  0.40000000000E+03 0.  1.
   -9000005    1    1    2    0  501  0.30460228358E+03  0.81067004827E+02 -0.27179427559E+03  0.57725777490E+03  0.40000000000E+03 0.  1.
<mgrwt>
<rscale>  2 0.50926851E+03</rscale>
<asrwt>0</asrwt>
<pdfrwt beam="1">  1        1 0.70826230E-01 0.50926851E+03</pdfrwt>
<pdfrwt beam="2">  1       -1 0.97736641E-01 0.50926851E+03</pdfrwt>
<totfact> 0.52130768E+01</totfact>
</mgrwt>
</event>
<event>
 4    1  0.2358610E-002  0.4261776E+03  0.7818608E-02  0.1035074E+00
         -2   -1    0    0    0  501 -0.00000000000E+00  0.00000000000E+00  0.21974034003E+03  0.21974034003E+03  0.00000000000E+00 0. -1.
          2   -1    0    0  502    0  0.00000000000E+00 -0.00000000000E+00 -0.82668226043E+03  0.82668226043E+03  0.00000000000E+00 0.  1.
    9000005    1    1    2  502    0 -0.14641067186E+03  0.13830135450E+02 -0.29696549021E+03  0.51943802312E+03  0.40000000000E+03 0. -1.
   -9000005    1    1    2    0  501  0.14641067186E+03 -0.13830135450E+02 -0.30997643020E+03  0.52698457734E+03  0.40000000000E+03 0.  1.
<mgrwt>
<rscale>  2 0.42617761E+03</rscale>
<asrwt>0</asrwt>
<pdfrwt beam="1">  1        2 0.12718189E+00 0.42617761E+03</pdfrwt>
<pdfrwt beam="2">  1       -2 0.33806206E-01 0.42617761E+03</pdfrwt>
<totfact> 0.27715758E+02</totfact>
</mgrwt>
</event>
<event>
 4    1  0.2358610E-002  0.4630103E+03  0.7818608E-02  0.1023912E+00
          2   -1    0    0  502    0  0.00000000000E+00  0.00000000000E+00  0.14412647321E+04  0.14412647321E+04  0.00000000000E+00 0.  1.
         -2   -1    0    0    0  501 -0.00000000000E+00 -0.00000000000E+00 -0.15444805005E+03  0.15444805005E+03  0.00000000000E+00 0. -1.
    9000005    1    1    2  502    0 -0.22839313122E+03 -0.47065178649E+02  0.79674630232E+03  0.92151138012E+03  0.40000000000E+03 0.  1.
   -9000005    1    1    2    0  501  0.22839313122E+03  0.47065178649E+02  0.49007037976E+03  0.67420140206E+03  0.40000000000E+03 0. -1.
<mgrwt>
<rscale>  2 0.46301032E+03</rscale>
<asrwt>0</asrwt>
<pdfrwt beam="1">  1        2 0.22173303E+00 0.46301032E+03</pdfrwt>
<pdfrwt beam="2">  1       -2 0.23761240E-01 0.46301032E+03</pdfrwt>
<totfact> 0.22393784E+02</totfact>
</mgrwt>
</event>
<event>
 4    1  0.2358610E-002  0.4041614E+03  0.7818608E-02  0.1042348E+00
         -1   -1    0    0    0  501 -0.00000000000E+00  0.00000000000E+00  0.19975698239E+03  0.19975698239E+03  0.00000000000E+00 0.  1.
          1   -1    0    0  502    0  0.00000000000E+00 -0.00000000000E+00 -0.11236974345E+04  0.11236974345E+04  0.00000000000E+00 0. -1.
    9000005    1    1    2  502    0  0.57162968038E+02 -0.88806047805E+01 -0.11667166579E+03  0.42066464987E+03  0.40000000000E+03 0.  1.
   -9000005    1    1    2    0  501 -0.57162968038E+02  0.88806047805E+01 -0.80726878630E+03  0.90278976700E+03  0.40000000000E+03 0. -1.
<mgrwt>
<rscale>  2 0.40416144E+03</rscale>
<asrwt>0</asrwt>
<pdfrwt beam="1">  1        1 0.17287653E+00 0.40416144E+03</pdfrwt>
<pdfrwt beam="2">  1       -1 0.30731844E-01 0.40416144E+03</pdfrwt>
<totfact> 0.12565576E+02</totfact>
</mgrwt>
</event>
<event>
 4    1  0.2358610E-002  0.4029853E+03  0.7818608E-02  0.1042751E+00
          2   -1    0    0  502    0  0.00000000000E+00  0.00000000000E+00  0.15804263172E+03  0.15804263172E+03  0.00000000000E+00 0.  1.
         -2   -1    0    0    0  501 -0.00000000000E+00 -0.00000000000E+00 -0.10352918607E+04  0.10352918607E+04  0.00000000000E+00 0. -1.
    9000005    1    1    2  502    0 -0.30172803494E+01  0.48867831278E+02 -0.38703748726E+03  0.55874429345E+03  0.40000000000E+03 0.  1.
   -9000005    1    1    2    0  501  0.30172803494E+01 -0.48867831278E+02 -0.49021174172E+03  0.63459019898E+03  0.40000000000E+03 0. -1.
<mgrwt>
<rscale>  2 0.40298532E+03</rscale>
<asrwt>0</asrwt>
<pdfrwt beam="1">  1        2 0.24314250E-01 0.40298532E+03</pdfrwt>
<pdfrwt beam="2">  1       -2 0.15927568E+00 0.40298532E+03</pdfrwt>
<totfact> 0.59702401E+01</totfact>
</mgrwt>
</event>
<event>
 4    1  0.2358610E-002  0.5373583E+03  0.7818608E-02  0.1004463E+00
          1   -1    0    0  502    0  0.00000000000E+00  0.00000000000E+00  0.26763619541E+04  0.26763619541E+04  0.00000000000E+00 0.  1.
         -1   -1    0    0    0  501 -0.00000000000E+00 -0.00000000000E+00 -0.11827018388E+03  0.11827018388E+03  0.00000000000E+00 0. -1.
    9000005    1    1    2  502    0 -0.57625912014E+02  0.35416551320E+03  0.86509420366E+03  0.10184016583E+04  0.40000000000E+03 0.  1.
   -9000005    1    1    2    0  501  0.57625912014E+02 -0.35416551320E+03  0.16929975666E+04  0.17762304797E+04  0.40000000000E+03 0.  1.
<mgrwt>
<rscale>  2 0.53735831E+03</rscale>
<asrwt>0</asrwt>
<pdfrwt beam="1">  1        1 0.41174795E+00 0.53735831E+03</pdfrwt>
<pdfrwt beam="2">  1       -1 0.18195415E-01 0.53735831E+03</pdfrwt>
<totfact> 0.26556913E+01</totfact>
</mgrwt>
</event>
<event>
 4    1  0.2358610E-002  0.4249586E+03  0.7818608E-02  0.1035464E+00
          1   -1    0    0  502    0  0.00000000000E+00  0.00000000000E+00  0.49897233216E+03  0.49897233216E+03  0.00000000000E+00 0.  1.
         -1   -1    0    0    0  501 -0.00000000000E+00 -0.00000000000E+00 -0.72849245894E+03  0.72849245894E+03  0.00000000000E+00 0. -1.
    9000005    1    1    2  502    0 -0.63751777527E+02  0.12855160298E+03  0.32059577353E+03  0.53232645413E+03  0.40000000000E+03 0.  1.
   -9000005    1    1    2    0  501  0.63751777527E+02 -0.12855160298E+03 -0.55011590030E+03  0.69513833698E+03  0.40000000000E+03 0. -1.
<mgrwt>
<rscale>  2 0.42495859E+03</rscale>
<asrwt>0</asrwt>
<pdfrwt beam="1">  1        1 0.76764974E-01 0.42495859E+03</pdfrwt>
<pdfrwt beam="2">  1       -1 0.11207576E+00 0.42495859E+03</pdfrwt>
<totfact> 0.34571682E+01</totfact>
</mgrwt>
</event>
<event>
 4    1  0.2358610E-002  0.6257650E+03  0.7818608E-02  0.9853348E-01
         -2   -1    0    0    0  501 -0.00000000000E+00  0.00000000000E+00  0.21632891001E+03  0.21632891001E+03  0.00000000000E+00 0. -1.
          2   -1    0    0  502    0  0.00000000000E+00 -0.00000000000E+00 -0.21475395294E+04  0.21475395294E+04  0.00000000000E+00 0.  1.
    9000005    1    1    2  502    0 -0.15537777690E+03  0.45545535703E+03 -0.49710897534E+03  0.79918656718E+03  0.40000000000E+03 0.  1.
   -9000005    1    1    2    0  501  0.15537777690E+03 -0.45545535703E+03 -0.14341016441E+04  0.15646818722E+04  0.40000000000E+03 0. -1.
<mgrwt>
<rscale>  2 0.62576500E+03</rscale>
<asrwt>0</asrwt>
<pdfrwt beam="1">  1        2 0.33039070E+00 0.62576500E+03</pdfrwt>
<pdfrwt beam="2">  1       -2 0.33281370E-01 0.62576500E+03</pdfrwt>
<totfact> 0.48962076E+01</totfact>
</mgrwt>
</event>
<event>
 4    1  0.2358610E-002  0.4950979E+03  0.7818608E-02  0.1015066E+00
         -2   -1    0    0    0  501 -0.00000000000E+00  0.00000000000E+00  0.65341107291E+03  0.65341107291E+03  0.00000000000E+00 0. -1.
          2   -1    0    0  502    0  0.00000000000E+00 -0.00000000000E+00 -0.44207214107E+03  0.44207214107E+03  0.00000000000E+00 0.  1.
    9000005    1    1    2  502    0 -0.15029108606E+03 -0.25006894694E+03 -0.10745841475E+03  0.50662530501E+03  0.40000000000E+03 0.  1.
   -9000005    1    1    2    0  501  0.15029108606E+03  0.25006894694E+03  0.31879734659E+03  0.58885790898E+03  0.40000000000E+03 0. -1.
<mgrwt>
<rscale>  2 0.49509786E+03</rscale>
<asrwt>0</asrwt>
<pdfrwt beam="1">  1        2 0.68011098E-01 0.49509786E+03</pdfrwt>
<pdfrwt beam="2">  1       -2 0.10052478E+00 0.49509786E+03</pdfrwt>
<totfact> 0.59667927E+01</totfact>
</mgrwt>
</event>
<event>
 4    1  0.2358610E-002  0.5052386E+03  0.7818608E-02  0.1012421E+00
         -1   -1    0    0    0  501 -0.00000000000E+00  0.00000000000E+00  0.27758979112E+03  0.27758979112E+03  0.00000000000E+00 0. -1.
          1   -1    0    0  502    0  0.00000000000E+00 -0.00000000000E+00 -0.11884794562E+04  0.11884794562E+04  0.00000000000E+00 0.  1.
    9000005    1    1    2  502    0 -0.18826042164E+02 -0.30807735484E+03 -0.80412194994E+03  0.94967267351E+03  0.40000000000E+03 0.  1.
   -9000005    1    1    2    0  501  0.18826042164E+02  0.30807735484E+03 -0.10676771512E+03  0.51639657379E+03  0.40000000000E+03 0. -1.
<mgrwt>
<rscale>  2 0.50523863E+03</rscale>
<asrwt>0</asrwt>
<pdfrwt beam="1">  1        1 0.18284299E+00 0.50523863E+03</pdfrwt>
<pdfrwt beam="2">  1       -1 0.42706122E-01 0.50523863E+03</pdfrwt>
<totfact> 0.62010680E+01</totfact>
</mgrwt>
</event>
<event>
 4    1  0.2358610E-002  0.4703606E+03  0.7818608E-02  0.1021818E+00
          1   -1    0    0  502    0  0.00000000000E+00  0.00000000000E+00  0.77320660928E+03  0.77320660928E+03  0.00000000000E+00 0. -1.
         -1   -1    0    0    0  501 -0.00000000000E+00 -0.00000000000E+00 -0.28843184602E+03  0.28843184602E+03  0.00000000000E+00 0.  1.
    9000005    1    1    2  502    0 -0.20198806833E+03  0.14296833133E+03  0.19498740950E+03  0.50917503216E+03  0.40000000000E+03 0.  1.
   -9000005    1    1    2    0  501  0.20198806833E+03 -0.14296833133E+03  0.28978735377E+03  0.55246342314E+03  0.40000000000E+03 0. -1.
<mgrwt>
<rscale>  2 0.47036063E+03</rscale>
<asrwt>0</asrwt>
<pdfrwt beam="1">  1        1 0.11895486E+00 0.47036063E+03</pdfrwt>
<pdfrwt beam="2">  1       -1 0.44374130E-01 0.47036063E+03</pdfrwt>
<totfact> 0.12233114E+02</totfact>
</mgrwt>
</event>
<event>
 4    1  0.2358610E-002  0.7350446E+03  0.7818608E-02  0.9659110E-01
         -2   -1    0    0    0  501 -0.00000000000E+00  0.00000000000E+00  0.90190066495E+03  0.90190066495E+03  0.00000000000E+00 0.  1.
          2   -1    0    0  502    0  0.00000000000E+00 -0.00000000000E+00 -0.76345441956E+03  0.76345441956E+03  0.00000000000E+00 0. -1.
    9000005    1    1    2  502    0 -0.39801109706E+03  0.47103897741E+03 -0.31717218921E+03  0.80055527556E+03  0.40000000000E+03 0. -1.
   -9000005    1    1    2    0  501  0.39801109706E+03 -0.47103897741E+03  0.45561843460E+03  0.86479980895E+03  0.40000000000E+03 0.  1.
<mgrwt>
<rscale>  2 0.73504459E+03</rscale>
<asrwt>0</asrwt>
<pdfrwt beam="1">  1        2 0.11745453E+00 0.73504459E+03</pdfrwt>
<pdfrwt beam="2">  1       -2 0.13875395E+00 0.73504459E+03</pdfrwt>
<totfact> 0.13694015E+01</totfact>
</mgrwt>
</event>
<event>
 4    1  0.2358610E-002  0.4261409E+03  0.7818608E-02  0.1035086E+00
          2   -1    0    0  502    0  0.00000000000E+00  0.00000000000E+00  0.22311395768E+03  0.22311395768E+03  0.00000000000E+00 0.  1.
         -2   -1    0    0    0  501 -0.00000000000E+00 -0.00000000000E+00 -0.84101105971E+03  0.84101105971E+03  0.00000000000E+00 0. -1.
    9000005    1    1    2  502    0  0.13034546468E+03  0.67868300686E+02 -0.40444910954E+03  0.58751606668E+03  0.40000000000E+03 0. -1.
   -9000005    1    1    2    0  501 -0.13034546468E+03 -0.67868300686E+02 -0.21344799249E+03  0.47660895071E+03  0.40000000000E+03 0.  1.
<mgrwt>
<rscale>  2 0.42614088E+03</rscale>
<asrwt>0</asrwt>
<pdfrwt beam="1">  1        2 0.34325224E-01 0.42614088E+03</pdfrwt>
<pdfrwt beam="2">  1       -2 0.12938632E+00 0.42614088E+03</pdfrwt>
<totfact> 0.69223394E+01</totfact>
</mgrwt>
</event>
<event>
 4    1  0.2358610E-002  0.4133301E+03  0.7818608E-02  0.1039259E+00
         -2   -1    0    0    0  501 -0.00000000000E+00  0.00000000000E+00  0.15294610177E+03  0.15294610177E+03  0.00000000000E+00 0. -1.
          2   -1    0    0  502    0  0.00000000000E+00 -0.00000000000E+00 -0.11215891436E+04  0.11215891436E+04  0.00000000000E+00 0.  1.
    9000005    1    1    2  502    0 -0.86803819326E+02  0.57505157296E+02 -0.44358569518E+03  0.60630851481E+03  0.40000000000E+03 0.  1.
   -9000005    1    1    2    0  501  0.86803819326E+02 -0.57505157296E+02 -0.52505734665E+03  0.66822673056E+03  0.40000000000E+03 0.  1.
<mgrwt>
<rscale>  2 0.41333007E+03</rscale>
<asrwt>0</asrwt>
<pdfrwt beam="1">  1        2 0.17255217E+00 0.41333007E+03</pdfrwt>
<pdfrwt beam="2">  1       -2 0.23530170E-01 0.41333007E+03</pdfrwt>
<totfact> 0.34834702E+02</totfact>
</mgrwt>
</event>
<event>
 4    1  0.2358610E-002  0.4176621E+03  0.7818608E-02  0.1037830E+00
         -1   -1    0    0    0  501 -0.00000000000E+00  0.00000000000E+00  0.25123867640E+03  0.25123867640E+03  0.00000000000E+00 0. -1.
          1   -1    0    0  502    0  0.00000000000E+00 -0.00000000000E+00 -0.11256976310E+04  0.11256976310E+04  0.00000000000E+00 0.  1.
    9000005    1    1    2  502    0  0.12017300325E+03 -0.20474624673E+00 -0.86341498272E+03  0.95912826307E+03  0.40000000000E+03 0.  1.
   -9000005    1    1    2    0  501 -0.12017300325E+03  0.20474624673E+00 -0.11043971932E+02  0.41780804438E+03  0.40000000000E+03 0. -1.
<mgrwt>
<rscale>  2 0.41766206E+03</rscale>
<asrwt>0</asrwt>
<pdfrwt beam="1">  1        1 0.17318425E+00 0.41766206E+03</pdfrwt>
<pdfrwt beam="2">  1       -1 0.38652105E-01 0.41766206E+03</pdfrwt>
<totfact> 0.83540398E+01</totfact>
</mgrwt>
</event>
<event>
 4    1  0.2358610E-002  0.5542716E+03  0.7818608E-02  0.1000510E+00
          1   -1    0    0  502    0  0.00000000000E+00  0.00000000000E+00  0.98568870754E+03  0.98568870754E+03  0.00000000000E+00 0. -1.
         -1   -1    0    0    0  501 -0.00000000000E+00 -0.00000000000E+00 -0.33353900716E+03  0.33353900716E+03  0.00000000000E+00 0.  1.
    9000005    1    1    2  502    0 -0.29080256434E+03 -0.25030152430E+03  0.15720326432E+03  0.57613353557E+03  0.40000000000E+03 0.  1.
   -9000005    1    1    2    0  501  0.29080256434E+03  0.25030152430E+03  0.49494643606E+03  0.74309417913E+03  0.40000000000E+03 0. -1.
<mgrwt>
<rscale>  2 0.55427158E+03</rscale>
<asrwt>0</asrwt>
<pdfrwt beam="1">  1        1 0.15164442E+00 0.55427158E+03</pdfrwt>
<pdfrwt beam="2">  1       -1 0.51313694E-01 0.55427158E+03</pdfrwt>
<totfact> 0.61952080E+01</totfact>
</mgrwt>
</event>
<event>
 4    1  0.2358610E-002  0.4116808E+03  0.7818608E-02  0.1039808E+00
          2   -1    0    0  502    0  0.00000000000E+00  0.00000000000E+00  0.27682471604E+04  0.27682471604E+04  0.00000000000E+00 0.  1.
         -2   -1    0    0    0  501 -0.00000000000E+00 -0.00000000000E+00 -0.70999900332E+02  0.70999900332E+02  0.00000000000E+00 0. -1.
    9000005    1    1    2  502    0  0.47487054112E+02 -0.85006411382E+02  0.82183161684E+03  0.91917806584E+03  0.40000000000E+03 0. -1.
   -9000005    1    1    2    0  501 -0.47487054112E+02  0.85006411382E+02  0.18754156433E+04  0.19200689949E+04  0.40000000000E+03 0.  1.
<mgrwt>
<rscale>  2 0.41168084E+03</rscale>
<asrwt>0</asrwt>
<pdfrwt beam="1">  1        2 0.42588409E+00 0.41168084E+03</pdfrwt>
<pdfrwt beam="2">  1       -2 0.10923064E-01 0.41168084E+03</pdfrwt>
<totfact> 0.15821539E+02</totfact>
</mgrwt>
</event>
<event>
 4    1  0.2358610E-002  0.4064633E+03  0.7818608E-02  0.1041564E+00
          2   -1    0    0  502    0  0.00000000000E+00  0.00000000000E+00  0.11009319288E+04  0.11009319288E+04  0.00000000000E+00 0. -1.
         -2   -1    0    0    0  501 -0.00000000000E+00 -0.00000000000E+00 -0.18517719024E+03  0.18517719024E+03  0.00000000000E+00 0.  1.
    9000005    1    1    2  502    0  0.40795899489E+02 -0.59565836632E+02  0.17786502965E+03  0.44367596631E+03  0.40000000000E+03 0.  1.
   -9000005    1    1    2    0  501 -0.40795899489E+02  0.59565836632E+02  0.73788970885E+03  0.84243315268E+03  0.40000000000E+03 0. -1.
<mgrwt>
<rscale>  2 0.40646328E+03</rscale>
<asrwt>0</asrwt>
<pdfrwt beam="1">  1        2 0.16937414E+00 0.40646328E+03</pdfrwt>
<pdfrwt beam="2">  1       -2 0.28488799E-01 0.40646328E+03</pdfrwt>
<totfact> 0.25440477E+02</totfact>
</mgrwt>
</event>
<event>
 4    1  0.2358610E-002  0.4473648E+03  0.7818608E-02  0.1028511E+00
         -2   -1    0    0    0  501 -0.00000000000E+00  0.00000000000E+00  0.10829070012E+03  0.10829070012E+03  0.00000000000E+00 0. -1.
          2   -1    0    0  502    0  0.00000000000E+00 -0.00000000000E+00 -0.19929485110E+04  0.19929485110E+04  0.00000000000E+00 0.  1.
    9000005    1    1    2  502    0 -0.34015802593E+02  0.19742887881E+03 -0.65911781471E+03  0.79659998160E+03  0.40000000000E+03 0. -1.
   -9000005    1    1    2    0  501  0.34015802593E+02 -0.19742887881E+03 -0.12255399962E+04  0.13046392296E+04  0.40000000000E+03 0.  1.
<mgrwt>
<rscale>  2 0.44736477E+03</rscale>
<asrwt>0</asrwt>
<pdfrwt beam="1">  1        2 0.30660747E+00 0.44736477E+03</pdfrwt>
<pdfrwt beam="2">  1       -2 0.16660108E-01 0.44736477E+03</pdfrwt>
<totfact> 0.20927376E+02</totfact>
</mgrwt>
</event>
<event>
 4    1  0.2358610E-002  0.4067757E+03  0.7818608E-02  0.1041458E+00
         -1   -1    0    0    0  501 -0.00000000000E+00  0.00000000000E+00  0.22418673869E+03  0.22418673869E+03  0.00000000000E+00 0. -1.
          1   -1    0    0  502    0  0.00000000000E+00 -0.00000000000E+00 -0.85258461014E+03  0.85258461014E+03  0.00000000000E+00 0.  1.
    9000005    1    1    2  502    0  0.14682397970E+00 -0.73935492318E+02 -0.11688989926E+03  0.42323719961E+03  0.40000000000E+03 0. -1.
   -9000005    1    1    2    0  501 -0.14682397970E+00  0.73935492318E+02 -0.51150797219E+03  0.65353414922E+03  0.40000000000E+03 0.  1.
<mgrwt>
<rscale>  2 0.40677571E+03</rscale>
<asrwt>0</asrwt>
<pdfrwt beam="1">  1        1 0.13116687E+00 0.40677571E+03</pdfrwt>
<pdfrwt beam="2">  1       -1 0.34490267E-01 0.40677571E+03</pdfrwt>
<totfact> 0.16592836E+02</totfact>
</mgrwt>
</event>
<event>
 4    1  0.2358610E-002  0.4852155E+03  0.7818608E-02  0.1017712E+00
         -1   -1    0    0    0  501 -0.00000000000E+00  0.00000000000E+00  0.69211221924E+03  0.69211221924E+03  0.00000000000E+00 0.  1.
          1   -1    0    0  502    0  0.00000000000E+00 -0.00000000000E+00 -0.52665391827E+03  0.52665391827E+03  0.00000000000E+00 0. -1.
    9000005    1    1    2  502    0 -0.27088118131E+03  0.45359422172E+02 -0.27989048228E+03  0.56015424093E+03  0.40000000000E+03 0. -1.
   -9000005    1    1    2    0  501  0.27088118131E+03 -0.45359422172E+02  0.44534878325E+03  0.65861189657E+03  0.40000000000E+03 0.  1.
<mgrwt>
<rscale>  2 0.48521551E+03</rscale>
<asrwt>0</asrwt>
<pdfrwt beam="1">  1        1 0.81023680E-01 0.48521551E+03</pdfrwt>
<pdfrwt beam="2">  1       -1 0.10647880E+00 0.48521551E+03</pdfrwt>
<totfact> 0.35849682E+01</totfact>
</mgrwt>
</event>
<event>
 4    1  0.2358610E-002  0.4815615E+03  0.7818608E-02  0.1018707E+00
         -1   -1    0    0    0  501 -0.00000000000E+00  0.00000000000E+00  0.21550250800E+04  0.21550250800E+04  0.00000000000E+00 0. -1.
          1   -1    0    0  502    0  0.00000000000E+00 -0.00000000000E+00 -0.12002782310E+03  0.12002782310E+03  0.00000000000E+00 0.  1.
    9000005    1    1    2  502    0 -0.16120566863E+03 -0.21427606751E+03  0.13833876213E+04  0.14648081142E+04  0.40000000000E+03 0. -1.
   -9000005    1    1    2    0  501  0.16120566863E+03  0.21427606751E+03  0.65160963560E+03  0.81024478888E+03  0.40000000000E+03 0.  1.
<mgrwt>
<rscale>  2 0.48156152E+03</rscale>
<asrwt>0</asrwt>
<pdfrwt beam="1">  1        1 0.18465820E-01 0.48156152E+03</pdfrwt>
<pdfrwt beam="2">  1       -1 0.33154229E+00 0.48156152E+03</pdfrwt>
<totfact> 0.65768739E+00</totfact>
</mgrwt>
</event>
<event>
 4    1  0.2358610E-002  0.4013987E+03  0.7818608E-02  0.1043296E+00
          1   -1    0    0  502    0  0.00000000000E+00  0.00000000000E+00  0.12381913256E+04  0.12381913256E+04  0.00000000000E+00 0.  1.
         -1   -1    0    0    0  501 -0.00000000000E+00 -0.00000000000E+00 -0.17958062725E+03  0.17958062725E+03  0.00000000000E+00 0. -1.
    9000005    1    1    2  502    0 -0.25712468992E+02 -0.21442540933E+02  0.15729929672E+03  0.43111945256E+03  0.40000000000E+03 0. -1.
   -9000005    1    1    2    0  501  0.25712468992E+02  0.21442540933E+02  0.90131140164E+03  0.98665250030E+03  0.40000000000E+03 0.  1.
<mgrwt>
<rscale>  2 0.40139870E+03</rscale>
<asrwt>0</asrwt>
<pdfrwt beam="1">  1        1 0.19049097E+00 0.40139870E+03</pdfrwt>
<pdfrwt beam="2">  1       -1 0.27627790E-01 0.40139870E+03</pdfrwt>
<totfact> 0.12500048E+02</totfact>
</mgrwt>
</event>
<event>
 4    1  0.2358610E-002  0.4871861E+03  0.7818608E-02  0.1017179E+00
         -1   -1    0    0    0  501 -0.00000000000E+00  0.00000000000E+00  0.41759278235E+03  0.41759278235E+03  0.00000000000E+00 0. -1.
          1   -1    0    0  502    0  0.00000000000E+00 -0.00000000000E+00 -0.57834380566E+03  0.57834380566E+03  0.00000000000E+00 0.  1.
    9000005    1    1    2  502    0 -0.27722376620E+03  0.22299510271E+02 -0.15005476257E+02  0.48741712016E+03  0.40000000000E+03 0.  1.
   -9000005    1    1    2    0  501  0.27722376620E+03 -0.22299510271E+02 -0.14574554705E+03  0.50851946786E+03  0.40000000000E+03 0.  1.
<mgrwt>
<rscale>  2 0.48718609E+03</rscale>
<asrwt>0</asrwt>
<pdfrwt beam="1">  1        1 0.88975970E-01 0.48718609E+03</pdfrwt>
<pdfrwt beam="2">  1       -1 0.64245043E-01 0.48718609E+03</pdfrwt>
<totfact> 0.92479262E+01</totfact>
</mgrwt>
</event>
<event>
 4    1  0.2358610E-002  0.4077975E+03  0.7818608E-02  0.1041113E+00
         -2   -1    0    0    0  501 -0.00000000000E+00  0.00000000000E+00  0.33236580478E+03  0.33236580478E+03  0.00000000000E+00 0. -1.
          2   -1    0    0  502    0  0.00000000000E+00 -0.00000000000E+00 -0.60657229741E+03  0.60657229741E+03  0.00000000000E+00 0.  1.
    9000005    1    1    2  502    0  0.71629726139E+02 -0.34176026473E+02  0.59357622588E+02  0.41209482624E+03  0.40000000000E+03 0. -1.
   -9000005    1    1    2    0  501 -0.71629726139E+02  0.34176026473E+02 -0.33356411522E+03  0.52684327595E+03  0.40000000000E+03 0.  1.
<mgrwt>
<rscale>  2 0.40779752E+03</rscale>
<asrwt>0</asrwt>
<pdfrwt beam="1">  1        2 0.93318815E-01 0.40779752E+03</pdfrwt>
<pdfrwt beam="2">  1       -2 0.51133201E-01 0.40779752E+03</pdfrwt>
<totfact> 0.18237739E+02</totfact>
</mgrwt>
</event>
<event>
 4    1  0.2358610E-002  0.5518385E+03  0.7818608E-02  0.1001069E+00
         -2   -1    0    0    0  501 -0.00000000000E+00  0.00000000000E+00  0.22822254693E+04  0.22822254693E+04  0.00000000000E+00 0.  1.
          2   -1    0    0  502    0  0.00000000000E+00 -0.00000000000E+00 -0.14684012350E+03  0.14684012350E+03  0.00000000000E+00 0. -1.
    9000005    1    1    2  502    0  0.29663887154E+03  0.23776276626E+03  0.70071165994E+03  0.89192072714E+03  0.40000000000E+03 0. -1.
   -9000005    1    1    2    0  501 -0.29663887154E+03 -0.23776276626E+03  0.14346736859E+04  0.15371448657E+04  0.40000000000E+03 0.  1.
<mgrwt>
<rscale>  2 0.55183852E+03</rscale>
<asrwt>0</asrwt>
<pdfrwt beam="1">  1        2 0.22590790E-01 0.55183852E+03</pdfrwt>
<pdfrwt beam="2">  1       -2 0.35111158E+00 0.55183852E+03</pdfrwt>
<totfact> 0.40911782E+00</totfact>
</mgrwt>
</event>
<event>
 4    1  0.2358610E-002  0.4520663E+03  0.7818608E-02  0.1027108E+00
         -2   -1    0    0    0  501 -0.00000000000E+00  0.00000000000E+00  0.32652353498E+03  0.32652353498E+03  0.00000000000E+00 0. -1.
          2   -1    0    0  502    0  0.00000000000E+00 -0.00000000000E+00 -0.81254879216E+03  0.81254879216E+03  0.00000000000E+00 0.  1.
    9000005    1    1    2  502    0 -0.52125780404E+02 -0.20407553873E+03  0.29969788866E+02  0.45305861733E+03  0.40000000000E+03 0. -1.
   -9000005    1    1    2    0  501  0.52125780404E+02  0.20407553873E+03 -0.51599504604E+03  0.68601370980E+03  0.40000000000E+03 0.  1.
<mgrwt>
<rscale>  2 0.45206628E+03</rscale>
<asrwt>0</asrwt>
<pdfrwt beam="1">  1        2 0.12500750E+00 0.45206628E+03</pdfrwt>
<pdfrwt beam="2">  1       -2 0.50234391E-01 0.45206628E+03</pdfrwt>
<totfact> 0.13089133E+02</totfact>
</mgrwt>
</event>
<event>
 4    1  0.2358610E-002  0.4320431E+03  0.7818608E-02  0.1033216E+00
         -1   -1    0    0    0  501 -0.00000000000E+00  0.00000000000E+00  0.96508581343E+03  0.96508581343E+03  0.00000000000E+00 0.  1.
          1   -1    0    0  502    0  0.00000000000E+00 -0.00000000000E+00 -0.39251962485E+03  0.39251962485E+03  0.00000000000E+00 0. -1.
    9000005    1    1    2  502    0  0.16159552625E+03  0.23412935936E+02  0.76973631287E+03  0.88269772347E+03  0.40000000000E+03 0.  1.
   -9000005    1    1    2    0  501 -0.16159552625E+03 -0.23412935936E+02 -0.19717012429E+03  0.47490771481E+03  0.40000000000E+03 0. -1.
<mgrwt>
<rscale>  2 0.43204315E+03</rscale>
<asrwt>0</asrwt>
<pdfrwt beam="1">  1        1 0.60387635E-01 0.43204315E+03</pdfrwt>
<pdfrwt beam="2">  1       -1 0.14847474E+00 0.43204315E+03</pdfrwt>
<totfact> 0.23585597E+01</totfact>
</mgrwt>
</event>
<event>
 4    1  0.2358610E-002  0.4049384E+03  0.7818608E-02  0.1042083E+00
          1   -1    0    0  502    0  0.00000000000E+00  0.00000000000E+00  0.18754829643E+04  0.18754829643E+04  0.00000000000E+00 0.  1.
         -1   -1    0    0    0  501 -0.00000000000E+00 -0.00000000000E+00 -0.19226935076E+03  0.19226935076E+03  0.00000000000E+00 0. -1.
    9000005    1    1    2  502    0  0.15140540135E+02 -0.61203451136E+02  0.16050449584E+04  0.16553381578E+04  0.40000000000E+03 0.  1.
   -9000005    1    1    2    0  501 -0.15140540135E+02  0.61203451136E+02  0.78168655110E+02  0.41241415716E+03  0.40000000000E+03 0. -1.
<mgrwt>
<rscale>  2 0.40493839E+03</rscale>
<asrwt>0</asrwt>
<pdfrwt beam="1">  1        1 0.28853583E+00 0.40493839E+03</pdfrwt>
<pdfrwt beam="2">  1       -1 0.29579901E-01 0.40493839E+03</pdfrwt>
<totfact> 0.41432192E+01</totfact>
</mgrwt>
</event>
<event>
 4    1  0.2358610E-002  0.4073594E+03  0.7818608E-02  0.1041261E+00
         -1   -1    0    0    0  501 -0.00000000000E+00  0.00000000000E+00  0.37531952884E+03  0.37531952884E+03  0.00000000000E+00 0. -1.
          1   -1    0    0  502    0  0.00000000000E+00 -0.00000000000E+00 -0.59792190199E+03  0.59792190199E+03  0.00000000000E+00 0.  1.
    9000005    1    1    2  502    0 -0.71112486240E+02  0.29744000591E+02 -0.35969147233E+03  0.54343320338E+03  0.40000000000E+03 0.  1.
   -9000005    1    1    2    0  501  0.71112486240E+02 -0.29744000591E+02  0.13708909917E+03  0.42980822745E+03  0.40000000000E+03 0. -1.
<mgrwt>
<rscale>  2 0.40735941E+03</rscale>
<asrwt>0</asrwt>
<pdfrwt beam="1">  1        1 0.91987984E-01 0.40735941E+03</pdfrwt>
<pdfrwt beam="2">  1       -1 0.57741467E-01 0.40735941E+03</pdfrwt>
<totfact> 0.10976087E+02</totfact>
</mgrwt>
</event>
<event>
 4    1  0.2358610E-002  0.5168848E+03  0.7818608E-02  0.1009463E+00
          1   -1    0    0  502    0  0.00000000000E+00  0.00000000000E+00  0.13556252843E+04  0.13556252843E+04  0.00000000000E+00 0. -1.
         -1   -1    0    0    0  501 -0.00000000000E+00 -0.00000000000E+00 -0.19846566892E+03  0.19846566892E+03  0.00000000000E+00 0.  1.
    9000005    1    1    2  502    0 -0.30188101155E+03 -0.12664017694E+03  0.64345185841E+03  0.82534851647E+03  0.40000000000E+03 0. -1.
   -9000005    1    1    2    0  501  0.30188101155E+03  0.12664017694E+03  0.51370775702E+03  0.72874243679E+03  0.40000000000E+03 0.  1.
<mgrwt>
<rscale>  2 0.51688478E+03</rscale>
<asrwt>0</asrwt>
<pdfrwt beam="1">  1        1 0.20855773E+00 0.51688478E+03</pdfrwt>
<pdfrwt beam="2">  1       -1 0.30533181E-01 0.51688478E+03</pdfrwt>
<totfact> 0.85732596E+01</totfact>
</mgrwt>
</event>
<event>
 4    1  0.2358610E-002  0.5137648E+03  0.7818608E-02  0.1010247E+00
         -2   -1    0    0    0  501 -0.00000000000E+00  0.00000000000E+00  0.11787663589E+03  0.11787663589E+03  0.00000000000E+00 0.  1.
          2   -1    0    0  502    0  0.00000000000E+00 -0.00000000000E+00 -0.22433962564E+04  0.22433962564E+04  0.00000000000E+00 0. -1.
    9000005    1    1    2  502    0 -0.23322051862E+03  0.22262637526E+03 -0.11135652385E+04  0.12263693790E+04  0.40000000000E+03 0. -1.
   -9000005    1    1    2    0  501  0.23322051862E+03 -0.22262637526E+03 -0.10119543820E+04  0.11349035133E+04  0.40000000000E+03 0. -1.
<mgrwt>
<rscale>  2 0.51376484E+03</rscale>
<asrwt>0</asrwt>
<pdfrwt beam="1">  1        2 0.34513790E+00 0.51376484E+03</pdfrwt>
<pdfrwt beam="2">  1       -2 0.18134867E-01 0.51376484E+03</pdfrwt>
<totfact> 0.13124656E+02</totfact>
</mgrwt>
</event>
<event>
 4    1  0.2358610E-002  0.4040165E+03  0.7818608E-02  0.1042398E+00
          2   -1    0    0  502    0  0.00000000000E+00  0.00000000000E+00  0.25015038997E+03  0.25015038997E+03  0.00000000000E+00 0. -1.
         -2   -1    0    0    0  501 -0.00000000000E+00 -0.00000000000E+00 -0.65707988473E+03  0.65707988473E+03  0.00000000000E+00 0.  1.
    9000005    1    1    2  502    0  0.56579693662E+02 -0.52976564304E+01 -0.24123308600E+03  0.47055576575E+03  0.40000000000E+03 0.  1.
   -9000005    1    1    2    0  501 -0.56579693662E+02  0.52976564304E+01 -0.16569640876E+03  0.43667450896E+03  0.40000000000E+03 0. -1.
<mgrwt>
<rscale>  2 0.40401649E+03</rscale>
<asrwt>0</asrwt>
<pdfrwt beam="1">  1        2 0.38484676E-01 0.40401649E+03</pdfrwt>
<pdfrwt beam="2">  1       -2 0.10108921E+00 0.40401649E+03</pdfrwt>
<totfact> 0.11119311E+02</totfact>
</mgrwt>
</event>
<event>
 4    1  0.2358610E-002  0.4325905E+03  0.7818608E-02  0.1033045E+00
         -1   -1    0    0    0  501 -0.00000000000E+00  0.00000000000E+00  0.85458826370E+02  0.85458826370E+02  0.00000000000E+00 0.  1.
          1   -1    0    0  502    0  0.00000000000E+00 -0.00000000000E+00 -0.22954466376E+04  0.22954466376E+04  0.00000000000E+00 0. -1.
    9000005    1    1    2  502    0  0.11974356057E+03 -0.11311955979E+03 -0.13604303937E+04  0.14275522446E+04  0.40000000000E+03 0. -1.
   -9000005    1    1    2    0  501 -0.11974356057E+03  0.11311955979E+03 -0.84955741753E+03  0.95335321932E+03  0.40000000000E+03 0.  1.
<mgrwt>
<rscale>  2 0.43259052E+03</rscale>
<asrwt>0</asrwt>
<pdfrwt beam="1">  1        1 0.35314561E+00 0.43259052E+03</pdfrwt>
<pdfrwt beam="2">  1       -1 0.13147513E-01 0.43259052E+03</pdfrwt>
<totfact> 0.82895639E+01</totfact>
</mgrwt>
</event>
<event>
 4    1  0.2358610E-002  0.4322518E+03  0.7818608E-02  0.1033151E+00
         -2   -1    0    0    0  501 -0.00000000000E+00  0.00000000000E+00  0.53830365011E+03  0.53830365011E+03  0.00000000000E+00 0.  1.
          2   -1    0    0  502    0  0.00000000000E+00 -0.00000000000E+00 -0.44473961430E+03  0.44473961430E+03  0.00000000000E+00 0. -1.
    9000005    1    1    2  502    0  0.12066007343E+03 -0.11082750201E+03  0.27709459967E+03  0.51344230999E+03  0.40000000000E+03 0. -1.
   -9000005    1    1    2    0  501 -0.12066007343E+03  0.11082750201E+03 -0.18353056386E+03  0.46960095442E+03  0.40000000000E+03 0.  1.
<mgrwt>
<rscale>  2 0.43225177E+03</rscale>
<asrwt>0</asrwt>
<pdfrwt beam="1">  1        2 0.68421479E-01 0.43225177E+03</pdfrwt>
<pdfrwt beam="2">  1       -2 0.82815946E-01 0.43225177E+03</pdfrwt>
<totfact> 0.93044355E+01</totfact>
</mgrwt>
</event>
<event>
 4    1  0.2358610E-002  0.5218791E+03  0.7818608E-02  0.1008221E+00
          2   -1    0    0  502    0  0.00000000000E+00  0.00000000000E+00  0.35292436118E+04  0.35292436118E+04  0.00000000000E+00 0.  1.
         -2   -1    0    0    0  501 -0.00000000000E+00 -0.00000000000E+00 -0.80790704852E+02  0.80790704852E+02  0.00000000000E+00 0. -1.
    9000005    1    1    2  502    0 -0.21214398117E+03 -0.25952408880E+03  0.21062530960E+04  0.21699446827E+04  0.40000000000E+03 0.  1.
   -9000005    1    1    2    0  501  0.21214398117E+03  0.25952408880E+03  0.13421998109E+04  0.14400896340E+04  0.40000000000E+03 0. -1.
<mgrwt>
<rscale>  2 0.52187913E+03</rscale>
<asrwt>0</asrwt>
<pdfrwt beam="1">  1        2 0.54296044E+00 0.52187913E+03</pdfrwt>
<pdfrwt beam="2">  1       -2 0.12429342E-01 0.52187913E+03</pdfrwt>
<totfact> 0.41902640E+01</totfact>
</mgrwt>
</event>
<event>
 4    1  0.2358610E-002  0.5222587E+03  0.7818608E-02  0.1008127E+00
          2   -1    0    0  502    0  0.00000000000E+00  0.00000000000E+00  0.11903185196E+04  0.11903185196E+04  0.00000000000E+00 0. -1.
         -2   -1    0    0    0  501 -0.00000000000E+00 -0.00000000000E+00 -0.23518249763E+03  0.23518249763E+03  0.00000000000E+00 0.  1.
    9000005    1    1    2  502    0 -0.11847383520E+03 -0.31419430989E+03  0.59177863949E+03  0.78927566297E+03  0.40000000000E+03 0. -1.
   -9000005    1    1    2    0  501  0.11847383520E+03  0.31419430989E+03  0.36335738245E+03  0.63622535424E+03  0.40000000000E+03 0.  1.
<mgrwt>
<rscale>  2 0.52225867E+03</rscale>
<asrwt>0</asrwt>
<pdfrwt beam="1">  1        2 0.18312592E+00 0.52225867E+03</pdfrwt>
<pdfrwt beam="2">  1       -2 0.36181923E-01 0.52225867E+03</pdfrwt>
<totfact> 0.14258227E+02</totfact>
</mgrwt>
</event>
<event>
 4    1  0.2358610E-002  0.4134622E+03  0.7818608E-02  0.1039215E+00
          2   -1    0    0  502    0  0.00000000000E+00  0.00000000000E+00  0.29690780466E+03  0.29690780466E+03  0.00000000000E+00 0.  1.
         -2   -1    0    0    0  501 -0.00000000000E+00 -0.00000000000E+00 -0.61190745556E+03  0.61190745556E+03  0.00000000000E+00 0. -1.
    9000005    1    1    2  502    0 -0.98594126879E+02  0.35073745228E+02 -0.47073101991E+02  0.41613320751E+03  0.40000000000E+03 0.  1.
   -9000005    1    1    2    0  501  0.98594126879E+02 -0.35073745228E+02 -0.26792654890E+03  0.49268205271E+03  0.40000000000E+03 0. -1.
<mgrwt>
<rscale>  2 0.41346217E+03</rscale>
<asrwt>0</asrwt>
<pdfrwt beam="1">  1        2 0.45678124E-01 0.41346217E+03</pdfrwt>
<pdfrwt beam="2">  1       -2 0.94139608E-01 0.41346217E+03</pdfrwt>
<totfact> 0.10872769E+02</totfact>
</mgrwt>
</event>
<event>
 4    1  0.2358610E-002  0.4967717E+03  0.7818608E-02  0.1014625E+00
          4   -1    0    0  502    0  0.00000000000E+00  0.00000000000E+00  0.11988276010E+04  0.11988276010E+04  0.00000000000E+00 0. -1.
         -4   -1    0    0    0  501 -0.00000000000E+00 -0.00000000000E+00 -0.24296178140E+03  0.24296178140E+03  0.00000000000E+00 0.  1.
    9000005    1    1    2  502    0  0.10858296148E+03 -0.27384634165E+03  0.75966873165E+03  0.90767761910E+03  0.40000000000E+03 0. -1.
   -9000005    1    1    2    0  501 -0.10858296148E+03  0.27384634165E+03  0.19619708792E+03  0.53411176327E+03  0.40000000000E+03 0.  1.
<mgrwt>
<rscale>  2 0.49677166E+03</rscale>
<asrwt>0</asrwt>
<pdfrwt beam="1">  1        4 0.18443501E+00 0.49677166E+03</pdfrwt>
<pdfrwt beam="2">  1       -4 0.37378736E-01 0.49677166E+03</pdfrwt>
<totfact> 0.23112676E+00</totfact>
</mgrwt>
</event>
<event>
 4    1  0.2358610E-002  0.4152326E+03  0.7818608E-02  0.1038629E+00
          2   -1    0    0  502    0  0.00000000000E+00  0.00000000000E+00  0.15463855127E+04  0.15463855127E+04  0.00000000000E+00 0.  1.
         -2   -1    0    0    0  501 -0.00000000000E+00 -0.00000000000E+00 -0.24835581341E+03  0.24835581341E+03  0.00000000000E+00 0. -1.
    9000005    1    1    2  502    0  0.93797377087E+02 -0.60167950955E+02 -0.17132466122E+02  0.41558591370E+03  0.40000000000E+03 0. -1.
   -9000005    1    1    2    0  501 -0.93797377087E+02  0.60167950955E+02  0.13151621654E+04  0.13791554125E+04  0.40000000000E+03 0.  1.
<mgrwt>
<rscale>  2 0.41523262E+03</rscale>
<asrwt>0</asrwt>
<pdfrwt beam="1">  1        2 0.23790546E+00 0.41523262E+03</pdfrwt>
<pdfrwt beam="2">  1       -2 0.38208588E-01 0.41523262E+03</pdfrwt>
<totfact> 0.82323560E+01</totfact>
</mgrwt>
</event>
<event>
 4    1  0.2358610E-002  0.4555392E+03  0.7818608E-02  0.1026083E+00
         -1   -1    0    0    0  501 -0.00000000000E+00  0.00000000000E+00  0.23073052261E+03  0.23073052261E+03  0.00000000000E+00 0. -1.
          1   -1    0    0  502    0  0.00000000000E+00 -0.00000000000E+00 -0.92771386876E+03  0.92771386876E+03  0.00000000000E+00 0.  1.
    9000005    1    1    2  502    0  0.13446834516E+03  0.17156404513E+03 -0.44970552466E+03  0.64011797064E+03  0.40000000000E+03 0. -1.
   -9000005    1    1    2    0  501 -0.13446834516E+03 -0.17156404513E+03 -0.24727782148E+03  0.51832642073E+03  0.40000000000E+03 0. -1.
<mgrwt>
<rscale>  2 0.45553919E+03</rscale>
<asrwt>0</asrwt>
<pdfrwt beam="1">  1        1 0.14272521E+00 0.45553919E+03</pdfrwt>
<pdfrwt beam="2">  1       -1 0.35497003E-01 0.45553919E+03</pdfrwt>
<totfact> 0.13644719E+02</totfact>
</mgrwt>
</event>
<event>
 4    1  0.2358610E-002  0.4324491E+03  0.7818608E-02  0.1033089E+00
         -2   -1    0    0    0  501 -0.00000000000E+00  0.00000000000E+00  0.14857398614E+03  0.14857398614E+03  0.00000000000E+00 0.  1.
          2   -1    0    0  502    0  0.00000000000E+00 -0.00000000000E+00 -0.13003951723E+04  0.13003951723E+04  0.00000000000E+00 0. -1.
    9000005    1    1    2  502    0  0.50896677808E+02  0.15627463242E+03 -0.44620498214E+03  0.62137840213E+03  0.40000000000E+03 0.  1.
   -9000005    1    1    2    0  501 -0.50896677808E+02 -0.15627463242E+03 -0.70561620397E+03  0.82759075626E+03  0.40000000000E+03 0. -1.
<mgrwt>
<rscale>  2 0.43244911E+03</rscale>
<asrwt>0</asrwt>
<pdfrwt beam="1">  1        2 0.20006079E+00 0.43244911E+03</pdfrwt>
<pdfrwt beam="2">  1       -2 0.22857537E-01 0.43244911E+03</pdfrwt>
<totfact> 0.28841050E+02</totfact>
</mgrwt>
</event>
<event>
 4    1  0.2358610E-002  0.4025386E+03  0.7818608E-02  0.1042904E+00
         -2   -1    0    0    0  501 -0.00000000000E+00  0.00000000000E+00  0.31329679662E+03  0.31329679662E+03  0.00000000000E+00 0.  1.
          2   -1    0    0  502    0  0.00000000000E+00 -0.00000000000E+00 -0.67842059422E+03  0.67842059422E+03  0.00000000000E+00 0. -1.
    9000005    1    1    2  502    0 -0.44643739248E+02 -0.66550953665E+01  0.59160894195E+02  0.40686283334E+03  0.40000000000E+03 0.  1.
   -9000005    1    1    2    0  501  0.44643739248E+02  0.66550953665E+01 -0.42428469179E+03  0.58485455751E+03  0.40000000000E+03 0. -1.
<mgrwt>
<rscale>  2 0.40253864E+03</rscale>
<asrwt>0</asrwt>
<pdfrwt beam="1">  1        2 0.10437240E+00 0.40253864E+03</pdfrwt>
<pdfrwt beam="2">  1       -2 0.48199508E-01 0.40253864E+03</pdfrwt>
<totfact> 0.17955687E+02</totfact>
</mgrwt>
</event>
<event>
 4    1  0.2358610E-002  0.4053543E+03  0.7818608E-02  0.1041941E+00
         -2   -1    0    0    0  501 -0.00000000000E+00  0.00000000000E+00  0.28976967056E+03  0.28976967056E+03  0.00000000000E+00 0. -1.
          2   -1    0    0  502    0  0.00000000000E+00 -0.00000000000E+00 -0.56742594933E+03  0.56742594933E+03  0.00000000000E+00 0.  1.
    9000005    1    1    2  502    0 -0.64941842451E+02 -0.97308600023E+01 -0.14994900309E+03  0.43219999545E+03  0.40000000000E+03 0. -1.
   -9000005    1    1    2    0  501  0.64941842451E+02  0.97308600023E+01 -0.12770727568E+03  0.42499562445E+03  0.40000000000E+03 0.  1.
<mgrwt>
<rscale>  2 0.40535433E+03</rscale>
<asrwt>0</asrwt>
<pdfrwt beam="1">  1        2 0.87296299E-01 0.40535433E+03</pdfrwt>
<pdfrwt beam="2">  1       -2 0.44579950E-01 0.40535433E+03</pdfrwt>
<totfact> 0.25952382E+02</totfact>
</mgrwt>
</event>
<event>
 4    1  0.2358610E-002  0.4323501E+03  0.7818608E-02  0.1033120E+00
         -2   -1    0    0    0  501 -0.00000000000E+00  0.00000000000E+00  0.15626765603E+03  0.15626765603E+03  0.00000000000E+00 0. -1.
          2   -1    0    0  502    0  0.00000000000E+00 -0.00000000000E+00 -0.12807998682E+04  0.12807998682E+04  0.00000000000E+00 0.  1.
    9000005    1    1    2  502    0 -0.15796269455E+02  0.16333124121E+03 -0.74693925918E+03  0.86304395797E+03  0.40000000000E+03 0.  1.
   -9000005    1    1    2    0  501  0.15796269455E+02 -0.16333124121E+03 -0.37759295300E+03  0.57402356628E+03  0.40000000000E+03 0. -1.
<mgrwt>
<rscale>  2 0.43235011E+03</rscale>
<asrwt>0</asrwt>
<pdfrwt beam="1">  1        2 0.19704615E+00 0.43235011E+03</pdfrwt>
<pdfrwt beam="2">  1       -2 0.24041176E-01 0.43235011E+03</pdfrwt>
<totfact> 0.27057925E+02</totfact>
</mgrwt>
</event>
<event>
 4    1  0.2358610E-002  0.5243712E+03  0.7818608E-02  0.1007606E+00
          2   -1    0    0  502    0  0.00000000000E+00  0.00000000000E+00  0.10310797357E+04  0.10310797357E+04  0.00000000000E+00 0.  1.
         -2   -1    0    0    0  501 -0.00000000000E+00 -0.00000000000E+00 -0.26913988714E+03  0.26913988714E+03  0.00000000000E+00 0. -1.
    9000005    1    1    2  502    0 -0.13244902133E+03 -0.31212563927E+03  0.44316097200E+03  0.68655429869E+03  0.40000000000E+03 0.  1.
   -9000005    1    1    2    0  501  0.13244902133E+03  0.31212563927E+03  0.31877887658E+03  0.61366532418E+03  0.40000000000E+03 0.  1.
<mgrwt>
<rscale>  2 0.52437120E+03</rscale>
<asrwt>0</asrwt>
<pdfrwt beam="1">  1        2 0.15862765E+00 0.52437120E+03</pdfrwt>
<pdfrwt beam="2">  1       -2 0.41406137E-01 0.52437120E+03</pdfrwt>
<totfact> 0.13708981E+02</totfact>
</mgrwt>
</event>
<event>
 4    1  0.2358610E-002  0.4426836E+03  0.7818608E-02  0.1029927E+00
          2   -1    0    0  502    0  0.00000000000E+00  0.00000000000E+00  0.11553702339E+04  0.11553702339E+04  0.00000000000E+00 0. -1.
         -2   -1    0    0    0  501 -0.00000000000E+00 -0.00000000000E+00 -0.17929410496E+03  0.17929410496E+03  0.00000000000E+00 0.  1.
    9000005    1    1    2  502    0 -0.18942909458E+03  0.92400924331E+01  0.64308537879E+03  0.78072246387E+03  0.40000000000E+03 0. -1.
   -9000005    1    1    2    0  501  0.18942909458E+03 -0.92400924331E+01  0.33299075017E+03  0.55394187500E+03  0.40000000000E+03 0.  1.
<mgrwt>
<rscale>  2 0.44268359E+03</rscale>
<asrwt>0</asrwt>
<pdfrwt beam="1">  1        2 0.17774926E+00 0.44268359E+03</pdfrwt>
<pdfrwt beam="2">  1       -2 0.27583709E-01 0.44268359E+03</pdfrwt>
<totfact> 0.24953741E+02</totfact>
</mgrwt>
</event>
<event>
 4    1  0.2358610E-002  0.6066590E+03  0.7818608E-02  0.9891686E-01
          2   -1    0    0  502    0  0.00000000000E+00  0.00000000000E+00  0.57905824913E+03  0.57905824913E+03  0.00000000000E+00 0. -1.
         -2   -1    0    0    0  501 -0.00000000000E+00 -0.00000000000E+00 -0.63585653702E+03  0.63585653702E+03  0.00000000000E+00 0.  1.
    9000005    1    1    2  502    0  0.38566105452E+03 -0.24351724127E+03 -0.15622836852E+02  0.60686008997E+03  0.40000000000E+03 0.  1.
   -9000005    1    1    2    0  501 -0.38566105452E+03  0.24351724127E+03 -0.41175451039E+02  0.60805469617E+03  0.40000000000E+03 0. -1.
<mgrwt>
<rscale>  2 0.60665896E+03</rscale>
<asrwt>0</asrwt>
<pdfrwt beam="1">  1        2 0.89085885E-01 0.60665896E+03</pdfrwt>
<pdfrwt beam="2">  1       -2 0.97824082E-01 0.60665896E+03</pdfrwt>
<totfact> 0.46117120E+01</totfact>
</mgrwt>
</event>
<event>
 4    1  0.2358610E-002  0.5118417E+03  0.7818608E-02  0.1010733E+00
          1   -1    0    0  502    0  0.00000000000E+00  0.00000000000E+00  0.49489280905E+03  0.49489280905E+03  0.00000000000E+00 0.  1.
         -1   -1    0    0    0  501 -0.00000000000E+00 -0.00000000000E+00 -0.54139034274E+03  0.54139034274E+03  0.00000000000E+00 0. -1.
    9000005    1    1    2  502    0  0.14340249289E+03 -0.28533773368E+03 -0.10045168118E+03  0.52160563406E+03  0.40000000000E+03 0. -1.
   -9000005    1    1    2    0  501 -0.14340249289E+03  0.28533773368E+03  0.53954147489E+02  0.51467751773E+03  0.40000000000E+03 0. -1.
<mgrwt>
<rscale>  2 0.51184167E+03</rscale>
<asrwt>0</asrwt>
<pdfrwt beam="1">  1        1 0.76137355E-01 0.51184167E+03</pdfrwt>
<pdfrwt beam="2">  1       -1 0.83290822E-01 0.51184167E+03</pdfrwt>
<totfact> 0.67062627E+01</totfact>
</mgrwt>
</event>
<event>
 4    1  0.2358610E-002  0.4653002E+03  0.7818608E-02  0.1023255E+00
          1   -1    0    0  502    0  0.00000000000E+00  0.00000000000E+00  0.46745861205E+03  0.46745861205E+03  0.00000000000E+00 0. -1.
         -1   -1    0    0    0  501 -0.00000000000E+00 -0.00000000000E+00 -0.48642400698E+03  0.48642400698E+03  0.00000000000E+00 0.  1.
    9000005    1    1    2  502    0  0.43059662275E+02 -0.23377376586E+03  0.94839329015E+02  0.47486714610E+03  0.40000000000E+03 0. -1.
   -9000005    1    1    2    0  501 -0.43059662275E+02  0.23377376586E+03 -0.11380472394E+03  0.47901547293E+03  0.40000000000E+03 0.  1.
<mgrwt>
<rscale>  2 0.46530023E+03</rscale>
<asrwt>0</asrwt>
<pdfrwt beam="1">  1        1 0.71916710E-01 0.46530023E+03</pdfrwt>
<pdfrwt beam="2">  1       -1 0.74834463E-01 0.46530023E+03</pdfrwt>
<totfact> 0.91124897E+01</totfact>
</mgrwt>
</event>
<event>
 4    1  0.2358610E-002  0.4149646E+03  0.7818608E-02  0.1038718E+00
          1   -1    0    0  502    0  0.00000000000E+00  0.00000000000E+00  0.75492518666E+03  0.75492518666E+03  0.00000000000E+00 0. -1.
         -1   -1    0    0    0  501 -0.00000000000E+00 -0.00000000000E+00 -0.24876287551E+03  0.24876287551E+03  0.00000000000E+00 0.  1.
    9000005    1    1    2  502    0  0.83554052737E+02  0.72210181725E+02  0.10843364651E+03  0.42889794330E+03  0.40000000000E+03 0.  1.
   -9000005    1    1    2    0  501 -0.83554052737E+02 -0.72210181725E+02  0.39772866464E+03  0.57479011887E+03  0.40000000000E+03 0. -1.
<mgrwt>
<rscale>  2 0.41496456E+03</rscale>
<asrwt>0</asrwt>
<pdfrwt beam="1">  1        1 0.11614234E+00 0.41496456E+03</pdfrwt>
<pdfrwt beam="2">  1       -1 0.38271212E-01 0.41496456E+03</pdfrwt>
<totfact> 0.16690483E+02</totfact>
</mgrwt>
</event>
<event>
 4    1  0.2358610E-002  0.4609333E+03  0.7818608E-02  0.1024511E+00
         -2   -1    0    0    0  501 -0.00000000000E+00  0.00000000000E+00  0.41945325091E+03  0.41945325091E+03  0.00000000000E+00 0. -1.
          2   -1    0    0  502    0  0.00000000000E+00 -0.00000000000E+00 -0.53260951901E+03  0.53260951901E+03  0.00000000000E+00 0.  1.
    9000005    1    1    2  502    0 -0.41591654836E+02  0.22523232777E+03 -0.16194491517E+03  0.48855462619E+03  0.40000000000E+03 0.  1.
   -9000005    1    1    2    0  501  0.41591654836E+02 -0.22523232777E+03  0.48788647066E+02  0.46350814373E+03  0.40000000000E+03 0.  1.
<mgrwt>
<rscale>  2 0.46093326E+03</rscale>
<asrwt>0</asrwt>
<pdfrwt beam="1">  1        2 0.81939926E-01 0.46093326E+03</pdfrwt>
<pdfrwt beam="2">  1       -2 0.64531270E-01 0.46093326E+03</pdfrwt>
<totfact> 0.13046247E+02</totfact>
</mgrwt>
</event>
<event>
 4    1  0.2358610E-002  0.4284554E+03  0.7818608E-02  0.1034349E+00
         -4   -1    0    0    0  501 -0.00000000000E+00  0.00000000000E+00  0.13242671833E+04  0.13242671833E+04  0.00000000000E+00 0. -1.
          4   -1    0    0  502    0  0.00000000000E+00 -0.00000000000E+00 -0.16446687127E+03  0.16446687127E+03  0.00000000000E+00 0.  1.
    9000005    1    1    2  502    0  0.14694787385E+03  0.44501088633E+02  0.87497068909E+03  0.97424213176E+03  0.40000000000E+03 0. -1.
   -9000005    1    1    2    0  501 -0.14694787385E+03 -0.44501088633E+02  0.28482962289E+03  0.51449192277E+03  0.40000000000E+03 0.  1.
<mgrwt>
<rscale>  2 0.42845539E+03</rscale>
<asrwt>0</asrwt>
<pdfrwt beam="1">  1        4 0.25302596E-01 0.42845539E+03</pdfrwt>
<pdfrwt beam="2">  1       -4 0.20373341E+00 0.42845539E+03</pdfrwt>
<totfact> 0.36703974E+00</totfact>
</mgrwt>
</event>
<event>
 4    1  0.2358610E-002  0.4004764E+03  0.7818608E-02  0.1043615E+00
          2   -1    0    0  502    0  0.00000000000E+00  0.00000000000E+00  0.21343481677E+04  0.21343481677E+04  0.00000000000E+00 0.  1.
         -2   -1    0    0    0  501 -0.00000000000E+00 -0.00000000000E+00 -0.75553990830E+02  0.75553990830E+02  0.00000000000E+00 0. -1.
    9000005    1    1    2  502    0  0.18860371116E+02 -0.50594987896E+01  0.11108925531E+04  0.11808740732E+04  0.40000000000E+03 0.  1.
   -9000005    1    1    2    0  501 -0.18860371116E+02  0.50594987896E+01  0.94790162369E+03  0.10290280853E+04  0.40000000000E+03 0. -1.
<mgrwt>
<rscale>  2 0.40047636E+03</rscale>
<asrwt>0</asrwt>
<pdfrwt beam="1">  1        2 0.32836121E+00 0.40047636E+03</pdfrwt>
<pdfrwt beam="2">  1       -2 0.11623693E-01 0.40047636E+03</pdfrwt>
<totfact> 0.32181627E+02</totfact>
</mgrwt>
</event>
<event>
 4    1  0.2358610E-002  0.4466500E+03  0.7818608E-02  0.1028726E+00
         -2   -1    0    0    0  501 -0.00000000000E+00  0.00000000000E+00  0.10412737213E+03  0.10412737213E+03  0.00000000000E+00 0.  1.
          2   -1    0    0  502    0  0.00000000000E+00 -0.00000000000E+00 -0.20744328063E+04  0.20744328063E+04  0.00000000000E+00 0. -1.
    9000005    1    1    2  502    0  0.64955082581E+02 -0.18782179349E+03 -0.12862927124E+04  0.13616332586E+04  0.40000000000E+03 0. -1.
   -9000005    1    1    2    0  501 -0.64955082581E+02  0.18782179349E+03 -0.68401272178E+03  0.81692691987E+03  0.40000000000E+03 0.  1.
<mgrwt>
<rscale>  2 0.44664996E+03</rscale>
<asrwt>0</asrwt>
<pdfrwt beam="1">  1        2 0.31914347E+00 0.44664996E+03</pdfrwt>
<pdfrwt beam="2">  1       -2 0.16019598E-01 0.44664996E+03</pdfrwt>
<totfact> 0.20221246E+02</totfact>
</mgrwt>
</event>
<event>
 4    1  0.2358610E-002  0.4035084E+03  0.7818608E-02  0.1042572E+00
         -2   -1    0    0    0  501 -0.00000000000E+00  0.00000000000E+00  0.29395312554E+03  0.29395312554E+03  0.00000000000E+00 0. -1.
          2   -1    0    0  502    0  0.00000000000E+00 -0.00000000000E+00 -0.55545598007E+03  0.55545598007E+03  0.00000000000E+00 0.  1.
    9000005    1    1    2  502    0 -0.28379243860E+01  0.53018953293E+02 -0.10823447400E+03  0.41777238370E+03  0.40000000000E+03 0. -1.
   -9000005    1    1    2    0  501  0.28379243860E+01 -0.53018953293E+02 -0.15326838053E+03  0.43163672190E+03  0.40000000000E+03 0. -1.
<mgrwt>
<rscale>  2 0.40350844E+03</rscale>
<asrwt>0</asrwt>
<pdfrwt beam="1">  1        2 0.85454766E-01 0.40350844E+03</pdfrwt>
<pdfrwt beam="2">  1       -2 0.45223558E-01 0.40350844E+03</pdfrwt>
<totfact> 0.25866291E+02</totfact>
</mgrwt>
</event>
<event>
 4    1  0.2358610E-002  0.4363248E+03  0.7818608E-02  0.1031880E+00
          1   -1    0    0  502    0  0.00000000000E+00  0.00000000000E+00  0.15634589024E+04  0.15634589024E+04  0.00000000000E+00 0.  1.
         -1   -1    0    0    0  501 -0.00000000000E+00 -0.00000000000E+00 -0.15403042793E+03  0.15403042793E+03  0.00000000000E+00 0. -1.
    9000005    1    1    2  502    0  0.70207702567E+02 -0.15953131467E+03  0.31169944927E+03  0.53622374857E+03  0.40000000000E+03 0. -1.
   -9000005    1    1    2    0  501 -0.70207702567E+02  0.15953131467E+03  0.10977290252E+04  0.11812655818E+04  0.40000000000E+03 0.  1.
<mgrwt>
<rscale>  2 0.43632484E+03</rscale>
<asrwt>0</asrwt>
<pdfrwt beam="1">  1        1 0.24053213E+00 0.43632484E+03</pdfrwt>
<pdfrwt beam="2">  1       -1 0.23696990E-01 0.43632484E+03</pdfrwt>
<totfact> 0.96556764E+01</totfact>
</mgrwt>
</event>
<event>
 4    1  0.2358610E-002  0.5166078E+03  0.7818608E-02  0.1009533E+00
          1   -1    0    0  502    0  0.00000000000E+00  0.00000000000E+00  0.38357363365E+03  0.38357363365E+03  0.00000000000E+00 0.  1.
         -1   -1    0    0    0  501 -0.00000000000E+00 -0.00000000000E+00 -0.74757379417E+03  0.74757379417E+03  0.00000000000E+00 0. -1.
    9000005    1    1    2  502    0  0.27396826470E+03 -0.17839572628E+03 -0.33086504314E+03  0.61347805339E+03  0.40000000000E+03 0.  1.
   -9000005    1    1    2    0  501 -0.27396826470E+03  0.17839572628E+03 -0.33135117383E+02  0.51766937443E+03  0.40000000000E+03 0. -1.
<mgrwt>
<rscale>  2 0.51660783E+03</rscale>
<asrwt>0</asrwt>
<pdfrwt beam="1">  1        1 0.59011329E-01 0.51660783E+03</pdfrwt>
<pdfrwt beam="2">  1       -1 0.11501135E+00 0.51660783E+03</pdfrwt>
<totfact> 0.45511765E+01</totfact>
</mgrwt>
</event>
<event>
 4    1  0.2358610E-002  0.4912524E+03  0.7818608E-02  0.1016088E+00
          2   -1    0    0  502    0  0.00000000000E+00  0.00000000000E+00  0.17962325041E+04  0.17962325041E+04  0.00000000000E+00 0. -1.
         -2   -1    0    0    0  501 -0.00000000000E+00 -0.00000000000E+00 -0.13460259841E+03  0.13460259841E+03  0.00000000000E+00 0.  1.
    9000005    1    1    2  502    0  0.25188544812E+03  0.13372583513E+03  0.78922602744E+03  0.92962712973E+03  0.40000000000E+03 0.  1.
   -9000005    1    1    2    0  501 -0.25188544812E+03 -0.13372583513E+03  0.87240387831E+03  0.10012079728E+04  0.40000000000E+03 0.  1.
<mgrwt>
<rscale>  2 0.49125236E+03</rscale>
<asrwt>0</asrwt>
<pdfrwt beam="1">  1        2 0.27634344E+00 0.49125236E+03</pdfrwt>
<pdfrwt beam="2">  1       -2 0.20708093E-01 0.49125236E+03</pdfrwt>
<totfact> 0.18244887E+02</totfact>
</mgrwt>
</event>
<event>
 4    1  0.2358610E-002  0.6602552E+03  0.7818608E-02  0.9787724E-01
         -2   -1    0    0    0  501 -0.00000000000E+00  0.00000000000E+00  0.48452578099E+03  0.48452578099E+03  0.00000000000E+00 0.  1.
          2   -1    0    0  502    0  0.00000000000E+00 -0.00000000000E+00 -0.17287119855E+04  0.17287119855E+04  0.00000000000E+00 0. -1.
    9000005    1    1    2  502    0 -0.41448302241E+03  0.32270839535E+03 -0.13884168308E+04  0.15374128204E+04  0.40000000000E+03 0. -1.
   -9000005    1    1    2    0  501  0.41448302241E+03 -0.32270839535E+03  0.14423062622E+03  0.67582494615E+03  0.40000000000E+03 0.  1.
<mgrwt>
<rscale>  2 0.66025517E+03</rscale>
<asrwt>0</asrwt>
<pdfrwt beam="1">  1        2 0.26595569E+00 0.66025517E+03</pdfrwt>
<pdfrwt beam="2">  1       -2 0.74542427E-01 0.66025517E+03</pdfrwt>
<totfact> 0.15944073E+01</totfact>
</mgrwt>
</event>
<event>
 4    1  0.2358610E-002  0.4069702E+03  0.7818608E-02  0.1041393E+00
          2   -1    0    0  502    0  0.00000000000E+00  0.00000000000E+00  0.83828080781E+03  0.83828080781E+03  0.00000000000E+00 0.  1.
         -2   -1    0    0    0  501 -0.00000000000E+00 -0.00000000000E+00 -0.19759521696E+03  0.19759521696E+03  0.00000000000E+00 0. -1.
    9000005    1    1    2  502    0 -0.74296249672E+02  0.10237161206E+02  0.31532511593E+03  0.51483459569E+03  0.40000000000E+03 0.  1.
   -9000005    1    1    2    0  501  0.74296249672E+02 -0.10237161206E+02  0.32536047492E+03  0.52104142909E+03  0.40000000000E+03 0. -1.
<mgrwt>
<rscale>  2 0.40697019E+03</rscale>
<asrwt>0</asrwt>
<pdfrwt beam="1">  1        2 0.12896628E+00 0.40697019E+03</pdfrwt>
<pdfrwt beam="2">  1       -2 0.30399264E-01 0.40697019E+03</pdfrwt>
<totfact> 0.33195573E+02</totfact>
</mgrwt>
</event>
<event>
 4    1  0.2358610E-002  0.4113979E+03  0.7818608E-02  0.1039903E+00
          2   -1    0    0  502    0  0.00000000000E+00  0.00000000000E+00  0.16742243465E+04  0.16742243465E+04  0.00000000000E+00 0.  1.
         -2   -1    0    0    0  501 -0.00000000000E+00 -0.00000000000E+00 -0.10117291069E+03  0.10117291069E+03  0.00000000000E+00 0. -1.
    9000005    1    1    2  502    0  0.94952956688E+02 -0.15235726024E+02  0.76119184862E+03  0.86525211456E+03  0.40000000000E+03 0. -1.
   -9000005    1    1    2    0  501 -0.94952956688E+02  0.15235726024E+02  0.81185958716E+03  0.91014514259E+03  0.40000000000E+03 0.  1.
<mgrwt>
<rscale>  2 0.41139785E+03</rscale>
<asrwt>0</asrwt>
<pdfrwt beam="1">  1        2 0.25757296E+00 0.41139785E+03</pdfrwt>
<pdfrwt beam="2">  1       -2 0.15565064E-01 0.41139785E+03</pdfrwt>
<totfact> 0.34931688E+02</totfact>
</mgrwt>
</event>
<event>
 4    1  0.2358610E-002  0.5638494E+03  0.7818608E-02  0.9983382E-01
         -2   -1    0    0    0  501 -0.00000000000E+00  0.00000000000E+00  0.36064104083E+03  0.36064104083E+03  0.00000000000E+00 0. -1.
          2   -1    0    0  502    0  0.00000000000E+00 -0.00000000000E+00 -0.13739168101E+04  0.13739168101E+04  0.00000000000E+00 0.  1.
    9000005    1    1    2  502    0 -0.20679058662E+03  0.33935798037E+03  0.12543602394E+02  0.56398894273E+03  0.40000000000E+03 0. -1.
   -9000005    1    1    2    0  501  0.20679058662E+03 -0.33935798037E+03 -0.10258193716E+04  0.11705689082E+04  0.40000000000E+03 0.  1.
<mgrwt>
<rscale>  2 0.56384944E+03</rscale>
<asrwt>0</asrwt>
<pdfrwt beam="1">  1        2 0.21137182E+00 0.56384944E+03</pdfrwt>
<pdfrwt beam="2">  1       -2 0.55483237E-01 0.56384944E+03</pdfrwt>
<totfact> 0.47676900E+01</totfact>
</mgrwt>
</event>
<event>
 4    1  0.2358610E-002  0.5734630E+03  0.7818608E-02  0.9962045E-01
          2   -1    0    0  502    0  0.00000000000E+00  0.00000000000E+00  0.34491184985E+03  0.34491184985E+03  0.00000000000E+00 0.  1.
         -2   -1    0    0    0  501 -0.00000000000E+00 -0.00000000000E+00 -0.96502224549E+03  0.96502224549E+03  0.00000000000E+00 0. -1.
    9000005    1    1    2  502    0 -0.40145732100E+03  0.87702876318E+02 -0.23836410540E+03  0.62102916344E+03  0.40000000000E+03 0. -1.
   -9000005    1    1    2    0  501  0.40145732100E+03 -0.87702876318E+02 -0.38174629024E+03  0.68890493191E+03  0.40000000000E+03 0.  1.
<mgrwt>
<rscale>  2 0.57346297E+03</rscale>
<asrwt>0</asrwt>
<pdfrwt beam="1">  1        2 0.53063362E-01 0.57346297E+03</pdfrwt>
<pdfrwt beam="2">  1       -2 0.14846496E+00 0.57346297E+03</pdfrwt>
<totfact> 0.29705843E+01</totfact>
</mgrwt>
</event>
<event>
 4    1  0.2358610E-002  0.4943681E+03  0.7818608E-02  0.1015259E+00
         -1   -1    0    0    0  501 -0.00000000000E+00  0.00000000000E+00  0.87151899604E+03  0.87151899604E+03  0.00000000000E+00 0.  1.
          1   -1    0    0  502    0  0.00000000000E+00 -0.00000000000E+00 -0.32785429104E+03  0.32785429104E+03  0.00000000000E+00 0. -1.
    9000005    1    1    2  502    0 -0.24456978444E+03 -0.15679746206E+03  0.43753158680E+02  0.49630047598E+03  0.40000000000E+03 0. -1.
   -9000005    1    1    2    0  501  0.24456978444E+03  0.15679746206E+03  0.49991154631E+03  0.70307281110E+03  0.40000000000E+03 0.  1.
<mgrwt>
<rscale>  2 0.49436811E+03</rscale>
<asrwt>0</asrwt>
<pdfrwt beam="1">  1        1 0.50439122E-01 0.49436811E+03</pdfrwt>
<pdfrwt beam="2">  1       -1 0.13407984E+00 0.49436811E+03</pdfrwt>
<totfact> 0.38407544E+01</totfact>
</mgrwt>
</event>
<event>
 4    1  0.2358610E-002  0.5117928E+03  0.7818608E-02  0.1010746E+00
         -1   -1    0    0    0  501 -0.00000000000E+00  0.00000000000E+00  0.25963713072E+03  0.25963713072E+03  0.00000000000E+00 0.  1.
          1   -1    0    0  502    0  0.00000000000E+00 -0.00000000000E+00 -0.10094888875E+04  0.10094888875E+04  0.00000000000E+00 0. -1.
    9000005    1    1    2  502    0  0.23850850140E+03 -0.21223948373E+03 -0.35881762678E+03  0.62504559272E+03  0.40000000000E+03 0. -1.
   -9000005    1    1    2    0  501 -0.23850850140E+03  0.21223948373E+03 -0.39103413004E+03  0.64408042553E+03  0.40000000000E+03 0. -1.
<mgrwt>
<rscale>  2 0.51179283E+03</rscale>
<asrwt>0</asrwt>
<pdfrwt beam="1">  1        1 0.15530598E+00 0.51179283E+03</pdfrwt>
<pdfrwt beam="2">  1       -1 0.39944174E-01 0.51179283E+03</pdfrwt>
<totfact> 0.94851346E+01</totfact>
</mgrwt>
</event>
<event>
 4    1  0.2358610E-002  0.6327151E+03  0.7818608E-02  0.9839765E-01
          2   -1    0    0  502    0  0.00000000000E+00  0.00000000000E+00  0.10976496607E+04  0.10976496607E+04  0.00000000000E+00 0.  1.
         -2   -1    0    0    0  501 -0.00000000000E+00 -0.00000000000E+00 -0.47486826056E+03  0.47486826056E+03  0.00000000000E+00 0. -1.
    9000005    1    1    2  502    0 -0.52299358610E+01  0.49020514060E+03  0.69007671473E+03  0.93623410764E+03  0.40000000000E+03 0.  1.
   -9000005    1    1    2    0  501  0.52299358610E+01 -0.49020514060E+03 -0.67295314592E+02  0.63628381361E+03  0.40000000000E+03 0. -1.
<mgrwt>
<rscale>  2 0.63271513E+03</rscale>
<asrwt>0</asrwt>
<pdfrwt beam="1">  1        2 0.16886918E+00 0.63271513E+03</pdfrwt>
<pdfrwt beam="2">  1       -2 0.73056655E-01 0.63271513E+03</pdfrwt>
<totfact> 0.38086694E+01</totfact>
</mgrwt>
</event>
<event>
 4    1  0.2358610E-002  0.4785105E+03  0.7818608E-02  0.1019545E+00
          1   -1    0    0  502    0  0.00000000000E+00  0.00000000000E+00  0.14053561623E+04  0.14053561623E+04  0.00000000000E+00 0. -1.
         -1   -1    0    0    0  501 -0.00000000000E+00 -0.00000000000E+00 -0.17680595117E+03  0.17680595117E+03  0.00000000000E+00 0.  1.
    9000005    1    1    2  502    0 -0.11919859052E+03  0.23401712638E+03  0.39264425870E+03  0.61898451783E+03  0.40000000000E+03 0. -1.
   -9000005    1    1    2    0  501  0.11919859052E+03 -0.23401712638E+03  0.83590595240E+03  0.96317759561E+03  0.40000000000E+03 0. -1.
<mgrwt>
<rscale>  2 0.47851052E+03</rscale>
<asrwt>0</asrwt>
<pdfrwt beam="1">  1        1 0.21620863E+00 0.47851052E+03</pdfrwt>
<pdfrwt beam="2">  1       -1 0.27200917E-01 0.47851052E+03</pdfrwt>
<totfact> 0.97190176E+01</totfact>
</mgrwt>
</event>
<event>
 4    1  0.2358610E-002  0.5257719E+03  0.7818608E-02  0.1007263E+00
         -2   -1    0    0    0  501 -0.00000000000E+00  0.00000000000E+00  0.10460218727E+04  0.10460218727E+04  0.00000000000E+00 0.  1.
          2   -1    0    0  502    0  0.00000000000E+00 -0.00000000000E+00 -0.26751097894E+03  0.26751097894E+03  0.00000000000E+00 0. -1.
    9000005    1    1    2  502    0  0.26577752906E+03  0.21400556574E+03  0.31700678969E+03  0.61394574828E+03  0.40000000000E+03 0. -1.
   -9000005    1    1    2    0  501 -0.26577752906E+03 -0.21400556574E+03  0.46150410405E+03  0.69958710335E+03  0.40000000000E+03 0.  1.
<mgrwt>
<rscale>  2 0.52577189E+03</rscale>
<asrwt>0</asrwt>
<pdfrwt beam="1">  1        2 0.41155536E-01 0.52577189E+03</pdfrwt>
<pdfrwt beam="2">  1       -2 0.16092644E+00 0.52577189E+03</pdfrwt>
<totfact> 0.31890165E+01</totfact>
</mgrwt>
</event>
<event>
 4    1  0.2358610E-002  0.4465251E+03  0.7818608E-02  0.1028763E+00
         -2   -1    0    0    0  501 -0.00000000000E+00  0.00000000000E+00  0.53612374049E+03  0.53612374049E+03  0.00000000000E+00 0. -1.
          2   -1    0    0  502    0  0.00000000000E+00 -0.00000000000E+00 -0.37526445848E+03  0.37526445848E+03  0.00000000000E+00 0.  1.
    9000005    1    1    2  502    0  0.19109532632E+03  0.53546829384E+02  0.12357459982E+03  0.46330914992E+03  0.40000000000E+03 0. -1.
   -9000005    1    1    2    0  501 -0.19109532632E+03 -0.53546829384E+02  0.37284682185E+02  0.44807904906E+03  0.40000000000E+03 0.  1.
<mgrwt>
<rscale>  2 0.44652512E+03</rscale>
<asrwt>0</asrwt>
<pdfrwt beam="1">  1        2 0.57732994E-01 0.44652512E+03</pdfrwt>
<pdfrwt beam="2">  1       -2 0.82480575E-01 0.44652512E+03</pdfrwt>
<totfact> 0.11330354E+02</totfact>
</mgrwt>
</event>
<event>
 4    1  0.2358610E-002  0.4368411E+03  0.7818608E-02  0.1031720E+00
         -2   -1    0    0    0  501 -0.00000000000E+00  0.00000000000E+00  0.13363905137E+03  0.13363905137E+03  0.00000000000E+00 0. -1.
          2   -1    0    0  502    0  0.00000000000E+00 -0.00000000000E+00 -0.14310258040E+04  0.14310258040E+04  0.00000000000E+00 0.  1.
    9000005    1    1    2  502    0 -0.14456969825E+03 -0.99648038618E+02 -0.68495247575E+03  0.81239770020E+03  0.40000000000E+03 0. -1.
   -9000005    1    1    2    0  501  0.14456969825E+03  0.99648038618E+02 -0.61243427690E+03  0.75226715519E+03  0.40000000000E+03 0.  1.
<mgrwt>
<rscale>  2 0.43684108E+03</rscale>
<asrwt>0</asrwt>
<pdfrwt beam="1">  1        2 0.22015782E+00 0.43684108E+03</pdfrwt>
<pdfrwt beam="2">  1       -2 0.20559854E-01 0.43684108E+03</pdfrwt>
<totfact> 0.29343631E+02</totfact>
</mgrwt>
</event>
<event>
 4    1  0.2358610E-002  0.5240680E+03  0.7818608E-02  0.1007681E+00
         -2   -1    0    0    0  501 -0.00000000000E+00  0.00000000000E+00  0.39114423080E+03  0.39114423080E+03  0.00000000000E+00 0.  1.
          2   -1    0    0  502    0  0.00000000000E+00 -0.00000000000E+00 -0.74740622039E+03  0.74740622039E+03  0.00000000000E+00 0. -1.
    9000005    1    1    2  502    0  0.12824138208E+03  0.31337104949E+03 -0.38069907870E+02  0.52544893626E+03  0.40000000000E+03 0.  1.
   -9000005    1    1    2    0  501 -0.12824138208E+03 -0.31337104949E+03 -0.31819208173E+03  0.61310151493E+03  0.40000000000E+03 0. -1.
<mgrwt>
<rscale>  2 0.52406800E+03</rscale>
<asrwt>0</asrwt>
<pdfrwt beam="1">  1        2 0.11498557E+00 0.52406800E+03</pdfrwt>
<pdfrwt beam="2">  1       -2 0.60176036E-01 0.52406800E+03</pdfrwt>
<totfact> 0.99823175E+01</totfact>
</mgrwt>
</event>
<event>
 4    1  0.2358610E-002  0.4644296E+03  0.7818608E-02  0.1023504E+00
         -2   -1    0    0    0  501 -0.00000000000E+00  0.00000000000E+00  0.19112134387E+03  0.19112134387E+03  0.00000000000E+00 0.  1.
          2   -1    0    0  502    0  0.00000000000E+00 -0.00000000000E+00 -0.19227101534E+04  0.19227101534E+04  0.00000000000E+00 0. -1.
    9000005    1    1    2  502    0 -0.21473828159E+02  0.23501854314E+03 -0.18654296237E+03  0.50049287480E+03  0.40000000000E+03 0.  1.
   -9000005    1    1    2    0  501  0.21473828159E+02 -0.23501854314E+03 -0.15450458472E+04  0.16133386225E+04  0.40000000000E+03 0. -1.
<mgrwt>
<rscale>  2 0.46442959E+03</rscale>
<asrwt>0</asrwt>
<pdfrwt beam="1">  1        2 0.29580157E+00 0.46442959E+03</pdfrwt>
<pdfrwt beam="2">  1       -2 0.29403283E-01 0.46442959E+03</pdfrwt>
<totfact> 0.83715004E+01</totfact>
</mgrwt>
</event>
<event>
 4    1  0.2358610E-002  0.4950359E+03  0.7818608E-02  0.1015083E+00
         -2   -1    0    0    0  501 -0.00000000000E+00  0.00000000000E+00  0.15721642019E+04  0.15721642019E+04  0.00000000000E+00 0.  1.
          2   -1    0    0  502    0  0.00000000000E+00 -0.00000000000E+00 -0.16675400225E+03  0.16675400225E+03  0.00000000000E+00 0. -1.
    9000005    1    1    2  502    0 -0.17619118534E+03 -0.23241611203E+03  0.92478643487E+03  0.10489473452E+04  0.40000000000E+03 0.  1.
   -9000005    1    1    2    0  501  0.17619118534E+03  0.23241611203E+03  0.48062376481E+03  0.68997085897E+03  0.40000000000E+03 0. -1.
<mgrwt>
<rscale>  2 0.49503594E+03</rscale>
<asrwt>0</asrwt>
<pdfrwt beam="1">  1        2 0.25654463E-01 0.49503594E+03</pdfrwt>
<pdfrwt beam="2">  1       -2 0.24187140E+00 0.49503594E+03</pdfrwt>
<totfact> 0.16160780E+01</totfact>
</mgrwt>
</event>
<event>
 4    1  0.2358610E-002  0.5592027E+03  0.7818608E-02  0.9993860E-01
         -1   -1    0    0    0  501 -0.00000000000E+00  0.00000000000E+00  0.50513011693E+03  0.50513011693E+03  0.00000000000E+00 0.  1.
          1   -1    0    0  502    0  0.00000000000E+00 -0.00000000000E+00 -0.66854765485E+03  0.66854765485E+03  0.00000000000E+00 0. -1.
    9000005    1    1    2  502    0  0.36941652270E+03 -0.12743267212E+03  0.77947315250E+02  0.56460910117E+03  0.40000000000E+03 0.  1.
   -9000005    1    1    2    0  501 -0.36941652270E+03  0.12743267212E+03 -0.24136485317E+03  0.60906867061E+03  0.40000000000E+03 0. -1.
<mgrwt>
<rscale>  2 0.55920269E+03</rscale>
<asrwt>0</asrwt>
<pdfrwt beam="1">  1        1 0.10285348E+00 0.55920269E+03</pdfrwt>
<pdfrwt beam="2">  1       -1 0.77712326E-01 0.55920269E+03</pdfrwt>
<totfact> 0.50512032E+01</totfact>
</mgrwt>
</event>
<event>
 4    1  0.2358610E-002  0.4776946E+03  0.7818608E-02  0.1019771E+00
          2   -1    0    0  502    0  0.00000000000E+00  0.00000000000E+00  0.46510651890E+03  0.46510651890E+03  0.00000000000E+00 0. -1.
         -2   -1    0    0    0  501 -0.00000000000E+00 -0.00000000000E+00 -0.50147323717E+03  0.50147323717E+03  0.00000000000E+00 0.  1.
    9000005    1    1    2  502    0 -0.17445254250E+03  0.19431529927E+03 -0.89271333889E+02  0.48596450094E+03  0.40000000000E+03 0. -1.
   -9000005    1    1    2    0  501  0.17445254250E+03 -0.19431529927E+03  0.52904615622E+02  0.48061525514E+03  0.40000000000E+03 0. -1.
<mgrwt>
<rscale>  2 0.47769459E+03</rscale>
<asrwt>0</asrwt>
<pdfrwt beam="1">  1        2 0.71554849E-01 0.47769459E+03</pdfrwt>
<pdfrwt beam="2">  1       -2 0.77149728E-01 0.47769459E+03</pdfrwt>
<totfact> 0.10323751E+02</totfact>
</mgrwt>
</event>
<event>
 4    1  0.2358610E-002  0.7334435E+03  0.7818608E-02  0.9661689E-01
         -4   -1    0    0    0  501 -0.00000000000E+00  0.00000000000E+00  0.11907423918E+04  0.11907423918E+04  0.00000000000E+00 0.  1.
          4   -1    0    0  502    0  0.00000000000E+00 -0.00000000000E+00 -0.45433336900E+03  0.45433336900E+03  0.00000000000E+00 0. -1.
    9000005    1    1    2  502    0  0.60143024002E+03  0.12736195802E+03  0.43001140147E+03  0.85020539128E+03  0.40000000000E+03 0. -1.
   -9000005    1    1    2    0  501 -0.60143024002E+03 -0.12736195802E+03  0.30639762131E+03  0.79487036950E+03  0.40000000000E+03 0. -1.
<mgrwt>
<rscale>  2 0.73344352E+03</rscale>
<asrwt>0</asrwt>
<pdfrwt beam="1">  1        4 0.69897442E-01 0.73344352E+03</pdfrwt>
<pdfrwt beam="2">  1       -4 0.18319114E+00 0.73344352E+03</pdfrwt>
<totfact> 0.63080740E-01</totfact>
</mgrwt>
</event>
<event>
 4    1  0.2358610E-002  0.4296381E+03  0.7818608E-02  0.1033974E+00
          3   -1    0    0  502    0  0.00000000000E+00  0.00000000000E+00  0.24285876986E+03  0.24285876986E+03  0.00000000000E+00 0.  1.
         -3   -1    0    0    0  501 -0.00000000000E+00 -0.00000000000E+00 -0.76690385997E+03  0.76690385997E+03  0.00000000000E+00 0. -1.
    9000005    1    1    2  502    0  0.71736688844E+02  0.13943730030E+03 -0.21435198677E+03  0.48014132032E+03  0.40000000000E+03 0.  1.
   -9000005    1    1    2    0  501 -0.71736688844E+02 -0.13943730030E+03 -0.30969310333E+03  0.52962130952E+03  0.40000000000E+03 0. -1.
<mgrwt>
<rscale>  2 0.42963812E+03</rscale>
<asrwt>0</asrwt>
<pdfrwt beam="1">  1        3 0.37362888E-01 0.42963812E+03</pdfrwt>
<pdfrwt beam="2">  1       -3 0.11798521E+00 0.42963812E+03</pdfrwt>
<totfact> 0.10912274E+01</totfact>
</mgrwt>
</event>
<event>
 4    1  0.2358610E-002  0.5583201E+03  0.7818608E-02  0.9995863E-01
          2   -1    0    0  502    0  0.00000000000E+00  0.00000000000E+00  0.91875375691E+03  0.91875375691E+03  0.00000000000E+00 0. -1.
         -2   -1    0    0    0  501 -0.00000000000E+00 -0.00000000000E+00 -0.34264189311E+03  0.34264189311E+03  0.00000000000E+00 0.  1.
    9000005    1    1    2  502    0  0.36708008848E+03 -0.13028276028E+03  0.22564975903E+03  0.60219531942E+03  0.40000000000E+03 0.  1.
   -9000005    1    1    2    0  501 -0.36708008848E+03  0.13028276028E+03  0.35046210476E+03  0.65920033060E+03  0.40000000000E+03 0. -1.
<mgrwt>
<rscale>  2 0.55832015E+03</rscale>
<asrwt>0</asrwt>
<pdfrwt beam="1">  1        2 0.14134673E+00 0.55832015E+03</pdfrwt>
<pdfrwt beam="2">  1       -2 0.52714138E-01 0.55832015E+03</pdfrwt>
<totfact> 0.99492394E+01</totfact>
</mgrwt>
</event>
<event>
 4    1  0.2358610E-002  0.4353645E+03  0.7818608E-02  0.1032179E+00
         -1   -1    0    0    0  501 -0.00000000000E+00  0.00000000000E+00  0.13027486983E+03  0.13027486983E+03  0.00000000000E+00 0.  1.
          1   -1    0    0  502    0  0.00000000000E+00 -0.00000000000E+00 -0.14933937044E+04  0.14933937044E+04  0.00000000000E+00 0. -1.
    9000005    1    1    2  502    0 -0.44831451842E+02  0.16592891003E+03 -0.55128980577E+03  0.70246901156E+03  0.40000000000E+03 0.  1.
   -9000005    1    1    2    0  501  0.44831451842E+02 -0.16592891003E+03 -0.81182902876E+03  0.92119956263E+03  0.40000000000E+03 0. -1.
<mgrwt>
<rscale>  2 0.43536452E+03</rscale>
<asrwt>0</asrwt>
<pdfrwt beam="1">  1        1 0.22975288E+00 0.43536452E+03</pdfrwt>
<pdfrwt beam="2">  1       -1 0.20042287E-01 0.43536452E+03</pdfrwt>
<totfact> 0.14220225E+02</totfact>
</mgrwt>
</event>
<event>
 4    1  0.2358610E-002  0.6589127E+03  0.7818608E-02  0.9790197E-01
          1   -1    0    0  502    0  0.00000000000E+00  0.00000000000E+00  0.18145085108E+04  0.18145085108E+04  0.00000000000E+00 0. -1.
         -1   -1    0    0    0  501 -0.00000000000E+00 -0.00000000000E+00 -0.35588045010E+03  0.35588045010E+03  0.00000000000E+00 0.  1.
    9000005    1    1    2  502    0  0.15435129962E+03 -0.50034154135E+03  0.10813685162E+03  0.66772716013E+03  0.40000000000E+03 0.  1.
   -9000005    1    1    2    0  501 -0.15435129962E+03  0.50034154135E+03  0.13504912091E+04  0.15026618008E+04  0.40000000000E+03 0. -1.
<mgrwt>
<rscale>  2 0.65891273E+03</rscale>
<asrwt>0</asrwt>
<pdfrwt beam="1">  1        1 0.27915515E+00 0.65891273E+03</pdfrwt>
<pdfrwt beam="2">  1       -1 0.54750840E-01 0.65891273E+03</pdfrwt>
<totfact> 0.14175039E+01</totfact>
</mgrwt>
</event>
<event>
 4    1  0.2358610E-002  0.4049585E+03  0.7818608E-02  0.1042076E+00
          2   -1    0    0  502    0  0.00000000000E+00  0.00000000000E+00  0.14618091587E+04  0.14618091587E+04  0.00000000000E+00 0. -1.
         -2   -1    0    0    0  501 -0.00000000000E+00 -0.00000000000E+00 -0.11416938076E+03  0.11416938076E+03  0.00000000000E+00 0.  1.
    9000005    1    1    2  502    0 -0.17236756759E+01 -0.63153852026E+02  0.56990357386E+03  0.69912907505E+03  0.40000000000E+03 0.  1.
   -9000005    1    1    2    0  501  0.17236756759E+01  0.63153852026E+02  0.77773620406E+03  0.87684946438E+03  0.40000000000E+03 0. -1.
<mgrwt>
<rscale>  2 0.40495849E+03</rscale>
<asrwt>0</asrwt>
<pdfrwt beam="1">  1        2 0.22489370E+00 0.40495849E+03</pdfrwt>
<pdfrwt beam="2">  1       -2 0.17564521E-01 0.40495849E+03</pdfrwt>
<totfact> 0.37133681E+02</totfact>
</mgrwt>
</event>
<event>
 4    1  0.2358610E-002  0.4540589E+03  0.7818608E-02  0.1026519E+00
         -1   -1    0    0    0  501 -0.00000000000E+00  0.00000000000E+00  0.25216026976E+03  0.25216026976E+03  0.00000000000E+00 0.  1.
          1   -1    0    0  502    0  0.00000000000E+00 -0.00000000000E+00 -0.93011377753E+03  0.93011377753E+03  0.00000000000E+00 0. -1.
    9000005    1    1    2  502    0  0.20226381940E+03  0.72517682648E+02 -0.13338852316E+03  0.47324619919E+03  0.40000000000E+03 0.  1.
   -9000005    1    1    2    0  501 -0.20226381940E+03 -0.72517682648E+02 -0.54456498461E+03  0.70902784811E+03  0.40000000000E+03 0. -1.
<mgrwt>
<rscale>  2 0.45405888E+03</rscale>
<asrwt>0</asrwt>
<pdfrwt beam="1">  1        1 0.14309442E+00 0.45405888E+03</pdfrwt>
<pdfrwt beam="2">  1       -1 0.38793889E-01 0.45405888E+03</pdfrwt>
<totfact> 0.11601477E+02</totfact>
</mgrwt>
</event>
<event>
 4    1  0.2358610E-002  0.4365617E+03  0.7818608E-02  0.1031807E+00
          1   -1    0    0  502    0  0.00000000000E+00  0.00000000000E+00  0.20928984988E+04  0.20928984988E+04  0.00000000000E+00 0. -1.
         -1   -1    0    0    0  501 -0.00000000000E+00 -0.00000000000E+00 -0.16725238872E+03  0.16725238872E+03  0.00000000000E+00 0.  1.
    9000005    1    1    2  502    0 -0.12004790406E+03  0.12717952170E+03  0.17255477677E+04  0.17799160735E+04  0.40000000000E+03 0.  1.
   -9000005    1    1    2    0  501  0.12004790406E+03 -0.12717952170E+03  0.20009834241E+03  0.48023481407E+03  0.40000000000E+03 0. -1.
<mgrwt>
<rscale>  2 0.43656171E+03</rscale>
<asrwt>0</asrwt>
<pdfrwt beam="1">  1        1 0.32198437E+00 0.43656171E+03</pdfrwt>
<pdfrwt beam="2">  1       -1 0.25731138E-01 0.43656171E+03</pdfrwt>
<totfact> 0.37531152E+01</totfact>
</mgrwt>
</event>
<event>
 4    1  0.2358610E-002  0.7595573E+03  0.7818608E-02  0.9620475E-01
          2   -1    0    0  502    0  0.00000000000E+00  0.00000000000E+00  0.19554285623E+04  0.19554285623E+04  0.00000000000E+00 0.  1.
         -2   -1    0    0    0  501 -0.00000000000E+00 -0.00000000000E+00 -0.32415284180E+03  0.32415284180E+03  0.00000000000E+00 0. -1.
    9000005    1    1    2  502    0 -0.61883902513E+03  0.18429749782E+03  0.47405080464E+03  0.89534991601E+03  0.40000000000E+03 0. -1.
   -9000005    1    1    2    0  501  0.61883902513E+03 -0.18429749782E+03  0.11572249159E+04  0.13842314881E+04  0.40000000000E+03 0.  1.
<mgrwt>
<rscale>  2 0.75955731E+03</rscale>
<asrwt>0</asrwt>
<pdfrwt beam="1">  1        2 0.30083516E+00 0.75955731E+03</pdfrwt>
<pdfrwt beam="2">  1       -2 0.49869669E-01 0.75955731E+03</pdfrwt>
<totfact> 0.27737545E+01</totfact>
</mgrwt>
</event>
<event>
 4    1  0.2358610E-002  0.4132501E+03  0.7818608E-02  0.1039286E+00
         -1   -1    0    0    0  501 -0.00000000000E+00  0.00000000000E+00  0.44862601152E+03  0.44862601152E+03  0.00000000000E+00 0.  1.
          1   -1    0    0  502    0  0.00000000000E+00 -0.00000000000E+00 -0.42322905387E+03  0.42322905387E+03  0.00000000000E+00 0. -1.
    9000005    1    1    2  502    0  0.53132478571E+02 -0.89177147010E+02 -0.12554824298E+03  0.43190043430E+03  0.40000000000E+03 0. -1.
   -9000005    1    1    2    0  501 -0.53132478571E+02  0.89177147010E+02  0.15094520063E+03  0.43995463110E+03  0.40000000000E+03 0.  1.
<mgrwt>
<rscale>  2 0.41325007E+03</rscale>
<asrwt>0</asrwt>
<pdfrwt beam="1">  1        1 0.65112162E-01 0.41325007E+03</pdfrwt>
<pdfrwt beam="2">  1       -1 0.69019386E-01 0.41325007E+03</pdfrwt>
<totfact> 0.12330329E+02</totfact>
</mgrwt>
</event>
<event>
 4    1  0.2358610E-002  0.5109583E+03  0.7818608E-02  0.1010958E+00
          2   -1    0    0  502    0  0.00000000000E+00  0.00000000000E+00  0.35680351822E+03  0.35680351822E+03  0.00000000000E+00 0.  1.
         -2   -1    0    0    0  501 -0.00000000000E+00 -0.00000000000E+00 -0.82616299079E+03  0.82616299079E+03  0.00000000000E+00 0. -1.
    9000005    1    1    2  502    0 -0.28807153280E+03  0.13451086345E+03 -0.34690496224E+02  0.51213456330E+03  0.40000000000E+03 0.  1.
   -9000005    1    1    2    0  501  0.28807153280E+03 -0.13451086345E+03 -0.43466897634E+03  0.67083194571E+03  0.40000000000E+03 0. -1.
<mgrwt>
<rscale>  2 0.51095830E+03</rscale>
<asrwt>0</asrwt>
<pdfrwt beam="1">  1        2 0.54892849E-01 0.51095830E+03</pdfrwt>
<pdfrwt beam="2">  1       -2 0.12710200E+00 0.51095830E+03</pdfrwt>
<totfact> 0.42826677E+01</totfact>
</mgrwt>
</event>
<event>
 4    1  0.2358610E-002  0.4138078E+03  0.7818608E-02  0.1039101E+00
         -2   -1    0    0    0  501 -0.00000000000E+00  0.00000000000E+00  0.26968226705E+03  0.26968226705E+03  0.00000000000E+00 0. -1.
          2   -1    0    0  502    0  0.00000000000E+00 -0.00000000000E+00 -0.87422018391E+03  0.87422018391E+03  0.00000000000E+00 0.  1.
    9000005    1    1    2  502    0  0.52102904162E+02 -0.92315739751E+02 -0.60148551909E+03  0.73008337750E+03  0.40000000000E+03 0.  1.
   -9000005    1    1    2    0  501 -0.52102904162E+02  0.92315739751E+02 -0.30523977797E+01  0.41381907346E+03  0.40000000000E+03 0. -1.
<mgrwt>
<rscale>  2 0.41380782E+03</rscale>
<asrwt>0</asrwt>
<pdfrwt beam="1">  1        2 0.13449541E+00 0.41380782E+03</pdfrwt>
<pdfrwt beam="2">  1       -2 0.41489580E-01 0.41380782E+03</pdfrwt>
<totfact> 0.17418872E+02</totfact>
</mgrwt>
</event>
<event>
 4    1  0.2358610E-002  0.4813507E+03  0.7818608E-02  0.1018765E+00
         -1   -1    0    0    0  501 -0.00000000000E+00  0.00000000000E+00  0.16289951742E+03  0.16289951742E+03  0.00000000000E+00 0.  1.
          1   -1    0    0  502    0  0.00000000000E+00 -0.00000000000E+00 -0.16519000482E+04  0.16519000482E+04  0.00000000000E+00 0. -1.
    9000005    1    1    2  502    0 -0.98216946919E+02  0.24910229840E+03 -0.40623702752E+03  0.62986272017E+03  0.40000000000E+03 0. -1.
   -9000005    1    1    2    0  501  0.98216946919E+02 -0.24910229840E+03 -0.10827635033E+04  0.11849368455E+04  0.40000000000E+03 0. -1.
<mgrwt>
<rscale>  2 0.48135073E+03</rscale>
<asrwt>0</asrwt>
<pdfrwt beam="1">  1        1 0.25413847E+00 0.48135073E+03</pdfrwt>
<pdfrwt beam="2">  1       -1 0.25061465E-01 0.48135073E+03</pdfrwt>
<totfact> 0.76135152E+01</totfact>
</mgrwt>
</event>
<event>
 4    1  0.2358610E-002  0.4034091E+03  0.7818608E-02  0.1042606E+00
          3   -1    0    0  502    0  0.00000000000E+00  0.00000000000E+00  0.10744490761E+04  0.10744490761E+04  0.00000000000E+00 0. -1.
         -3   -1    0    0    0  501 -0.00000000000E+00 -0.00000000000E+00 -0.18171562574E+03  0.18171562574E+03  0.00000000000E+00 0.  1.
    9000005    1    1    2  502    0 -0.87788942948E+01  0.51592998837E+02  0.19009276023E+03  0.44595309620E+03  0.40000000000E+03 0.  1.
   -9000005    1    1    2    0  501  0.87788942948E+01 -0.51592998837E+02  0.70264069015E+03  0.81021160567E+03  0.40000000000E+03 0. -1.
<mgrwt>
<rscale>  2 0.40340911E+03</rscale>
<asrwt>0</asrwt>
<pdfrwt beam="1">  1        3 0.16529985E+00 0.40340911E+03</pdfrwt>
<pdfrwt beam="2">  1       -3 0.27956251E-01 0.40340911E+03</pdfrwt>
<totfact> 0.81495429E+00</totfact>
</mgrwt>
</event>
<event>
 4    1  0.2358610E-002  0.4220115E+03  0.7818608E-02  0.1036414E+00
          1   -1    0    0  502    0  0.00000000000E+00  0.00000000000E+00  0.26291671481E+04  0.26291671481E+04  0.00000000000E+00 0. -1.
         -1   -1    0    0    0  501 -0.00000000000E+00 -0.00000000000E+00 -0.67762873039E+02  0.67762873039E+02  0.00000000000E+00 0.  1.
    9000005    1    1    2  502    0 -0.11065797406E+03 -0.76475504666E+02  0.12547028892E+04  0.13237722728E+04  0.40000000000E+03 0.  1.
   -9000005    1    1    2    0  501  0.11065797406E+03  0.76475504666E+02  0.13067013858E+04  0.13731577483E+04  0.40000000000E+03 0.  1.
<mgrwt>
<rscale>  2 0.42201148E+03</rscale>
<asrwt>0</asrwt>
<pdfrwt beam="1">  1        1 0.40448718E+00 0.42201148E+03</pdfrwt>
<pdfrwt beam="2">  1       -1 0.10425059E-01 0.42201148E+03</pdfrwt>
<totfact> 0.71550908E+01</totfact>
</mgrwt>
</event>
<event>
 4    1  0.2358610E-002  0.5079091E+03  0.7818608E-02  0.1011735E+00
         -2   -1    0    0    0  501 -0.00000000000E+00  0.00000000000E+00  0.11338255746E+03  0.11338255746E+03  0.00000000000E+00 0. -1.
          2   -1    0    0  502    0  0.00000000000E+00 -0.00000000000E+00 -0.23874731140E+04  0.23874731140E+04  0.00000000000E+00 0.  1.
    9000005    1    1    2  502    0  0.29390206376E+03 -0.10767198597E+03 -0.86592349920E+03  0.10038900269E+04  0.40000000000E+03 0.  1.
   -9000005    1    1    2    0  501 -0.29390206376E+03  0.10767198597E+03 -0.14081670574E+04  0.14969656446E+04  0.40000000000E+03 0. -1.
<mgrwt>
<rscale>  2 0.50790913E+03</rscale>
<asrwt>0</asrwt>
<pdfrwt beam="1">  1        2 0.36730350E+00 0.50790913E+03</pdfrwt>
<pdfrwt beam="2">  1       -2 0.17443473E-01 0.50790913E+03</pdfrwt>
<totfact> 0.11701326E+02</totfact>
</mgrwt>
</event>
<event>
 4    1  0.2358610E-002  0.5017415E+03  0.7818608E-02  0.1013325E+00
          2   -1    0    0  502    0  0.00000000000E+00  0.00000000000E+00  0.15892780872E+04  0.15892780872E+04  0.00000000000E+00 0. -1.
         -2   -1    0    0    0  501 -0.00000000000E+00 -0.00000000000E+00 -0.15951151580E+03  0.15951151580E+03  0.00000000000E+00 0.  1.
    9000005    1    1    2  502    0  0.16674693127E+03  0.25286352299E+03  0.78781536319E+03  0.93402224108E+03  0.40000000000E+03 0. -1.
   -9000005    1    1    2    0  501 -0.16674693127E+03 -0.25286352299E+03  0.64195120824E+03  0.81476736195E+03  0.40000000000E+03 0. -1.
<mgrwt>
<rscale>  2 0.50174147E+03</rscale>
<asrwt>0</asrwt>
<pdfrwt beam="1">  1        2 0.24450431E+00 0.50174147E+03</pdfrwt>
<pdfrwt beam="2">  1       -2 0.24540234E-01 0.50174147E+03</pdfrwt>
<totfact> 0.17463945E+02</totfact>
</mgrwt>
</event>
<event>
 4    1  0.2358610E-002  0.4043824E+03  0.7818608E-02  0.1042273E+00
         -1   -1    0    0    0  501 -0.00000000000E+00  0.00000000000E+00  0.15449715084E+03  0.15449715084E+03  0.00000000000E+00 0.  1.
          1   -1    0    0  502    0  0.00000000000E+00 -0.00000000000E+00 -0.10640159790E+04  0.10640159790E+04  0.00000000000E+00 0. -1.
    9000005    1    1    2  502    0  0.32572135940E+02  0.49640445597E+02 -0.41063286490E+03  0.57631976161E+03  0.40000000000E+03 0. -1.
   -9000005    1    1    2    0  501 -0.32572135940E+02 -0.49640445597E+02 -0.49888596325E+03  0.64219336823E+03  0.40000000000E+03 0. -1.
<mgrwt>
<rscale>  2 0.40438239E+03</rscale>
<asrwt>0</asrwt>
<pdfrwt beam="1">  1        1 0.16369477E+00 0.40438239E+03</pdfrwt>
<pdfrwt beam="2">  1       -1 0.23768791E-01 0.40438239E+03</pdfrwt>
<totfact> 0.21513751E+02</totfact>
</mgrwt>
</event>
<event>
 4    1  0.2358610E-002  0.4175063E+03  0.7818608E-02  0.1037881E+00
          1   -1    0    0  502    0  0.00000000000E+00  0.00000000000E+00  0.19520455216E+04  0.19520455216E+04  0.00000000000E+00 0.  1.
         -1   -1    0    0    0  501 -0.00000000000E+00 -0.00000000000E+00 -0.90206389346E+02  0.90206389346E+02  0.00000000000E+00 0. -1.
    9000005    1    1    2  502    0 -0.49741361008E+02  0.10879938690E+03  0.82838454803E+03  0.92764889317E+03  0.40000000000E+03 0. -1.
   -9000005    1    1    2    0  501  0.49741361008E+02 -0.10879938690E+03  0.10334545843E+04  0.11146030178E+04  0.40000000000E+03 0. -1.
<mgrwt>
<rscale>  2 0.41750630E+03</rscale>
<asrwt>0</asrwt>
<pdfrwt beam="1">  1        1 0.30031467E+00 0.41750630E+03</pdfrwt>
<pdfrwt beam="2">  1       -1 0.13877907E-01 0.41750630E+03</pdfrwt>
<totfact> 0.12852599E+02</totfact>
</mgrwt>
</event>
<event>
 4    1  0.2358610E-002  0.5347257E+03  0.7818608E-02  0.1005092E+00
          2   -1    0    0  502    0  0.00000000000E+00  0.00000000000E+00  0.67125526924E+03  0.67125526924E+03  0.00000000000E+00 0.  1.
         -2   -1    0    0    0  501 -0.00000000000E+00 -0.00000000000E+00 -0.44464531865E+03  0.44464531865E+03  0.00000000000E+00 0. -1.
    9000005    1    1    2  502    0  0.15545335600E+03  0.31900752262E+03 -0.10554302096E+01  0.53472671460E+03  0.40000000000E+03 0.  1.
   -9000005    1    1    2    0  501 -0.15545335600E+03 -0.31900752262E+03  0.22766538080E+03  0.58117387329E+03  0.40000000000E+03 0. -1.
<mgrwt>
<rscale>  2 0.53472567E+03</rscale>
<asrwt>0</asrwt>
<pdfrwt beam="1">  1        2 0.10327004E+00 0.53472567E+03</pdfrwt>
<pdfrwt beam="2">  1       -2 0.68406972E-01 0.53472567E+03</pdfrwt>
<totfact> 0.86829455E+01</totfact>
</mgrwt>
</event>
<event>
 4    1  0.2358610E-002  0.4660233E+03  0.7818608E-02  0.1023049E+00
         -1   -1    0    0    0  501 -0.00000000000E+00  0.00000000000E+00  0.18914879526E+03  0.18914879526E+03  0.00000000000E+00 0.  1.
          1   -1    0    0  502    0  0.00000000000E+00 -0.00000000000E+00 -0.13590749199E+04  0.13590749199E+04  0.00000000000E+00 0. -1.
    9000005    1    1    2  502    0 -0.18118944957E+03  0.15603866162E+03 -0.88990042055E+03  0.10045399141E+04  0.40000000000E+03 0. -1.
   -9000005    1    1    2    0  501  0.18118944957E+03 -0.15603866162E+03 -0.28002570408E+03  0.54368380103E+03  0.40000000000E+03 0.  1.
<mgrwt>
<rscale>  2 0.46602326E+03</rscale>
<asrwt>0</asrwt>
<pdfrwt beam="1">  1        1 0.20908844E+00 0.46602326E+03</pdfrwt>
<pdfrwt beam="2">  1       -1 0.29099816E-01 0.46602326E+03</pdfrwt>
<totfact> 0.93319013E+01</totfact>
</mgrwt>
</event>
<event>
 4    1  0.2358610E-002  0.5034070E+03  0.7818608E-02  0.1012893E+00
         -1   -1    0    0    0  501 -0.00000000000E+00  0.00000000000E+00  0.20653264037E+03  0.20653264037E+03  0.00000000000E+00 0.  1.
          1   -1    0    0  502    0  0.00000000000E+00 -0.00000000000E+00 -0.13052398337E+04  0.13052398337E+04  0.00000000000E+00 0. -1.
    9000005    1    1    2  502    0  0.15200986727E+03  0.26516339794E+03 -0.36430581791E+03  0.62139951425E+03  0.40000000000E+03 0.  1.
   -9000005    1    1    2    0  501 -0.15200986727E+03 -0.26516339794E+03 -0.73440137540E+03  0.89037295980E+03  0.40000000000E+03 0.  1.
<mgrwt>
<rscale>  2 0.50340702E+03</rscale>
<asrwt>0</asrwt>
<pdfrwt beam="1">  1        1 0.20080613E+00 0.50340702E+03</pdfrwt>
<pdfrwt beam="2">  1       -1 0.31774252E-01 0.50340702E+03</pdfrwt>
<totfact> 0.86868289E+01</totfact>
</mgrwt>
</event>
<event>
 4    1  0.2358610E-002  0.5021258E+03  0.7818608E-02  0.1013226E+00
          2   -1    0    0  502    0  0.00000000000E+00  0.00000000000E+00  0.24067125169E+04  0.24067125169E+04  0.00000000000E+00 0.  1.
         -2   -1    0    0    0  501 -0.00000000000E+00 -0.00000000000E+00 -0.11536355078E+03  0.11536355078E+03  0.00000000000E+00 0. -1.
    9000005    1    1    2  502    0  0.28449056591E+03 -0.10580832610E+03  0.15279648222E+04  0.16083553033E+04  0.40000000000E+03 0.  1.
   -9000005    1    1    2    0  501 -0.28449056591E+03  0.10580832610E+03  0.76338414395E+03  0.91372076434E+03  0.40000000000E+03 0. -1.
<mgrwt>
<rscale>  2 0.50212577E+03</rscale>
<asrwt>0</asrwt>
<pdfrwt beam="1">  1        2 0.37026343E+00 0.50212577E+03</pdfrwt>
<pdfrwt beam="2">  1       -2 0.17748240E-01 0.50212577E+03</pdfrwt>
<totfact> 0.11095325E+02</totfact>
</mgrwt>
</event>
<event>
 4    1  0.2358610E-002  0.5255291E+03  0.7818608E-02  0.1007322E+00
         -2   -1    0    0    0  501 -0.00000000000E+00  0.00000000000E+00  0.22413318425E+03  0.22413318425E+03  0.00000000000E+00 0. -1.
          2   -1    0    0  502    0  0.00000000000E+00 -0.00000000000E+00 -0.12619106658E+04  0.12619106658E+04  0.00000000000E+00 0.  1.
    9000005    1    1    2  502    0  0.21957845076E+03 -0.26070313407E+03 -0.40491207180E+03  0.66342641344E+03  0.40000000000E+03 0.  1.
   -9000005    1    1    2    0  501 -0.21957845076E+03  0.26070313407E+03 -0.63286540971E+03  0.82261743658E+03  0.40000000000E+03 0. -1.
<mgrwt>
<rscale>  2 0.52552909E+03</rscale>
<asrwt>0</asrwt>
<pdfrwt beam="1">  1        2 0.19414010E+00 0.52552909E+03</pdfrwt>
<pdfrwt beam="2">  1       -2 0.34482028E-01 0.52552909E+03</pdfrwt>
<totfact> 0.14190797E+02</totfact>
</mgrwt>
</event>
<event>
 4    1  0.2358610E-002  0.4360840E+03  0.7818608E-02  0.1031955E+00
         -3   -1    0    0    0  501 -0.00000000000E+00  0.00000000000E+00  0.49425895208E+03  0.49425895208E+03  0.00000000000E+00 0. -1.
          3   -1    0    0  502    0  0.00000000000E+00 -0.00000000000E+00 -0.38526564001E+03  0.38526564001E+03  0.00000000000E+00 0.  1.
    9000005    1    1    2  502    0 -0.13421849981E+03  0.11024825672E+03  0.38508115204E+02  0.43778094835E+03  0.40000000000E+03 0. -1.
   -9000005    1    1    2    0  501  0.13421849981E+03 -0.11024825672E+03  0.70485196865E+02  0.44174364373E+03  0.40000000000E+03 0.  1.
<mgrwt>
<rscale>  2 0.43608403E+03</rscale>
<asrwt>0</asrwt>
<pdfrwt beam="1">  1        3 0.59271637E-01 0.43608403E+03</pdfrwt>
<pdfrwt beam="2">  1       -3 0.76039839E-01 0.43608403E+03</pdfrwt>
<totfact> 0.11797536E+01</totfact>
</mgrwt>
</event>
<event>
 4    1  0.2358610E-002  0.4290787E+03  0.7818608E-02  0.1034151E+00
         -2   -1    0    0    0  501 -0.00000000000E+00  0.00000000000E+00  0.50621920286E+03  0.50621920286E+03  0.00000000000E+00 0.  1.
          2   -1    0    0  502    0  0.00000000000E+00 -0.00000000000E+00 -0.43459428019E+03  0.43459428019E+03  0.00000000000E+00 0. -1.
    9000005    1    1    2  502    0 -0.13728442683E+03  0.72536082628E+02 -0.15418940507E+03  0.45594173945E+03  0.40000000000E+03 0. -1.
   -9000005    1    1    2    0  501  0.13728442683E+03 -0.72536082628E+02  0.22581432774E+03  0.48487174360E+03  0.40000000000E+03 0.  1.
<mgrwt>
<rscale>  2 0.42907866E+03</rscale>
<asrwt>0</asrwt>
<pdfrwt beam="1">  1        2 0.66860659E-01 0.42907866E+03</pdfrwt>
<pdfrwt beam="2">  1       -2 0.77879877E-01 0.42907866E+03</pdfrwt>
<totfact> 0.10954968E+02</totfact>
</mgrwt>
</event>
<event>
 4    1  0.2358610E-002  0.4300807E+03  0.7818608E-02  0.1033834E+00
         -1   -1    0    0    0  501 -0.00000000000E+00  0.00000000000E+00  0.12587982308E+04  0.12587982308E+04  0.00000000000E+00 0. -1.
          1   -1    0    0  502    0  0.00000000000E+00 -0.00000000000E+00 -0.14741496198E+03  0.14741496198E+03  0.00000000000E+00 0.  1.
    9000005    1    1    2  502    0 -0.10999602782E+03  0.11344726740E+03  0.51583513367E+03  0.67160650216E+03  0.40000000000E+03 0. -1.
   -9000005    1    1    2    0  501  0.10999602782E+03 -0.11344726740E+03  0.59554813515E+03  0.73460669062E+03  0.40000000000E+03 0. -1.
<mgrwt>
<rscale>  2 0.43008070E+03</rscale>
<asrwt>0</asrwt>
<pdfrwt beam="1">  1        1 0.22679226E-01 0.43008070E+03</pdfrwt>
<pdfrwt beam="2">  1       -1 0.19366126E+00 0.43008070E+03</pdfrwt>
<totfact> 0.39133226E+01</totfact>
</mgrwt>
</event>
<event>
 4    1  0.2358610E-002  0.4995318E+03  0.7818608E-02  0.1013901E+00
          1   -1    0    0  502    0  0.00000000000E+00  0.00000000000E+00  0.31615238911E+03  0.31615238911E+03  0.00000000000E+00 0. -1.
         -1   -1    0    0    0  501 -0.00000000000E+00 -0.00000000000E+00 -0.82552937425E+03  0.82552937425E+03  0.00000000000E+00 0.  1.
    9000005    1    1    2  502    0 -0.29665660319E+03  0.39075484383E+02 -0.37431096572E+03  0.62421208956E+03  0.40000000000E+03 0.  1.
   -9000005    1    1    2    0  501  0.29665660319E+03 -0.39075484383E+02 -0.13506601943E+03  0.51746967380E+03  0.40000000000E+03 0. -1.
<mgrwt>
<rscale>  2 0.49953181E+03</rscale>
<asrwt>0</asrwt>
<pdfrwt beam="1">  1        1 0.48638829E-01 0.49953181E+03</pdfrwt>
<pdfrwt beam="2">  1       -1 0.12700452E+00 0.49953181E+03</pdfrwt>
<totfact> 0.46062464E+01</totfact>
</mgrwt>
</event>
<event>
 4    1  0.2358610E-002  0.4258052E+03  0.7818608E-02  0.1035193E+00
         -2   -1    0    0    0  501 -0.00000000000E+00  0.00000000000E+00  0.21635126843E+03  0.21635126843E+03  0.00000000000E+00 0. -1.
          2   -1    0    0  502    0  0.00000000000E+00 -0.00000000000E+00 -0.99265552935E+03  0.99265552935E+03  0.00000000000E+00 0.  1.
    9000005    1    1    2  502    0 -0.80665959879E+02 -0.12166774630E+03 -0.62673122043E+03  0.75769522912E+03  0.40000000000E+03 0.  1.
   -9000005    1    1    2    0  501  0.80665959879E+02  0.12166774630E+03 -0.14957304049E+03  0.45131156867E+03  0.40000000000E+03 0. -1.
<mgrwt>
<rscale>  2 0.42580516E+03</rscale>
<asrwt>0</asrwt>
<pdfrwt beam="1">  1        2 0.15271623E+00 0.42580516E+03</pdfrwt>
<pdfrwt beam="2">  1       -2 0.33284811E-01 0.42580516E+03</pdfrwt>
<totfact> 0.22196081E+02</totfact>
</mgrwt>
</event>
<event>
 4    1  0.2358610E-002  0.4937013E+03  0.7818608E-02  0.1015436E+00
          1   -1    0    0  502    0  0.00000000000E+00  0.00000000000E+00  0.14317341433E+04  0.14317341433E+04  0.00000000000E+00 0.  1.
         -1   -1    0    0    0  501 -0.00000000000E+00 -0.00000000000E+00 -0.23809872871E+03  0.23809872871E+03  0.00000000000E+00 0. -1.
    9000005    1    1    2  502    0 -0.28676994302E+03 -0.38780709594E+02  0.15109814789E+03  0.51630571753E+03  0.40000000000E+03 0. -1.
   -9000005    1    1    2    0  501  0.28676994302E+03  0.38780709594E+02  0.10425372667E+04  0.11535271544E+04  0.40000000000E+03 0.  1.
<mgrwt>
<rscale>  2 0.49370127E+03</rscale>
<asrwt>0</asrwt>
<pdfrwt beam="1">  1        1 0.22026679E+00 0.49370127E+03</pdfrwt>
<pdfrwt beam="2">  1       -1 0.36630574E-01 0.49370127E+03</pdfrwt>
<totfact> 0.55393865E+01</totfact>
</mgrwt>
</event>
<event>
 4    1  0.2358610E-002  0.4370334E+03  0.7818608E-02  0.1031661E+00
         -2   -1    0    0    0  501 -0.00000000000E+00  0.00000000000E+00  0.18551917243E+03  0.18551917243E+03  0.00000000000E+00 0. -1.
          2   -1    0    0  502    0  0.00000000000E+00 -0.00000000000E+00 -0.13014499557E+04  0.13014499557E+04  0.00000000000E+00 0.  1.
    9000005    1    1    2  502    0  0.89648247547E+02  0.15153008918E+03 -0.89780663199E+03  0.99852637655E+03  0.40000000000E+03 0.  1.
   -9000005    1    1    2    0  501 -0.89648247547E+02 -0.15153008918E+03 -0.21812415131E+03  0.48844275161E+03  0.40000000000E+03 0. -1.
<mgrwt>
<rscale>  2 0.43703338E+03</rscale>
<asrwt>0</asrwt>
<pdfrwt beam="1">  1        2 0.20022306E+00 0.43703338E+03</pdfrwt>
<pdfrwt beam="2">  1       -2 0.28541412E-01 0.43703338E+03</pdfrwt>
<totfact> 0.19329163E+02</totfact>
</mgrwt>
</event>
<event>
 4    1  0.2358610E-002  0.4329746E+03  0.7818608E-02  0.1032924E+00
          1   -1    0    0  502    0  0.00000000000E+00  0.00000000000E+00  0.45766832596E+03  0.45766832596E+03  0.00000000000E+00 0. -1.
         -1   -1    0    0    0  501 -0.00000000000E+00 -0.00000000000E+00 -0.41748743504E+03  0.41748743504E+03  0.00000000000E+00 0.  1.
    9000005    1    1    2  502    0 -0.13326762631E+03  0.98522875468E+02 -0.40004238349E+02  0.43481876259E+03  0.40000000000E+03 0.  1.
   -9000005    1    1    2    0  501  0.13326762631E+03 -0.98522875468E+02  0.80185129264E+02  0.44033699841E+03  0.40000000000E+03 0.  1.
<mgrwt>
<rscale>  2 0.43297461E+03</rscale>
<asrwt>0</asrwt>
<pdfrwt beam="1">  1        1 0.70410512E-01 0.43297461E+03</pdfrwt>
<pdfrwt beam="2">  1       -1 0.64228836E-01 0.43297461E+03</pdfrwt>
<totfact> 0.12810724E+02</totfact>
</mgrwt>
</event>
<event>
 4    1  0.2358610E-002  0.4714257E+03  0.7818608E-02  0.1021519E+00
          2   -1    0    0  502    0  0.00000000000E+00  0.00000000000E+00  0.95301703507E+03  0.95301703507E+03  0.00000000000E+00 0.  1.
         -2   -1    0    0    0  501 -0.00000000000E+00 -0.00000000000E+00 -0.25073355223E+03  0.25073355223E+03  0.00000000000E+00 0. -1.
    9000005    1    1    2  502    0  0.11346318903E+03 -0.22218974282E+03  0.19197461365E+03  0.50901515632E+03  0.40000000000E+03 0. -1.
   -9000005    1    1    2    0  501 -0.11346318903E+03  0.22218974282E+03  0.51030886920E+03  0.69473543098E+03  0.40000000000E+03 0.  1.
<mgrwt>
<rscale>  2 0.47142569E+03</rscale>
<asrwt>0</asrwt>
<pdfrwt beam="1">  1        2 0.14661800E+00 0.47142569E+03</pdfrwt>
<pdfrwt beam="2">  1       -2 0.38574393E-01 0.47142569E+03</pdfrwt>
<totfact> 0.17705546E+02</totfact>
</mgrwt>
</event>
<event>
 4    1  0.2358610E-002  0.4541279E+03  0.7818608E-02  0.1026498E+00
         -1   -1    0    0    0  501 -0.00000000000E+00  0.00000000000E+00  0.10524418239E+03  0.10524418239E+03  0.00000000000E+00 0. -1.
          1   -1    0    0  502    0  0.00000000000E+00 -0.00000000000E+00 -0.19690941546E+04  0.19690941546E+04  0.00000000000E+00 0.  1.
    9000005    1    1    2  502    0  0.79479490458E+02 -0.19978780221E+03 -0.10040999554E+04  0.11020203608E+04  0.40000000000E+03 0.  1.
   -9000005    1    1    2    0  501 -0.79479490458E+02  0.19978780221E+03 -0.85975001685E+03  0.97231797617E+03  0.40000000000E+03 0. -1.
<mgrwt>
<rscale>  2 0.45412791E+03</rscale>
<asrwt>0</asrwt>
<pdfrwt beam="1">  1        1 0.30293755E+00 0.45412791E+03</pdfrwt>
<pdfrwt beam="2">  1       -1 0.16191413E-01 0.45412791E+03</pdfrwt>
<totfact> 0.97122764E+01</totfact>
</mgrwt>
</event>
<event>
 4    1  0.2358610E-002  0.4820990E+03  0.7818608E-02  0.1018560E+00
          2   -1    0    0  502    0  0.00000000000E+00  0.00000000000E+00  0.10477553822E+04  0.10477553822E+04  0.00000000000E+00 0.  1.
         -2   -1    0    0    0  501 -0.00000000000E+00 -0.00000000000E+00 -0.27780119248E+03  0.27780119248E+03  0.00000000000E+00 0. -1.
    9000005    1    1    2  502    0  0.63467998929E+02 -0.26151730449E+03  0.68248508889E+03  0.83558685006E+03  0.40000000000E+03 0.  1.
   -9000005    1    1    2    0  501 -0.63467998929E+02  0.26151730449E+03  0.87469100814E+02  0.48996972461E+03  0.40000000000E+03 0. -1.
<mgrwt>
<rscale>  2 0.48209904E+03</rscale>
<asrwt>0</asrwt>
<pdfrwt beam="1">  1        2 0.16119313E+00 0.48209904E+03</pdfrwt>
<pdfrwt beam="2">  1       -2 0.42738646E-01 0.48209904E+03</pdfrwt>
<totfact> 0.12637587E+02</totfact>
</mgrwt>
</event>
<event>
 4    1  0.2358610E-002  0.4277871E+03  0.7818608E-02  0.1034561E+00
         -1   -1    0    0    0  501 -0.00000000000E+00  0.00000000000E+00  0.38479477843E+03  0.38479477843E+03  0.00000000000E+00 0. -1.
          1   -1    0    0  502    0  0.00000000000E+00 -0.00000000000E+00 -0.77974775396E+03  0.77974775396E+03  0.00000000000E+00 0.  1.
    9000005    1    1    2  502    0  0.84916989649E+01  0.15142540224E+03 -0.56114266425E+03  0.70560814270E+03  0.40000000000E+03 0.  1.
   -9000005    1    1    2    0  501 -0.84916989649E+01 -0.15142540224E+03  0.16618968872E+03  0.45893438968E+03  0.40000000000E+03 0. -1.
<mgrwt>
<rscale>  2 0.42778705E+03</rscale>
<asrwt>0</asrwt>
<pdfrwt beam="1">  1        1 0.11996119E+00 0.42778705E+03</pdfrwt>
<pdfrwt beam="2">  1       -1 0.59199197E-01 0.42778705E+03</pdfrwt>
<totfact> 0.70488653E+01</totfact>
</mgrwt>
</event>
<event>
 4    1  0.2358610E-002  0.4570225E+03  0.7818608E-02  0.1025648E+00
         -2   -1    0    0    0  501 -0.00000000000E+00  0.00000000000E+00  0.56696516225E+03  0.56696516225E+03  0.00000000000E+00 0. -1.
          2   -1    0    0  502    0  0.00000000000E+00 -0.00000000000E+00 -0.45188650614E+03  0.45188650614E+03  0.00000000000E+00 0.  1.
    9000005    1    1    2  502    0 -0.82027287563E+02 -0.20528297722E+03  0.27650508720E+03  0.53415787918E+03  0.40000000000E+03 0. -1.
   -9000005    1    1    2    0  501  0.82027287563E+02  0.20528297722E+03 -0.16142643109E+03  0.48469378921E+03  0.40000000000E+03 0.  1.
<mgrwt>
<rscale>  2 0.45702251E+03</rscale>
<asrwt>0</asrwt>
<pdfrwt beam="1">  1        2 0.69521001E-01 0.45702251E+03</pdfrwt>
<pdfrwt beam="2">  1       -2 0.87225409E-01 0.45702251E+03</pdfrwt>
<totfact> 0.81107589E+01</totfact>
</mgrwt>
</event>
<event>
 4    1  0.2358610E-002  0.4118951E+03  0.7818608E-02  0.1039737E+00
         -2   -1    0    0    0  501 -0.00000000000E+00  0.00000000000E+00  0.16436016288E+03  0.16436016288E+03  0.00000000000E+00 0. -1.
          2   -1    0    0  502    0  0.00000000000E+00 -0.00000000000E+00 -0.10427326049E+04  0.10427326049E+04  0.00000000000E+00 0.  1.
    9000005    1    1    2  502    0 -0.29795532735E+02  0.93647302953E+02 -0.49975657133E+03  0.64762197439E+03  0.40000000000E+03 0. -1.
   -9000005    1    1    2    0  501  0.29795532735E+02 -0.93647302953E+02 -0.37861587071E+03  0.55947079341E+03  0.40000000000E+03 0. -1.
<mgrwt>
<rscale>  2 0.41189512E+03</rscale>
<asrwt>0</asrwt>
<pdfrwt beam="1">  1        2 0.16042040E+00 0.41189512E+03</pdfrwt>
<pdfrwt beam="2">  1       -2 0.25286179E-01 0.41189512E+03</pdfrwt>
<totfact> 0.34199761E+02</totfact>
</mgrwt>
</event>
<event>
 4    1  0.2358610E-002  0.5456460E+03  0.7818608E-02  0.1002507E+00
          2   -1    0    0  502    0  0.00000000000E+00  0.00000000000E+00  0.14717516679E+04  0.14717516679E+04  0.00000000000E+00 0. -1.
         -2   -1    0    0    0  501 -0.00000000000E+00 -0.00000000000E+00 -0.41011819759E+03  0.41011819759E+03  0.00000000000E+00 0.  1.
    9000005    1    1    2  502    0  0.65501091252E+02 -0.36529321007E+03  0.12006257763E+04  0.13187993695E+04  0.40000000000E+03 0. -1.
   -9000005    1    1    2    0  501 -0.65501091252E+02  0.36529321007E+03 -0.13899230602E+03  0.56307049595E+03  0.40000000000E+03 0.  1.
<mgrwt>
<rscale>  2 0.54564597E+03</rscale>
<asrwt>0</asrwt>
<pdfrwt beam="1">  1        2 0.22642333E+00 0.54564597E+03</pdfrwt>
<pdfrwt beam="2">  1       -2 0.63095108E-01 0.54564597E+03</pdfrwt>
<totfact> 0.32200944E+01</totfact>
</mgrwt>
</event>
<event>
 4    1  0.2358610E-002  0.4526889E+03  0.7818608E-02  0.1026923E+00
          1   -1    0    0  502    0  0.00000000000E+00  0.00000000000E+00  0.18739854832E+04  0.18739854832E+04  0.00000000000E+00 0.  1.
         -1   -1    0    0    0  501 -0.00000000000E+00 -0.00000000000E+00 -0.11525487111E+03  0.11525487111E+03  0.00000000000E+00 0. -1.
    9000005    1    1    2  502    0 -0.19505800010E+03 -0.82943664885E+02  0.65430642127E+03  0.79564072788E+03  0.40000000000E+03 0. -1.
   -9000005    1    1    2    0  501  0.19505800010E+03  0.82943664885E+02  0.11044241909E+04  0.11935996265E+04  0.40000000000E+03 0.  1.
<mgrwt>
<rscale>  2 0.45268894E+03</rscale>
<asrwt>0</asrwt>
<pdfrwt beam="1">  1        1 0.28830544E+00 0.45268894E+03</pdfrwt>
<pdfrwt beam="2">  1       -1 0.17731520E-01 0.45268894E+03</pdfrwt>
<totfact> 0.96821611E+01</totfact>
</mgrwt>
</event>
<event>
 4    1  0.2358610E-002  0.4897065E+03  0.7818608E-02  0.1016501E+00
         -1   -1    0    0    0  501 -0.00000000000E+00  0.00000000000E+00  0.63635630342E+03  0.63635630342E+03  0.00000000000E+00 0.  1.
          1   -1    0    0  502    0  0.00000000000E+00 -0.00000000000E+00 -0.38086217704E+03  0.38086217704E+03  0.00000000000E+00 0. -1.
    9000005    1    1    2  502    0  0.79594234208E+02 -0.27106674315E+03  0.75560507513E+02  0.49550157584E+03  0.40000000000E+03 0.  1.
   -9000005    1    1    2    0  501 -0.79594234208E+02  0.27106674315E+03  0.17993361887E+03  0.52171690462E+03  0.40000000000E+03 0.  1.
<mgrwt>
<rscale>  2 0.48970646E+03</rscale>
<asrwt>0</asrwt>
<pdfrwt beam="1">  1        1 0.58594181E-01 0.48970646E+03</pdfrwt>
<pdfrwt beam="2">  1       -1 0.97900970E-01 0.48970646E+03</pdfrwt>
<totfact> 0.66858683E+01</totfact>
</mgrwt>
</event>
<event>
 4    1  0.2358610E-002  0.4218666E+03  0.7818608E-02  0.1036461E+00
         -2   -1    0    0    0  501 -0.00000000000E+00  0.00000000000E+00  0.56685532177E+03  0.56685532177E+03  0.00000000000E+00 0.  1.
          2   -1    0    0  502    0  0.00000000000E+00 -0.00000000000E+00 -0.35238574438E+03  0.35238574438E+03  0.00000000000E+00 0. -1.
    9000005    1    1    2  502    0  0.27417690644E+02  0.13122377189E+03 -0.44535351355E+02  0.42421080325E+03  0.40000000000E+03 0. -1.
   -9000005    1    1    2    0  501 -0.27417690644E+02 -0.13122377189E+03  0.25900492875E+03  0.49503026290E+03  0.40000000000E+03 0.  1.
<mgrwt>
<rscale>  2 0.42186658E+03</rscale>
<asrwt>0</asrwt>
<pdfrwt beam="1">  1        2 0.54213191E-01 0.42186658E+03</pdfrwt>
<pdfrwt beam="2">  1       -2 0.87208511E-01 0.42186658E+03</pdfrwt>
<totfact> 0.10728075E+02</totfact>
</mgrwt>
</event>
<event>
 4    1  0.2358610E-002  0.4311208E+03  0.7818608E-02  0.1033506E+00
         -2   -1    0    0    0  501 -0.00000000000E+00  0.00000000000E+00  0.31723562927E+03  0.31723562927E+03  0.00000000000E+00 0.  1.
          2   -1    0    0  502    0  0.00000000000E+00 -0.00000000000E+00 -0.61368765833E+03  0.61368765833E+03  0.00000000000E+00 0. -1.
    9000005    1    1    2  502    0  0.15533431625E+03 -0.41670407033E+02 -0.49162310641E+02  0.43391485964E+03  0.40000000000E+03 0.  1.
   -9000005    1    1    2    0  501 -0.15533431625E+03  0.41670407033E+02 -0.24728971843E+03  0.49700842796E+03  0.40000000000E+03 0.  1.
<mgrwt>
<rscale>  2 0.43112083E+03</rscale>
<asrwt>0</asrwt>
<pdfrwt beam="1">  1        2 0.94413485E-01 0.43112083E+03</pdfrwt>
<pdfrwt beam="2">  1       -2 0.48805482E-01 0.43112083E+03</pdfrwt>
<totfact> 0.19722951E+02</totfact>
</mgrwt>
</event>
<event>
 4    1  0.2358610E-002  0.4573525E+03  0.7818608E-02  0.1025552E+00
         -2   -1    0    0    0  501 -0.00000000000E+00  0.00000000000E+00  0.79979133742E+03  0.79979133742E+03  0.00000000000E+00 0. -1.
          2   -1    0    0  502    0  0.00000000000E+00 -0.00000000000E+00 -0.33001224589E+03  0.33001224589E+03  0.00000000000E+00 0.  1.
    9000005    1    1    2  502    0 -0.20789685549E+03 -0.77137629640E+02  0.49221896303E+03  0.67190090341E+03  0.40000000000E+03 0. -1.
   -9000005    1    1    2    0  501  0.20789685549E+03  0.77137629640E+02 -0.22439871493E+02  0.45790267990E+03  0.40000000000E+03 0.  1.
<mgrwt>
<rscale>  2 0.45735251E+03</rscale>
<asrwt>0</asrwt>
<pdfrwt beam="1">  1        2 0.50771115E-01 0.45735251E+03</pdfrwt>
<pdfrwt beam="2">  1       -2 0.12304482E+00 0.45735251E+03</pdfrwt>
<totfact> 0.50859745E+01</totfact>
</mgrwt>
</event>
<event>
 4    1  0.2358610E-002  0.4827286E+03  0.7818608E-02  0.1018388E+00
         -2   -1    0    0    0  501 -0.00000000000E+00  0.00000000000E+00  0.14658171621E+04  0.14658171621E+04  0.00000000000E+00 0. -1.
          2   -1    0    0  502    0  0.00000000000E+00 -0.00000000000E+00 -0.33605494639E+03  0.33605494639E+03  0.00000000000E+00 0.  1.
    9000005    1    1    2  502    0 -0.18614614464E+03 -0.19589914211E+03 -0.89114304480E+02  0.49088513963E+03  0.40000000000E+03 0.  1.
   -9000005    1    1    2    0  501  0.18614614464E+03  0.19589914211E+03  0.12188765202E+04  0.13109869689E+04  0.40000000000E+03 0. -1.
<mgrwt>
<rscale>  2 0.48272856E+03</rscale>
<asrwt>0</asrwt>
<pdfrwt beam="1">  1        2 0.51700762E-01 0.48272856E+03</pdfrwt>
<pdfrwt beam="2">  1       -2 0.22551033E+00 0.48272856E+03</pdfrwt>
<totfact> 0.93441626E+00</totfact>
</mgrwt>
</event>
<event>
 4    1  0.2358610E-002  0.7155265E+03  0.7818608E-02  0.9691042E-01
          4   -1    0    0  502    0  0.00000000000E+00  0.00000000000E+00  0.64759532290E+03  0.64759532290E+03  0.00000000000E+00 0.  1.
         -4   -1    0    0    0  501 -0.00000000000E+00 -0.00000000000E+00 -0.79383868095E+03  0.79383868095E+03  0.00000000000E+00 0. -1.
    9000005    1    1    2  502    0 -0.35233797299E+03  0.47732185055E+03 -0.11927300908E+03  0.72539937064E+03  0.40000000000E+03 0. -1.
   -9000005    1    1    2    0  501  0.35233797299E+03 -0.47732185055E+03 -0.26970348975E+02  0.71603463321E+03  0.40000000000E+03 0.  1.
<mgrwt>
<rscale>  2 0.71552652E+03</rscale>
<asrwt>0</asrwt>
<pdfrwt beam="1">  1        4 0.99630050E-01 0.71552652E+03</pdfrwt>
<pdfrwt beam="2">  1       -4 0.12212903E+00 0.71552652E+03</pdfrwt>
<totfact> 0.82500130E-01</totfact>
</mgrwt>
</event>
<event>
 4    1  0.2358610E-002  0.5596124E+03  0.7818608E-02  0.9992932E-01
          1   -1    0    0  502    0  0.00000000000E+00  0.00000000000E+00  0.64405738116E+03  0.64405738116E+03  0.00000000000E+00 0.  1.
         -1   -1    0    0    0  501 -0.00000000000E+00 -0.00000000000E+00 -0.49502110731E+03  0.49502110731E+03  0.00000000000E+00 0. -1.
    9000005    1    1    2  502    0 -0.30402640633E+03 -0.24644262507E+03 -0.13401878850E+01  0.55961399134E+03  0.40000000000E+03 0. -1.
   -9000005    1    1    2    0  501  0.30402640633E+03  0.24644262507E+03  0.15037646174E+03  0.57946449714E+03  0.40000000000E+03 0.  1.
<mgrwt>
<rscale>  2 0.55961239E+03</rscale>
<asrwt>0</asrwt>
<pdfrwt beam="1">  1        1 0.99085751E-01 0.55961239E+03</pdfrwt>
<pdfrwt beam="2">  1       -1 0.76157093E-01 0.55961239E+03</pdfrwt>
<totfact> 0.55650678E+01</totfact>
</mgrwt>
</event>
<event>
 4    1  0.2358610E-002  0.5030379E+03  0.7818608E-02  0.1012989E+00
         -1   -1    0    0    0  501 -0.00000000000E+00  0.00000000000E+00  0.95449836464E+03  0.95449836464E+03  0.00000000000E+00 0. -1.
          1   -1    0    0  502    0  0.00000000000E+00 -0.00000000000E+00 -0.67686351929E+03  0.67686351929E+03  0.00000000000E+00 0.  1.
    9000005    1    1    2  502    0 -0.18623259761E+03 -0.24158760427E+03  0.77500966921E+03  0.92395191343E+03  0.40000000000E+03 0. -1.
   -9000005    1    1    2    0  501  0.18623259761E+03  0.24158760427E+03 -0.49737482387E+03  0.70740997050E+03  0.40000000000E+03 0.  1.
<mgrwt>
<rscale>  2 0.50303792E+03</rscale>
<asrwt>0</asrwt>
<pdfrwt beam="1">  1        1 0.10413285E+00 0.50303792E+03</pdfrwt>
<pdfrwt beam="2">  1       -1 0.14684590E+00 0.50303792E+03</pdfrwt>
<totfact> 0.11336234E+01</totfact>
</mgrwt>
</event>
<event>
 4    1  0.2358610E-002  0.4990576E+03  0.7818608E-02  0.1014025E+00
         -2   -1    0    0    0  501 -0.00000000000E+00  0.00000000000E+00  0.65429632685E+03  0.65429632685E+03  0.00000000000E+00 0.  1.
          2   -1    0    0  502    0  0.00000000000E+00 -0.00000000000E+00 -0.11882218236E+04  0.11882218236E+04  0.00000000000E+00 0. -1.
    9000005    1    1    2  502    0  0.83767284121E+02 -0.28642893155E+03 -0.10264550072E+04  0.11413449840E+04  0.40000000000E+03 0. -1.
   -9000005    1    1    2    0  501 -0.83767284121E+02  0.28642893155E+03  0.49252951043E+03  0.70117316646E+03  0.40000000000E+03 0.  1.
<mgrwt>
<rscale>  2 0.49905760E+03</rscale>
<asrwt>0</asrwt>
<pdfrwt beam="1">  1        2 0.18280336E+00 0.49905760E+03</pdfrwt>
<pdfrwt beam="2">  1       -2 0.10066097E+00 0.49905760E+03</pdfrwt>
<totfact> 0.16532234E+01</totfact>
</mgrwt>
</event>
<event>
 4    1  0.2358610E-002  0.4097755E+03  0.7818608E-02  0.1040446E+00
         -2   -1    0    0    0  501 -0.00000000000E+00  0.00000000000E+00  0.30402819543E+03  0.30402819543E+03  0.00000000000E+00 0. -1.
          2   -1    0    0  502    0  0.00000000000E+00 -0.00000000000E+00 -0.64996838765E+03  0.64996838765E+03  0.00000000000E+00 0.  1.
    9000005    1    1    2  502    0 -0.34976254012E+02  0.81808267427E+02 -0.35787108863E+03  0.54404746763E+03  0.40000000000E+03 0. -1.
   -9000005    1    1    2    0  501  0.34976254012E+02 -0.81808267427E+02  0.11930896399E+02  0.40994911544E+03  0.40000000000E+03 0. -1.
<mgrwt>
<rscale>  2 0.40977546E+03</rscale>
<asrwt>0</asrwt>
<pdfrwt beam="1">  1        2 0.99995137E-01 0.40977546E+03</pdfrwt>
<pdfrwt beam="2">  1       -2 0.46773568E-01 0.40977546E+03</pdfrwt>
<totfact> 0.20073637E+02</totfact>
</mgrwt>
</event>
<event>
 4    1  0.2358610E-002  0.4023957E+03  0.7818608E-02  0.1042953E+00
         -1   -1    0    0    0  501 -0.00000000000E+00  0.00000000000E+00  0.21607713869E+03  0.21607713869E+03  0.00000000000E+00 0. -1.
          1   -1    0    0  502    0  0.00000000000E+00 -0.00000000000E+00 -0.75479556330E+03  0.75479556330E+03  0.00000000000E+00 0.  1.
    9000005    1    1    2  502    0  0.86295910892E+01 -0.42985989585E+02 -0.22821203486E+03  0.46260458061E+03  0.40000000000E+03 0. -1.
   -9000005    1    1    2    0  501 -0.86295910892E+01  0.42985989585E+02 -0.31050638975E+03  0.50826812139E+03  0.40000000000E+03 0. -1.
<mgrwt>
<rscale>  2 0.40239566E+03</rscale>
<asrwt>0</asrwt>
<pdfrwt beam="1">  1        1 0.11612239E+00 0.40239566E+03</pdfrwt>
<pdfrwt beam="2">  1       -1 0.33242637E-01 0.40239566E+03</pdfrwt>
<totfact> 0.21435137E+02</totfact>
</mgrwt>
</event>
<event>
 4    1  0.2358610E-002  0.5877880E+03  0.7818608E-02  0.9931071E-01
         -1   -1    0    0    0  501 -0.00000000000E+00  0.00000000000E+00  0.44998654449E+03  0.44998654449E+03  0.00000000000E+00 0.  1.
          1   -1    0    0  502    0  0.00000000000E+00 -0.00000000000E+00 -0.77588614855E+03  0.77588614855E+03  0.00000000000E+00 0. -1.
    9000005    1    1    2  502    0  0.40992459942E+03  0.13212323378E+03 -0.10033428000E+03  0.59628994110E+03  0.40000000000E+03 0. -1.
   -9000005    1    1    2    0  501 -0.40992459942E+03 -0.13212323378E+03 -0.22556532405E+03  0.62958275193E+03  0.40000000000E+03 0.  1.
<mgrwt>
<rscale>  2 0.58778799E+03</rscale>
<asrwt>0</asrwt>
<pdfrwt beam="1">  1        1 0.11936710E+00 0.58778799E+03</pdfrwt>
<pdfrwt beam="2">  1       -1 0.69228699E-01 0.58778799E+03</pdfrwt>
<totfact> 0.50970003E+01</totfact>
</mgrwt>
</event>
<event>
 4    1  0.2358610E-002  0.5644440E+03  0.7818608E-02  0.9982049E-01
          1   -1    0    0  502    0  0.00000000000E+00  0.00000000000E+00  0.20625570905E+04  0.20625570905E+04  0.00000000000E+00 0.  1.
         -1   -1    0    0    0  501 -0.00000000000E+00 -0.00000000000E+00 -0.15693455524E+03  0.15693455524E+03  0.00000000000E+00 0. -1.
    9000005    1    1    2  502    0 -0.33201117175E+03 -0.21992171762E+03  0.10919662568E+04  0.12292222281E+04  0.40000000000E+03 0.  1.
   -9000005    1    1    2    0  501  0.33201117175E+03  0.21992171762E+03  0.81365627845E+03  0.99026941763E+03  0.40000000000E+03 0. -1.
<mgrwt>
<rscale>  2 0.56444396E+03</rscale>
<asrwt>0</asrwt>
<pdfrwt beam="1">  1        1 0.31731646E+00 0.56444396E+03</pdfrwt>
<pdfrwt beam="2">  1       -1 0.24143779E-01 0.56444396E+03</pdfrwt>
<totfact> 0.42720215E+01</totfact>
</mgrwt>
</event>
<event>
 4    1  0.2358610E-002  0.5720886E+03  0.7818608E-02  0.9965067E-01
          2   -1    0    0  502    0  0.00000000000E+00  0.00000000000E+00  0.47060870599E+03  0.47060870599E+03  0.00000000000E+00 0. -1.
         -2   -1    0    0    0  501 -0.00000000000E+00 -0.00000000000E+00 -0.72616548424E+03  0.72616548424E+03  0.00000000000E+00 0.  1.
    9000005    1    1    2  502    0  0.71561213034E+02 -0.40269639086E+03 -0.47133764997E+01  0.57210803729E+03  0.40000000000E+03 0. -1.
   -9000005    1    1    2    0  501 -0.71561213034E+02  0.40269639086E+03 -0.25084340176E+03  0.62466615294E+03  0.40000000000E+03 0.  1.
<mgrwt>
<rscale>  2 0.57208862E+03</rscale>
<asrwt>0</asrwt>
<pdfrwt beam="1">  1        2 0.72401340E-01 0.57208862E+03</pdfrwt>
<pdfrwt beam="2">  1       -2 0.11171777E+00 0.57208862E+03</pdfrwt>
<totfact> 0.42884853E+01</totfact>
</mgrwt>
</event>
<event>
 4    1  0.2358610E-002  0.6295869E+03  0.7818608E-02  0.9845855E-01
          2   -1    0    0  502    0  0.00000000000E+00  0.00000000000E+00  0.56350400808E+03  0.56350400808E+03  0.00000000000E+00 0. -1.
         -2   -1    0    0    0  501 -0.00000000000E+00 -0.00000000000E+00 -0.75717902886E+03  0.75717902886E+03  0.00000000000E+00 0.  1.
    9000005    1    1    2  502    0  0.18730623139E+03 -0.44866023266E+03  0.79115867334E+02  0.63453837485E+03  0.40000000000E+03 0. -1.
   -9000005    1    1    2    0  501 -0.18730623139E+03  0.44866023266E+03 -0.27279088812E+03  0.68614466210E+03  0.40000000000E+03 0.  1.
<mgrwt>
<rscale>  2 0.62958687E+03</rscale>
<asrwt>0</asrwt>
<pdfrwt beam="1">  1        2 0.86692925E-01 0.62958687E+03</pdfrwt>
<pdfrwt beam="2">  1       -2 0.11648908E+00 0.62958687E+03</pdfrwt>
<totfact> 0.31266161E+01</totfact>
</mgrwt>
</event>
<event>
 4    1  0.2358610E-002  0.4157326E+03  0.7818608E-02  0.1038464E+00
         -2   -1    0    0    0  501 -0.00000000000E+00  0.00000000000E+00  0.26724759884E+03  0.26724759884E+03  0.00000000000E+00 0. -1.
          2   -1    0    0  502    0  0.00000000000E+00 -0.00000000000E+00 -0.65294824700E+03  0.65294824700E+03  0.00000000000E+00 0.  1.
    9000005    1    1    2  502    0  0.10878046396E+03 -0.31628903881E+02 -0.23779692706E+03  0.47893731889E+03  0.40000000000E+03 0.  1.
   -9000005    1    1    2    0  501 -0.10878046396E+03  0.31628903881E+02 -0.14790372110E+03  0.44125852696E+03  0.40000000000E+03 0. -1.
<mgrwt>
<rscale>  2 0.41573258E+03</rscale>
<asrwt>0</asrwt>
<pdfrwt beam="1">  1        2 0.10045358E+00 0.41573258E+03</pdfrwt>
<pdfrwt beam="2">  1       -2 0.41115016E-01 0.41573258E+03</pdfrwt>
<totfact> 0.25709738E+02</totfact>
</mgrwt>
</event>
<event>
 4    1  0.2358610E-002  0.4566158E+03  0.7818608E-02  0.1025767E+00
          1   -1    0    0  502    0  0.00000000000E+00  0.00000000000E+00  0.50701543601E+03  0.50701543601E+03  0.00000000000E+00 0.  1.
         -1   -1    0    0    0  501 -0.00000000000E+00 -0.00000000000E+00 -0.63321443288E+03  0.63321443288E+03  0.00000000000E+00 0. -1.
    9000005    1    1    2  502    0  0.11975000162E+03 -0.18481869602E+03 -0.40066031322E+03  0.60747567842E+03  0.40000000000E+03 0. -1.
   -9000005    1    1    2    0  501 -0.11975000162E+03  0.18481869602E+03  0.27446131635E+03  0.53275419046E+03  0.40000000000E+03 0.  1.
<mgrwt>
<rscale>  2 0.45661583E+03</rscale>
<asrwt>0</asrwt>
<pdfrwt beam="1">  1        1 0.78002374E-01 0.45661583E+03</pdfrwt>
<pdfrwt beam="2">  1       -1 0.97417606E-01 0.45661583E+03</pdfrwt>
<totfact> 0.46423359E+01</totfact>
</mgrwt>
</event>
<event>
 4    1  0.2358610E-002  0.4249988E+03  0.7818608E-02  0.1035452E+00
          2   -1    0    0  502    0  0.00000000000E+00  0.00000000000E+00  0.88622804509E+03  0.88622804509E+03  0.00000000000E+00 0.  1.
         -2   -1    0    0    0  501 -0.00000000000E+00 -0.00000000000E+00 -0.23909900829E+03  0.23909900829E+03  0.00000000000E+00 0. -1.
    9000005    1    1    2  502    0 -0.14035725255E+03 -0.30394561208E+02  0.10740878518E+03  0.43836130626E+03  0.40000000000E+03 0.  1.
   -9000005    1    1    2    0  501  0.14035725255E+03  0.30394561208E+02  0.53972025163E+03  0.68696574712E+03  0.40000000000E+03 0. -1.
<mgrwt>
<rscale>  2 0.42499881E+03</rscale>
<asrwt>0</asrwt>
<pdfrwt beam="1">  1        2 0.13634277E+00 0.42499881E+03</pdfrwt>
<pdfrwt beam="2">  1       -2 0.36784463E-01 0.42499881E+03</pdfrwt>
<totfact> 0.21532931E+02</totfact>
</mgrwt>
</event>
<event>
 4    1  0.2358610E-002  0.7609879E+03  0.7818608E-02  0.9618268E-01
          2   -1    0    0  502    0  0.00000000000E+00  0.00000000000E+00  0.88079158223E+03  0.88079158223E+03  0.00000000000E+00 0.  1.
         -2   -1    0    0    0  501 -0.00000000000E+00 -0.00000000000E+00 -0.74058923944E+03  0.74058923944E+03  0.00000000000E+00 0. -1.
    9000005    1    1    2  502    0  0.16165942741E+03 -0.62687223976E+03 -0.20147508920E+03  0.78720695311E+03  0.40000000000E+03 0. -1.
   -9000005    1    1    2    0  501 -0.16165942741E+03  0.62687223976E+03  0.34167743199E+03  0.83417386856E+03  0.40000000000E+03 0.  1.
<mgrwt>
<rscale>  2 0.76098789E+03</rscale>
<asrwt>0</asrwt>
<pdfrwt beam="1">  1        2 0.13550640E+00 0.76098789E+03</pdfrwt>
<pdfrwt beam="2">  1       -2 0.11393681E+00 0.76098789E+03</pdfrwt>
<totfact> 0.18486890E+01</totfact>
</mgrwt>
</event>
<event>
 4    1  0.2358610E-002  0.4373571E+03  0.7818608E-02  0.1031561E+00
         -2   -1    0    0    0  501 -0.00000000000E+00  0.00000000000E+00  0.17919749374E+03  0.17919749374E+03  0.00000000000E+00 0.  1.
          2   -1    0    0  502    0  0.00000000000E+00 -0.00000000000E+00 -0.14035353084E+04  0.14035353084E+04  0.00000000000E+00 0. -1.
    9000005    1    1    2  502    0 -0.17117519537E+03 -0.44500298444E+02 -0.99942835682E+03  0.10909345830E+04  0.40000000000E+03 0. -1.
   -9000005    1    1    2    0  501  0.17117519537E+03  0.44500298444E+02 -0.22490945782E+03  0.49179821908E+03  0.40000000000E+03 0. -1.
<mgrwt>
<rscale>  2 0.43735709E+03</rscale>
<asrwt>0</asrwt>
<pdfrwt beam="1">  1        2 0.21592851E+00 0.43735709E+03</pdfrwt>
<pdfrwt beam="2">  1       -2 0.27568845E-01 0.43735709E+03</pdfrwt>
<totfact> 0.18049894E+02</totfact>
</mgrwt>
</event>
<event>
 4    1  0.2358610E-002  0.4660438E+03  0.7818608E-02  0.1023043E+00
         -2   -1    0    0    0  501 -0.00000000000E+00  0.00000000000E+00  0.20373255609E+04  0.20373255609E+04  0.00000000000E+00 0. -1.
          2   -1    0    0  502    0  0.00000000000E+00 -0.00000000000E+00 -0.15970604763E+03  0.15970604763E+03  0.00000000000E+00 0.  1.
    9000005    1    1    2  502    0  0.17840051079E+03 -0.15927978467E+03  0.15722150900E+04  0.16398344677E+04  0.40000000000E+03 0. -1.
   -9000005    1    1    2    0  501 -0.17840051079E+03  0.15927978467E+03  0.30540442325E+03  0.55719714087E+03  0.40000000000E+03 0.  1.
<mgrwt>
<rscale>  2 0.46604377E+03</rscale>
<asrwt>0</asrwt>
<pdfrwt beam="1">  1        2 0.24570163E-01 0.46604377E+03</pdfrwt>
<pdfrwt beam="2">  1       -2 0.31343468E+00 0.46604377E+03</pdfrwt>
<totfact> 0.63947143E+00</totfact>
</mgrwt>
</event>
<event>
 4    1  0.2358610E-002  0.4428677E+03  0.7818608E-02  0.1029871E+00
          2   -1    0    0  502    0  0.00000000000E+00  0.00000000000E+00  0.11423365630E+04  0.11423365630E+04  0.00000000000E+00 0.  1.
         -2   -1    0    0    0  501 -0.00000000000E+00 -0.00000000000E+00 -0.17187391985E+03  0.17187391985E+03  0.00000000000E+00 0. -1.
    9000005    1    1    2  502    0  0.81418840803E+02 -0.17176361565E+03  0.50652090880E+03  0.67282627651E+03  0.40000000000E+03 0. -1.
   -9000005    1    1    2    0  501 -0.81418840803E+02  0.17176361565E+03  0.46394173437E+03  0.64138420638E+03  0.40000000000E+03 0. -1.
<mgrwt>
<rscale>  2 0.44286766E+03</rscale>
<asrwt>0</asrwt>
<pdfrwt beam="1">  1        2 0.17574408E+00 0.44286766E+03</pdfrwt>
<pdfrwt beam="2">  1       -2 0.26442142E-01 0.44286766E+03</pdfrwt>
<totfact> 0.27417455E+02</totfact>
</mgrwt>
</event>
<event>
 4    1  0.2358610E-002  0.4384298E+03  0.7818608E-02  0.1031230E+00
          2   -1    0    0  502    0  0.00000000000E+00  0.00000000000E+00  0.18064587974E+04  0.18064587974E+04  0.00000000000E+00 0. -1.
         -2   -1    0    0    0  501 -0.00000000000E+00 -0.00000000000E+00 -0.11935604921E+03  0.11935604921E+03  0.00000000000E+00 0.  1.
    9000005    1    1    2  502    0  0.58532901934E+02  0.16968958225E+03  0.52639467425E+03  0.68506350655E+03  0.40000000000E+03 0.  1.
   -9000005    1    1    2    0  501 -0.58532901934E+02 -0.16968958225E+03  0.11607080739E+04  0.12407513401E+04  0.40000000000E+03 0. -1.
<mgrwt>
<rscale>  2 0.43842976E+03</rscale>
<asrwt>0</asrwt>
<pdfrwt beam="1">  1        2 0.27791672E+00 0.43842976E+03</pdfrwt>
<pdfrwt beam="2">  1       -2 0.18362470E-01 0.43842976E+03</pdfrwt>
<totfact> 0.22339635E+02</totfact>
</mgrwt>
</event>
<event>
 4    1  0.2358610E-002  0.4900637E+03  0.7818608E-02  0.1016405E+00
          1   -1    0    0  502    0  0.00000000000E+00  0.00000000000E+00  0.86020313103E+03  0.86020313103E+03  0.00000000000E+00 0.  1.
         -1   -1    0    0    0  501 -0.00000000000E+00 -0.00000000000E+00 -0.28846043854E+03  0.28846043854E+03  0.00000000000E+00 0. -1.
    9000005    1    1    2  502    0 -0.22152543771E+03  0.17632036612E+03  0.18292574430E+03  0.52309102362E+03  0.40000000000E+03 0. -1.
   -9000005    1    1    2    0  501  0.22152543771E+03 -0.17632036612E+03  0.38881694818E+03  0.62557254596E+03  0.40000000000E+03 0. -1.
<mgrwt>
<rscale>  2 0.49006366E+03</rscale>
<asrwt>0</asrwt>
<pdfrwt beam="1">  1        1 0.13233894E+00 0.49006366E+03</pdfrwt>
<pdfrwt beam="2">  1       -1 0.44378529E-01 0.49006366E+03</pdfrwt>
<totfact> 0.10302172E+02</totfact>
</mgrwt>
</event>
<event>
 4    1  0.2358610E-002  0.4215170E+03  0.7818608E-02  0.1036574E+00
         -2   -1    0    0    0  501 -0.00000000000E+00  0.00000000000E+00  0.32169141187E+03  0.32169141187E+03  0.00000000000E+00 0. -1.
          2   -1    0    0  502    0  0.00000000000E+00 -0.00000000000E+00 -0.92059632249E+03  0.92059632249E+03  0.00000000000E+00 0.  1.
    9000005    1    1    2  502    0  0.11534581178E+03  0.66120574569E+02 -0.69231851239E+03  0.81054395888E+03  0.40000000000E+03 0.  1.
   -9000005    1    1    2    0  501 -0.11534581178E+03 -0.66120574569E+02  0.93413601762E+02  0.43174377549E+03  0.40000000000E+03 0. -1.
<mgrwt>
<rscale>  2 0.42151701E+03</rscale>
<asrwt>0</asrwt>
<pdfrwt beam="1">  1        2 0.14163020E+00 0.42151701E+03</pdfrwt>
<pdfrwt beam="2">  1       -2 0.49490987E-01 0.42151701E+03</pdfrwt>
<totfact> 0.11441678E+02</totfact>
</mgrwt>
</event>
<event>
 4    1  0.2358610E-002  0.5543031E+03  0.7818608E-02  0.1000503E+00
          1   -1    0    0  502    0  0.00000000000E+00  0.00000000000E+00  0.20705425252E+04  0.20705425252E+04  0.00000000000E+00 0. -1.
         -1   -1    0    0    0  501 -0.00000000000E+00 -0.00000000000E+00 -0.14840714302E+03  0.14840714302E+03  0.00000000000E+00 0.  1.
    9000005    1    1    2  502    0 -0.34765593617E+03 -0.16244152792E+03  0.94985221151E+03  0.10997595754E+04  0.40000000000E+03 0.  1.
   -9000005    1    1    2    0  501  0.34765593617E+03  0.16244152792E+03  0.97228317069E+03  0.11191900929E+04  0.40000000000E+03 0.  1.
<mgrwt>
<rscale>  2 0.55430308E+03</rscale>
<asrwt>0</asrwt>
<pdfrwt beam="1">  1        1 0.31854498E+00 0.55430308E+03</pdfrwt>
<pdfrwt beam="2">  1       -1 0.22831870E-01 0.55430308E+03</pdfrwt>
<totfact> 0.46443289E+01</totfact>
</mgrwt>
</event>
<event>
 4    1  0.2358610E-002  0.4302606E+03  0.7818608E-02  0.1033778E+00
         -2   -1    0    0    0  501 -0.00000000000E+00  0.00000000000E+00  0.10833105283E+03  0.10833105283E+03  0.00000000000E+00 0. -1.
          2   -1    0    0  502    0  0.00000000000E+00 -0.00000000000E+00 -0.25031288274E+04  0.25031288274E+04  0.00000000000E+00 0.  1.
    9000005    1    1    2  502    0  0.11296052105E+03 -0.11119412688E+03 -0.19329137566E+04  0.19802221602E+04  0.40000000000E+03 0.  1.
   -9000005    1    1    2    0  501 -0.11296052105E+03  0.11119412688E+03 -0.46188401798E+03  0.63123772006E+03  0.40000000000E+03 0. -1.
<mgrwt>
<rscale>  2 0.43026063E+03</rscale>
<asrwt>0</asrwt>
<pdfrwt beam="1">  1        2 0.38509673E+00 0.43026063E+03</pdfrwt>
<pdfrwt beam="2">  1       -2 0.16666316E-01 0.43026063E+03</pdfrwt>
<totfact> 0.11064545E+02</totfact>
</mgrwt>
</event>
<event>
 4    1  0.2358610E-002  0.4152213E+03  0.7818608E-02  0.1038633E+00
         -1   -1    0    0    0  501 -0.00000000000E+00  0.00000000000E+00  0.53449824477E+03  0.53449824477E+03  0.00000000000E+00 0.  1.
          1   -1    0    0  502    0  0.00000000000E+00 -0.00000000000E+00 -0.35948820040E+03  0.35948820040E+03  0.00000000000E+00 0. -1.
    9000005    1    1    2  502    0  0.10787109721E+03  0.27794577598E+02 -0.55755703621E+02  0.41894798083E+03  0.40000000000E+03 0. -1.
   -9000005    1    1    2    0  501 -0.10787109721E+03 -0.27794577598E+02  0.23076574799E+03  0.47503846434E+03  0.40000000000E+03 0.  1.
<mgrwt>
<rscale>  2 0.41522128E+03</rscale>
<asrwt>0</asrwt>
<pdfrwt beam="1">  1        1 0.55305877E-01 0.41522128E+03</pdfrwt>
<pdfrwt beam="2">  1       -1 0.82230499E-01 0.41522128E+03</pdfrwt>
<totfact> 0.10622589E+02</totfact>
</mgrwt>
</event>
<event>
 4    1  0.2358610E-002  0.4105084E+03  0.7818608E-02  0.1040201E+00
         -2   -1    0    0    0  501 -0.00000000000E+00  0.00000000000E+00  0.40222225964E+03  0.40222225964E+03  0.00000000000E+00 0.  1.
          2   -1    0    0  502    0  0.00000000000E+00 -0.00000000000E+00 -0.55093661169E+03  0.55093661169E+03  0.00000000000E+00 0. -1.
    9000005    1    1    2  502    0  0.35704087773E+02 -0.85101910097E+02 -0.30760868606E+03  0.51297194926E+03  0.40000000000E+03 0. -1.
   -9000005    1    1    2    0  501 -0.35704087773E+02  0.85101910097E+02  0.15889433401E+03  0.44018692207E+03  0.40000000000E+03 0.  1.
<mgrwt>
<rscale>  2 0.41050836E+03</rscale>
<asrwt>0</asrwt>
<pdfrwt beam="1">  1        2 0.84759478E-01 0.41050836E+03</pdfrwt>
<pdfrwt beam="2">  1       -2 0.61880348E-01 0.41050836E+03</pdfrwt>
<totfact> 0.13766088E+02</totfact>
</mgrwt>
</event>
<event>
 4    1  0.2358610E-002  0.4008784E+03  0.7818608E-02  0.1043476E+00
         -2   -1    0    0    0  501 -0.00000000000E+00  0.00000000000E+00  0.26055652359E+03  0.26055652359E+03  0.00000000000E+00 0. -1.
          2   -1    0    0  502    0  0.00000000000E+00 -0.00000000000E+00 -0.64122255009E+03  0.64122255009E+03  0.00000000000E+00 0.  1.
    9000005    1    1    2  502    0 -0.22512464837E+02  0.14023735560E+02 -0.27838250390E+03  0.48805767560E+03  0.40000000000E+03 0.  1.
   -9000005    1    1    2    0  501  0.22512464837E+02 -0.14023735560E+02 -0.10228352260E+03  0.41372139808E+03  0.40000000000E+03 0. -1.
<mgrwt>
<rscale>  2 0.40087838E+03</rscale>
<asrwt>0</asrwt>
<pdfrwt beam="1">  1        2 0.98649622E-01 0.40087838E+03</pdfrwt>
<pdfrwt beam="2">  1       -2 0.40085619E-01 0.40087838E+03</pdfrwt>
<totfact> 0.27629216E+02</totfact>
</mgrwt>
</event>
<event>
 4    1  0.2358610E-002  0.1030942E+04  0.7818608E-02  0.9275245E-01
         -1   -1    0    0    0  501 -0.00000000000E+00  0.00000000000E+00  0.54398210660E+03  0.54398210660E+03  0.00000000000E+00 0. -1.
          1   -1    0    0  502    0  0.00000000000E+00 -0.00000000000E+00 -0.21080785243E+04  0.21080785243E+04  0.00000000000E+00 0.  1.
    9000005    1    1    2  502    0 -0.79586937217E+03 -0.51906927905E+03 -0.11407554956E+04  0.15375838432E+04  0.40000000000E+03 0.  1.
   -9000005    1    1    2    0  501  0.79586937217E+03  0.51906927905E+03 -0.42334092204E+03  0.11144767877E+04  0.40000000000E+03 0. -1.
<mgrwt>
<rscale>  2 0.10309418E+04</rscale>
<asrwt>0</asrwt>
<pdfrwt beam="1">  1        1 0.32431976E+00 0.10309418E+04</pdfrwt>
<pdfrwt beam="2">  1       -1 0.83689557E-01 0.10309418E+04</pdfrwt>
<totfact> 0.35938249E+00</totfact>
</mgrwt>
</event>
<event>
 4    1  0.2358610E-002  0.4041070E+03  0.7818608E-02  0.1042367E+00
         -2   -1    0    0    0  501 -0.00000000000E+00  0.00000000000E+00  0.65187006967E+03  0.65187006967E+03  0.00000000000E+00 0.  1.
          2   -1    0    0  502    0  0.00000000000E+00 -0.00000000000E+00 -0.29427978116E+03  0.29427978116E+03  0.00000000000E+00 0. -1.
    9000005    1    1    2  502    0  0.54628935177E+02 -0.17835784648E+02 -0.36440506133E+01  0.40412339066E+03  0.40000000000E+03 0. -1.
   -9000005    1    1    2    0  501 -0.54628935177E+02  0.17835784648E+02  0.36123433912E+03  0.54202646018E+03  0.40000000000E+03 0.  1.
<mgrwt>
<rscale>  2 0.40410696E+03</rscale>
<asrwt>0</asrwt>
<pdfrwt beam="1">  1        2 0.45273813E-01 0.40410696E+03</pdfrwt>
<pdfrwt beam="2">  1       -2 0.10028770E+00 0.40410696E+03</pdfrwt>
<totfact> 0.94818215E+01</totfact>
</mgrwt>
</event>
<event>
 4    1  0.2358610E-002  0.6085889E+03  0.7818608E-02  0.9887745E-01
          2   -1    0    0  502    0  0.00000000000E+00  0.00000000000E+00  0.67700086452E+03  0.67700086452E+03  0.00000000000E+00 0. -1.
         -2   -1    0    0    0  501 -0.00000000000E+00 -0.00000000000E+00 -0.58045177877E+03  0.58045177877E+03  0.00000000000E+00 0.  1.
    9000005    1    1    2  502    0 -0.33942821746E+03 -0.30849455018E+03 -0.10245666341E+03  0.61715295525E+03  0.40000000000E+03 0.  1.
   -9000005    1    1    2    0  501  0.33942821746E+03  0.30849455018E+03  0.19900574915E+03  0.64029968804E+03  0.40000000000E+03 0. -1.
<mgrwt>
<rscale>  2 0.60858886E+03</rscale>
<asrwt>0</asrwt>
<pdfrwt beam="1">  1        2 0.10415398E+00 0.60858886E+03</pdfrwt>
<pdfrwt beam="2">  1       -2 0.89300274E-01 0.60858886E+03</pdfrwt>
<totfact> 0.47129524E+01</totfact>
</mgrwt>
</event>
<event>
 4    1  0.2358610E-002  0.4219814E+03  0.7818608E-02  0.1036423E+00
         -2   -1    0    0    0  501 -0.00000000000E+00  0.00000000000E+00  0.18467029780E+03  0.18467029780E+03  0.00000000000E+00 0. -1.
          2   -1    0    0  502    0  0.00000000000E+00 -0.00000000000E+00 -0.25041501587E+04  0.25041501587E+04  0.00000000000E+00 0.  1.
    9000005    1    1    2  502    0 -0.65235967212E+02  0.11752674615E+03 -0.22140004846E+04  0.22538558990E+04  0.40000000000E+03 0.  1.
   -9000005    1    1    2    0  501  0.65235967212E+02 -0.11752674615E+03 -0.10547937630E+03  0.43496455752E+03  0.40000000000E+03 0. -1.
<mgrwt>
<rscale>  2 0.42198136E+03</rscale>
<asrwt>0</asrwt>
<pdfrwt beam="1">  1        2 0.38525382E+00 0.42198136E+03</pdfrwt>
<pdfrwt beam="2">  1       -2 0.28410819E-01 0.42198136E+03</pdfrwt>
<totfact> 0.43437679E+01</totfact>
</mgrwt>
</event>
<event>
 4    1  0.2358610E-002  0.4723853E+03  0.7818608E-02  0.1021249E+00
         -1   -1    0    0    0  501 -0.00000000000E+00  0.00000000000E+00  0.71234237164E+03  0.71234237164E+03  0.00000000000E+00 0. -1.
          1   -1    0    0  502    0  0.00000000000E+00 -0.00000000000E+00 -0.31337348253E+03  0.31337348253E+03  0.00000000000E+00 0.  1.
    9000005    1    1    2  502    0  0.25069317538E+03 -0.17343343010E+02  0.18969404513E+03  0.50904979175E+03  0.40000000000E+03 0.  1.
   -9000005    1    1    2    0  501 -0.25069317538E+03  0.17343343010E+02  0.20927484399E+03  0.51666606242E+03  0.40000000000E+03 0. -1.
<mgrwt>
<rscale>  2 0.47238529E+03</rscale>
<asrwt>0</asrwt>
<pdfrwt beam="1">  1        1 0.48211305E-01 0.47238529E+03</pdfrwt>
<pdfrwt beam="2">  1       -1 0.10959113E+00 0.47238529E+03</pdfrwt>
<totfact> 0.66593507E+01</totfact>
</mgrwt>
</event>
<event>
 4    1  0.2358610E-002  0.4183462E+03  0.7818608E-02  0.1037606E+00
          1   -1    0    0  502    0  0.00000000000E+00  0.00000000000E+00  0.14164903482E+04  0.14164903482E+04  0.00000000000E+00 0. -1.
         -1   -1    0    0    0  501 -0.00000000000E+00 -0.00000000000E+00 -0.13168511486E+03  0.13168511486E+03  0.00000000000E+00 0.  1.
    9000005    1    1    2  502    0  0.11543111915E+03 -0.41099729712E+02  0.45005456540E+03  0.61446126232E+03  0.40000000000E+03 0.  1.
   -9000005    1    1    2    0  501 -0.11543111915E+03  0.41099729712E+02  0.83475066790E+03  0.93371420071E+03  0.40000000000E+03 0. -1.
<mgrwt>
<rscale>  2 0.41834619E+03</rscale>
<asrwt>0</asrwt>
<pdfrwt beam="1">  1        1 0.21792158E+00 0.41834619E+03</pdfrwt>
<pdfrwt beam="2">  1       -1 0.20259249E-01 0.41834619E+03</pdfrwt>
<totfact> 0.15788381E+02</totfact>
</mgrwt>
</event>
<event>
 4    1  0.2358610E-002  0.7981273E+03  0.7818608E-02  0.9562732E-01
         -1   -1    0    0    0  501 -0.00000000000E+00  0.00000000000E+00  0.39106635225E+03  0.39106635225E+03  0.00000000000E+00 0. -1.
          1   -1    0    0  502    0  0.00000000000E+00 -0.00000000000E+00 -0.17657594263E+04  0.17657594263E+04  0.00000000000E+00 0.  1.
    9000005    1    1    2  502    0  0.32125086404E+03  0.61139598444E+03 -0.38711247476E+03  0.88705311879E+03  0.40000000000E+03 0.  1.
   -9000005    1    1    2    0  501 -0.32125086404E+03 -0.61139598444E+03 -0.98758059932E+03  0.12697726598E+04  0.40000000000E+03 0. -1.
<mgrwt>
<rscale>  2 0.79812729E+03</rscale>
<asrwt>0</asrwt>
<pdfrwt beam="1">  1        1 0.27165529E+00 0.79812729E+03</pdfrwt>
<pdfrwt beam="2">  1       -1 0.60164055E-01 0.79812729E+03</pdfrwt>
<totfact> 0.12448998E+01</totfact>
</mgrwt>
</event>
<event>
 4    1  0.2358610E-002  0.4282359E+03  0.7818608E-02  0.1034419E+00
         -1   -1    0    0    0  501 -0.00000000000E+00  0.00000000000E+00  0.40414172054E+03  0.40414172054E+03  0.00000000000E+00 0.  1.
          1   -1    0    0  502    0  0.00000000000E+00 -0.00000000000E+00 -0.73294880253E+03  0.73294880253E+03  0.00000000000E+00 0. -1.
    9000005    1    1    2  502    0  0.73695105631E+02 -0.13399647498E+03 -0.51529441313E+03  0.67001071343E+03  0.40000000000E+03 0. -1.
   -9000005    1    1    2    0  501 -0.73695105631E+02  0.13399647498E+03  0.18648733115E+03  0.46707980965E+03  0.40000000000E+03 0.  1.
<mgrwt>
<rscale>  2 0.42823594E+03</rscale>
<asrwt>0</asrwt>
<pdfrwt beam="1">  1        1 0.11276135E+00 0.42823594E+03</pdfrwt>
<pdfrwt beam="2">  1       -1 0.62175650E-01 0.42823594E+03</pdfrwt>
<totfact> 0.70405958E+01</totfact>
</mgrwt>
</event>
<event>
 4    1  0.2358610E-002  0.5385412E+03  0.7818608E-02  0.1004182E+00
         -2   -1    0    0    0  501 -0.00000000000E+00  0.00000000000E+00  0.14486561735E+03  0.14486561735E+03  0.00000000000E+00 0. -1.
          2   -1    0    0  502    0  0.00000000000E+00 -0.00000000000E+00 -0.28945268731E+04  0.28945268731E+04  0.00000000000E+00 0.  1.
    9000005    1    1    2  502    0 -0.19967313227E+03 -0.30026193447E+03 -0.53097295407E+03  0.75627962223E+03  0.40000000000E+03 0. -1.
   -9000005    1    1    2    0  501  0.19967313227E+03  0.30026193447E+03 -0.22186883016E+04  0.22831128682E+04  0.40000000000E+03 0.  1.
<mgrwt>
<rscale>  2 0.53854117E+03</rscale>
<asrwt>0</asrwt>
<pdfrwt beam="1">  1        2 0.44531180E+00 0.53854117E+03</pdfrwt>
<pdfrwt beam="2">  1       -2 0.22287019E-01 0.53854117E+03</pdfrwt>
<totfact> 0.38995284E+01</totfact>
</mgrwt>
</event>
<event>
 4    1  0.2358610E-002  0.5225786E+03  0.7818608E-02  0.1008048E+00
          1   -1    0    0  502    0  0.00000000000E+00  0.00000000000E+00  0.13476284312E+04  0.13476284312E+04  0.00000000000E+00 0. -1.
         -1   -1    0    0    0  501 -0.00000000000E+00 -0.00000000000E+00 -0.51197867293E+03  0.51197867293E+03  0.00000000000E+00 0.  1.
    9000005    1    1    2  502    0 -0.23408935318E+03 -0.24143431560E+03  0.11405610783E+04  0.12545787849E+04  0.40000000000E+03 0. -1.
   -9000005    1    1    2    0  501  0.23408935318E+03  0.24143431560E+03 -0.30491132005E+03  0.60502831927E+03  0.40000000000E+03 0.  1.
<mgrwt>
<rscale>  2 0.52257856E+03</rscale>
<asrwt>0</asrwt>
<pdfrwt beam="1">  1        1 0.20732745E+00 0.52257856E+03</pdfrwt>
<pdfrwt beam="2">  1       -1 0.78765950E-01 0.52257856E+03</pdfrwt>
<totfact> 0.14493284E+01</totfact>
</mgrwt>
</event>
<event>
 4    1  0.2358610E-002  0.6551340E+03  0.7818608E-02  0.9797193E-01
         -2   -1    0    0    0  501 -0.00000000000E+00  0.00000000000E+00  0.14318137198E+04  0.14318137198E+04  0.00000000000E+00 0. -1.
          2   -1    0    0  502    0  0.00000000000E+00 -0.00000000000E+00 -0.36990804755E+03  0.36990804755E+03  0.00000000000E+00 0.  1.
    9000005    1    1    2  502    0 -0.28388999723E+03 -0.43428913950E+03  0.13865275007E+03  0.66964555723E+03  0.40000000000E+03 0. -1.
   -9000005    1    1    2    0  501  0.28388999723E+03  0.43428913950E+03  0.92325292223E+03  0.11320762102E+04  0.40000000000E+03 0.  1.
<mgrwt>
<rscale>  2 0.65513402E+03</rscale>
<asrwt>0</asrwt>
<pdfrwt beam="1">  1        2 0.56908931E-01 0.65513402E+03</pdfrwt>
<pdfrwt beam="2">  1       -2 0.22027903E+00 0.65513402E+03</pdfrwt>
<totfact> 0.88307546E+00</totfact>
</mgrwt>
</event>
<event>
 4    1  0.2358610E-002  0.8521494E+03  0.7818608E-02  0.9487457E-01
          1   -1    0    0  502    0  0.00000000000E+00  0.00000000000E+00  0.13982192948E+04  0.13982192948E+04  0.00000000000E+00 0. -1.
         -1   -1    0    0    0  501 -0.00000000000E+00 -0.00000000000E+00 -0.55536158763E+03  0.55536158763E+03  0.00000000000E+00 0.  1.
    9000005    1    1    2  502    0  0.63555168365E+03  0.40278125846E+03  0.17267909263E+03  0.86946923683E+03  0.40000000000E+03 0.  1.
   -9000005    1    1    2    0  501 -0.63555168365E+03 -0.40278125846E+03  0.67017861454E+03  0.10841116456E+04  0.40000000000E+03 0.  1.
<mgrwt>
<rscale>  2 0.85214945E+03</rscale>
<asrwt>0</asrwt>
<pdfrwt beam="1">  1        1 0.21511066E+00 0.85214945E+03</pdfrwt>
<pdfrwt beam="2">  1       -1 0.85440244E-01 0.85214945E+03</pdfrwt>
<totfact> 0.10664745E+01</totfact>
</mgrwt>
</event>
<event>
 4    1  0.2358610E-002  0.4213622E+03  0.7818608E-02  0.1036624E+00
         -2   -1    0    0    0  501 -0.00000000000E+00  0.00000000000E+00  0.16087879519E+03  0.16087879519E+03  0.00000000000E+00 0. -1.
          2   -1    0    0  502    0  0.00000000000E+00 -0.00000000000E+00 -0.14304369671E+04  0.14304369671E+04  0.00000000000E+00 0.  1.
    9000005    1    1    2  502    0  0.84378264321E+02  0.10210976700E+03 -0.10151055348E+04  0.10990838652E+04  0.40000000000E+03 0.  1.
   -9000005    1    1    2    0  501 -0.84378264321E+02 -0.10210976700E+03 -0.25445263721E+03  0.49223189717E+03  0.40000000000E+03 0. -1.
<mgrwt>
<rscale>  2 0.42136219E+03</rscale>
<asrwt>0</asrwt>
<pdfrwt beam="1">  1        2 0.22006723E+00 0.42136219E+03</pdfrwt>
<pdfrwt beam="2">  1       -2 0.24750584E-01 0.42136219E+03</pdfrwt>
<totfact> 0.21219222E+02</totfact>
</mgrwt>
</event>
<event>
 4    1  0.2358610E-002  0.4116801E+03  0.7818608E-02  0.1039809E+00
         -1   -1    0    0    0  501 -0.00000000000E+00  0.00000000000E+00  0.17992653021E+03  0.17992653021E+03  0.00000000000E+00 0. -1.
          1   -1    0    0  502    0  0.00000000000E+00 -0.00000000000E+00 -0.14134430898E+04  0.14134430898E+04  0.00000000000E+00 0.  1.
    9000005    1    1    2  502    0  0.40351385492E+02 -0.88612858466E+02 -0.10768966221E+04  0.11529036420E+04  0.40000000000E+03 0.  1.
   -9000005    1    1    2    0  501 -0.40351385492E+02  0.88612858466E+02 -0.15661993750E+03  0.44046597805E+03  0.40000000000E+03 0. -1.
<mgrwt>
<rscale>  2 0.41168006E+03</rscale>
<asrwt>0</asrwt>
<pdfrwt beam="1">  1        1 0.21745279E+00 0.41168006E+03</pdfrwt>
<pdfrwt beam="2">  1       -1 0.27681004E-01 0.41168006E+03</pdfrwt>
<totfact> 0.94110350E+01</totfact>
</mgrwt>
</event>
<event>
 4    1  0.2358610E-002  0.4286377E+03  0.7818608E-02  0.1034291E+00
         -1   -1    0    0    0  501 -0.00000000000E+00  0.00000000000E+00  0.40250425327E+02  0.40250425327E+02  0.00000000000E+00 0. -1.
          1   -1    0    0  502    0  0.00000000000E+00 -0.00000000000E+00 -0.45648478047E+04  0.45648478047E+04  0.00000000000E+00 0.  1.
    9000005    1    1    2  502    0  0.10485766246E+03 -0.11285015352E+03 -0.22483125224E+04  0.22888074373E+04  0.40000000000E+03 0. -1.
   -9000005    1    1    2    0  501 -0.10485766246E+03  0.11285015352E+03 -0.22762848570E+04  0.23162907928E+04  0.40000000000E+03 0.  1.
<mgrwt>
<rscale>  2 0.42863771E+03</rscale>
<asrwt>0</asrwt>
<pdfrwt beam="1">  1        1 0.70228433E+00 0.42863771E+03</pdfrwt>
<pdfrwt beam="2">  1       -1 0.61923726E-02 0.42863771E+03</pdfrwt>
<totfact> 0.45189568E+00</totfact>
</mgrwt>
</event>
<event>
 4    1  0.2358610E-002  0.4083397E+03  0.7818608E-02  0.1040930E+00
         -1   -1    0    0    0  501 -0.00000000000E+00  0.00000000000E+00  0.40262549282E+03  0.40262549282E+03  0.00000000000E+00 0.  1.
          1   -1    0    0  502    0  0.00000000000E+00 -0.00000000000E+00 -0.44522189978E+03  0.44522189978E+03  0.00000000000E+00 0. -1.
    9000005    1    1    2  502    0 -0.78462626816E+02 -0.24184543372E+02  0.90720026205E+02  0.41829582726E+03  0.40000000000E+03 0.  1.
   -9000005    1    1    2    0  501  0.78462626816E+02  0.24184543372E+02 -0.13331643317E+03  0.42955156535E+03  0.40000000000E+03 0. -1.
<mgrwt>
<rscale>  2 0.40833966E+03</rscale>
<asrwt>0</asrwt>
<pdfrwt beam="1">  1        1 0.68495677E-01 0.40833966E+03</pdfrwt>
<pdfrwt beam="2">  1       -1 0.61942383E-01 0.40833966E+03</pdfrwt>
<totfact> 0.14308438E+02</totfact>
</mgrwt>
</event>
<event>
 4    1  0.2358610E-002  0.4000011E+03  0.7818608E-02  0.1043779E+00
          1   -1    0    0  502    0  0.00000000000E+00  0.00000000000E+00  0.73355087516E+03  0.73355087516E+03  0.00000000000E+00 0. -1.
         -1   -1    0    0    0  501 -0.00000000000E+00 -0.00000000000E+00 -0.42398137469E+03  0.42398137469E+03  0.00000000000E+00 0.  1.
    9000005    1    1    2  502    0  0.92218179784E+00  0.14511909914E+00  0.55807613059E+03  0.68662204961E+03  0.40000000000E+03 0. -1.
   -9000005    1    1    2    0  501 -0.92218179784E+00 -0.14511909914E+00 -0.24850663012E+03  0.47091020024E+03  0.40000000000E+03 0.  1.
<mgrwt>
<rscale>  2 0.40000109E+03</rscale>
<asrwt>0</asrwt>
<pdfrwt beam="1">  1        1 0.11285398E+00 0.40000109E+03</pdfrwt>
<pdfrwt beam="2">  1       -1 0.65227904E-01 0.40000109E+03</pdfrwt>
<totfact> 0.64242684E+01</totfact>
</mgrwt>
</event>
<event>
 4    1  0.2358610E-002  0.4348424E+03  0.7818608E-02  0.1032341E+00
          3   -1    0    0  502    0  0.00000000000E+00  0.00000000000E+00  0.32838529832E+03  0.32838529832E+03  0.00000000000E+00 0.  1.
         -3   -1    0    0    0  501 -0.00000000000E+00 -0.00000000000E+00 -0.59398232642E+03  0.59398232642E+03  0.00000000000E+00 0. -1.
    9000005    1    1    2  502    0  0.15907607166E+03 -0.61503859589E+02 -0.52134722458E+02  0.43795656246E+03  0.40000000000E+03 0.  1.
   -9000005    1    1    2    0  501 -0.15907607166E+03  0.61503859589E+02 -0.21346230564E+03  0.48441106227E+03  0.40000000000E+03 0. -1.
<mgrwt>
<rscale>  2 0.43484241E+03</rscale>
<asrwt>0</asrwt>
<pdfrwt beam="1">  1        3 0.50520815E-01 0.43484241E+03</pdfrwt>
<pdfrwt beam="2">  1       -3 0.91381896E-01 0.43484241E+03</pdfrwt>
<totfact> 0.10881965E+01</totfact>
</mgrwt>
</event>
<event>
 4    1  0.2358610E-002  0.4223693E+03  0.7818608E-02  0.1036298E+00
         -2   -1    0    0    0  501 -0.00000000000E+00  0.00000000000E+00  0.59963399926E+02  0.59963399926E+02  0.00000000000E+00 0. -1.
          2   -1    0    0  502    0  0.00000000000E+00 -0.00000000000E+00 -0.33969801332E+04  0.33969801332E+04  0.00000000000E+00 0.  1.
    9000005    1    1    2  502    0 -0.12694709634E+03  0.47752499032E+02 -0.22776538208E+04  0.23164850084E+04  0.40000000000E+03 0.  1.
   -9000005    1    1    2    0  501  0.12694709634E+03 -0.47752499032E+02 -0.10593629124E+04  0.11404585247E+04  0.40000000000E+03 0. -1.
<mgrwt>
<rscale>  2 0.42236935E+03</rscale>
<asrwt>0</asrwt>
<pdfrwt beam="1">  1        2 0.52261249E+00 0.42236935E+03</pdfrwt>
<pdfrwt beam="2">  1       -2 0.92251356E-02 0.42236935E+03</pdfrwt>
<totfact> 0.85373066E+01</totfact>
</mgrwt>
</event>
<event>
 4    1  0.2358610E-002  0.4178457E+03  0.7818608E-02  0.1037770E+00
         -1   -1    0    0    0  501 -0.00000000000E+00  0.00000000000E+00  0.27816513107E+03  0.27816513107E+03  0.00000000000E+00 0. -1.
          1   -1    0    0  502    0  0.00000000000E+00 -0.00000000000E+00 -0.64995179911E+03  0.64995179911E+03  0.00000000000E+00 0.  1.
    9000005    1    1    2  502    0 -0.51616419854E+02  0.10922801633E+03 -0.99964572646E+02  0.42963697482E+03  0.40000000000E+03 0. -1.
   -9000005    1    1    2    0  501  0.51616419854E+02 -0.10922801633E+03 -0.27182209540E+03  0.49847995536E+03  0.40000000000E+03 0.  1.
<mgrwt>
<rscale>  2 0.41784568E+03</rscale>
<asrwt>0</asrwt>
<pdfrwt beam="1">  1        1 0.99992583E-01 0.41784568E+03</pdfrwt>
<pdfrwt beam="2">  1       -1 0.42794636E-01 0.41784568E+03</pdfrwt>
<totfact> 0.17045243E+02</totfact>
</mgrwt>
</event>
<event>
 4    1  0.2358610E-002  0.4113880E+03  0.7818608E-02  0.1039906E+00
         -2   -1    0    0    0  501 -0.00000000000E+00  0.00000000000E+00  0.10706753025E+04  0.10706753025E+04  0.00000000000E+00 0. -1.
          2   -1    0    0  502    0  0.00000000000E+00 -0.00000000000E+00 -0.22322409652E+03  0.22322409652E+03  0.00000000000E+00 0.  1.
    9000005    1    1    2  502    0 -0.17060680975E+02  0.94599247221E+02  0.74202650760E+02  0.41802645585E+03  0.40000000000E+03 0.  1.
   -9000005    1    1    2    0  501  0.17060680975E+02 -0.94599247221E+02  0.77324855519E+03  0.87587294313E+03  0.40000000000E+03 0. -1.
<mgrwt>
<rscale>  2 0.41138800E+03</rscale>
<asrwt>0</asrwt>
<pdfrwt beam="1">  1        2 0.34342169E-01 0.41138800E+03</pdfrwt>
<pdfrwt beam="2">  1       -2 0.16471927E+00 0.41138800E+03</pdfrwt>
<totfact> 0.37007703E+01</totfact>
</mgrwt>
</event>
<event>
 4    1  0.2358610E-002  0.5181031E+03  0.7818608E-02  0.1009159E+00
          2   -1    0    0  502    0  0.00000000000E+00  0.00000000000E+00  0.53430425275E+03  0.53430425275E+03  0.00000000000E+00 0.  1.
         -2   -1    0    0    0  501 -0.00000000000E+00 -0.00000000000E+00 -0.62603297743E+03  0.62603297743E+03  0.00000000000E+00 0. -1.
    9000005    1    1    2  502    0 -0.14533722684E+03 -0.29547909420E+03 -0.30369516145E+03  0.60055104338E+03  0.40000000000E+03 0. -1.
   -9000005    1    1    2    0  501  0.14533722684E+03  0.29547909420E+03  0.21196643677E+03  0.55978618680E+03  0.40000000000E+03 0.  1.
<mgrwt>
<rscale>  2 0.51810308E+03</rscale>
<asrwt>0</asrwt>
<pdfrwt beam="1">  1        2 0.82200654E-01 0.51810308E+03</pdfrwt>
<pdfrwt beam="2">  1       -2 0.96312766E-01 0.51810308E+03</pdfrwt>
<totfact> 0.53002025E+01</totfact>
</mgrwt>
</event>
<event>
 4    1  0.2358610E-002  0.4080258E+03  0.7818608E-02  0.1041036E+00
          2   -1    0    0  502    0  0.00000000000E+00  0.00000000000E+00  0.50405460275E+03  0.50405460275E+03  0.00000000000E+00 0. -1.
         -2   -1    0    0    0  501 -0.00000000000E+00 -0.00000000000E+00 -0.39297663959E+03  0.39297663959E+03  0.00000000000E+00 0.  1.
    9000005    1    1    2  502    0  0.63612118639E+02  0.49381663854E+02 -0.12359410981E+03  0.42633385315E+03  0.40000000000E+03 0.  1.
   -9000005    1    1    2    0  501 -0.63612118639E+02 -0.49381663854E+02  0.23467207297E+03  0.47069738919E+03  0.40000000000E+03 0. -1.
<mgrwt>
<rscale>  2 0.40802580E+03</rscale>
<asrwt>0</asrwt>
<pdfrwt beam="1">  1        2 0.77546863E-01 0.40802580E+03</pdfrwt>
<pdfrwt beam="2">  1       -2 0.60457944E-01 0.40802580E+03</pdfrwt>
<totfact> 0.16017621E+02</totfact>
</mgrwt>
</event>
<event>
 4    1  0.2358610E-002  0.4512617E+03  0.7818608E-02  0.1027346E+00
          2   -1    0    0  502    0  0.00000000000E+00  0.00000000000E+00  0.13822331796E+04  0.13822331796E+04  0.00000000000E+00 0. -1.
         -2   -1    0    0    0  501 -0.00000000000E+00 -0.00000000000E+00 -0.19385659002E+03  0.19385659002E+03  0.00000000000E+00 0.  1.
    9000005    1    1    2  502    0  0.69653592882E+02 -0.19694042247E+03  0.98027584591E+03  0.10791560995E+04  0.40000000000E+03 0. -1.
   -9000005    1    1    2    0  501 -0.69653592882E+02  0.19694042247E+03  0.20810074369E+03  0.49693367015E+03  0.40000000000E+03 0.  1.
<mgrwt>
<rscale>  2 0.45126173E+03</rscale>
<asrwt>0</asrwt>
<pdfrwt beam="1">  1        2 0.21265125E+00 0.45126173E+03</pdfrwt>
<pdfrwt beam="2">  1       -2 0.29824092E-01 0.45126173E+03</pdfrwt>
<totfact> 0.16038502E+02</totfact>
</mgrwt>
</event>
<event>
 4    1  0.2358610E-002  0.4012799E+03  0.7818608E-02  0.1043337E+00
         -1   -1    0    0    0  501 -0.00000000000E+00  0.00000000000E+00  0.71936545871E+03  0.71936545871E+03  0.00000000000E+00 0. -1.
          1   -1    0    0  502    0  0.00000000000E+00 -0.00000000000E+00 -0.26342471483E+03  0.26342471483E+03  0.00000000000E+00 0.  1.
    9000005    1    1    2  502    0  0.31997351572E+02 -0.13221196017E+01  0.37492360048E+02  0.40302761142E+03  0.40000000000E+03 0.  1.
   -9000005    1    1    2    0  501 -0.31997351572E+02  0.13221196017E+01  0.41844838383E+03  0.57976256212E+03  0.40000000000E+03 0. -1.
<mgrwt>
<rscale>  2 0.40127993E+03</rscale>
<asrwt>0</asrwt>
<pdfrwt beam="1">  1        1 0.40526880E-01 0.40127993E+03</pdfrwt>
<pdfrwt beam="2">  1       -1 0.11067161E+00 0.40127993E+03</pdfrwt>
<totfact> 0.81944063E+01</totfact>
</mgrwt>
</event>
<event>
 4    1  0.2358610E-002  0.8961717E+03  0.7818608E-02  0.9430380E-01
         -2   -1    0    0    0  501 -0.00000000000E+00  0.00000000000E+00  0.18845096135E+03  0.18845096135E+03  0.00000000000E+00 0. -1.
          2   -1    0    0  502    0  0.00000000000E+00 -0.00000000000E+00 -0.43120865613E+04  0.43120865613E+04  0.00000000000E+00 0.  1.
    9000005    1    1    2  502    0  0.72617591917E+03 -0.34028260202E+03 -0.18185993644E+04  0.20274188918E+04  0.40000000000E+03 0. -1.
   -9000005    1    1    2    0  501 -0.72617591917E+03  0.34028260202E+03 -0.23050362356E+04  0.24731186309E+04  0.40000000000E+03 0.  1.
<mgrwt>
<rscale>  2 0.89617170E+03</rscale>
<asrwt>0</asrwt>
<pdfrwt beam="1">  1        2 0.66339790E+00 0.89617170E+03</pdfrwt>
<pdfrwt beam="2">  1       -2 0.28992457E-01 0.89617170E+03</pdfrwt>
<totfact> 0.21987131E+00</totfact>
</mgrwt>
</event>
<event>
 4    1  0.2358610E-002  0.4819546E+03  0.7818608E-02  0.1018599E+00
         -1   -1    0    0    0  501 -0.00000000000E+00  0.00000000000E+00  0.41854025824E+03  0.41854025824E+03  0.00000000000E+00 0. -1.
          1   -1    0    0  502    0  0.00000000000E+00 -0.00000000000E+00 -0.56385924022E+03  0.56385924022E+03  0.00000000000E+00 0.  1.
    9000005    1    1    2  502    0 -0.22581065512E+03 -0.14591014299E+03 -0.11009395028E+02  0.48208031340E+03  0.40000000000E+03 0. -1.
   -9000005    1    1    2    0  501  0.22581065512E+03  0.14591014299E+03 -0.13430958695E+03  0.50031918506E+03  0.40000000000E+03 0.  1.
<mgrwt>
<rscale>  2 0.48195458E+03</rscale>
<asrwt>0</asrwt>
<pdfrwt beam="1">  1        1 0.86747576E-01 0.48195458E+03</pdfrwt>
<pdfrwt beam="2">  1       -1 0.64390809E-01 0.48195458E+03</pdfrwt>
<totfact> 0.95449605E+01</totfact>
</mgrwt>
</event>
<event>
 4    1  0.2358610E-002  0.5178750E+03  0.7818608E-02  0.1009216E+00
         -2   -1    0    0    0  501 -0.00000000000E+00  0.00000000000E+00  0.25646267131E+03  0.25646267131E+03  0.00000000000E+00 0.  1.
          2   -1    0    0  502    0  0.00000000000E+00 -0.00000000000E+00 -0.15762619495E+04  0.15762619495E+04  0.00000000000E+00 0. -1.
    9000005    1    1    2  502    0 -0.22346537249E+03 -0.24136637206E+03 -0.11915213967E+04  0.12991988828E+04  0.40000000000E+03 0. -1.
   -9000005    1    1    2    0  501  0.22346537249E+03  0.24136637206E+03 -0.12827788150E+03  0.53352573803E+03  0.40000000000E+03 0.  1.
<mgrwt>
<rscale>  2 0.51787498E+03</rscale>
<asrwt>0</asrwt>
<pdfrwt beam="1">  1        2 0.24250183E+00 0.51787498E+03</pdfrwt>
<pdfrwt beam="2">  1       -2 0.39455796E-01 0.51787498E+03</pdfrwt>
<totfact> 0.73339632E+01</totfact>
</mgrwt>
</event>
<event>
 4    1  0.2358610E-002  0.5544324E+03  0.7818608E-02  0.1000473E+00
          2   -1    0    0  502    0  0.00000000000E+00  0.00000000000E+00  0.66986512639E+03  0.66986512639E+03  0.00000000000E+00 0.  1.
         -2   -1    0    0    0  501 -0.00000000000E+00 -0.00000000000E+00 -0.46152345614E+03  0.46152345614E+03  0.00000000000E+00 0. -1.
    9000005    1    1    2  502    0  0.24333437859E+03 -0.29695733218E+03  0.14689178934E+03  0.57356122142E+03  0.40000000000E+03 0.  1.
   -9000005    1    1    2    0  501 -0.24333437859E+03  0.29695733218E+03  0.61449880913E+02  0.55782736111E+03  0.40000000000E+03 0. -1.
<mgrwt>
<rscale>  2 0.55443239E+03</rscale>
<asrwt>0</asrwt>
<pdfrwt beam="1">  1        2 0.10305617E+00 0.55443239E+03</pdfrwt>
<pdfrwt beam="2">  1       -2 0.71003609E-01 0.55443239E+03</pdfrwt>
<totfact> 0.80150702E+01</totfact>
</mgrwt>
</event>
<event>
 4    1  0.2358610E-002  0.4779645E+03  0.7818608E-02  0.1019696E+00
         -1   -1    0    0    0  501 -0.00000000000E+00  0.00000000000E+00  0.34634248795E+03  0.34634248795E+03  0.00000000000E+00 0.  1.
          1   -1    0    0  502    0  0.00000000000E+00 -0.00000000000E+00 -0.67319531919E+03  0.67319531919E+03  0.00000000000E+00 0. -1.
    9000005    1    1    2  502    0  0.69340022547E+02  0.25227375971E+03 -0.23584971796E+03  0.53298703364E+03  0.40000000000E+03 0. -1.
   -9000005    1    1    2    0  501 -0.69340022547E+02 -0.25227375971E+03 -0.91003113280E+02  0.48655077350E+03  0.40000000000E+03 0.  1.
<mgrwt>
<rscale>  2 0.47796453E+03</rscale>
<asrwt>0</asrwt>
<pdfrwt beam="1">  1        1 0.10356851E+00 0.47796453E+03</pdfrwt>
<pdfrwt beam="2">  1       -1 0.53283460E-01 0.47796453E+03</pdfrwt>
<totfact> 0.10703745E+02</totfact>
</mgrwt>
</event>
<event>
 4    1  0.2358610E-002  0.4316190E+03  0.7818608E-02  0.1033350E+00
          1   -1    0    0  502    0  0.00000000000E+00  0.00000000000E+00  0.11571716779E+03  0.11571716779E+03  0.00000000000E+00 0.  1.
         -1   -1    0    0    0  501 -0.00000000000E+00 -0.00000000000E+00 -0.18792620275E+04  0.18792620275E+04  0.00000000000E+00 0. -1.
    9000005    1    1    2  502    0  0.14055020738E+03 -0.80874199524E+02 -0.12594050107E+04  0.13313136287E+04  0.40000000000E+03 0. -1.
   -9000005    1    1    2    0  501 -0.14055020738E+03  0.80874199524E+02 -0.50413984902E+03  0.66366556662E+03  0.40000000000E+03 0.  1.
<mgrwt>
<rscale>  2 0.43161904E+03</rscale>
<asrwt>0</asrwt>
<pdfrwt beam="1">  1        1 0.17802641E-01 0.43161904E+03</pdfrwt>
<pdfrwt beam="2">  1       -1 0.28911724E+00 0.43161904E+03</pdfrwt>
<totfact> 0.12967018E+01</totfact>
</mgrwt>
</event>
<event>
 4    1  0.2358610E-002  0.4551277E+03  0.7818608E-02  0.1026204E+00
         -1   -1    0    0    0  501 -0.00000000000E+00  0.00000000000E+00  0.13316507980E+03  0.13316507980E+03  0.00000000000E+00 0.  1.
          1   -1    0    0  502    0  0.00000000000E+00 -0.00000000000E+00 -0.16809866533E+04  0.16809866533E+04  0.00000000000E+00 0. -1.
    9000005    1    1    2  502    0 -0.63515122192E+02 -0.20762234606E+03 -0.10217227111E+04  0.11185072676E+04  0.40000000000E+03 0. -1.
   -9000005    1    1    2    0  501  0.63515122192E+02  0.20762234606E+03 -0.52609886238E+03  0.69564446547E+03  0.40000000000E+03 0.  1.
<mgrwt>
<rscale>  2 0.45512768E+03</rscale>
<asrwt>0</asrwt>
<pdfrwt beam="1">  1        1 0.25861334E+00 0.45512768E+03</pdfrwt>
<pdfrwt beam="2">  1       -1 0.20486935E-01 0.45512768E+03</pdfrwt>
<totfact> 0.10242466E+02</totfact>
</mgrwt>
</event>
<event>
 4    1  0.2358610E-002  0.7887324E+03  0.7818608E-02  0.9576471E-01
         -2   -1    0    0    0  501 -0.00000000000E+00  0.00000000000E+00  0.11529847947E+04  0.11529847947E+04  0.00000000000E+00 0.  1.
          2   -1    0    0  502    0  0.00000000000E+00 -0.00000000000E+00 -0.56926648957E+03  0.56926648957E+03  0.00000000000E+00 0. -1.
    9000005    1    1    2  502    0  0.59530803635E+03 -0.32818760778E+03  0.95129154386E+02  0.79444843763E+03  0.40000000000E+03 0. -1.
   -9000005    1    1    2    0  501 -0.59530803635E+03  0.32818760778E+03  0.48858915077E+03  0.92780284667E+03  0.40000000000E+03 0.  1.
<mgrwt>
<rscale>  2 0.78873238E+03</rscale>
<asrwt>0</asrwt>
<pdfrwt beam="1">  1        2 0.87579460E-01 0.78873238E+03</pdfrwt>
<pdfrwt beam="2">  1       -2 0.17738228E+00 0.78873238E+03</pdfrwt>
<totfact> 0.10117572E+01</totfact>
</mgrwt>
</event>
<event>
 4    1  0.2358610E-002  0.4156052E+03  0.7818608E-02  0.1038506E+00
         -1   -1    0    0    0  501 -0.00000000000E+00  0.00000000000E+00  0.34678410730E+03  0.34678410730E+03  0.00000000000E+00 0.  1.
          1   -1    0    0  502    0  0.00000000000E+00 -0.00000000000E+00 -0.62435264493E+03  0.62435264493E+03  0.00000000000E+00 0. -1.
    9000005    1    1    2  502    0 -0.73952280184E+02  0.85198452541E+02  0.79580553582E+02  0.42315574032E+03  0.40000000000E+03 0.  1.
   -9000005    1    1    2    0  501  0.73952280184E+02 -0.85198452541E+02 -0.35714909121E+03  0.54798101191E+03  0.40000000000E+03 0. -1.
<mgrwt>
<rscale>  2 0.41560524E+03</rscale>
<asrwt>0</asrwt>
<pdfrwt beam="1">  1        1 0.96054251E-01 0.41560524E+03</pdfrwt>
<pdfrwt beam="2">  1       -1 0.53351402E-01 0.41560524E+03</pdfrwt>
<totfact> 0.11995541E+02</totfact>
</mgrwt>
</event>
<event>
 4    1  0.2358610E-002  0.5861359E+03  0.7818608E-02  0.9934595E-01
         -1   -1    0    0    0  501 -0.00000000000E+00  0.00000000000E+00  0.64711020138E+03  0.64711020138E+03  0.00000000000E+00 0. -1.
          1   -1    0    0  502    0  0.00000000000E+00 -0.00000000000E+00 -0.77792932720E+03  0.77792932720E+03  0.00000000000E+00 0.  1.
    9000005    1    1    2  502    0  0.42706711718E+03 -0.34189973721E+02 -0.46691832542E+03  0.74937840875E+03  0.40000000000E+03 0.  1.
   -9000005    1    1    2    0  501 -0.42706711718E+03  0.34189973721E+02  0.33609919960E+03  0.67566111983E+03  0.40000000000E+03 0. -1.
<mgrwt>
<rscale>  2 0.58613589E+03</rscale>
<asrwt>0</asrwt>
<pdfrwt beam="1">  1        1 0.11968143E+00 0.58613589E+03</pdfrwt>
<pdfrwt beam="2">  1       -1 0.99555416E-01 0.58613589E+03</pdfrwt>
<totfact> 0.23335813E+01</totfact>
</mgrwt>
</event>
<event>
 4    1  0.2358610E-002  0.6716399E+03  0.7818608E-02  0.9767000E-01
         -1   -1    0    0    0  501 -0.00000000000E+00  0.00000000000E+00  0.87339180437E+03  0.87339180437E+03  0.00000000000E+00 0. -1.
          1   -1    0    0  502    0  0.00000000000E+00 -0.00000000000E+00 -0.12775481418E+04  0.12775481418E+04  0.00000000000E+00 0.  1.
    9000005    1    1    2  502    0  0.38682962191E+03  0.37611568829E+03  0.62799792399E+03  0.91950071229E+03  0.40000000000E+03 0. -1.
   -9000005    1    1    2    0  501 -0.38682962191E+03 -0.37611568829E+03 -0.10321542614E+04  0.12314392339E+04  0.40000000000E+03 0.  1.
<mgrwt>
<rscale>  2 0.67163991E+03</rscale>
<asrwt>0</asrwt>
<pdfrwt beam="1">  1        1 0.19654587E+00 0.67163991E+03</pdfrwt>
<pdfrwt beam="2">  1       -1 0.13436797E+00 0.67163991E+03</pdfrwt>
<totfact> 0.46125503E+00</totfact>
</mgrwt>
</event>
<event>
 4    1  0.2358610E-002  0.4111448E+03  0.7818608E-02  0.1039988E+00
          2   -1    0    0  502    0  0.00000000000E+00  0.00000000000E+00  0.13204006404E+04  0.13204006404E+04  0.00000000000E+00 0. -1.
         -2   -1    0    0    0  501 -0.00000000000E+00 -0.00000000000E+00 -0.20671799475E+03  0.20671799475E+03  0.00000000000E+00 0.  1.
    9000005    1    1    2  502    0  0.90921552471E+02  0.27808859265E+02  0.85722433851E+02  0.41998618670E+03  0.40000000000E+03 0.  1.
   -9000005    1    1    2    0  501 -0.90921552471E+02 -0.27808859265E+02  0.10279602118E+04  0.11071324484E+04  0.40000000000E+03 0. -1.
<mgrwt>
<rscale>  2 0.41114482E+03</rscale>
<asrwt>0</asrwt>
<pdfrwt beam="1">  1        2 0.20313855E+00 0.41114482E+03</pdfrwt>
<pdfrwt beam="2">  1       -2 0.31802769E-01 0.41114482E+03</pdfrwt>
<totfact> 0.15506289E+02</totfact>
</mgrwt>
</event>
<event>
 4    1  0.2358610E-002  0.8398447E+03  0.7818608E-02  0.9504069E-01
         -2   -1    0    0    0  501 -0.00000000000E+00  0.00000000000E+00  0.61664203730E+03  0.61664203730E+03  0.00000000000E+00 0.  1.
          2   -1    0    0  502    0  0.00000000000E+00 -0.00000000000E+00 -0.11826342641E+04  0.11826342641E+04  0.00000000000E+00 0. -1.
    9000005    1    1    2  502    0  0.56256950702E+03  0.47838751574E+03 -0.44593821595E+03  0.95089429375E+03  0.40000000000E+03 0. -1.
   -9000005    1    1    2    0  501 -0.56256950702E+03 -0.47838751574E+03 -0.12005401090E+03  0.84838200769E+03  0.40000000000E+03 0.  1.
<mgrwt>
<rscale>  2 0.83984467E+03</rscale>
<asrwt>0</asrwt>
<pdfrwt beam="1">  1        2 0.18194373E+00 0.83984467E+03</pdfrwt>
<pdfrwt beam="2">  1       -2 0.94868005E-01 0.83984467E+03</pdfrwt>
<totfact> 0.18308167E+01</totfact>
</mgrwt>
</event>
<event>
 4    1  0.2358610E-002  0.4824332E+03  0.7818608E-02  0.1018469E+00
         -1   -1    0    0    0  501 -0.00000000000E+00  0.00000000000E+00  0.82356083783E+03  0.82356083783E+03  0.00000000000E+00 0.  1.
          1   -1    0    0  502    0  0.00000000000E+00 -0.00000000000E+00 -0.31519545036E+03  0.31519545036E+03  0.00000000000E+00 0. -1.
    9000005    1    1    2  502    0  0.64625638933E+02  0.26184978995E+03  0.43727119042E+03  0.65111280104E+03  0.40000000000E+03 0. -1.
   -9000005    1    1    2    0  501 -0.64625638933E+02 -0.26184978995E+03  0.71094197039E+02  0.48764348715E+03  0.40000000000E+03 0.  1.
<mgrwt>
<rscale>  2 0.48243319E+03</rscale>
<asrwt>0</asrwt>
<pdfrwt beam="1">  1        1 0.48491608E-01 0.48243319E+03</pdfrwt>
<pdfrwt beam="2">  1       -1 0.12670167E+00 0.48243319E+03</pdfrwt>
<totfact> 0.46614761E+01</totfact>
</mgrwt>
</event>
<event>
 4    1  0.2358610E-002  0.4681840E+03  0.7818608E-02  0.1022434E+00
         -2   -1    0    0    0  501 -0.00000000000E+00  0.00000000000E+00  0.18113431171E+03  0.18113431171E+03  0.00000000000E+00 0.  1.
          2   -1    0    0  502    0  0.00000000000E+00 -0.00000000000E+00 -0.12104110123E+04  0.12104110123E+04  0.00000000000E+00 0. -1.
    9000005    1    1    2  502    0 -0.30936155891E+02 -0.24132793657E+03 -0.50405299892E+03  0.68794305319E+03  0.40000000000E+03 0. -1.
   -9000005    1    1    2    0  501  0.30936155891E+02  0.24132793657E+03 -0.52522370169E+03  0.70360227084E+03  0.40000000000E+03 0. -1.
<mgrwt>
<rscale>  2 0.46818396E+03</rscale>
<asrwt>0</asrwt>
<pdfrwt beam="1">  1        2 0.18621708E+00 0.46818396E+03</pdfrwt>
<pdfrwt beam="2">  1       -2 0.27866816E-01 0.46818396E+03</pdfrwt>
<totfact> 0.22688376E+02</totfact>
</mgrwt>
</event>
<event>
 4    1  0.2358610E-002  0.4765510E+03  0.7818608E-02  0.1020087E+00
         -2   -1    0    0    0  501 -0.00000000000E+00  0.00000000000E+00  0.39524630109E+03  0.39524630109E+03  0.00000000000E+00 0. -1.
          2   -1    0    0  502    0  0.00000000000E+00 -0.00000000000E+00 -0.11021133260E+04  0.11021133260E+04  0.00000000000E+00 0.  1.
    9000005    1    1    2  502    0  0.25362598813E+03  0.52675776505E+02 -0.87140717377E+03  0.99320256835E+03  0.40000000000E+03 0.  1.
   -9000005    1    1    2    0  501 -0.25362598813E+03 -0.52675776505E+02  0.16454014886E+03  0.50415705874E+03  0.40000000000E+03 0. -1.
<mgrwt>
<rscale>  2 0.47655102E+03</rscale>
<asrwt>0</asrwt>
<pdfrwt beam="1">  1        2 0.16955589E+00 0.47655102E+03</pdfrwt>
<pdfrwt beam="2">  1       -2 0.60807125E-01 0.47655102E+03</pdfrwt>
<totfact> 0.57277411E+01</totfact>
</mgrwt>
</event>
<event>
 4    1  0.2358610E-002  0.4735237E+03  0.7818608E-02  0.1020930E+00
         -2   -1    0    0    0  501 -0.00000000000E+00  0.00000000000E+00  0.11659458788E+03  0.11659458788E+03  0.00000000000E+00 0. -1.
          2   -1    0    0  502    0  0.00000000000E+00 -0.00000000000E+00 -0.21553002972E+04  0.21553002972E+04  0.00000000000E+00 0.  1.
    9000005    1    1    2  502    0  0.71999439605E+02  0.24298299821E+03 -0.64651254715E+03  0.80137577349E+03  0.40000000000E+03 0.  1.
   -9000005    1    1    2    0  501 -0.71999439605E+02 -0.24298299821E+03 -0.13921931622E+04  0.14705191116E+04  0.40000000000E+03 0. -1.
<mgrwt>
<rscale>  2 0.47352366E+03</rscale>
<asrwt>0</asrwt>
<pdfrwt beam="1">  1        2 0.33158465E+00 0.47352366E+03</pdfrwt>
<pdfrwt beam="2">  1       -2 0.17937629E-01 0.47352366E+03</pdfrwt>
<totfact> 0.15027017E+02</totfact>
</mgrwt>
</event>
<event>
 4    1  0.2358610E-002  0.5113463E+03  0.7818608E-02  0.1010859E+00
         -2   -1    0    0    0  501 -0.00000000000E+00  0.00000000000E+00  0.90354761540E+02  0.90354761540E+02  0.00000000000E+00 0.  1.
          2   -1    0    0  502    0  0.00000000000E+00 -0.00000000000E+00 -0.29884213331E+04  0.29884213331E+04  0.00000000000E+00 0. -1.
    9000005    1    1    2  502    0  0.19063066968E+03 -0.25521563719E+03 -0.11752181394E+04  0.12816445485E+04  0.40000000000E+03 0.  1.
   -9000005    1    1    2    0  501 -0.19063066968E+03  0.25521563719E+03 -0.17228484322E+04  0.17971315461E+04  0.40000000000E+03 0. -1.
<mgrwt>
<rscale>  2 0.51134633E+03</rscale>
<asrwt>0</asrwt>
<pdfrwt beam="1">  1        2 0.45975713E+00 0.51134633E+03</pdfrwt>
<pdfrwt beam="2">  1       -2 0.13900732E-01 0.51134633E+03</pdfrwt>
<totfact> 0.77336211E+01</totfact>
</mgrwt>
</event>
<event>
 4    1  0.2358610E-002  0.4404059E+03  0.7818608E-02  0.1030622E+00
         -1   -1    0    0    0  501 -0.00000000000E+00  0.00000000000E+00  0.82282534231E+03  0.82282534231E+03  0.00000000000E+00 0. -1.
          1   -1    0    0  502    0  0.00000000000E+00 -0.00000000000E+00 -0.23613690474E+03  0.23613690474E+03  0.00000000000E+00 0.  1.
    9000005    1    1    2  502    0  0.18241156211E+03 -0.26142188510E+02  0.31555948685E+03  0.54178887194E+03  0.40000000000E+03 0. -1.
   -9000005    1    1    2    0  501 -0.18241156211E+03  0.26142188510E+02  0.27112895071E+03  0.51717337511E+03  0.40000000000E+03 0. -1.
<mgrwt>
<rscale>  2 0.44040594E+03</rscale>
<asrwt>0</asrwt>
<pdfrwt beam="1">  1        1 0.36328755E-01 0.44040594E+03</pdfrwt>
<pdfrwt beam="2">  1       -1 0.12658851E+00 0.44040594E+03</pdfrwt>
<totfact> 0.67962054E+01</totfact>
</mgrwt>
</event>
<event>
 4    1  0.2358610E-002  0.4041236E+03  0.7818608E-02  0.1042361E+00
          1   -1    0    0  502    0  0.00000000000E+00  0.00000000000E+00  0.14782337288E+04  0.14782337288E+04  0.00000000000E+00 0.  1.
         -1   -1    0    0    0  501 -0.00000000000E+00 -0.00000000000E+00 -0.11522911542E+03  0.11522911542E+03  0.00000000000E+00 0. -1.
    9000005    1    1    2  502    0 -0.49643667058E+02 -0.29177906381E+02  0.51976164871E+03  0.65838287901E+03  0.40000000000E+03 0. -1.
   -9000005    1    1    2    0  501  0.49643667058E+02  0.29177906381E+02  0.84324296471E+03  0.93507996526E+03  0.40000000000E+03 0. -1.
<mgrwt>
<rscale>  2 0.40412355E+03</rscale>
<asrwt>0</asrwt>
<pdfrwt beam="1">  1        1 0.22742056E+00 0.40412355E+03</pdfrwt>
<pdfrwt beam="2">  1       -1 0.17727557E-01 0.40412355E+03</pdfrwt>
<totfact> 0.17881421E+02</totfact>
</mgrwt>
</event>
<event>
 4    1  0.2358610E-002  0.4492808E+03  0.7818608E-02  0.1027937E+00
         -1   -1    0    0    0  501 -0.00000000000E+00  0.00000000000E+00  0.18848530717E+03  0.18848530717E+03  0.00000000000E+00 0. -1.
          1   -1    0    0  502    0  0.00000000000E+00 -0.00000000000E+00 -0.19033565267E+04  0.19033565267E+04  0.00000000000E+00 0.  1.
    9000005    1    1    2  502    0 -0.56266317258E+02 -0.19669092149E+03 -0.16574225453E+03  0.47887755428E+03  0.40000000000E+03 0. -1.
   -9000005    1    1    2    0  501  0.56266317258E+02  0.19669092149E+03 -0.15491289650E+04  0.16129642796E+04  0.40000000000E+03 0.  1.
<mgrwt>
<rscale>  2 0.44928078E+03</rscale>
<asrwt>0</asrwt>
<pdfrwt beam="1">  1        1 0.29282409E+00 0.44928078E+03</pdfrwt>
<pdfrwt beam="2">  1       -1 0.28997738E-01 0.44928078E+03</pdfrwt>
<totfact> 0.40704092E+01</totfact>
</mgrwt>
</event>
<event>
 4    1  0.2358610E-002  0.4127814E+03  0.7818608E-02  0.1039442E+00
          2   -1    0    0  502    0  0.00000000000E+00  0.00000000000E+00  0.19799698655E+04  0.19799698655E+04  0.00000000000E+00 0. -1.
         -2   -1    0    0    0  501 -0.00000000000E+00 -0.00000000000E+00 -0.15772827240E+03  0.15772827240E+03  0.00000000000E+00 0.  1.
    9000005    1    1    2  502    0 -0.76833738790E+02  0.66970843453E+02  0.16316255400E+04  0.16830301305E+04  0.40000000000E+03 0. -1.
   -9000005    1    1    2    0  501  0.76833738790E+02 -0.66970843453E+02  0.19061605312E+03  0.45466800745E+03  0.40000000000E+03 0.  1.
<mgrwt>
<rscale>  2 0.41278144E+03</rscale>
<asrwt>0</asrwt>
<pdfrwt beam="1">  1        2 0.30461073E+00 0.41278144E+03</pdfrwt>
<pdfrwt beam="2">  1       -2 0.24265889E-01 0.41278144E+03</pdfrwt>
<totfact> 0.11138379E+02</totfact>
</mgrwt>
</event>
<event>
 4    1  0.2358610E-002  0.6758533E+03  0.7818608E-02  0.9759441E-01
          2   -1    0    0  502    0  0.00000000000E+00  0.00000000000E+00  0.41183349322E+03  0.41183349322E+03  0.00000000000E+00 0. -1.
         -2   -1    0    0    0  501 -0.00000000000E+00 -0.00000000000E+00 -0.11107122509E+04  0.11107122509E+04  0.00000000000E+00 0.  1.
    9000005    1    1    2  502    0 -0.13358165867E+03  0.52814163897E+03 -0.32072356263E+03  0.74809174168E+03  0.40000000000E+03 0. -1.
   -9000005    1    1    2    0  501  0.13358165867E+03 -0.52814163897E+03 -0.37815519506E+03  0.77445400245E+03  0.40000000000E+03 0.  1.
<mgrwt>
<rscale>  2 0.67585328E+03</rscale>
<asrwt>0</asrwt>
<pdfrwt beam="1">  1        2 0.63358998E-01 0.67585328E+03</pdfrwt>
<pdfrwt beam="2">  1       -2 0.17087881E+00 0.67585328E+03</pdfrwt>
<totfact> 0.16518401E+01</totfact>
</mgrwt>
</event>
<event>
 4    1  0.2358610E-002  0.4729940E+03  0.7818608E-02  0.1021079E+00
          2   -1    0    0  502    0  0.00000000000E+00  0.00000000000E+00  0.28027457075E+04  0.28027457075E+04  0.00000000000E+00 0.  1.
         -2   -1    0    0    0  501 -0.00000000000E+00 -0.00000000000E+00 -0.24820916656E+03  0.24820916656E+03  0.00000000000E+00 0. -1.
    9000005    1    1    2  502    0  0.52083734918E+01  0.25238110317E+03  0.25337326691E+04  0.25775035571E+04  0.40000000000E+03 0.  1.
   -9000005    1    1    2    0  501 -0.52083734918E+01 -0.25238110317E+03  0.20803871778E+02  0.47345131690E+03  0.40000000000E+03 0. -1.
<mgrwt>
<rscale>  2 0.47299403E+03</rscale>
<asrwt>0</asrwt>
<pdfrwt beam="1">  1        2 0.43119162E+00 0.47299403E+03</pdfrwt>
<pdfrwt beam="2">  1       -2 0.38186028E-01 0.47299403E+03</pdfrwt>
<totfact> 0.16673791E+01</totfact>
</mgrwt>
</event>
<event>
 4    1  0.2358610E-002  0.4208084E+03  0.7818608E-02  0.1036804E+00
          1   -1    0    0  502    0  0.00000000000E+00  0.00000000000E+00  0.99698006698E+03  0.99698006698E+03  0.00000000000E+00 0. -1.
         -1   -1    0    0    0  501 -0.00000000000E+00 -0.00000000000E+00 -0.20734804231E+03  0.20734804231E+03  0.00000000000E+00 0.  1.
    9000005    1    1    2  502    0 -0.11804767751E+03 -0.56075691308E+02  0.62283777974E+03  0.75166923390E+03  0.40000000000E+03 0. -1.
   -9000005    1    1    2    0  501  0.11804767751E+03  0.56075691308E+02  0.16679424492E+03  0.45265887538E+03  0.40000000000E+03 0.  1.
<mgrwt>
<rscale>  2 0.42080843E+03</rscale>
<asrwt>0</asrwt>
<pdfrwt beam="1">  1        1 0.15338155E+00 0.42080843E+03</pdfrwt>
<pdfrwt beam="2">  1       -1 0.31899699E-01 0.42080843E+03</pdfrwt>
<totfact> 0.14600463E+02</totfact>
</mgrwt>
</event>
<event>
 4    1  0.2358610E-002  0.4089364E+03  0.7818608E-02  0.1040729E+00
         -1   -1    0    0    0  501 -0.00000000000E+00  0.00000000000E+00  0.46383711190E+03  0.46383711190E+03  0.00000000000E+00 0. -1.
          1   -1    0    0  502    0  0.00000000000E+00 -0.00000000000E+00 -0.36055072454E+03  0.36055072454E+03  0.00000000000E+00 0.  1.
    9000005    1    1    2  502    0 -0.64725868233E+02  0.55132160361E+02  0.54460683664E+02  0.41254691756E+03  0.40000000000E+03 0. -1.
   -9000005    1    1    2    0  501  0.64725868233E+02 -0.55132160361E+02  0.48825703697E+02  0.41184091888E+03  0.40000000000E+03 0. -1.
<mgrwt>
<rscale>  2 0.40893642E+03</rscale>
<asrwt>0</asrwt>
<pdfrwt beam="1">  1        1 0.55469342E-01 0.40893642E+03</pdfrwt>
<pdfrwt beam="2">  1       -1 0.71359556E-01 0.40893642E+03</pdfrwt>
<totfact> 0.14206670E+02</totfact>
</mgrwt>
</event>
<event>
 4    1  0.2358610E-002  0.6543516E+03  0.7818608E-02  0.9798648E-01
         -2   -1    0    0    0  501 -0.00000000000E+00  0.00000000000E+00  0.71689076786E+03  0.71689076786E+03  0.00000000000E+00 0.  1.
          2   -1    0    0  502    0  0.00000000000E+00 -0.00000000000E+00 -0.59734655976E+03  0.59734655976E+03  0.00000000000E+00 0. -1.
    9000005    1    1    2  502    0 -0.48857291355E+03 -0.17167560006E+03  0.67302012234E+02  0.65780359103E+03  0.40000000000E+03 0. -1.
   -9000005    1    1    2    0  501  0.48857291355E+03  0.17167560006E+03  0.52242195861E+02  0.65643373660E+03  0.40000000000E+03 0.  1.
<mgrwt>
<rscale>  2 0.65435159E+03</rscale>
<asrwt>0</asrwt>
<pdfrwt beam="1">  1        2 0.91899470E-01 0.65435159E+03</pdfrwt>
<pdfrwt beam="2">  1       -2 0.11029089E+00 0.65435159E+03</pdfrwt>
<totfact> 0.33232949E+01</totfact>
</mgrwt>
</event>
<event>
 4    1  0.2358610E-002  0.4507032E+03  0.7818608E-02  0.1027513E+00
          1   -1    0    0  502    0  0.00000000000E+00  0.00000000000E+00  0.55517088108E+03  0.55517088108E+03  0.00000000000E+00 0. -1.
         -1   -1    0    0    0  501 -0.00000000000E+00 -0.00000000000E+00 -0.37563218430E+03  0.37563218430E+03  0.00000000000E+00 0.  1.
    9000005    1    1    2  502    0  0.59366873886E+02 -0.19902007929E+03  0.16470638569E+03  0.47985582331E+03  0.40000000000E+03 0. -1.
   -9000005    1    1    2    0  501 -0.59366873886E+02  0.19902007929E+03  0.14832311084E+02  0.45094724207E+03  0.40000000000E+03 0.  1.
<mgrwt>
<rscale>  2 0.45070325E+03</rscale>
<asrwt>0</asrwt>
<pdfrwt beam="1">  1        1 0.85410905E-01 0.45070325E+03</pdfrwt>
<pdfrwt beam="2">  1       -1 0.57789567E-01 0.45070325E+03</pdfrwt>
<totfact> 0.12097875E+02</totfact>
</mgrwt>
</event>
<event>
 4    1  0.2358610E-002  0.4328021E+03  0.7818608E-02  0.1032978E+00
          1   -1    0    0  502    0  0.00000000000E+00  0.00000000000E+00  0.18932068507E+04  0.18932068507E+04  0.00000000000E+00 0. -1.
         -1   -1    0    0    0  501 -0.00000000000E+00 -0.00000000000E+00 -0.14253324646E+03  0.14253324646E+03  0.00000000000E+00 0.  1.
    9000005    1    1    2  502    0  0.12766328917E+03  0.10497488970E+03  0.31243327799E+03  0.53379040462E+03  0.40000000000E+03 0.  1.
   -9000005    1    1    2    0  501 -0.12766328917E+03 -0.10497488970E+03  0.14382403263E+04  0.15019496926E+04  0.40000000000E+03 0. -1.
<mgrwt>
<rscale>  2 0.43280208E+03</rscale>
<asrwt>0</asrwt>
<pdfrwt beam="1">  1        1 0.29126257E+00 0.43280208E+03</pdfrwt>
<pdfrwt beam="2">  1       -1 0.21928193E-01 0.43280208E+03</pdfrwt>
<totfact> 0.66502486E+01</totfact>
</mgrwt>
</event>
<event>
 4    1  0.2358610E-002  0.4137192E+03  0.7818608E-02  0.1039130E+00
         -2   -1    0    0    0  501 -0.00000000000E+00  0.00000000000E+00  0.11214880850E+03  0.11214880850E+03  0.00000000000E+00 0.  1.
          2   -1    0    0  502    0  0.00000000000E+00 -0.00000000000E+00 -0.15377705577E+04  0.15377705577E+04  0.00000000000E+00 0. -1.
    9000005    1    1    2  502    0  0.10253978647E+03 -0.25478927747E+02 -0.64130905679E+03  0.76317815082E+03  0.40000000000E+03 0. -1.
   -9000005    1    1    2    0  501 -0.10253978647E+03  0.25478927747E+02 -0.78431269242E+03  0.88674121539E+03  0.40000000000E+03 0. -1.
<mgrwt>
<rscale>  2 0.41371921E+03</rscale>
<asrwt>0</asrwt>
<pdfrwt beam="1">  1        2 0.23658007E+00 0.41371921E+03</pdfrwt>
<pdfrwt beam="2">  1       -2 0.17253664E-01 0.41371921E+03</pdfrwt>
<totfact> 0.34764379E+02</totfact>
</mgrwt>
</event>
<event>
 4    1  0.2358610E-002  0.4294902E+03  0.7818608E-02  0.1034021E+00
         -2   -1    0    0    0  501 -0.00000000000E+00  0.00000000000E+00  0.13916140452E+03  0.13916140452E+03  0.00000000000E+00 0.  1.
          2   -1    0    0  502    0  0.00000000000E+00 -0.00000000000E+00 -0.24813022987E+04  0.24813022987E+04  0.00000000000E+00 0. -1.
    9000005    1    1    2  502    0  0.50071321285E+02  0.14817105307E+03 -0.20652928775E+04  0.21094777714E+04  0.40000000000E+03 0. -1.
   -9000005    1    1    2    0  501 -0.50071321285E+02 -0.14817105307E+03 -0.27684801670E+03  0.51098593183E+03  0.40000000000E+03 0.  1.
<mgrwt>
<rscale>  2 0.42949016E+03</rscale>
<asrwt>0</asrwt>
<pdfrwt beam="1">  1        2 0.38173877E+00 0.42949016E+03</pdfrwt>
<pdfrwt beam="2">  1       -2 0.21409450E-01 0.42949016E+03</pdfrwt>
<totfact> 0.73963069E+01</totfact>
</mgrwt>
</event>
<event>
 4    1  0.2358610E-002  0.5261345E+03  0.7818608E-02  0.1007174E+00
          2   -1    0    0  502    0  0.00000000000E+00  0.00000000000E+00  0.15082696637E+04  0.15082696637E+04  0.00000000000E+00 0. -1.
         -2   -1    0    0    0  501 -0.00000000000E+00 -0.00000000000E+00 -0.18354239195E+03  0.18354239195E+03  0.00000000000E+00 0.  1.
    9000005    1    1    2  502    0 -0.19298713003E+03 -0.28208772289E+03  0.66835900372E+03  0.85060053704E+03  0.40000000000E+03 0.  1.
   -9000005    1    1    2    0  501  0.19298713003E+03  0.28208772289E+03  0.65636826800E+03  0.84121151859E+03  0.40000000000E+03 0.  1.
<mgrwt>
<rscale>  2 0.52613450E+03</rscale>
<asrwt>0</asrwt>
<pdfrwt beam="1">  1        2 0.23204148E+00 0.52613450E+03</pdfrwt>
<pdfrwt beam="2">  1       -2 0.28237292E-01 0.52613450E+03</pdfrwt>
<totfact> 0.14964191E+02</totfact>
</mgrwt>
</event>
<event>
 4    1  0.2358610E-002  0.4000384E+03  0.7818608E-02  0.1043766E+00
         -2   -1    0    0    0  501 -0.00000000000E+00  0.00000000000E+00  0.22753778829E+04  0.22753778829E+04  0.00000000000E+00 0. -1.
          2   -1    0    0  502    0  0.00000000000E+00 -0.00000000000E+00 -0.70348785210E+02  0.70348785210E+02  0.00000000000E+00 0.  1.
    9000005    1    1    2  502    0 -0.36117300122E+01 -0.42048670718E+01  0.11209025323E+04  0.11901483993E+04  0.40000000000E+03 0. -1.
   -9000005    1    1    2    0  501  0.36117300122E+01  0.42048670718E+01  0.10841265654E+04  0.11555782688E+04  0.40000000000E+03 0.  1.
<mgrwt>
<rscale>  2 0.40003841E+03</rscale>
<asrwt>0</asrwt>
<pdfrwt beam="1">  1        2 0.10822892E-01 0.40003841E+03</pdfrwt>
<pdfrwt beam="2">  1       -2 0.35005808E+00 0.40003841E+03</pdfrwt>
<totfact> 0.10364321E+01</totfact>
</mgrwt>
</event>
<event>
 4    1  0.2358610E-002  0.4316721E+03  0.7818608E-02  0.1033333E+00
          1   -1    0    0  502    0  0.00000000000E+00  0.00000000000E+00  0.55572425814E+03  0.55572425814E+03  0.00000000000E+00 0. -1.
         -1   -1    0    0    0  501 -0.00000000000E+00 -0.00000000000E+00 -0.33693630578E+03  0.33693630578E+03  0.00000000000E+00 0.  1.
    9000005    1    1    2  502    0 -0.96019154711E+02  0.13084766394E+03  0.14038743414E+03  0.45392666907E+03  0.40000000000E+03 0. -1.
   -9000005    1    1    2    0  501  0.96019154711E+02 -0.13084766394E+03  0.78400518212E+02  0.43873389485E+03  0.40000000000E+03 0. -1.
<mgrwt>
<rscale>  2 0.43167209E+03</rscale>
<asrwt>0</asrwt>
<pdfrwt beam="1">  1        1 0.85496040E-01 0.43167209E+03</pdfrwt>
<pdfrwt beam="2">  1       -1 0.51836355E-01 0.43167209E+03</pdfrwt>
<totfact> 0.14898139E+02</totfact>
</mgrwt>
</event>
<event>
 4    1  0.2358610E-002  0.4279515E+03  0.7818608E-02  0.1034509E+00
         -2   -1    0    0    0  501 -0.00000000000E+00  0.00000000000E+00  0.17527090512E+03  0.17527090512E+03  0.00000000000E+00 0. -1.
          2   -1    0    0  502    0  0.00000000000E+00 -0.00000000000E+00 -0.11384748057E+04  0.11384748057E+04  0.00000000000E+00 0.  1.
    9000005    1    1    2  502    0  0.47233577390E+02  0.14460806639E+03 -0.29329192117E+03  0.51880888072E+03  0.40000000000E+03 0. -1.
   -9000005    1    1    2    0  501 -0.47233577390E+02 -0.14460806639E+03 -0.66991197943E+03  0.79493683012E+03  0.40000000000E+03 0.  1.
<mgrwt>
<rscale>  2 0.42795152E+03</rscale>
<asrwt>0</asrwt>
<pdfrwt beam="1">  1        2 0.17514997E+00 0.42795152E+03</pdfrwt>
<pdfrwt beam="2">  1       -2 0.26964754E-01 0.42795152E+03</pdfrwt>
<totfact> 0.26643367E+02</totfact>
</mgrwt>
</event>
<event>
 4    1  0.2358610E-002  0.4139195E+03  0.7818608E-02  0.1039064E+00
         -3   -1    0    0    0  501 -0.00000000000E+00  0.00000000000E+00  0.21124261675E+04  0.21124261675E+04  0.00000000000E+00 0. -1.
          3   -1    0    0  502    0  0.00000000000E+00 -0.00000000000E+00 -0.11469687201E+03  0.11469687201E+03  0.00000000000E+00 0.  1.
    9000005    1    1    2  502    0 -0.72373984994E+02  0.78047179116E+02  0.16014969052E+04  0.16541226355E+04  0.40000000000E+03 0. -1.
   -9000005    1    1    2    0  501  0.72373984994E+02 -0.78047179116E+02  0.39623239026E+03  0.57300040398E+03  0.40000000000E+03 0.  1.
<mgrwt>
<rscale>  2 0.41391950E+03</rscale>
<asrwt>0</asrwt>
<pdfrwt beam="1">  1        3 0.17645674E-01 0.41391950E+03</pdfrwt>
<pdfrwt beam="2">  1       -3 0.32498861E+00 0.41391950E+03</pdfrwt>
<totfact> 0.21933396E+00</totfact>
</mgrwt>
</event>
<event>
 4    1  0.2358610E-002  0.4570461E+03  0.7818608E-02  0.1025641E+00
          1   -1    0    0  502    0  0.00000000000E+00  0.00000000000E+00  0.18084006044E+04  0.18084006044E+04  0.00000000000E+00 0. -1.
         -1   -1    0    0    0  501 -0.00000000000E+00 -0.00000000000E+00 -0.11632433337E+03  0.11632433337E+03  0.00000000000E+00 0.  1.
    9000005    1    1    2  502    0  0.15549335399E+03 -0.15720355755E+03  0.92648202141E+03  0.10330828029E+04  0.40000000000E+03 0.  1.
   -9000005    1    1    2    0  501 -0.15549335399E+03  0.15720355755E+03  0.76559424964E+03  0.89164213490E+03  0.40000000000E+03 0.  1.
<mgrwt>
<rscale>  2 0.45704610E+03</rscale>
<asrwt>0</asrwt>
<pdfrwt beam="1">  1        1 0.27821546E+00 0.45704610E+03</pdfrwt>
<pdfrwt beam="2">  1       -1 0.17896053E-01 0.45704610E+03</pdfrwt>
<totfact> 0.10529622E+02</totfact>
</mgrwt>
</event>
<event>
 4    1  0.2358610E-002  0.5257299E+03  0.7818608E-02  0.1007273E+00
         -1   -1    0    0    0  501 -0.00000000000E+00  0.00000000000E+00  0.20439348801E+03  0.20439348801E+03  0.00000000000E+00 0. -1.
          1   -1    0    0  502    0  0.00000000000E+00 -0.00000000000E+00 -0.13523515440E+04  0.13523515440E+04  0.00000000000E+00 0.  1.
    9000005    1    1    2  502    0 -0.99461068188E+01 -0.34101762475E+03 -0.56737398576E+03  0.77350189732E+03  0.40000000000E+03 0. -1.
   -9000005    1    1    2    0  501  0.99461068188E+01  0.34101762475E+03 -0.58058407022E+03  0.78324313469E+03  0.40000000000E+03 0. -1.
<mgrwt>
<rscale>  2 0.52572992E+03</rscale>
<asrwt>0</asrwt>
<pdfrwt beam="1">  1        1 0.20805409E+00 0.52572992E+03</pdfrwt>
<pdfrwt beam="2">  1       -1 0.31445151E-01 0.52572992E+03</pdfrwt>
<totfact> 0.81784129E+01</totfact>
</mgrwt>
</event>
<event>
 4    1  0.2358610E-002  0.6249343E+03  0.7818608E-02  0.9854984E-01
         -2   -1    0    0    0  501 -0.00000000000E+00  0.00000000000E+00  0.21303936980E+03  0.21303936980E+03  0.00000000000E+00 0. -1.
          2   -1    0    0  502    0  0.00000000000E+00 -0.00000000000E+00 -0.18937855714E+04  0.18937855714E+04  0.00000000000E+00 0.  1.
    9000005    1    1    2  502    0  0.96620842370E+02 -0.47032679610E+03 -0.65195065481E+03  0.90309608493E+03  0.40000000000E+03 0.  1.
   -9000005    1    1    2    0  501 -0.96620842370E+02  0.47032679610E+03 -0.10287955468E+04  0.12037288563E+04  0.40000000000E+03 0. -1.
<mgrwt>
<rscale>  2 0.62493430E+03</rscale>
<asrwt>0</asrwt>
<pdfrwt beam="1">  1        2 0.29135163E+00 0.62493430E+03</pdfrwt>
<pdfrwt beam="2">  1       -2 0.32775287E-01 0.62493430E+03</pdfrwt>
<totfact> 0.69226067E+01</totfact>
</mgrwt>
</event>
<event>
 4    1  0.2358610E-002  0.4045293E+03  0.7818608E-02  0.1042223E+00
         -4   -1    0    0    0  501 -0.00000000000E+00  0.00000000000E+00  0.19910305674E+04  0.19910305674E+04  0.00000000000E+00 0.  1.
          4   -1    0    0  502    0  0.00000000000E+00 -0.00000000000E+00 -0.84851240017E+02  0.84851240017E+02  0.00000000000E+00 0. -1.
    9000005    1    1    2  502    0  0.55921765561E+02  0.22730682697E+02  0.11368870895E+04  0.12067129659E+04  0.40000000000E+03 0.  1.
   -9000005    1    1    2    0  501 -0.55921765561E+02 -0.22730682697E+02  0.76929223787E+03  0.86916884151E+03  0.40000000000E+03 0. -1.
<mgrwt>
<rscale>  2 0.40452927E+03</rscale>
<asrwt>0</asrwt>
<pdfrwt beam="1">  1        4 0.13054038E-01 0.40452927E+03</pdfrwt>
<pdfrwt beam="2">  1       -4 0.30631236E+00 0.40452927E+03</pdfrwt>
<totfact> 0.29111124E+00</totfact>
</mgrwt>
</event>
<event>
 4    1  0.2358610E-002  0.4135836E+03  0.7818608E-02  0.1039175E+00
          3   -1    0    0  502    0  0.00000000000E+00  0.00000000000E+00  0.95239244707E+03  0.95239244707E+03  0.00000000000E+00 0. -1.
         -3   -1    0    0    0  501 -0.00000000000E+00 -0.00000000000E+00 -0.18180675032E+03  0.18180675032E+03  0.00000000000E+00 0.  1.
    9000005    1    1    2  502    0  0.63033489633E+02  0.84131658403E+02  0.32283917529E+03  0.52466798060E+03  0.40000000000E+03 0. -1.
   -9000005    1    1    2    0  501 -0.63033489633E+02 -0.84131658403E+02  0.44774652146E+03  0.60953121679E+03  0.40000000000E+03 0.  1.
<mgrwt>
<rscale>  2 0.41358355E+03</rscale>
<asrwt>0</asrwt>
<pdfrwt beam="1">  1        3 0.14652191E+00 0.41358355E+03</pdfrwt>
<pdfrwt beam="2">  1       -3 0.27970270E-01 0.41358355E+03</pdfrwt>
<totfact> 0.11127924E+01</totfact>
</mgrwt>
</event>
<event>
 4    1  0.2358610E-002  0.4040107E+03  0.7818608E-02  0.1042400E+00
          3   -1    0    0  502    0  0.00000000000E+00  0.00000000000E+00  0.11423269726E+04  0.11423269726E+04  0.00000000000E+00 0.  1.
         -3   -1    0    0    0  501 -0.00000000000E+00 -0.00000000000E+00 -0.16342005469E+03  0.16342005469E+03  0.00000000000E+00 0. -1.
    9000005    1    1    2  502    0  0.40316188985E+02 -0.39990502699E+02  0.25803699309E+03  0.47938265008E+03  0.40000000000E+03 0. -1.
   -9000005    1    1    2    0  501 -0.40316188985E+02  0.39990502699E+02  0.72086992478E+03  0.82636437717E+03  0.40000000000E+03 0.  1.
<mgrwt>
<rscale>  2 0.40401069E+03</rscale>
<asrwt>0</asrwt>
<pdfrwt beam="1">  1        3 0.17574261E+00 0.40401069E+03</pdfrwt>
<pdfrwt beam="2">  1       -3 0.25141548E-01 0.40401069E+03</pdfrwt>
<totfact> 0.84326473E+00</totfact>
</mgrwt>
</event>
<event>
 4    1  0.2358610E-002  0.4257007E+03  0.7818608E-02  0.1035227E+00
         -2   -1    0    0    0  501 -0.00000000000E+00  0.00000000000E+00  0.32186717463E+03  0.32186717463E+03  0.00000000000E+00 0.  1.
          2   -1    0    0  502    0  0.00000000000E+00 -0.00000000000E+00 -0.56587588264E+03  0.56587588264E+03  0.00000000000E+00 0. -1.
    9000005    1    1    2  502    0 -0.14533504738E+03  0.99416806956E+01 -0.15347812910E+03  0.45252253991E+03  0.40000000000E+03 0.  1.
   -9000005    1    1    2    0  501  0.14533504738E+03 -0.99416806956E+01 -0.90530578924E+02  0.43522051736E+03  0.40000000000E+03 0.  1.
<mgrwt>
<rscale>  2 0.42570073E+03</rscale>
<asrwt>0</asrwt>
<pdfrwt beam="1">  1        2 0.87057827E-01 0.42570073E+03</pdfrwt>
<pdfrwt beam="2">  1       -2 0.49518027E-01 0.42570073E+03</pdfrwt>
<totfact> 0.21090787E+02</totfact>
</mgrwt>
</event>
<event>
 4    1  0.2358610E-002  0.4267459E+03  0.7818608E-02  0.1034893E+00
         -1   -1    0    0    0  501 -0.00000000000E+00  0.00000000000E+00  0.45185066029E+03  0.45185066029E+03  0.00000000000E+00 0.  1.
          1   -1    0    0  502    0  0.00000000000E+00 -0.00000000000E+00 -0.92247087295E+03  0.92247087295E+03  0.00000000000E+00 0. -1.
    9000005    1    1    2  502    0 -0.14800928682E+03  0.14329917070E+02 -0.75095125146E+03  0.86373599993E+03  0.40000000000E+03 0. -1.
   -9000005    1    1    2    0  501  0.14800928682E+03 -0.14329917070E+02  0.28033103880E+03  0.51058553331E+03  0.40000000000E+03 0.  1.
<mgrwt>
<rscale>  2 0.42674594E+03</rscale>
<asrwt>0</asrwt>
<pdfrwt beam="1">  1        1 0.14191860E+00 0.42674594E+03</pdfrwt>
<pdfrwt beam="2">  1       -1 0.69515486E-01 0.42674594E+03</pdfrwt>
<totfact> 0.39111074E+01</totfact>
</mgrwt>
</event>
<event>
 4    1  0.2358610E-002  0.4951257E+03  0.7818608E-02  0.1015059E+00
         -1   -1    0    0    0  501 -0.00000000000E+00  0.00000000000E+00  0.26339013482E+04  0.26339013482E+04  0.00000000000E+00 0.  1.
          1   -1    0    0  502    0  0.00000000000E+00 -0.00000000000E+00 -0.10530141450E+03  0.10530141450E+03  0.00000000000E+00 0. -1.
    9000005    1    1    2  502    0  0.27181508218E+03 -0.10614134017E+03  0.17309948210E+04  0.18004145337E+04  0.40000000000E+03 0. -1.
   -9000005    1    1    2    0  501 -0.27181508218E+03  0.10614134017E+03  0.79760511266E+03  0.93878822891E+03  0.40000000000E+03 0. -1.
<mgrwt>
<rscale>  2 0.49512566E+03</rscale>
<asrwt>0</asrwt>
<pdfrwt beam="1">  1        1 0.16200220E-01 0.49512566E+03</pdfrwt>
<pdfrwt beam="2">  1       -1 0.40521554E+00 0.49512566E+03</pdfrwt>
<totfact> 0.25522031E+00</totfact>
</mgrwt>
</event>
<event>
 4    1  0.2358610E-002  0.4172564E+03  0.7818608E-02  0.1037963E+00
          2   -1    0    0  502    0  0.00000000000E+00  0.00000000000E+00  0.66588300140E+03  0.66588300140E+03  0.00000000000E+00 0.  1.
         -2   -1    0    0    0  501 -0.00000000000E+00 -0.00000000000E+00 -0.33904904397E+03  0.33904904397E+03  0.00000000000E+00 0. -1.
    9000005    1    1    2  502    0  0.11786003667E+03 -0.14557424646E+02  0.40378177297E+03  0.58063984279E+03  0.40000000000E+03 0.  1.
   -9000005    1    1    2    0  501 -0.11786003667E+03  0.14557424646E+02 -0.76947815537E+02  0.42429220258E+03  0.40000000000E+03 0. -1.
<mgrwt>
<rscale>  2 0.41725640E+03</rscale>
<asrwt>0</asrwt>
<pdfrwt beam="1">  1        2 0.10244354E+00 0.41725640E+03</pdfrwt>
<pdfrwt beam="2">  1       -2 0.52161391E-01 0.41725640E+03</pdfrwt>
<totfact> 0.15643110E+02</totfact>
</mgrwt>
</event>
<event>
 4    1  0.2358610E-002  0.5277552E+03  0.7818608E-02  0.1006778E+00
         -1   -1    0    0    0  501 -0.00000000000E+00  0.00000000000E+00  0.57546170508E+03  0.57546170508E+03  0.00000000000E+00 0.  1.
          1   -1    0    0  502    0  0.00000000000E+00 -0.00000000000E+00 -0.55745130289E+03  0.55745130289E+03  0.00000000000E+00 0. -1.
    9000005    1    1    2  502    0  0.25508329404E+03 -0.23120994553E+03  0.21461900426E+03  0.56972523448E+03  0.40000000000E+03 0.  1.
   -9000005    1    1    2    0  501 -0.25508329404E+03  0.23120994553E+03 -0.19660860207E+03  0.56318777350E+03  0.40000000000E+03 0. -1.
<mgrwt>
<rscale>  2 0.52775518E+03</rscale>
<asrwt>0</asrwt>
<pdfrwt beam="1">  1        1 0.85761739E-01 0.52775518E+03</pdfrwt>
<pdfrwt beam="2">  1       -1 0.88532570E-01 0.52775518E+03</pdfrwt>
<totfact> 0.49827296E+01</totfact>
</mgrwt>
</event>
<event>
 4    1  0.2358610E-002  0.4559033E+03  0.7818608E-02  0.1025976E+00
          2   -1    0    0  502    0  0.00000000000E+00  0.00000000000E+00  0.17149437932E+04  0.17149437932E+04  0.00000000000E+00 0.  1.
         -2   -1    0    0    0  501 -0.00000000000E+00 -0.00000000000E+00 -0.28925509242E+03  0.28925509242E+03  0.00000000000E+00 0. -1.
    9000005    1    1    2  502    0  0.20354423498E+03  0.80109760966E+02  0.14766778171E+04  0.15454530743E+04  0.40000000000E+03 0.  1.
   -9000005    1    1    2    0  501 -0.20354423498E+03 -0.80109760966E+02 -0.50989116329E+02  0.45874581129E+03  0.40000000000E+03 0. -1.
<mgrwt>
<rscale>  2 0.45590331E+03</rscale>
<asrwt>0</asrwt>
<pdfrwt beam="1">  1        2 0.26383750E+00 0.45590331E+03</pdfrwt>
<pdfrwt beam="2">  1       -2 0.44500784E-01 0.45590331E+03</pdfrwt>
<totfact> 0.49277152E+01</totfact>
</mgrwt>
</event>
<event>
 4    1  0.2358610E-002  0.4582214E+03  0.7818608E-02  0.1025298E+00
          1   -1    0    0  502    0  0.00000000000E+00  0.00000000000E+00  0.57540761050E+03  0.57540761050E+03  0.00000000000E+00 0.  1.
         -1   -1    0    0    0  501 -0.00000000000E+00 -0.00000000000E+00 -0.69635276282E+03  0.69635276282E+03  0.00000000000E+00 0. -1.
    9000005    1    1    2  502    0  0.84554337704E+02  0.20692369912E+03 -0.49917573514E+03  0.67760111263E+03  0.40000000000E+03 0. -1.
   -9000005    1    1    2    0  501 -0.84554337704E+02 -0.20692369912E+03  0.37823058282E+03  0.59415926069E+03  0.40000000000E+03 0.  1.
<mgrwt>
<rscale>  2 0.45822140E+03</rscale>
<asrwt>0</asrwt>
<pdfrwt beam="1">  1        1 0.88524247E-01 0.45822140E+03</pdfrwt>
<pdfrwt beam="2">  1       -1 0.10713119E+00 0.45822140E+03</pdfrwt>
<totfact> 0.31391487E+01</totfact>
</mgrwt>
</event>
<event>
 4    1  0.2358610E-002  0.4254851E+03  0.7818608E-02  0.1035296E+00
         -2   -1    0    0    0  501 -0.00000000000E+00  0.00000000000E+00  0.98561849907E+03  0.98561849907E+03  0.00000000000E+00 0.  1.
          2   -1    0    0  502    0  0.00000000000E+00 -0.00000000000E+00 -0.24653943120E+03  0.24653943120E+03  0.00000000000E+00 0. -1.
    9000005    1    1    2  502    0  0.14163001996E+03 -0.31281523844E+02  0.68062609292E+03  0.80267644456E+03  0.40000000000E+03 0.  1.
   -9000005    1    1    2    0  501 -0.14163001996E+03  0.31281523844E+02  0.58452974948E+02  0.42948148571E+03  0.40000000000E+03 0. -1.
<mgrwt>
<rscale>  2 0.42548513E+03</rscale>
<asrwt>0</asrwt>
<pdfrwt beam="1">  1        2 0.37929144E-01 0.42548513E+03</pdfrwt>
<pdfrwt beam="2">  1       -2 0.15163361E+00 0.42548513E+03</pdfrwt>
<totfact> 0.41289751E+01</totfact>
</mgrwt>
</event>
<event>
 4    1  0.2358610E-002  0.4295660E+03  0.7818608E-02  0.1033997E+00
         -1   -1    0    0    0  501 -0.00000000000E+00  0.00000000000E+00  0.20045589298E+03  0.20045589298E+03  0.00000000000E+00 0.  1.
          1   -1    0    0  502    0  0.00000000000E+00 -0.00000000000E+00 -0.99678455456E+03  0.99678455456E+03  0.00000000000E+00 0. -1.
    9000005    1    1    2  502    0 -0.64988988364E+00 -0.15660952019E+03 -0.23260062201E+03  0.48849771087E+03  0.40000000000E+03 0.  1.
   -9000005    1    1    2    0  501  0.64988988364E+00  0.15660952019E+03 -0.56372803957E+03  0.70874273666E+03  0.40000000000E+03 0. -1.
<mgrwt>
<rscale>  2 0.42956602E+03</rscale>
<asrwt>0</asrwt>
<pdfrwt beam="1">  1        1 0.15335147E+00 0.42956602E+03</pdfrwt>
<pdfrwt beam="2">  1       -1 0.30839368E-01 0.42956602E+03</pdfrwt>
<totfact> 0.15470790E+02</totfact>
</mgrwt>
</event>
<event>
 4    1  0.2358610E-002  0.8075658E+03  0.7818608E-02  0.9549130E-01
         -2   -1    0    0    0  501 -0.00000000000E+00  0.00000000000E+00  0.38483585810E+03  0.38483585810E+03  0.00000000000E+00 0.  1.
          2   -1    0    0  502    0  0.00000000000E+00 -0.00000000000E+00 -0.17135261502E+04  0.17135261502E+04  0.00000000000E+00 0. -1.
    9000005    1    1    2  502    0 -0.22825859983E+03  0.66337058643E+03 -0.77446071255E+03  0.11189065728E+04  0.40000000000E+03 0.  1.
   -9000005    1    1    2    0  501  0.22825859983E+03 -0.66337058643E+03 -0.55422957958E+03  0.97945543554E+03  0.40000000000E+03 0. -1.
<mgrwt>
<rscale>  2 0.80756580E+03</rscale>
<asrwt>0</asrwt>
<pdfrwt beam="1">  1        2 0.26361940E+00 0.80756580E+03</pdfrwt>
<pdfrwt beam="2">  1       -2 0.59205518E-01 0.80756580E+03</pdfrwt>
<totfact> 0.26199182E+01</totfact>
</mgrwt>
</event>
<event>
 4    1  0.2358610E-002  0.4022384E+03  0.7818608E-02  0.1043007E+00
          1   -1    0    0  502    0  0.00000000000E+00  0.00000000000E+00  0.16098955665E+04  0.16098955665E+04  0.00000000000E+00 0.  1.
         -1   -1    0    0    0  501 -0.00000000000E+00 -0.00000000000E+00 -0.12032392574E+03  0.12032392574E+03  0.00000000000E+00 0. -1.
    9000005    1    1    2  502    0 -0.36948314739E+02 -0.20750285730E+02  0.10959268259E+04  0.11674122494E+04  0.40000000000E+03 0.  1.
   -9000005    1    1    2    0  501  0.36948314739E+02  0.20750285730E+02  0.39364481480E+03  0.56280724279E+03  0.40000000000E+03 0. -1.
<mgrwt>
<rscale>  2 0.40223843E+03</rscale>
<asrwt>0</asrwt>
<pdfrwt beam="1">  1        1 0.24767623E+00 0.40223843E+03</pdfrwt>
<pdfrwt beam="2">  1       -1 0.18511374E-01 0.40223843E+03</pdfrwt>
<totfact> 0.13606148E+02</totfact>
</mgrwt>
</event>
<event>
 4    1  0.2358610E-002  0.5876221E+03  0.7818608E-02  0.9931424E-01
         -2   -1    0    0    0  501 -0.00000000000E+00  0.00000000000E+00  0.46407989585E+03  0.46407989585E+03  0.00000000000E+00 0.  1.
          2   -1    0    0  502    0  0.00000000000E+00 -0.00000000000E+00 -0.13391318185E+04  0.13391318185E+04  0.00000000000E+00 0. -1.
    9000005    1    1    2  502    0 -0.23749512089E+03  0.35902057785E+03 -0.10385510014E+04  0.11932677362E+04  0.40000000000E+03 0. -1.
   -9000005    1    1    2    0  501  0.23749512089E+03 -0.35902057785E+03  0.16349907873E+03  0.60994397817E+03  0.40000000000E+03 0.  1.
<mgrwt>
<rscale>  2 0.58762208E+03</rscale>
<asrwt>0</asrwt>
<pdfrwt beam="1">  1        2 0.20602028E+00 0.58762208E+03</pdfrwt>
<pdfrwt beam="2">  1       -2 0.71396908E-01 0.58762208E+03</pdfrwt>
<totfact> 0.29087094E+01</totfact>
</mgrwt>
</event>
<event>
 4    1  0.2358610E-002  0.4082750E+03  0.7818608E-02  0.1040951E+00
          1   -1    0    0  502    0  0.00000000000E+00  0.00000000000E+00  0.14098073564E+04  0.14098073564E+04  0.00000000000E+00 0. -1.
         -1   -1    0    0    0  501 -0.00000000000E+00 -0.00000000000E+00 -0.15310183030E+03  0.15310183030E+03  0.00000000000E+00 0.  1.
    9000005    1    1    2  502    0 -0.80798502002E+02  0.12653262974E+02  0.25542896447E+03  0.48159366574E+03  0.40000000000E+03 0.  1.
   -9000005    1    1    2    0  501  0.80798502002E+02 -0.12653262974E+02  0.10012765617E+04  0.10813155210E+04  0.40000000000E+03 0. -1.
<mgrwt>
<rscale>  2 0.40827503E+03</rscale>
<asrwt>0</asrwt>
<pdfrwt beam="1">  1        1 0.21689343E+00 0.40827503E+03</pdfrwt>
<pdfrwt beam="2">  1       -1 0.23554129E-01 0.40827503E+03</pdfrwt>
<totfact> 0.12439181E+02</totfact>
</mgrwt>
</event>
<event>
 4    1  0.2358610E-002  0.4125683E+03  0.7818608E-02  0.1039513E+00
          1   -1    0    0  502    0  0.00000000000E+00  0.00000000000E+00  0.10889089749E+04  0.10889089749E+04  0.00000000000E+00 0. -1.
         -1   -1    0    0    0  501 -0.00000000000E+00 -0.00000000000E+00 -0.29137189637E+03  0.29137189637E+03  0.00000000000E+00 0.  1.
    9000005    1    1    2  502    0 -0.83285854318E+02  0.57236822880E+02  0.86863273170E+03  0.96163163946E+03  0.40000000000E+03 0. -1.
   -9000005    1    1    2    0  501  0.83285854318E+02 -0.57236822880E+02 -0.71095653145E+02  0.41864923184E+03  0.40000000000E+03 0.  1.
<mgrwt>
<rscale>  2 0.41256828E+03</rscale>
<asrwt>0</asrwt>
<pdfrwt beam="1">  1        1 0.16752446E+00 0.41256828E+03</pdfrwt>
<pdfrwt beam="2">  1       -1 0.44826446E-01 0.41256828E+03</pdfrwt>
<totfact> 0.68017163E+01</totfact>
</mgrwt>
</event>
<event>
 4    1  0.2358610E-002  0.5205876E+03  0.7818608E-02  0.1008541E+00
          1   -1    0    0  502    0  0.00000000000E+00  0.00000000000E+00  0.77887870946E+03  0.77887870946E+03  0.00000000000E+00 0. -1.
         -1   -1    0    0    0  501 -0.00000000000E+00 -0.00000000000E+00 -0.70316594105E+03  0.70316594105E+03  0.00000000000E+00 0.  1.
    9000005    1    1    2  502    0 -0.32813536646E+03  0.57780527883E+02  0.56453800368E+03  0.76792875042E+03  0.40000000000E+03 0. -1.
   -9000005    1    1    2    0  501  0.32813536646E+03 -0.57780527883E+02 -0.48882523526E+03  0.71411590009E+03  0.40000000000E+03 0.  1.
<mgrwt>
<rscale>  2 0.52058756E+03</rscale>
<asrwt>0</asrwt>
<pdfrwt beam="1">  1        1 0.11982749E+00 0.52058756E+03</pdfrwt>
<pdfrwt beam="2">  1       -1 0.10817938E+00 0.52058756E+03</pdfrwt>
<totfact> 0.19440932E+01</totfact>
</mgrwt>
</event>
<event>
 4    1  0.2358610E-002  0.4621627E+03  0.7818608E-02  0.1024156E+00
         -1   -1    0    0    0  501 -0.00000000000E+00  0.00000000000E+00  0.34976784952E+03  0.34976784952E+03  0.00000000000E+00 0.  1.
          1   -1    0    0  502    0  0.00000000000E+00 -0.00000000000E+00 -0.67486621544E+03  0.67486621544E+03  0.00000000000E+00 0. -1.
    9000005    1    1    2  502    0 -0.19394981522E+03  0.12640348855E+03 -0.32055344517E+03  0.56244900565E+03  0.40000000000E+03 0. -1.
   -9000005    1    1    2    0  501  0.19394981522E+03 -0.12640348855E+03 -0.45449207462E+01  0.46218505931E+03  0.40000000000E+03 0.  1.
<mgrwt>
<rscale>  2 0.46216271E+03</rscale>
<asrwt>0</asrwt>
<pdfrwt beam="1">  1        1 0.10382557E+00 0.46216271E+03</pdfrwt>
<pdfrwt beam="2">  1       -1 0.53810439E-01 0.46216271E+03</pdfrwt>
<totfact> 0.10485402E+02</totfact>
</mgrwt>
</event>
<event>
 4    1  0.2358610E-002  0.5503555E+03  0.7818608E-02  0.1001412E+00
         -1   -1    0    0    0  501 -0.00000000000E+00  0.00000000000E+00  0.29012671968E+03  0.29012671968E+03  0.00000000000E+00 0. -1.
          1   -1    0    0  502    0  0.00000000000E+00 -0.00000000000E+00 -0.13961530259E+04  0.13961530259E+04  0.00000000000E+00 0.  1.
    9000005    1    1    2  502    0  0.42227892983E+01 -0.37798583337E+03 -0.12956394737E+03  0.56540068857E+03  0.40000000000E+03 0. -1.
   -9000005    1    1    2    0  501 -0.42227892983E+01  0.37798583337E+03 -0.97646235881E+03  0.11208790570E+04  0.40000000000E+03 0.  1.
<mgrwt>
<rscale>  2 0.55035545E+03</rscale>
<asrwt>0</asrwt>
<pdfrwt beam="1">  1        1 0.21479278E+00 0.55035545E+03</pdfrwt>
<pdfrwt beam="2">  1       -1 0.44634880E-01 0.55035545E+03</pdfrwt>
<totfact> 0.40606322E+01</totfact>
</mgrwt>
</event>
<event>
 4    1  0.2358610E-002  0.4760237E+03  0.7818608E-02  0.1020234E+00
          2   -1    0    0  502    0  0.00000000000E+00  0.00000000000E+00  0.61295352360E+03  0.61295352360E+03  0.00000000000E+00 0. -1.
         -2   -1    0    0    0  501 -0.00000000000E+00 -0.00000000000E+00 -0.39347352627E+03  0.39347352627E+03  0.00000000000E+00 0.  1.
    9000005    1    1    2  502    0 -0.25652637030E+03 -0.28155771633E+02 -0.13996021739E+02  0.47622937201E+03  0.40000000000E+03 0.  1.
   -9000005    1    1    2    0  501  0.25652637030E+03  0.28155771633E+02  0.23347601907E+03  0.53019767787E+03  0.40000000000E+03 0. -1.
<mgrwt>
<rscale>  2 0.47602366E+03</rscale>
<asrwt>0</asrwt>
<pdfrwt beam="1">  1        2 0.94300542E-01 0.47602366E+03</pdfrwt>
<pdfrwt beam="2">  1       -2 0.60534389E-01 0.47602366E+03</pdfrwt>
<totfact> 0.12644904E+02</totfact>
</mgrwt>
</event>
<event>
 4    1  0.2358610E-002  0.4255935E+03  0.7818608E-02  0.1035261E+00
          2   -1    0    0  502    0  0.00000000000E+00  0.00000000000E+00  0.10086393513E+04  0.10086393513E+04  0.00000000000E+00 0. -1.
         -2   -1    0    0    0  501 -0.00000000000E+00 -0.00000000000E+00 -0.20338715895E+03  0.20338715895E+03  0.00000000000E+00 0.  1.
    9000005    1    1    2  502    0 -0.14535420221E+03  0.13983527415E+01  0.60996896909E+03  0.74376874279E+03  0.40000000000E+03 0. -1.
   -9000005    1    1    2    0  501  0.14535420221E+03 -0.13983527415E+01  0.19528322321E+03  0.46825776743E+03  0.40000000000E+03 0.  1.
<mgrwt>
<rscale>  2 0.42559347E+03</rscale>
<asrwt>0</asrwt>
<pdfrwt beam="1">  1        2 0.15517528E+00 0.42559347E+03</pdfrwt>
<pdfrwt beam="2">  1       -2 0.31290333E-01 0.42559347E+03</pdfrwt>
<totfact> 0.24334639E+02</totfact>
</mgrwt>
</event>
<event>
 4    1  0.2358610E-002  0.5622394E+03  0.7818608E-02  0.9987000E-01
         -2   -1    0    0    0  501 -0.00000000000E+00  0.00000000000E+00  0.20896400588E+03  0.20896400588E+03  0.00000000000E+00 0. -1.
          2   -1    0    0  502    0  0.00000000000E+00 -0.00000000000E+00 -0.20218676019E+04  0.20218676019E+04  0.00000000000E+00 0.  1.
    9000005    1    1    2  502    0  0.10236684207E+03  0.38162051402E+03 -0.34674111018E+03  0.66056232451E+03  0.40000000000E+03 0. -1.
   -9000005    1    1    2    0  501 -0.10236684207E+03 -0.38162051402E+03 -0.14661624858E+04  0.15702692832E+04  0.40000000000E+03 0.  1.
<mgrwt>
<rscale>  2 0.56223944E+03</rscale>
<asrwt>0</asrwt>
<pdfrwt beam="1">  1        2 0.31105655E+00 0.56223944E+03</pdfrwt>
<pdfrwt beam="2">  1       -2 0.32148309E-01 0.56223944E+03</pdfrwt>
<totfact> 0.61745142E+01</totfact>
</mgrwt>
</event>
<event>
 4    1  0.2358610E-002  0.4041878E+03  0.7818608E-02  0.1042339E+00
          2   -1    0    0  502    0  0.00000000000E+00  0.00000000000E+00  0.88110951366E+03  0.88110951366E+03  0.00000000000E+00 0.  1.
         -2   -1    0    0    0  501 -0.00000000000E+00 -0.00000000000E+00 -0.23595651305E+03  0.23595651305E+03  0.00000000000E+00 0. -1.
    9000005    1    1    2  502    0  0.20928302596E+02  0.54127709901E+02  0.58108342699E+03  0.70783172573E+03  0.40000000000E+03 0.  1.
   -9000005    1    1    2    0  501 -0.20928302596E+02 -0.54127709901E+02  0.64069573611E+02  0.40923430097E+03  0.40000000000E+03 0. -1.
<mgrwt>
<rscale>  2 0.40418783E+03</rscale>
<asrwt>0</asrwt>
<pdfrwt beam="1">  1        2 0.13555531E+00 0.40418783E+03</pdfrwt>
<pdfrwt beam="2">  1       -2 0.36301002E-01 0.40418783E+03</pdfrwt>
<totfact> 0.22297711E+02</totfact>
</mgrwt>
</event>
<event>
 4    1  0.2358610E-002  0.8167601E+03  0.7818608E-02  0.9536069E-01
         -2   -1    0    0    0  501 -0.00000000000E+00  0.00000000000E+00  0.31035098180E+03  0.31035098180E+03  0.00000000000E+00 0. -1.
          2   -1    0    0  502    0  0.00000000000E+00 -0.00000000000E+00 -0.28987558582E+04  0.28987558582E+04  0.00000000000E+00 0.  1.
    9000005    1    1    2  502    0 -0.70907740518E+03  0.65622461862E+02 -0.47843636488E+03  0.94657193560E+03  0.40000000000E+03 0. -1.
   -9000005    1    1    2    0  501  0.70907740518E+03 -0.65622461862E+02 -0.21099685115E+04  0.22625349044E+04  0.40000000000E+03 0.  1.
<mgrwt>
<rscale>  2 0.81676011E+03</rscale>
<asrwt>0</asrwt>
<pdfrwt beam="1">  1        2 0.44596244E+00 0.81676011E+03</pdfrwt>
<pdfrwt beam="2">  1       -2 0.47746304E-01 0.81676011E+03</pdfrwt>
<totfact> 0.87721623E+00</totfact>
</mgrwt>
</event>
<event>
 4    1  0.2358610E-002  0.5999300E+03  0.7818608E-02  0.9905551E-01
         -2   -1    0    0    0  501 -0.00000000000E+00  0.00000000000E+00  0.60154285195E+03  0.60154285195E+03  0.00000000000E+00 0.  1.
          2   -1    0    0  502    0  0.00000000000E+00 -0.00000000000E+00 -0.60181431654E+03  0.60181431654E+03  0.00000000000E+00 0. -1.
    9000005    1    1    2  502    0  0.31010779836E+03  0.32210119996E+03  0.45701706626E+02  0.60166824381E+03  0.40000000000E+03 0.  1.
   -9000005    1    1    2    0  501 -0.31010779836E+03 -0.32210119996E+03 -0.45973171223E+02  0.60168892468E+03  0.40000000000E+03 0. -1.
<mgrwt>
<rscale>  2 0.59993002E+03</rscale>
<asrwt>0</asrwt>
<pdfrwt beam="1">  1        2 0.92586818E-01 0.59993002E+03</pdfrwt>
<pdfrwt beam="2">  1       -2 0.92545054E-01 0.59993002E+03</pdfrwt>
<totfact> 0.50149666E+01</totfact>
</mgrwt>
</event>
<event>
 4    1  0.2358610E-002  0.8560046E+03  0.7818608E-02  0.9482313E-01
         -1   -1    0    0    0  501 -0.00000000000E+00  0.00000000000E+00  0.14805162620E+04  0.14805162620E+04  0.00000000000E+00 0.  1.
          1   -1    0    0  502    0  0.00000000000E+00 -0.00000000000E+00 -0.96329275574E+03  0.96329275574E+03  0.00000000000E+00 0. -1.
    9000005    1    1    2  502    0  0.35332724142E+03 -0.66925609024E+03 -0.59341223162E+03  0.10415766561E+04  0.40000000000E+03 0. -1.
   -9000005    1    1    2    0  501 -0.35332724142E+03  0.66925609024E+03  0.11106357379E+04  0.14022323617E+04  0.40000000000E+03 0.  1.
<mgrwt>
<rscale>  2 0.85600459E+03</rscale>
<asrwt>0</asrwt>
<pdfrwt beam="1">  1        1 0.14819889E+00 0.85600459E+03</pdfrwt>
<pdfrwt beam="2">  1       -1 0.22777173E+00 0.85600459E+03</pdfrwt>
<totfact> 0.16233373E+00</totfact>
</mgrwt>
</event>
<event>
 4    1  0.2358610E-002  0.4966486E+03  0.7818608E-02  0.1014657E+00
          2   -1    0    0  502    0  0.00000000000E+00  0.00000000000E+00  0.45363144241E+03  0.45363144241E+03  0.00000000000E+00 0.  1.
         -2   -1    0    0    0  501 -0.00000000000E+00 -0.00000000000E+00 -0.81623497592E+03  0.81623497592E+03  0.00000000000E+00 0. -1.
    9000005    1    1    2  502    0  0.16358637608E+02  0.29392556755E+03  0.18555427874E+03  0.53017943627E+03  0.40000000000E+03 0. -1.
   -9000005    1    1    2    0  501 -0.16358637608E+02 -0.29392556755E+03 -0.54815781226E+03  0.73968698206E+03  0.40000000000E+03 0.  1.
<mgrwt>
<rscale>  2 0.49664861E+03</rscale>
<asrwt>0</asrwt>
<pdfrwt beam="1">  1        2 0.69789454E-01 0.49664861E+03</pdfrwt>
<pdfrwt beam="2">  1       -2 0.12557461E+00 0.49664861E+03</pdfrwt>
<totfact> 0.33810495E+01</totfact>
</mgrwt>
</event>
<event>
 4    1  0.2358610E-002  0.4158794E+03  0.7818608E-02  0.1038416E+00
          2   -1    0    0  502    0  0.00000000000E+00  0.00000000000E+00  0.18932826662E+04  0.18932826662E+04  0.00000000000E+00 0. -1.
         -2   -1    0    0    0  501 -0.00000000000E+00 -0.00000000000E+00 -0.91355746500E+02  0.91355746500E+02  0.00000000000E+00 0.  1.
    9000005    1    1    2  502    0  0.65160124295E+02 -0.93326273090E+02  0.89482609505E+03  0.98674686492E+03  0.40000000000E+03 0. -1.
   -9000005    1    1    2    0  501 -0.65160124295E+02  0.93326273090E+02  0.90710082464E+03  0.99789154777E+03  0.40000000000E+03 0.  1.
<mgrwt>
<rscale>  2 0.41587935E+03</rscale>
<asrwt>0</asrwt>
<pdfrwt beam="1">  1        2 0.29127423E+00 0.41587935E+03</pdfrwt>
<pdfrwt beam="2">  1       -2 0.14054732E-01 0.41587935E+03</pdfrwt>
<totfact> 0.31616743E+02</totfact>
</mgrwt>
</event>
<event>
 4    1  0.2358610E-002  0.4847554E+03  0.7818608E-02  0.1017836E+00
          1   -1    0    0  502    0  0.00000000000E+00  0.00000000000E+00  0.81305759581E+03  0.81305759581E+03  0.00000000000E+00 0. -1.
         -1   -1    0    0    0  501 -0.00000000000E+00 -0.00000000000E+00 -0.29273614870E+03  0.29273614870E+03  0.00000000000E+00 0.  1.
    9000005    1    1    2  502    0 -0.24135616660E+03 -0.12936401006E+03  0.32247685767E+03  0.58221917693E+03  0.40000000000E+03 0. -1.
   -9000005    1    1    2    0  501  0.24135616660E+03  0.12936401006E+03  0.19784458944E+03  0.52357456759E+03  0.40000000000E+03 0.  1.
<mgrwt>
<rscale>  2 0.48475545E+03</rscale>
<asrwt>0</asrwt>
<pdfrwt beam="1">  1        1 0.12508578E+00 0.48475545E+03</pdfrwt>
<pdfrwt beam="2">  1       -1 0.45036331E-01 0.48475545E+03</pdfrwt>
<totfact> 0.10984451E+02</totfact>
</mgrwt>
</event>
<event>
 4    1  0.2358610E-002  0.7029876E+03  0.7818608E-02  0.9712137E-01
          1   -1    0    0  502    0  0.00000000000E+00  0.00000000000E+00  0.14390440253E+04  0.14390440253E+04  0.00000000000E+00 0. -1.
         -1   -1    0    0    0  501 -0.00000000000E+00 -0.00000000000E+00 -0.39599693324E+03  0.39599693324E+03  0.00000000000E+00 0.  1.
    9000005    1    1    2  502    0  0.95906759900E+02  0.57008200190E+03  0.85585832323E+03  0.11075581542E+04  0.40000000000E+03 0. -1.
   -9000005    1    1    2    0  501 -0.95906759900E+02 -0.57008200190E+03  0.18718876886E+03  0.72748280439E+03  0.40000000000E+03 0. -1.
<mgrwt>
<rscale>  2 0.70298762E+03</rscale>
<asrwt>0</asrwt>
<pdfrwt beam="1">  1        1 0.22139139E+00 0.70298762E+03</pdfrwt>
<pdfrwt beam="2">  1       -1 0.60922606E-01 0.70298762E+03</pdfrwt>
<totfact> 0.20504674E+01</totfact>
</mgrwt>
</event>
<event>
 4    1  0.2358610E-002  0.5447249E+03  0.7818608E-02  0.1002722E+00
         -1   -1    0    0    0  501 -0.00000000000E+00  0.00000000000E+00  0.21813684080E+03  0.21813684080E+03  0.00000000000E+00 0. -1.
          1   -1    0    0  502    0  0.00000000000E+00 -0.00000000000E+00 -0.13844785220E+04  0.13844785220E+04  0.00000000000E+00 0.  1.
    9000005    1    1    2  502    0  0.22628520422E+03 -0.29243841096E+03 -0.47721341649E+03  0.72419463042E+03  0.40000000000E+03 0.  1.
   -9000005    1    1    2    0  501 -0.22628520422E+03  0.29243841096E+03 -0.68912826473E+03  0.87842073239E+03  0.40000000000E+03 0.  1.
<mgrwt>
<rscale>  2 0.54472490E+03</rscale>
<asrwt>0</asrwt>
<pdfrwt beam="1">  1        1 0.21299670E+00 0.54472490E+03</pdfrwt>
<pdfrwt beam="2">  1       -1 0.33559514E-01 0.54472490E+03</pdfrwt>
<totfact> 0.69160422E+01</totfact>
</mgrwt>
</event>
<event>
 4    1  0.2358610E-002  0.4305010E+03  0.7818608E-02  0.1033702E+00
          2   -1    0    0  502    0  0.00000000000E+00  0.00000000000E+00  0.15613160699E+04  0.15613160699E+04  0.00000000000E+00 0.  1.
         -2   -1    0    0    0  501 -0.00000000000E+00 -0.00000000000E+00 -0.12095340234E+03  0.12095340234E+03  0.00000000000E+00 0. -1.
    9000005    1    1    2  502    0  0.10598684447E+03  0.11873467420E+03  0.83494272636E+03  0.93939368231E+03  0.40000000000E+03 0.  1.
   -9000005    1    1    2    0  501 -0.10598684447E+03 -0.11873467420E+03  0.60541994122E+03  0.74287578994E+03  0.40000000000E+03 0. -1.
<mgrwt>
<rscale>  2 0.43050103E+03</rscale>
<asrwt>0</asrwt>
<pdfrwt beam="1">  1        2 0.24020246E+00 0.43050103E+03</pdfrwt>
<pdfrwt beam="2">  1       -2 0.18608217E-01 0.43050103E+03</pdfrwt>
<totfact> 0.29611848E+02</totfact>
</mgrwt>
</event>
<event>
 4    1  0.2358610E-002  0.4164408E+03  0.7818608E-02  0.1038231E+00
         -2   -1    0    0    0  501 -0.00000000000E+00  0.00000000000E+00  0.70360329334E+02  0.70360329334E+02  0.00000000000E+00 0.  1.
          2   -1    0    0  502    0  0.00000000000E+00 -0.00000000000E+00 -0.25191191841E+04  0.25191191841E+04  0.00000000000E+00 0. -1.
    9000005    1    1    2  502    0 -0.72055203511E+02 -0.90724982926E+02 -0.10342274183E+04  0.11149212204E+04  0.40000000000E+03 0.  1.
   -9000005    1    1    2    0  501  0.72055203511E+02  0.90724982926E+02 -0.14145314365E+04  0.14745582931E+04  0.40000000000E+03 0. -1.
<mgrwt>
<rscale>  2 0.41644084E+03</rscale>
<asrwt>0</asrwt>
<pdfrwt beam="1">  1        2 0.38755675E+00 0.41644084E+03</pdfrwt>
<pdfrwt beam="2">  1       -2 0.10824667E-01 0.41644084E+03</pdfrwt>
<totfact> 0.22207230E+02</totfact>
</mgrwt>
</event>
<event>
 4    1  0.2358610E-002  0.5558180E+03  0.7818608E-02  0.1000156E+00
          1   -1    0    0  502    0  0.00000000000E+00  0.00000000000E+00  0.58233398913E+03  0.58233398913E+03  0.00000000000E+00 0.  1.
         -1   -1    0    0    0  501 -0.00000000000E+00 -0.00000000000E+00 -0.53747143778E+03  0.53747143778E+03  0.00000000000E+00 0. -1.
    9000005    1    1    2  502    0 -0.27563261135E+03 -0.27011162313E+03  0.86155515062E+02  0.56245568551E+03  0.40000000000E+03 0.  1.
   -9000005    1    1    2    0  501  0.27563261135E+03  0.27011162313E+03 -0.41292963708E+02  0.55734974140E+03  0.40000000000E+03 0. -1.
<mgrwt>
<rscale>  2 0.55581798E+03</rscale>
<asrwt>0</asrwt>
<pdfrwt beam="1">  1        1 0.89589845E-01 0.55581798E+03</pdfrwt>
<pdfrwt beam="2">  1       -1 0.82687913E-01 0.55581798E+03</pdfrwt>
<totfact> 0.54101153E+01</totfact>
</mgrwt>
</event>
<event>
 4    1  0.2358610E-002  0.4483944E+03  0.7818608E-02  0.1028202E+00
         -1   -1    0    0    0  501 -0.00000000000E+00  0.00000000000E+00  0.48923499846E+03  0.48923499846E+03  0.00000000000E+00 0. -1.
          1   -1    0    0  502    0  0.00000000000E+00 -0.00000000000E+00 -0.41288039492E+03  0.41288039492E+03  0.00000000000E+00 0.  1.
    9000005    1    1    2  502    0 -0.18556022845E+03 -0.81393799277E+02  0.74403771509E+01  0.44845613850E+03  0.40000000000E+03 0. -1.
   -9000005    1    1    2    0  501  0.18556022845E+03  0.81393799277E+02  0.68914226388E+02  0.45365925489E+03  0.40000000000E+03 0.  1.
<mgrwt>
<rscale>  2 0.44839441E+03</rscale>
<asrwt>0</asrwt>
<pdfrwt beam="1">  1        1 0.63520061E-01 0.44839441E+03</pdfrwt>
<pdfrwt beam="2">  1       -1 0.75266922E-01 0.44839441E+03</pdfrwt>
<totfact> 0.10634722E+02</totfact>
</mgrwt>
</event>
<event>
 4    1  0.2358610E-002  0.4106388E+03  0.7818608E-02  0.1040157E+00
         -2   -1    0    0    0  501 -0.00000000000E+00  0.00000000000E+00  0.26608385616E+03  0.26608385616E+03  0.00000000000E+00 0. -1.
          2   -1    0    0  502    0  0.00000000000E+00 -0.00000000000E+00 -0.66098935619E+03  0.66098935619E+03  0.00000000000E+00 0.  1.
    9000005    1    1    2  502    0 -0.78924528733E+02 -0.48940132702E+02 -0.29159350131E+03  0.50363775457E+03  0.40000000000E+03 0.  1.
   -9000005    1    1    2    0  501  0.78924528733E+02  0.48940132702E+02 -0.10331199872E+03  0.42343545778E+03  0.40000000000E+03 0. -1.
<mgrwt>
<rscale>  2 0.41063879E+03</rscale>
<asrwt>0</asrwt>
<pdfrwt beam="1">  1        2 0.10169067E+00 0.41063879E+03</pdfrwt>
<pdfrwt beam="2">  1       -2 0.40935978E-01 0.41063879E+03</pdfrwt>
<totfact> 0.25554948E+02</totfact>
</mgrwt>
</event>
<event>
 4    1  0.2358610E-002  0.4453031E+03  0.7818608E-02  0.1029132E+00
         -2   -1    0    0    0  501 -0.00000000000E+00  0.00000000000E+00  0.22629926486E+03  0.22629926486E+03  0.00000000000E+00 0. -1.
          2   -1    0    0  502    0  0.00000000000E+00 -0.00000000000E+00 -0.93402276523E+03  0.93402276523E+03  0.00000000000E+00 0.  1.
    9000005    1    1    2  502    0  0.10296155543E+03  0.16641441811E+03 -0.20957396457E+03  0.49215453577E+03  0.40000000000E+03 0. -1.
   -9000005    1    1    2    0  501 -0.10296155543E+03 -0.16641441811E+03 -0.49814953580E+03  0.66816749432E+03  0.40000000000E+03 0.  1.
<mgrwt>
<rscale>  2 0.44530309E+03</rscale>
<asrwt>0</asrwt>
<pdfrwt beam="1">  1        2 0.14369581E+00 0.44530309E+03</pdfrwt>
<pdfrwt beam="2">  1       -2 0.34815272E-01 0.44530309E+03</pdfrwt>
<totfact> 0.22192538E+02</totfact>
</mgrwt>
</event>
<event>
 4    1  0.2358610E-002  0.5345555E+03  0.7818608E-02  0.1005133E+00
          2   -1    0    0  502    0  0.00000000000E+00  0.00000000000E+00  0.62184830511E+03  0.62184830511E+03  0.00000000000E+00 0.  1.
         -2   -1    0    0    0  501 -0.00000000000E+00 -0.00000000000E+00 -0.51928107969E+03  0.51928107969E+03  0.00000000000E+00 0. -1.
    9000005    1    1    2  502    0  0.25488433394E+03 -0.24654312109E+03  0.24484811251E+03  0.58796269647E+03  0.40000000000E+03 0. -1.
   -9000005    1    1    2    0  501 -0.25488433394E+03  0.24654312109E+03 -0.14228088709E+03  0.55316668833E+03  0.40000000000E+03 0. -1.
<mgrwt>
<rscale>  2 0.53455545E+03</rscale>
<asrwt>0</asrwt>
<pdfrwt beam="1">  1        2 0.95668970E-01 0.53455545E+03</pdfrwt>
<pdfrwt beam="2">  1       -2 0.79889397E-01 0.53455545E+03</pdfrwt>
<totfact> 0.67761413E+01</totfact>
</mgrwt>
</event>
<event>
 4    1  0.2358610E-002  0.4194882E+03  0.7818608E-02  0.1037233E+00
         -1   -1    0    0    0  501 -0.00000000000E+00  0.00000000000E+00  0.59443196604E+03  0.59443196604E+03  0.00000000000E+00 0.  1.
          1   -1    0    0  502    0  0.00000000000E+00 -0.00000000000E+00 -0.34746910678E+03  0.34746910678E+03  0.00000000000E+00 0. -1.
    9000005    1    1    2  502    0  0.12274101446E+03  0.30082685907E+02 -0.57719088091E+02  0.42344045361E+03  0.40000000000E+03 0. -1.
   -9000005    1    1    2    0  501 -0.12274101446E+03 -0.30082685907E+02  0.30468194736E+03  0.51846061921E+03  0.40000000000E+03 0.  1.
<mgrwt>
<rscale>  2 0.41948817E+03</rscale>
<asrwt>0</asrwt>
<pdfrwt beam="1">  1        1 0.53456786E-01 0.41948817E+03</pdfrwt>
<pdfrwt beam="2">  1       -1 0.91451072E-01 0.41948817E+03</pdfrwt>
<totfact> 0.88276826E+01</totfact>
</mgrwt>
</event>
<event>
 4    1  0.2358610E-002  0.4941498E+03  0.7818608E-02  0.1015317E+00
         -1   -1    0    0    0  501 -0.00000000000E+00  0.00000000000E+00  0.95314974961E+03  0.95314974961E+03  0.00000000000E+00 0.  1.
          1   -1    0    0  502    0  0.00000000000E+00 -0.00000000000E+00 -0.25626647796E+03  0.25626647796E+03  0.00000000000E+00 0. -1.
    9000005    1    1    2  502    0  0.28298103221E+03  0.64075830364E+02  0.33775031262E+03  0.59854761740E+03  0.40000000000E+03 0.  1.
   -9000005    1    1    2    0  501 -0.28298103221E+03 -0.64075830364E+02  0.35913295902E+03  0.61086861016E+03  0.40000000000E+03 0. -1.
<mgrwt>
<rscale>  2 0.49414975E+03</rscale>
<asrwt>0</asrwt>
<pdfrwt beam="1">  1        1 0.39425612E-01 0.49414975E+03</pdfrwt>
<pdfrwt beam="2">  1       -1 0.14663842E+00 0.49414975E+03</pdfrwt>
<totfact> 0.41817055E+01</totfact>
</mgrwt>
</event>
<event>
 4    1  0.2358610E-002  0.4637041E+03  0.7818608E-02  0.1023712E+00
         -2   -1    0    0    0  501 -0.00000000000E+00  0.00000000000E+00  0.51157221566E+03  0.51157221566E+03  0.00000000000E+00 0. -1.
          2   -1    0    0  502    0  0.00000000000E+00 -0.00000000000E+00 -0.42091777673E+03  0.42091777673E+03  0.00000000000E+00 0.  1.
    9000005    1    1    2  502    0  0.20391160839E+03 -0.11593782778E+03  0.27684728578E+02  0.46452983558E+03  0.40000000000E+03 0. -1.
   -9000005    1    1    2    0  501 -0.20391160839E+03  0.11593782778E+03  0.62969710356E+02  0.46796015682E+03  0.40000000000E+03 0. -1.
<mgrwt>
<rscale>  2 0.46370413E+03</rscale>
<asrwt>0</asrwt>
<pdfrwt beam="1">  1        2 0.64756581E-01 0.46370413E+03</pdfrwt>
<pdfrwt beam="2">  1       -2 0.78703418E-01 0.46370413E+03</pdfrwt>
<totfact> 0.11062034E+02</totfact>
</mgrwt>
</event>
<event>
 4    1  0.2358610E-002  0.6844922E+03  0.7818608E-02  0.9744126E-01
         -2   -1    0    0    0  501 -0.00000000000E+00  0.00000000000E+00  0.42602036741E+03  0.42602036741E+03  0.00000000000E+00 0. -1.
          2   -1    0    0  502    0  0.00000000000E+00 -0.00000000000E+00 -0.11005200691E+04  0.11005200691E+04  0.00000000000E+00 0.  1.
    9000005    1    1    2  502    0 -0.19001661988E+03 -0.52194174757E+03 -0.31748255738E+03  0.75453606801E+03  0.40000000000E+03 0.  1.
   -9000005    1    1    2    0  501  0.19001661988E+03  0.52194174757E+03 -0.35701714435E+03  0.77200436855E+03  0.40000000000E+03 0. -1.
<mgrwt>
<rscale>  2 0.68449215E+03</rscale>
<asrwt>0</asrwt>
<pdfrwt beam="1">  1        2 0.16931078E+00 0.68449215E+03</pdfrwt>
<pdfrwt beam="2">  1       -2 0.65541596E-01 0.68449215E+03</pdfrwt>
<totfact> 0.47762049E+01</totfact>
</mgrwt>
</event>
<event>
 4    1  0.2358610E-002  0.4412265E+03  0.7818608E-02  0.1030371E+00
         -4   -1    0    0    0  501 -0.00000000000E+00  0.00000000000E+00  0.69464672264E+03  0.69464672264E+03  0.00000000000E+00 0. -1.
          4   -1    0    0  502    0  0.00000000000E+00 -0.00000000000E+00 -0.33672474684E+03  0.33672474684E+03  0.00000000000E+00 0.  1.
    9000005    1    1    2  502    0  0.17831619418E+03 -0.53704161328E+02  0.39013535996E+03  0.58897062842E+03  0.40000000000E+03 0. -1.
   -9000005    1    1    2    0  501 -0.17831619418E+03  0.53704161328E+02 -0.32213384158E+02  0.44240084106E+03  0.40000000000E+03 0. -1.
<mgrwt>
<rscale>  2 0.44122647E+03</rscale>
<asrwt>0</asrwt>
<pdfrwt beam="1">  1        4 0.51803807E-01 0.44122647E+03</pdfrwt>
<pdfrwt beam="2">  1       -4 0.10686873E+00 0.44122647E+03</pdfrwt>
<totfact> 0.48871437E+00</totfact>
</mgrwt>
</event>
<event>
 4    1  0.2358610E-002  0.4670669E+03  0.7818608E-02  0.1022751E+00
         -2   -1    0    0    0  501 -0.00000000000E+00  0.00000000000E+00  0.14843186225E+03  0.14843186225E+03  0.00000000000E+00 0.  1.
          2   -1    0    0  502    0  0.00000000000E+00 -0.00000000000E+00 -0.26257799391E+04  0.26257799391E+04  0.00000000000E+00 0. -1.
    9000005    1    1    2  502    0  0.12986373250E+03 -0.20319186296E+03 -0.21590660746E+04  0.22090083379E+04  0.40000000000E+03 0. -1.
   -9000005    1    1    2    0  501 -0.12986373250E+03  0.20319186296E+03 -0.31828200224E+03  0.56520346349E+03  0.40000000000E+03 0.  1.
<mgrwt>
<rscale>  2 0.46706694E+03</rscale>
<asrwt>0</asrwt>
<pdfrwt beam="1">  1        2 0.40396613E+00 0.46706694E+03</pdfrwt>
<pdfrwt beam="2">  1       -2 0.22835672E-01 0.46706694E+03</pdfrwt>
<totfact> 0.54331390E+01</totfact>
</mgrwt>
</event>
<event>
 4    1  0.2358610E-002  0.4668100E+03  0.7818608E-02  0.1022824E+00
          2   -1    0    0  502    0  0.00000000000E+00  0.00000000000E+00  0.23545912610E+04  0.23545912610E+04  0.00000000000E+00 0.  1.
         -2   -1    0    0    0  501 -0.00000000000E+00 -0.00000000000E+00 -0.10029303293E+03  0.10029303293E+03  0.00000000000E+00 0. -1.
    9000005    1    1    2  502    0 -0.17557040985E+03 -0.16458021981E+03  0.78604236265E+03  0.91420687673E+03  0.40000000000E+03 0. -1.
   -9000005    1    1    2    0  501  0.17557040985E+03  0.16458021981E+03  0.14682558654E+04  0.15406774172E+04  0.40000000000E+03 0.  1.
<mgrwt>
<rscale>  2 0.46681004E+03</rscale>
<asrwt>0</asrwt>
<pdfrwt beam="1">  1        2 0.36224477E+00 0.46681004E+03</pdfrwt>
<pdfrwt beam="2">  1       -2 0.15429699E-01 0.46681004E+03</pdfrwt>
<totfact> 0.15124605E+02</totfact>
</mgrwt>
</event>
<event>
 4    1  0.2358610E-002  0.4306638E+03  0.7818608E-02  0.1033650E+00
         -1   -1    0    0    0  501 -0.00000000000E+00  0.00000000000E+00  0.22659233877E+03  0.22659233877E+03  0.00000000000E+00 0.  1.
          1   -1    0    0  502    0  0.00000000000E+00 -0.00000000000E+00 -0.97376092111E+03  0.97376092111E+03  0.00000000000E+00 0. -1.
    9000005    1    1    2  502    0  0.15812570626E+03  0.21622716616E+02 -0.13394924246E+03  0.45101405788E+03  0.40000000000E+03 0.  1.
   -9000005    1    1    2    0  501 -0.15812570626E+03 -0.21622716616E+02 -0.61321933987E+03  0.74933920200E+03  0.40000000000E+03 0. -1.
<mgrwt>
<rscale>  2 0.43066377E+03</rscale>
<asrwt>0</asrwt>
<pdfrwt beam="1">  1        1 0.14980937E+00 0.43066377E+03</pdfrwt>
<pdfrwt beam="2">  1       -1 0.34860361E-01 0.43066377E+03</pdfrwt>
<totfact> 0.13007887E+02</totfact>
</mgrwt>
</event>
<event>
 4    1  0.2358610E-002  0.4333568E+03  0.7818608E-02  0.1032805E+00
          2   -1    0    0  502    0  0.00000000000E+00  0.00000000000E+00  0.19210835233E+04  0.19210835233E+04  0.00000000000E+00 0. -1.
         -2   -1    0    0    0  501 -0.00000000000E+00 -0.00000000000E+00 -0.10169215636E+03  0.10169215636E+03  0.00000000000E+00 0.  1.
    9000005    1    1    2  502    0  0.42475888987E+02 -0.16122620584E+03  0.11086674761E+04  0.11903535874E+04  0.40000000000E+03 0.  1.
   -9000005    1    1    2    0  501 -0.42475888987E+02  0.16122620584E+03  0.71072389085E+03  0.83242209222E+03  0.40000000000E+03 0.  1.
<mgrwt>
<rscale>  2 0.43335677E+03</rscale>
<asrwt>0</asrwt>
<pdfrwt beam="1">  1        2 0.29555128E+00 0.43335677E+03</pdfrwt>
<pdfrwt beam="2">  1       -2 0.15644949E-01 0.43335677E+03</pdfrwt>
<totfact> 0.25478975E+02</totfact>
</mgrwt>
</event>
<event>
 4    1  0.2358610E-002  0.5025227E+03  0.7818608E-02  0.1013123E+00
          2   -1    0    0  502    0  0.00000000000E+00  0.00000000000E+00  0.22844423718E+04  0.22844423718E+04  0.00000000000E+00 0. -1.
         -2   -1    0    0    0  501 -0.00000000000E+00 -0.00000000000E+00 -0.12799645351E+03  0.12799645351E+03  0.00000000000E+00 0.  1.
    9000005    1    1    2  502    0  0.23520269098E+03 -0.19289580153E+03  0.63280458865E+03  0.80806605145E+03  0.40000000000E+03 0.  1.
   -9000005    1    1    2    0  501 -0.23520269098E+03  0.19289580153E+03  0.15236413296E+04  0.16043727738E+04  0.40000000000E+03 0. -1.
<mgrwt>
<rscale>  2 0.50252273E+03</rscale>
<asrwt>0</asrwt>
<pdfrwt beam="1">  1        2 0.35145264E+00 0.50252273E+03</pdfrwt>
<pdfrwt beam="2">  1       -2 0.19691764E-01 0.50252273E+03</pdfrwt>
<totfact> 0.10831590E+02</totfact>
</mgrwt>
</event>
<event>
 4    1  0.2358610E-002  0.4002769E+03  0.7818608E-02  0.1043684E+00
         -1   -1    0    0    0  501 -0.00000000000E+00  0.00000000000E+00  0.97575731379E+03  0.97575731379E+03  0.00000000000E+00 0. -1.
          1   -1    0    0  502    0  0.00000000000E+00 -0.00000000000E+00 -0.16454695859E+03  0.16454695859E+03  0.00000000000E+00 0.  1.
    9000005    1    1    2  502    0 -0.11319539942E+02 -0.96688889825E+01  0.43169822074E+03  0.58871467893E+03  0.40000000000E+03 0. -1.
   -9000005    1    1    2    0  501  0.11319539942E+02  0.96688889825E+01  0.37951213445E+03  0.55158959344E+03  0.40000000000E+03 0.  1.
<mgrwt>
<rscale>  2 0.40027693E+03</rscale>
<asrwt>0</asrwt>
<pdfrwt beam="1">  1        1 0.25314917E-01 0.40027693E+03</pdfrwt>
<pdfrwt beam="2">  1       -1 0.15011651E+00 0.40027693E+03</pdfrwt>
<totfact> 0.70216101E+01</totfact>
</mgrwt>
</event>
<event>
 4    1  0.2358610E-002  0.5055712E+03  0.7818608E-02  0.1012335E+00
         -1   -1    0    0    0  501 -0.00000000000E+00  0.00000000000E+00  0.60788199922E+03  0.60788199922E+03  0.00000000000E+00 0. -1.
          1   -1    0    0  502    0  0.00000000000E+00 -0.00000000000E+00 -0.47751005772E+03  0.47751005772E+03  0.00000000000E+00 0.  1.
    9000005    1    1    2  502    0 -0.30040302951E+03  0.73213960497E+02 -0.12236401246E+03  0.52016844935E+03  0.40000000000E+03 0.  1.
   -9000005    1    1    2    0  501  0.30040302951E+03 -0.73213960497E+02  0.25273595396E+03  0.56522360759E+03  0.40000000000E+03 0.  1.
<mgrwt>
<rscale>  2 0.50557123E+03</rscale>
<asrwt>0</asrwt>
<pdfrwt beam="1">  1        1 0.73463085E-01 0.50557123E+03</pdfrwt>
<pdfrwt beam="2">  1       -1 0.93520308E-01 0.50557123E+03</pdfrwt>
<totfact> 0.54777730E+01</totfact>
</mgrwt>
</event>
<event>
 4    1  0.2358610E-002  0.4313352E+03  0.7818608E-02  0.1033439E+00
         -1   -1    0    0    0  501 -0.00000000000E+00  0.00000000000E+00  0.15118195626E+03  0.15118195626E+03  0.00000000000E+00 0. -1.
          1   -1    0    0  502    0  0.00000000000E+00 -0.00000000000E+00 -0.13554396926E+04  0.13554396926E+04  0.00000000000E+00 0.  1.
    9000005    1    1    2  502    0  0.11357301562E+03  0.11467871848E+03 -0.83071343241E+03  0.93602075038E+03  0.40000000000E+03 0.  1.
   -9000005    1    1    2    0  501 -0.11357301562E+03 -0.11467871848E+03 -0.37354430391E+03  0.57060089847E+03  0.40000000000E+03 0. -1.
<mgrwt>
<rscale>  2 0.43133518E+03</rscale>
<asrwt>0</asrwt>
<pdfrwt beam="1">  1        1 0.20852919E+00 0.43133518E+03</pdfrwt>
<pdfrwt beam="2">  1       -1 0.23258762E-01 0.43133518E+03</pdfrwt>
<totfact> 0.13794317E+02</totfact>
</mgrwt>
</event>
<event>
 4    1  0.2358610E-002  0.5006882E+03  0.7818608E-02  0.1013599E+00
         -1   -1    0    0    0  501 -0.00000000000E+00  0.00000000000E+00  0.22381090051E+04  0.22381090051E+04  0.00000000000E+00 0.  1.
          1   -1    0    0  502    0  0.00000000000E+00 -0.00000000000E+00 -0.14468220829E+03  0.14468220829E+03  0.00000000000E+00 0. -1.
    9000005    1    1    2  502    0 -0.17890495333E+03 -0.24224309892E+03  0.16128787425E+04  0.16888062468E+04  0.40000000000E+03 0.  1.
   -9000005    1    1    2    0  501  0.17890495333E+03  0.24224309892E+03  0.48054805427E+03  0.69398496652E+03  0.40000000000E+03 0. -1.
<mgrwt>
<rscale>  2 0.50068823E+03</rscale>
<asrwt>0</asrwt>
<pdfrwt beam="1">  1        1 0.22258803E-01 0.50068823E+03</pdfrwt>
<pdfrwt beam="2">  1       -1 0.34432444E+00 0.50068823E+03</pdfrwt>
<totfact> 0.42400697E+00</totfact>
</mgrwt>
</event>
<event>
 4    1  0.2358610E-002  0.4209760E+03  0.7818608E-02  0.1036749E+00
         -2   -1    0    0    0  501 -0.00000000000E+00  0.00000000000E+00  0.13326042314E+03  0.13326042314E+03  0.00000000000E+00 0.  1.
          2   -1    0    0  502    0  0.00000000000E+00 -0.00000000000E+00 -0.13528125587E+04  0.13528125587E+04  0.00000000000E+00 0. -1.
    9000005    1    1    2  502    0 -0.11274295244E+03  0.67154940490E+02 -0.70651249130E+03  0.82242364978E+03  0.40000000000E+03 0.  1.
   -9000005    1    1    2    0  501  0.11274295244E+03 -0.67154940490E+02 -0.51303964424E+03  0.66364933204E+03  0.40000000000E+03 0.  1.
<mgrwt>
<rscale>  2 0.42097596E+03</rscale>
<asrwt>0</asrwt>
<pdfrwt beam="1">  1        2 0.20812500E+00 0.42097596E+03</pdfrwt>
<pdfrwt beam="2">  1       -2 0.20501605E-01 0.42097596E+03</pdfrwt>
<totfact> 0.32643068E+02</totfact>
</mgrwt>
</event>
<event>
 4    1  0.2358610E-002  0.4079918E+03  0.7818608E-02  0.1041047E+00
         -2   -1    0    0    0  501 -0.00000000000E+00  0.00000000000E+00  0.24983584470E+03  0.24983584470E+03  0.00000000000E+00 0. -1.
          2   -1    0    0  502    0  0.00000000000E+00 -0.00000000000E+00 -0.67159863533E+03  0.67159863533E+03  0.00000000000E+00 0.  1.
    9000005    1    1    2  502    0  0.26015799840E+02  0.76029447632E+02 -0.16983048240E+03  0.44192724684E+03  0.40000000000E+03 0. -1.
   -9000005    1    1    2    0  501 -0.26015799840E+02 -0.76029447632E+02 -0.25193230823E+03  0.47950723319E+03  0.40000000000E+03 0.  1.
<mgrwt>
<rscale>  2 0.40799179E+03</rscale>
<asrwt>0</asrwt>
<pdfrwt beam="1">  1        2 0.10332287E+00 0.40799179E+03</pdfrwt>
<pdfrwt beam="2">  1       -2 0.38436284E-01 0.40799179E+03</pdfrwt>
<totfact> 0.28306687E+02</totfact>
</mgrwt>
</event>
<event>
 4    1  0.2358610E-002  0.4255398E+03  0.7818608E-02  0.1035278E+00
          1   -1    0    0  502    0  0.00000000000E+00  0.00000000000E+00  0.68027847021E+03  0.68027847021E+03  0.00000000000E+00 0.  1.
         -1   -1    0    0    0  501 -0.00000000000E+00 -0.00000000000E+00 -0.29487324437E+03  0.29487324437E+03  0.00000000000E+00 0. -1.
    9000005    1    1    2  502    0 -0.11830514794E+03 -0.84190151034E+02  0.40637304266E+02  0.42747570698E+03  0.40000000000E+03 0.  1.
   -9000005    1    1    2    0  501  0.11830514794E+03  0.84190151034E+02  0.34476792157E+03  0.54767600760E+03  0.40000000000E+03 0.  1.
<mgrwt>
<rscale>  2 0.42553976E+03</rscale>
<asrwt>0</asrwt>
<pdfrwt beam="1">  1        1 0.10465823E+00 0.42553976E+03</pdfrwt>
<pdfrwt beam="2">  1       -1 0.45365115E-01 0.42553976E+03</pdfrwt>
<totfact> 0.14321292E+02</totfact>
</mgrwt>
</event>
<event>
 4    1  0.2358610E-002  0.4728043E+03  0.7818608E-02  0.1021132E+00
          2   -1    0    0  502    0  0.00000000000E+00  0.00000000000E+00  0.10382365888E+04  0.10382365888E+04  0.00000000000E+00 0. -1.
         -2   -1    0    0    0  501 -0.00000000000E+00 -0.00000000000E+00 -0.21849534895E+03  0.21849534895E+03  0.00000000000E+00 0.  1.
    9000005    1    1    2  502    0 -0.22117268332E+03 -0.12094011342E+03  0.48572745940E+03  0.67784587606E+03  0.40000000000E+03 0. -1.
   -9000005    1    1    2    0  501  0.22117268332E+03  0.12094011342E+03  0.33401378045E+03  0.57888606168E+03  0.40000000000E+03 0.  1.
<mgrwt>
<rscale>  2 0.47280426E+03</rscale>
<asrwt>0</asrwt>
<pdfrwt beam="1">  1        2 0.15972870E+00 0.47280426E+03</pdfrwt>
<pdfrwt beam="2">  1       -2 0.33614670E-01 0.47280426E+03</pdfrwt>
<totfact> 0.20321121E+02</totfact>
</mgrwt>
</event>
<event>
 4    1  0.2358610E-002  0.4221322E+03  0.7818608E-02  0.1036375E+00
          2   -1    0    0  502    0  0.00000000000E+00  0.00000000000E+00  0.25032881103E+03  0.25032881103E+03  0.00000000000E+00 0. -1.
         -2   -1    0    0    0  501 -0.00000000000E+00 -0.00000000000E+00 -0.80715927270E+03  0.80715927270E+03  0.00000000000E+00 0.  1.
    9000005    1    1    2  502    0  0.32189374224E+02 -0.13099392252E+03 -0.46011005276E+03  0.62441718763E+03  0.40000000000E+03 0.  1.
   -9000005    1    1    2    0  501 -0.32189374224E+02  0.13099392252E+03 -0.96720408912E+02  0.43307089610E+03  0.40000000000E+03 0. -1.
<mgrwt>
<rscale>  2 0.42213216E+03</rscale>
<asrwt>0</asrwt>
<pdfrwt beam="1">  1        2 0.38512125E-01 0.42213216E+03</pdfrwt>
<pdfrwt beam="2">  1       -2 0.12417835E+00 0.42213216E+03</pdfrwt>
<totfact> 0.67555459E+01</totfact>
</mgrwt>
</event>
<event>
 4    1  0.2358610E-002  0.4397299E+03  0.7818608E-02  0.1030830E+00
          1   -1    0    0  502    0  0.00000000000E+00  0.00000000000E+00  0.12883725311E+04  0.12883725311E+04  0.00000000000E+00 0.  1.
         -1   -1    0    0    0  501 -0.00000000000E+00 -0.00000000000E+00 -0.15772272976E+03  0.15772272976E+03  0.00000000000E+00 0. -1.
    9000005    1    1    2  502    0 -0.14312352026E+03  0.11348136862E+03  0.72446100552E+03  0.84747041930E+03  0.40000000000E+03 0.  1.
   -9000005    1    1    2    0  501  0.14312352026E+03 -0.11348136862E+03  0.40618879579E+03  0.59862484154E+03  0.40000000000E+03 0.  1.
<mgrwt>
<rscale>  2 0.43972988E+03</rscale>
<asrwt>0</asrwt>
<pdfrwt beam="1">  1        1 0.19821115E+00 0.43972988E+03</pdfrwt>
<pdfrwt beam="2">  1       -1 0.24265036E-01 0.43972988E+03</pdfrwt>
<totfact> 0.14282488E+02</totfact>
</mgrwt>
</event>
<event>
 4    1  0.2358610E-002  0.6253670E+03  0.7818608E-02  0.9854132E-01
          2   -1    0    0  502    0  0.00000000000E+00  0.00000000000E+00  0.14308781015E+04  0.14308781015E+04  0.00000000000E+00 0.  1.
         -2   -1    0    0    0  501 -0.00000000000E+00 -0.00000000000E+00 -0.28182118445E+03  0.28182118445E+03  0.00000000000E+00 0. -1.
    9000005    1    1    2  502    0  0.26597803618E+03  0.40042415817E+03  0.72328343362E+03  0.95614996079E+03  0.40000000000E+03 0.  1.
   -9000005    1    1    2    0  501 -0.26597803618E+03 -0.40042415817E+03  0.42577348340E+03  0.75654932512E+03  0.40000000000E+03 0. -1.
<mgrwt>
<rscale>  2 0.62536695E+03</rscale>
<asrwt>0</asrwt>
<pdfrwt beam="1">  1        2 0.22013509E+00 0.62536695E+03</pdfrwt>
<pdfrwt beam="2">  1       -2 0.43357106E-01 0.62536695E+03</pdfrwt>
<totfact> 0.72363115E+01</totfact>
</mgrwt>
</event>
<event>
 4    1  0.2358610E-002  0.4177140E+03  0.7818608E-02  0.1037813E+00
          2   -1    0    0  502    0  0.00000000000E+00  0.00000000000E+00  0.24026240342E+04  0.24026240342E+04  0.00000000000E+00 0. -1.
         -2   -1    0    0    0  501 -0.00000000000E+00 -0.00000000000E+00 -0.73087931391E+02  0.73087931391E+02  0.00000000000E+00 0.  1.
    9000005    1    1    2  502    0 -0.40547046066E+02  0.11331795694E+03  0.12635291905E+04  0.13307858722E+04  0.40000000000E+03 0. -1.
   -9000005    1    1    2    0  501  0.40547046066E+02 -0.11331795694E+03  0.10660069123E+04  0.11449260934E+04  0.40000000000E+03 0.  1.
<mgrwt>
<rscale>  2 0.41771404E+03</rscale>
<asrwt>0</asrwt>
<pdfrwt beam="1">  1        2 0.36963441E+00 0.41771404E+03</pdfrwt>
<pdfrwt beam="2">  1       -2 0.11244299E-01 0.41771404E+03</pdfrwt>
<totfact> 0.24216150E+02</totfact>
</mgrwt>
</event>
<event>
 4    1  0.2358610E-002  0.4223847E+03  0.7818608E-02  0.1036293E+00
         -1   -1    0    0    0  501 -0.00000000000E+00  0.00000000000E+00  0.80078037547E+02  0.80078037547E+02  0.00000000000E+00 0.  1.
          1   -1    0    0  502    0  0.00000000000E+00 -0.00000000000E+00 -0.22527164417E+04  0.22527164417E+04  0.00000000000E+00 0. -1.
    9000005    1    1    2  502    0  0.83932992431E+02  0.10660258417E+03 -0.12086498003E+04  0.12803293319E+04  0.40000000000E+03 0. -1.
   -9000005    1    1    2    0  501 -0.83932992431E+02 -0.10660258417E+03 -0.96398860381E+03  0.10524651474E+04  0.40000000000E+03 0.  1.
<mgrwt>
<rscale>  2 0.42238473E+03</rscale>
<asrwt>0</asrwt>
<pdfrwt beam="1">  1        1 0.34657172E+00 0.42238473E+03</pdfrwt>
<pdfrwt beam="2">  1       -1 0.12319700E-01 0.42238473E+03</pdfrwt>
<totfact> 0.98320923E+01</totfact>
</mgrwt>
</event>
<event>
 4    1  0.2358610E-002  0.4146421E+03  0.7818608E-02  0.1038824E+00
         -2   -1    0    0    0  501 -0.00000000000E+00  0.00000000000E+00  0.97277347596E+02  0.97277347596E+02  0.00000000000E+00 0.  1.
          2   -1    0    0  502    0  0.00000000000E+00 -0.00000000000E+00 -0.17757137032E+04  0.17757137032E+04  0.00000000000E+00 0. -1.
    9000005    1    1    2  502    0  0.38191458597E+02 -0.10232067252E+03 -0.90329240200E+03  0.99391411653E+03  0.40000000000E+03 0.  1.
   -9000005    1    1    2    0  501 -0.38191458597E+02  0.10232067252E+03 -0.77514395357E+03  0.87907693422E+03  0.40000000000E+03 0. -1.
<mgrwt>
<rscale>  2 0.41464214E+03</rscale>
<asrwt>0</asrwt>
<pdfrwt beam="1">  1        2 0.27318673E+00 0.41464214E+03</pdfrwt>
<pdfrwt beam="2">  1       -2 0.14965745E-01 0.41464214E+03</pdfrwt>
<totfact> 0.32907261E+02</totfact>
</mgrwt>
</event>
<event>
 4    1  0.2358610E-002  0.4361388E+03  0.7818608E-02  0.1031938E+00
         -1   -1    0    0    0  501 -0.00000000000E+00  0.00000000000E+00  0.17491259759E+03  0.17491259759E+03  0.00000000000E+00 0.  1.
          1   -1    0    0  502    0  0.00000000000E+00 -0.00000000000E+00 -0.10874979103E+04  0.10874979103E+04  0.00000000000E+00 0. -1.
    9000005    1    1    2  502    0 -0.12625547985E+03  0.11948478889E+03 -0.45651400185E+03  0.63136526262E+03  0.40000000000E+03 0. -1.
   -9000005    1    1    2    0  501  0.12625547985E+03 -0.11948478889E+03 -0.45607131084E+03  0.63104524524E+03  0.40000000000E+03 0.  1.
<mgrwt>
<rscale>  2 0.43613881E+03</rscale>
<asrwt>0</asrwt>
<pdfrwt beam="1">  1        1 0.16730737E+00 0.43613881E+03</pdfrwt>
<pdfrwt beam="2">  1       -1 0.26909630E-01 0.43613881E+03</pdfrwt>
<totfact> 0.16701573E+02</totfact>
</mgrwt>
</event>
<event>
 4    1  0.2358610E-002  0.4029154E+03  0.7818608E-02  0.1042775E+00
          1   -1    0    0  502    0  0.00000000000E+00  0.00000000000E+00  0.22607185313E+03  0.22607185313E+03  0.00000000000E+00 0.  1.
         -1   -1    0    0    0  501 -0.00000000000E+00 -0.00000000000E+00 -0.77036652272E+03  0.77036652272E+03  0.00000000000E+00 0. -1.
    9000005    1    1    2  502    0  0.91560821141E+01  0.47508125897E+02 -0.14236720292E+03  0.42732806640E+03  0.40000000000E+03 0.  1.
   -9000005    1    1    2    0  501 -0.91560821141E+01 -0.47508125897E+02 -0.40192746666E+03  0.56911030945E+03  0.40000000000E+03 0. -1.
<mgrwt>
<rscale>  2 0.40291545E+03</rscale>
<asrwt>0</asrwt>
<pdfrwt beam="1">  1        1 0.34780284E-01 0.40291545E+03</pdfrwt>
<pdfrwt beam="2">  1       -1 0.11851793E+00 0.40291545E+03</pdfrwt>
<totfact> 0.84705645E+01</totfact>
</mgrwt>
</event>
<event>
 4    1  0.2358610E-002  0.4793987E+03  0.7818608E-02  0.1019301E+00
          1   -1    0    0  502    0  0.00000000000E+00  0.00000000000E+00  0.50248346466E+03  0.50248346466E+03  0.00000000000E+00 0. -1.
         -1   -1    0    0    0  501 -0.00000000000E+00 -0.00000000000E+00 -0.59529361555E+03  0.59529361555E+03  0.00000000000E+00 0.  1.
    9000005    1    1    2  502    0  0.22664721960E+03 -0.13584607220E+03  0.21779370064E+03  0.52655219449E+03  0.40000000000E+03 0. -1.
   -9000005    1    1    2    0  501 -0.22664721960E+03  0.13584607220E+03 -0.31060385153E+03  0.57122488572E+03  0.40000000000E+03 0.  1.
<mgrwt>
<rscale>  2 0.47939870E+03</rscale>
<asrwt>0</asrwt>
<pdfrwt beam="1">  1        1 0.77305148E-01 0.47939870E+03</pdfrwt>
<pdfrwt beam="2">  1       -1 0.91583633E-01 0.47939870E+03</pdfrwt>
<totfact> 0.53712373E+01</totfact>
</mgrwt>
</event>
<event>
 4    1  0.2358610E-002  0.4818255E+03  0.7818608E-02  0.1018635E+00
         -2   -1    0    0    0  501 -0.00000000000E+00  0.00000000000E+00  0.26088161459E+03  0.26088161459E+03  0.00000000000E+00 0.  1.
          2   -1    0    0  502    0  0.00000000000E+00 -0.00000000000E+00 -0.90265286374E+03  0.90265286374E+03  0.00000000000E+00 0. -1.
    9000005    1    1    2  502    0 -0.70210564404E+02  0.25928031491E+03 -0.25170702803E+03  0.54361036875E+03  0.40000000000E+03 0.  1.
   -9000005    1    1    2    0  501  0.70210564404E+02 -0.25928031491E+03 -0.39006422112E+03  0.61992410959E+03  0.40000000000E+03 0. -1.
<mgrwt>
<rscale>  2 0.48182549E+03</rscale>
<asrwt>0</asrwt>
<pdfrwt beam="1">  1        2 0.13886967E+00 0.48182549E+03</pdfrwt>
<pdfrwt beam="2">  1       -2 0.40135633E-01 0.48182549E+03</pdfrwt>
<totfact> 0.17671688E+02</totfact>
</mgrwt>
</event>
<event>
 4    1  0.2358610E-002  0.4090189E+03  0.7818608E-02  0.1040701E+00
         -1   -1    0    0    0  501 -0.00000000000E+00  0.00000000000E+00  0.12144523178E+04  0.12144523178E+04  0.00000000000E+00 0. -1.
          1   -1    0    0  502    0  0.00000000000E+00 -0.00000000000E+00 -0.36277604508E+03  0.36277604508E+03  0.00000000000E+00 0.  1.
    9000005    1    1    2  502    0  0.67336719343E+02 -0.52556954844E+02  0.10469319129E+04  0.11239941715E+04  0.40000000000E+03 0. -1.
   -9000005    1    1    2    0  501 -0.67336719343E+02  0.52556954844E+02 -0.19525564014E+03  0.45323419143E+03  0.40000000000E+03 0.  1.
<mgrwt>
<rscale>  2 0.40901891E+03</rscale>
<asrwt>0</asrwt>
<pdfrwt beam="1">  1        1 0.55811700E-01 0.40901891E+03</pdfrwt>
<pdfrwt beam="2">  1       -1 0.18683882E+00 0.40901891E+03</pdfrwt>
<totfact> 0.13777532E+01</totfact>
</mgrwt>
</event>
<event>
 4    1  0.2358610E-002  0.4418804E+03  0.7818608E-02  0.1030171E+00
         -1   -1    0    0    0  501 -0.00000000000E+00  0.00000000000E+00  0.25771666904E+03  0.25771666904E+03  0.00000000000E+00 0.  1.
          1   -1    0    0  502    0  0.00000000000E+00 -0.00000000000E+00 -0.86638729802E+03  0.86638729802E+03  0.00000000000E+00 0. -1.
    9000005    1    1    2  502    0  0.11450225196E+03 -0.14882055688E+03 -0.50345546877E+03  0.66986993730E+03  0.40000000000E+03 0. -1.
   -9000005    1    1    2    0  501 -0.11450225196E+03  0.14882055688E+03 -0.10521516020E+03  0.45423402976E+03  0.40000000000E+03 0.  1.
<mgrwt>
<rscale>  2 0.44188044E+03</rscale>
<asrwt>0</asrwt>
<pdfrwt beam="1">  1        1 0.13329035E+00 0.44188044E+03</pdfrwt>
<pdfrwt beam="2">  1       -1 0.39648718E-01 0.44188044E+03</pdfrwt>
<totfact> 0.12569036E+02</totfact>
</mgrwt>
</event>
<event>
 4    1  0.2358610E-002  0.7130305E+03  0.7818608E-02  0.9695204E-01
         -1   -1    0    0    0  501 -0.00000000000E+00  0.00000000000E+00  0.48031344804E+03  0.48031344804E+03  0.00000000000E+00 0. -1.
          1   -1    0    0  502    0  0.00000000000E+00 -0.00000000000E+00 -0.15526996473E+04  0.15526996473E+04  0.00000000000E+00 0.  1.
    9000005    1    1    2  502    0 -0.24134505563E+03  0.53866966798E+03 -0.11096714970E+04  0.13190084451E+04  0.40000000000E+03 0.  1.
   -9000005    1    1    2    0  501  0.24134505563E+03 -0.53866966798E+03  0.37285297753E+02  0.71400465020E+03  0.40000000000E+03 0. -1.
<mgrwt>
<rscale>  2 0.71303047E+03</rscale>
<asrwt>0</asrwt>
<pdfrwt beam="1">  1        1 0.23887687E+00 0.71303047E+03</pdfrwt>
<pdfrwt beam="2">  1       -1 0.73894376E-01 0.71303047E+03</pdfrwt>
<totfact> 0.11583424E+01</totfact>
</mgrwt>
</event>
<event>
 4    1  0.2358610E-002  0.5038691E+03  0.7818608E-02  0.1012774E+00
         -2   -1    0    0    0  501 -0.00000000000E+00  0.00000000000E+00  0.99702871748E+03  0.99702871748E+03  0.00000000000E+00 0. -1.
          2   -1    0    0  502    0  0.00000000000E+00 -0.00000000000E+00 -0.25835580633E+03  0.25835580633E+03  0.00000000000E+00 0.  1.
    9000005    1    1    2  502    0 -0.30613580148E+03  0.12843618498E+02  0.29406618713E+03  0.58340295671E+03  0.40000000000E+03 0.  1.
   -9000005    1    1    2    0  501  0.30613580148E+03 -0.12843618498E+02  0.44460672401E+03  0.67198156710E+03  0.40000000000E+03 0.  1.
<mgrwt>
<rscale>  2 0.50386912E+03</rscale>
<asrwt>0</asrwt>
<pdfrwt beam="1">  1        2 0.39747048E-01 0.50386912E+03</pdfrwt>
<pdfrwt beam="2">  1       -2 0.15338903E+00 0.50386912E+03</pdfrwt>
<totfact> 0.37749511E+01</totfact>
</mgrwt>
</event>
<event>
 4    1  0.2358610E-002  0.4409614E+03  0.7818608E-02  0.1030452E+00
          2   -1    0    0  502    0  0.00000000000E+00  0.00000000000E+00  0.29735376509E+04  0.29735376509E+04  0.00000000000E+00 0.  1.
         -2   -1    0    0    0  501 -0.00000000000E+00 -0.00000000000E+00 -0.76376508981E+02  0.76376508981E+02  0.00000000000E+00 0. -1.
    9000005    1    1    2  502    0  0.33759810599E+02  0.18250274007E+03  0.87027319773E+03  0.97561386503E+03  0.40000000000E+03 0. -1.
   -9000005    1    1    2    0  501 -0.33759810599E+02 -0.18250274007E+03  0.20268879442E+04  0.20743002949E+04  0.40000000000E+03 0.  1.
<mgrwt>
<rscale>  2 0.44096142E+03</rscale>
<asrwt>0</asrwt>
<pdfrwt beam="1">  1        2 0.45746724E+00 0.44096142E+03</pdfrwt>
<pdfrwt beam="2">  1       -2 0.11750234E-01 0.44096142E+03</pdfrwt>
<totfact> 0.10573814E+02</totfact>
</mgrwt>
</event>
<event>
 4    1  0.2358610E-002  0.4129890E+03  0.7818608E-02  0.1039373E+00
         -2   -1    0    0    0  501 -0.00000000000E+00  0.00000000000E+00  0.27627793974E+03  0.27627793974E+03  0.00000000000E+00 0.  1.
          2   -1    0    0  502    0  0.00000000000E+00 -0.00000000000E+00 -0.96274450857E+03  0.96274450857E+03  0.00000000000E+00 0. -1.
    9000005    1    1    2  502    0 -0.23369813647E+01 -0.10273487427E+03  0.27833416731E+02  0.41392585684E+03  0.40000000000E+03 0.  1.
   -9000005    1    1    2    0  501  0.23369813647E+01  0.10273487427E+03 -0.71429998557E+03  0.82509659147E+03  0.40000000000E+03 0. -1.
<mgrwt>
<rscale>  2 0.41298900E+03</rscale>
<asrwt>0</asrwt>
<pdfrwt beam="1">  1        2 0.14811454E+00 0.41298900E+03</pdfrwt>
<pdfrwt beam="2">  1       -2 0.42504298E-01 0.41298900E+03</pdfrwt>
<totfact> 0.14549511E+02</totfact>
</mgrwt>
</event>
<event>
 4    1  0.2358610E-002  0.6302750E+03  0.7818608E-02  0.9844512E-01
         -2   -1    0    0    0  501 -0.00000000000E+00  0.00000000000E+00  0.10956844003E+03  0.10956844003E+03  0.00000000000E+00 0.  1.
          2   -1    0    0  502    0  0.00000000000E+00 -0.00000000000E+00 -0.48317336584E+04  0.48317336584E+04  0.00000000000E+00 0. -1.
    9000005    1    1    2  502    0  0.44253548210E+03 -0.20349183979E+03 -0.11266555078E+04  0.12909683245E+04  0.40000000000E+03 0.  1.
   -9000005    1    1    2    0  501 -0.44253548210E+03  0.20349183979E+03 -0.35955097106E+04  0.36503337739E+04  0.40000000000E+03 0. -1.
<mgrwt>
<rscale>  2 0.63027500E+03</rscale>
<asrwt>0</asrwt>
<pdfrwt beam="1">  1        2 0.74334359E+00 0.63027500E+03</pdfrwt>
<pdfrwt beam="2">  1       -2 0.16856684E-01 0.63027500E+03</pdfrwt>
<totfact> 0.18826573E+00</totfact>
</mgrwt>
</event>
<event>
 4    1  0.2358610E-002  0.6081121E+03  0.7818608E-02  0.9888717E-01
         -1   -1    0    0    0  501 -0.00000000000E+00  0.00000000000E+00  0.20568847497E+03  0.20568847497E+03  0.00000000000E+00 0. -1.
          1   -1    0    0  502    0  0.00000000000E+00 -0.00000000000E+00 -0.20081651661E+04  0.20081651661E+04  0.00000000000E+00 0.  1.
    9000005    1    1    2  502    0  0.39544743895E+03  0.23113126090E+03 -0.12594484775E+04  0.13985745615E+04  0.40000000000E+03 0.  1.
   -9000005    1    1    2    0  501 -0.39544743895E+03 -0.23113126090E+03 -0.54302821368E+03  0.81527907958E+03  0.40000000000E+03 0.  1.
<mgrwt>
<rscale>  2 0.60811211E+03</rscale>
<asrwt>0</asrwt>
<pdfrwt beam="1">  1        1 0.30894849E+00 0.60811211E+03</pdfrwt>
<pdfrwt beam="2">  1       -1 0.31644380E-01 0.60811211E+03</pdfrwt>
<totfact> 0.28959223E+01</totfact>
</mgrwt>
</event>
<event>
 4    1  0.2358610E-002  0.4972279E+03  0.7818608E-02  0.1014505E+00
         -2   -1    0    0    0  501 -0.00000000000E+00  0.00000000000E+00  0.35701689084E+03  0.35701689084E+03  0.00000000000E+00 0. -1.
          2   -1    0    0  502    0  0.00000000000E+00 -0.00000000000E+00 -0.12102318552E+04  0.12102318552E+04  0.00000000000E+00 0.  1.
    9000005    1    1    2  502    0  0.27979543053E+03 -0.94604927026E+02  0.85928629448E+02  0.50459816143E+03  0.40000000000E+03 0. -1.
   -9000005    1    1    2    0  501 -0.27979543053E+03  0.94604927026E+02 -0.93914359382E+03  0.10626505846E+04  0.40000000000E+03 0.  1.
<mgrwt>
<rscale>  2 0.49722789E+03</rscale>
<asrwt>0</asrwt>
<pdfrwt beam="1">  1        2 0.18618951E+00 0.49722789E+03</pdfrwt>
<pdfrwt beam="2">  1       -2 0.54925676E-01 0.49722789E+03</pdfrwt>
<totfact> 0.60927919E+01</totfact>
</mgrwt>
</event>
<event>
 4    1  0.2358610E-002  0.4024943E+03  0.7818608E-02  0.1042919E+00
         -1   -1    0    0    0  501 -0.00000000000E+00  0.00000000000E+00  0.29623063681E+03  0.29623063681E+03  0.00000000000E+00 0.  1.
          1   -1    0    0  502    0  0.00000000000E+00 -0.00000000000E+00 -0.59129731929E+03  0.59129731929E+03  0.00000000000E+00 0. -1.
    9000005    1    1    2  502    0  0.44681598767E+02  0.22762612609E+01 -0.26916356401E+03  0.48420104381E+03  0.40000000000E+03 0. -1.
   -9000005    1    1    2    0  501 -0.44681598767E+02 -0.22762612609E+01 -0.25903118463E+02  0.40332691229E+03  0.40000000000E+03 0.  1.
<mgrwt>
<rscale>  2 0.40249426E+03</rscale>
<asrwt>0</asrwt>
<pdfrwt beam="1">  1        1 0.90968818E-01 0.40249426E+03</pdfrwt>
<pdfrwt beam="2">  1       -1 0.45573944E-01 0.40249426E+03</pdfrwt>
<totfact> 0.17414368E+02</totfact>
</mgrwt>
</event>
<event>
 4    1  0.2358610E-002  0.4121177E+03  0.7818608E-02  0.1039663E+00
          1   -1    0    0  502    0  0.00000000000E+00  0.00000000000E+00  0.19430222519E+03  0.19430222519E+03  0.00000000000E+00 0. -1.
         -1   -1    0    0    0  501 -0.00000000000E+00 -0.00000000000E+00 -0.93363406731E+03  0.93363406731E+03  0.00000000000E+00 0.  1.
    9000005    1    1    2  502    0  0.99011545479E+02 -0.61396341498E+01 -0.22726178343E+03  0.47062607180E+03  0.40000000000E+03 0. -1.
   -9000005    1    1    2    0  501 -0.99011545479E+02  0.61396341498E+01 -0.51207005868E+03  0.65731022071E+03  0.40000000000E+03 0.  1.
<mgrwt>
<rscale>  2 0.41211768E+03</rscale>
<asrwt>0</asrwt>
<pdfrwt beam="1">  1        1 0.29892650E-01 0.41211768E+03</pdfrwt>
<pdfrwt beam="2">  1       -1 0.14363601E+00 0.41211768E+03</pdfrwt>
<totfact> 0.63575117E+01</totfact>
</mgrwt>
</event>
<event>
 4    1  0.2358610E-002  0.5015244E+03  0.7818608E-02  0.1013382E+00
         -1   -1    0    0    0  501 -0.00000000000E+00  0.00000000000E+00  0.15467062148E+03  0.15467062148E+03  0.00000000000E+00 0.  1.
          1   -1    0    0  502    0  0.00000000000E+00 -0.00000000000E+00 -0.16262873635E+04  0.16262873635E+04  0.00000000000E+00 0. -1.
    9000005    1    1    2  502    0 -0.12015120347E+03 -0.27765159741E+03 -0.72961800675E+03  0.88536385572E+03  0.40000000000E+03 0.  1.
   -9000005    1    1    2    0  501  0.12015120347E+03  0.27765159741E+03 -0.74199873528E+03  0.89559412928E+03  0.40000000000E+03 0.  1.
<mgrwt>
<rscale>  2 0.50152440E+03</rscale>
<asrwt>0</asrwt>
<pdfrwt beam="1">  1        1 0.25019807E+00 0.50152440E+03</pdfrwt>
<pdfrwt beam="2">  1       -1 0.23795479E-01 0.50152440E+03</pdfrwt>
<totfact> 0.86160856E+01</totfact>
</mgrwt>
</event>
<event>
 4    1  0.2358610E-002  0.4245371E+03  0.7818608E-02  0.1035600E+00
         -2   -1    0    0    0  501 -0.00000000000E+00  0.00000000000E+00  0.93804439349E+03  0.93804439349E+03  0.00000000000E+00 0.  1.
          2   -1    0    0  502    0  0.00000000000E+00 -0.00000000000E+00 -0.37293850719E+03  0.37293850719E+03  0.00000000000E+00 0. -1.
    9000005    1    1    2  502    0 -0.60190529773E+02  0.12887537487E+03  0.73895865535E+03  0.85222746754E+03  0.40000000000E+03 0.  1.
   -9000005    1    1    2    0  501  0.60190529773E+02 -0.12887537487E+03 -0.17385276905E+03  0.45875543313E+03  0.40000000000E+03 0. -1.
<mgrwt>
<rscale>  2 0.42453712E+03</rscale>
<asrwt>0</asrwt>
<pdfrwt beam="1">  1        2 0.57375155E-01 0.42453712E+03</pdfrwt>
<pdfrwt beam="2">  1       -2 0.14431452E+00 0.42453712E+03</pdfrwt>
<totfact> 0.29813896E+01</totfact>
</mgrwt>
</event>
<event>
 4    1  0.2358610E-002  0.5027919E+03  0.7818608E-02  0.1013053E+00
         -1   -1    0    0    0  501 -0.00000000000E+00  0.00000000000E+00  0.39358987299E+03  0.39358987299E+03  0.00000000000E+00 0. -1.
          1   -1    0    0  502    0  0.00000000000E+00 -0.00000000000E+00 -0.91816374735E+03  0.91816374735E+03  0.00000000000E+00 0.  1.
    9000005    1    1    2  502    0 -0.28139311453E+03  0.11669444643E+03 -0.62180086014E+03  0.79964741505E+03  0.40000000000E+03 0.  1.
   -9000005    1    1    2    0  501  0.28139311453E+03 -0.11669444643E+03  0.97226985776E+02  0.51210620529E+03  0.40000000000E+03 0. -1.
<mgrwt>
<rscale>  2 0.50279188E+03</rscale>
<asrwt>0</asrwt>
<pdfrwt beam="1">  1        1 0.14125596E+00 0.50279188E+03</pdfrwt>
<pdfrwt beam="2">  1       -1 0.60552288E-01 0.50279188E+03</pdfrwt>
<totfact> 0.51240795E+01</totfact>
</mgrwt>
</event>
<event>
 4    1  0.2358610E-002  0.5011892E+03  0.7818608E-02  0.1013469E+00
          1   -1    0    0  502    0  0.00000000000E+00  0.00000000000E+00  0.15145995142E+04  0.15145995142E+04  0.00000000000E+00 0.  1.
         -1   -1    0    0    0  501 -0.00000000000E+00 -0.00000000000E+00 -0.23674558785E+03  0.23674558785E+03  0.00000000000E+00 0. -1.
    9000005    1    1    2  502    0 -0.20049009180E+03 -0.22581919089E+03  0.11181327039E+04  0.12253209080E+04  0.40000000000E+03 0. -1.
   -9000005    1    1    2    0  501  0.20049009180E+03  0.22581919089E+03  0.15972122242E+03  0.52602419410E+03  0.40000000000E+03 0.  1.
<mgrwt>
<rscale>  2 0.50118917E+03</rscale>
<asrwt>0</asrwt>
<pdfrwt beam="1">  1        1 0.23301530E+00 0.50118917E+03</pdfrwt>
<pdfrwt beam="2">  1       -1 0.36422399E-01 0.50118917E+03</pdfrwt>
<totfact> 0.49097787E+01</totfact>
</mgrwt>
</event>
<event>
 4    1  0.2358610E-002  0.4108202E+03  0.7818608E-02  0.1040096E+00
          1   -1    0    0  502    0  0.00000000000E+00  0.00000000000E+00  0.68240181520E+03  0.68240181520E+03  0.00000000000E+00 0. -1.
         -1   -1    0    0    0  501 -0.00000000000E+00 -0.00000000000E+00 -0.38569399970E+03  0.38569399970E+03  0.00000000000E+00 0.  1.
    9000005    1    1    2  502    0  0.74376090173E+02 -0.56933448298E+02 -0.17152259297E+03  0.44518897136E+03  0.40000000000E+03 0.  1.
   -9000005    1    1    2    0  501 -0.74376090173E+02  0.56933448298E+02  0.46823040846E+03  0.62290684355E+03  0.40000000000E+03 0. -1.
<mgrwt>
<rscale>  2 0.41082018E+03</rscale>
<asrwt>0</asrwt>
<pdfrwt beam="1">  1        1 0.10498489E+00 0.41082018E+03</pdfrwt>
<pdfrwt beam="2">  1       -1 0.59337539E-01 0.41082018E+03</pdfrwt>
<totfact> 0.86026816E+01</totfact>
</mgrwt>
</event>
<event>
 4    1  0.2358610E-002  0.5303236E+03  0.7818608E-02  0.1006154E+00
         -1   -1    0    0    0  501 -0.00000000000E+00  0.00000000000E+00  0.15906559639E+03  0.15906559639E+03  0.00000000000E+00 0. -1.
          1   -1    0    0  502    0  0.00000000000E+00 -0.00000000000E+00 -0.17890295141E+04  0.17890295141E+04  0.00000000000E+00 0.  1.
    9000005    1    1    2  502    0  0.21778732648E+03  0.27168322187E+03 -0.70961549732E+03  0.88588782962E+03  0.40000000000E+03 0. -1.
   -9000005    1    1    2    0  501 -0.21778732648E+03 -0.27168322187E+03 -0.92034842041E+03  0.10622072809E+04  0.40000000000E+03 0. -1.
<mgrwt>
<rscale>  2 0.53032357E+03</rscale>
<asrwt>0</asrwt>
<pdfrwt beam="1">  1        1 0.27523531E+00 0.53032357E+03</pdfrwt>
<pdfrwt beam="2">  1       -1 0.24471631E-01 0.53032357E+03</pdfrwt>
<totfact> 0.63755803E+01</totfact>
</mgrwt>
</event>
<event>
 4    1  0.2358610E-002  0.4578996E+03  0.7818608E-02  0.1025392E+00
         -2   -1    0    0    0  501 -0.00000000000E+00  0.00000000000E+00  0.64911659320E+02  0.64911659320E+02  0.00000000000E+00 0. -1.
          2   -1    0    0  502    0  0.00000000000E+00 -0.00000000000E+00 -0.33303520597E+04  0.33303520597E+04  0.00000000000E+00 0.  1.
    9000005    1    1    2  502    0 -0.21300771896E+03 -0.65572560423E+02 -0.19272404231E+04  0.19808906324E+04  0.40000000000E+03 0. -1.
   -9000005    1    1    2    0  501  0.21300771896E+03  0.65572560423E+02 -0.13381999772E+04  0.14143730866E+04  0.40000000000E+03 0. -1.
<mgrwt>
<rscale>  2 0.45789961E+03</rscale>
<asrwt>0</asrwt>
<pdfrwt beam="1">  1        2 0.51236197E+00 0.45789961E+03</pdfrwt>
<pdfrwt beam="2">  1       -2 0.99864069E-02 0.45789961E+03</pdfrwt>
<totfact> 0.82327715E+01</totfact>
</mgrwt>
</event>
<event>
 4    1  0.2358610E-002  0.4088699E+03  0.7818608E-02  0.1040751E+00
         -1   -1    0    0    0  501 -0.00000000000E+00  0.00000000000E+00  0.11705329932E+03  0.11705329932E+03  0.00000000000E+00 0.  1.
          1   -1    0    0  502    0  0.00000000000E+00 -0.00000000000E+00 -0.15328194327E+04  0.15328194327E+04  0.00000000000E+00 0. -1.
    9000005    1    1    2  502    0 -0.83457722717E+02  0.14471763409E+02 -0.49235835874E+03  0.63999326312E+03  0.40000000000E+03 0.  1.
   -9000005    1    1    2    0  501  0.83457722717E+02 -0.14471763409E+02 -0.92340777460E+03  0.10098794688E+04  0.40000000000E+03 0. -1.
<mgrwt>
<rscale>  2 0.40886993E+03</rscale>
<asrwt>0</asrwt>
<pdfrwt beam="1">  1        1 0.23581838E+00 0.40886993E+03</pdfrwt>
<pdfrwt beam="2">  1       -1 0.18008200E-01 0.40886993E+03</pdfrwt>
<totfact> 0.16006274E+02</totfact>
</mgrwt>
</event>
<event>
 4    1  0.2358610E-002  0.4249854E+03  0.7818608E-02  0.1035456E+00
         -2   -1    0    0    0  501 -0.00000000000E+00  0.00000000000E+00  0.31409901510E+03  0.31409901510E+03  0.00000000000E+00 0. -1.
          2   -1    0    0  502    0  0.00000000000E+00 -0.00000000000E+00 -0.57722859387E+03  0.57722859387E+03  0.00000000000E+00 0.  1.
    9000005    1    1    2  502    0 -0.11299963128E+03 -0.88564478167E+02 -0.15914446660E+03  0.45380562437E+03  0.40000000000E+03 0.  1.
   -9000005    1    1    2    0  501  0.11299963128E+03  0.88564478167E+02 -0.10398511217E+03  0.43752198461E+03  0.40000000000E+03 0.  1.
<mgrwt>
<rscale>  2 0.42498539E+03</rscale>
<asrwt>0</asrwt>
<pdfrwt beam="1">  1        2 0.88804398E-01 0.42498539E+03</pdfrwt>
<pdfrwt beam="2">  1       -2 0.48322926E-01 0.42498539E+03</pdfrwt>
<totfact> 0.21642863E+02</totfact>
</mgrwt>
</event>
<event>
 4    1  0.2358610E-002  0.5367863E+03  0.7818608E-02  0.1004599E+00
         -1   -1    0    0    0  501 -0.00000000000E+00  0.00000000000E+00  0.10123476843E+04  0.10123476843E+04  0.00000000000E+00 0.  1.
          1   -1    0    0  502    0  0.00000000000E+00 -0.00000000000E+00 -0.35004647085E+03  0.35004647085E+03  0.00000000000E+00 0. -1.
    9000005    1    1    2  502    0 -0.35179877128E+03 -0.66159848398E+02  0.36661021227E+02  0.53803673805E+03  0.40000000000E+03 0. -1.
   -9000005    1    1    2    0  501  0.35179877128E+03  0.66159848398E+02  0.62564019223E+03  0.82435741711E+03  0.40000000000E+03 0.  1.
<mgrwt>
<rscale>  2 0.53678627E+03</rscale>
<asrwt>0</asrwt>
<pdfrwt beam="1">  1        1 0.53853304E-01 0.53678627E+03</pdfrwt>
<pdfrwt beam="2">  1       -1 0.15574580E+00 0.53678627E+03</pdfrwt>
<totfact> 0.23693987E+01</totfact>
</mgrwt>
</event>
<event>
 4    1  0.2358610E-002  0.4992609E+03  0.7818608E-02  0.1013972E+00
         -2   -1    0    0    0  501 -0.00000000000E+00  0.00000000000E+00  0.21912892236E+03  0.21912892236E+03  0.00000000000E+00 0.  1.
          2   -1    0    0  502    0  0.00000000000E+00 -0.00000000000E+00 -0.12503085847E+04  0.12503085847E+04  0.00000000000E+00 0. -1.
    9000005    1    1    2  502    0  0.29624572926E+03  0.38728922722E+02 -0.29490967624E+03  0.57985617070E+03  0.40000000000E+03 0.  1.
   -9000005    1    1    2    0  501 -0.29624572926E+03 -0.38728922722E+02 -0.73626998613E+03  0.88958133638E+03  0.40000000000E+03 0. -1.
<mgrwt>
<rscale>  2 0.49926092E+03</rscale>
<asrwt>0</asrwt>
<pdfrwt beam="1">  1        2 0.19235517E+00 0.49926092E+03</pdfrwt>
<pdfrwt beam="2">  1       -2 0.33712141E-01 0.49926092E+03</pdfrwt>
<totfact> 0.15079634E+02</totfact>
</mgrwt>
</event>
<event>
 4    1  0.2358610E-002  0.8000462E+03  0.7818608E-02  0.9559950E-01
         -1   -1    0    0    0  501 -0.00000000000E+00  0.00000000000E+00  0.41607450311E+03  0.41607450311E+03  0.00000000000E+00 0. -1.
          1   -1    0    0  502    0  0.00000000000E+00 -0.00000000000E+00 -0.15385170867E+04  0.15385170867E+04  0.00000000000E+00 0.  1.
    9000005    1    1    2  502    0 -0.65203705137E+03 -0.23435358290E+03 -0.55146357958E+03  0.97169233700E+03  0.40000000000E+03 0.  1.
   -9000005    1    1    2    0  501  0.65203705137E+03  0.23435358290E+03 -0.57097900401E+03  0.98289925282E+03  0.40000000000E+03 0.  1.
<mgrwt>
<rscale>  2 0.80004620E+03</rscale>
<asrwt>0</asrwt>
<pdfrwt beam="1">  1        1 0.23669494E+00 0.80004620E+03</pdfrwt>
<pdfrwt beam="2">  1       -1 0.64011462E-01 0.80004620E+03</pdfrwt>
<totfact> 0.15676550E+01</totfact>
</mgrwt>
</event>
<event>
 4    1  0.2358610E-002  0.4899241E+03  0.7818608E-02  0.1016443E+00
          1   -1    0    0  502    0  0.00000000000E+00  0.00000000000E+00  0.35580213149E+04  0.35580213149E+04  0.00000000000E+00 0.  1.
         -1   -1    0    0    0  501 -0.00000000000E+00 -0.00000000000E+00 -0.67667161653E+02  0.67667161653E+02  0.00000000000E+00 0. -1.
    9000005    1    1    2  502    0  0.26008560358E+03  0.11127038899E+03  0.18453806084E+04  0.19093075212E+04  0.40000000000E+03 0.  1.
   -9000005    1    1    2    0  501 -0.26008560358E+03 -0.11127038899E+03  0.16449735449E+04  0.17163809554E+04  0.40000000000E+03 0.  1.
<mgrwt>
<rscale>  2 0.48992410E+03</rscale>
<asrwt>0</asrwt>
<pdfrwt beam="1">  1        1 0.54738775E+00 0.48992410E+03</pdfrwt>
<pdfrwt beam="2">  1       -1 0.10410335E-01 0.48992410E+03</pdfrwt>
<totfact> 0.15100287E+01</totfact>
</mgrwt>
</event>
<event>
 4    1  0.2358610E-002  0.4626262E+03  0.7818608E-02  0.1024022E+00
          2   -1    0    0  502    0  0.00000000000E+00  0.00000000000E+00  0.20223553210E+04  0.20223553210E+04  0.00000000000E+00 0.  1.
         -2   -1    0    0    0  501 -0.00000000000E+00 -0.00000000000E+00 -0.10666181287E+03  0.10666181287E+03  0.00000000000E+00 0. -1.
    9000005    1    1    2  502    0 -0.17202265795E+03  0.15630486192E+03  0.10519330182E+04  0.11491675593E+04  0.40000000000E+03 0. -1.
   -9000005    1    1    2    0  501  0.17202265795E+03 -0.15630486192E+03  0.86376048994E+03  0.97984957452E+03  0.40000000000E+03 0.  1.
<mgrwt>
<rscale>  2 0.46262620E+03</rscale>
<asrwt>0</asrwt>
<pdfrwt beam="1">  1        2 0.31113156E+00 0.46262620E+03</pdfrwt>
<pdfrwt beam="2">  1       -2 0.16409511E-01 0.46262620E+03</pdfrwt>
<totfact> 0.20659183E+02</totfact>
</mgrwt>
</event>
<event>
 4    1  0.2358610E-002  0.4469509E+03  0.7818608E-02  0.1028635E+00
         -2   -1    0    0    0  501 -0.00000000000E+00  0.00000000000E+00  0.30637119343E+03  0.30637119343E+03  0.00000000000E+00 0. -1.
          2   -1    0    0  502    0  0.00000000000E+00 -0.00000000000E+00 -0.73931784257E+03  0.73931784257E+03  0.00000000000E+00 0.  1.
    9000005    1    1    2  502    0 -0.16142867191E+03  0.11707224729E+03 -0.36827027158E+02  0.44846555846E+03  0.40000000000E+03 0. -1.
   -9000005    1    1    2    0  501  0.16142867191E+03 -0.11707224729E+03 -0.39611962198E+03  0.59722347753E+03  0.40000000000E+03 0.  1.
<mgrwt>
<rscale>  2 0.44695092E+03</rscale>
<asrwt>0</asrwt>
<pdfrwt beam="1">  1        2 0.11374121E+00 0.44695092E+03</pdfrwt>
<pdfrwt beam="2">  1       -2 0.47134030E-01 0.44695092E+03</pdfrwt>
<totfact> 0.16806668E+02</totfact>
</mgrwt>
</event>
<event>
 4    1  0.2358610E-002  0.5237870E+03  0.7818608E-02  0.1007750E+00
         -2   -1    0    0    0  501 -0.00000000000E+00  0.00000000000E+00  0.41291185490E+03  0.41291185490E+03  0.00000000000E+00 0.  1.
          2   -1    0    0  502    0  0.00000000000E+00 -0.00000000000E+00 -0.73999381426E+03  0.73999381426E+03  0.00000000000E+00 0. -1.
    9000005    1    1    2  502    0  0.74889028359E+02 -0.32976418976E+03 -0.34774300271E+03  0.62871136728E+03  0.40000000000E+03 0.  1.
   -9000005    1    1    2    0  501 -0.74889028359E+02  0.32976418976E+03  0.20661043348E+02  0.52419430188E+03  0.40000000000E+03 0.  1.
<mgrwt>
<rscale>  2 0.52378697E+03</rscale>
<asrwt>0</asrwt>
<pdfrwt beam="1">  1        2 0.11384520E+00 0.52378697E+03</pdfrwt>
<pdfrwt beam="2">  1       -2 0.63524901E-01 0.52378697E+03</pdfrwt>
<totfact> 0.90164297E+01</totfact>
</mgrwt>
</event>
<event>
 4    1  0.2358610E-002  0.4815839E+03  0.7818608E-02  0.1018701E+00
          1   -1    0    0  502    0  0.00000000000E+00  0.00000000000E+00  0.41353599202E+03  0.41353599202E+03  0.00000000000E+00 0.  1.
         -1   -1    0    0    0  501 -0.00000000000E+00 -0.00000000000E+00 -0.60113870970E+03  0.60113870970E+03  0.00000000000E+00 0. -1.
    9000005    1    1    2  502    0 -0.15360683801E+03 -0.21983637565E+03  0.37573667237E+02  0.48304748546E+03  0.40000000000E+03 0.  1.
   -9000005    1    1    2    0  501  0.15360683801E+03  0.21983637565E+03 -0.22517638491E+03  0.53162721626E+03  0.40000000000E+03 0. -1.
<mgrwt>
<rscale>  2 0.48158394E+03</rscale>
<asrwt>0</asrwt>
<pdfrwt beam="1">  1        1 0.63620922E-01 0.48158394E+03</pdfrwt>
<pdfrwt beam="2">  1       -1 0.92482878E-01 0.48158394E+03</pdfrwt>
<totfact> 0.68180582E+01</totfact>
</mgrwt>
</event>
<event>
 4    1  0.2358610E-002  0.4192832E+03  0.7818608E-02  0.1037300E+00
         -2   -1    0    0    0  501 -0.00000000000E+00  0.00000000000E+00  0.17474469307E+03  0.17474469307E+03  0.00000000000E+00 0. -1.
          2   -1    0    0  502    0  0.00000000000E+00 -0.00000000000E+00 -0.11811357961E+04  0.11811357961E+04  0.00000000000E+00 0.  1.
    9000005    1    1    2  502    0 -0.11106290235E+03  0.58851137017E+02 -0.24216483742E+03  0.48419235133E+03  0.40000000000E+03 0. -1.
   -9000005    1    1    2    0  501  0.11106290235E+03 -0.58851137017E+02 -0.76422626560E+03  0.87168813783E+03  0.40000000000E+03 0.  1.
<mgrwt>
<rscale>  2 0.41928323E+03</rscale>
<asrwt>0</asrwt>
<pdfrwt beam="1">  1        2 0.18171321E+00 0.41928323E+03</pdfrwt>
<pdfrwt beam="2">  1       -2 0.26883798E-01 0.41928323E+03</pdfrwt>
<totfact> 0.25309093E+02</totfact>
</mgrwt>
</event>
<event>
 4    1  0.2358610E-002  0.6354391E+03  0.7818608E-02  0.9834492E-01
          2   -1    0    0  502    0  0.00000000000E+00  0.00000000000E+00  0.33626525017E+03  0.33626525017E+03  0.00000000000E+00 0. -1.
         -2   -1    0    0    0  501 -0.00000000000E+00 -0.00000000000E+00 -0.12121658977E+04  0.12121658977E+04  0.00000000000E+00 0.  1.
    9000005    1    1    2  502    0 -0.24441782572E+03 -0.42900201084E+03 -0.51296375535E+03  0.81664840240E+03  0.40000000000E+03 0.  1.
   -9000005    1    1    2    0  501  0.24441782572E+03  0.42900201084E+03 -0.36293689214E+03  0.73178274544E+03  0.40000000000E+03 0. -1.
<mgrwt>
<rscale>  2 0.63543906E+03</rscale>
<asrwt>0</asrwt>
<pdfrwt beam="1">  1        2 0.51733116E-01 0.63543906E+03</pdfrwt>
<pdfrwt beam="2">  1       -2 0.18648706E+00 0.63543906E+03</pdfrwt>
<totfact> 0.16251122E+01</totfact>
</mgrwt>
</event>
<event>
 4    1  0.2358610E-002  0.4758292E+03  0.7818608E-02  0.1020288E+00
          1   -1    0    0  502    0  0.00000000000E+00  0.00000000000E+00  0.14312688161E+03  0.14312688161E+03  0.00000000000E+00 0. -1.
         -1   -1    0    0    0  501 -0.00000000000E+00 -0.00000000000E+00 -0.17217066384E+04  0.17217066384E+04  0.00000000000E+00 0.  1.
    9000005    1    1    2  502    0  0.23002534766E+03 -0.11619712419E+03 -0.10549848536E+04  0.11573272975E+04  0.40000000000E+03 0.  1.
   -9000005    1    1    2    0  501 -0.23002534766E+03  0.11619712419E+03 -0.52359490320E+03  0.70750622251E+03  0.40000000000E+03 0.  1.
<mgrwt>
<rscale>  2 0.47582920E+03</rscale>
<asrwt>0</asrwt>
<pdfrwt beam="1">  1        1 0.22019520E-01 0.47582920E+03</pdfrwt>
<pdfrwt beam="2">  1       -1 0.26487795E+00 0.47582920E+03</pdfrwt>
<totfact> 0.13846956E+01</totfact>
</mgrwt>
</event>
<event>
 4    1  0.2358610E-002  0.4352933E+03  0.7818608E-02  0.1032201E+00
         -1   -1    0    0    0  501 -0.00000000000E+00  0.00000000000E+00  0.71678486411E+03  0.71678486411E+03  0.00000000000E+00 0. -1.
          1   -1    0    0  502    0  0.00000000000E+00 -0.00000000000E+00 -0.26989829996E+03  0.26989829996E+03  0.00000000000E+00 0.  1.
    9000005    1    1    2  502    0 -0.12947383406E+03  0.11276859816E+03  0.29419361951E+03  0.52538568328E+03  0.40000000000E+03 0.  1.
   -9000005    1    1    2    0  501  0.12947383406E+03 -0.11276859816E+03  0.15269294464E+03  0.46129748079E+03  0.40000000000E+03 0.  1.
<mgrwt>
<rscale>  2 0.43529327E+03</rscale>
<asrwt>0</asrwt>
<pdfrwt beam="1">  1        1 0.41522816E-01 0.43529327E+03</pdfrwt>
<pdfrwt beam="2">  1       -1 0.11027459E+00 0.43529327E+03</pdfrwt>
<totfact> 0.79801000E+01</totfact>
</mgrwt>
</event>
<event>
 4    1  0.2358610E-002  0.4113359E+03  0.7818608E-02  0.1039924E+00
         -2   -1    0    0    0  501 -0.00000000000E+00  0.00000000000E+00  0.22465040990E+03  0.22465040990E+03  0.00000000000E+00 0. -1.
          2   -1    0    0  502    0  0.00000000000E+00 -0.00000000000E+00 -0.80534316070E+03  0.80534316070E+03  0.00000000000E+00 0.  1.
    9000005    1    1    2  502    0  0.25735538402E+02  0.92384453299E+02 -0.42144207254E+03  0.58890629616E+03  0.40000000000E+03 0.  1.
   -9000005    1    1    2    0  501 -0.25735538402E+02 -0.92384453299E+02 -0.15925067826E+03  0.44108727444E+03  0.40000000000E+03 0.  1.
<mgrwt>
<rscale>  2 0.41133588E+03</rscale>
<asrwt>0</asrwt>
<pdfrwt beam="1">  1        2 0.12389895E+00 0.41133588E+03</pdfrwt>
<pdfrwt beam="2">  1       -2 0.34561602E-01 0.41133588E+03</pdfrwt>
<totfact> 0.27546908E+02</totfact>
</mgrwt>
</event>
<event>
 4    1  0.2358610E-002  0.4279080E+03  0.7818608E-02  0.1034523E+00
          1   -1    0    0  502    0  0.00000000000E+00  0.00000000000E+00  0.14351382894E+04  0.14351382894E+04  0.00000000000E+00 0.  1.
         -1   -1    0    0    0  501 -0.00000000000E+00 -0.00000000000E+00 -0.13315632091E+03  0.13315632091E+03  0.00000000000E+00 0. -1.
    9000005    1    1    2  502    0 -0.11270878100E+03  0.10199013343E+03  0.49062560748E+03  0.65101362762E+03  0.40000000000E+03 0. -1.
   -9000005    1    1    2    0  501  0.11270878100E+03 -0.10199013343E+03  0.81135636098E+03  0.91728098265E+03  0.40000000000E+03 0.  1.
<mgrwt>
<rscale>  2 0.42790800E+03</rscale>
<asrwt>0</asrwt>
<pdfrwt beam="1">  1        1 0.22079049E+00 0.42790800E+03</pdfrwt>
<pdfrwt beam="2">  1       -1 0.20485589E-01 0.42790800E+03</pdfrwt>
<totfact> 0.15035213E+02</totfact>
</mgrwt>
</event>
<event>
 4    1  0.2358610E-002  0.4038328E+03  0.7818608E-02  0.1042461E+00
          2   -1    0    0  502    0  0.00000000000E+00  0.00000000000E+00  0.32528145328E+04  0.32528145328E+04  0.00000000000E+00 0.  1.
         -2   -1    0    0    0  501 -0.00000000000E+00 -0.00000000000E+00 -0.61063155640E+02  0.61063155640E+02  0.00000000000E+00 0. -1.
    9000005    1    1    2  502    0 -0.48290489635E+02 -0.27367494036E+02  0.22968201476E+04  0.23320514020E+04  0.40000000000E+03 0.  1.
   -9000005    1    1    2    0  501  0.48290489635E+02  0.27367494036E+02  0.89493122957E+03  0.98182628646E+03  0.40000000000E+03 0. -1.
<mgrwt>
<rscale>  2 0.40383283E+03</rscale>
<asrwt>0</asrwt>
<pdfrwt beam="1">  1        2 0.50043287E+00 0.40383283E+03</pdfrwt>
<pdfrwt beam="2">  1       -2 0.93943342E-02 0.40383283E+03</pdfrwt>
<totfact> 0.10314332E+02</totfact>
</mgrwt>
</event>
<event>
 4    1  0.2358610E-002  0.5188807E+03  0.7818608E-02  0.1008965E+00
          1   -1    0    0  502    0  0.00000000000E+00  0.00000000000E+00  0.43546256715E+03  0.43546256715E+03  0.00000000000E+00 0.  1.
         -1   -1    0    0    0  501 -0.00000000000E+00 -0.00000000000E+00 -0.10210353534E+04  0.10210353534E+04  0.00000000000E+00 0. -1.
    9000005    1    1    2  502    0  0.70073792454E+02 -0.32299661136E+03  0.16459758488E+03  0.54436156393E+03  0.40000000000E+03 0.  1.
   -9000005    1    1    2    0  501 -0.70073792454E+02  0.32299661136E+03 -0.75017037110E+03  0.91213635659E+03  0.40000000000E+03 0. -1.
<mgrwt>
<rscale>  2 0.51888067E+03</rscale>
<asrwt>0</asrwt>
<pdfrwt beam="1">  1        1 0.66994242E-01 0.51888067E+03</pdfrwt>
<pdfrwt beam="2">  1       -1 0.15708236E+00 0.51888067E+03</pdfrwt>
<totfact> 0.17431132E+01</totfact>
</mgrwt>
</event>
<event>
 4    1  0.2358610E-002  0.5365126E+03  0.7818608E-02  0.1004665E+00
          2   -1    0    0  502    0  0.00000000000E+00  0.00000000000E+00  0.16756517286E+04  0.16756517286E+04  0.00000000000E+00 0.  1.
         -2   -1    0    0    0  501 -0.00000000000E+00 -0.00000000000E+00 -0.17744679092E+03  0.17744679092E+03  0.00000000000E+00 0. -1.
    9000005    1    1    2  502    0 -0.44317868516E+02 -0.35479811988E+03  0.58354459173E+03  0.79269796889E+03  0.40000000000E+03 0. -1.
   -9000005    1    1    2    0  501  0.44317868516E+02  0.35479811988E+03  0.91466034592E+03  0.10604005506E+04  0.40000000000E+03 0.  1.
<mgrwt>
<rscale>  2 0.53651261E+03</rscale>
<asrwt>0</asrwt>
<pdfrwt beam="1">  1        2 0.25779256E+00 0.53651261E+03</pdfrwt>
<pdfrwt beam="2">  1       -2 0.27299507E-01 0.53651261E+03</pdfrwt>
<totfact> 0.12882420E+02</totfact>
</mgrwt>
</event>
<event>
 4    1  0.2358610E-002  0.5069295E+03  0.7818608E-02  0.1011986E+00
          2   -1    0    0  502    0  0.00000000000E+00  0.00000000000E+00  0.31477775443E+03  0.31477775443E+03  0.00000000000E+00 0. -1.
         -2   -1    0    0    0  501 -0.00000000000E+00 -0.00000000000E+00 -0.12078765766E+04  0.12078765766E+04  0.00000000000E+00 0.  1.
    9000005    1    1    2  502    0  0.18725919386E+02  0.31084864917E+03 -0.87998573125E+03  0.10155552324E+04  0.40000000000E+03 0.  1.
   -9000005    1    1    2    0  501 -0.18725919386E+02 -0.31084864917E+03 -0.13113090940E+02  0.50709909870E+03  0.40000000000E+03 0. -1.
<mgrwt>
<rscale>  2 0.50692952E+03</rscale>
<asrwt>0</asrwt>
<pdfrwt beam="1">  1        2 0.48427347E-01 0.50692952E+03</pdfrwt>
<pdfrwt beam="2">  1       -2 0.18582716E+00 0.50692952E+03</pdfrwt>
<totfact> 0.17922490E+01</totfact>
</mgrwt>
</event>
<event>
 4    1  0.2358610E-002  0.5425987E+03  0.7818608E-02  0.1003222E+00
          1   -1    0    0  502    0  0.00000000000E+00  0.00000000000E+00  0.14647524858E+04  0.14647524858E+04  0.00000000000E+00 0. -1.
         -1   -1    0    0    0  501 -0.00000000000E+00 -0.00000000000E+00 -0.23582825375E+03  0.23582825375E+03  0.00000000000E+00 0.  1.
    9000005    1    1    2  502    0  0.29675964107E+03  0.21528380461E+03  0.94123278040E+03  0.10864311060E+04  0.40000000000E+03 0.  1.
   -9000005    1    1    2    0  501 -0.29675964107E+03 -0.21528380461E+03  0.28769145167E+03  0.61414963360E+03  0.40000000000E+03 0.  1.
<mgrwt>
<rscale>  2 0.54259875E+03</rscale>
<asrwt>0</asrwt>
<pdfrwt beam="1">  1        1 0.22534653E+00 0.54259875E+03</pdfrwt>
<pdfrwt beam="2">  1       -1 0.36281271E-01 0.54259875E+03</pdfrwt>
<totfact> 0.53094594E+01</totfact>
</mgrwt>
</event>
<event>
 4    1  0.2358610E-002  0.4122810E+03  0.7818608E-02  0.1039608E+00
         -2   -1    0    0    0  501 -0.00000000000E+00  0.00000000000E+00  0.46108865010E+03  0.46108865010E+03  0.00000000000E+00 0.  1.
          2   -1    0    0  502    0  0.00000000000E+00 -0.00000000000E+00 -0.41506499367E+03  0.41506499367E+03  0.00000000000E+00 0. -1.
    9000005    1    1    2  502    0  0.99272536996E+02  0.10982350280E+02  0.16952236949E+03  0.44577290449E+03  0.40000000000E+03 0.  1.
   -9000005    1    1    2    0  501 -0.99272536996E+02 -0.10982350280E+02 -0.12349871306E+03  0.43038073928E+03  0.40000000000E+03 0. -1.
<mgrwt>
<rscale>  2 0.41228103E+03</rscale>
<asrwt>0</asrwt>
<pdfrwt beam="1">  1        2 0.63856153E-01 0.41228103E+03</pdfrwt>
<pdfrwt beam="2">  1       -2 0.70936715E-01 0.41228103E+03</pdfrwt>
<totfact> 0.14170725E+02</totfact>
</mgrwt>
</event>
<event>
 4    1  0.2358610E-002  0.4269493E+03  0.7818608E-02  0.1034828E+00
          1   -1    0    0  502    0  0.00000000000E+00  0.00000000000E+00  0.11355574898E+04  0.11355574898E+04  0.00000000000E+00 0.  1.
         -1   -1    0    0    0  501 -0.00000000000E+00 -0.00000000000E+00 -0.23908769238E+03  0.23908769238E+03  0.00000000000E+00 0. -1.
    9000005    1    1    2  502    0 -0.12052454972E+03 -0.88088203141E+02  0.54241107284E+02  0.43038098975E+03  0.40000000000E+03 0. -1.
   -9000005    1    1    2    0  501  0.12052454972E+03  0.88088203141E+02  0.84222869015E+03  0.94426419244E+03  0.40000000000E+03 0.  1.
<mgrwt>
<rscale>  2 0.42694929E+03</rscale>
<asrwt>0</asrwt>
<pdfrwt beam="1">  1        1 0.17470115E+00 0.42694929E+03</pdfrwt>
<pdfrwt beam="2">  1       -1 0.36782723E-01 0.42694929E+03</pdfrwt>
<totfact> 0.89629573E+01</totfact>
</mgrwt>
</event>
<event>
 4    1  0.2358610E-002  0.4479486E+03  0.7818608E-02  0.1028336E+00
          1   -1    0    0  502    0  0.00000000000E+00  0.00000000000E+00  0.22574711594E+04  0.22574711594E+04  0.00000000000E+00 0. -1.
         -1   -1    0    0    0  501 -0.00000000000E+00 -0.00000000000E+00 -0.10214623689E+03  0.10214623689E+03  0.00000000000E+00 0.  1.
    9000005    1    1    2  502    0  0.12334690462E+03 -0.15951023097E+03  0.65257997559E+03  0.79152927754E+03  0.40000000000E+03 0.  1.
   -9000005    1    1    2    0  501 -0.12334690462E+03  0.15951023097E+03  0.15027449470E+04  0.15680881188E+04  0.40000000000E+03 0. -1.
<mgrwt>
<rscale>  2 0.44794863E+03</rscale>
<asrwt>0</asrwt>
<pdfrwt beam="1">  1        1 0.34730322E+00 0.44794863E+03</pdfrwt>
<pdfrwt beam="2">  1       -1 0.15714807E-01 0.44794863E+03</pdfrwt>
<totfact> 0.65788970E+01</totfact>
</mgrwt>
</event>
<event>
 4    1  0.2358610E-002  0.4724051E+03  0.7818608E-02  0.1021244E+00
          1   -1    0    0  502    0  0.00000000000E+00  0.00000000000E+00  0.34023200414E+03  0.34023200414E+03  0.00000000000E+00 0.  1.
         -1   -1    0    0    0  501 -0.00000000000E+00 -0.00000000000E+00 -0.80657325476E+03  0.80657325476E+03  0.00000000000E+00 0. -1.
    9000005    1    1    2  502    0  0.23665148835E+03 -0.84632566258E+02 -0.48098138504E+03  0.67417333896E+03  0.40000000000E+03 0. -1.
   -9000005    1    1    2    0  501 -0.23665148835E+03  0.84632566258E+02  0.14640134426E+02  0.47263191994E+03  0.40000000000E+03 0.  1.
<mgrwt>
<rscale>  2 0.47240512E+03</rscale>
<asrwt>0</asrwt>
<pdfrwt beam="1">  1        1 0.52343386E-01 0.47240512E+03</pdfrwt>
<pdfrwt beam="2">  1       -1 0.12408819E+00 0.47240512E+03</pdfrwt>
<totfact> 0.44521704E+01</totfact>
</mgrwt>
</event>
<event>
 4    1  0.2358610E-002  0.5273264E+03  0.7818608E-02  0.1006883E+00
          2   -1    0    0  502    0  0.00000000000E+00  0.00000000000E+00  0.13319805160E+04  0.13319805160E+04  0.00000000000E+00 0.  1.
         -2   -1    0    0    0  501 -0.00000000000E+00 -0.00000000000E+00 -0.25421855095E+03  0.25421855095E+03  0.00000000000E+00 0. -1.
    9000005    1    1    2  502    0  0.24829510631E+03 -0.23753467405E+03  0.87423216812E+03  0.10209579154E+04  0.40000000000E+03 0.  1.
   -9000005    1    1    2    0  501 -0.24829510631E+03  0.23753467405E+03  0.20352979692E+03  0.56524115157E+03  0.40000000000E+03 0. -1.
<mgrwt>
<rscale>  2 0.52732645E+03</rscale>
<asrwt>0</asrwt>
<pdfrwt beam="1">  1        2 0.20492008E+00 0.52732645E+03</pdfrwt>
<pdfrwt beam="2">  1       -2 0.39110547E-01 0.52732645E+03</pdfrwt>
<totfact> 0.10174597E+02</totfact>
</mgrwt>
</event>
<event>
 4    1  0.2358610E-002  0.4759659E+03  0.7818608E-02  0.1020250E+00
         -1   -1    0    0    0  501 -0.00000000000E+00  0.00000000000E+00  0.12862127667E+04  0.12862127667E+04  0.00000000000E+00 0. -1.
          1   -1    0    0  502    0  0.00000000000E+00 -0.00000000000E+00 -0.24465178988E+03  0.24465178988E+03  0.00000000000E+00 0.  1.
    9000005    1    1    2  502    0  0.17857791928E+03  0.18615442811E+03  0.11570141943E+03  0.48982687025E+03  0.40000000000E+03 0.  1.
   -9000005    1    1    2    0  501 -0.17857791928E+03 -0.18615442811E+03  0.92585955743E+03  0.10410376864E+04  0.40000000000E+03 0. -1.
<mgrwt>
<rscale>  2 0.47596591E+03</rscale>
<asrwt>0</asrwt>
<pdfrwt beam="1">  1        1 0.37638738E-01 0.47596591E+03</pdfrwt>
<pdfrwt beam="2">  1       -1 0.19787888E+00 0.47596591E+03</pdfrwt>
<totfact> 0.18941334E+01</totfact>
</mgrwt>
</event>
<event>
 4    1  0.2358610E-002  0.4180368E+03  0.7818608E-02  0.1037707E+00
         -1   -1    0    0    0  501 -0.00000000000E+00  0.00000000000E+00  0.14333078974E+03  0.14333078974E+03  0.00000000000E+00 0.  1.
          1   -1    0    0  502    0  0.00000000000E+00 -0.00000000000E+00 -0.13607588960E+04  0.13607588960E+04  0.00000000000E+00 0. -1.
    9000005    1    1    2  502    0 -0.11987670154E+03 -0.19604524199E+02 -0.36618767405E+03  0.55574110300E+03  0.40000000000E+03 0.  1.
   -9000005    1    1    2    0  501  0.11987670154E+03  0.19604524199E+02 -0.85124043223E+03  0.94834858275E+03  0.40000000000E+03 0. -1.
<mgrwt>
<rscale>  2 0.41803679E+03</rscale>
<asrwt>0</asrwt>
<pdfrwt beam="1">  1        1 0.20934751E+00 0.41803679E+03</pdfrwt>
<pdfrwt beam="2">  1       -1 0.22050892E-01 0.41803679E+03</pdfrwt>
<totfact> 0.14979444E+02</totfact>
</mgrwt>
</event>
<event>
 4    1  0.2358610E-002  0.4443568E+03  0.7818608E-02  0.1029418E+00
          2   -1    0    0  502    0  0.00000000000E+00  0.00000000000E+00  0.12585581183E+04  0.12585581183E+04  0.00000000000E+00 0. -1.
         -2   -1    0    0    0  501 -0.00000000000E+00 -0.00000000000E+00 -0.15733937770E+03  0.15733937770E+03  0.00000000000E+00 0.  1.
    9000005    1    1    2  502    0 -0.27292218964E+02  0.19159359409E+03  0.58851788326E+03  0.73743221345E+03  0.40000000000E+03 0.  1.
   -9000005    1    1    2    0  501  0.27292218964E+02 -0.19159359409E+03  0.51270085730E+03  0.67846528253E+03  0.40000000000E+03 0.  1.
<mgrwt>
<rscale>  2 0.44435681E+03</rscale>
<asrwt>0</asrwt>
<pdfrwt beam="1">  1        2 0.19362432E+00 0.44435681E+03</pdfrwt>
<pdfrwt beam="2">  1       -2 0.24206059E-01 0.44435681E+03</pdfrwt>
<totfact> 0.27488881E+02</totfact>
</mgrwt>
</event>
<event>
 4    1  0.2358610E-002  0.4723393E+03  0.7818608E-02  0.1021262E+00
         -1   -1    0    0    0  501 -0.00000000000E+00  0.00000000000E+00  0.38585130839E+03  0.38585130839E+03  0.00000000000E+00 0.  1.
          1   -1    0    0  502    0  0.00000000000E+00 -0.00000000000E+00 -0.71797479447E+03  0.71797479447E+03  0.00000000000E+00 0. -1.
    9000005    1    1    2  502    0  0.14900119326E+03  0.20224507203E+03  0.77444200323E+02  0.47864603719E+03  0.40000000000E+03 0.  1.
   -9000005    1    1    2    0  501 -0.14900119326E+03 -0.20224507203E+03 -0.40956768641E+03  0.62518006567E+03  0.40000000000E+03 0. -1.
<mgrwt>
<rscale>  2 0.47233931E+03</rscale>
<asrwt>0</asrwt>
<pdfrwt beam="1">  1        1 0.11045766E+00 0.47233931E+03</pdfrwt>
<pdfrwt beam="2">  1       -1 0.59361741E-01 0.47233931E+03</pdfrwt>
<totfact> 0.79050792E+01</totfact>
</mgrwt>
</event>
<event>
 4    1  0.2358610E-002  0.6485531E+03  0.7818608E-02  0.9809498E-01
         -2   -1    0    0    0  501 -0.00000000000E+00  0.00000000000E+00  0.41630805560E+03  0.41630805560E+03  0.00000000000E+00 0. -1.
          2   -1    0    0  502    0  0.00000000000E+00 -0.00000000000E+00 -0.13981090555E+04  0.13981090555E+04  0.00000000000E+00 0.  1.
    9000005    1    1    2  502    0  0.18156114351E+03 -0.47713386315E+03 -0.96866267707E+03  0.11657309098E+04  0.40000000000E+03 0.  1.
   -9000005    1    1    2    0  501 -0.18156114351E+03  0.47713386315E+03 -0.13138322832E+02  0.64868620127E+03  0.40000000000E+03 0. -1.
<mgrwt>
<rscale>  2 0.64855314E+03</rscale>
<asrwt>0</asrwt>
<pdfrwt beam="1">  1        2 0.21509369E+00 0.64855314E+03</pdfrwt>
<pdfrwt beam="2">  1       -2 0.64047395E-01 0.64855314E+03</pdfrwt>
<totfact> 0.33790921E+01</totfact>
</mgrwt>
</event>
<event>
 4    1  0.2358610E-002  0.1138518E+04  0.7818608E-02  0.9168442E-01
         -2   -1    0    0    0  501 -0.00000000000E+00  0.00000000000E+00  0.87022037527E+03  0.87022037527E+03  0.00000000000E+00 0. -1.
          2   -1    0    0  502    0  0.00000000000E+00 -0.00000000000E+00 -0.15799747444E+04  0.15799747444E+04  0.00000000000E+00 0.  1.
    9000005    1    1    2  502    0  0.56051838414E+03 -0.90666501011E+03 -0.61768188549E+02  0.11401919175E+04  0.40000000000E+03 0. -1.
   -9000005    1    1    2    0  501 -0.56051838414E+03  0.90666501011E+03 -0.64798618055E+03  0.13100032022E+04  0.40000000000E+03 0.  1.
<mgrwt>
<rscale>  2 0.11385176E+04</rscale>
<asrwt>0</asrwt>
<pdfrwt beam="1">  1        2 0.24307303E+00 0.11385176E+04</pdfrwt>
<pdfrwt beam="2">  1       -2 0.13388006E+00 0.11385176E+04</pdfrwt>
<totfact> 0.45163399E+00</totfact>
</mgrwt>
</event>
<event>
 4    1  0.2358610E-002  0.4261734E+03  0.7818608E-02  0.1035076E+00
          2   -1    0    0  502    0  0.00000000000E+00  0.00000000000E+00  0.39558777877E+03  0.39558777877E+03  0.00000000000E+00 0.  1.
         -2   -1    0    0    0  501 -0.00000000000E+00 -0.00000000000E+00 -0.52622237354E+03  0.52622237354E+03  0.00000000000E+00 0. -1.
    9000005    1    1    2  502    0 -0.14704630889E+03  0.10736169472E+01  0.99265119758E+02  0.43758123087E+03  0.40000000000E+03 0.  1.
   -9000005    1    1    2    0  501  0.14704630889E+03 -0.10736169472E+01 -0.22989971453E+03  0.48422892143E+03  0.40000000000E+03 0. -1.
<mgrwt>
<rscale>  2 0.42617340E+03</rscale>
<asrwt>0</asrwt>
<pdfrwt beam="1">  1        2 0.60859658E-01 0.42617340E+03</pdfrwt>
<pdfrwt beam="2">  1       -2 0.80957288E-01 0.42617340E+03</pdfrwt>
<totfact> 0.11161040E+02</totfact>
</mgrwt>
</event>
<event>
 4    1  0.2358610E-002  0.4230406E+03  0.7818608E-02  0.1036081E+00
         -2   -1    0    0    0  501 -0.00000000000E+00  0.00000000000E+00  0.12802789802E+03  0.12802789802E+03  0.00000000000E+00 0.  1.
          2   -1    0    0  502    0  0.00000000000E+00 -0.00000000000E+00 -0.15406566609E+04  0.15406566609E+04  0.00000000000E+00 0. -1.
    9000005    1    1    2  502    0  0.13328127949E+03  0.34633370821E+02 -0.96033596963E+03  0.10493848409E+04  0.40000000000E+03 0. -1.
   -9000005    1    1    2    0  501 -0.13328127949E+03 -0.34633370821E+02 -0.45229279322E+03  0.61929971793E+03  0.40000000000E+03 0. -1.
<mgrwt>
<rscale>  2 0.42304062E+03</rscale>
<asrwt>0</asrwt>
<pdfrwt beam="1">  1        2 0.23702411E+00 0.42304062E+03</pdfrwt>
<pdfrwt beam="2">  1       -2 0.19696599E-01 0.42304062E+03</pdfrwt>
<totfact> 0.27575516E+02</totfact>
</mgrwt>
</event>
<event>
 4    1  0.2358610E-002  0.4027070E+03  0.7818608E-02  0.1042846E+00
         -3   -1    0    0    0  501 -0.00000000000E+00  0.00000000000E+00  0.20479241896E+03  0.20479241896E+03  0.00000000000E+00 0. -1.
          3   -1    0    0  502    0  0.00000000000E+00 -0.00000000000E+00 -0.79189303407E+03  0.79189303407E+03  0.00000000000E+00 0.  1.
    9000005    1    1    2  502    0 -0.29866076571E+02  0.35790668170E+02 -0.29461162119E+03  0.49896789656E+03  0.40000000000E+03 0.  1.
   -9000005    1    1    2    0  501  0.29866076571E+02 -0.35790668170E+02 -0.29248899392E+03  0.49771755648E+03  0.40000000000E+03 0. -1.
<mgrwt>
<rscale>  2 0.40270703E+03</rscale>
<asrwt>0</asrwt>
<pdfrwt beam="1">  1        3 0.12182970E+00 0.40270703E+03</pdfrwt>
<pdfrwt beam="2">  1       -3 0.31506526E-01 0.40270703E+03</pdfrwt>
<totfact> 0.14036281E+01</totfact>
</mgrwt>
</event>
<event>
 4    1  0.2358610E-002  0.4369537E+03  0.7818608E-02  0.1031686E+00
         -1   -1    0    0    0  501 -0.00000000000E+00  0.00000000000E+00  0.14796964590E+03  0.14796964590E+03  0.00000000000E+00 0.  1.
          1   -1    0    0  502    0  0.00000000000E+00 -0.00000000000E+00 -0.12961405674E+04  0.12961405674E+04  0.00000000000E+00 0. -1.
    9000005    1    1    2  502    0  0.11593050916E+03 -0.13224472301E+03 -0.62246225878E+03  0.76051812163E+03  0.40000000000E+03 0. -1.
   -9000005    1    1    2    0  501 -0.11593050916E+03  0.13224472301E+03 -0.52570866268E+03  0.68359209163E+03  0.40000000000E+03 0.  1.
<mgrwt>
<rscale>  2 0.43695372E+03</rscale>
<asrwt>0</asrwt>
<pdfrwt beam="1">  1        1 0.19940623E+00 0.43695372E+03</pdfrwt>
<pdfrwt beam="2">  1       -1 0.22764562E-01 0.43695372E+03</pdfrwt>
<totfact> 0.15704011E+02</totfact>
</mgrwt>
</event>
<event>
 4    1  0.2358610E-002  0.5295257E+03  0.7818608E-02  0.1006347E+00
          1   -1    0    0  502    0  0.00000000000E+00  0.00000000000E+00  0.22465368250E+04  0.22465368250E+04  0.00000000000E+00 0. -1.
         -1   -1    0    0    0  501 -0.00000000000E+00 -0.00000000000E+00 -0.14014355894E+03  0.14014355894E+03  0.00000000000E+00 0.  1.
    9000005    1    1    2  502    0  0.28300079181E+03  0.20076847099E+03  0.65850855960E+03  0.84500352081E+03  0.40000000000E+03 0.  1.
   -9000005    1    1    2    0  501 -0.28300079181E+03 -0.20076847099E+03  0.14478847064E+04  0.15416768631E+04  0.40000000000E+03 0. -1.
<mgrwt>
<rscale>  2 0.52952566E+03</rscale>
<asrwt>0</asrwt>
<pdfrwt beam="1">  1        1 0.34562102E+00 0.52952566E+03</pdfrwt>
<pdfrwt beam="2">  1       -1 0.21560549E-01 0.52952566E+03</pdfrwt>
<totfact> 0.39208663E+01</totfact>
</mgrwt>
</event>
<event>
 4    1  0.2358610E-002  0.6824565E+03  0.7818608E-02  0.9747713E-01
          2   -1    0    0  502    0  0.00000000000E+00  0.00000000000E+00  0.32428498357E+03  0.32428498357E+03  0.00000000000E+00 0.  1.
         -2   -1    0    0    0  501 -0.00000000000E+00 -0.00000000000E+00 -0.16368940952E+04  0.16368940952E+04  0.00000000000E+00 0. -1.
    9000005    1    1    2  502    0 -0.51178892882E+03 -0.20932971486E+03 -0.31297192075E+03  0.75079841527E+03  0.40000000000E+03 0.  1.
   -9000005    1    1    2    0  501  0.51178892882E+03  0.20932971486E+03 -0.99963719085E+03  0.12103806635E+04  0.40000000000E+03 0. -1.
<mgrwt>
<rscale>  2 0.68245647E+03</rscale>
<asrwt>0</asrwt>
<pdfrwt beam="1">  1        2 0.49889998E-01 0.68245647E+03</pdfrwt>
<pdfrwt beam="2">  1       -2 0.25182986E+00 0.68245647E+03</pdfrwt>
<totfact> 0.65328477E+00</totfact>
</mgrwt>
</event>
<event>
 4    1  0.2358610E-002  0.7945503E+03  0.7818608E-02  0.9567939E-01
         -1   -1    0    0    0  501 -0.00000000000E+00  0.00000000000E+00  0.28064259413E+03  0.28064259413E+03  0.00000000000E+00 0. -1.
          1   -1    0    0  502    0  0.00000000000E+00 -0.00000000000E+00 -0.24576626330E+04  0.24576626330E+04  0.00000000000E+00 0.  1.
    9000005    1    1    2  502    0 -0.10783434059E+03  0.67799851507E+03 -0.69005932988E+03  0.10523745104E+04  0.40000000000E+03 0.  1.
   -9000005    1    1    2    0  501  0.10783434059E+03 -0.67799851507E+03 -0.14869607090E+04  0.16859307167E+04  0.40000000000E+03 0.  1.
<mgrwt>
<rscale>  2 0.79455033E+03</rscale>
<asrwt>0</asrwt>
<pdfrwt beam="1">  1        1 0.37810195E+00 0.79455033E+03</pdfrwt>
<pdfrwt beam="2">  1       -1 0.43175783E-01 0.79455033E+03</pdfrwt>
<totfact> 0.80275890E+00</totfact>
</mgrwt>
</event>
<event>
 4    1  0.2358610E-002  0.4164535E+03  0.7818608E-02  0.1038227E+00
          2   -1    0    0  502    0  0.00000000000E+00  0.00000000000E+00  0.88596606664E+03  0.88596606664E+03  0.00000000000E+00 0. -1.
         -2   -1    0    0    0  501 -0.00000000000E+00 -0.00000000000E+00 -0.22839372908E+03  0.22839372908E+03  0.00000000000E+00 0.  1.
    9000005    1    1    2  502    0 -0.11580661848E+03 -0.47247151411E+01  0.53941164326E+03  0.68146783981E+03  0.40000000000E+03 0. -1.
   -9000005    1    1    2    0  501  0.11580661848E+03  0.47247151411E+01  0.11816069430E+03  0.43289195591E+03  0.40000000000E+03 0.  1.
<mgrwt>
<rscale>  2 0.41645347E+03</rscale>
<asrwt>0</asrwt>
<pdfrwt beam="1">  1        2 0.13630247E+00 0.41645347E+03</pdfrwt>
<pdfrwt beam="2">  1       -2 0.35137497E-01 0.41645347E+03</pdfrwt>
<totfact> 0.23513325E+02</totfact>
</mgrwt>
</event>
<event>
 4    1  0.2358610E-002  0.4493801E+03  0.7818608E-02  0.1027907E+00
         -1   -1    0    0    0  501 -0.00000000000E+00  0.00000000000E+00  0.91534491577E+02  0.91534491577E+02  0.00000000000E+00 0.  1.
          1   -1    0    0  502    0  0.00000000000E+00 -0.00000000000E+00 -0.23695821850E+04  0.23695821850E+04  0.00000000000E+00 0. -1.
    9000005    1    1    2  502    0  0.13122291699E+03 -0.15723559461E+03 -0.14621572613E+04  0.15296556289E+04  0.40000000000E+03 0. -1.
   -9000005    1    1    2    0  501 -0.13122291699E+03  0.15723559461E+03 -0.81589043204E+03  0.93146104763E+03  0.40000000000E+03 0.  1.
<mgrwt>
<rscale>  2 0.44938011E+03</rscale>
<asrwt>0</asrwt>
<pdfrwt beam="1">  1        1 0.36455105E+00 0.44938011E+03</pdfrwt>
<pdfrwt beam="2">  1       -1 0.14082232E-01 0.44938011E+03</pdfrwt>
<totfact> 0.66072923E+01</totfact>
</mgrwt>
</event>
<event>
 4    1  0.2358610E-002  0.4062316E+03  0.7818608E-02  0.1041643E+00
         -1   -1    0    0    0  501 -0.00000000000E+00  0.00000000000E+00  0.16230790054E+03  0.16230790054E+03  0.00000000000E+00 0. -1.
          1   -1    0    0  502    0  0.00000000000E+00 -0.00000000000E+00 -0.10774638460E+04  0.10774638460E+04  0.00000000000E+00 0.  1.
    9000005    1    1    2  502    0 -0.70522181086E+02 -0.71244554869E+01 -0.31041192667E+03  0.51125306856E+03  0.40000000000E+03 0. -1.
   -9000005    1    1    2    0  501  0.70522181086E+02  0.71244554869E+01 -0.60474401875E+03  0.72851867793E+03  0.40000000000E+03 0.  1.
<mgrwt>
<rscale>  2 0.40623163E+03</rscale>
<asrwt>0</asrwt>
<pdfrwt beam="1">  1        1 0.16576366E+00 0.40623163E+03</pdfrwt>
<pdfrwt beam="2">  1       -1 0.24970447E-01 0.40623163E+03</pdfrwt>
<totfact> 0.19350535E+02</totfact>
</mgrwt>
</event>
<event>
 4    1  0.2358610E-002  0.7471363E+03  0.7818608E-02  0.9639854E-01
         -2   -1    0    0    0  501 -0.00000000000E+00  0.00000000000E+00  0.26855474821E+03  0.26855474821E+03  0.00000000000E+00 0. -1.
          2   -1    0    0  502    0  0.00000000000E+00 -0.00000000000E+00 -0.31867561676E+04  0.31867561676E+04  0.00000000000E+00 0.  1.
    9000005    1    1    2  502    0 -0.20613631773E+02  0.63070417455E+03 -0.44030522098E+03  0.86722624800E+03  0.40000000000E+03 0. -1.
   -9000005    1    1    2    0  501  0.20613631773E+02 -0.63070417455E+03 -0.24778961984E+04  0.25880846678E+04  0.40000000000E+03 0.  1.
<mgrwt>
<rscale>  2 0.74713632E+03</rscale>
<asrwt>0</asrwt>
<pdfrwt beam="1">  1        2 0.49027021E+00 0.74713632E+03</pdfrwt>
<pdfrwt beam="2">  1       -2 0.41316113E-01 0.74713632E+03</pdfrwt>
<totfact> 0.78621392E+00</totfact>
</mgrwt>
</event>
<event>
 4    1  0.2358610E-002  0.5900542E+03  0.7818608E-02  0.9926258E-01
          2   -1    0    0  502    0  0.00000000000E+00  0.00000000000E+00  0.15136729781E+04  0.15136729781E+04  0.00000000000E+00 0.  1.
         -2   -1    0    0    0  501 -0.00000000000E+00 -0.00000000000E+00 -0.23225256060E+03  0.23225256060E+03  0.00000000000E+00 0. -1.
    9000005    1    1    2  502    0 -0.82065776158E+02  0.42594506146E+03  0.55498128994E+03  0.81004210951E+03  0.40000000000E+03 0. -1.
   -9000005    1    1    2    0  501  0.82065776158E+02 -0.42594506146E+03  0.72643912760E+03  0.93588342923E+03  0.40000000000E+03 0.  1.
<mgrwt>
<rscale>  2 0.59005422E+03</rscale>
<asrwt>0</asrwt>
<pdfrwt beam="1">  1        2 0.23287276E+00 0.59005422E+03</pdfrwt>
<pdfrwt beam="2">  1       -2 0.35731164E-01 0.59005422E+03</pdfrwt>
<totfact> 0.95101092E+01</totfact>
</mgrwt>
</event>
<event>
 4    1  0.2358610E-002  0.5540131E+03  0.7818608E-02  0.1000569E+00
          2   -1    0    0  502    0  0.00000000000E+00  0.00000000000E+00  0.10953569951E+04  0.10953569951E+04  0.00000000000E+00 0.  1.
         -2   -1    0    0    0  501 -0.00000000000E+00 -0.00000000000E+00 -0.29125342789E+03  0.29125342789E+03  0.00000000000E+00 0. -1.
    9000005    1    1    2  502    0 -0.11806421888E+03 -0.36467983588E+03  0.53705087916E+03  0.77159198368E+03  0.40000000000E+03 0.  1.
   -9000005    1    1    2    0  501  0.11806421888E+03  0.36467983588E+03  0.26705268804E+03  0.61501843929E+03  0.40000000000E+03 0. -1.
<mgrwt>
<rscale>  2 0.55401312E+03</rscale>
<asrwt>0</asrwt>
<pdfrwt beam="1">  1        2 0.16851646E+00 0.55401312E+03</pdfrwt>
<pdfrwt beam="2">  1       -2 0.44808220E-01 0.55401312E+03</pdfrwt>
<totfact> 0.10685926E+02</totfact>
</mgrwt>
</event>
<event>
 4    1  0.2358610E-002  0.4128570E+03  0.7818608E-02  0.1039416E+00
          2   -1    0    0  502    0  0.00000000000E+00  0.00000000000E+00  0.17575642253E+04  0.17575642253E+04  0.00000000000E+00 0.  1.
         -2   -1    0    0    0  501 -0.00000000000E+00 -0.00000000000E+00 -0.10365254133E+03  0.10365254133E+03  0.00000000000E+00 0. -1.
    9000005    1    1    2  502    0 -0.35268633927E+02  0.95953289461E+02  0.10630468467E+04  0.11404032219E+04  0.40000000000E+03 0.  1.
   -9000005    1    1    2    0  501  0.35268633927E+02 -0.95953289461E+02  0.59086483720E+03  0.72081354464E+03  0.40000000000E+03 0. -1.
<mgrwt>
<rscale>  2 0.41285701E+03</rscale>
<asrwt>0</asrwt>
<pdfrwt beam="1">  1        2 0.27039447E+00 0.41285701E+03</pdfrwt>
<pdfrwt beam="2">  1       -2 0.15946546E-01 0.41285701E+03</pdfrwt>
<totfact> 0.30256337E+02</totfact>
</mgrwt>
</event>
<event>
 4    1  0.2358610E-002  0.4578392E+03  0.7818608E-02  0.1025410E+00
          1   -1    0    0  502    0  0.00000000000E+00  0.00000000000E+00  0.18175316179E+04  0.18175316179E+04  0.00000000000E+00 0.  1.
         -1   -1    0    0    0  501 -0.00000000000E+00 -0.00000000000E+00 -0.61103920121E+03  0.61103920121E+03  0.00000000000E+00 0. -1.
    9000005    1    1    2  502    0  0.73607944663E+02 -0.21023474545E+03  0.16969495117E+04  0.17576274983E+04  0.40000000000E+03 0.  1.
   -9000005    1    1    2    0  501 -0.73607944663E+02  0.21023474545E+03 -0.49045709497E+03  0.67094332079E+03  0.40000000000E+03 0. -1.
<mgrwt>
<rscale>  2 0.45783925E+03</rscale>
<asrwt>0</asrwt>
<pdfrwt beam="1">  1        1 0.27962025E+00 0.45783925E+03</pdfrwt>
<pdfrwt beam="2">  1       -1 0.94006032E-01 0.45783925E+03</pdfrwt>
<totfact> 0.48598424E+00</totfact>
</mgrwt>
</event>
<event>
 4    1  0.2358610E-002  0.4741308E+03  0.7818608E-02  0.1020761E+00
          2   -1    0    0  502    0  0.00000000000E+00  0.00000000000E+00  0.28678652140E+04  0.28678652140E+04  0.00000000000E+00 0. -1.
         -2   -1    0    0    0  501 -0.00000000000E+00 -0.00000000000E+00 -0.11663878460E+03  0.11663878460E+03  0.00000000000E+00 0.  1.
    9000005    1    1    2  502    0 -0.54663052637E+02  0.24862016731E+03  0.52103250283E+03  0.70446781752E+03  0.40000000000E+03 0.  1.
   -9000005    1    1    2    0  501  0.54663052637E+02 -0.24862016731E+03  0.22301939266E+04  0.22800361811E+04  0.40000000000E+03 0. -1.
<mgrwt>
<rscale>  2 0.47413082E+03</rscale>
<asrwt>0</asrwt>
<pdfrwt beam="1">  1        2 0.44120998E+00 0.47413082E+03</pdfrwt>
<pdfrwt beam="2">  1       -2 0.17944431E-01 0.47413082E+03</pdfrwt>
<totfact> 0.59765339E+01</totfact>
</mgrwt>
</event>
<event>
 4    1  0.2358610E-002  0.4174706E+03  0.7818608E-02  0.1037893E+00
          2   -1    0    0  502    0  0.00000000000E+00  0.00000000000E+00  0.48228450752E+03  0.48228450752E+03  0.00000000000E+00 0. -1.
         -2   -1    0    0    0  501 -0.00000000000E+00 -0.00000000000E+00 -0.50870261896E+03  0.50870261896E+03  0.00000000000E+00 0.  1.
    9000005    1    1    2  502    0 -0.51948950887E+02 -0.10762433814E+03 -0.27987032932E+03  0.50260232082E+03  0.40000000000E+03 0.  1.
   -9000005    1    1    2    0  501  0.51948950887E+02  0.10762433814E+03  0.25345221788E+03  0.48838480567E+03  0.40000000000E+03 0. -1.
<mgrwt>
<rscale>  2 0.41747059E+03</rscale>
<asrwt>0</asrwt>
<pdfrwt beam="1">  1        2 0.74197617E-01 0.41747059E+03</pdfrwt>
<pdfrwt beam="2">  1       -2 0.78261941E-01 0.41747059E+03</pdfrwt>
<totfact> 0.96471637E+01</totfact>
</mgrwt>
</event>
<event>
 4    1  0.2358610E-002  0.7337645E+03  0.7818608E-02  0.9661171E-01
         -1   -1    0    0    0  501 -0.00000000000E+00  0.00000000000E+00  0.19983198099E+04  0.19983198099E+04  0.00000000000E+00 0. -1.
          1   -1    0    0  502    0  0.00000000000E+00 -0.00000000000E+00 -0.29573255060E+03  0.29573255060E+03  0.00000000000E+00 0.  1.
    9000005    1    1    2  502    0 -0.55944806399E+03  0.25578930980E+03  0.50922732161E+03  0.89315327485E+03  0.40000000000E+03 0.  1.
   -9000005    1    1    2    0  501  0.55944806399E+03 -0.25578930980E+03  0.11933599377E+04  0.14008990857E+04  0.40000000000E+03 0. -1.
<mgrwt>
<rscale>  2 0.73376448E+03</rscale>
<asrwt>0</asrwt>
<pdfrwt beam="1">  1        1 0.45497317E-01 0.73376448E+03</pdfrwt>
<pdfrwt beam="2">  1       -1 0.30743381E+00 0.73376448E+03</pdfrwt>
<totfact> 0.27788059E+00</totfact>
</mgrwt>
</event>
<event>
 4    1  0.2358610E-002  0.5378422E+03  0.7818608E-02  0.1004348E+00
          2   -1    0    0  502    0  0.00000000000E+00  0.00000000000E+00  0.96930609800E+03  0.96930609800E+03  0.00000000000E+00 0.  1.
         -2   -1    0    0    0  501 -0.00000000000E+00 -0.00000000000E+00 -0.29910669418E+03  0.29910669418E+03  0.00000000000E+00 0. -1.
    9000005    1    1    2  502    0  0.18205639503E+03  0.31004783941E+03  0.30503013017E+03  0.61831834358E+03  0.40000000000E+03 0. -1.
   -9000005    1    1    2    0  501 -0.18205639503E+03 -0.31004783941E+03  0.36516927364E+03  0.65009444860E+03  0.40000000000E+03 0.  1.
<mgrwt>
<rscale>  2 0.53784216E+03</rscale>
<asrwt>0</asrwt>
<pdfrwt beam="1">  1        2 0.14912401E+00 0.53784216E+03</pdfrwt>
<pdfrwt beam="2">  1       -2 0.46016415E-01 0.53784216E+03</pdfrwt>
<totfact> 0.12161841E+02</totfact>
</mgrwt>
</event>
<event>
 4    1  0.2358610E-002  0.6717902E+03  0.7818608E-02  0.9766729E-01
         -1   -1    0    0    0  501 -0.00000000000E+00  0.00000000000E+00  0.81099430432E+03  0.81099430432E+03  0.00000000000E+00 0.  1.
          1   -1    0    0  502    0  0.00000000000E+00 -0.00000000000E+00 -0.56822339509E+03  0.56822339509E+03  0.00000000000E+00 0. -1.
    9000005    1    1    2  502    0 -0.44187557381E+03  0.30991611309E+03  0.22246993663E+02  0.67215842523E+03  0.40000000000E+03 0.  1.
   -9000005    1    1    2    0  501  0.44187557381E+03 -0.30991611309E+03  0.22052391556E+03  0.70705927419E+03  0.40000000000E+03 0.  1.
<mgrwt>
<rscale>  2 0.67179016E+03</rscale>
<asrwt>0</asrwt>
<pdfrwt beam="1">  1        1 0.87418984E-01 0.67179016E+03</pdfrwt>
<pdfrwt beam="2">  1       -1 0.12476835E+00 0.67179016E+03</pdfrwt>
<totfact> 0.21551898E+01</totfact>
</mgrwt>
</event>
<event>
 4    1  0.2358610E-002  0.5873868E+03  0.7818608E-02  0.9931926E-01
         -2   -1    0    0    0  501 -0.00000000000E+00  0.00000000000E+00  0.28302763295E+03  0.28302763295E+03  0.00000000000E+00 0.  1.
          2   -1    0    0  502    0  0.00000000000E+00 -0.00000000000E+00 -0.18715821549E+04  0.18715821549E+04  0.00000000000E+00 0. -1.
    9000005    1    1    2  502    0 -0.35666480484E+03  0.24044435960E+03 -0.14303942304E+04  0.15463023402E+04  0.40000000000E+03 0. -1.
   -9000005    1    1    2    0  501  0.35666480484E+03 -0.24044435960E+03 -0.15816029163E+03  0.60830744770E+03  0.40000000000E+03 0.  1.
<mgrwt>
<rscale>  2 0.58738682E+03</rscale>
<asrwt>0</asrwt>
<pdfrwt beam="1">  1        2 0.28793571E+00 0.58738682E+03</pdfrwt>
<pdfrwt beam="2">  1       -2 0.43542714E-01 0.58738682E+03</pdfrwt>
<totfact> 0.41419694E+01</totfact>
</mgrwt>
</event>
<event>
 4    1  0.2358610E-002  0.4447701E+03  0.7818608E-02  0.1029293E+00
         -2   -1    0    0    0  501 -0.00000000000E+00  0.00000000000E+00  0.78750036508E+02  0.78750036508E+02  0.00000000000E+00 0. -1.
          2   -1    0    0  502    0  0.00000000000E+00 -0.00000000000E+00 -0.27649378766E+04  0.27649378766E+04  0.00000000000E+00 0.  1.
    9000005    1    1    2  502    0  0.10500432499E+03 -0.16369039139E+03 -0.17731372820E+04  0.18280690012E+04  0.40000000000E+03 0.  1.
   -9000005    1    1    2    0  501 -0.10500432499E+03  0.16369039139E+03 -0.91305055809E+03  0.10156189119E+04  0.40000000000E+03 0. -1.
<mgrwt>
<rscale>  2 0.44477011E+03</rscale>
<asrwt>0</asrwt>
<pdfrwt beam="1">  1        2 0.42537503E+00 0.44477011E+03</pdfrwt>
<pdfrwt beam="2">  1       -2 0.12115391E-01 0.44477011E+03</pdfrwt>
<totfact> 0.13331653E+02</totfact>
</mgrwt>
</event>
<event>
 4    1  0.2358610E-002  0.4526452E+03  0.7818608E-02  0.1026936E+00
          2   -1    0    0  502    0  0.00000000000E+00  0.00000000000E+00  0.11375916390E+04  0.11375916390E+04  0.00000000000E+00 0.  1.
         -2   -1    0    0    0  501 -0.00000000000E+00 -0.00000000000E+00 -0.20410947378E+03  0.20410947378E+03  0.00000000000E+00 0. -1.
    9000005    1    1    2  502    0  0.19007858684E+03 -0.93583077430E+02  0.69679340643E+03  0.83090836607E+03  0.40000000000E+03 0.  1.
   -9000005    1    1    2    0  501 -0.19007858684E+03  0.93583077430E+02  0.23668875879E+03  0.51079274671E+03  0.40000000000E+03 0. -1.
<mgrwt>
<rscale>  2 0.45264518E+03</rscale>
<asrwt>0</asrwt>
<pdfrwt beam="1">  1        2 0.17501409E+00 0.45264518E+03</pdfrwt>
<pdfrwt beam="2">  1       -2 0.31401458E-01 0.45264518E+03</pdfrwt>
<totfact> 0.20133612E+02</totfact>
</mgrwt>
</event>
<event>
 4    1  0.2358610E-002  0.4398146E+03  0.7818608E-02  0.1030804E+00
         -2   -1    0    0    0  501 -0.00000000000E+00  0.00000000000E+00  0.36438336349E+03  0.36438336349E+03  0.00000000000E+00 0.  1.
          2   -1    0    0  502    0  0.00000000000E+00 -0.00000000000E+00 -0.10855686193E+04  0.10855686193E+04  0.00000000000E+00 0. -1.
    9000005    1    1    2  502    0 -0.60772688952E+02  0.17246310315E+03 -0.87882809319E+03  0.98273885598E+03  0.40000000000E+03 0. -1.
   -9000005    1    1    2    0  501  0.60772688952E+02 -0.17246310315E+03  0.15764283739E+03  0.46721312680E+03  0.40000000000E+03 0.  1.
<mgrwt>
<rscale>  2 0.43981455E+03</rscale>
<asrwt>0</asrwt>
<pdfrwt beam="1">  1        2 0.16701055E+00 0.43981455E+03</pdfrwt>
<pdfrwt beam="2">  1       -2 0.56058980E-01 0.43981455E+03</pdfrwt>
<totfact> 0.69793454E+01</totfact>
</mgrwt>
</event>
<event>
 4    1  0.2358610E-002  0.7285884E+03  0.7818608E-02  0.9669554E-01
         -2   -1    0    0    0  501 -0.00000000000E+00  0.00000000000E+00  0.97591001362E+03  0.97591001362E+03  0.00000000000E+00 0.  1.
          2   -1    0    0  502    0  0.00000000000E+00 -0.00000000000E+00 -0.11160639439E+04  0.11160639439E+04  0.00000000000E+00 0. -1.
    9000005    1    1    2  502    0  0.23316811129E+03 -0.56255998072E+03  0.67882506740E+03  0.99581352278E+03  0.40000000000E+03 0.  1.
   -9000005    1    1    2    0  501 -0.23316811129E+03  0.56255998072E+03 -0.81897899765E+03  0.10961604347E+04  0.40000000000E+03 0. -1.
<mgrwt>
<rscale>  2 0.72858843E+03</rscale>
<asrwt>0</asrwt>
<pdfrwt beam="1">  1        2 0.17170215E+00 0.72858843E+03</pdfrwt>
<pdfrwt beam="2">  1       -2 0.15014000E+00 0.72858843E+03</pdfrwt>
<totfact> 0.65109971E+00</totfact>
</mgrwt>
</event>
<event>
 4    1  0.2358610E-002  0.5249392E+03  0.7818608E-02  0.1007467E+00
          2   -1    0    0  502    0  0.00000000000E+00  0.00000000000E+00  0.59497173641E+03  0.59497173641E+03  0.00000000000E+00 0. -1.
         -2   -1    0    0    0  501 -0.00000000000E+00 -0.00000000000E+00 -0.54254867215E+03  0.54254867215E+03  0.00000000000E+00 0.  1.
    9000005    1    1    2  502    0  0.14284768812E+03  0.30847310167E+03 -0.19136731317E+03  0.55873299975E+03  0.40000000000E+03 0.  1.
   -9000005    1    1    2    0  501 -0.14284768812E+03 -0.30847310167E+03  0.24379037743E+03  0.57878740880E+03  0.40000000000E+03 0. -1.
<mgrwt>
<rscale>  2 0.52493916E+03</rscale>
<asrwt>0</asrwt>
<pdfrwt beam="1">  1        2 0.91534114E-01 0.52493916E+03</pdfrwt>
<pdfrwt beam="2">  1       -2 0.83469026E-01 0.52493916E+03</pdfrwt>
<totfact> 0.64802605E+01</totfact>
</mgrwt>
</event>
<event>
 4    1  0.2358610E-002  0.5697014E+03  0.7818608E-02  0.9970340E-01
         -1   -1    0    0    0  501 -0.00000000000E+00  0.00000000000E+00  0.17540710021E+04  0.17540710021E+04  0.00000000000E+00 0.  1.
          1   -1    0    0  502    0  0.00000000000E+00 -0.00000000000E+00 -0.30750375078E+03  0.30750375078E+03  0.00000000000E+00 0. -1.
    9000005    1    1    2  502    0 -0.14272435943E+03  0.37972288464E+03  0.13738047361E+04  0.14872454959E+04  0.40000000000E+03 0.  1.
   -9000005    1    1    2    0  501  0.14272435943E+03 -0.37972288464E+03  0.72762515207E+02  0.57432925706E+03  0.40000000000E+03 0. -1.
<mgrwt>
<rscale>  2 0.56970142E+03</rscale>
<asrwt>0</asrwt>
<pdfrwt beam="1">  1        1 0.47308270E-01 0.56970142E+03</pdfrwt>
<pdfrwt beam="2">  1       -1 0.26985707E+00 0.56970142E+03</pdfrwt>
<totfact> 0.47177068E+00</totfact>
</mgrwt>
</event>
<event>
 4    1  0.2358610E-002  0.4154853E+03  0.7818608E-02  0.1038546E+00
         -2   -1    0    0    0  501 -0.00000000000E+00  0.00000000000E+00  0.13629134115E+03  0.13629134115E+03  0.00000000000E+00 0.  1.
          2   -1    0    0  502    0  0.00000000000E+00 -0.00000000000E+00 -0.12728564011E+04  0.12728564011E+04  0.00000000000E+00 0. -1.
    9000005    1    1    2  502    0  0.10725399984E+03 -0.33535873128E+02 -0.51892807722E+03  0.66476644364E+03  0.40000000000E+03 0. -1.
   -9000005    1    1    2    0  501 -0.10725399984E+03  0.33535873128E+02 -0.61763698274E+03  0.74438129861E+03  0.40000000000E+03 0.  1.
<mgrwt>
<rscale>  2 0.41548535E+03</rscale>
<asrwt>0</asrwt>
<pdfrwt beam="1">  1        2 0.19582406E+00 0.41548535E+03</pdfrwt>
<pdfrwt beam="2">  1       -2 0.20967898E-01 0.41548535E+03</pdfrwt>
<totfact> 0.34839020E+02</totfact>
</mgrwt>
</event>
<event>
 4    1  0.2358610E-002  0.4469557E+03  0.7818608E-02  0.1028634E+00
         -2   -1    0    0    0  501 -0.00000000000E+00  0.00000000000E+00  0.73811330308E+03  0.73811330308E+03  0.00000000000E+00 0.  1.
          2   -1    0    0  502    0  0.00000000000E+00 -0.00000000000E+00 -0.51579632098E+03  0.51579632098E+03  0.00000000000E+00 0. -1.
    9000005    1    1    2  502    0  0.95053902035E+02  0.17531169930E+03 -0.32106754618E+03  0.55032154729E+03  0.40000000000E+03 0. -1.
   -9000005    1    1    2    0  501 -0.95053902035E+02 -0.17531169930E+03  0.54338452827E+03  0.70358807677E+03  0.40000000000E+03 0.  1.
<mgrwt>
<rscale>  2 0.44695574E+03</rscale>
<asrwt>0</asrwt>
<pdfrwt beam="1">  1        2 0.79353280E-01 0.44695574E+03</pdfrwt>
<pdfrwt beam="2">  1       -2 0.11355589E+00 0.44695574E+03</pdfrwt>
<totfact> 0.37603627E+01</totfact>
</mgrwt>
</event>
<event>
 4    1  0.2358610E-002  0.4487383E+03  0.7818608E-02  0.1028099E+00
          2   -1    0    0  502    0  0.00000000000E+00  0.00000000000E+00  0.29823176549E+03  0.29823176549E+03  0.00000000000E+00 0. -1.
         -2   -1    0    0    0  501 -0.00000000000E+00 -0.00000000000E+00 -0.69861734293E+03  0.69861734293E+03  0.00000000000E+00 0.  1.
    9000005    1    1    2  502    0  0.20161876503E+03 -0.26757079841E+02 -0.29144621664E+03  0.53507659725E+03  0.40000000000E+03 0.  1.
   -9000005    1    1    2    0  501 -0.20161876503E+03  0.26757079841E+02 -0.10893936080E+03  0.46177251116E+03  0.40000000000E+03 0. -1.
<mgrwt>
<rscale>  2 0.44873831E+03</rscale>
<asrwt>0</asrwt>
<pdfrwt beam="1">  1        2 0.45881811E-01 0.44873831E+03</pdfrwt>
<pdfrwt beam="2">  1       -2 0.10747959E+00 0.44873831E+03</pdfrwt>
<totfact> 0.79006174E+01</totfact>
</mgrwt>
</event>
<event>
 4    1  0.2358610E-002  0.5124158E+03  0.7818608E-02  0.1010588E+00
          2   -1    0    0  502    0  0.00000000000E+00  0.00000000000E+00  0.75092544415E+03  0.75092544415E+03  0.00000000000E+00 0. -1.
         -2   -1    0    0    0  501 -0.00000000000E+00 -0.00000000000E+00 -0.35403729017E+03  0.35403729017E+03  0.00000000000E+00 0.  1.
    9000005    1    1    2  502    0 -0.31777438517E+03  0.39867543428E+02  0.25986324777E+03  0.57454232954E+03  0.40000000000E+03 0. -1.
   -9000005    1    1    2    0  501  0.31777438517E+03 -0.39867543428E+02  0.13702490620E+03  0.53042040478E+03  0.40000000000E+03 0.  1.
<mgrwt>
<rscale>  2 0.51241583E+03</rscale>
<asrwt>0</asrwt>
<pdfrwt beam="1">  1        2 0.11552699E+00 0.51241583E+03</pdfrwt>
<pdfrwt beam="2">  1       -2 0.54467275E-01 0.51241583E+03</pdfrwt>
<totfact> 0.12221638E+02</totfact>
</mgrwt>
</event>
<event>
 4    1  0.2358610E-002  0.4347490E+03  0.7818608E-02  0.1032370E+00
         -2   -1    0    0    0  501 -0.00000000000E+00  0.00000000000E+00  0.43491315788E+02  0.43491315788E+02  0.00000000000E+00 0.  1.
          2   -1    0    0  502    0  0.00000000000E+00 -0.00000000000E+00 -0.43623328443E+04  0.43623328443E+04  0.00000000000E+00 0. -1.
    9000005    1    1    2  502    0  0.36654410573E+02 -0.16632242984E+03 -0.22948353437E+04  0.23356532172E+04  0.40000000000E+03 0. -1.
   -9000005    1    1    2    0  501 -0.36654410573E+02  0.16632242984E+03 -0.20240061848E+04  0.20701709429E+04  0.40000000000E+03 0. -1.
<mgrwt>
<rscale>  2 0.43474900E+03</rscale>
<asrwt>0</asrwt>
<pdfrwt beam="1">  1        2 0.67112810E+00 0.43474900E+03</pdfrwt>
<pdfrwt beam="2">  1       -2 0.66909720E-02 0.43474900E+03</pdfrwt>
<totfact> 0.26406819E+01</totfact>
</mgrwt>
</event>
<event>
 4    1  0.2358610E-002  0.4235709E+03  0.7818608E-02  0.1035910E+00
         -2   -1    0    0    0  501 -0.00000000000E+00  0.00000000000E+00  0.30453454947E+03  0.30453454947E+03  0.00000000000E+00 0.  1.
          2   -1    0    0  502    0  0.00000000000E+00 -0.00000000000E+00 -0.78767190983E+03  0.78767190983E+03  0.00000000000E+00 0. -1.
    9000005    1    1    2  502    0  0.11383519948E+03 -0.80335680195E+02 -0.51573971623E+03  0.66738274555E+03  0.40000000000E+03 0. -1.
   -9000005    1    1    2    0  501 -0.11383519948E+03  0.80335680195E+02  0.32602355870E+02  0.42482371375E+03  0.40000000000E+03 0.  1.
<mgrwt>
<rscale>  2 0.42357086E+03</rscale>
<asrwt>0</asrwt>
<pdfrwt beam="1">  1        2 0.12118029E+00 0.42357086E+03</pdfrwt>
<pdfrwt beam="2">  1       -2 0.46851470E-01 0.42357086E+03</pdfrwt>
<totfact> 0.15719946E+02</totfact>
</mgrwt>
</event>
<event>
 4    1  0.2358610E-002  0.5046414E+03  0.7818608E-02  0.1012574E+00
          2   -1    0    0  502    0  0.00000000000E+00  0.00000000000E+00  0.12553068046E+04  0.12553068046E+04  0.00000000000E+00 0. -1.
         -2   -1    0    0    0  501 -0.00000000000E+00 -0.00000000000E+00 -0.20762065106E+03  0.20762065106E+03  0.00000000000E+00 0.  1.
    9000005    1    1    2  502    0  0.75742829859E+02  0.29820463440E+03  0.41318718438E+03  0.65221670447E+03  0.40000000000E+03 0. -1.
   -9000005    1    1    2    0  501 -0.75742829859E+02 -0.29820463440E+03  0.63449896917E+03  0.81071075121E+03  0.40000000000E+03 0.  1.
<mgrwt>
<rscale>  2 0.50464144E+03</rscale>
<asrwt>0</asrwt>
<pdfrwt beam="1">  1        2 0.19312412E+00 0.50464144E+03</pdfrwt>
<pdfrwt beam="2">  1       -2 0.31941639E-01 0.50464144E+03</pdfrwt>
<totfact> 0.16561803E+02</totfact>
</mgrwt>
</event>
<event>
 4    1  0.2358610E-002  0.4397854E+03  0.7818608E-02  0.1030813E+00
          2   -1    0    0  502    0  0.00000000000E+00  0.00000000000E+00  0.11125481677E+04  0.11125481677E+04  0.00000000000E+00 0. -1.
         -2   -1    0    0    0  501 -0.00000000000E+00 -0.00000000000E+00 -0.20333084397E+03  0.20333084397E+03  0.00000000000E+00 0.  1.
    9000005    1    1    2  502    0  0.38484320696E+02 -0.17869013257E+03  0.20406159344E+03  0.48482196767E+03  0.40000000000E+03 0.  1.
   -9000005    1    1    2    0  501 -0.38484320696E+02  0.17869013257E+03  0.70515573033E+03  0.83105704403E+03  0.40000000000E+03 0. -1.
<mgrwt>
<rscale>  2 0.43978541E+03</rscale>
<asrwt>0</asrwt>
<pdfrwt beam="1">  1        2 0.17116125E+00 0.43978541E+03</pdfrwt>
<pdfrwt beam="2">  1       -2 0.31281669E-01 0.43978541E+03</pdfrwt>
<totfact> 0.21012775E+02</totfact>
</mgrwt>
</event>
<event>
 4    1  0.2358610E-002  0.4628416E+03  0.7818608E-02  0.1023960E+00
         -2   -1    0    0    0  501 -0.00000000000E+00  0.00000000000E+00  0.24192411671E+03  0.24192411671E+03  0.00000000000E+00 0.  1.
          2   -1    0    0  502    0  0.00000000000E+00 -0.00000000000E+00 -0.91942879834E+03  0.91942879834E+03  0.00000000000E+00 0. -1.
    9000005    1    1    2  502    0 -0.23108469055E+03 -0.28674533165E+02 -0.45030952891E+03  0.64575617294E+03  0.40000000000E+03 0.  1.
   -9000005    1    1    2    0  501  0.23108469055E+03  0.28674533165E+02 -0.22719515272E+03  0.51559674211E+03  0.40000000000E+03 0.  1.
<mgrwt>
<rscale>  2 0.46284162E+03</rscale>
<asrwt>0</asrwt>
<pdfrwt beam="1">  1        2 0.14145058E+00 0.46284162E+03</pdfrwt>
<pdfrwt beam="2">  1       -2 0.37219095E-01 0.46284162E+03</pdfrwt>
<totfact> 0.19952525E+02</totfact>
</mgrwt>
</event>
<event>
 4    1  0.2358610E-002  0.4801220E+03  0.7818608E-02  0.1019102E+00
          2   -1    0    0  502    0  0.00000000000E+00  0.00000000000E+00  0.58160401285E+03  0.58160401285E+03  0.00000000000E+00 0.  1.
         -2   -1    0    0    0  501 -0.00000000000E+00 -0.00000000000E+00 -0.39741872500E+03  0.39741872500E+03  0.00000000000E+00 0. -1.
    9000005    1    1    2  502    0  0.14506887852E+02 -0.26515411800E+03  0.66675432712E+02  0.48472958380E+03  0.40000000000E+03 0. -1.
   -9000005    1    1    2    0  501 -0.14506887852E+02  0.26515411800E+03  0.11750985513E+03  0.49429315405E+03  0.40000000000E+03 0. -1.
<mgrwt>
<rscale>  2 0.48012202E+03</rscale>
<asrwt>0</asrwt>
<pdfrwt beam="1">  1        2 0.89477540E-01 0.48012202E+03</pdfrwt>
<pdfrwt beam="2">  1       -2 0.61141343E-01 0.48012202E+03</pdfrwt>
<totfact> 0.13175710E+02</totfact>
</mgrwt>
</event>
<event>
 4    1  0.2358610E-002  0.4698266E+03  0.7818608E-02  0.1021969E+00
         -2   -1    0    0    0  501 -0.00000000000E+00  0.00000000000E+00  0.36592774560E+03  0.36592774560E+03  0.00000000000E+00 0.  1.
          2   -1    0    0  502    0  0.00000000000E+00 -0.00000000000E+00 -0.86242717381E+03  0.86242717381E+03  0.00000000000E+00 0. -1.
    9000005    1    1    2  502    0 -0.17522818594E+03 -0.17329780511E+03 -0.58495608337E+03  0.75027372730E+03  0.40000000000E+03 0. -1.
   -9000005    1    1    2    0  501  0.17522818594E+03  0.17329780511E+03  0.88456655162E+02  0.47808119211E+03  0.40000000000E+03 0.  1.
<mgrwt>
<rscale>  2 0.46982661E+03</rscale>
<asrwt>0</asrwt>
<pdfrwt beam="1">  1        2 0.13268110E+00 0.46982661E+03</pdfrwt>
<pdfrwt beam="2">  1       -2 0.56296577E-01 0.46982661E+03</pdfrwt>
<totfact> 0.95612036E+01</totfact>
</mgrwt>
</event>
<event>
 4    1  0.2358610E-002  0.6257767E+03  0.7818608E-02  0.9853325E-01
         -2   -1    0    0    0  501 -0.00000000000E+00  0.00000000000E+00  0.33085484721E+03  0.33085484721E+03  0.00000000000E+00 0.  1.
          2   -1    0    0  502    0  0.00000000000E+00 -0.00000000000E+00 -0.12878419516E+04  0.12878419516E+04  0.00000000000E+00 0. -1.
    9000005    1    1    2  502    0  0.41316380670E+03  0.24676345534E+03 -0.70876815340E+03  0.94548867224E+03  0.40000000000E+03 0.  1.
   -9000005    1    1    2    0  501 -0.41316380670E+03 -0.24676345534E+03 -0.24821895100E+03  0.67320812658E+03  0.40000000000E+03 0.  1.
<mgrwt>
<rscale>  2 0.62577674E+03</rscale>
<asrwt>0</asrwt>
<pdfrwt beam="1">  1        2 0.19812953E+00 0.62577674E+03</pdfrwt>
<pdfrwt beam="2">  1       -2 0.50900745E-01 0.62577674E+03</pdfrwt>
<totfact> 0.63210977E+01</totfact>
</mgrwt>
</event>
<event>
 4    1  0.2358610E-002  0.6934459E+03  0.7818608E-02  0.9728507E-01
          2   -1    0    0  502    0  0.00000000000E+00  0.00000000000E+00  0.28700067728E+04  0.28700067728E+04  0.00000000000E+00 0.  1.
         -2   -1    0    0    0  501 -0.00000000000E+00 -0.00000000000E+00 -0.56327497512E+03  0.56327497512E+03  0.00000000000E+00 0. -1.
    9000005    1    1    2  502    0 -0.55836930226E+03 -0.95346571533E+02 -0.28548703744E+03  0.74991339164E+03  0.40000000000E+03 0. -1.
   -9000005    1    1    2    0  501  0.55836930226E+03  0.95346571533E+02  0.25922188352E+04  0.26833683563E+04  0.40000000000E+03 0.  1.
<mgrwt>
<rscale>  2 0.69344592E+03</rscale>
<asrwt>0</asrwt>
<pdfrwt beam="1">  1        2 0.44153949E+00 0.69344592E+03</pdfrwt>
<pdfrwt beam="2">  1       -2 0.86657690E-01 0.69344592E+03</pdfrwt>
<totfact> 0.25988587E+00</totfact>
</mgrwt>
</event>
<event>
 4    1  0.2358610E-002  0.4163495E+03  0.7818608E-02  0.1038261E+00
         -2   -1    0    0    0  501 -0.00000000000E+00  0.00000000000E+00  0.18647511220E+03  0.18647511220E+03  0.00000000000E+00 0. -1.
          2   -1    0    0  502    0  0.00000000000E+00 -0.00000000000E+00 -0.96537771917E+03  0.96537771917E+03  0.00000000000E+00 0.  1.
    9000005    1    1    2  502    0  0.11396331058E+03  0.18954181383E+02 -0.50032707069E+03  0.65090250792E+03  0.40000000000E+03 0.  1.
   -9000005    1    1    2    0  501 -0.11396331058E+03 -0.18954181383E+02 -0.27857553627E+03  0.50095032344E+03  0.40000000000E+03 0. -1.
<mgrwt>
<rscale>  2 0.41634949E+03</rscale>
<asrwt>0</asrwt>
<pdfrwt beam="1">  1        2 0.14851965E+00 0.41634949E+03</pdfrwt>
<pdfrwt beam="2">  1       -2 0.28688479E-01 0.41634949E+03</pdfrwt>
<totfact> 0.30415759E+02</totfact>
</mgrwt>
</event>
<event>
 4    1  0.2358610E-002  0.4278141E+03  0.7818608E-02  0.1034553E+00
          1   -1    0    0  502    0  0.00000000000E+00  0.00000000000E+00  0.37327171359E+03  0.37327171359E+03  0.00000000000E+00 0.  1.
         -1   -1    0    0    0  501 -0.00000000000E+00 -0.00000000000E+00 -0.49044875849E+03  0.49044875849E+03  0.00000000000E+00 0. -1.
    9000005    1    1    2  502    0 -0.33570467735E+02 -0.14797936524E+03 -0.51759316851E+02  0.43093374864E+03  0.40000000000E+03 0.  1.
   -9000005    1    1    2    0  501  0.33570467735E+02  0.14797936524E+03 -0.65417728045E+02  0.43278672344E+03  0.40000000000E+03 0.  1.
<mgrwt>
<rscale>  2 0.42781406E+03</rscale>
<asrwt>0</asrwt>
<pdfrwt beam="1">  1        1 0.57426418E-01 0.42781406E+03</pdfrwt>
<pdfrwt beam="2">  1       -1 0.75453655E-01 0.42781406E+03</pdfrwt>
<totfact> 0.12093521E+02</totfact>
</mgrwt>
</event>
<event>
 4    1  0.2358610E-002  0.4210699E+03  0.7818608E-02  0.1036719E+00
          1   -1    0    0  502    0  0.00000000000E+00  0.00000000000E+00  0.17007440306E+04  0.17007440306E+04  0.00000000000E+00 0.  1.
         -1   -1    0    0    0  501 -0.00000000000E+00 -0.00000000000E+00 -0.18103058256E+03  0.18103058256E+03  0.00000000000E+00 0. -1.
    9000005    1    1    2  502    0  0.64304483541E+02 -0.11473800939E+03  0.13726186972E+04  0.14357513591E+04  0.40000000000E+03 0.  1.
   -9000005    1    1    2    0  501 -0.64304483541E+02  0.11473800939E+03  0.14709475088E+03  0.44602325403E+03  0.40000000000E+03 0. -1.
<mgrwt>
<rscale>  2 0.42106992E+03</rscale>
<asrwt>0</asrwt>
<pdfrwt beam="1">  1        1 0.26165292E+00 0.42106992E+03</pdfrwt>
<pdfrwt beam="2">  1       -1 0.27850860E-01 0.42106992E+03</pdfrwt>
<totfact> 0.59691816E+01</totfact>
</mgrwt>
</event>
<event>
 4    1  0.2358610E-002  0.4012659E+03  0.7818608E-02  0.1043342E+00
          2   -1    0    0  502    0  0.00000000000E+00  0.00000000000E+00  0.48910412323E+03  0.48910412323E+03  0.00000000000E+00 0.  1.
         -2   -1    0    0    0  501 -0.00000000000E+00 -0.00000000000E+00 -0.64196423557E+03  0.64196423557E+03  0.00000000000E+00 0. -1.
    9000005    1    1    2  502    0 -0.12211192360E+02  0.29413888020E+02  0.31830914903E+03  0.51218649375E+03  0.40000000000E+03 0.  1.
   -9000005    1    1    2    0  501  0.12211192360E+02 -0.29413888020E+02 -0.47116926136E+03  0.61888186504E+03  0.40000000000E+03 0. -1.
<mgrwt>
<rscale>  2 0.40126586E+03</rscale>
<asrwt>0</asrwt>
<pdfrwt beam="1">  1        2 0.75246788E-01 0.40126586E+03</pdfrwt>
<pdfrwt beam="2">  1       -2 0.98763729E-01 0.40126586E+03</pdfrwt>
<totfact> 0.56013030E+01</totfact>
</mgrwt>
</event>
<event>
 4    1  0.2358610E-002  0.4553009E+03  0.7818608E-02  0.1026153E+00
          2   -1    0    0  502    0  0.00000000000E+00  0.00000000000E+00  0.85538339834E+03  0.85538339834E+03  0.00000000000E+00 0.  1.
         -2   -1    0    0    0  501 -0.00000000000E+00 -0.00000000000E+00 -0.25203532804E+03  0.25203532804E+03  0.00000000000E+00 0. -1.
    9000005    1    1    2  502    0 -0.58836084936E+02 -0.20937346027E+03  0.41023985632E+03  0.61285860561E+03  0.40000000000E+03 0.  1.
   -9000005    1    1    2    0  501  0.58836084936E+02  0.20937346027E+03  0.19310821398E+03  0.49456012078E+03  0.40000000000E+03 0.  1.
<mgrwt>
<rscale>  2 0.45530092E+03</rscale>
<asrwt>0</asrwt>
<pdfrwt beam="1">  1        2 0.13159744E+00 0.45530092E+03</pdfrwt>
<pdfrwt beam="2">  1       -2 0.38774666E-01 0.45530092E+03</pdfrwt>
<totfact> 0.20366187E+02</totfact>
</mgrwt>
</event>
<event>
 4    1  0.2358610E-002  0.4613295E+03  0.7818608E-02  0.1024396E+00
         -2   -1    0    0    0  501 -0.00000000000E+00  0.00000000000E+00  0.32382587111E+03  0.32382587111E+03  0.00000000000E+00 0. -1.
          2   -1    0    0  502    0  0.00000000000E+00 -0.00000000000E+00 -0.67704235384E+03  0.67704235384E+03  0.00000000000E+00 0.  1.
    9000005    1    1    2  502    0 -0.15938271334E+03 -0.16559599720E+03 -0.90980381276E+02  0.47021517774E+03  0.40000000000E+03 0. -1.
   -9000005    1    1    2    0  501  0.15938271334E+03  0.16559599720E+03 -0.26223610146E+03  0.53065304720E+03  0.40000000000E+03 0. -1.
<mgrwt>
<rscale>  2 0.46132947E+03</rscale>
<asrwt>0</asrwt>
<pdfrwt beam="1">  1        2 0.10416036E+00 0.46132947E+03</pdfrwt>
<pdfrwt beam="2">  1       -2 0.49819366E-01 0.46132947E+03</pdfrwt>
<totfact> 0.16761321E+02</totfact>
</mgrwt>
</event>
<event>
 4    1  0.2358610E-002  0.5333175E+03  0.7818608E-02  0.1005431E+00
         -1   -1    0    0    0  501 -0.00000000000E+00  0.00000000000E+00  0.50693565310E+03  0.50693565310E+03  0.00000000000E+00 0. -1.
          1   -1    0    0  502    0  0.00000000000E+00 -0.00000000000E+00 -0.67720239102E+03  0.67720239102E+03  0.00000000000E+00 0.  1.
    9000005    1    1    2  502    0  0.32270838040E+03 -0.14243204411E+03 -0.33031354829E+03  0.62732338243E+03  0.40000000000E+03 0.  1.
   -9000005    1    1    2    0  501 -0.32270838040E+03  0.14243204411E+03  0.16004681037E+03  0.55681466169E+03  0.40000000000E+03 0. -1.
<mgrwt>
<rscale>  2 0.53331753E+03</rscale>
<asrwt>0</asrwt>
<pdfrwt beam="1">  1        1 0.10418498E+00 0.53331753E+03</pdfrwt>
<pdfrwt beam="2">  1       -1 0.77990100E-01 0.53331753E+03</pdfrwt>
<totfact> 0.49349664E+01</totfact>
</mgrwt>
</event>
<event>
 4    1  0.2358610E-002  0.4353028E+03  0.7818608E-02  0.1032198E+00
         -1   -1    0    0    0  501 -0.00000000000E+00  0.00000000000E+00  0.10139645062E+04  0.10139645062E+04  0.00000000000E+00 0.  1.
          1   -1    0    0  502    0  0.00000000000E+00 -0.00000000000E+00 -0.95262804175E+03  0.95262804175E+03  0.00000000000E+00 0. -1.
    9000005    1    1    2  502    0 -0.16666813674E+03 -0.41355310833E+02  0.91225686942E+03  0.10107923255E+04  0.40000000000E+03 0.  1.
   -9000005    1    1    2    0  501  0.16666813674E+03  0.41355310833E+02 -0.85092040499E+03  0.95580022241E+03  0.40000000000E+03 0. -1.
<mgrwt>
<rscale>  2 0.43530280E+03</rscale>
<asrwt>0</asrwt>
<pdfrwt beam="1">  1        1 0.14655816E+00 0.43530280E+03</pdfrwt>
<pdfrwt beam="2">  1       -1 0.15599454E+00 0.43530280E+03</pdfrwt>
<totfact> 0.57071482E+00</totfact>
</mgrwt>
</event>
<event>
 4    1  0.2358610E-002  0.4105796E+03  0.7818608E-02  0.1040177E+00
          2   -1    0    0  502    0  0.00000000000E+00  0.00000000000E+00  0.23611848812E+03  0.23611848812E+03  0.00000000000E+00 0.  1.
         -2   -1    0    0    0  501 -0.00000000000E+00 -0.00000000000E+00 -0.72594840782E+03  0.72594840782E+03  0.00000000000E+00 0. -1.
    9000005    1    1    2  502    0 -0.84352065802E+02  0.38214473349E+02 -0.30676990834E+03  0.51252648092E+03  0.40000000000E+03 0. -1.
   -9000005    1    1    2    0  501  0.84352065802E+02 -0.38214473349E+02 -0.18306001137E+03  0.44954041502E+03  0.40000000000E+03 0.  1.
<mgrwt>
<rscale>  2 0.41057961E+03</rscale>
<asrwt>0</asrwt>
<pdfrwt beam="1">  1        2 0.36325921E-01 0.41057961E+03</pdfrwt>
<pdfrwt beam="2">  1       -2 0.11168437E+00 0.41057961E+03</pdfrwt>
<totfact> 0.93406254E+01</totfact>
</mgrwt>
</event>
<event>
 4    1  0.2358610E-002  0.4641917E+03  0.7818608E-02  0.1023572E+00
          2   -1    0    0  502    0  0.00000000000E+00  0.00000000000E+00  0.19208025218E+04  0.19208025218E+04  0.00000000000E+00 0. -1.
         -2   -1    0    0    0  501 -0.00000000000E+00 -0.00000000000E+00 -0.15523421108E+03  0.15523421108E+03  0.00000000000E+00 0.  1.
    9000005    1    1    2  502    0  0.14761531496E+03 -0.18353113209E+03  0.33611632317E+03  0.57310395249E+03  0.40000000000E+03 0.  1.
   -9000005    1    1    2    0  501 -0.14761531496E+03  0.18353113209E+03  0.14294519875E+04  0.15029327804E+04  0.40000000000E+03 0. -1.
<mgrwt>
<rscale>  2 0.46419173E+03</rscale>
<asrwt>0</asrwt>
<pdfrwt beam="1">  1        2 0.29550806E+00 0.46419173E+03</pdfrwt>
<pdfrwt beam="2">  1       -2 0.23882188E-01 0.46419173E+03</pdfrwt>
<totfact> 0.12216212E+02</totfact>
</mgrwt>
</event>
<event>
 4    1  0.2358610E-002  0.6429487E+03  0.7818608E-02  0.9820101E-01
         -1   -1    0    0    0  501 -0.00000000000E+00  0.00000000000E+00  0.57977574046E+03  0.57977574046E+03  0.00000000000E+00 0. -1.
          1   -1    0    0  502    0  0.00000000000E+00 -0.00000000000E+00 -0.89735905653E+03  0.89735905653E+03  0.00000000000E+00 0.  1.
    9000005    1    1    2  502    0 -0.49621050231E+03 -0.84605704388E+02 -0.49355152438E+03  0.81054061899E+03  0.40000000000E+03 0.  1.
   -9000005    1    1    2    0  501  0.49621050231E+03  0.84605704388E+02  0.17596820831E+03  0.66659417801E+03  0.40000000000E+03 0. -1.
<mgrwt>
<rscale>  2 0.64294867E+03</rscale>
<asrwt>0</asrwt>
<pdfrwt beam="1">  1        1 0.13805524E+00 0.64294867E+03</pdfrwt>
<pdfrwt beam="2">  1       -1 0.89196268E-01 0.64294867E+03</pdfrwt>
<totfact> 0.23461918E+01</totfact>
</mgrwt>
</event>
<event>
 4    1  0.2358610E-002  0.5796684E+03  0.7818608E-02  0.9948509E-01
          2   -1    0    0  502    0  0.00000000000E+00  0.00000000000E+00  0.17595881105E+04  0.17595881105E+04  0.00000000000E+00 0.  1.
         -2   -1    0    0    0  501 -0.00000000000E+00 -0.00000000000E+00 -0.19507840733E+03  0.19507840733E+03  0.00000000000E+00 0. -1.
    9000005    1    1    2  502    0 -0.24596101626E+00  0.41954189072E+03  0.64029437349E+03  0.86370848281E+03  0.40000000000E+03 0.  1.
   -9000005    1    1    2    0  501  0.24596101626E+00 -0.41954189072E+03  0.92421532969E+03  0.10909580350E+04  0.40000000000E+03 0.  1.
<mgrwt>
<rscale>  2 0.57966840E+03</rscale>
<asrwt>0</asrwt>
<pdfrwt beam="1">  1        2 0.27070585E+00 0.57966840E+03</pdfrwt>
<pdfrwt beam="2">  1       -2 0.30012064E-01 0.57966840E+03</pdfrwt>
<totfact> 0.96989432E+01</totfact>
</mgrwt>
</event>
<event>
 4    1  0.2358610E-002  0.5196309E+03  0.7818608E-02  0.1008778E+00
          2   -1    0    0  502    0  0.00000000000E+00  0.00000000000E+00  0.25034774934E+04  0.25034774934E+04  0.00000000000E+00 0.  1.
         -2   -1    0    0    0  501 -0.00000000000E+00 -0.00000000000E+00 -0.11086925601E+03  0.11086925601E+03  0.00000000000E+00 0. -1.
    9000005    1    1    2  502    0  0.16099316886E+03  0.28999558457E+03  0.98082165467E+03  0.11099672778E+04  0.40000000000E+03 0.  1.
   -9000005    1    1    2    0  501 -0.16099316886E+03 -0.28999558457E+03  0.14117865827E+04  0.15043794716E+04  0.40000000000E+03 0. -1.
<mgrwt>
<rscale>  2 0.51963087E+03</rscale>
<asrwt>0</asrwt>
<pdfrwt beam="1">  1        2 0.38515034E+00 0.51963087E+03</pdfrwt>
<pdfrwt beam="2">  1       -2 0.17056810E-01 0.51963087E+03</pdfrwt>
<totfact> 0.10457030E+02</totfact>
</mgrwt>
</event>
<event>
 4    1  0.2358610E-002  0.4496194E+03  0.7818608E-02  0.1027836E+00
          2   -1    0    0  502    0  0.00000000000E+00  0.00000000000E+00  0.97003053910E+03  0.97003053910E+03  0.00000000000E+00 0. -1.
         -2   -1    0    0    0  501 -0.00000000000E+00 -0.00000000000E+00 -0.20842130365E+03  0.20842130365E+03  0.00000000000E+00 0.  1.
    9000005    1    1    2  502    0 -0.15053136501E+03  0.13963482449E+03  0.38627930173E+03  0.59276409727E+03  0.40000000000E+03 0. -1.
   -9000005    1    1    2    0  501  0.15053136501E+03 -0.13963482449E+03  0.37532993372E+03  0.58568774548E+03  0.40000000000E+03 0.  1.
<mgrwt>
<rscale>  2 0.44961937E+03</rscale>
<asrwt>0</asrwt>
<pdfrwt beam="1">  1        2 0.14923547E+00 0.44961937E+03</pdfrwt>
<pdfrwt beam="2">  1       -2 0.32064816E-01 0.44961937E+03</pdfrwt>
<totfact> 0.24540381E+02</totfact>
</mgrwt>
</event>
<event>
 4    1  0.2358610E-002  0.7923935E+03  0.7818608E-02  0.9571093E-01
         -2   -1    0    0    0  501 -0.00000000000E+00  0.00000000000E+00  0.34103609208E+03  0.34103609208E+03  0.00000000000E+00 0.  1.
          2   -1    0    0  502    0  0.00000000000E+00 -0.00000000000E+00 -0.19009377026E+04  0.19009377026E+04  0.00000000000E+00 0. -1.
    9000005    1    1    2  502    0 -0.10444577372E+03  0.67600192088E+03 -0.97880764814E+03  0.12593458337E+04  0.40000000000E+03 0.  1.
   -9000005    1    1    2    0  501  0.10444577372E+03 -0.67600192088E+03 -0.58109396237E+03  0.98262796102E+03  0.40000000000E+03 0. -1.
<mgrwt>
<rscale>  2 0.79239354E+03</rscale>
<asrwt>0</asrwt>
<pdfrwt beam="1">  1        2 0.29245195E+00 0.79239354E+03</pdfrwt>
<pdfrwt beam="2">  1       -2 0.52467091E-01 0.79239354E+03</pdfrwt>
<totfact> 0.26662650E+01</totfact>
</mgrwt>
</event>
<event>
 4    1  0.2358610E-002  0.7879298E+03  0.7818608E-02  0.9577654E-01
          1   -1    0    0  502    0  0.00000000000E+00  0.00000000000E+00  0.56587652321E+03  0.56587652321E+03  0.00000000000E+00 0. -1.
         -1   -1    0    0    0  501 -0.00000000000E+00 -0.00000000000E+00 -0.13061598580E+04  0.13061598580E+04  0.00000000000E+00 0.  1.
    9000005    1    1    2  502    0  0.67884217364E+03  0.25688366319E+01 -0.74459939265E+03  0.10840948073E+04  0.40000000000E+03 0.  1.
   -9000005    1    1    2    0  501 -0.67884217364E+03 -0.25688366319E+01  0.43160578240E+01  0.78794157397E+03  0.40000000000E+03 0. -1.
<mgrwt>
<rscale>  2 0.78792975E+03</rscale>
<asrwt>0</asrwt>
<pdfrwt beam="1">  1        1 0.87057927E-01 0.78792975E+03</pdfrwt>
<pdfrwt beam="2">  1       -1 0.20094767E+00 0.78792975E+03</pdfrwt>
<totfact> 0.56883218E+00</totfact>
</mgrwt>
</event>
<event>
 4    1  0.2358610E-002  0.4301076E+03  0.7818608E-02  0.1033826E+00
         -2   -1    0    0    0  501 -0.00000000000E+00  0.00000000000E+00  0.46645244846E+03  0.46645244846E+03  0.00000000000E+00 0.  1.
          2   -1    0    0  502    0  0.00000000000E+00 -0.00000000000E+00 -0.46423710449E+03  0.46423710449E+03  0.00000000000E+00 0. -1.
    9000005    1    1    2  502    0 -0.89310767305E+02 -0.13044598002E+03  0.17873690936E+03  0.46576759186E+03  0.40000000000E+03 0.  1.
   -9000005    1    1    2    0  501  0.89310767305E+02  0.13044598002E+03 -0.17652156539E+03  0.46492196110E+03  0.40000000000E+03 0. -1.
<mgrwt>
<rscale>  2 0.43010762E+03</rscale>
<asrwt>0</asrwt>
<pdfrwt beam="1">  1        2 0.71421093E-01 0.43010762E+03</pdfrwt>
<pdfrwt beam="2">  1       -2 0.71761915E-01 0.43010762E+03</pdfrwt>
<totfact> 0.12173782E+02</totfact>
</mgrwt>
</event>
<event>
 4    1  0.2358610E-002  0.5482072E+03  0.7818608E-02  0.1001910E+00
         -1   -1    0    0    0  501 -0.00000000000E+00  0.00000000000E+00  0.29095237454E+03  0.29095237454E+03  0.00000000000E+00 0.  1.
          1   -1    0    0  502    0  0.00000000000E+00 -0.00000000000E+00 -0.10399339332E+04  0.10399339332E+04  0.00000000000E+00 0. -1.
    9000005    1    1    2  502    0  0.64688076241E+02 -0.36925143289E+03 -0.42913203354E+03  0.69619355793E+03  0.40000000000E+03 0. -1.
   -9000005    1    1    2    0  501 -0.64688076241E+02  0.36925143289E+03 -0.31984952508E+03  0.63469274975E+03  0.40000000000E+03 0. -1.
<mgrwt>
<rscale>  2 0.54820723E+03</rscale>
<asrwt>0</asrwt>
<pdfrwt beam="1">  1        1 0.15998984E+00 0.54820723E+03</pdfrwt>
<pdfrwt beam="2">  1       -1 0.44761903E-01 0.54820723E+03</pdfrwt>
<totfact> 0.72736041E+01</totfact>
</mgrwt>
</event>
<event>
 4    1  0.2358610E-002  0.5353961E+03  0.7818608E-02  0.1004932E+00
         -2   -1    0    0    0  501 -0.00000000000E+00  0.00000000000E+00  0.15107774894E+03  0.15107774894E+03  0.00000000000E+00 0.  1.
          2   -1    0    0  502    0  0.00000000000E+00 -0.00000000000E+00 -0.35020057265E+04  0.35020057265E+04  0.00000000000E+00 0. -1.
    9000005    1    1    2  502    0 -0.46771367793E+02 -0.35279089894E+03 -0.29118687410E+04  0.29606804191E+04  0.40000000000E+03 0. -1.
   -9000005    1    1    2    0  501  0.46771367793E+02  0.35279089894E+03 -0.43905923654E+03  0.69240305633E+03  0.40000000000E+03 0.  1.
<mgrwt>
<rscale>  2 0.53539610E+03</rscale>
<asrwt>0</asrwt>
<pdfrwt beam="1">  1        2 0.53877011E+00 0.53539610E+03</pdfrwt>
<pdfrwt beam="2">  1       -2 0.23242731E-01 0.53539610E+03</pdfrwt>
<totfact> 0.14968115E+01</totfact>
</mgrwt>
</event>
<event>
 4    1  0.2358610E-002  0.4091342E+03  0.7818608E-02  0.1040662E+00
         -2   -1    0    0    0  501 -0.00000000000E+00  0.00000000000E+00  0.79592147952E+02  0.79592147952E+02  0.00000000000E+00 0. -1.
          2   -1    0    0  502    0  0.00000000000E+00 -0.00000000000E+00 -0.25060882937E+04  0.25060882937E+04  0.00000000000E+00 0.  1.
    9000005    1    1    2  502    0  0.38244474783E+01  0.85884708117E+02 -0.69481932778E+03  0.80632791577E+03  0.40000000000E+03 0. -1.
   -9000005    1    1    2    0  501 -0.38244474783E+01 -0.85884708117E+02 -0.17316768180E+04  0.17793525259E+04  0.40000000000E+03 0.  1.
<mgrwt>
<rscale>  2 0.40913422E+03</rscale>
<asrwt>0</asrwt>
<pdfrwt beam="1">  1        2 0.38555196E+00 0.40913422E+03</pdfrwt>
<pdfrwt beam="2">  1       -2 0.12244949E-01 0.40913422E+03</pdfrwt>
<totfact> 0.18495810E+02</totfact>
</mgrwt>
</event>
<event>
 4    1  0.2358610E-002  0.4105393E+03  0.7818608E-02  0.1040190E+00
          2   -1    0    0  502    0  0.00000000000E+00  0.00000000000E+00  0.52893997404E+03  0.52893997404E+03  0.00000000000E+00 0. -1.
         -2   -1    0    0    0  501 -0.00000000000E+00 -0.00000000000E+00 -0.34584804809E+03  0.34584804809E+03  0.00000000000E+00 0.  1.
    9000005    1    1    2  502    0 -0.86188205056E+02 -0.33378460831E+02  0.21422273450E+03  0.46307009007E+03  0.40000000000E+03 0. -1.
   -9000005    1    1    2    0  501  0.86188205056E+02  0.33378460831E+02 -0.31130808547E+02  0.41171793206E+03  0.40000000000E+03 0.  1.
<mgrwt>
<rscale>  2 0.41053931E+03</rscale>
<asrwt>0</asrwt>
<pdfrwt beam="1">  1        2 0.81375380E-01 0.41053931E+03</pdfrwt>
<pdfrwt beam="2">  1       -2 0.53207392E-01 0.41053931E+03</pdfrwt>
<totfact> 0.19737468E+02</totfact>
</mgrwt>
</event>
<event>
 4    1  0.2358610E-002  0.5358918E+03  0.7818608E-02  0.1004813E+00
          2   -1    0    0  502    0  0.00000000000E+00  0.00000000000E+00  0.28754149519E+04  0.28754149519E+04  0.00000000000E+00 0.  1.
         -2   -1    0    0    0  501 -0.00000000000E+00 -0.00000000000E+00 -0.15255563837E+03  0.15255563837E+03  0.00000000000E+00 0. -1.
    9000005    1    1    2  502    0  0.13925570959E+03 -0.32831057514E+03  0.47174515723E+03  0.71394921372E+03  0.40000000000E+03 0. -1.
   -9000005    1    1    2    0  501 -0.13925570959E+03  0.32831057514E+03  0.22511141563E+04  0.23140213765E+04  0.40000000000E+03 0.  1.
<mgrwt>
<rscale>  2 0.53589177E+03</rscale>
<asrwt>0</asrwt>
<pdfrwt beam="1">  1        2 0.44237149E+00 0.53589177E+03</pdfrwt>
<pdfrwt beam="2">  1       -2 0.23470100E-01 0.53589177E+03</pdfrwt>
<totfact> 0.36542917E+01</totfact>
</mgrwt>
</event>
<event>
 4    1  0.2358610E-002  0.4196874E+03  0.7818608E-02  0.1037168E+00
          2   -1    0    0  502    0  0.00000000000E+00  0.00000000000E+00  0.45939450044E+03  0.45939450044E+03  0.00000000000E+00 0. -1.
         -2   -1    0    0    0  501 -0.00000000000E+00 -0.00000000000E+00 -0.11712791103E+04  0.11712791103E+04  0.00000000000E+00 0.  1.
    9000005    1    1    2  502    0  0.66127809859E+02  0.10846485573E+03  0.31276065464E+03  0.52340876880E+03  0.40000000000E+03 0. -1.
   -9000005    1    1    2    0  501 -0.66127809859E+02 -0.10846485573E+03 -0.10246452645E+04  0.11072648420E+04  0.40000000000E+03 0.  1.
<mgrwt>
<rscale>  2 0.41968740E+03</rscale>
<asrwt>0</asrwt>
<pdfrwt beam="1">  1        2 0.70676078E-01 0.41968740E+03</pdfrwt>
<pdfrwt beam="2">  1       -2 0.18019678E+00 0.41968740E+03</pdfrwt>
<totfact> 0.13021290E+01</totfact>
</mgrwt>
</event>
<event>
 4    1  0.2358610E-002  0.4847711E+03  0.7818608E-02  0.1017832E+00
         -2   -1    0    0    0  501 -0.00000000000E+00  0.00000000000E+00  0.71979921594E+03  0.71979921594E+03  0.00000000000E+00 0.  1.
          2   -1    0    0  502    0  0.00000000000E+00 -0.00000000000E+00 -0.10032534551E+04  0.10032534551E+04  0.00000000000E+00 0. -1.
    9000005    1    1    2  502    0 -0.11210646723E+03 -0.24987024068E+03 -0.84932018676E+03  0.97793035376E+03  0.40000000000E+03 0. -1.
   -9000005    1    1    2    0  501  0.11210646723E+03  0.24987024068E+03  0.56586594755E+03  0.74512231732E+03  0.40000000000E+03 0.  1.
<mgrwt>
<rscale>  2 0.48477108E+03</rscale>
<asrwt>0</asrwt>
<pdfrwt beam="1">  1        2 0.15434669E+00 0.48477108E+03</pdfrwt>
<pdfrwt beam="2">  1       -2 0.11073834E+00 0.48477108E+03</pdfrwt>
<totfact> 0.17075635E+01</totfact>
</mgrwt>
</event>
<event>
 4    1  0.2358610E-002  0.4779878E+03  0.7818608E-02  0.1019690E+00
          1   -1    0    0  502    0  0.00000000000E+00  0.00000000000E+00  0.89581111381E+03  0.89581111381E+03  0.00000000000E+00 0. -1.
         -1   -1    0    0    0  501 -0.00000000000E+00 -0.00000000000E+00 -0.29259806932E+03  0.29259806932E+03  0.00000000000E+00 0.  1.
    9000005    1    1    2  502    0 -0.63031777343E+02  0.25396722775E+03  0.88733010371E+02  0.48615419864E+03  0.40000000000E+03 0.  1.
   -9000005    1    1    2    0  501  0.63031777343E+02 -0.25396722775E+03  0.51448003413E+03  0.70225498449E+03  0.40000000000E+03 0. -1.
<mgrwt>
<rscale>  2 0.47798782E+03</rscale>
<asrwt>0</asrwt>
<pdfrwt beam="1">  1        1 0.13781709E+00 0.47798782E+03</pdfrwt>
<pdfrwt beam="2">  1       -1 0.45015088E-01 0.47798782E+03</pdfrwt>
<totfact> 0.94022457E+01</totfact>
</mgrwt>
</event>
<event>
 4    1  0.2358610E-002  0.6212189E+03  0.7818608E-02  0.9862336E-01
          2   -1    0    0  502    0  0.00000000000E+00  0.00000000000E+00  0.12266233525E+04  0.12266233525E+04  0.00000000000E+00 0. -1.
         -2   -1    0    0    0  501 -0.00000000000E+00 -0.00000000000E+00 -0.31674494252E+03  0.31674494252E+03  0.00000000000E+00 0.  1.
    9000005    1    1    2  502    0 -0.18368701918E+03  0.43837420743E+03  0.39164387698E+03  0.73436897615E+03  0.40000000000E+03 0.  1.
   -9000005    1    1    2    0  501  0.18368701918E+03 -0.43837420743E+03  0.51823453304E+03  0.80899931890E+03  0.40000000000E+03 0.  1.
<mgrwt>
<rscale>  2 0.62121886E+03</rscale>
<asrwt>0</asrwt>
<pdfrwt beam="1">  1        2 0.18871128E+00 0.62121886E+03</pdfrwt>
<pdfrwt beam="2">  1       -2 0.48729992E-01 0.62121886E+03</pdfrwt>
<totfact> 0.74962571E+01</totfact>
</mgrwt>
</event>
<event>
 4    1  0.2358610E-002  0.4003876E+03  0.7818608E-02  0.1043646E+00
         -1   -1    0    0    0  501 -0.00000000000E+00  0.00000000000E+00  0.55199106651E+03  0.55199106651E+03  0.00000000000E+00 0.  1.
          1   -1    0    0  502    0  0.00000000000E+00 -0.00000000000E+00 -0.32452009655E+03  0.32452009655E+03  0.00000000000E+00 0. -1.
    9000005    1    1    2  502    0  0.13681114137E+02 -0.11094036307E+02 -0.28324860914E+02  0.40138827620E+03  0.40000000000E+03 0. -1.
   -9000005    1    1    2    0  501 -0.13681114137E+02  0.11094036307E+02  0.25579583087E+03  0.47512288686E+03  0.40000000000E+03 0.  1.
<mgrwt>
<rscale>  2 0.40038763E+03</rscale>
<asrwt>0</asrwt>
<pdfrwt beam="1">  1        1 0.49926169E-01 0.40038763E+03</pdfrwt>
<pdfrwt beam="2">  1       -1 0.84921702E-01 0.40038763E+03</pdfrwt>
<totfact> 0.11334596E+02</totfact>
</mgrwt>
</event>
<event>
 4    1  0.2358610E-002  0.4243828E+03  0.7818608E-02  0.1035649E+00
          4   -1    0    0  502    0  0.00000000000E+00  0.00000000000E+00  0.28528873659E+03  0.28528873659E+03  0.00000000000E+00 0. -1.
         -4   -1    0    0    0  501 -0.00000000000E+00 -0.00000000000E+00 -0.67255588096E+03  0.67255588096E+03  0.00000000000E+00 0.  1.
    9000005    1    1    2  502    0 -0.12272953610E+03 -0.70980725369E+02 -0.75007463498E+02  0.43096046453E+03  0.40000000000E+03 0. -1.
   -9000005    1    1    2    0  501  0.12272953610E+03  0.70980725369E+02 -0.31225968088E+03  0.52688415302E+03  0.40000000000E+03 0.  1.
<mgrwt>
<rscale>  2 0.42438285E+03</rscale>
<asrwt>0</asrwt>
<pdfrwt beam="1">  1        4 0.43890575E-01 0.42438285E+03</pdfrwt>
<pdfrwt beam="2">  1       -4 0.10347013E+00 0.42438285E+03</pdfrwt>
<totfact> 0.74272236E+00</totfact>
</mgrwt>
</event>
<event>
 4    1  0.2358610E-002  0.4096260E+03  0.7818608E-02  0.1040497E+00
         -2   -1    0    0    0  501 -0.00000000000E+00  0.00000000000E+00  0.70318345590E+02  0.70318345590E+02  0.00000000000E+00 0.  1.
          2   -1    0    0  502    0  0.00000000000E+00 -0.00000000000E+00 -0.25188275308E+04  0.25188275308E+04  0.00000000000E+00 0. -1.
    9000005    1    1    2  502    0 -0.78253459358E+02  0.40863963149E+02 -0.92719192118E+03  0.10136460556E+04  0.40000000000E+03 0.  1.
   -9000005    1    1    2    0  501  0.78253459358E+02 -0.40863963149E+02 -0.15213172640E+04  0.15754998208E+04  0.40000000000E+03 0. -1.
<mgrwt>
<rscale>  2 0.40962601E+03</rscale>
<asrwt>0</asrwt>
<pdfrwt beam="1">  1        2 0.38751186E+00 0.40962601E+03</pdfrwt>
<pdfrwt beam="2">  1       -2 0.10818209E-01 0.40962601E+03</pdfrwt>
<totfact> 0.22264084E+02</totfact>
</mgrwt>
</event>
<event>
 4    1  0.2358610E-002  0.4243035E+03  0.7818608E-02  0.1035675E+00
         -1   -1    0    0    0  501 -0.00000000000E+00  0.00000000000E+00  0.22922438953E+03  0.22922438953E+03  0.00000000000E+00 0.  1.
          1   -1    0    0  502    0  0.00000000000E+00 -0.00000000000E+00 -0.80873568813E+03  0.80873568813E+03  0.00000000000E+00 0. -1.
    9000005    1    1    2  502    0  0.14122239068E+03 -0.94707524667E+01 -0.20160361194E+03  0.46976321177E+03  0.40000000000E+03 0.  1.
   -9000005    1    1    2    0  501 -0.14122239068E+03  0.94707524667E+01 -0.37790768665E+03  0.56819686590E+03  0.40000000000E+03 0. -1.
<mgrwt>
<rscale>  2 0.42430350E+03</rscale>
<asrwt>0</asrwt>
<pdfrwt beam="1">  1        1 0.12442088E+00 0.42430350E+03</pdfrwt>
<pdfrwt beam="2">  1       -1 0.35265290E-01 0.42430350E+03</pdfrwt>
<totfact> 0.17323402E+02</totfact>
</mgrwt>
</event>
<event>
 4    1  0.2358610E-002  0.4007507E+03  0.7818608E-02  0.1043520E+00
         -1   -1    0    0    0  501 -0.00000000000E+00  0.00000000000E+00  0.95128752652E+03  0.95128752652E+03  0.00000000000E+00 0.  1.
          1   -1    0    0  502    0  0.00000000000E+00 -0.00000000000E+00 -0.24543697811E+03  0.24543697811E+03  0.00000000000E+00 0. -1.
    9000005    1    1    2  502    0  0.24434158021E+02 -0.20149036149E+01  0.68723007574E+03  0.79554149163E+03  0.40000000000E+03 0.  1.
   -9000005    1    1    2    0  501 -0.24434158021E+02  0.20149036149E+01  0.18620472672E+02  0.40118301300E+03  0.40000000000E+03 0. -1.
<mgrwt>
<rscale>  2 0.40075066E+03</rscale>
<asrwt>0</asrwt>
<pdfrwt beam="1">  1        1 0.37759536E-01 0.40075066E+03</pdfrwt>
<pdfrwt beam="2">  1       -1 0.14635192E+00 0.40075066E+03</pdfrwt>
<totfact> 0.44984138E+01</totfact>
</mgrwt>
</event>
<event>
 4    1  0.2358610E-002  0.4631725E+03  0.7818608E-02  0.1023865E+00
         -2   -1    0    0    0  501 -0.00000000000E+00  0.00000000000E+00  0.33380450040E+03  0.33380450040E+03  0.00000000000E+00 0. -1.
          2   -1    0    0  502    0  0.00000000000E+00 -0.00000000000E+00 -0.11922242131E+04  0.11922242131E+04  0.00000000000E+00 0.  1.
    9000005    1    1    2  502    0 -0.20159468030E+03 -0.11784886193E+03  0.88821319606E+02  0.47161212474E+03  0.40000000000E+03 0. -1.
   -9000005    1    1    2    0  501  0.20159468030E+03  0.11784886193E+03 -0.94724103234E+03  0.10544165888E+04  0.40000000000E+03 0.  1.
<mgrwt>
<rscale>  2 0.46317250E+03</rscale>
<asrwt>0</asrwt>
<pdfrwt beam="1">  1        2 0.18341911E+00 0.46317250E+03</pdfrwt>
<pdfrwt beam="2">  1       -2 0.51354538E-01 0.46317250E+03</pdfrwt>
<totfact> 0.71965330E+01</totfact>
</mgrwt>
</event>
<event>
 4    1  0.2358610E-002  0.4886813E+03  0.7818608E-02  0.1016776E+00
          2   -1    0    0  502    0  0.00000000000E+00  0.00000000000E+00  0.24478613129E+04  0.24478613129E+04  0.00000000000E+00 0.  1.
         -2   -1    0    0    0  501 -0.00000000000E+00 -0.00000000000E+00 -0.97630646010E+02  0.97630646010E+02  0.00000000000E+00 0. -1.
    9000005    1    1    2  502    0  0.94089266570E+02 -0.26449315464E+03  0.11404916723E+04  0.12407782531E+04  0.40000000000E+03 0.  1.
   -9000005    1    1    2    0  501 -0.94089266570E+02  0.26449315464E+03  0.12097389947E+04  0.13047137058E+04  0.40000000000E+03 0. -1.
<mgrwt>
<rscale>  2 0.48868131E+03</rscale>
<asrwt>0</asrwt>
<pdfrwt beam="1">  1        2 0.37659400E+00 0.48868131E+03</pdfrwt>
<pdfrwt beam="2">  1       -2 0.15020101E-01 0.48868131E+03</pdfrwt>
<totfact> 0.14000334E+02</totfact>
</mgrwt>
</event>
<event>
 4    1  0.2358610E-002  0.5868272E+03  0.7818608E-02  0.9933119E-01
         -1   -1    0    0    0  501 -0.00000000000E+00  0.00000000000E+00  0.37643171118E+03  0.37643171118E+03  0.00000000000E+00 0.  1.
          1   -1    0    0  502    0  0.00000000000E+00 -0.00000000000E+00 -0.10403124174E+04  0.10403124174E+04  0.00000000000E+00 0. -1.
    9000005    1    1    2  502    0  0.42623691624E+03 -0.51847934946E+02 -0.85907262768E+02  0.59308192935E+03  0.40000000000E+03 0.  1.
   -9000005    1    1    2    0  501 -0.42623691624E+03  0.51847934946E+02 -0.57797344348E+03  0.82366219926E+03  0.40000000000E+03 0. -1.
<mgrwt>
<rscale>  2 0.58682716E+03</rscale>
<asrwt>0</asrwt>
<pdfrwt beam="1">  1        1 0.16004806E+00 0.58682716E+03</pdfrwt>
<pdfrwt beam="2">  1       -1 0.57912572E-01 0.58682716E+03</pdfrwt>
<totfact> 0.44428351E+01</totfact>
</mgrwt>
</event>
<event>
 4    1  0.2358610E-002  0.4069640E+03  0.7818608E-02  0.1041395E+00
          2   -1    0    0  502    0  0.00000000000E+00  0.00000000000E+00  0.20813115401E+03  0.20813115401E+03  0.00000000000E+00 0.  1.
         -2   -1    0    0    0  501 -0.00000000000E+00 -0.00000000000E+00 -0.79827901553E+03  0.79827901553E+03  0.00000000000E+00 0. -1.
    9000005    1    1    2  502    0 -0.26329119234E+02  0.70188659632E+02 -0.26673195771E+03  0.48658566330E+03  0.40000000000E+03 0.  1.
   -9000005    1    1    2    0  501  0.26329119234E+02 -0.70188659632E+02 -0.32341590380E+03  0.51982450624E+03  0.40000000000E+03 0.  1.
<mgrwt>
<rscale>  2 0.40696397E+03</rscale>
<asrwt>0</asrwt>
<pdfrwt beam="1">  1        2 0.32020177E-01 0.40696397E+03</pdfrwt>
<pdfrwt beam="2">  1       -2 0.12281216E+00 0.40696397E+03</pdfrwt>
<totfact> 0.85248779E+01</totfact>
</mgrwt>
</event>
<event>
 4    1  0.2358610E-002  0.4140123E+03  0.7818608E-02  0.1039033E+00
          1   -1    0    0  502    0  0.00000000000E+00  0.00000000000E+00  0.18272323663E+03  0.18272323663E+03  0.00000000000E+00 0.  1.
         -1   -1    0    0    0  501 -0.00000000000E+00 -0.00000000000E+00 -0.11691647865E+04  0.11691647865E+04  0.00000000000E+00 0. -1.
    9000005    1    1    2  502    0  0.10502010114E+03 -0.19414569029E+02 -0.79374070619E+03  0.89522648296E+03  0.40000000000E+03 0. -1.
   -9000005    1    1    2    0  501 -0.10502010114E+03  0.19414569029E+02 -0.19270084373E+03  0.45666154021E+03  0.40000000000E+03 0. -1.
<mgrwt>
<rscale>  2 0.41401225E+03</rscale>
<asrwt>0</asrwt>
<pdfrwt beam="1">  1        1 0.28111268E-01 0.41401225E+03</pdfrwt>
<pdfrwt beam="2">  1       -1 0.17987150E+00 0.41401225E+03</pdfrwt>
<totfact> 0.37040890E+01</totfact>
</mgrwt>
</event>
<event>
 4    1  0.2358610E-002  0.6940741E+03  0.7818608E-02  0.9727420E-01
          1   -1    0    0  502    0  0.00000000000E+00  0.00000000000E+00  0.12052361289E+04  0.12052361289E+04  0.00000000000E+00 0. -1.
         -1   -1    0    0    0  501 -0.00000000000E+00 -0.00000000000E+00 -0.40015128761E+03  0.40015128761E+03  0.00000000000E+00 0.  1.
    9000005    1    1    2  502    0  0.21987206119E+03  0.52287193986E+03  0.42935217531E+03  0.81613851718E+03  0.40000000000E+03 0. -1.
   -9000005    1    1    2    0  501 -0.21987206119E+03 -0.52287193986E+03  0.37573266592E+03  0.78924889928E+03  0.40000000000E+03 0.  1.
<mgrwt>
<rscale>  2 0.69407405E+03</rscale>
<asrwt>0</asrwt>
<pdfrwt beam="1">  1        1 0.18542094E+00 0.69407405E+03</pdfrwt>
<pdfrwt beam="2">  1       -1 0.61561737E-01 0.69407405E+03</pdfrwt>
<totfact> 0.29368148E+01</totfact>
</mgrwt>
</event>
<event>
 4    1  0.2358610E-002  0.4680808E+03  0.7818608E-02  0.1022463E+00
         -1   -1    0    0    0  501 -0.00000000000E+00  0.00000000000E+00  0.17099999707E+03  0.17099999707E+03  0.00000000000E+00 0.  1.
          1   -1    0    0  502    0  0.00000000000E+00 -0.00000000000E+00 -0.14240522873E+04  0.14240522873E+04  0.00000000000E+00 0. -1.
    9000005    1    1    2  502    0  0.11650669794E+03 -0.21336788876E+03 -0.37400550095E+03  0.59914921460E+03  0.40000000000E+03 0.  1.
   -9000005    1    1    2    0  501 -0.11650669794E+03  0.21336788876E+03 -0.87904678926E+03  0.99590306974E+03  0.40000000000E+03 0. -1.
<mgrwt>
<rscale>  2 0.46808083E+03</rscale>
<asrwt>0</asrwt>
<pdfrwt beam="1">  1        1 0.21908497E+00 0.46808083E+03</pdfrwt>
<pdfrwt beam="2">  1       -1 0.26307691E-01 0.46808083E+03</pdfrwt>
<totfact> 0.10004546E+02</totfact>
</mgrwt>
</event>
<event>
 4    1  0.2358610E-002  0.5516005E+03  0.7818608E-02  0.1001124E+00
         -2   -1    0    0    0  501 -0.00000000000E+00  0.00000000000E+00  0.20323335397E+03  0.20323335397E+03  0.00000000000E+00 0. -1.
          2   -1    0    0  502    0  0.00000000000E+00 -0.00000000000E+00 -0.21255489928E+04  0.21255489928E+04  0.00000000000E+00 0.  1.
    9000005    1    1    2  502    0 -0.15217301362E+03  0.34800363620E+03 -0.32802604866E+03  0.64176650387E+03  0.40000000000E+03 0. -1.
   -9000005    1    1    2    0  501  0.15217301362E+03 -0.34800363620E+03 -0.15942895902E+04  0.16870158429E+04  0.40000000000E+03 0.  1.
<mgrwt>
<rscale>  2 0.55160054E+03</rscale>
<asrwt>0</asrwt>
<pdfrwt beam="1">  1        2 0.32700753E+00 0.55160054E+03</pdfrwt>
<pdfrwt beam="2">  1       -2 0.31266670E-01 0.55160054E+03</pdfrwt>
<totfact> 0.57235585E+01</totfact>
</mgrwt>
</event>
<event>
 4    1  0.2358610E-002  0.4748654E+03  0.7818608E-02  0.1020556E+00
         -2   -1    0    0    0  501 -0.00000000000E+00  0.00000000000E+00  0.11572750844E+04  0.11572750844E+04  0.00000000000E+00 0.  1.
          2   -1    0    0  502    0  0.00000000000E+00 -0.00000000000E+00 -0.19690174623E+03  0.19690174623E+03  0.00000000000E+00 0. -1.
    9000005    1    1    2  502    0  0.10358528677E+03  0.23402392876E+03  0.41110005851E+03  0.62809264362E+03  0.40000000000E+03 0. -1.
   -9000005    1    1    2    0  501 -0.10358528677E+03 -0.23402392876E+03  0.54927327965E+03  0.72608418699E+03  0.40000000000E+03 0. -1.
<mgrwt>
<rscale>  2 0.47486536E+03</rscale>
<asrwt>0</asrwt>
<pdfrwt beam="1">  1        2 0.30292577E-01 0.47486536E+03</pdfrwt>
<pdfrwt beam="2">  1       -2 0.17804232E+00 0.47486536E+03</pdfrwt>
<totfact> 0.34125205E+01</totfact>
</mgrwt>
</event>
<event>
 4    1  0.2358610E-002  0.4937395E+03  0.7818608E-02  0.1015426E+00
          2   -1    0    0  502    0  0.00000000000E+00  0.00000000000E+00  0.47018090422E+04  0.47018090422E+04  0.00000000000E+00 0. -1.
         -2   -1    0    0    0  501 -0.00000000000E+00 -0.00000000000E+00 -0.51859462214E+02  0.51859462214E+02  0.00000000000E+00 0.  1.
    9000005    1    1    2  502    0  0.25817438125E+03 -0.13086125582E+03  0.22894047522E+04  0.23420403068E+04  0.40000000000E+03 0.  1.
   -9000005    1    1    2    0  501 -0.25817438125E+03  0.13086125582E+03  0.23605448278E+04  0.24116281976E+04  0.40000000000E+03 0. -1.
<mgrwt>
<rscale>  2 0.49373949E+03</rscale>
<asrwt>0</asrwt>
<pdfrwt beam="1">  1        2 0.72335490E+00 0.49373949E+03</pdfrwt>
<pdfrwt beam="2">  1       -2 0.79783825E-02 0.49373949E+03</pdfrwt>
<totfact> 0.92784679E+00</totfact>
</mgrwt>
</event>
<event>
 4    1  0.2358610E-002  0.5726718E+03  0.7818608E-02  0.9963784E-01
          1   -1    0    0  502    0  0.00000000000E+00  0.00000000000E+00  0.16019213548E+04  0.16019213548E+04  0.00000000000E+00 0. -1.
         -1   -1    0    0    0  501 -0.00000000000E+00 -0.00000000000E+00 -0.20886941284E+03  0.20886941284E+03  0.00000000000E+00 0.  1.
    9000005    1    1    2  502    0  0.13393413552E+03 -0.38731720720E+03  0.82406547150E+03  0.10035122685E+04  0.40000000000E+03 0. -1.
   -9000005    1    1    2    0  501 -0.13393413552E+03  0.38731720720E+03  0.56898647045E+03  0.80727849916E+03  0.40000000000E+03 0.  1.
<mgrwt>
<rscale>  2 0.57267178E+03</rscale>
<asrwt>0</asrwt>
<pdfrwt beam="1">  1        1 0.24644943E+00 0.57267178E+03</pdfrwt>
<pdfrwt beam="2">  1       -1 0.32133757E-01 0.57267178E+03</pdfrwt>
<totfact> 0.52886248E+01</totfact>
</mgrwt>
</event>
<event>
 4    1  0.2358610E-002  0.4370526E+03  0.7818608E-02  0.1031655E+00
          1   -1    0    0  502    0  0.00000000000E+00  0.00000000000E+00  0.10053748448E+04  0.10053748448E+04  0.00000000000E+00 0. -1.
         -1   -1    0    0    0  501 -0.00000000000E+00 -0.00000000000E+00 -0.19009381500E+03  0.19009381500E+03  0.00000000000E+00 0.  1.
    9000005    1    1    2  502    0 -0.63598467517E+02  0.16422608021E+03  0.42135226312E+03  0.60708541419E+03  0.40000000000E+03 0.  1.
   -9000005    1    1    2    0  501  0.63598467517E+02 -0.16422608021E+03  0.39392876665E+03  0.58838324558E+03  0.40000000000E+03 0. -1.
<mgrwt>
<rscale>  2 0.43705259E+03</rscale>
<asrwt>0</asrwt>
<pdfrwt beam="1">  1        1 0.15467305E+00 0.43705259E+03</pdfrwt>
<pdfrwt beam="2">  1       -1 0.29245203E-01 0.43705259E+03</pdfrwt>
<totfact> 0.16686028E+02</totfact>
</mgrwt>
</event>
<event>
 4    1  0.2358610E-002  0.7137007E+03  0.7818608E-02  0.9694085E-01
          2   -1    0    0  502    0  0.00000000000E+00  0.00000000000E+00  0.17373523497E+04  0.17373523497E+04  0.00000000000E+00 0. -1.
         -2   -1    0    0    0  501 -0.00000000000E+00 -0.00000000000E+00 -0.30590064623E+03  0.30590064623E+03  0.00000000000E+00 0.  1.
    9000005    1    1    2  502    0  0.51431227565E+03 -0.29129292115E+03  0.92400286623E+03  0.11675401405E+04  0.40000000000E+03 0.  1.
   -9000005    1    1    2    0  501 -0.51431227565E+03  0.29129292115E+03  0.50744883721E+03  0.87571285544E+03  0.40000000000E+03 0. -1.
<mgrwt>
<rscale>  2 0.71370070E+03</rscale>
<asrwt>0</asrwt>
<pdfrwt beam="1">  1        2 0.26728497E+00 0.71370070E+03</pdfrwt>
<pdfrwt beam="2">  1       -2 0.47061639E-01 0.71370070E+03</pdfrwt>
<totfact> 0.41237987E+01</totfact>
</mgrwt>
</event>
<event>
 4    1  0.2358610E-002  0.4085830E+03  0.7818608E-02  0.1040848E+00
          2   -1    0    0  502    0  0.00000000000E+00  0.00000000000E+00  0.23796896765E+04  0.23796896765E+04  0.00000000000E+00 0. -1.
         -2   -1    0    0    0  501 -0.00000000000E+00 -0.00000000000E+00 -0.70275878518E+02  0.70275878518E+02  0.00000000000E+00 0.  1.
    9000005    1    1    2  502    0 -0.55065308348E+02 -0.62512763607E+02  0.11032797187E+04  0.11765059164E+04  0.40000000000E+03 0.  1.
   -9000005    1    1    2    0  501  0.55065308348E+02  0.62512763607E+02  0.12061340793E+04  0.12734596385E+04  0.40000000000E+03 0.  1.
<mgrwt>
<rscale>  2 0.40858296E+03</rscale>
<asrwt>0</asrwt>
<pdfrwt beam="1">  1        2 0.36610604E+00 0.40858296E+03</pdfrwt>
<pdfrwt beam="2">  1       -2 0.10811675E-01 0.40858296E+03</pdfrwt>
<totfact> 0.26609448E+02</totfact>
</mgrwt>
</event>
<event>
 4    1  0.2358610E-002  0.5978340E+03  0.7818608E-02  0.9909910E-01
         -1   -1    0    0    0  501 -0.00000000000E+00  0.00000000000E+00  0.63420133111E+03  0.63420133111E+03  0.00000000000E+00 0.  1.
          1   -1    0    0  502    0  0.00000000000E+00 -0.00000000000E+00 -0.57000339079E+03  0.57000339079E+03  0.00000000000E+00 0. -1.
    9000005    1    1    2  502    0 -0.80960401697E+02 -0.43686490581E+03 -0.31955989892E+02  0.59868749600E+03  0.40000000000E+03 0.  1.
   -9000005    1    1    2    0  501  0.80960401697E+02  0.43686490581E+03  0.96153930216E+02  0.60551722591E+03  0.40000000000E+03 0.  1.
<mgrwt>
<rscale>  2 0.59783403E+03</rscale>
<asrwt>0</asrwt>
<pdfrwt beam="1">  1        1 0.87692830E-01 0.59783403E+03</pdfrwt>
<pdfrwt beam="2">  1       -1 0.97569435E-01 0.59783403E+03</pdfrwt>
<totfact> 0.38630512E+01</totfact>
</mgrwt>
</event>
<event>
 4    1  0.2358610E-002  0.5748045E+03  0.7818608E-02  0.9959103E-01
         -2   -1    0    0    0  501 -0.00000000000E+00  0.00000000000E+00  0.23251410223E+03  0.23251410223E+03  0.00000000000E+00 0.  1.
          2   -1    0    0  502    0  0.00000000000E+00 -0.00000000000E+00 -0.14277752125E+04  0.14277752125E+04  0.00000000000E+00 0. -1.
    9000005    1    1    2  502    0  0.40676411091E+03  0.70307830528E+02 -0.65485782029E+03  0.87134321467E+03  0.40000000000E+03 0.  1.
   -9000005    1    1    2    0  501 -0.40676411091E+03 -0.70307830528E+02 -0.54040328994E+03  0.78894610002E+03  0.40000000000E+03 0. -1.
<mgrwt>
<rscale>  2 0.57480452E+03</rscale>
<asrwt>0</asrwt>
<pdfrwt beam="1">  1        2 0.21965773E+00 0.57480452E+03</pdfrwt>
<pdfrwt beam="2">  1       -2 0.35771400E-01 0.57480452E+03</pdfrwt>
<totfact> 0.10608091E+02</totfact>
</mgrwt>
</event>
<event>
 4    1  0.2358610E-002  0.4128990E+03  0.7818608E-02  0.1039403E+00
          1   -1    0    0  502    0  0.00000000000E+00  0.00000000000E+00  0.14142904201E+03  0.14142904201E+03  0.00000000000E+00 0. -1.
         -1   -1    0    0    0  501 -0.00000000000E+00 -0.00000000000E+00 -0.29962227589E+04  0.29962227589E+04  0.00000000000E+00 0.  1.
    9000005    1    1    2  502    0  0.20626561011E+02  0.10030016440E+03 -0.26402493734E+04  0.26723402350E+04  0.40000000000E+03 0.  1.
   -9000005    1    1    2    0  501 -0.20626561011E+02 -0.10030016440E+03 -0.21454434345E+03  0.46531156584E+03  0.40000000000E+03 0. -1.
<mgrwt>
<rscale>  2 0.41289899E+03</rscale>
<asrwt>0</asrwt>
<pdfrwt beam="1">  1        1 0.21758314E-01 0.41289899E+03</pdfrwt>
<pdfrwt beam="2">  1       -1 0.46095735E+00 0.41289899E+03</pdfrwt>
<totfact> 0.73509996E-01</totfact>
</mgrwt>
</event>
<event>
 4    1  0.2358610E-002  0.5949944E+03  0.7818608E-02  0.9915846E-01
          1   -1    0    0  502    0  0.00000000000E+00  0.00000000000E+00  0.10971737649E+04  0.10971737649E+04  0.00000000000E+00 0.  1.
         -1   -1    0    0    0  501 -0.00000000000E+00 -0.00000000000E+00 -0.35311950393E+03  0.35311950393E+03  0.00000000000E+00 0. -1.
    9000005    1    1    2  502    0 -0.42380949481E+03  0.12001595236E+03  0.58498755846E+03  0.83440323601E+03  0.40000000000E+03 0.  1.
   -9000005    1    1    2    0  501  0.42380949481E+03 -0.12001595236E+03  0.15906670255E+03  0.61589003285E+03  0.40000000000E+03 0. -1.
<mgrwt>
<rscale>  2 0.59499438E+03</rscale>
<asrwt>0</asrwt>
<pdfrwt beam="1">  1        1 0.16879596E+00 0.59499438E+03</pdfrwt>
<pdfrwt beam="2">  1       -1 0.54326078E-01 0.59499438E+03</pdfrwt>
<totfact> 0.45520656E+01</totfact>
</mgrwt>
</event>
<event>
 4    1  0.2358610E-002  0.4931603E+03  0.7818608E-02  0.1015580E+00
         -1   -1    0    0    0  501 -0.00000000000E+00  0.00000000000E+00  0.55847949126E+03  0.55847949126E+03  0.00000000000E+00 0.  1.
          1   -1    0    0  502    0  0.00000000000E+00 -0.00000000000E+00 -0.79839875217E+03  0.79839875217E+03  0.00000000000E+00 0. -1.
    9000005    1    1    2  502    0  0.27342946317E+03  0.91887948558E+02 -0.57736916767E+03  0.75931694449E+03  0.40000000000E+03 0. -1.
   -9000005    1    1    2    0  501 -0.27342946317E+03 -0.91887948558E+02  0.33744990676E+03  0.59756129894E+03  0.40000000000E+03 0.  1.
<mgrwt>
<rscale>  2 0.49316028E+03</rscale>
<asrwt>0</asrwt>
<pdfrwt beam="1">  1        1 0.12283058E+00 0.49316028E+03</pdfrwt>
<pdfrwt beam="2">  1       -1 0.85919922E-01 0.49316028E+03</pdfrwt>
<totfact> 0.31446168E+01</totfact>
</mgrwt>
</event>
<event>
 4    1  0.2358610E-002  0.4385493E+03  0.7818608E-02  0.1031193E+00
         -1   -1    0    0    0  501 -0.00000000000E+00  0.00000000000E+00  0.18437222992E+03  0.18437222992E+03  0.00000000000E+00 0.  1.
          1   -1    0    0  502    0  0.00000000000E+00 -0.00000000000E+00 -0.18677545362E+04  0.18677545362E+04  0.00000000000E+00 0. -1.
    9000005    1    1    2  502    0 -0.17092830978E+03 -0.55758491207E+02 -0.15991694103E+03  0.46679644863E+03  0.40000000000E+03 0.  1.
   -9000005    1    1    2    0  501  0.17092830978E+03  0.55758491207E+02 -0.15234653652E+04  0.15853303175E+04  0.40000000000E+03 0. -1.
<mgrwt>
<rscale>  2 0.43854931E+03</rscale>
<asrwt>0</asrwt>
<pdfrwt beam="1">  1        1 0.28734684E+00 0.43854931E+03</pdfrwt>
<pdfrwt beam="2">  1       -1 0.28364959E-01 0.43854931E+03</pdfrwt>
<totfact> 0.44721568E+01</totfact>
</mgrwt>
</event>
<event>
 4    1  0.2358610E-002  0.4385971E+03  0.7818608E-02  0.1031178E+00
         -2   -1    0    0    0  501 -0.00000000000E+00  0.00000000000E+00  0.11918324832E+03  0.11918324832E+03  0.00000000000E+00 0. -1.
          2   -1    0    0  502    0  0.00000000000E+00 -0.00000000000E+00 -0.19962838498E+04  0.19962838498E+04  0.00000000000E+00 0.  1.
    9000005    1    1    2  502    0  0.80818603510E+02  0.16073505475E+03 -0.47570994549E+03  0.64704509637E+03  0.40000000000E+03 0. -1.
   -9000005    1    1    2    0  501 -0.80818603510E+02 -0.16073505475E+03 -0.14013906560E+04  0.14684220017E+04  0.40000000000E+03 0.  1.
<mgrwt>
<rscale>  2 0.43859709E+03</rscale>
<asrwt>0</asrwt>
<pdfrwt beam="1">  1        2 0.30712057E+00 0.43859709E+03</pdfrwt>
<pdfrwt beam="2">  1       -2 0.18335886E-01 0.43859709E+03</pdfrwt>
<totfact> 0.17723883E+02</totfact>
</mgrwt>
</event>
<event>
 4    1  0.2358610E-002  0.4654699E+03  0.7818608E-02  0.1023207E+00
         -3   -1    0    0    0  501 -0.00000000000E+00  0.00000000000E+00  0.88193376427E+03  0.88193376427E+03  0.00000000000E+00 0.  1.
          3   -1    0    0  502    0  0.00000000000E+00 -0.00000000000E+00 -0.24729259047E+03  0.24729259047E+03  0.00000000000E+00 0. -1.
    9000005    1    1    2  502    0  0.97238497929E+01  0.23783957163E+03  0.27154627837E+03  0.53888736892E+03  0.40000000000E+03 0. -1.
   -9000005    1    1    2    0  501 -0.97238497929E+01 -0.23783957163E+03  0.36309489543E+03  0.59033898582E+03  0.40000000000E+03 0.  1.
<mgrwt>
<rscale>  2 0.46546989E+03</rscale>
<asrwt>0</asrwt>
<pdfrwt beam="1">  1        3 0.38045014E-01 0.46546989E+03</pdfrwt>
<pdfrwt beam="2">  1       -3 0.13568212E+00 0.46546989E+03</pdfrwt>
<totfact> 0.74834251E+00</totfact>
</mgrwt>
</event>
<event>
 4    1  0.2358610E-002  0.4262914E+03  0.7818608E-02  0.1035038E+00
          2   -1    0    0  502    0  0.00000000000E+00  0.00000000000E+00  0.23794626200E+04  0.23794626200E+04  0.00000000000E+00 0.  1.
         -2   -1    0    0    0  501 -0.00000000000E+00 -0.00000000000E+00 -0.91957137709E+02  0.91957137709E+02  0.00000000000E+00 0. -1.
    9000005    1    1    2  502    0 -0.62028974603E+02  0.13370408803E+03  0.63503277766E+03  0.76484704716E+03  0.40000000000E+03 0. -1.
   -9000005    1    1    2    0  501  0.62028974603E+02 -0.13370408803E+03  0.16524727046E+04  0.17065727105E+04  0.40000000000E+03 0.  1.
<mgrwt>
<rscale>  2 0.42629142E+03</rscale>
<asrwt>0</asrwt>
<pdfrwt beam="1">  1        2 0.36607113E+00 0.42629142E+03</pdfrwt>
<pdfrwt beam="2">  1       -2 0.14147254E-01 0.42629142E+03</pdfrwt>
<totfact> 0.17066740E+02</totfact>
</mgrwt>
</event>
<event>
 4    1  0.2358610E-002  0.4674023E+03  0.7818608E-02  0.1022656E+00
          2   -1    0    0  502    0  0.00000000000E+00  0.00000000000E+00  0.43062231777E+03  0.43062231777E+03  0.00000000000E+00 0.  1.
         -2   -1    0    0    0  501 -0.00000000000E+00 -0.00000000000E+00 -0.76379046446E+03  0.76379046446E+03  0.00000000000E+00 0. -1.
    9000005    1    1    2  502    0 -0.13319615438E+02 -0.24142799237E+03 -0.51264527880E+03  0.69373631124E+03  0.40000000000E+03 0. -1.
   -9000005    1    1    2    0  501  0.13319615438E+02  0.24142799237E+03  0.17947713212E+03  0.50067647099E+03  0.40000000000E+03 0.  1.
<mgrwt>
<rscale>  2 0.46740228E+03</rscale>
<asrwt>0</asrwt>
<pdfrwt beam="1">  1        2 0.66249587E-01 0.46740228E+03</pdfrwt>
<pdfrwt beam="2">  1       -2 0.11750623E+00 0.46740228E+03</pdfrwt>
<totfact> 0.42375091E+01</totfact>
</mgrwt>
</event>
<event>
 4    1  0.2358610E-002  0.4876978E+03  0.7818608E-02  0.1017041E+00
          1   -1    0    0  502    0  0.00000000000E+00  0.00000000000E+00  0.19554641908E+04  0.19554641908E+04  0.00000000000E+00 0. -1.
         -1   -1    0    0    0  501 -0.00000000000E+00 -0.00000000000E+00 -0.12526789765E+03  0.12526789765E+03  0.00000000000E+00 0.  1.
    9000005    1    1    2  502    0  0.65407783584E+02  0.27123972711E+03  0.73788068603E+03  0.88448689902E+03  0.40000000000E+03 0.  1.
   -9000005    1    1    2    0  501 -0.65407783584E+02 -0.27123972711E+03  0.10923156071E+04  0.11962451895E+04  0.40000000000E+03 0. -1.
<mgrwt>
<rscale>  2 0.48769782E+03</rscale>
<asrwt>0</asrwt>
<pdfrwt beam="1">  1        1 0.30084062E+00 0.48769782E+03</pdfrwt>
<pdfrwt beam="2">  1       -1 0.19271986E-01 0.48769782E+03</pdfrwt>
<totfact> 0.74184199E+01</totfact>
</mgrwt>
</event>
<event>
 4    1  0.2358610E-002  0.4241160E+03  0.7818608E-02  0.1035735E+00
          2   -1    0    0  502    0  0.00000000000E+00  0.00000000000E+00  0.19630845717E+04  0.19630845717E+04  0.00000000000E+00 0. -1.
         -2   -1    0    0    0  501 -0.00000000000E+00 -0.00000000000E+00 -0.97173236420E+02  0.97173236420E+02  0.00000000000E+00 0.  1.
    9000005    1    1    2  502    0  0.28881458808E+02  0.13798641823E+03  0.11790268609E+04  0.12529879205E+04  0.40000000000E+03 0.  1.
   -9000005    1    1    2    0  501 -0.28881458808E+02 -0.13798641823E+03  0.68688447448E+03  0.80726988768E+03  0.40000000000E+03 0.  1.
<mgrwt>
<rscale>  2 0.42411601E+03</rscale>
<asrwt>0</asrwt>
<pdfrwt beam="1">  1        2 0.30201298E+00 0.42411601E+03</pdfrwt>
<pdfrwt beam="2">  1       -2 0.14949730E-01 0.42411601E+03</pdfrwt>
<totfact> 0.26146349E+02</totfact>
</mgrwt>
</event>
<event>
 4    1  0.2358610E-002  0.4581434E+03  0.7818608E-02  0.1025321E+00
          1   -1    0    0  502    0  0.00000000000E+00  0.00000000000E+00  0.45508057848E+03  0.45508057848E+03  0.00000000000E+00 0.  1.
         -1   -1    0    0    0  501 -0.00000000000E+00 -0.00000000000E+00 -0.48074077669E+03  0.48074077669E+03  0.00000000000E+00 0. -1.
    9000005    1    1    2  502    0  0.22327599420E+03  0.65746890048E+01  0.81441192536E+02  0.46532576112E+03  0.40000000000E+03 0. -1.
   -9000005    1    1    2    0  501 -0.22327599420E+03 -0.65746890048E+01 -0.10710139074E+03  0.47049559405E+03  0.40000000000E+03 0. -1.
<mgrwt>
<rscale>  2 0.45814342E+03</rscale>
<asrwt>0</asrwt>
<pdfrwt beam="1">  1        1 0.70012397E-01 0.45814342E+03</pdfrwt>
<pdfrwt beam="2">  1       -1 0.73960119E-01 0.45814342E+03</pdfrwt>
<totfact> 0.96841604E+01</totfact>
</mgrwt>
</event>
<event>
 4    1  0.2358610E-002  0.5107229E+03  0.7818608E-02  0.1011017E+00
          2   -1    0    0  502    0  0.00000000000E+00  0.00000000000E+00  0.11384274599E+04  0.11384274599E+04  0.00000000000E+00 0. -1.
         -2   -1    0    0    0  501 -0.00000000000E+00 -0.00000000000E+00 -0.28514886421E+03  0.28514886421E+03  0.00000000000E+00 0.  1.
    9000005    1    1    2  502    0  0.31341533943E+03  0.51075756325E+02  0.74215142231E+03  0.90090323649E+03  0.40000000000E+03 0. -1.
   -9000005    1    1    2    0  501 -0.31341533943E+03 -0.51075756325E+02  0.11112717340E+03  0.52267308764E+03  0.40000000000E+03 0.  1.
<mgrwt>
<rscale>  2 0.51072293E+03</rscale>
<asrwt>0</asrwt>
<pdfrwt beam="1">  1        2 0.17514268E+00 0.51072293E+03</pdfrwt>
<pdfrwt beam="2">  1       -2 0.43869057E-01 0.51072293E+03</pdfrwt>
<totfact> 0.10547335E+02</totfact>
</mgrwt>
</event>
<event>
 4    1  0.2358610E-002  0.4230310E+03  0.7818608E-02  0.1036084E+00
          2   -1    0    0  502    0  0.00000000000E+00  0.00000000000E+00  0.12928566874E+04  0.12928566874E+04  0.00000000000E+00 0. -1.
         -2   -1    0    0    0  501 -0.00000000000E+00 -0.00000000000E+00 -0.31131398172E+03  0.31131398172E+03  0.00000000000E+00 0.  1.
    9000005    1    1    2  502    0  0.32445877858E+02  0.13380013930E+03 -0.10696979570E+03  0.43634590575E+03  0.40000000000E+03 0.  1.
   -9000005    1    1    2    0  501 -0.32445877858E+02 -0.13380013930E+03  0.10885125014E+04  0.11678247634E+04  0.40000000000E+03 0. -1.
<mgrwt>
<rscale>  2 0.42303098E+03</rscale>
<asrwt>0</asrwt>
<pdfrwt beam="1">  1        2 0.19890103E+00 0.42303098E+03</pdfrwt>
<pdfrwt beam="2">  1       -2 0.47894459E-01 0.42303098E+03</pdfrwt>
<totfact> 0.72950780E+01</totfact>
</mgrwt>
</event>
<event>
 4    1  0.2358610E-002  0.4030026E+03  0.7818608E-02  0.1042745E+00
         -2   -1    0    0    0  501 -0.00000000000E+00  0.00000000000E+00  0.27188668398E+03  0.27188668398E+03  0.00000000000E+00 0.  1.
          2   -1    0    0  502    0  0.00000000000E+00 -0.00000000000E+00 -0.76392170678E+03  0.76392170678E+03  0.00000000000E+00 0. -1.
    9000005    1    1    2  502    0  0.37226793095E+02 -0.32019396544E+02 -0.41777496122E+01  0.40302422938E+03  0.40000000000E+03 0.  1.
   -9000005    1    1    2    0  501 -0.37226793095E+02  0.32019396544E+02 -0.48785727320E+03  0.63278416138E+03  0.40000000000E+03 0. -1.
<mgrwt>
<rscale>  2 0.40300258E+03</rscale>
<asrwt>0</asrwt>
<pdfrwt beam="1">  1        2 0.11752642E+00 0.40300258E+03</pdfrwt>
<pdfrwt beam="2">  1       -2 0.41828720E-01 0.40300258E+03</pdfrwt>
<totfact> 0.20479504E+02</totfact>
</mgrwt>
</event>
<event>
 4    1  0.2358610E-002  0.4839579E+03  0.7818608E-02  0.1018053E+00
         -2   -1    0    0    0  501 -0.00000000000E+00  0.00000000000E+00  0.91227158396E+03  0.91227158396E+03  0.00000000000E+00 0.  1.
          2   -1    0    0  502    0  0.00000000000E+00 -0.00000000000E+00 -0.27560444334E+03  0.27560444334E+03  0.00000000000E+00 0. -1.
    9000005    1    1    2  502    0 -0.25940112411E+03  0.83224665487E+02  0.47372842895E+03  0.67722515645E+03  0.40000000000E+03 0.  1.
   -9000005    1    1    2    0  501  0.25940112411E+03 -0.83224665487E+02  0.16293871167E+03  0.51065087084E+03  0.40000000000E+03 0. -1.
<mgrwt>
<rscale>  2 0.48395794E+03</rscale>
<asrwt>0</asrwt>
<pdfrwt beam="1">  1        2 0.42400684E-01 0.48395794E+03</pdfrwt>
<pdfrwt beam="2">  1       -2 0.14034947E+00 0.48395794E+03</pdfrwt>
<totfact> 0.44398626E+01</totfact>
</mgrwt>
</event>
<event>
 4    1  0.2358610E-002  0.4872404E+03  0.7818608E-02  0.1017164E+00
         -2   -1    0    0    0  501 -0.00000000000E+00  0.00000000000E+00  0.16411746535E+03  0.16411746535E+03  0.00000000000E+00 0.  1.
          2   -1    0    0  502    0  0.00000000000E+00 -0.00000000000E+00 -0.15412488408E+04  0.15412488408E+04  0.00000000000E+00 0. -1.
    9000005    1    1    2  502    0  0.27803297137E+03 -0.10045625471E+02 -0.89993202031E+03  0.10233674262E+04  0.40000000000E+03 0. -1.
   -9000005    1    1    2    0  501 -0.27803297137E+03  0.10045625471E+02 -0.47719935515E+03  0.68199887999E+03  0.40000000000E+03 0.  1.
<mgrwt>
<rscale>  2 0.48724044E+03</rscale>
<asrwt>0</asrwt>
<pdfrwt beam="1">  1        2 0.23711520E+00 0.48724044E+03</pdfrwt>
<pdfrwt beam="2">  1       -2 0.25248841E-01 0.48724044E+03</pdfrwt>
<totfact> 0.17658128E+02</totfact>
</mgrwt>
</event>
<event>
 4    1  0.2358610E-002  0.6129202E+03  0.7818608E-02  0.9878958E-01
         -1   -1    0    0    0  501 -0.00000000000E+00  0.00000000000E+00  0.23655237505E+03  0.23655237505E+03  0.00000000000E+00 0.  1.
          1   -1    0    0  502    0  0.00000000000E+00 -0.00000000000E+00 -0.16436325467E+04  0.16436325467E+04  0.00000000000E+00 0. -1.
    9000005    1    1    2  502    0  0.20431318121E+03 -0.41704584264E+03 -0.53075580108E+03  0.81078531761E+03  0.40000000000E+03 0.  1.
   -9000005    1    1    2    0  501 -0.20431318121E+03  0.41704584264E+03 -0.87632437060E+03  0.10693996042E+04  0.40000000000E+03 0. -1.
<mgrwt>
<rscale>  2 0.61292015E+03</rscale>
<asrwt>0</asrwt>
<pdfrwt beam="1">  1        1 0.25286653E+00 0.61292015E+03</pdfrwt>
<pdfrwt beam="2">  1       -1 0.36392675E-01 0.61292015E+03</pdfrwt>
<totfact> 0.39558271E+01</totfact>
</mgrwt>
</event>
<event>
 4    1  0.2358610E-002  0.4429296E+03  0.7818608E-02  0.1029852E+00
         -1   -1    0    0    0  501 -0.00000000000E+00  0.00000000000E+00  0.16687810654E+03  0.16687810654E+03  0.00000000000E+00 0. -1.
          1   -1    0    0  502    0  0.00000000000E+00 -0.00000000000E+00 -0.12977790115E+04  0.12977790115E+04  0.00000000000E+00 0.  1.
    9000005    1    1    2  502    0  0.18658751962E+03 -0.37036800834E+02 -0.34077606170E+03  0.55885145729E+03  0.40000000000E+03 0. -1.
   -9000005    1    1    2    0  501 -0.18658751962E+03  0.37036800834E+02 -0.79012484325E+03  0.90580566073E+03  0.40000000000E+03 0.  1.
<mgrwt>
<rscale>  2 0.44292960E+03</rscale>
<asrwt>0</asrwt>
<pdfrwt beam="1">  1        1 0.19965831E+00 0.44292960E+03</pdfrwt>
<pdfrwt beam="2">  1       -1 0.25673555E-01 0.44292960E+03</pdfrwt>
<totfact> 0.12785377E+02</totfact>
</mgrwt>
</event>
<event>
 4    1  0.2358610E-002  0.6010769E+03  0.7818608E-02  0.9903174E-01
          2   -1    0    0  502    0  0.00000000000E+00  0.00000000000E+00  0.84586289357E+03  0.84586289357E+03  0.00000000000E+00 0. -1.
         -2   -1    0    0    0  501 -0.00000000000E+00 -0.00000000000E+00 -0.68808832536E+03  0.68808832536E+03  0.00000000000E+00 0.  1.
    9000005    1    1    2  502    0  0.43813166334E+03 -0.96612934295E+02 -0.39344218345E+03  0.71839415728E+03  0.40000000000E+03 0.  1.
   -9000005    1    1    2    0  501 -0.43813166334E+03  0.96612934295E+02  0.55121675166E+03  0.81555706165E+03  0.40000000000E+03 0. -1.
<mgrwt>
<rscale>  2 0.60107688E+03</rscale>
<asrwt>0</asrwt>
<pdfrwt beam="1">  1        2 0.13013275E+00 0.60107688E+03</pdfrwt>
<pdfrwt beam="2">  1       -2 0.10585974E+00 0.60107688E+03</pdfrwt>
<totfact> 0.23746746E+01</totfact>
</mgrwt>
</event>
<event>
 4    1  0.2358610E-002  0.4092963E+03  0.7818608E-02  0.1040607E+00
          1   -1    0    0  502    0  0.00000000000E+00  0.00000000000E+00  0.14869102705E+04  0.14869102705E+04  0.00000000000E+00 0. -1.
         -1   -1    0    0    0  501 -0.00000000000E+00 -0.00000000000E+00 -0.12150207418E+03  0.12150207418E+03  0.00000000000E+00 0.  1.
    9000005    1    1    2  502    0  0.78547980852E+02  0.36792823564E+02  0.46582515606E+03  0.62009400350E+03  0.40000000000E+03 0.  1.
   -9000005    1    1    2    0  501 -0.78547980852E+02 -0.36792823564E+02  0.89958304022E+03  0.98831834113E+03  0.40000000000E+03 0. -1.
<mgrwt>
<rscale>  2 0.40929634E+03</rscale>
<asrwt>0</asrwt>
<pdfrwt beam="1">  1        1 0.22875541E+00 0.40929634E+03</pdfrwt>
<pdfrwt beam="2">  1       -1 0.18692628E-01 0.40929634E+03</pdfrwt>
<totfact> 0.16167686E+02</totfact>
</mgrwt>
</event>
<event>
 4    1  0.2358610E-002  0.6838452E+03  0.7818608E-02  0.9745265E-01
         -2   -1    0    0    0  501 -0.00000000000E+00  0.00000000000E+00  0.25700092901E+03  0.25700092901E+03  0.00000000000E+00 0.  1.
          2   -1    0    0  502    0  0.00000000000E+00 -0.00000000000E+00 -0.20061654399E+04  0.20061654399E+04  0.00000000000E+00 0. -1.
    9000005    1    1    2  502    0 -0.37816392911E+03 -0.40575394144E+03 -0.12196422258E+04  0.13982744284E+04  0.40000000000E+03 0. -1.
   -9000005    1    1    2    0  501  0.37816392911E+03  0.40575394144E+03 -0.52952228506E+03  0.86489194045E+03  0.40000000000E+03 0.  1.
<mgrwt>
<rscale>  2 0.68384517E+03</rscale>
<asrwt>0</asrwt>
<pdfrwt beam="1">  1        2 0.30864083E+00 0.68384517E+03</pdfrwt>
<pdfrwt beam="2">  1       -2 0.39538605E-01 0.68384517E+03</pdfrwt>
<totfact> 0.41707851E+01</totfact>
</mgrwt>
</event>
<event>
 4    1  0.2358610E-002  0.4326783E+03  0.7818608E-02  0.1033017E+00
         -2   -1    0    0    0  501 -0.00000000000E+00  0.00000000000E+00  0.21363486081E+03  0.21363486081E+03  0.00000000000E+00 0. -1.
          2   -1    0    0  502    0  0.00000000000E+00 -0.00000000000E+00 -0.88177946230E+03  0.88177946230E+03  0.00000000000E+00 0.  1.
    9000005    1    1    2  502    0  0.16016746292E+03  0.39457280757E+02 -0.37720601932E+03  0.57401644070E+03  0.40000000000E+03 0. -1.
   -9000005    1    1    2    0  501 -0.16016746292E+03 -0.39457280757E+02 -0.29093858218E+03  0.52139788241E+03  0.40000000000E+03 0. -1.
<mgrwt>
<rscale>  2 0.43267828E+03</rscale>
<asrwt>0</asrwt>
<pdfrwt beam="1">  1        2 0.13565838E+00 0.43267828E+03</pdfrwt>
<pdfrwt beam="2">  1       -2 0.32866901E-01 0.43267828E+03</pdfrwt>
<totfact> 0.26789453E+02</totfact>
</mgrwt>
</event>
<event>
 4    1  0.2358610E-002  0.4509830E+03  0.7818608E-02  0.1027429E+00
         -2   -1    0    0    0  501 -0.00000000000E+00  0.00000000000E+00  0.10428328879E+03  0.10428328879E+03  0.00000000000E+00 0.  1.
          2   -1    0    0  502    0  0.00000000000E+00 -0.00000000000E+00 -0.20326063103E+04  0.20326063103E+04  0.00000000000E+00 0. -1.
    9000005    1    1    2  502    0  0.52237500407E+02  0.20163551725E+03 -0.74918404845E+03  0.87444975654E+03  0.40000000000E+03 0. -1.
   -9000005    1    1    2    0  501 -0.52237500407E+02 -0.20163551725E+03 -0.11791389730E+04  0.12624398425E+04  0.40000000000E+03 0. -1.
<mgrwt>
<rscale>  2 0.45098297E+03</rscale>
<asrwt>0</asrwt>
<pdfrwt beam="1">  1        2 0.31270868E+00 0.45098297E+03</pdfrwt>
<pdfrwt beam="2">  1       -2 0.16043582E-01 0.45098297E+03</pdfrwt>
<totfact> 0.21227935E+02</totfact>
</mgrwt>
</event>
<event>
 4    1  0.2358610E-002  0.5216529E+03  0.7818608E-02  0.1008277E+00
         -3   -1    0    0    0  501 -0.00000000000E+00  0.00000000000E+00  0.75588101240E+03  0.75588101240E+03  0.00000000000E+00 0. -1.
          3   -1    0    0  502    0  0.00000000000E+00 -0.00000000000E+00 -0.52425610449E+03  0.52425610449E+03  0.00000000000E+00 0.  1.
    9000005    1    1    2  502    0 -0.66194256987E+02  0.32823780374E+03 -0.24245512669E+03  0.57524449056E+03  0.40000000000E+03 0.  1.
   -9000005    1    1    2    0  501  0.66194256987E+02 -0.32823780374E+03  0.47408003459E+03  0.70489262634E+03  0.40000000000E+03 0. -1.
<mgrwt>
<rscale>  2 0.52165289E+03</rscale>
<asrwt>0</asrwt>
<pdfrwt beam="1">  1        3 0.80654785E-01 0.52165289E+03</pdfrwt>
<pdfrwt beam="2">  1       -3 0.11628939E+00 0.52165289E+03</pdfrwt>
<totfact> 0.22810109E+00</totfact>
</mgrwt>
</event>
<event>
 4    1  0.2358610E-002  0.4781325E+03  0.7818608E-02  0.1019650E+00
          2   -1    0    0  502    0  0.00000000000E+00  0.00000000000E+00  0.30840810953E+03  0.30840810953E+03  0.00000000000E+00 0.  1.
         -2   -1    0    0    0  501 -0.00000000000E+00 -0.00000000000E+00 -0.10282426032E+04  0.10282426032E+04  0.00000000000E+00 0. -1.
    9000005    1    1    2  502    0  0.18693642823E+03 -0.18348154680E+03 -0.68416883164E+01  0.47818146651E+03  0.40000000000E+03 0.  1.
   -9000005    1    1    2    0  501 -0.18693642823E+03  0.18348154680E+03 -0.71299280536E+03  0.85846924622E+03  0.40000000000E+03 0.  1.
<mgrwt>
<rscale>  2 0.47813252E+03</rscale>
<asrwt>0</asrwt>
<pdfrwt beam="1">  1        2 0.47447403E-01 0.47813252E+03</pdfrwt>
<pdfrwt beam="2">  1       -2 0.15819116E+00 0.47813252E+03</pdfrwt>
<totfact> 0.28693431E+01</totfact>
</mgrwt>
</event>
<event>
 4    1  0.2358610E-002  0.4154243E+03  0.7818608E-02  0.1038566E+00
         -2   -1    0    0    0  501 -0.00000000000E+00  0.00000000000E+00  0.61547435581E+02  0.61547435581E+02  0.00000000000E+00 0.  1.
          2   -1    0    0  502    0  0.00000000000E+00 -0.00000000000E+00 -0.28373975760E+04  0.28373975760E+04  0.00000000000E+00 0. -1.
    9000005    1    1    2  502    0  0.97116470143E+02 -0.56086999206E+02 -0.15452441878E+04  0.16001115461E+04  0.40000000000E+03 0. -1.
   -9000005    1    1    2    0  501 -0.97116470143E+02  0.56086999206E+02 -0.12306059526E+04  0.12988334654E+04  0.40000000000E+03 0.  1.
<mgrwt>
<rscale>  2 0.41542431E+03</rscale>
<asrwt>0</asrwt>
<pdfrwt beam="1">  1        2 0.43652277E+00 0.41542431E+03</pdfrwt>
<pdfrwt beam="2">  1       -2 0.94688349E-02 0.41542431E+03</pdfrwt>
<totfact> 0.18148155E+02</totfact>
</mgrwt>
</event>
<event>
 4    1  0.2358610E-002  0.5129747E+03  0.7818608E-02  0.1010447E+00
          2   -1    0    0  502    0  0.00000000000E+00  0.00000000000E+00  0.80537982926E+03  0.80537982926E+03  0.00000000000E+00 0. -1.
         -2   -1    0    0    0  501 -0.00000000000E+00 -0.00000000000E+00 -0.41904984678E+03  0.41904984678E+03  0.00000000000E+00 0.  1.
    9000005    1    1    2  502    0 -0.30227314888E+03 -0.10850804014E+03 -0.94187356533E+02  0.52154991079E+03  0.40000000000E+03 0.  1.
   -9000005    1    1    2    0  501  0.30227314888E+03  0.10850804014E+03  0.48051733901E+03  0.70287976525E+03  0.40000000000E+03 0. -1.
<mgrwt>
<rscale>  2 0.51297471E+03</rscale>
<asrwt>0</asrwt>
<pdfrwt beam="1">  1        2 0.12390459E+00 0.51297471E+03</pdfrwt>
<pdfrwt beam="2">  1       -2 0.64469208E-01 0.51297471E+03</pdfrwt>
<totfact> 0.78407806E+01</totfact>
</mgrwt>
</event>
<event>
 4    1  0.2358610E-002  0.5407548E+03  0.7818608E-02  0.1003657E+00
         -2   -1    0    0    0  501 -0.00000000000E+00  0.00000000000E+00  0.89693526148E+02  0.89693526148E+02  0.00000000000E+00 0.  1.
          2   -1    0    0  502    0  0.00000000000E+00 -0.00000000000E+00 -0.38279679011E+04  0.38279679011E+04  0.00000000000E+00 0. -1.
    9000005    1    1    2  502    0 -0.35143880744E+03  0.94374295614E+02 -0.11147203744E+04  0.12389581334E+04  0.40000000000E+03 0.  1.
   -9000005    1    1    2    0  501  0.35143880744E+03 -0.94374295614E+02 -0.26235540005E+04  0.26787032939E+04  0.40000000000E+03 0. -1.
<mgrwt>
<rscale>  2 0.54075479E+03</rscale>
<asrwt>0</asrwt>
<pdfrwt beam="1">  1        2 0.58891810E+00 0.54075479E+03</pdfrwt>
<pdfrwt beam="2">  1       -2 0.13799005E-01 0.54075479E+03</pdfrwt>
<totfact> 0.21534142E+01</totfact>
</mgrwt>
</event>
<event>
 4    1  0.2358610E-002  0.4707392E+03  0.7818608E-02  0.1021712E+00
         -3   -1    0    0    0  501 -0.00000000000E+00  0.00000000000E+00  0.14047645252E+04  0.14047645252E+04  0.00000000000E+00 0. -1.
          3   -1    0    0  502    0  0.00000000000E+00 -0.00000000000E+00 -0.16074283234E+03  0.16074283234E+03  0.00000000000E+00 0.  1.
    9000005    1    1    2  502    0 -0.14111640309E+03  0.20416066261E+03  0.51512507378E+03  0.69781749549E+03  0.40000000000E+03 0. -1.
   -9000005    1    1    2    0  501  0.14111640309E+03 -0.20416066261E+03  0.72889661905E+03  0.86768986202E+03  0.40000000000E+03 0. -1.
<mgrwt>
<rscale>  2 0.47073922E+03</rscale>
<asrwt>0</asrwt>
<pdfrwt beam="1">  1        3 0.24729667E-01 0.47073922E+03</pdfrwt>
<pdfrwt beam="2">  1       -3 0.21611761E+00 0.47073922E+03</pdfrwt>
<totfact> 0.48172381E+00</totfact>
</mgrwt>
</event>
<event>
 4    1  0.2358610E-002  0.5115026E+03  0.7818608E-02  0.1010819E+00
          1   -1    0    0  502    0  0.00000000000E+00  0.00000000000E+00  0.15043066438E+04  0.15043066438E+04  0.00000000000E+00 0.  1.
         -1   -1    0    0    0  501 -0.00000000000E+00 -0.00000000000E+00 -0.30580434971E+03  0.30580434971E+03  0.00000000000E+00 0. -1.
    9000005    1    1    2  502    0 -0.31546053702E+03  0.46039200911E+02  0.48994554253E+01  0.51152611185E+03  0.40000000000E+03 0. -1.
   -9000005    1    1    2    0  501  0.31546053702E+03 -0.46039200911E+02  0.11936028387E+04  0.12985848817E+04  0.40000000000E+03 0.  1.
<mgrwt>
<rscale>  2 0.51150265E+03</rscale>
<asrwt>0</asrwt>
<pdfrwt beam="1">  1        1 0.23143179E+00 0.51150265E+03</pdfrwt>
<pdfrwt beam="2">  1       -1 0.47046824E-01 0.51150265E+03</pdfrwt>
<totfact> 0.31282743E+01</totfact>
</mgrwt>
</event>
<event>
 4    1  0.2358610E-002  0.7686630E+03  0.7818608E-02  0.9606518E-01
          2   -1    0    0  502    0  0.00000000000E+00  0.00000000000E+00  0.29987774092E+04  0.29987774092E+04  0.00000000000E+00 0.  1.
         -2   -1    0    0    0  501 -0.00000000000E+00 -0.00000000000E+00 -0.20142634227E+03  0.20142634227E+03  0.00000000000E+00 0. -1.
    9000005    1    1    2  502    0 -0.30648730031E+03  0.58043803801E+03  0.11622254272E+04  0.13934169243E+04  0.40000000000E+03 0. -1.
   -9000005    1    1    2    0  501  0.30648730031E+03 -0.58043803801E+03  0.16351256397E+04  0.18067868271E+04  0.40000000000E+03 0. -1.
<mgrwt>
<rscale>  2 0.76866298E+03</rscale>
<asrwt>0</asrwt>
<pdfrwt beam="1">  1        2 0.46135034E+00 0.76866298E+03</pdfrwt>
<pdfrwt beam="2">  1       -2 0.30988670E-01 0.76866298E+03</pdfrwt>
<totfact> 0.17781572E+01</totfact>
</mgrwt>
</event>
<event>
 4    1  0.2358610E-002  0.4014277E+03  0.7818608E-02  0.1043286E+00
         -2   -1    0    0    0  501 -0.00000000000E+00  0.00000000000E+00  0.45890350276E+03  0.45890350276E+03  0.00000000000E+00 0. -1.
          2   -1    0    0  502    0  0.00000000000E+00 -0.00000000000E+00 -0.35121817194E+03  0.35121817194E+03  0.00000000000E+00 0.  1.
    9000005    1    1    2  502    0  0.28454951201E+02  0.18288745593E+02  0.48217185371E+02  0.40431307106E+03  0.40000000000E+03 0.  1.
   -9000005    1    1    2    0  501 -0.28454951201E+02 -0.18288745593E+02  0.59468145452E+02  0.40580860364E+03  0.40000000000E+03 0.  1.
<mgrwt>
<rscale>  2 0.40142766E+03</rscale>
<asrwt>0</asrwt>
<pdfrwt beam="1">  1        2 0.54033565E-01 0.40142766E+03</pdfrwt>
<pdfrwt beam="2">  1       -2 0.70600539E-01 0.40142766E+03</pdfrwt>
<totfact> 0.17229943E+02</totfact>
</mgrwt>
</event>
<event>
 4    1  0.2358610E-002  0.4775423E+03  0.7818608E-02  0.1019813E+00
          2   -1    0    0  502    0  0.00000000000E+00  0.00000000000E+00  0.68853299109E+03  0.68853299109E+03  0.00000000000E+00 0.  1.
         -2   -1    0    0    0  501 -0.00000000000E+00 -0.00000000000E+00 -0.41557160252E+03  0.41557160252E+03  0.00000000000E+00 0. -1.
    9000005    1    1    2  502    0  0.62304435260E+02 -0.25330780876E+03 -0.11225515648E+03  0.49055877200E+03  0.40000000000E+03 0. -1.
   -9000005    1    1    2    0  501 -0.62304435260E+02  0.25330780876E+03  0.38521654505E+03  0.61354582161E+03  0.40000000000E+03 0.  1.
<mgrwt>
<rscale>  2 0.47754234E+03</rscale>
<asrwt>0</asrwt>
<pdfrwt beam="1">  1        2 0.10592815E+00 0.47754234E+03</pdfrwt>
<pdfrwt beam="2">  1       -2 0.63934093E-01 0.47754234E+03</pdfrwt>
<totfact> 0.97781992E+01</totfact>
</mgrwt>
</event>
<event>
 4    1  0.2358610E-002  0.4274359E+03  0.7818608E-02  0.1034673E+00
         -2   -1    0    0    0  501 -0.00000000000E+00  0.00000000000E+00  0.62333119345E+03  0.62333119345E+03  0.00000000000E+00 0.  1.
          2   -1    0    0  502    0  0.00000000000E+00 -0.00000000000E+00 -0.32795135418E+03  0.32795135418E+03  0.00000000000E+00 0. -1.
    9000005    1    1    2  502    0 -0.75201158443E+01  0.15048215273E+03 -0.73537656049E+01  0.42749913251E+03  0.40000000000E+03 0.  1.
   -9000005    1    1    2    0  501  0.75201158443E+01 -0.15048215273E+03  0.30273360487E+03  0.52378341512E+03  0.40000000000E+03 0.  1.
<mgrwt>
<rscale>  2 0.42743588E+03</rscale>
<asrwt>0</asrwt>
<pdfrwt beam="1">  1        2 0.50454055E-01 0.42743588E+03</pdfrwt>
<pdfrwt beam="2">  1       -2 0.95897106E-01 0.42743588E+03</pdfrwt>
<totfact> 0.93309808E+01</totfact>
</mgrwt>
</event>
<event>
 4    1  0.2358610E-002  0.6590956E+03  0.7818608E-02  0.9789860E-01
          2   -1    0    0  502    0  0.00000000000E+00  0.00000000000E+00  0.19503898234E+04  0.19503898234E+04  0.00000000000E+00 0.  1.
         -2   -1    0    0    0  501 -0.00000000000E+00 -0.00000000000E+00 -0.30331741033E+03  0.30331741033E+03  0.00000000000E+00 0. -1.
    9000005    1    1    2  502    0  0.47970159208E+03  0.21045994883E+03  0.14043768757E+04  0.15513482576E+04  0.40000000000E+03 0.  1.
   -9000005    1    1    2    0  501 -0.47970159208E+03 -0.21045994883E+03  0.24269553744E+03  0.70235897616E+03  0.40000000000E+03 0. -1.
<mgrwt>
<rscale>  2 0.65909560E+03</rscale>
<asrwt>0</asrwt>
<pdfrwt beam="1">  1        2 0.30005997E+00 0.65909560E+03</pdfrwt>
<pdfrwt beam="2">  1       -2 0.46664218E-01 0.65909560E+03</pdfrwt>
<totfact> 0.32363407E+01</totfact>
</mgrwt>
</event>
<event>
 4    1  0.2358610E-002  0.5157822E+03  0.7818608E-02  0.1009740E+00
          1   -1    0    0  502    0  0.00000000000E+00  0.00000000000E+00  0.12110964937E+04  0.12110964937E+04  0.00000000000E+00 0. -1.
         -1   -1    0    0    0  501 -0.00000000000E+00 -0.00000000000E+00 -0.22146357385E+03  0.22146357385E+03  0.00000000000E+00 0.  1.
    9000005    1    1    2  502    0 -0.19151501006E+03 -0.26335004828E+03  0.55942955084E+03  0.76091567822E+03  0.40000000000E+03 0.  1.
   -9000005    1    1    2    0  501  0.19151501006E+03  0.26335004828E+03  0.43020336901E+03  0.67164438933E+03  0.40000000000E+03 0.  1.
<mgrwt>
<rscale>  2 0.51578217E+03</rscale>
<asrwt>0</asrwt>
<pdfrwt beam="1">  1        1 0.18632253E+00 0.51578217E+03</pdfrwt>
<pdfrwt beam="2">  1       -1 0.34071320E-01 0.51578217E+03</pdfrwt>
<totfact> 0.89426290E+01</totfact>
</mgrwt>
</event>
<event>
 4    1  0.2358610E-002  0.5829555E+03  0.7818608E-02  0.9941413E-01
          1   -1    0    0  502    0  0.00000000000E+00  0.00000000000E+00  0.20662703738E+04  0.20662703738E+04  0.00000000000E+00 0. -1.
         -1   -1    0    0    0  501 -0.00000000000E+00 -0.00000000000E+00 -0.26747564439E+03  0.26747564439E+03  0.00000000000E+00 0.  1.
    9000005    1    1    2  502    0  0.39807830087E+03  0.14618732778E+03  0.16235238856E+04  0.17250121378E+04  0.40000000000E+03 0. -1.
   -9000005    1    1    2    0  501 -0.39807830087E+03 -0.14618732778E+03  0.17527084377E+03  0.60873388037E+03  0.40000000000E+03 0.  1.
<mgrwt>
<rscale>  2 0.58295546E+03</rscale>
<asrwt>0</asrwt>
<pdfrwt beam="1">  1        1 0.31788774E+00 0.58295546E+03</pdfrwt>
<pdfrwt beam="2">  1       -1 0.41150100E-01 0.58295546E+03</pdfrwt>
<totfact> 0.16664271E+01</totfact>
</mgrwt>
</event>
<event>
 4    1  0.2358610E-002  0.4343220E+03  0.7818608E-02  0.1032503E+00
         -2   -1    0    0    0  501 -0.00000000000E+00  0.00000000000E+00  0.23272217483E+03  0.23272217483E+03  0.00000000000E+00 0.  1.
          2   -1    0    0  502    0  0.00000000000E+00 -0.00000000000E+00 -0.12021251803E+04  0.12021251803E+04  0.00000000000E+00 0. -1.
    9000005    1    1    2  502    0  0.10065083952E+03 -0.13603322822E+03 -0.75250376298E+02  0.44079275154E+03  0.40000000000E+03 0.  1.
   -9000005    1    1    2    0  501 -0.10065083952E+03  0.13603322822E+03 -0.89415262917E+03  0.99405460360E+03  0.40000000000E+03 0. -1.
<mgrwt>
<rscale>  2 0.43432204E+03</rscale>
<asrwt>0</asrwt>
<pdfrwt beam="1">  1        2 0.18494233E+00 0.43432204E+03</pdfrwt>
<pdfrwt beam="2">  1       -2 0.35803412E-01 0.43432204E+03</pdfrwt>
<totfact> 0.14461091E+02</totfact>
</mgrwt>
</event>
<event>
 4    1  0.2358610E-002  0.4070915E+03  0.7818608E-02  0.1041351E+00
          2   -1    0    0  502    0  0.00000000000E+00  0.00000000000E+00  0.60871199570E+03  0.60871199570E+03  0.00000000000E+00 0.  1.
         -2   -1    0    0    0  501 -0.00000000000E+00 -0.00000000000E+00 -0.27899512893E+03  0.27899512893E+03  0.00000000000E+00 0. -1.
    9000005    1    1    2  502    0 -0.61732681046E+02 -0.43732451304E+02  0.95858075728E+02  0.41822508520E+03  0.40000000000E+03 0. -1.
   -9000005    1    1    2    0  501  0.61732681046E+02  0.43732451304E+02  0.23385879104E+03  0.46948203944E+03  0.40000000000E+03 0.  1.
<mgrwt>
<rscale>  2 0.40709145E+03</rscale>
<asrwt>0</asrwt>
<pdfrwt beam="1">  1        2 0.93647999E-01 0.40709145E+03</pdfrwt>
<pdfrwt beam="2">  1       -2 0.42922328E-01 0.40709145E+03</pdfrwt>
<totfact> 0.25733773E+02</totfact>
</mgrwt>
</event>
<event>
 4    1  0.2358610E-002  0.4355246E+03  0.7818608E-02  0.1032129E+00
          2   -1    0    0  502    0  0.00000000000E+00  0.00000000000E+00  0.97874071345E+03  0.97874071345E+03  0.00000000000E+00 0. -1.
         -2   -1    0    0    0  501 -0.00000000000E+00 -0.00000000000E+00 -0.34451616679E+03  0.34451616679E+03  0.00000000000E+00 0.  1.
    9000005    1    1    2  502    0 -0.16999981378E+03  0.27960124049E+02 -0.12049718336E+03  0.45188635344E+03  0.40000000000E+03 0.  1.
   -9000005    1    1    2    0  501  0.16999981378E+03 -0.27960124049E+02  0.75472173003E+03  0.87137052681E+03  0.40000000000E+03 0. -1.
<mgrwt>
<rscale>  2 0.43552463E+03</rscale>
<asrwt>0</asrwt>
<pdfrwt beam="1">  1        2 0.15057549E+00 0.43552463E+03</pdfrwt>
<pdfrwt beam="2">  1       -2 0.53002488E-01 0.43552463E+03</pdfrwt>
<totfact> 0.91211809E+01</totfact>
</mgrwt>
</event>
<event>
 4    1  0.2358610E-002  0.4502190E+03  0.7818608E-02  0.1027657E+00
         -2   -1    0    0    0  501 -0.00000000000E+00  0.00000000000E+00  0.24785209007E+04  0.24785209007E+04  0.00000000000E+00 0. -1.
          2   -1    0    0  502    0  0.00000000000E+00 -0.00000000000E+00 -0.11195597089E+03  0.11195597089E+03  0.00000000000E+00 0.  1.
    9000005    1    1    2  502    0  0.78113053641E+01 -0.20648522598E+03  0.18557106391E+04  0.19095442234E+04  0.40000000000E+03 0. -1.
   -9000005    1    1    2    0  501 -0.78113053641E+01  0.20648522598E+03  0.51085429074E+03  0.68093264821E+03  0.40000000000E+03 0.  1.
<mgrwt>
<rscale>  2 0.45021902E+03</rscale>
<asrwt>0</asrwt>
<pdfrwt beam="1">  1        2 0.17223997E-01 0.45021902E+03</pdfrwt>
<pdfrwt beam="2">  1       -2 0.38131086E+00 0.45021902E+03</pdfrwt>
<totfact> 0.37172644E+00</totfact>
</mgrwt>
</event>
<event>
 4    1  0.2358610E-002  0.4184346E+03  0.7818608E-02  0.1037577E+00
          2   -1    0    0  502    0  0.00000000000E+00  0.00000000000E+00  0.31708613003E+03  0.31708613003E+03  0.00000000000E+00 0.  1.
         -2   -1    0    0    0  501 -0.00000000000E+00 -0.00000000000E+00 -0.57612779287E+03  0.57612779287E+03  0.00000000000E+00 0. -1.
    9000005    1    1    2  502    0 -0.12181306406E+03  0.15781544369E+02 -0.22058161994E+03  0.47301557139E+03  0.40000000000E+03 0. -1.
   -9000005    1    1    2    0  501  0.12181306406E+03 -0.15781544369E+02 -0.38460042898E+02  0.42019835152E+03  0.40000000000E+03 0.  1.
<mgrwt>
<rscale>  2 0.41843456E+03</rscale>
<asrwt>0</asrwt>
<pdfrwt beam="1">  1        2 0.48782481E-01 0.41843456E+03</pdfrwt>
<pdfrwt beam="2">  1       -2 0.88635045E-01 0.41843456E+03</pdfrwt>
<totfact> 0.11613136E+02</totfact>
</mgrwt>
</event>
<event>
 4    1  0.2358610E-002  0.4250361E+03  0.7818608E-02  0.1035440E+00
          1   -1    0    0  502    0  0.00000000000E+00  0.00000000000E+00  0.47512586942E+03  0.47512586942E+03  0.00000000000E+00 0.  1.
         -1   -1    0    0    0  501 -0.00000000000E+00 -0.00000000000E+00 -0.38367677654E+03  0.38367677654E+03  0.00000000000E+00 0. -1.
    9000005    1    1    2  502    0 -0.11324489749E+03 -0.88494607530E+02  0.86441348824E+02  0.43373702765E+03  0.40000000000E+03 0.  1.
   -9000005    1    1    2    0  501  0.11324489749E+03  0.88494607530E+02  0.50077440513E+01  0.42506561831E+03  0.40000000000E+03 0.  1.
<mgrwt>
<rscale>  2 0.42503612E+03</rscale>
<asrwt>0</asrwt>
<pdfrwt beam="1">  1        1 0.73096287E-01 0.42503612E+03</pdfrwt>
<pdfrwt beam="2">  1       -1 0.59027197E-01 0.42503612E+03</pdfrwt>
<totfact> 0.14392696E+02</totfact>
</mgrwt>
</event>
<event>
 4    1  0.2358610E-002  0.4812241E+03  0.7818608E-02  0.1018799E+00
          2   -1    0    0  502    0  0.00000000000E+00  0.00000000000E+00  0.20876915261E+04  0.20876915261E+04  0.00000000000E+00 0.  1.
         -2   -1    0    0    0  501 -0.00000000000E+00 -0.00000000000E+00 -0.11264291116E+03  0.11264291116E+03  0.00000000000E+00 0. -1.
    9000005    1    1    2  502    0 -0.20206075724E+03  0.17535143563E+03  0.11233987606E+04  0.12221298830E+04  0.40000000000E+03 0. -1.
   -9000005    1    1    2    0  501  0.20206075724E+03 -0.17535143563E+03  0.85164985431E+03  0.97820455425E+03  0.40000000000E+03 0.  1.
<mgrwt>
<rscale>  2 0.48122414E+03</rscale>
<asrwt>0</asrwt>
<pdfrwt beam="1">  1        2 0.32118328E+00 0.48122414E+03</pdfrwt>
<pdfrwt beam="2">  1       -2 0.17329680E-01 0.48122414E+03</pdfrwt>
<totfact> 0.17317078E+02</totfact>
</mgrwt>
</event>
<event>
 4    1  0.2358610E-002  0.4757812E+03  0.7818608E-02  0.1020301E+00
          2   -1    0    0  502    0  0.00000000000E+00  0.00000000000E+00  0.49731814406E+03  0.49731814406E+03  0.00000000000E+00 0.  1.
         -2   -1    0    0    0  501 -0.00000000000E+00 -0.00000000000E+00 -0.66425597181E+03  0.66425597181E+03  0.00000000000E+00 0. -1.
    9000005    1    1    2  502    0 -0.22382666704E+03 -0.12755128305E+03  0.24237118519E+03  0.53395832992E+03  0.40000000000E+03 0.  1.
   -9000005    1    1    2    0  501  0.22382666704E+03  0.12755128305E+03 -0.40930901294E+03  0.62761578594E+03  0.40000000000E+03 0. -1.
<mgrwt>
<rscale>  2 0.47578115E+03</rscale>
<asrwt>0</asrwt>
<pdfrwt beam="1">  1        2 0.76510484E-01 0.47578115E+03</pdfrwt>
<pdfrwt beam="2">  1       -2 0.10219323E+00 0.47578115E+03</pdfrwt>
<totfact> 0.50302323E+01</totfact>
</mgrwt>
</event>
<event>
 4    1  0.2358610E-002  0.4347927E+03  0.7818608E-02  0.1032357E+00
         -2   -1    0    0    0  501 -0.00000000000E+00  0.00000000000E+00  0.27458018061E+03  0.27458018061E+03  0.00000000000E+00 0. -1.
          2   -1    0    0  502    0  0.00000000000E+00 -0.00000000000E+00 -0.11390905967E+04  0.11390905967E+04  0.00000000000E+00 0.  1.
    9000005    1    1    2  502    0  0.14894793752E+03  0.82820160427E+02  0.12311421989E+02  0.43496693917E+03  0.40000000000E+03 0. -1.
   -9000005    1    1    2    0  501 -0.14894793752E+03 -0.82820160427E+02 -0.87682183809E+03  0.97870383815E+03  0.40000000000E+03 0.  1.
<mgrwt>
<rscale>  2 0.43479267E+03</rscale>
<asrwt>0</asrwt>
<pdfrwt beam="1">  1        2 0.17524471E+00 0.43479267E+03</pdfrwt>
<pdfrwt beam="2">  1       -2 0.42243105E-01 0.43479267E+03</pdfrwt>
<totfact> 0.11453437E+02</totfact>
</mgrwt>
</event>
<event>
 4    1  0.2358610E-002  0.4364573E+03  0.7818608E-02  0.1031839E+00
         -2   -1    0    0    0  501 -0.00000000000E+00  0.00000000000E+00  0.23465714930E+03  0.23465714930E+03  0.00000000000E+00 0. -1.
          2   -1    0    0  502    0  0.00000000000E+00 -0.00000000000E+00 -0.85361766592E+03  0.85361766592E+03  0.00000000000E+00 0.  1.
    9000005    1    1    2  502    0 -0.14942940830E+03 -0.90364880107E+02 -0.42991463116E+03  0.61263492368E+03  0.40000000000E+03 0.  1.
   -9000005    1    1    2    0  501  0.14942940830E+03  0.90364880107E+02 -0.18904588546E+03  0.47563989154E+03  0.40000000000E+03 0. -1.
<mgrwt>
<rscale>  2 0.43645728E+03</rscale>
<asrwt>0</asrwt>
<pdfrwt beam="1">  1        2 0.13132579E+00 0.43645728E+03</pdfrwt>
<pdfrwt beam="2">  1       -2 0.36101100E-01 0.43645728E+03</pdfrwt>
<totfact> 0.23446599E+02</totfact>
</mgrwt>
</event>
<event>
 4    1  0.2358610E-002  0.4715426E+03  0.7818608E-02  0.1021486E+00
         -2   -1    0    0    0  501 -0.00000000000E+00  0.00000000000E+00  0.45168983353E+03  0.45168983353E+03  0.00000000000E+00 0. -1.
          2   -1    0    0  502    0  0.00000000000E+00 -0.00000000000E+00 -0.60449226092E+03  0.60449226092E+03  0.00000000000E+00 0.  1.
    9000005    1    1    2  502    0 -0.16431096129E+03  0.18802744664E+03 -0.30394080481E+03  0.56101018308E+03  0.40000000000E+03 0.  1.
   -9000005    1    1    2    0  501  0.16431096129E+03 -0.18802744664E+03  0.15113837742E+03  0.49517191138E+03  0.40000000000E+03 0. -1.
<mgrwt>
<rscale>  2 0.47154259E+03</rscale>
<asrwt>0</asrwt>
<pdfrwt beam="1">  1        2 0.92998810E-01 0.47154259E+03</pdfrwt>
<pdfrwt beam="2">  1       -2 0.69490743E-01 0.47154259E+03</pdfrwt>
<totfact> 0.95828445E+01</totfact>
</mgrwt>
</event>
<event>
 4    1  0.2358610E-002  0.4316498E+03  0.7818608E-02  0.1033340E+00
          1   -1    0    0  502    0  0.00000000000E+00  0.00000000000E+00  0.12210153292E+04  0.12210153292E+04  0.00000000000E+00 0. -1.
         -1   -1    0    0    0  501 -0.00000000000E+00 -0.00000000000E+00 -0.15259558057E+03  0.15259558057E+03  0.00000000000E+00 0.  1.
    9000005    1    1    2  502    0 -0.78909709547E+01  0.16204710621E+03  0.53437662253E+03  0.68693515469E+03  0.40000000000E+03 0. -1.
   -9000005    1    1    2    0  501  0.78909709547E+01 -0.16204710621E+03  0.53404312607E+03  0.68667575504E+03  0.40000000000E+03 0. -1.
<mgrwt>
<rscale>  2 0.43164978E+03</rscale>
<asrwt>0</asrwt>
<pdfrwt beam="1">  1        1 0.18784851E+00 0.43164978E+03</pdfrwt>
<pdfrwt beam="2">  1       -1 0.23476244E-01 0.43164978E+03</pdfrwt>
<totfact> 0.16853301E+02</totfact>
</mgrwt>
</event>
<event>
 4    1  0.2358610E-002  0.4572756E+03  0.7818608E-02  0.1025574E+00
         -2   -1    0    0    0  501 -0.00000000000E+00  0.00000000000E+00  0.13651377500E+03  0.13651377500E+03  0.00000000000E+00 0.  1.
          2   -1    0    0  502    0  0.00000000000E+00 -0.00000000000E+00 -0.17522213485E+04  0.17522213485E+04  0.00000000000E+00 0. -1.
    9000005    1    1    2  502    0  0.20979500719E+03 -0.71323292029E+02 -0.47284851398E+03  0.65778923236E+03  0.40000000000E+03 0.  1.
   -9000005    1    1    2    0  501 -0.20979500719E+03  0.71323292029E+02 -0.11428590595E+04  0.12309458911E+04  0.40000000000E+03 0. -1.
<mgrwt>
<rscale>  2 0.45727558E+03</rscale>
<asrwt>0</asrwt>
<pdfrwt beam="1">  1        2 0.26957250E+00 0.45727558E+03</pdfrwt>
<pdfrwt beam="2">  1       -2 0.21002121E-01 0.45727558E+03</pdfrwt>
<totfact> 0.18883569E+02</totfact>
</mgrwt>
</event>
<event>
 4    1  0.2358610E-002  0.4708811E+03  0.7818608E-02  0.1021672E+00
         -1   -1    0    0    0  501 -0.00000000000E+00  0.00000000000E+00  0.32218260844E+03  0.32218260844E+03  0.00000000000E+00 0.  1.
          1   -1    0    0  502    0  0.00000000000E+00 -0.00000000000E+00 -0.73198945875E+03  0.73198945875E+03  0.00000000000E+00 0. -1.
    9000005    1    1    2  502    0  0.86004664395E+02  0.23309265561E+03 -0.33380819206E+03  0.57719745104E+03  0.40000000000E+03 0. -1.
   -9000005    1    1    2    0  501 -0.86004664395E+02 -0.23309265561E+03 -0.75998658244E+02  0.47697461615E+03  0.40000000000E+03 0.  1.
<mgrwt>
<rscale>  2 0.47088108E+03</rscale>
<asrwt>0</asrwt>
<pdfrwt beam="1">  1        1 0.11261376E+00 0.47088108E+03</pdfrwt>
<pdfrwt beam="2">  1       -1 0.49566556E-01 0.47088108E+03</pdfrwt>
<totfact> 0.10835527E+02</totfact>
</mgrwt>
</event>
<event>
 4    1  0.2358610E-002  0.4523222E+03  0.7818608E-02  0.1027032E+00
          3   -1    0    0  502    0  0.00000000000E+00  0.00000000000E+00  0.15811526786E+04  0.15811526786E+04  0.00000000000E+00 0.  1.
         -3   -1    0    0    0  501 -0.00000000000E+00 -0.00000000000E+00 -0.12940508890E+03  0.12940508890E+03  0.00000000000E+00 0. -1.
    9000005    1    1    2  502    0  0.20950567887E+03  0.26510121641E+02  0.73289446847E+03  0.86123731802E+03  0.40000000000E+03 0.  1.
   -9000005    1    1    2    0  501 -0.20950567887E+03 -0.26510121641E+02  0.71885312125E+03  0.84932044951E+03  0.40000000000E+03 0. -1.
<mgrwt>
<rscale>  2 0.45232225E+03</rscale>
<asrwt>0</asrwt>
<pdfrwt beam="1">  1        3 0.24325425E+00 0.45232225E+03</pdfrwt>
<pdfrwt beam="2">  1       -3 0.19908476E-01 0.45232225E+03</pdfrwt>
<totfact> 0.50210879E+00</totfact>
</mgrwt>
</event>
<event>
 4    1  0.2358610E-002  0.4824564E+03  0.7818608E-02  0.1018462E+00
         -2   -1    0    0    0  501 -0.00000000000E+00  0.00000000000E+00  0.17845485246E+03  0.17845485246E+03  0.00000000000E+00 0.  1.
          2   -1    0    0  502    0  0.00000000000E+00 -0.00000000000E+00 -0.13090848125E+04  0.13090848125E+04  0.00000000000E+00 0. -1.
    9000005    1    1    2  502    0  0.38786204297E+02  0.26694534328E+03 -0.61013564643E+03  0.77783654645E+03  0.40000000000E+03 0. -1.
   -9000005    1    1    2    0  501 -0.38786204297E+02 -0.26694534328E+03 -0.52049431366E+03  0.70970311856E+03  0.40000000000E+03 0.  1.
<mgrwt>
<rscale>  2 0.48245641E+03</rscale>
<asrwt>0</asrwt>
<pdfrwt beam="1">  1        2 0.20139767E+00 0.48245641E+03</pdfrwt>
<pdfrwt beam="2">  1       -2 0.27454592E-01 0.48245641E+03</pdfrwt>
<totfact> 0.20435340E+02</totfact>
</mgrwt>
</event>
<event>
 4    1  0.2358610E-002  0.6375561E+03  0.7818608E-02  0.9830414E-01
         -2   -1    0    0    0  501 -0.00000000000E+00  0.00000000000E+00  0.61055344660E+03  0.61055344660E+03  0.00000000000E+00 0.  1.
          2   -1    0    0  502    0  0.00000000000E+00 -0.00000000000E+00 -0.15790603956E+04  0.15790603956E+04  0.00000000000E+00 0. -1.
    9000005    1    1    2  502    0  0.27429647440E+03 -0.41381055751E+03  0.34836620681E+03  0.72652374181E+03  0.40000000000E+03 0.  1.
   -9000005    1    1    2    0  501 -0.27429647440E+03  0.41381055751E+03 -0.13168731558E+04  0.14630901004E+04  0.40000000000E+03 0. -1.
<mgrwt>
<rscale>  2 0.63755606E+03</rscale>
<asrwt>0</asrwt>
<pdfrwt beam="1">  1        2 0.24293237E+00 0.63755606E+03</pdfrwt>
<pdfrwt beam="2">  1       -2 0.93931300E-01 0.63755606E+03</pdfrwt>
<totfact> 0.11438787E+01</totfact>
</mgrwt>
</event>
<event>
 4    1  0.2358610E-002  0.4628090E+03  0.7818608E-02  0.1023970E+00
          1   -1    0    0  502    0  0.00000000000E+00  0.00000000000E+00  0.80282377962E+03  0.80282377962E+03  0.00000000000E+00 0.  1.
         -1   -1    0    0    0  501 -0.00000000000E+00 -0.00000000000E+00 -0.26715628227E+03  0.26715628227E+03  0.00000000000E+00 0. -1.
    9000005    1    1    2  502    0  0.23026939103E+03 -0.34178615658E+02  0.24825522568E+03  0.52518837315E+03  0.40000000000E+03 0. -1.
   -9000005    1    1    2    0  501 -0.23026939103E+03  0.34178615658E+02  0.28741227166E+03  0.54479168874E+03  0.40000000000E+03 0. -1.
<mgrwt>
<rscale>  2 0.46280900E+03</rscale>
<asrwt>0</asrwt>
<pdfrwt beam="1">  1        1 0.12351135E+00 0.46280900E+03</pdfrwt>
<pdfrwt beam="2">  1       -1 0.41100967E-01 0.46280900E+03</pdfrwt>
<totfact> 0.13275517E+02</totfact>
</mgrwt>
</event>
<event>
 4    1  0.2358610E-002  0.4107534E+03  0.7818608E-02  0.1040118E+00
         -1   -1    0    0    0  501 -0.00000000000E+00  0.00000000000E+00  0.60509351409E+02  0.60509351409E+02  0.00000000000E+00 0.  1.
          1   -1    0    0  502    0  0.00000000000E+00 -0.00000000000E+00 -0.27883480036E+04  0.27883480036E+04  0.00000000000E+00 0. -1.
    9000005    1    1    2  502    0 -0.93043830473E+02 -0.78234784531E+01 -0.13696888303E+04  0.14299530947E+04  0.40000000000E+03 0. -1.
   -9000005    1    1    2    0  501  0.93043830473E+02  0.78234784531E+01 -0.13581498219E+04  0.14189042603E+04  0.40000000000E+03 0.  1.
<mgrwt>
<rscale>  2 0.41075341E+03</rscale>
<asrwt>0</asrwt>
<pdfrwt beam="1">  1        1 0.42897668E+00 0.41075341E+03</pdfrwt>
<pdfrwt beam="2">  1       -1 0.93091295E-02 0.41075341E+03</pdfrwt>
<totfact> 0.66608323E+01</totfact>
</mgrwt>
</event>
<event>
 4    1  0.2358610E-002  0.4327300E+03  0.7818608E-02  0.1033001E+00
         -2   -1    0    0    0  501 -0.00000000000E+00  0.00000000000E+00  0.39855634786E+03  0.39855634786E+03  0.00000000000E+00 0.  1.
          2   -1    0    0  502    0  0.00000000000E+00 -0.00000000000E+00 -0.10599053573E+04  0.10599053573E+04  0.00000000000E+00 0. -1.
    9000005    1    1    2  502    0 -0.53595529481E+02  0.15614971421E+03 -0.87478093546E+03  0.97595947614E+03  0.40000000000E+03 0. -1.
   -9000005    1    1    2    0  501  0.53595529481E+02 -0.15614971421E+03  0.21343192598E+03  0.48250222907E+03  0.40000000000E+03 0.  1.
<mgrwt>
<rscale>  2 0.43272996E+03</rscale>
<asrwt>0</asrwt>
<pdfrwt beam="1">  1        2 0.16306236E+00 0.43272996E+03</pdfrwt>
<pdfrwt beam="2">  1       -2 0.61316362E-01 0.43272996E+03</pdfrwt>
<totfact> 0.60071163E+01</totfact>
</mgrwt>
</event>
<event>
 4    1  0.2358610E-002  0.4337647E+03  0.7818608E-02  0.1032677E+00
         -1   -1    0    0    0  501 -0.00000000000E+00  0.00000000000E+00  0.11522608986E+03  0.11522608986E+03  0.00000000000E+00 0. -1.
          1   -1    0    0  502    0  0.00000000000E+00 -0.00000000000E+00 -0.18955047372E+04  0.18955047372E+04  0.00000000000E+00 0.  1.
    9000005    1    1    2  502    0  0.11460792192E+03 -0.12254323462E+03 -0.12643524072E+04  0.13366895038E+04  0.40000000000E+03 0.  1.
   -9000005    1    1    2    0  501 -0.11460792192E+03  0.12254323462E+03 -0.51592624015E+03  0.67404132321E+03  0.40000000000E+03 0. -1.
<mgrwt>
<rscale>  2 0.43376471E+03</rscale>
<asrwt>0</asrwt>
<pdfrwt beam="1">  1        1 0.29161608E+00 0.43376471E+03</pdfrwt>
<pdfrwt beam="2">  1       -1 0.17727093E-01 0.43376471E+03</pdfrwt>
<totfact> 0.94051105E+01</totfact>
</mgrwt>
</event>
<event>
 4    1  0.2358610E-002  0.5302258E+03  0.7818608E-02  0.1006177E+00
         -2   -1    0    0    0  501 -0.00000000000E+00  0.00000000000E+00  0.12141087544E+03  0.12141087544E+03  0.00000000000E+00 0.  1.
          2   -1    0    0  502    0  0.00000000000E+00 -0.00000000000E+00 -0.27674897075E+04  0.27674897075E+04  0.00000000000E+00 0. -1.
    9000005    1    1    2  502    0 -0.20914671643E+02  0.34742196625E+03 -0.73936031355E+03  0.90983136864E+03  0.40000000000E+03 0.  1.
   -9000005    1    1    2    0  501  0.20914671643E+02 -0.34742196625E+03 -0.19067185185E+04  0.19790692143E+04  0.40000000000E+03 0. -1.
<mgrwt>
<rscale>  2 0.53022584E+03</rscale>
<asrwt>0</asrwt>
<pdfrwt beam="1">  1        2 0.42576760E+00 0.53022584E+03</pdfrwt>
<pdfrwt beam="2">  1       -2 0.18678598E-01 0.53022584E+03</pdfrwt>
<totfact> 0.63135038E+01</totfact>
</mgrwt>
</event>
<event>
 4    1  0.2358610E-002  0.5380652E+03  0.7818608E-02  0.1004295E+00
         -2   -1    0    0    0  501 -0.00000000000E+00  0.00000000000E+00  0.67310614857E+03  0.67310614857E+03  0.00000000000E+00 0. -1.
          2   -1    0    0  502    0  0.00000000000E+00 -0.00000000000E+00 -0.50426401023E+03  0.50426401023E+03  0.00000000000E+00 0.  1.
    9000005    1    1    2  502    0  0.34784983035E+03 -0.92274655795E+02 -0.14131558579E+03  0.55631305158E+03  0.40000000000E+03 0.  1.
   -9000005    1    1    2    0  501 -0.34784983035E+03  0.92274655795E+02  0.31015772414E+03  0.62105710721E+03  0.40000000000E+03 0. -1.
<mgrwt>
<rscale>  2 0.53806516E+03</rscale>
<asrwt>0</asrwt>
<pdfrwt beam="1">  1        2 0.77579079E-01 0.53806516E+03</pdfrwt>
<pdfrwt beam="2">  1       -2 0.10355479E+00 0.53806516E+03</pdfrwt>
<totfact> 0.47681843E+01</totfact>
</mgrwt>
</event>
<event>
 4    1  0.2358610E-002  0.4526120E+03  0.7818608E-02  0.1026946E+00
         -1   -1    0    0    0  501 -0.00000000000E+00  0.00000000000E+00  0.26302561566E+03  0.26302561566E+03  0.00000000000E+00 0.  1.
          1   -1    0    0  502    0  0.00000000000E+00 -0.00000000000E+00 -0.77926561232E+03  0.77926561232E+03  0.00000000000E+00 0. -1.
    9000005    1    1    2  502    0 -0.21179134708E+03  0.14185877959E+01 -0.24608935170E+03  0.51518691376E+03  0.40000000000E+03 0.  1.
   -9000005    1    1    2    0  501  0.21179134708E+03 -0.14185877959E+01 -0.27015064496E+03  0.52710431421E+03  0.40000000000E+03 0. -1.
<mgrwt>
<rscale>  2 0.45261196E+03</rscale>
<asrwt>0</asrwt>
<pdfrwt beam="1">  1        1 0.11988702E+00 0.45261196E+03</pdfrwt>
<pdfrwt beam="2">  1       -1 0.40465480E-01 0.45261196E+03</pdfrwt>
<totfact> 0.14322081E+02</totfact>
</mgrwt>
</event>
<event>
 4    1  0.2358610E-002  0.4178526E+03  0.7818608E-02  0.1037767E+00
          2   -1    0    0  502    0  0.00000000000E+00  0.00000000000E+00  0.10100912465E+04  0.10100912465E+04  0.00000000000E+00 0.  1.
         -2   -1    0    0    0  501 -0.00000000000E+00 -0.00000000000E+00 -0.18283382675E+03  0.18283382675E+03  0.00000000000E+00 0. -1.
    9000005    1    1    2  502    0 -0.96481540974E+02  0.72746681657E+02  0.27429265664E+03  0.49983720243E+03  0.40000000000E+03 0.  1.
   -9000005    1    1    2    0  501  0.96481540974E+02 -0.72746681657E+02  0.55296476309E+03  0.69308787081E+03  0.40000000000E+03 0. -1.
<mgrwt>
<rscale>  2 0.41785257E+03</rscale>
<asrwt>0</asrwt>
<pdfrwt beam="1">  1        2 0.15539865E+00 0.41785257E+03</pdfrwt>
<pdfrwt beam="2">  1       -2 0.28128282E-01 0.41785257E+03</pdfrwt>
<totfact> 0.29547910E+02</totfact>
</mgrwt>
</event>
<event>
 4    1  0.2358610E-002  0.4360720E+03  0.7818608E-02  0.1031959E+00
          2   -1    0    0  502    0  0.00000000000E+00  0.00000000000E+00  0.13258111989E+04  0.13258111989E+04  0.00000000000E+00 0. -1.
         -2   -1    0    0    0  501 -0.00000000000E+00 -0.00000000000E+00 -0.16386864097E+03  0.16386864097E+03  0.00000000000E+00 0.  1.
    9000005    1    1    2  502    0  0.23237625978E+02 -0.17210117733E+03  0.31790847894E+03  0.53965229869E+03  0.40000000000E+03 0.  1.
   -9000005    1    1    2    0  501 -0.23237625978E+02  0.17210117733E+03  0.84403407900E+03  0.95002754119E+03  0.40000000000E+03 0. -1.
<mgrwt>
<rscale>  2 0.43607202E+03</rscale>
<asrwt>0</asrwt>
<pdfrwt beam="1">  1        2 0.20397095E+00 0.43607202E+03</pdfrwt>
<pdfrwt beam="2">  1       -2 0.25210561E-01 0.43607202E+03</pdfrwt>
<totfact> 0.23436776E+02</totfact>
</mgrwt>
</event>
<event>
 4    1  0.2358610E-002  0.4018296E+03  0.7818608E-02  0.1043148E+00
         -2   -1    0    0    0  501 -0.00000000000E+00  0.00000000000E+00  0.76194890903E+03  0.76194890903E+03  0.00000000000E+00 0.  1.
          2   -1    0    0  502    0  0.00000000000E+00 -0.00000000000E+00 -0.52688173861E+03  0.52688173861E+03  0.00000000000E+00 0. -1.
    9000005    1    1    2  502    0 -0.11828210120E+02 -0.36429234075E+02 -0.38071136539E+03  0.55354145227E+03  0.40000000000E+03 0. -1.
   -9000005    1    1    2    0  501  0.11828210120E+02  0.36429234075E+02  0.61577853581E+03  0.73528919536E+03  0.40000000000E+03 0.  1.
<mgrwt>
<rscale>  2 0.40182956E+03</rscale>
<asrwt>0</asrwt>
<pdfrwt beam="1">  1        2 0.81058729E-01 0.40182956E+03</pdfrwt>
<pdfrwt beam="2">  1       -2 0.11722291E+00 0.40182956E+03</pdfrwt>
<totfact> 0.34177950E+01</totfact>
</mgrwt>
</event>
<event>
 4    1  0.2358610E-002  0.4485142E+03  0.7818608E-02  0.1028166E+00
          1   -1    0    0  502    0  0.00000000000E+00  0.00000000000E+00  0.82695022836E+03  0.82695022836E+03  0.00000000000E+00 0.  1.
         -1   -1    0    0    0  501 -0.00000000000E+00 -0.00000000000E+00 -0.33021043078E+03  0.33021043078E+03  0.00000000000E+00 0. -1.
    9000005    1    1    2  502    0 -0.18750510987E+03 -0.77503545604E+02 -0.48523785282E+02  0.45113138169E+03  0.40000000000E+03 0. -1.
   -9000005    1    1    2    0  501  0.18750510987E+03  0.77503545604E+02  0.54526358286E+03  0.70602927744E+03  0.40000000000E+03 0.  1.
<mgrwt>
<rscale>  2 0.44851418E+03</rscale>
<asrwt>0</asrwt>
<pdfrwt beam="1">  1        1 0.12722311E+00 0.44851418E+03</pdfrwt>
<pdfrwt beam="2">  1       -1 0.50801605E-01 0.44851418E+03</pdfrwt>
<totfact> 0.85835519E+01</totfact>
</mgrwt>
</event>
<event>
 4    1  0.2358610E-002  0.4192422E+03  0.7818608E-02  0.1037313E+00
         -2   -1    0    0    0  501 -0.00000000000E+00  0.00000000000E+00  0.17255864147E+03  0.17255864147E+03  0.00000000000E+00 0.  1.
          2   -1    0    0  502    0  0.00000000000E+00 -0.00000000000E+00 -0.10412474092E+04  0.10412474092E+04  0.00000000000E+00 0. -1.
    9000005    1    1    2  502    0  0.89851790000E+01 -0.12523280503E+03 -0.52389884986E+03  0.67099477925E+03  0.40000000000E+03 0. -1.
   -9000005    1    1    2    0  501 -0.89851790000E+01  0.12523280503E+03 -0.34478991784E+03  0.54281127139E+03  0.40000000000E+03 0.  1.
<mgrwt>
<rscale>  2 0.41924216E+03</rscale>
<asrwt>0</asrwt>
<pdfrwt beam="1">  1        2 0.16019191E+00 0.41924216E+03</pdfrwt>
<pdfrwt beam="2">  1       -2 0.26547483E-01 0.41924216E+03</pdfrwt>
<totfact> 0.31383951E+02</totfact>
</mgrwt>
</event>
<event>
 4    1  0.2358610E-002  0.6930818E+03  0.7818608E-02  0.9729137E-01
          2   -1    0    0  502    0  0.00000000000E+00  0.00000000000E+00  0.12151938929E+04  0.12151938929E+04  0.00000000000E+00 0. -1.
         -2   -1    0    0    0  501 -0.00000000000E+00 -0.00000000000E+00 -0.42485629774E+03  0.42485629774E+03  0.00000000000E+00 0.  1.
    9000005    1    1    2  502    0 -0.91000684995E+01 -0.56593243501E+03  0.17886996024E+03  0.71579102741E+03  0.40000000000E+03 0.  1.
   -9000005    1    1    2    0  501  0.91000684995E+01  0.56593243501E+03  0.61146763490E+03  0.92425916320E+03  0.40000000000E+03 0. -1.
<mgrwt>
<rscale>  2 0.69308176E+03</rscale>
<asrwt>0</asrwt>
<pdfrwt beam="1">  1        2 0.18695291E+00 0.69308176E+03</pdfrwt>
<pdfrwt beam="2">  1       -2 0.65362508E-01 0.69308176E+03</pdfrwt>
<totfact> 0.40987402E+01</totfact>
</mgrwt>
</event>
<event>
 4    1  0.2358610E-002  0.4653525E+03  0.7818608E-02  0.1023240E+00
         -2   -1    0    0    0  501 -0.00000000000E+00  0.00000000000E+00  0.20241669038E+03  0.20241669038E+03  0.00000000000E+00 0. -1.
          2   -1    0    0  502    0  0.00000000000E+00 -0.00000000000E+00 -0.25905390986E+04  0.25905390986E+04  0.00000000000E+00 0.  1.
    9000005    1    1    2  502    0 -0.55264935959E+02 -0.23129790062E+03 -0.22640051235E+04  0.23113355731E+04  0.40000000000E+03 0.  1.
   -9000005    1    1    2    0  501  0.55264935959E+02  0.23129790062E+03 -0.12411728464E+03  0.48162021586E+03  0.40000000000E+03 0. -1.
<mgrwt>
<rscale>  2 0.46535248E+03</rscale>
<asrwt>0</asrwt>
<pdfrwt beam="1">  1        2 0.39854446E+00 0.46535248E+03</pdfrwt>
<pdfrwt beam="2">  1       -2 0.31141031E-01 0.46535248E+03</pdfrwt>
<totfact> 0.32478748E+01</totfact>
</mgrwt>
</event>
<event>
 4    1  0.2358610E-002  0.5732467E+03  0.7818608E-02  0.9962520E-01
          2   -1    0    0  502    0  0.00000000000E+00  0.00000000000E+00  0.29415032282E+04  0.29415032282E+04  0.00000000000E+00 0.  1.
         -2   -1    0    0    0  501 -0.00000000000E+00 -0.00000000000E+00 -0.12251676704E+03  0.12251676704E+03  0.00000000000E+00 0. -1.
    9000005    1    1    2  502    0  0.31988781261E+03  0.25745605538E+03  0.95461103680E+03  0.11135053052E+04  0.40000000000E+03 0. -1.
   -9000005    1    1    2    0  501 -0.31988781261E+03 -0.25745605538E+03  0.18643754243E+04  0.19505146900E+04  0.40000000000E+03 0.  1.
<mgrwt>
<rscale>  2 0.57324675E+03</rscale>
<asrwt>0</asrwt>
<pdfrwt beam="1">  1        2 0.45253890E+00 0.57324675E+03</pdfrwt>
<pdfrwt beam="2">  1       -2 0.18848736E-01 0.57324675E+03</pdfrwt>
<totfact> 0.48644115E+01</totfact>
</mgrwt>
</event>
<event>
 4    1  0.2358610E-002  0.6924820E+03  0.7818608E-02  0.9730176E-01
          1   -1    0    0  502    0  0.00000000000E+00  0.00000000000E+00  0.51316990661E+03  0.51316990661E+03  0.00000000000E+00 0.  1.
         -1   -1    0    0    0  501 -0.00000000000E+00 -0.00000000000E+00 -0.98606693066E+03  0.98606693066E+03  0.00000000000E+00 0. -1.
    9000005    1    1    2  502    0 -0.54931095529E+03 -0.13337465575E+03 -0.64940048239E+02  0.69552033346E+03  0.40000000000E+03 0. -1.
   -9000005    1    1    2    0  501  0.54931095529E+03  0.13337465575E+03 -0.40795697581E+03  0.80371650382E+03  0.40000000000E+03 0.  1.
<mgrwt>
<rscale>  2 0.69248200E+03</rscale>
<asrwt>0</asrwt>
<pdfrwt beam="1">  1        1 0.78949218E-01 0.69248200E+03</pdfrwt>
<pdfrwt beam="2">  1       -1 0.15170260E+00 0.69248200E+03</pdfrwt>
<totfact> 0.14973048E+01</totfact>
</mgrwt>
</event>
<event>
 4    1  0.2358610E-002  0.4034727E+03  0.7818608E-02  0.1042584E+00
          2   -1    0    0  502    0  0.00000000000E+00  0.00000000000E+00  0.67046010672E+03  0.67046010672E+03  0.00000000000E+00 0.  1.
         -2   -1    0    0    0  501 -0.00000000000E+00 -0.00000000000E+00 -0.24604114297E+03  0.24604114297E+03  0.00000000000E+00 0. -1.
    9000005    1    1    2  502    0  0.50576356646E+02  0.15239637798E+02  0.15964428674E+03  0.43390841511E+03  0.40000000000E+03 0. -1.
   -9000005    1    1    2    0  501 -0.50576356646E+02 -0.15239637798E+02  0.26477467701E+03  0.48259283459E+03  0.40000000000E+03 0.  1.
<mgrwt>
<rscale>  2 0.40347269E+03</rscale>
<asrwt>0</asrwt>
<pdfrwt beam="1">  1        2 0.10314771E+00 0.40347269E+03</pdfrwt>
<pdfrwt beam="2">  1       -2 0.37852484E-01 0.40347269E+03</pdfrwt>
<totfact> 0.29217319E+02</totfact>
</mgrwt>
</event>
<event>
 4    1  0.2358610E-002  0.4731072E+03  0.7818608E-02  0.1021047E+00
          2   -1    0    0  502    0  0.00000000000E+00  0.00000000000E+00  0.35134800098E+04  0.35134800098E+04  0.00000000000E+00 0. -1.
         -2   -1    0    0    0  501 -0.00000000000E+00 -0.00000000000E+00 -0.10868815382E+03  0.10868815382E+03  0.00000000000E+00 0.  1.
    9000005    1    1    2  502    0 -0.25145969409E+03 -0.24463097795E+02  0.28675053630E+04  0.29062720843E+04  0.40000000000E+03 0. -1.
   -9000005    1    1    2    0  501  0.25145969409E+03  0.24463097795E+02  0.53728649297E+03  0.71589607935E+03  0.40000000000E+03 0.  1.
<mgrwt>
<rscale>  2 0.47310720E+03</rscale>
<asrwt>0</asrwt>
<pdfrwt beam="1">  1        2 0.54053530E+00 0.47310720E+03</pdfrwt>
<pdfrwt beam="2">  1       -2 0.16721257E-01 0.47310720E+03</pdfrwt>
<totfact> 0.26477475E+01</totfact>
</mgrwt>
</event>
<event>
 4    1  0.2358610E-002  0.4502293E+03  0.7818608E-02  0.1027654E+00
         -2   -1    0    0    0  501 -0.00000000000E+00  0.00000000000E+00  0.56153227039E+03  0.56153227039E+03  0.00000000000E+00 0.  1.
          2   -1    0    0  502    0  0.00000000000E+00 -0.00000000000E+00 -0.16200049960E+04  0.16200049960E+04  0.00000000000E+00 0. -1.
    9000005    1    1    2  502    0  0.89019801628E+02  0.18649905352E+03  0.43235434245E+03  0.62420885886E+03  0.40000000000E+03 0.  1.
   -9000005    1    1    2    0  501 -0.89019801628E+02 -0.18649905352E+03 -0.14908270681E+04  0.15573284076E+04  0.40000000000E+03 0. -1.
<mgrwt>
<rscale>  2 0.45022930E+03</rscale>
<asrwt>0</asrwt>
<pdfrwt beam="1">  1        2 0.24923154E+00 0.45022930E+03</pdfrwt>
<pdfrwt beam="2">  1       -2 0.86389580E-01 0.45022930E+03</pdfrwt>
<totfact> 0.13648558E+01</totfact>
</mgrwt>
</event>
<event>
 4    1  0.2358610E-002  0.4012732E+03  0.7818608E-02  0.1043340E+00
         -2   -1    0    0    0  501 -0.00000000000E+00  0.00000000000E+00  0.54579961004E+02  0.54579961004E+02  0.00000000000E+00 0. -1.
          2   -1    0    0  502    0  0.00000000000E+00 -0.00000000000E+00 -0.29662827128E+04  0.29662827128E+04  0.00000000000E+00 0.  1.
    9000005    1    1    2  502    0  0.25232747787E+02  0.19582269875E+02 -0.13445294518E+04  0.14031320692E+04  0.40000000000E+03 0. -1.
   -9000005    1    1    2    0  501 -0.25232747787E+02 -0.19582269875E+02 -0.15671733000E+04  0.16177306046E+04  0.40000000000E+03 0.  1.
<mgrwt>
<rscale>  2 0.40127317E+03</rscale>
<asrwt>0</asrwt>
<pdfrwt beam="1">  1        2 0.45635114E+00 0.40127317E+03</pdfrwt>
<pdfrwt beam="2">  1       -2 0.83969180E-02 0.40127317E+03</pdfrwt>
<totfact> 0.18505287E+02</totfact>
</mgrwt>
</event>
<event>
 4    1  0.2358610E-002  0.4304196E+03  0.7818608E-02  0.1033727E+00
         -1   -1    0    0    0  501 -0.00000000000E+00  0.00000000000E+00  0.15327800800E+03  0.15327800800E+03  0.00000000000E+00 0.  1.
          1   -1    0    0  502    0  0.00000000000E+00 -0.00000000000E+00 -0.13650908485E+04  0.13650908485E+04  0.00000000000E+00 0. -1.
    9000005    1    1    2  502    0  0.67743842632E+01 -0.15879281341E+03 -0.34890990355E+03  0.55407505870E+03  0.40000000000E+03 0.  1.
   -9000005    1    1    2    0  501 -0.67743842632E+01  0.15879281341E+03 -0.86290293691E+03  0.96429379776E+03  0.40000000000E+03 0. -1.
<mgrwt>
<rscale>  2 0.43041962E+03</rscale>
<asrwt>0</asrwt>
<pdfrwt beam="1">  1        1 0.21001397E+00 0.43041962E+03</pdfrwt>
<pdfrwt beam="2">  1       -1 0.23581233E-01 0.43041962E+03</pdfrwt>
<totfact> 0.13277166E+02</totfact>
</mgrwt>
</event>
<event>
 4    1  0.2358610E-002  0.4700080E+03  0.7818608E-02  0.1021918E+00
          2   -1    0    0  502    0  0.00000000000E+00  0.00000000000E+00  0.78906910380E+03  0.78906910380E+03  0.00000000000E+00 0.  1.
         -2   -1    0    0    0  501 -0.00000000000E+00 -0.00000000000E+00 -0.34635188385E+03  0.34635188385E+03  0.00000000000E+00 0. -1.
    9000005    1    1    2  502    0 -0.20966397393E+03  0.13018651757E+03  0.46991605758E+03  0.66462667152E+03  0.40000000000E+03 0.  1.
   -9000005    1    1    2    0  501  0.20966397393E+03 -0.13018651757E+03 -0.27198837634E+02  0.47079431612E+03  0.40000000000E+03 0. -1.
<mgrwt>
<rscale>  2 0.47000799E+03</rscale>
<asrwt>0</asrwt>
<pdfrwt beam="1">  1        2 0.12139525E+00 0.47000799E+03</pdfrwt>
<pdfrwt beam="2">  1       -2 0.53284906E-01 0.47000799E+03</pdfrwt>
<totfact> 0.12041366E+02</totfact>
</mgrwt>
</event>
<event>
 4    1  0.2358610E-002  0.4263143E+03  0.7818608E-02  0.1035031E+00
          2   -1    0    0  502    0  0.00000000000E+00  0.00000000000E+00  0.10924209317E+04  0.10924209317E+04  0.00000000000E+00 0. -1.
         -2   -1    0    0    0  501 -0.00000000000E+00 -0.00000000000E+00 -0.17805094611E+03  0.17805094611E+03  0.00000000000E+00 0.  1.
    9000005    1    1    2  502    0 -0.14428808602E+03  0.30411440746E+02  0.29446581870E+03  0.51812549241E+03  0.40000000000E+03 0. -1.
   -9000005    1    1    2    0  501  0.14428808602E+03 -0.30411440746E+02  0.61990416686E+03  0.75234638538E+03  0.40000000000E+03 0.  1.
<mgrwt>
<rscale>  2 0.42631433E+03</rscale>
<asrwt>0</asrwt>
<pdfrwt beam="1">  1        2 0.16806475E+00 0.42631433E+03</pdfrwt>
<pdfrwt beam="2">  1       -2 0.27392454E-01 0.42631433E+03</pdfrwt>
<totfact> 0.27590357E+02</totfact>
</mgrwt>
</event>
<event>
 4    1  0.2358610E-002  0.4520138E+03  0.7818608E-02  0.1027123E+00
         -2   -1    0    0    0  501 -0.00000000000E+00  0.00000000000E+00  0.70851079105E+03  0.70851079105E+03  0.00000000000E+00 0. -1.
          2   -1    0    0  502    0  0.00000000000E+00 -0.00000000000E+00 -0.36636924329E+03  0.36636924329E+03  0.00000000000E+00 0.  1.
    9000005    1    1    2  502    0 -0.19182435850E+03 -0.86717454011E+02  0.41904294365E+03  0.61637122740E+03  0.40000000000E+03 0. -1.
   -9000005    1    1    2    0  501  0.19182435850E+03  0.86717454011E+02 -0.76901395888E+02  0.45850880693E+03  0.40000000000E+03 0.  1.
<mgrwt>
<rscale>  2 0.45201383E+03</rscale>
<asrwt>0</asrwt>
<pdfrwt beam="1">  1        2 0.56364499E-01 0.45201383E+03</pdfrwt>
<pdfrwt beam="2">  1       -2 0.10900166E+00 0.45201383E+03</pdfrwt>
<totfact> 0.60894351E+01</totfact>
</mgrwt>
</event>
<event>
 4    1  0.2358610E-002  0.4069832E+03  0.7818608E-02  0.1041388E+00
          2   -1    0    0  502    0  0.00000000000E+00  0.00000000000E+00  0.95792465269E+03  0.95792465269E+03  0.00000000000E+00 0. -1.
         -2   -1    0    0    0  501 -0.00000000000E+00 -0.00000000000E+00 -0.17610820062E+03  0.17610820062E+03  0.00000000000E+00 0.  1.
    9000005    1    1    2  502    0  0.37983912537E+02  0.64750141733E+02  0.46731215485E+03  0.61969025209E+03  0.40000000000E+03 0.  1.
   -9000005    1    1    2    0  501 -0.37983912537E+02 -0.64750141733E+02  0.31450429722E+03  0.51434260122E+03  0.40000000000E+03 0.  1.
<mgrwt>
<rscale>  2 0.40698324E+03</rscale>
<asrwt>0</asrwt>
<pdfrwt beam="1">  1        2 0.14737302E+00 0.40698324E+03</pdfrwt>
<pdfrwt beam="2">  1       -2 0.27093570E-01 0.40698324E+03</pdfrwt>
<totfact> 0.34142176E+02</totfact>
</mgrwt>
</event>
<event>
 4    1  0.2358610E-002  0.4014280E+03  0.7818608E-02  0.1043286E+00
          1   -1    0    0  502    0  0.00000000000E+00  0.00000000000E+00  0.25869689690E+04  0.25869689690E+04  0.00000000000E+00 0.  1.
         -1   -1    0    0    0  501 -0.00000000000E+00 -0.00000000000E+00 -0.76734075866E+02  0.76734075866E+02  0.00000000000E+00 0. -1.
    9000005    1    1    2  502    0  0.12769274224E+02  0.31327342606E+02  0.18329393592E+04  0.18763824640E+04  0.40000000000E+03 0.  1.
   -9000005    1    1    2    0  501 -0.12769274224E+02 -0.31327342606E+02  0.67729553401E+03  0.78732058093E+03  0.40000000000E+03 0. -1.
<mgrwt>
<rscale>  2 0.40142802E+03</rscale>
<asrwt>0</asrwt>
<pdfrwt beam="1">  1        1 0.39799516E+00 0.40142802E+03</pdfrwt>
<pdfrwt beam="2">  1       -1 0.11805244E-01 0.40142802E+03</pdfrwt>
<totfact> 0.63115496E+01</totfact>
</mgrwt>
</event>
<event>
 4    1  0.2358610E-002  0.4823943E+03  0.7818608E-02  0.1018479E+00
          1   -1    0    0  502    0  0.00000000000E+00  0.00000000000E+00  0.13021277298E+04  0.13021277298E+04  0.00000000000E+00 0.  1.
         -1   -1    0    0    0  501 -0.00000000000E+00 -0.00000000000E+00 -0.26117430210E+03  0.26117430210E+03  0.00000000000E+00 0. -1.
    9000005    1    1    2  502    0 -0.17561832257E+03 -0.20460321571E+03  0.81260263890E+02  0.48919065975E+03  0.40000000000E+03 0. -1.
   -9000005    1    1    2    0  501  0.17561832257E+03  0.20460321571E+03  0.95969316381E+03  0.10741113721E+04  0.40000000000E+03 0.  1.
<mgrwt>
<rscale>  2 0.48239431E+03</rscale>
<asrwt>0</asrwt>
<pdfrwt beam="1">  1        1 0.20032734E+00 0.48239431E+03</pdfrwt>
<pdfrwt beam="2">  1       -1 0.40180663E-01 0.48239431E+03</pdfrwt>
<totfact> 0.57766328E+01</totfact>
</mgrwt>
</event>
<event>
 4    1  0.2358610E-002  0.5037231E+03  0.7818608E-02  0.1012812E+00
          1   -1    0    0  502    0  0.00000000000E+00  0.00000000000E+00  0.14668208819E+04  0.14668208819E+04  0.00000000000E+00 0. -1.
         -1   -1    0    0    0  501 -0.00000000000E+00 -0.00000000000E+00 -0.17347619179E+03  0.17347619179E+03  0.00000000000E+00 0.  1.
    9000005    1    1    2  502    0 -0.17034678855E+03 -0.25439920683E+03  0.60299995449E+03  0.78571364371E+03  0.40000000000E+03 0.  1.
   -9000005    1    1    2    0  501  0.17034678855E+03  0.25439920683E+03  0.69034473564E+03  0.85458343000E+03  0.40000000000E+03 0. -1.
<mgrwt>
<rscale>  2 0.50372312E+03</rscale>
<asrwt>0</asrwt>
<pdfrwt beam="1">  1        1 0.22566474E+00 0.50372312E+03</pdfrwt>
<pdfrwt beam="2">  1       -1 0.26688646E-01 0.50372312E+03</pdfrwt>
<totfact> 0.90828903E+01</totfact>
</mgrwt>
</event>
<event>
 4    1  0.2358610E-002  0.4486303E+03  0.7818608E-02  0.1028131E+00
         -1   -1    0    0    0  501 -0.00000000000E+00  0.00000000000E+00  0.58876428584E+03  0.58876428584E+03  0.00000000000E+00 0. -1.
          1   -1    0    0  502    0  0.00000000000E+00 -0.00000000000E+00 -0.47136622806E+03  0.47136622806E+03  0.00000000000E+00 0.  1.
    9000005    1    1    2  502    0  0.59484511022E+02  0.19424406110E+03  0.33655001462E+03  0.56083426666E+03  0.40000000000E+03 0. -1.
   -9000005    1    1    2    0  501 -0.59484511022E+02 -0.19424406110E+03 -0.21915195683E+03  0.49929624724E+03  0.40000000000E+03 0.  1.
<mgrwt>
<rscale>  2 0.44863032E+03</rscale>
<asrwt>0</asrwt>
<pdfrwt beam="1">  1        1 0.72517881E-01 0.44863032E+03</pdfrwt>
<pdfrwt beam="2">  1       -1 0.90579121E-01 0.44863032E+03</pdfrwt>
<totfact> 0.60223796E+01</totfact>
</mgrwt>
</event>
<event>
 4    1  0.2358610E-002  0.5594875E+03  0.7818608E-02  0.9993215E-01
         -2   -1    0    0    0  501 -0.00000000000E+00  0.00000000000E+00  0.17113503063E+03  0.17113503063E+03  0.00000000000E+00 0. -1.
          2   -1    0    0  502    0  0.00000000000E+00 -0.00000000000E+00 -0.19388723966E+04  0.19388723966E+04  0.00000000000E+00 0.  1.
    9000005    1    1    2  502    0  0.29445230621E+03  0.25753475591E+03 -0.11348773096E+04  0.12652955461E+04  0.40000000000E+03 0. -1.
   -9000005    1    1    2    0  501 -0.29445230621E+03 -0.25753475591E+03 -0.63286005630E+03  0.84471188105E+03  0.40000000000E+03 0. -1.
<mgrwt>
<rscale>  2 0.55948754E+03</rscale>
<asrwt>0</asrwt>
<pdfrwt beam="1">  1        2 0.29828805E+00 0.55948754E+03</pdfrwt>
<pdfrwt beam="2">  1       -2 0.26328467E-01 0.55948754E+03</pdfrwt>
<totfact> 0.98872542E+01</totfact>
</mgrwt>
</event>
<event>
 4    1  0.2358610E-002  0.4514347E+03  0.7818608E-02  0.1027295E+00
         -2   -1    0    0    0  501 -0.00000000000E+00  0.00000000000E+00  0.22181038356E+03  0.22181038356E+03  0.00000000000E+00 0.  1.
          2   -1    0    0  502    0  0.00000000000E+00 -0.00000000000E+00 -0.92929204805E+03  0.92929204805E+03  0.00000000000E+00 0. -1.
    9000005    1    1    2  502    0 -0.13924170875E+02 -0.20880468217E+03 -0.29250485306E+03  0.53791483238E+03  0.40000000000E+03 0. -1.
   -9000005    1    1    2    0  501  0.13924170875E+02  0.20880468217E+03 -0.41497681143E+03  0.61318759924E+03  0.40000000000E+03 0. -1.
<mgrwt>
<rscale>  2 0.45143469E+03</rscale>
<asrwt>0</asrwt>
<pdfrwt beam="1">  1        2 0.14296800E+00 0.45143469E+03</pdfrwt>
<pdfrwt beam="2">  1       -2 0.34124675E-01 0.45143469E+03</pdfrwt>
<totfact> 0.23197075E+02</totfact>
</mgrwt>
</event>
<event>
 4    1  0.2358610E-002  0.4408644E+03  0.7818608E-02  0.1030482E+00
         -1   -1    0    0    0  501 -0.00000000000E+00  0.00000000000E+00  0.14124528078E+04  0.14124528078E+04  0.00000000000E+00 0.  1.
          1   -1    0    0  502    0  0.00000000000E+00 -0.00000000000E+00 -0.15593110517E+03  0.15593110517E+03  0.00000000000E+00 0. -1.
    9000005    1    1    2  502    0  0.56350634213E+02 -0.17659556929E+03  0.35942684184E+03  0.56881371617E+03  0.40000000000E+03 0. -1.
   -9000005    1    1    2    0  501 -0.56350634213E+02  0.17659556929E+03  0.89709486081E+03  0.99957019682E+03  0.40000000000E+03 0. -1.
<mgrwt>
<rscale>  2 0.44086437E+03</rscale>
<asrwt>0</asrwt>
<pdfrwt beam="1">  1        1 0.23989402E-01 0.44086437E+03</pdfrwt>
<pdfrwt beam="2">  1       -1 0.21730042E+00 0.44086437E+03</pdfrwt>
<totfact> 0.25216521E+01</totfact>
</mgrwt>
</event>
<event>
 4    1  0.2358610E-002  0.4084730E+03  0.7818608E-02  0.1040885E+00
         -1   -1    0    0    0  501 -0.00000000000E+00  0.00000000000E+00  0.11042726084E+03  0.11042726084E+03  0.00000000000E+00 0.  1.
          1   -1    0    0  502    0  0.00000000000E+00 -0.00000000000E+00 -0.15213667280E+04  0.15213667280E+04  0.00000000000E+00 0. -1.
    9000005    1    1    2  502    0 -0.14805172884E+00 -0.82765869552E+02 -0.63796140446E+03  0.75752555381E+03  0.40000000000E+03 0.  1.
   -9000005    1    1    2    0  501  0.14805172884E+00  0.82765869552E+02 -0.77297806265E+03  0.87426843499E+03  0.40000000000E+03 0. -1.
<mgrwt>
<rscale>  2 0.40847302E+03</rscale>
<asrwt>0</asrwt>
<pdfrwt beam="1">  1        1 0.23405641E+00 0.40847302E+03</pdfrwt>
<pdfrwt beam="2">  1       -1 0.16988810E-01 0.40847302E+03</pdfrwt>
<totfact> 0.17913201E+02</totfact>
</mgrwt>
</event>
<event>
 4    1  0.2358610E-002  0.4816639E+03  0.7818608E-02  0.1018679E+00
         -4   -1    0    0    0  501 -0.00000000000E+00  0.00000000000E+00  0.86640295842E+03  0.86640295842E+03  0.00000000000E+00 0. -1.
          4   -1    0    0  502    0  0.00000000000E+00 -0.00000000000E+00 -0.27173064647E+03  0.27173064647E+03  0.00000000000E+00 0.  1.
    9000005    1    1    2  502    0 -0.71792462949E+01  0.26823235374E+03  0.22866716859E+03  0.53318740717E+03  0.40000000000E+03 0.  1.
   -9000005    1    1    2    0  501  0.71792462949E+01 -0.26823235374E+03  0.36600514336E+03  0.60494619772E+03  0.40000000000E+03 0. -1.
<mgrwt>
<rscale>  2 0.48166393E+03</rscale>
<asrwt>0</asrwt>
<pdfrwt beam="1">  1        4 0.41804715E-01 0.48166393E+03</pdfrwt>
<pdfrwt beam="2">  1       -4 0.13329276E+00 0.48166393E+03</pdfrwt>
<totfact> 0.44185543E+00</totfact>
</mgrwt>
</event>
<event>
 4    1  0.2358610E-002  0.5051439E+03  0.7818608E-02  0.1012445E+00
          1   -1    0    0  502    0  0.00000000000E+00  0.00000000000E+00  0.16058539697E+03  0.16058539697E+03  0.00000000000E+00 0. -1.
         -1   -1    0    0    0  501 -0.00000000000E+00 -0.00000000000E+00 -0.16028421731E+04  0.16028421731E+04  0.00000000000E+00 0.  1.
    9000005    1    1    2  502    0  0.28060091610E+03 -0.12819325923E+03 -0.80306270211E+03  0.94872550790E+03  0.40000000000E+03 0.  1.
   -9000005    1    1    2    0  501 -0.28060091610E+03  0.12819325923E+03 -0.63919407405E+03  0.81470206218E+03  0.40000000000E+03 0.  1.
<mgrwt>
<rscale>  2 0.50514393E+03</rscale>
<asrwt>0</asrwt>
<pdfrwt beam="1">  1        1 0.24705445E-01 0.50514393E+03</pdfrwt>
<pdfrwt beam="2">  1       -1 0.24659111E+00 0.50514393E+03</pdfrwt>
<totfact> 0.15512275E+01</totfact>
</mgrwt>
</event>
<event>
 4    1  0.2358610E-002  0.4215191E+03  0.7818608E-02  0.1036573E+00
          1   -1    0    0  502    0  0.00000000000E+00  0.00000000000E+00  0.78842123338E+03  0.78842123338E+03  0.00000000000E+00 0. -1.
         -1   -1    0    0    0  501 -0.00000000000E+00 -0.00000000000E+00 -0.24097709309E+03  0.24097709309E+03  0.00000000000E+00 0.  1.
    9000005    1    1    2  502    0 -0.10993348658E+03  0.74786155427E+02  0.40475197293E+03  0.58438215245E+03  0.40000000000E+03 0.  1.
   -9000005    1    1    2    0  501  0.10993348658E+03 -0.74786155427E+02  0.14269216735E+03  0.44501617402E+03  0.40000000000E+03 0.  1.
<mgrwt>
<rscale>  2 0.42151909E+03</rscale>
<asrwt>0</asrwt>
<pdfrwt beam="1">  1        1 0.12129557E+00 0.42151909E+03</pdfrwt>
<pdfrwt beam="2">  1       -1 0.37073399E-01 0.42151909E+03</pdfrwt>
<totfact> 0.16506267E+02</totfact>
</mgrwt>
</event>
<event>
 4    1  0.2358610E-002  0.4357821E+03  0.7818608E-02  0.1032049E+00
         -2   -1    0    0    0  501 -0.00000000000E+00  0.00000000000E+00  0.21610164860E+03  0.21610164860E+03  0.00000000000E+00 0. -1.
          2   -1    0    0  502    0  0.00000000000E+00 -0.00000000000E+00 -0.24057821659E+04  0.24057821659E+04  0.00000000000E+00 0.  1.
    9000005    1    1    2  502    0 -0.16653929856E+03 -0.46590836524E+02 -0.21392597465E+04  0.21831945189E+04  0.40000000000E+03 0.  1.
   -9000005    1    1    2    0  501  0.16653929856E+03  0.46590836524E+02 -0.50420770807E+02  0.43868929568E+03  0.40000000000E+03 0. -1.
<mgrwt>
<rscale>  2 0.43578211E+03</rscale>
<asrwt>0</asrwt>
<pdfrwt beam="1">  1        2 0.37012032E+00 0.43578211E+03</pdfrwt>
<pdfrwt beam="2">  1       -2 0.33246408E-01 0.43578211E+03</pdfrwt>
<totfact> 0.36717676E+01</totfact>
</mgrwt>
</event>
<event>
 4    1  0.2358610E-002  0.1475165E+04  0.7818608E-02  0.8901138E-01
         -1   -1    0    0    0  501 -0.00000000000E+00  0.00000000000E+00  0.18234828041E+04  0.18234828041E+04  0.00000000000E+00 0.  1.
          1   -1    0    0  502    0  0.00000000000E+00 -0.00000000000E+00 -0.21552480446E+04  0.21552480446E+04  0.00000000000E+00 0. -1.
    9000005    1    1    2  502    0  0.13615850196E+04  0.40273996834E+03 -0.14948766288E+04  0.21001831785E+04  0.40000000000E+03 0. -1.
   -9000005    1    1    2    0  501 -0.13615850196E+04 -0.40273996834E+03  0.11631113883E+04  0.18785476702E+04  0.40000000000E+03 0.  1.
<mgrwt>
<rscale>  2 0.14751655E+04</rscale>
<asrwt>0</asrwt>
<pdfrwt beam="1">  1        1 0.33157662E+00 0.14751655E+04</pdfrwt>
<pdfrwt beam="2">  1       -1 0.28053582E+00 0.14751655E+04</pdfrwt>
<totfact> 0.97629092E-02</totfact>
</mgrwt>
</event>
<event>
 4    1  0.2358610E-002  0.4430971E+03  0.7818608E-02  0.1029801E+00
          1   -1    0    0  502    0  0.00000000000E+00  0.00000000000E+00  0.92486491965E+03  0.92486491965E+03  0.00000000000E+00 0. -1.
         -1   -1    0    0    0  501 -0.00000000000E+00 -0.00000000000E+00 -0.21247505630E+03  0.21247505630E+03  0.00000000000E+00 0.  1.
    9000005    1    1    2  502    0 -0.13938310185E+03 -0.13002829597E+03  0.33918993356E+03  0.55801865369E+03  0.40000000000E+03 0.  1.
   -9000005    1    1    2    0  501  0.13938310185E+03  0.13002829597E+03  0.37319992979E+03  0.57932132227E+03  0.40000000000E+03 0. -1.
<mgrwt>
<rscale>  2 0.44309706E+03</rscale>
<asrwt>0</asrwt>
<pdfrwt beam="1">  1        1 0.14228691E+00 0.44309706E+03</pdfrwt>
<pdfrwt beam="2">  1       -1 0.32688471E-01 0.44309706E+03</pdfrwt>
<totfact> 0.15874884E+02</totfact>
</mgrwt>
</event>
<event>
 4    1  0.2358610E-002  0.5125603E+03  0.7818608E-02  0.1010552E+00
         -2   -1    0    0    0  501 -0.00000000000E+00  0.00000000000E+00  0.21540121901E+03  0.21540121901E+03  0.00000000000E+00 0. -1.
          2   -1    0    0  502    0  0.00000000000E+00 -0.00000000000E+00 -0.40049090563E+04  0.40049090563E+04  0.00000000000E+00 0.  1.
    9000005    1    1    2  502    0 -0.55957361640E+02 -0.31557375145E+03 -0.13501015720E+03  0.53004316944E+03  0.40000000000E+03 0. -1.
   -9000005    1    1    2    0  501  0.55957361640E+02  0.31557375145E+03 -0.36544976801E+04  0.36902671059E+04  0.40000000000E+03 0.  1.
<mgrwt>
<rscale>  2 0.51256026E+03</rscale>
<asrwt>0</asrwt>
<pdfrwt beam="1">  1        2 0.61613987E+00 0.51256026E+03</pdfrwt>
<pdfrwt beam="2">  1       -2 0.33138648E-01 0.51256026E+03</pdfrwt>
<totfact> 0.34079288E+00</totfact>
</mgrwt>
</event>
<event>
 4    1  0.2358610E-002  0.4780549E+03  0.7818608E-02  0.1019671E+00
         -1   -1    0    0    0  501 -0.00000000000E+00  0.00000000000E+00  0.20370832397E+03  0.20370832397E+03  0.00000000000E+00 0.  1.
          1   -1    0    0  502    0  0.00000000000E+00 -0.00000000000E+00 -0.11223782372E+04  0.11223782372E+04  0.00000000000E+00 0. -1.
    9000005    1    1    2  502    0 -0.16310868533E+03  0.20477322747E+03 -0.47328937658E+03  0.67271045176E+03  0.40000000000E+03 0. -1.
   -9000005    1    1    2    0  501  0.16310868533E+03 -0.20477322747E+03 -0.44538053664E+03  0.65337610940E+03  0.40000000000E+03 0.  1.
<mgrwt>
<rscale>  2 0.47805493E+03</rscale>
<asrwt>0</asrwt>
<pdfrwt beam="1">  1        1 0.17267357E+00 0.47805493E+03</pdfrwt>
<pdfrwt beam="2">  1       -1 0.31339744E-01 0.47805493E+03</pdfrwt>
<totfact> 0.12053289E+02</totfact>
</mgrwt>
</event>
<event>
 4    1  0.2358610E-002  0.4651936E+03  0.7818608E-02  0.1023286E+00
         -2   -1    0    0    0  501 -0.00000000000E+00  0.00000000000E+00  0.88667164525E+02  0.88667164525E+02  0.00000000000E+00 0. -1.
          2   -1    0    0  502    0  0.00000000000E+00 -0.00000000000E+00 -0.27670553911E+04  0.27670553911E+04  0.00000000000E+00 0.  1.
    9000005    1    1    2  502    0 -0.23735610616E+03  0.81933725524E+01 -0.84878422076E+03  0.96790480209E+03  0.40000000000E+03 0. -1.
   -9000005    1    1    2    0  501  0.23735610616E+03 -0.81933725524E+01 -0.18296040058E+04  0.18878177535E+04  0.40000000000E+03 0.  1.
<mgrwt>
<rscale>  2 0.46519356E+03</rscale>
<asrwt>0</asrwt>
<pdfrwt beam="1">  1        2 0.42570084E+00 0.46519356E+03</pdfrwt>
<pdfrwt beam="2">  1       -2 0.13641102E-01 0.46519356E+03</pdfrwt>
<totfact> 0.10886550E+02</totfact>
</mgrwt>
</event>
<event>
 4    1  0.2358610E-002  0.4238181E+03  0.7818608E-02  0.1035831E+00
          2   -1    0    0  502    0  0.00000000000E+00  0.00000000000E+00  0.18657237340E+04  0.18657237340E+04  0.00000000000E+00 0.  1.
         -2   -1    0    0    0  501 -0.00000000000E+00 -0.00000000000E+00 -0.10005055109E+03  0.10005055109E+03  0.00000000000E+00 0. -1.
    9000005    1    1    2  502    0  0.13301021342E+03 -0.43932751524E+02  0.10737811004E+04  0.11543949303E+04  0.40000000000E+03 0.  1.
   -9000005    1    1    2    0  501 -0.13301021342E+03  0.43932751524E+02  0.69189208246E+03  0.81137935474E+03  0.40000000000E+03 0. -1.
<mgrwt>
<rscale>  2 0.42381813E+03</rscale>
<asrwt>0</asrwt>
<pdfrwt beam="1">  1        2 0.28703439E+00 0.42381813E+03</pdfrwt>
<pdfrwt beam="2">  1       -2 0.15392394E-01 0.42381813E+03</pdfrwt>
<totfact> 0.28068572E+02</totfact>
</mgrwt>
</event>
<event>
 4    1  0.2358610E-002  0.4080661E+03  0.7818608E-02  0.1041022E+00
         -2   -1    0    0    0  501 -0.00000000000E+00  0.00000000000E+00  0.21301158982E+03  0.21301158982E+03  0.00000000000E+00 0.  1.
          2   -1    0    0  502    0  0.00000000000E+00 -0.00000000000E+00 -0.89622124575E+03  0.89622124575E+03  0.00000000000E+00 0. -1.
    9000005    1    1    2  502    0 -0.76097238617E-01 -0.80733867746E+02 -0.53983399968E+03  0.67671168927E+03  0.40000000000E+03 0. -1.
   -9000005    1    1    2    0  501  0.76097238617E-01  0.80733867746E+02 -0.14337565626E+03  0.43252114630E+03  0.40000000000E+03 0.  1.
<mgrwt>
<rscale>  2 0.40806613E+03</rscale>
<asrwt>0</asrwt>
<pdfrwt beam="1">  1        2 0.13788019E+00 0.40806613E+03</pdfrwt>
<pdfrwt beam="2">  1       -2 0.32771014E-01 0.40806613E+03</pdfrwt>
<totfact> 0.26401874E+02</totfact>
</mgrwt>
</event>
<event>
 4    1  0.2358610E-002  0.5617955E+03  0.7818608E-02  0.9988000E-01
         -1   -1    0    0    0  501 -0.00000000000E+00  0.00000000000E+00  0.15385247924E+03  0.15385247924E+03  0.00000000000E+00 0. -1.
          1   -1    0    0  502    0  0.00000000000E+00 -0.00000000000E+00 -0.20514181053E+04  0.20514181053E+04  0.00000000000E+00 0.  1.
    9000005    1    1    2  502    0  0.39017289023E+03  0.58132088047E+02 -0.94634912862E+03  0.11005411838E+04  0.40000000000E+03 0. -1.
   -9000005    1    1    2    0  501 -0.39017289023E+03 -0.58132088047E+02 -0.95121649743E+03  0.11047294008E+04  0.40000000000E+03 0. -1.
<mgrwt>
<rscale>  2 0.56179554E+03</rscale>
<asrwt>0</asrwt>
<pdfrwt beam="1">  1        1 0.31560278E+00 0.56179554E+03</pdfrwt>
<pdfrwt beam="2">  1       -1 0.23669613E-01 0.56179554E+03</pdfrwt>
<totfact> 0.44952578E+01</totfact>
</mgrwt>
</event>
<event>
 4    1  0.2358610E-002  0.4410446E+03  0.7818608E-02  0.1030427E+00
         -2   -1    0    0    0  501 -0.00000000000E+00  0.00000000000E+00  0.40029274918E+03  0.40029274918E+03  0.00000000000E+00 0.  1.
          2   -1    0    0  502    0  0.00000000000E+00 -0.00000000000E+00 -0.49982836460E+03  0.49982836460E+03  0.00000000000E+00 0. -1.
    9000005    1    1    2  502    0 -0.18344553494E+03  0.29463344659E+02 -0.12477522921E+03  0.45835489612E+03  0.40000000000E+03 0.  1.
   -9000005    1    1    2    0  501  0.18344553494E+03 -0.29463344659E+02  0.25239613788E+02  0.44176621767E+03  0.40000000000E+03 0.  1.
<mgrwt>
<rscale>  2 0.44104462E+03</rscale>
<asrwt>0</asrwt>
<pdfrwt beam="1">  1        2 0.76896671E-01 0.44104462E+03</pdfrwt>
<pdfrwt beam="2">  1       -2 0.61583500E-01 0.44104462E+03</pdfrwt>
<totfact> 0.15519498E+02</totfact>
</mgrwt>
</event>
<event>
 4    1  0.2358610E-002  0.5759987E+03  0.7818608E-02  0.9956492E-01
          3   -1    0    0  502    0  0.00000000000E+00  0.00000000000E+00  0.29801419335E+03  0.29801419335E+03  0.00000000000E+00 0. -1.
         -3   -1    0    0    0  501 -0.00000000000E+00 -0.00000000000E+00 -0.13489040334E+04  0.13489040334E+04  0.00000000000E+00 0.  1.
    9000005    1    1    2  502    0  0.32103787400E+03  0.26212435423E+03 -0.18128726531E+03  0.60385392786E+03  0.40000000000E+03 0. -1.
   -9000005    1    1    2    0  501 -0.32103787400E+03 -0.26212435423E+03 -0.86960257473E+03  0.10430642989E+04  0.40000000000E+03 0.  1.
<mgrwt>
<rscale>  2 0.57599869E+03</rscale>
<asrwt>0</asrwt>
<pdfrwt beam="1">  1        3 0.45848337E-01 0.57599869E+03</pdfrwt>
<pdfrwt beam="2">  1       -3 0.20752370E+00 0.57599869E+03</pdfrwt>
<totfact> 0.16439076E+00</totfact>
</mgrwt>
</event>
<event>
 4    1  0.2358610E-002  0.5326476E+03  0.7818608E-02  0.1005592E+00
          1   -1    0    0  502    0  0.00000000000E+00  0.00000000000E+00  0.21890125707E+04  0.21890125707E+04  0.00000000000E+00 0.  1.
         -1   -1    0    0    0  501 -0.00000000000E+00 -0.00000000000E+00 -0.15452040336E+03  0.15452040336E+03  0.00000000000E+00 0. -1.
    9000005    1    1    2  502    0 -0.63763137497E+02 -0.34590134619E+03  0.54674977801E+03  0.76331435120E+03  0.40000000000E+03 0. -1.
   -9000005    1    1    2    0  501  0.63763137497E+02  0.34590134619E+03  0.14877423893E+04  0.15802186228E+04  0.40000000000E+03 0.  1.
<mgrwt>
<rscale>  2 0.53264761E+03</rscale>
<asrwt>0</asrwt>
<pdfrwt beam="1">  1        1 0.33677114E+00 0.53264761E+03</pdfrwt>
<pdfrwt beam="2">  1       -1 0.23772371E-01 0.53264761E+03</pdfrwt>
<totfact> 0.36338092E+01</totfact>
</mgrwt>
</event>
<event>
 4    1  0.2358610E-002  0.6307551E+03  0.7818608E-02  0.9843576E-01
         -2   -1    0    0    0  501 -0.00000000000E+00  0.00000000000E+00  0.23614917738E+03  0.23614917738E+03  0.00000000000E+00 0. -1.
          2   -1    0    0  502    0  0.00000000000E+00 -0.00000000000E+00 -0.23327329478E+04  0.23327329478E+04  0.00000000000E+00 0.  1.
    9000005    1    1    2  502    0 -0.48339339753E+03 -0.64675020108E+02 -0.17252532318E+04  0.18369405948E+04  0.40000000000E+03 0.  1.
   -9000005    1    1    2    0  501  0.48339339753E+03  0.64675020108E+02 -0.37133053863E+03  0.73194153040E+03  0.40000000000E+03 0. -1.
<mgrwt>
<rscale>  2 0.63075513E+03</rscale>
<asrwt>0</asrwt>
<pdfrwt beam="1">  1        2 0.35888197E+00 0.63075513E+03</pdfrwt>
<pdfrwt beam="2">  1       -2 0.36330645E-01 0.63075513E+03</pdfrwt>
<totfact> 0.32769903E+01</totfact>
</mgrwt>
</event>
<event>
 4    1  0.2358610E-002  0.5499060E+03  0.7818608E-02  0.1001516E+00
         -2   -1    0    0    0  501 -0.00000000000E+00  0.00000000000E+00  0.21965781924E+03  0.21965781924E+03  0.00000000000E+00 0.  1.
          2   -1    0    0  502    0  0.00000000000E+00 -0.00000000000E+00 -0.21708979768E+04  0.21708979768E+04  0.00000000000E+00 0. -1.
    9000005    1    1    2  502    0 -0.31070565668E+03  0.21414629385E+03 -0.16985919267E+04  0.17853882417E+04  0.40000000000E+03 0. -1.
   -9000005    1    1    2    0  501  0.31070565668E+03 -0.21414629385E+03 -0.25264823090E+03  0.60516755435E+03  0.40000000000E+03 0.  1.
<mgrwt>
<rscale>  2 0.54990603E+03</rscale>
<asrwt>0</asrwt>
<pdfrwt beam="1">  1        2 0.33398431E+00 0.54990603E+03</pdfrwt>
<pdfrwt beam="2">  1       -2 0.33793510E-01 0.54990603E+03</pdfrwt>
<totfact> 0.46770221E+01</totfact>
</mgrwt>
</event>
<event>
 4    1  0.2358610E-002  0.4567353E+03  0.7818608E-02  0.1025732E+00
         -2   -1    0    0    0  501 -0.00000000000E+00  0.00000000000E+00  0.11449088473E+04  0.11449088473E+04  0.00000000000E+00 0. -1.
          2   -1    0    0  502    0  0.00000000000E+00 -0.00000000000E+00 -0.18326391881E+03  0.18326391881E+03  0.00000000000E+00 0.  1.
    9000005    1    1    2  502    0  0.21698334024E+03  0.39055818951E+02  0.43032209017E+03  0.62752229301E+03  0.40000000000E+03 0. -1.
   -9000005    1    1    2    0  501 -0.21698334024E+03 -0.39055818951E+02  0.53132283833E+03  0.70065047311E+03  0.40000000000E+03 0.  1.
<mgrwt>
<rscale>  2 0.45673529E+03</rscale>
<asrwt>0</asrwt>
<pdfrwt beam="1">  1        2 0.28194450E-01 0.45673529E+03</pdfrwt>
<pdfrwt beam="2">  1       -2 0.17613982E+00 0.45673529E+03</pdfrwt>
<totfact> 0.38184788E+01</totfact>
</mgrwt>
</event>
<event>
 4    1  0.2358610E-002  0.4816754E+03  0.7818608E-02  0.1018676E+00
          1   -1    0    0  502    0  0.00000000000E+00  0.00000000000E+00  0.54181137328E+03  0.54181137328E+03  0.00000000000E+00 0. -1.
         -1   -1    0    0    0  501 -0.00000000000E+00 -0.00000000000E+00 -0.43590787344E+03  0.43590787344E+03  0.00000000000E+00 0.  1.
    9000005    1    1    2  502    0 -0.83076162752E+02 -0.25516577596E+03 -0.11995233650E+02  0.48182476864E+03  0.40000000000E+03 0.  1.
   -9000005    1    1    2    0  501  0.83076162752E+02  0.25516577596E+03  0.11789873349E+03  0.49589447809E+03  0.40000000000E+03 0. -1.
<mgrwt>
<rscale>  2 0.48167543E+03</rscale>
<asrwt>0</asrwt>
<pdfrwt beam="1">  1        1 0.83355596E-01 0.48167543E+03</pdfrwt>
<pdfrwt beam="2">  1       -1 0.67062750E-01 0.48167543E+03</pdfrwt>
<totfact> 0.93025124E+01</totfact>
</mgrwt>
</event>
<event>
 4    1  0.2358610E-002  0.4162029E+03  0.7818608E-02  0.1038309E+00
         -2   -1    0    0    0  501 -0.00000000000E+00  0.00000000000E+00  0.18812342548E+03  0.18812342548E+03  0.00000000000E+00 0. -1.
          2   -1    0    0  502    0  0.00000000000E+00 -0.00000000000E+00 -0.14387545578E+04  0.14387545578E+04  0.00000000000E+00 0.  1.
    9000005    1    1    2  502    0 -0.70927710877E+02 -0.90521172928E+02 -0.13725273213E+03  0.43825008317E+03  0.40000000000E+03 0.  1.
   -9000005    1    1    2    0  501  0.70927710877E+02  0.90521172928E+02 -0.11133784001E+04  0.11886279001E+04  0.40000000000E+03 0.  1.
<mgrwt>
<rscale>  2 0.41620286E+03</rscale>
<asrwt>0</asrwt>
<pdfrwt beam="1">  1        2 0.22134686E+00 0.41620286E+03</pdfrwt>
<pdfrwt beam="2">  1       -2 0.28942064E-01 0.41620286E+03</pdfrwt>
<totfact> 0.15842097E+02</totfact>
</mgrwt>
</event>
<event>
 4    1  0.2358610E-002  0.6314109E+03  0.7818608E-02  0.9842299E-01
         -1   -1    0    0    0  501 -0.00000000000E+00  0.00000000000E+00  0.49719091817E+03  0.49719091817E+03  0.00000000000E+00 0.  1.
          1   -1    0    0  502    0  0.00000000000E+00 -0.00000000000E+00 -0.80594689142E+03  0.80594689142E+03  0.00000000000E+00 0. -1.
    9000005    1    1    2  502    0 -0.28372020949E+03 -0.39772171497E+03 -0.20075121862E+03  0.66255624034E+03  0.40000000000E+03 0. -1.
   -9000005    1    1    2    0  501  0.28372020949E+03  0.39772171497E+03 -0.10800475464E+03  0.64058156925E+03  0.40000000000E+03 0.  1.
<mgrwt>
<rscale>  2 0.63141090E+03</rscale>
<asrwt>0</asrwt>
<pdfrwt beam="1">  1        1 0.12399183E+00 0.63141090E+03</pdfrwt>
<pdfrwt beam="2">  1       -1 0.76490911E-01 0.63141090E+03</pdfrwt>
<totfact> 0.38886537E+01</totfact>
</mgrwt>
</event>
<event>
 4    1  0.2358610E-002  0.4741513E+03  0.7818608E-02  0.1020755E+00
          2   -1    0    0  502    0  0.00000000000E+00  0.00000000000E+00  0.22684597501E+03  0.22684597501E+03  0.00000000000E+00 0.  1.
         -2   -1    0    0    0  501 -0.00000000000E+00 -0.00000000000E+00 -0.99483837273E+03  0.99483837273E+03  0.00000000000E+00 0. -1.
    9000005    1    1    2  502    0 -0.85990529970E+01  0.25445132721E+03 -0.42160916419E+03  0.63448696516E+03  0.40000000000E+03 0.  1.
   -9000005    1    1    2    0  501  0.85990529970E+01 -0.25445132721E+03 -0.34638323354E+03  0.58719738258E+03  0.40000000000E+03 0. -1.
<mgrwt>
<rscale>  2 0.47415126E+03</rscale>
<asrwt>0</asrwt>
<pdfrwt beam="1">  1        2 0.34899381E-01 0.47415126E+03</pdfrwt>
<pdfrwt beam="2">  1       -2 0.15305206E+00 0.47415126E+03</pdfrwt>
<totfact> 0.43966347E+01</totfact>
</mgrwt>
</event>
<event>
 4    1  0.2358610E-002  0.9562339E+03  0.7818608E-02  0.9357894E-01
          2   -1    0    0  502    0  0.00000000000E+00  0.00000000000E+00  0.21679116519E+04  0.21679116519E+04  0.00000000000E+00 0.  1.
         -2   -1    0    0    0  501 -0.00000000000E+00 -0.00000000000E+00 -0.55572717961E+03  0.55572717961E+03  0.00000000000E+00 0. -1.
    9000005    1    1    2  502    0  0.53714786974E+03  0.68253599859E+03  0.13751065550E+03  0.96607059976E+03  0.40000000000E+03 0. -1.
   -9000005    1    1    2    0  501 -0.53714786974E+03 -0.68253599859E+03  0.14746738168E+04  0.17575682317E+04  0.40000000000E+03 0.  1.
<mgrwt>
<rscale>  2 0.95623387E+03</rscale>
<asrwt>0</asrwt>
<pdfrwt beam="1">  1        2 0.33352487E+00 0.95623387E+03</pdfrwt>
<pdfrwt beam="2">  1       -2 0.85496490E-01 0.95623387E+03</pdfrwt>
<totfact> 0.64616653E+00</totfact>
</mgrwt>
</event>
<event>
 4    1  0.2358610E-002  0.4950978E+03  0.7818608E-02  0.1015066E+00
         -4   -1    0    0    0  501 -0.00000000000E+00  0.00000000000E+00  0.13819440366E+04  0.13819440366E+04  0.00000000000E+00 0. -1.
          4   -1    0    0  502    0  0.00000000000E+00 -0.00000000000E+00 -0.24688698291E+03  0.24688698291E+03  0.00000000000E+00 0.  1.
    9000005    1    1    2  502    0  0.17554953070E+03  0.23303252393E+03  0.99967201498E+03  0.11155563332E+04  0.40000000000E+03 0.  1.
   -9000005    1    1    2    0  501 -0.17554953070E+03 -0.23303252393E+03  0.13538503873E+03  0.51327468635E+03  0.40000000000E+03 0.  1.
<mgrwt>
<rscale>  2 0.49509776E+03</rscale>
<asrwt>0</asrwt>
<pdfrwt beam="1">  1        4 0.37982614E-01 0.49509776E+03</pdfrwt>
<pdfrwt beam="2">  1       -4 0.21260677E+00 0.49509776E+03</pdfrwt>
<totfact> 0.14664241E+00</totfact>
</mgrwt>
</event>
<event>
 4    1  0.2358610E-002  0.6093061E+03  0.7818608E-02  0.9886285E-01
          2   -1    0    0  502    0  0.00000000000E+00  0.00000000000E+00  0.40152505528E+04  0.40152505528E+04  0.00000000000E+00 0. -1.
         -2   -1    0    0    0  501 -0.00000000000E+00 -0.00000000000E+00 -0.10707742701E+03  0.10707742701E+03  0.00000000000E+00 0.  1.
    9000005    1    1    2  502    0 -0.32558748361E+03 -0.32441753210E+03  0.27156125004E+04  0.27831286706E+04  0.40000000000E+03 0.  1.
   -9000005    1    1    2    0  501  0.32558748361E+03  0.32441753210E+03  0.11925606253E+04  0.13391993092E+04  0.40000000000E+03 0.  1.
<mgrwt>
<rscale>  2 0.60930612E+03</rscale>
<asrwt>0</asrwt>
<pdfrwt beam="1">  1        2 0.61773074E+00 0.60930612E+03</pdfrwt>
<pdfrwt beam="2">  1       -2 0.16473453E-01 0.60930612E+03</pdfrwt>
<totfact> 0.11295720E+01</totfact>
</mgrwt>
</event>
<event>
 4    1  0.2358610E-002  0.4136841E+03  0.7818608E-02  0.1039142E+00
          2   -1    0    0  502    0  0.00000000000E+00  0.00000000000E+00  0.84754436884E+03  0.84754436884E+03  0.00000000000E+00 0.  1.
         -2   -1    0    0    0  501 -0.00000000000E+00 -0.00000000000E+00 -0.33691217807E+03  0.33691217807E+03  0.00000000000E+00 0. -1.
    9000005    1    1    2  502    0 -0.67177692201E+02  0.81373624267E+02 -0.11956040432E+03  0.43061490840E+03  0.40000000000E+03 0. -1.
   -9000005    1    1    2    0  501  0.67177692201E+02 -0.81373624267E+02  0.63019259509E+03  0.75384163851E+03  0.40000000000E+03 0.  1.
<mgrwt>
<rscale>  2 0.41368407E+03</rscale>
<asrwt>0</asrwt>
<pdfrwt beam="1">  1        2 0.13039144E+00 0.41368407E+03</pdfrwt>
<pdfrwt beam="2">  1       -2 0.51832643E-01 0.41368407E+03</pdfrwt>
<totfact> 0.11666537E+02</totfact>
</mgrwt>
</event>
<event>
 4    1  0.2358610E-002  0.4143238E+03  0.7818608E-02  0.1038930E+00
          1   -1    0    0  502    0  0.00000000000E+00  0.00000000000E+00  0.26615431821E+04  0.26615431821E+04  0.00000000000E+00 0. -1.
         -1   -1    0    0    0  501 -0.00000000000E+00 -0.00000000000E+00 -0.64571466698E+02  0.64571466698E+02  0.00000000000E+00 0.  1.
    9000005    1    1    2  502    0  0.10154476245E+03  0.36781040818E+02  0.12525056841E+04  0.13192553478E+04  0.40000000000E+03 0. -1.
   -9000005    1    1    2    0  501 -0.10154476245E+03 -0.36781040818E+02  0.13444660312E+04  0.14068593010E+04  0.40000000000E+03 0.  1.
<mgrwt>
<rscale>  2 0.41432377E+03</rscale>
<asrwt>0</asrwt>
<pdfrwt beam="1">  1        1 0.40946810E+00 0.41432377E+03</pdfrwt>
<pdfrwt beam="2">  1       -1 0.99340738E-02 0.41432377E+03</pdfrwt>
<totfact> 0.73469266E+01</totfact>
</mgrwt>
</event>
<event>
 4    1  0.2358610E-002  0.4204400E+03  0.7818608E-02  0.1036923E+00
          2   -1    0    0  502    0  0.00000000000E+00  0.00000000000E+00  0.55645709026E+03  0.55645709026E+03  0.00000000000E+00 0.  1.
         -2   -1    0    0    0  501 -0.00000000000E+00 -0.00000000000E+00 -0.37110870155E+03  0.37110870155E+03  0.00000000000E+00 0. -1.
    9000005    1    1    2  502    0 -0.29387517976E+02 -0.12611962846E+03  0.26866567598E+03  0.49894992970E+03  0.40000000000E+03 0.  1.
   -9000005    1    1    2    0  501  0.29387517976E+02  0.12611962846E+03 -0.83317287274E+02  0.42861586211E+03  0.40000000000E+03 0. -1.
<mgrwt>
<rscale>  2 0.42043999E+03</rscale>
<asrwt>0</asrwt>
<pdfrwt beam="1">  1        2 0.85608784E-01 0.42043999E+03</pdfrwt>
<pdfrwt beam="2">  1       -2 0.57093646E-01 0.42043999E+03</pdfrwt>
<totfact> 0.16086455E+02</totfact>
</mgrwt>
</event>
<event>
 4    1  0.2358610E-002  0.4536584E+03  0.7818608E-02  0.1026637E+00
         -1   -1    0    0    0  501 -0.00000000000E+00  0.00000000000E+00  0.21357798766E+03  0.21357798766E+03  0.00000000000E+00 0. -1.
          1   -1    0    0  502    0  0.00000000000E+00 -0.00000000000E+00 -0.11069105140E+04  0.11069105140E+04  0.00000000000E+00 0.  1.
    9000005    1    1    2  502    0  0.18436616112E+03 -0.10869726735E+03 -0.20910720821E+03  0.49953158241E+03  0.40000000000E+03 0. -1.
   -9000005    1    1    2    0  501 -0.18436616112E+03  0.10869726735E+03 -0.68422531811E+03  0.82095691924E+03  0.40000000000E+03 0.  1.
<mgrwt>
<rscale>  2 0.45365844E+03</rscale>
<asrwt>0</asrwt>
<pdfrwt beam="1">  1        1 0.17029392E+00 0.45365844E+03</pdfrwt>
<pdfrwt beam="2">  1       -1 0.32858152E-01 0.45365844E+03</pdfrwt>
<totfact> 0.11428025E+02</totfact>
</mgrwt>
</event>
<event>
 4    1  0.2358610E-002  0.4018437E+03  0.7818608E-02  0.1043143E+00
          2   -1    0    0  502    0  0.00000000000E+00  0.00000000000E+00  0.10641660893E+04  0.10641660893E+04  0.00000000000E+00 0.  1.
         -2   -1    0    0    0  501 -0.00000000000E+00 -0.00000000000E+00 -0.21489024250E+03  0.21489024250E+03  0.00000000000E+00 0. -1.
    9000005    1    1    2  502    0 -0.22685338080E+02 -0.31043447332E+02  0.77954433568E+02  0.40933508755E+03  0.40000000000E+03 0. -1.
   -9000005    1    1    2    0  501  0.22685338080E+02  0.31043447332E+02  0.77132141326E+03  0.86972124427E+03  0.40000000000E+03 0.  1.
<mgrwt>
<rscale>  2 0.40184365E+03</rscale>
<asrwt>0</asrwt>
<pdfrwt beam="1">  1        2 0.16371786E+00 0.40184365E+03</pdfrwt>
<pdfrwt beam="2">  1       -2 0.33060038E-01 0.40184365E+03</pdfrwt>
<totfact> 0.20357641E+02</totfact>
</mgrwt>
</event>
<event>
 4    1  0.2358610E-002  0.5517997E+03  0.7818608E-02  0.1001078E+00
          1   -1    0    0  502    0  0.00000000000E+00  0.00000000000E+00  0.11937727853E+04  0.11937727853E+04  0.00000000000E+00 0. -1.
         -1   -1    0    0    0  501 -0.00000000000E+00 -0.00000000000E+00 -0.27991002443E+03  0.27991002443E+03  0.00000000000E+00 0.  1.
    9000005    1    1    2  502    0 -0.17387535226E+03  0.33800929414E+03  0.67648156658E+03  0.87298925021E+03  0.40000000000E+03 0.  1.
   -9000005    1    1    2    0  501  0.17387535226E+03 -0.33800929414E+03  0.23738119430E+03  0.60069355953E+03  0.40000000000E+03 0.  1.
<mgrwt>
<rscale>  2 0.55179971E+03</rscale>
<asrwt>0</asrwt>
<pdfrwt beam="1">  1        1 0.18365735E+00 0.55179971E+03</pdfrwt>
<pdfrwt beam="2">  1       -1 0.43063081E-01 0.55179971E+03</pdfrwt>
<totfact> 0.60148492E+01</totfact>
</mgrwt>
</event>
<event>
 4    1  0.2358610E-002  0.4954285E+03  0.7818608E-02  0.1014979E+00
         -1   -1    0    0    0  501 -0.00000000000E+00  0.00000000000E+00  0.41710488816E+03  0.41710488816E+03  0.00000000000E+00 0.  1.
          1   -1    0    0  502    0  0.00000000000E+00 -0.00000000000E+00 -0.58846976628E+03  0.58846976628E+03  0.00000000000E+00 0. -1.
    9000005    1    1    2  502    0 -0.29229492313E+03 -0.36212762192E+01 -0.87757373139E+02  0.50314092685E+03  0.40000000000E+03 0.  1.
   -9000005    1    1    2    0  501  0.29229492313E+03  0.36212762192E+01 -0.83607504976E+02  0.50243372759E+03  0.40000000000E+03 0.  1.
<mgrwt>
<rscale>  2 0.49542854E+03</rscale>
<asrwt>0</asrwt>
<pdfrwt beam="1">  1        1 0.90533809E-01 0.49542854E+03</pdfrwt>
<pdfrwt beam="2">  1       -1 0.64169984E-01 0.49542854E+03</pdfrwt>
<totfact> 0.90371995E+01</totfact>
</mgrwt>
</event>
<event>
 4    1  0.2358610E-002  0.5146954E+03  0.7818608E-02  0.1010013E+00
         -1   -1    0    0    0  501 -0.00000000000E+00  0.00000000000E+00  0.44546584953E+03  0.44546584953E+03  0.00000000000E+00 0.  1.
          1   -1    0    0  502    0  0.00000000000E+00 -0.00000000000E+00 -0.22091327641E+04  0.22091327641E+04  0.00000000000E+00 0. -1.
    9000005    1    1    2  502    0 -0.19203440616E+03  0.26083361005E+03 -0.20165048382E+04  0.20811542825E+04  0.40000000000E+03 0. -1.
   -9000005    1    1    2    0  501  0.19203440616E+03 -0.26083361005E+03  0.25283792359E+03  0.57344433111E+03  0.40000000000E+03 0.  1.
<mgrwt>
<rscale>  2 0.51469543E+03</rscale>
<asrwt>0</asrwt>
<pdfrwt beam="1">  1        1 0.33986658E+00 0.51469543E+03</pdfrwt>
<pdfrwt beam="2">  1       -1 0.68533208E-01 0.51469543E+03</pdfrwt>
<totfact> 0.51308547E+00</totfact>
</mgrwt>
</event>
<event>
 4    1  0.2358610E-002  0.6222558E+03  0.7818608E-02  0.9860279E-01
         -2   -1    0    0    0  501 -0.00000000000E+00  0.00000000000E+00  0.13700939227E+03  0.13700939227E+03  0.00000000000E+00 0. -1.
          2   -1    0    0  502    0  0.00000000000E+00 -0.00000000000E+00 -0.29183370471E+04  0.29183370471E+04  0.00000000000E+00 0.  1.
    9000005    1    1    2  502    0  0.95364239164E+02  0.46702031476E+03 -0.16622541249E+04  0.17749059379E+04  0.40000000000E+03 0.  1.
   -9000005    1    1    2    0  501 -0.95364239164E+02 -0.46702031476E+03 -0.11190735299E+04  0.12804405015E+04  0.40000000000E+03 0. -1.
<mgrwt>
<rscale>  2 0.62225583E+03</rscale>
<asrwt>0</asrwt>
<pdfrwt beam="1">  1        2 0.44897489E+00 0.62225583E+03</pdfrwt>
<pdfrwt beam="2">  1       -2 0.21078370E-01 0.62225583E+03</pdfrwt>
<totfact> 0.40961054E+01</totfact>
</mgrwt>
</event>
<event>
 4    1  0.2358610E-002  0.4116564E+03  0.7818608E-02  0.1039817E+00
         -2   -1    0    0    0  501 -0.00000000000E+00  0.00000000000E+00  0.17548479289E+03  0.17548479289E+03  0.00000000000E+00 0. -1.
          2   -1    0    0  502    0  0.00000000000E+00 -0.00000000000E+00 -0.11398750244E+04  0.11398750244E+04  0.00000000000E+00 0.  1.
    9000005    1    1    2  502    0  0.97152112053E+02  0.47382738786E+01 -0.22508915544E+03  0.46917599258E+03  0.40000000000E+03 0. -1.
   -9000005    1    1    2    0  501 -0.97152112053E+02 -0.47382738786E+01 -0.73930107611E+03  0.84618382474E+03  0.40000000000E+03 0. -1.
<mgrwt>
<rscale>  2 0.41165639E+03</rscale>
<asrwt>0</asrwt>
<pdfrwt beam="1">  1        2 0.17536539E+00 0.41165639E+03</pdfrwt>
<pdfrwt beam="2">  1       -2 0.26997660E-01 0.41165639E+03</pdfrwt>
<totfact> 0.26577209E+02</totfact>
</mgrwt>
</event>
<event>
 4    1  0.2358610E-002  0.4147154E+03  0.7818608E-02  0.1038800E+00
          2   -1    0    0  502    0  0.00000000000E+00  0.00000000000E+00  0.37911506026E+03  0.37911506026E+03  0.00000000000E+00 0. -1.
         -2   -1    0    0    0  501 -0.00000000000E+00 -0.00000000000E+00 -0.47176121562E+03  0.47176121562E+03  0.00000000000E+00 0.  1.
    9000005    1    1    2  502    0 -0.88766959206E+02  0.64104047360E+02  0.37014904027E+02  0.41636402949E+03  0.40000000000E+03 0.  1.
   -9000005    1    1    2    0  501  0.88766959206E+02 -0.64104047360E+02 -0.12966105939E+03  0.43451224638E+03  0.40000000000E+03 0.  1.
<mgrwt>
<rscale>  2 0.41471545E+03</rscale>
<asrwt>0</asrwt>
<pdfrwt beam="1">  1        2 0.58325394E-01 0.41471545E+03</pdfrwt>
<pdfrwt beam="2">  1       -2 0.72578648E-01 0.41471545E+03</pdfrwt>
<totfact> 0.14902777E+02</totfact>
</mgrwt>
</event>
<event>
 4    1  0.2358610E-002  0.5986156E+03  0.7818608E-02  0.9908282E-01
         -1   -1    0    0    0  501 -0.00000000000E+00  0.00000000000E+00  0.76747390133E+03  0.76747390133E+03  0.00000000000E+00 0.  1.
          1   -1    0    0  502    0  0.00000000000E+00 -0.00000000000E+00 -0.66363566513E+03  0.66363566513E+03  0.00000000000E+00 0. -1.
    9000005    1    1    2  502    0  0.42786732526E+03 -0.12357259675E+03 -0.33767232622E+03  0.68728686485E+03  0.40000000000E+03 0. -1.
   -9000005    1    1    2    0  501 -0.42786732526E+03  0.12357259675E+03  0.44151056242E+03  0.74382270161E+03  0.40000000000E+03 0.  1.
<mgrwt>
<rscale>  2 0.59861560E+03</rscale>
<asrwt>0</asrwt>
<pdfrwt beam="1">  1        1 0.10209779E+00 0.59861560E+03</pdfrwt>
<pdfrwt beam="2">  1       -1 0.11807291E+00 0.59861560E+03</pdfrwt>
<totfact> 0.19903627E+01</totfact>
</mgrwt>
</event>
<event>
 4    1  0.2358610E-002  0.6470697E+03  0.7818608E-02  0.9812293E-01
         -2   -1    0    0    0  501 -0.00000000000E+00  0.00000000000E+00  0.23402300449E+03  0.23402300449E+03  0.00000000000E+00 0.  1.
          2   -1    0    0  502    0  0.00000000000E+00 -0.00000000000E+00 -0.18182986045E+04  0.18182986045E+04  0.00000000000E+00 0. -1.
    9000005    1    1    2  502    0  0.49607219540E+03  0.11230139541E+03 -0.66218423432E+03  0.92584404013E+03  0.40000000000E+03 0.  1.
   -9000005    1    1    2    0  501 -0.49607219540E+03 -0.11230139541E+03 -0.92209136567E+03  0.11264775688E+04  0.40000000000E+03 0. -1.
<mgrwt>
<rscale>  2 0.64706972E+03</rscale>
<asrwt>0</asrwt>
<pdfrwt beam="1">  1        2 0.27973824E+00 0.64706972E+03</pdfrwt>
<pdfrwt beam="2">  1       -2 0.36003540E-01 0.64706972E+03</pdfrwt>
<totfact> 0.63487273E+01</totfact>
</mgrwt>
</event>
<event>
 4    1  0.2358610E-002  0.4169859E+03  0.7818608E-02  0.1038052E+00
         -1   -1    0    0    0  501 -0.00000000000E+00  0.00000000000E+00  0.13226735545E+03  0.13226735545E+03  0.00000000000E+00 0.  1.
          1   -1    0    0  502    0  0.00000000000E+00 -0.00000000000E+00 -0.13240333676E+04  0.13240333676E+04  0.00000000000E+00 0. -1.
    9000005    1    1    2  502    0 -0.11046985871E+03  0.40910508972E+02 -0.53438662673E+03  0.67782470171E+03  0.40000000000E+03 0.  1.
   -9000005    1    1    2    0  501  0.11046985871E+03 -0.40910508972E+02 -0.65737938544E+03  0.77847602136E+03  0.40000000000E+03 0. -1.
<mgrwt>
<rscale>  2 0.41698592E+03</rscale>
<asrwt>0</asrwt>
<pdfrwt beam="1">  1        1 0.20369743E+00 0.41698592E+03</pdfrwt>
<pdfrwt beam="2">  1       -1 0.20348825E-01 0.41698592E+03</pdfrwt>
<totfact> 0.18141271E+02</totfact>
</mgrwt>
</event>
<event>
 4    1  0.2358610E-002  0.4291162E+03  0.7818608E-02  0.1034140E+00
         -2   -1    0    0    0  501 -0.00000000000E+00  0.00000000000E+00  0.25400681474E+03  0.25400681474E+03  0.00000000000E+00 0.  1.
          2   -1    0    0  502    0  0.00000000000E+00 -0.00000000000E+00 -0.28498348653E+04  0.28498348653E+04  0.00000000000E+00 0. -1.
    9000005    1    1    2  502    0  0.55022661103E+02 -0.14530401697E+03 -0.26379856718E+04  0.26726595659E+04  0.40000000000E+03 0. -1.
   -9000005    1    1    2    0  501 -0.55022661103E+02  0.14530401697E+03  0.42157621177E+02  0.43118211420E+03  0.40000000000E+03 0.  1.
<mgrwt>
<rscale>  2 0.42911624E+03</rscale>
<asrwt>0</asrwt>
<pdfrwt beam="1">  1        2 0.43843614E+00 0.42911624E+03</pdfrwt>
<pdfrwt beam="2">  1       -2 0.39077971E-01 0.42911624E+03</pdfrwt>
<totfact> 0.15159602E+01</totfact>
</mgrwt>
</event>
<event>
 4    1  0.2358610E-002  0.4149616E+03  0.7818608E-02  0.1038719E+00
          1   -1    0    0  502    0  0.00000000000E+00  0.00000000000E+00  0.18121929979E+04  0.18121929979E+04  0.00000000000E+00 0.  1.
         -1   -1    0    0    0  501 -0.00000000000E+00 -0.00000000000E+00 -0.99897344450E+02  0.99897344450E+02  0.00000000000E+00 0. -1.
    9000005    1    1    2  502    0  0.12027706079E+02 -0.10976538923E+03  0.10674136866E+04  0.11452358206E+04  0.40000000000E+03 0.  1.
   -9000005    1    1    2    0  501 -0.12027706079E+02  0.10976538923E+03  0.64488196680E+03  0.76685452172E+03  0.40000000000E+03 0.  1.
<mgrwt>
<rscale>  2 0.41496157E+03</rscale>
<asrwt>0</asrwt>
<pdfrwt beam="1">  1        1 0.27879890E+00 0.41496157E+03</pdfrwt>
<pdfrwt beam="2">  1       -1 0.15368824E-01 0.41496157E+03</pdfrwt>
<totfact> 0.13492595E+02</totfact>
</mgrwt>
</event>
<event>
 4    1  0.2358610E-002  0.4328673E+03  0.7818608E-02  0.1032958E+00
         -2   -1    0    0    0  501 -0.00000000000E+00  0.00000000000E+00  0.21618194724E+03  0.21618194724E+03  0.00000000000E+00 0.  1.
          2   -1    0    0  502    0  0.00000000000E+00 -0.00000000000E+00 -0.11708001661E+04  0.11708001661E+04  0.00000000000E+00 0. -1.
    9000005    1    1    2  502    0  0.15479786898E+03  0.58409925827E+02 -0.12390028006E+03  0.45025035155E+03  0.40000000000E+03 0.  1.
   -9000005    1    1    2    0  501 -0.15479786898E+03 -0.58409925827E+02 -0.83071793881E+03  0.93673176179E+03  0.40000000000E+03 0. -1.
<mgrwt>
<rscale>  2 0.43286730E+03</rscale>
<asrwt>0</asrwt>
<pdfrwt beam="1">  1        2 0.18012310E+00 0.43286730E+03</pdfrwt>
<pdfrwt beam="2">  1       -2 0.33258761E-01 0.43286730E+03</pdfrwt>
<totfact> 0.17330654E+02</totfact>
</mgrwt>
</event>
<event>
 4    1  0.2358610E-002  0.4189831E+03  0.7818608E-02  0.1037398E+00
         -1   -1    0    0    0  501 -0.00000000000E+00  0.00000000000E+00  0.11423443776E+04  0.11423443776E+04  0.00000000000E+00 0. -1.
          1   -1    0    0  502    0  0.00000000000E+00 -0.00000000000E+00 -0.18640847291E+03  0.18640847291E+03  0.00000000000E+00 0.  1.
    9000005    1    1    2  502    0  0.11409714862E+02  0.12416378822E+03  0.19955173466E+03  0.46407728096E+03  0.40000000000E+03 0.  1.
   -9000005    1    1    2    0  501 -0.11409714862E+02 -0.12416378822E+03  0.75638417001E+03  0.86467556953E+03  0.40000000000E+03 0. -1.
<mgrwt>
<rscale>  2 0.41898309E+03</rscale>
<asrwt>0</asrwt>
<pdfrwt beam="1">  1        1 0.28678227E-01 0.41898309E+03</pdfrwt>
<pdfrwt beam="2">  1       -1 0.17574528E+00 0.41898309E+03</pdfrwt>
<totfact> 0.38589155E+01</totfact>
</mgrwt>
</event>
<event>
 4    1  0.2358610E-002  0.4668525E+03  0.7818608E-02  0.1022812E+00
         -2   -1    0    0    0  501 -0.00000000000E+00  0.00000000000E+00  0.99997862810E+02  0.99997862810E+02  0.00000000000E+00 0. -1.
          2   -1    0    0  502    0  0.00000000000E+00 -0.00000000000E+00 -0.22525231760E+04  0.22525231760E+04  0.00000000000E+00 0.  1.
    9000005    1    1    2  502    0  0.23054138064E+03  0.69296240636E+02 -0.86456205993E+03  0.98255730246E+03  0.40000000000E+03 0.  1.
   -9000005    1    1    2    0  501 -0.23054138064E+03 -0.69296240636E+02 -0.12879632532E+04  0.13699637363E+04  0.40000000000E+03 0. -1.
<mgrwt>
<rscale>  2 0.46685254E+03</rscale>
<asrwt>0</asrwt>
<pdfrwt beam="1">  1        2 0.34654202E+00 0.46685254E+03</pdfrwt>
<pdfrwt beam="2">  1       -2 0.15384287E-01 0.46685254E+03</pdfrwt>
<totfact> 0.17285614E+02</totfact>
</mgrwt>
</event>
<event>
 4    1  0.2358610E-002  0.4154750E+03  0.7818608E-02  0.1038549E+00
         -3   -1    0    0    0  501 -0.00000000000E+00  0.00000000000E+00  0.93566176687E+03  0.93566176687E+03  0.00000000000E+00 0. -1.
          3   -1    0    0  502    0  0.00000000000E+00 -0.00000000000E+00 -0.19801538008E+03  0.19801538008E+03  0.00000000000E+00 0.  1.
    9000005    1    1    2  502    0 -0.10785279863E+03  0.31420824894E+02  0.51697176068E+03  0.66323396758E+03  0.40000000000E+03 0. -1.
   -9000005    1    1    2    0  501  0.10785279863E+03 -0.31420824894E+02  0.22067462611E+03  0.47044317937E+03  0.40000000000E+03 0.  1.
<mgrwt>
<rscale>  2 0.41547502E+03</rscale>
<asrwt>0</asrwt>
<pdfrwt beam="1">  1        3 0.30463905E-01 0.41547502E+03</pdfrwt>
<pdfrwt beam="2">  1       -3 0.14394796E+00 0.41547502E+03</pdfrwt>
<totfact> 0.98743901E+00</totfact>
</mgrwt>
</event>
<event>
 4    1  0.2358610E-002  0.5647219E+03  0.7818608E-02  0.9981427E-01
          2   -1    0    0  502    0  0.00000000000E+00  0.00000000000E+00  0.88972860969E+03  0.88972860969E+03  0.00000000000E+00 0. -1.
         -2   -1    0    0    0  501 -0.00000000000E+00 -0.00000000000E+00 -0.51004829249E+03  0.51004829249E+03  0.00000000000E+00 0.  1.
    9000005    1    1    2  502    0 -0.19001977737E+03  0.35043301488E+03  0.57142428971E+03  0.80339064756E+03  0.40000000000E+03 0. -1.
   -9000005    1    1    2    0  501  0.19001977737E+03 -0.35043301488E+03 -0.19174397251E+03  0.59638625462E+03  0.40000000000E+03 0.  1.
<mgrwt>
<rscale>  2 0.56472189E+03</rscale>
<asrwt>0</asrwt>
<pdfrwt beam="1">  1        2 0.13688132E+00 0.56472189E+03</pdfrwt>
<pdfrwt beam="2">  1       -2 0.78468968E-01 0.56472189E+03</pdfrwt>
<totfact> 0.44441289E+01</totfact>
</mgrwt>
</event>
<event>
 4    1  0.2358610E-002  0.4461352E+03  0.7818608E-02  0.1028881E+00
          1   -1    0    0  502    0  0.00000000000E+00  0.00000000000E+00  0.94283790904E+03  0.94283790904E+03  0.00000000000E+00 0.  1.
         -1   -1    0    0    0  501 -0.00000000000E+00 -0.00000000000E+00 -0.23920196255E+03  0.23920196255E+03  0.00000000000E+00 0. -1.
    9000005    1    1    2  502    0  0.16500601502E+03 -0.10867210765E+03  0.14925542157E+03  0.47043999919E+03  0.40000000000E+03 0. -1.
   -9000005    1    1    2    0  501 -0.16500601502E+03  0.10867210765E+03  0.55438052493E+03  0.71159987239E+03  0.40000000000E+03 0. -1.
<mgrwt>
<rscale>  2 0.44613519E+03</rscale>
<asrwt>0</asrwt>
<pdfrwt beam="1">  1        1 0.14505198E+00 0.44613519E+03</pdfrwt>
<pdfrwt beam="2">  1       -1 0.36800303E-01 0.44613519E+03</pdfrwt>
<totfact> 0.12468308E+02</totfact>
</mgrwt>
</event>
<event>
 4    1  0.2358610E-002  0.4561014E+03  0.7818608E-02  0.1025918E+00
          3   -1    0    0  502    0  0.00000000000E+00  0.00000000000E+00  0.14625496045E+04  0.14625496045E+04  0.00000000000E+00 0. -1.
         -3   -1    0    0    0  501 -0.00000000000E+00 -0.00000000000E+00 -0.15984060924E+03  0.15984060924E+03  0.00000000000E+00 0.  1.
    9000005    1    1    2  502    0  0.20826552282E+03  0.68220037455E+02  0.92056005683E+03  0.10273554982E+04  0.40000000000E+03 0. -1.
   -9000005    1    1    2    0  501 -0.20826552282E+03 -0.68220037455E+02  0.38214893841E+03  0.59503471549E+03  0.40000000000E+03 0.  1.
<mgrwt>
<rscale>  2 0.45610142E+03</rscale>
<asrwt>0</asrwt>
<pdfrwt beam="1">  1        3 0.22500762E+00 0.45610142E+03</pdfrwt>
<pdfrwt beam="2">  1       -3 0.24590864E-01 0.45610142E+03</pdfrwt>
<totfact> 0.43482309E+00</totfact>
</mgrwt>
</event>
<event>
 4    1  0.2358610E-002  0.4003755E+03  0.7818608E-02  0.1043650E+00
          2   -1    0    0  502    0  0.00000000000E+00  0.00000000000E+00  0.51862911517E+03  0.51862911517E+03  0.00000000000E+00 0.  1.
         -2   -1    0    0    0  501 -0.00000000000E+00 -0.00000000000E+00 -0.33851947116E+03  0.33851947116E+03  0.00000000000E+00 0. -1.
    9000005    1    1    2  502    0  0.15712640908E+02 -0.73225594078E+01  0.21643007171E+03  0.45512908378E+03  0.40000000000E+03 0.  1.
   -9000005    1    1    2    0  501 -0.15712640908E+02  0.73225594078E+01 -0.36320427709E+02  0.40201950255E+03  0.40000000000E+03 0. -1.
<mgrwt>
<rscale>  2 0.40037546E+03</rscale>
<asrwt>0</asrwt>
<pdfrwt beam="1">  1        2 0.79789095E-01 0.40037546E+03</pdfrwt>
<pdfrwt beam="2">  1       -2 0.52079919E-01 0.40037546E+03</pdfrwt>
<totfact> 0.21104318E+02</totfact>
</mgrwt>
</event>
<event>
 4    1  0.2358610E-002  0.4028677E+03  0.7818608E-02  0.1042791E+00
          1   -1    0    0  502    0  0.00000000000E+00  0.00000000000E+00  0.14926354261E+04  0.14926354261E+04  0.00000000000E+00 0.  1.
         -1   -1    0    0    0  501 -0.00000000000E+00 -0.00000000000E+00 -0.20969504477E+03  0.20969504477E+03  0.00000000000E+00 0. -1.
    9000005    1    1    2  502    0  0.30206239531E+02  0.37282032977E+02  0.50869951717E+02  0.40606664339E+03  0.40000000000E+03 0. -1.
   -9000005    1    1    2    0  501 -0.30206239531E+02 -0.37282032977E+02  0.12320704296E+04  0.12962638275E+04  0.40000000000E+03 0.  1.
<mgrwt>
<rscale>  2 0.40286768E+03</rscale>
<asrwt>0</asrwt>
<pdfrwt beam="1">  1        1 0.22963621E+00 0.40286768E+03</pdfrwt>
<pdfrwt beam="2">  1       -1 0.32260777E-01 0.40286768E+03</pdfrwt>
<totfact> 0.64008260E+01</totfact>
</mgrwt>
</event>
<event>
 4    1  0.2358610E-002  0.4487449E+03  0.7818608E-02  0.1028097E+00
         -1   -1    0    0    0  501 -0.00000000000E+00  0.00000000000E+00  0.84842074383E+02  0.84842074383E+02  0.00000000000E+00 0.  1.
          1   -1    0    0  502    0  0.00000000000E+00 -0.00000000000E+00 -0.30909427127E+04  0.30909427127E+04  0.00000000000E+00 0. -1.
    9000005    1    1    2  502    0 -0.48187320363E+02  0.19761063697E+03 -0.22680682900E+04  0.23120349802E+04  0.40000000000E+03 0. -1.
   -9000005    1    1    2    0  501  0.48187320363E+02 -0.19761063697E+03 -0.73803234834E+03  0.86374980687E+03  0.40000000000E+03 0.  1.
<mgrwt>
<rscale>  2 0.44874490E+03</rscale>
<asrwt>0</asrwt>
<pdfrwt beam="1">  1        1 0.47552960E+00 0.44874490E+03</pdfrwt>
<pdfrwt beam="2">  1       -1 0.13052628E-01 0.44874490E+03</pdfrwt>
<totfact> 0.23738736E+01</totfact>
</mgrwt>
</event>
<event>
 4    1  0.2358610E-002  0.5248838E+03  0.7818608E-02  0.1007480E+00
         -2   -1    0    0    0  501 -0.00000000000E+00  0.00000000000E+00  0.14284105163E+03  0.14284105163E+03  0.00000000000E+00 0.  1.
          2   -1    0    0  502    0  0.00000000000E+00 -0.00000000000E+00 -0.19332282873E+04  0.19332282873E+04  0.00000000000E+00 0. -1.
    9000005    1    1    2  502    0 -0.29203483174E+03  0.17383523502E+03 -0.84516892267E+03  0.99489373289E+03  0.40000000000E+03 0.  1.
   -9000005    1    1    2    0  501  0.29203483174E+03 -0.17383523502E+03 -0.94521831300E+03  0.10811756060E+04  0.40000000000E+03 0. -1.
<mgrwt>
<rscale>  2 0.52488383E+03</rscale>
<asrwt>0</asrwt>
<pdfrwt beam="1">  1        2 0.29741972E+00 0.52488383E+03</pdfrwt>
<pdfrwt beam="2">  1       -2 0.21975548E-01 0.52488383E+03</pdfrwt>
<totfact> 0.13812561E+02</totfact>
</mgrwt>
</event>
<event>
 4    1  0.2358610E-002  0.4870589E+03  0.7818608E-02  0.1017213E+00
         -1   -1    0    0    0  501 -0.00000000000E+00  0.00000000000E+00  0.27020559617E+03  0.27020559617E+03  0.00000000000E+00 0. -1.
          1   -1    0    0  502    0  0.00000000000E+00 -0.00000000000E+00 -0.10484504169E+04  0.10484504169E+04  0.00000000000E+00 0.  1.
    9000005    1    1    2  502    0 -0.11753981603E+03 -0.25181501351E+03 -0.65500695717E+03  0.81624783205E+03  0.40000000000E+03 0.  1.
   -9000005    1    1    2    0  501  0.11753981603E+03  0.25181501351E+03 -0.12323786360E+03  0.50240818107E+03  0.40000000000E+03 0.  1.
<mgrwt>
<rscale>  2 0.48705894E+03</rscale>
<asrwt>0</asrwt>
<pdfrwt beam="1">  1        1 0.16130006E+00 0.48705894E+03</pdfrwt>
<pdfrwt beam="2">  1       -1 0.41570092E-01 0.48705894E+03</pdfrwt>
<totfact> 0.82707621E+01</totfact>
</mgrwt>
</event>
<event>
 4    1  0.2358610E-002  0.4098576E+03  0.7818608E-02  0.1040419E+00
          2   -1    0    0  502    0  0.00000000000E+00  0.00000000000E+00  0.18996400900E+04  0.18996400900E+04  0.00000000000E+00 0.  1.
         -2   -1    0    0    0  501 -0.00000000000E+00 -0.00000000000E+00 -0.93073754003E+02  0.93073754003E+02  0.00000000000E+00 0. -1.
    9000005    1    1    2  502    0 -0.83381239523E+02 -0.32106217203E+02  0.68070451819E+03  0.79457024949E+03  0.40000000000E+03 0. -1.
   -9000005    1    1    2    0  501  0.83381239523E+02  0.32106217203E+02  0.11258618178E+04  0.11981435946E+04  0.40000000000E+03 0.  1.
<mgrwt>
<rscale>  2 0.40985759E+03</rscale>
<asrwt>0</asrwt>
<pdfrwt beam="1">  1        2 0.29225229E+00 0.40985759E+03</pdfrwt>
<pdfrwt beam="2">  1       -2 0.14319041E-01 0.40985759E+03</pdfrwt>
<totfact> 0.30438141E+02</totfact>
</mgrwt>
</event>
<event>
 4    1  0.2358610E-002  0.4640207E+03  0.7818608E-02  0.1023622E+00
          1   -1    0    0  502    0  0.00000000000E+00  0.00000000000E+00  0.36553038021E+03  0.36553038021E+03  0.00000000000E+00 0. -1.
         -1   -1    0    0    0  501 -0.00000000000E+00 -0.00000000000E+00 -0.60564295377E+03  0.60564295377E+03  0.00000000000E+00 0.  1.
    9000005    1    1    2  502    0 -0.23238144166E+03  0.36250153778E+02 -0.39678355510E+02  0.46571405387E+03  0.40000000000E+03 0.  1.
   -9000005    1    1    2    0  501  0.23238144166E+03 -0.36250153778E+02 -0.20043421805E+03  0.50545928011E+03  0.40000000000E+03 0.  1.
<mgrwt>
<rscale>  2 0.46402070E+03</rscale>
<asrwt>0</asrwt>
<pdfrwt beam="1">  1        1 0.56235443E-01 0.46402070E+03</pdfrwt>
<pdfrwt beam="2">  1       -1 0.93175839E-01 0.46402070E+03</pdfrwt>
<totfact> 0.78954915E+01</totfact>
</mgrwt>
</event>
<event>
 4    1  0.2358610E-002  0.4585601E+03  0.7818608E-02  0.1025200E+00
         -2   -1    0    0    0  501 -0.00000000000E+00  0.00000000000E+00  0.93352430828E+03  0.93352430828E+03  0.00000000000E+00 0. -1.
          2   -1    0    0  502    0  0.00000000000E+00 -0.00000000000E+00 -0.24905398388E+03  0.24905398388E+03  0.00000000000E+00 0.  1.
    9000005    1    1    2  502    0 -0.93948556839E+02 -0.20359529349E+03  0.15943862123E+03  0.48548743424E+03  0.40000000000E+03 0.  1.
   -9000005    1    1    2    0  501  0.93948556839E+02  0.20359529349E+03  0.52503170317E+03  0.69709085792E+03  0.40000000000E+03 0. -1.
<mgrwt>
<rscale>  2 0.45856011E+03</rscale>
<asrwt>0</asrwt>
<pdfrwt beam="1">  1        2 0.38315998E-01 0.45856011E+03</pdfrwt>
<pdfrwt beam="2">  1       -2 0.14361912E+00 0.45856011E+03</pdfrwt>
<totfact> 0.46882637E+01</totfact>
</mgrwt>
</event>
<event>
 4    1  0.2358610E-002  0.5395038E+03  0.7818608E-02  0.1003953E+00
         -2   -1    0    0    0  501 -0.00000000000E+00  0.00000000000E+00  0.31228643903E+03  0.31228643903E+03  0.00000000000E+00 0. -1.
          2   -1    0    0  502    0  0.00000000000E+00 -0.00000000000E+00 -0.93294803279E+03  0.93294803279E+03  0.00000000000E+00 0.  1.
    9000005    1    1    2  502    0  0.74859055155E+02  0.35420396359E+03 -0.29093652949E+03  0.61295056094E+03  0.40000000000E+03 0.  1.
   -9000005    1    1    2    0  501 -0.74859055155E+02 -0.35420396359E+03 -0.32972506427E+03  0.63228391089E+03  0.40000000000E+03 0.  1.
<mgrwt>
<rscale>  2 0.53950378E+03</rscale>
<asrwt>0</asrwt>
<pdfrwt beam="1">  1        2 0.14353046E+00 0.53950378E+03</pdfrwt>
<pdfrwt beam="2">  1       -2 0.48044068E-01 0.53950378E+03</pdfrwt>
<totfact> 0.11775285E+02</totfact>
</mgrwt>
</event>
<event>
 4    1  0.2358610E-002  0.5703108E+03  0.7818608E-02  0.9968991E-01
         -1   -1    0    0    0  501 -0.00000000000E+00  0.00000000000E+00  0.25951808328E+03  0.25951808328E+03  0.00000000000E+00 0. -1.
          1   -1    0    0  502    0  0.00000000000E+00 -0.00000000000E+00 -0.13043246026E+04  0.13043246026E+04  0.00000000000E+00 0.  1.
    9000005    1    1    2  502    0 -0.20085178688E+03 -0.35343026867E+03 -0.67705463495E+03  0.88524424529E+03  0.40000000000E+03 0.  1.
   -9000005    1    1    2    0  501  0.20085178688E+03  0.35343026867E+03 -0.36775188435E+03  0.67859844057E+03  0.40000000000E+03 0. -1.
<mgrwt>
<rscale>  2 0.57031079E+03</rscale>
<asrwt>0</asrwt>
<pdfrwt beam="1">  1        1 0.20066533E+00 0.57031079E+03</pdfrwt>
<pdfrwt beam="2">  1       -1 0.39925858E-01 0.57031079E+03</pdfrwt>
<totfact> 0.57481340E+01</totfact>
</mgrwt>
</event>
<event>
 4    1  0.2358610E-002  0.4323547E+03  0.7818608E-02  0.1033119E+00
          1   -1    0    0  502    0  0.00000000000E+00  0.00000000000E+00  0.88730779888E+03  0.88730779888E+03  0.00000000000E+00 0. -1.
         -1   -1    0    0    0  501 -0.00000000000E+00 -0.00000000000E+00 -0.28658017294E+03  0.28658017294E+03  0.00000000000E+00 0.  1.
    9000005    1    1    2  502    0 -0.28795733936E+02  0.16155938612E+03 -0.17139494476E+01  0.43235814686E+03  0.40000000000E+03 0.  1.
   -9000005    1    1    2    0  501  0.28795733936E+02 -0.16155938612E+03  0.60244157539E+03  0.74152982496E+03  0.40000000000E+03 0. -1.
<mgrwt>
<rscale>  2 0.43235475E+03</rscale>
<asrwt>0</asrwt>
<pdfrwt beam="1">  1        1 0.13650889E+00 0.43235475E+03</pdfrwt>
<pdfrwt beam="2">  1       -1 0.44089258E-01 0.43235475E+03</pdfrwt>
<totfact> 0.99822791E+01</totfact>
</mgrwt>
</event>
<event>
 4    1  0.2358610E-002  0.4499066E+03  0.7818608E-02  0.1027750E+00
         -3   -1    0    0    0  501 -0.00000000000E+00  0.00000000000E+00  0.41829644516E+03  0.41829644516E+03  0.00000000000E+00 0. -1.
          3   -1    0    0  502    0  0.00000000000E+00 -0.00000000000E+00 -0.11782755517E+04  0.11782755517E+04  0.00000000000E+00 0.  1.
    9000005    1    1    2  502    0 -0.18622102094E+03 -0.87963954318E+02  0.23282714103E+03  0.50658109272E+03  0.40000000000E+03 0. -1.
   -9000005    1    1    2    0  501  0.18622102094E+03  0.87963954318E+02 -0.99280624754E+03  0.10899909041E+04  0.40000000000E+03 0.  1.
<mgrwt>
<rscale>  2 0.44990657E+03</rscale>
<asrwt>0</asrwt>
<pdfrwt beam="1">  1        3 0.18127316E+00 0.44990657E+03</pdfrwt>
<pdfrwt beam="2">  1       -3 0.64353300E-01 0.44990657E+03</pdfrwt>
<totfact> 0.12066230E+00</totfact>
</mgrwt>
</event>
<event>
 4    1  0.2358610E-002  0.5012249E+03  0.7818608E-02  0.1013460E+00
          4   -1    0    0  502    0  0.00000000000E+00  0.00000000000E+00  0.66671923739E+03  0.66671923739E+03  0.00000000000E+00 0.  1.
         -4   -1    0    0    0  501 -0.00000000000E+00 -0.00000000000E+00 -0.51198590866E+03  0.51198590866E+03  0.00000000000E+00 0. -1.
    9000005    1    1    2  502    0 -0.71120617556E+02  0.29354437410E+03  0.38019458236E+03  0.62910600241E+03  0.40000000000E+03 0.  1.
   -9000005    1    1    2    0  501  0.71120617556E+02 -0.29354437410E+03 -0.22546125363E+03  0.54959914365E+03  0.40000000000E+03 0. -1.
<mgrwt>
<rscale>  2 0.50122494E+03</rscale>
<asrwt>0</asrwt>
<pdfrwt beam="1">  1        4 0.10257219E+00 0.50122494E+03</pdfrwt>
<pdfrwt beam="2">  1       -4 0.78767063E-01 0.50122494E+03</pdfrwt>
<totfact> 0.21762518E+00</totfact>
</mgrwt>
</event>
<event>
 4    1  0.2358610E-002  0.5626223E+03  0.7818608E-02  0.9986139E-01
         -1   -1    0    0    0  501 -0.00000000000E+00  0.00000000000E+00  0.37052505976E+03  0.37052505976E+03  0.00000000000E+00 0. -1.
          1   -1    0    0  502    0  0.00000000000E+00 -0.00000000000E+00 -0.10888602876E+04  0.10888602876E+04  0.00000000000E+00 0.  1.
    9000005    1    1    2  502    0  0.35372220882E+03  0.17726955333E+03 -0.69783261147E+03  0.89638956329E+03  0.40000000000E+03 0.  1.
   -9000005    1    1    2    0  501 -0.35372220882E+03 -0.17726955333E+03 -0.20502616328E+02  0.56299578402E+03  0.40000000000E+03 0. -1.
<mgrwt>
<rscale>  2 0.56262234E+03</rscale>
<asrwt>0</asrwt>
<pdfrwt beam="1">  1        1 0.16751697E+00 0.56262234E+03</pdfrwt>
<pdfrwt beam="2">  1       -1 0.57003855E-01 0.56262234E+03</pdfrwt>
<totfact> 0.42270070E+01</totfact>
</mgrwt>
</event>
<event>
 4    1  0.2358610E-002  0.4403026E+03  0.7818608E-02  0.1030654E+00
         -2   -1    0    0    0  501 -0.00000000000E+00  0.00000000000E+00  0.84116534610E+02  0.84116534610E+02  0.00000000000E+00 0. -1.
          2   -1    0    0  502    0  0.00000000000E+00 -0.00000000000E+00 -0.23375643507E+04  0.23375643507E+04  0.00000000000E+00 0.  1.
    9000005    1    1    2  502    0 -0.16150256086E+02 -0.18331827303E+03 -0.98323163226E+03  0.10773165100E+04  0.40000000000E+03 0. -1.
   -9000005    1    1    2    0  501  0.16150256086E+02  0.18331827303E+03 -0.12702161839E+04  0.13443643754E+04  0.40000000000E+03 0.  1.
<mgrwt>
<rscale>  2 0.44030265E+03</rscale>
<asrwt>0</asrwt>
<pdfrwt beam="1">  1        2 0.35962528E+00 0.44030265E+03</pdfrwt>
<pdfrwt beam="2">  1       -2 0.12941005E-01 0.44030265E+03</pdfrwt>
<totfact> 0.20807574E+02</totfact>
</mgrwt>
</event>
<event>
 4    1  0.2358610E-002  0.4836753E+03  0.7818608E-02  0.1018130E+00
         -2   -1    0    0    0  501 -0.00000000000E+00  0.00000000000E+00  0.13018319582E+03  0.13018319582E+03  0.00000000000E+00 0. -1.
          2   -1    0    0  502    0  0.00000000000E+00 -0.00000000000E+00 -0.31817569576E+04  0.31817569576E+04  0.00000000000E+00 0.  1.
    9000005    1    1    2  502    0  0.23417399953E+03 -0.13821830670E+03 -0.26182396719E+04  0.26625402798E+04  0.40000000000E+03 0.  1.
   -9000005    1    1    2    0  501 -0.23417399953E+03  0.13821830670E+03 -0.43333408996E+03  0.64939987364E+03  0.40000000000E+03 0. -1.
<mgrwt>
<rscale>  2 0.48367527E+03</rscale>
<asrwt>0</asrwt>
<pdfrwt beam="1">  1        2 0.48950104E+00 0.48367527E+03</pdfrwt>
<pdfrwt beam="2">  1       -2 0.20028185E-01 0.48367527E+03</pdfrwt>
<totfact> 0.31816568E+01</totfact>
</mgrwt>
</event>
<event>
 4    1  0.2358610E-002  0.4174188E+03  0.7818608E-02  0.1037910E+00
          3   -1    0    0  502    0  0.00000000000E+00  0.00000000000E+00  0.12037065324E+03  0.12037065324E+03  0.00000000000E+00 0. -1.
         -3   -1    0    0    0  501 -0.00000000000E+00 -0.00000000000E+00 -0.19586792053E+04  0.19586792053E+04  0.00000000000E+00 0.  1.
    9000005    1    1    2  502    0 -0.11485567054E+03 -0.32351762188E+02 -0.14502013151E+04  0.15090799568E+04  0.40000000000E+03 0.  1.
   -9000005    1    1    2    0  501  0.11485567054E+03  0.32351762188E+02 -0.38810723702E+03  0.56996990184E+03  0.40000000000E+03 0. -1.
<mgrwt>
<rscale>  2 0.41741881E+03</rscale>
<asrwt>0</asrwt>
<pdfrwt beam="1">  1        3 0.18518564E-01 0.41741881E+03</pdfrwt>
<pdfrwt beam="2">  1       -3 0.30133523E+00 0.41741881E+03</pdfrwt>
<totfact> 0.27024999E+00</totfact>
</mgrwt>
</event>
<event>
 4    1  0.2358610E-002  0.4236021E+03  0.7818608E-02  0.1035900E+00
          1   -1    0    0  502    0  0.00000000000E+00  0.00000000000E+00  0.93290213948E+03  0.93290213948E+03  0.00000000000E+00 0.  1.
         -1   -1    0    0    0  501 -0.00000000000E+00 -0.00000000000E+00 -0.71839559134E+03  0.71839559134E+03  0.00000000000E+00 0. -1.
    9000005    1    1    2  502    0  0.73123963679E+02  0.11870800605E+03  0.81377817664E+03  0.91742772225E+03  0.40000000000E+03 0.  1.
   -9000005    1    1    2    0  501 -0.73123963679E+02 -0.11870800605E+03 -0.59927162850E+03  0.73387000857E+03  0.40000000000E+03 0. -1.
<mgrwt>
<rscale>  2 0.42360206E+03</rscale>
<asrwt>0</asrwt>
<pdfrwt beam="1">  1        1 0.14352341E+00 0.42360206E+03</pdfrwt>
<pdfrwt beam="2">  1       -1 0.11052240E+00 0.42360206E+03</pdfrwt>
<totfact> 0.14072934E+01</totfact>
</mgrwt>
</event>
<event>
 4    1  0.2358610E-002  0.6351116E+03  0.7818608E-02  0.9835124E-01
         -1   -1    0    0    0  501 -0.00000000000E+00  0.00000000000E+00  0.96398410510E+03  0.96398410510E+03  0.00000000000E+00 0. -1.
          1   -1    0    0  502    0  0.00000000000E+00 -0.00000000000E+00 -0.41928653405E+03  0.41928653405E+03  0.00000000000E+00 0.  1.
    9000005    1    1    2  502    0 -0.14815494977E+03 -0.47054957308E+03  0.24121970768E+03  0.67937746301E+03  0.40000000000E+03 0. -1.
   -9000005    1    1    2    0  501  0.14815494977E+03  0.47054957308E+03  0.30347786337E+03  0.70389317614E+03  0.40000000000E+03 0.  1.
<mgrwt>
<rscale>  2 0.63511164E+03</rscale>
<asrwt>0</asrwt>
<pdfrwt beam="1">  1        1 0.64505621E-01 0.63511164E+03</pdfrwt>
<pdfrwt beam="2">  1       -1 0.14830525E+00 0.63511164E+03</pdfrwt>
<totfact> 0.21054895E+01</totfact>
</mgrwt>
</event>
<event>
 4    1  0.2358610E-002  0.4490128E+03  0.7818608E-02  0.1028017E+00
          2   -1    0    0  502    0  0.00000000000E+00  0.00000000000E+00  0.32118461674E+03  0.32118461674E+03  0.00000000000E+00 0.  1.
         -2   -1    0    0    0  501 -0.00000000000E+00 -0.00000000000E+00 -0.66428392423E+03  0.66428392423E+03  0.00000000000E+00 0. -1.
    9000005    1    1    2  502    0  0.38293048648E+02  0.20036493465E+03 -0.55940871391E+02  0.45248408337E+03  0.40000000000E+03 0.  1.
   -9000005    1    1    2    0  501 -0.38293048648E+02 -0.20036493465E+03 -0.28715843610E+03  0.53298445759E+03  0.40000000000E+03 0. -1.
<mgrwt>
<rscale>  2 0.44901277E+03</rscale>
<asrwt>0</asrwt>
<pdfrwt beam="1">  1        2 0.49413018E-01 0.44901277E+03</pdfrwt>
<pdfrwt beam="2">  1       -2 0.10219753E+00 0.44901277E+03</pdfrwt>
<totfact> 0.82105862E+01</totfact>
</mgrwt>
</event>
<event>
 4    1  0.2358610E-002  0.4033628E+03  0.7818608E-02  0.1042621E+00
         -1   -1    0    0    0  501 -0.00000000000E+00  0.00000000000E+00  0.21050412752E+03  0.21050412752E+03  0.00000000000E+00 0. -1.
          1   -1    0    0  502    0  0.00000000000E+00 -0.00000000000E+00 -0.79696534440E+03  0.79696534440E+03  0.00000000000E+00 0.  1.
    9000005    1    1    2  502    0  0.47244440062E+02 -0.21668140564E+02 -0.20572142086E+03  0.45279448808E+03  0.40000000000E+03 0. -1.
   -9000005    1    1    2    0  501 -0.47244440062E+02  0.21668140564E+02 -0.38073979602E+03  0.55467498385E+03  0.40000000000E+03 0.  1.
<mgrwt>
<rscale>  2 0.40336280E+03</rscale>
<asrwt>0</asrwt>
<pdfrwt beam="1">  1        1 0.12261005E+00 0.40336280E+03</pdfrwt>
<pdfrwt beam="2">  1       -1 0.32385250E-01 0.40336280E+03</pdfrwt>
<totfact> 0.20624808E+02</totfact>
</mgrwt>
</event>
<event>
 4    1  0.2358610E-002  0.4280532E+03  0.7818608E-02  0.1034477E+00
         -2   -1    0    0    0  501 -0.00000000000E+00  0.00000000000E+00  0.21103499315E+03  0.21103499315E+03  0.00000000000E+00 0.  1.
          2   -1    0    0  502    0  0.00000000000E+00 -0.00000000000E+00 -0.10013756474E+04  0.10013756474E+04  0.00000000000E+00 0. -1.
    9000005    1    1    2  502    0  0.14402199069E+03  0.49872085059E+02 -0.17413369043E+03  0.46211697741E+03  0.40000000000E+03 0.  1.
   -9000005    1    1    2    0  501 -0.14402199069E+03 -0.49872085059E+02 -0.61620696381E+03  0.75029366312E+03  0.40000000000E+03 0.  1.
<mgrwt>
<rscale>  2 0.42805322E+03</rscale>
<asrwt>0</asrwt>
<pdfrwt beam="1">  1        2 0.15405779E+00 0.42805322E+03</pdfrwt>
<pdfrwt beam="2">  1       -2 0.32466922E-01 0.42805322E+03</pdfrwt>
<totfact> 0.22955576E+02</totfact>
</mgrwt>
</event>
<event>
 4    1  0.2358610E-002  0.4472539E+03  0.7818608E-02  0.1028544E+00
         -2   -1    0    0    0  501 -0.00000000000E+00  0.00000000000E+00  0.10533029386E+04  0.10533029386E+04  0.00000000000E+00 0. -1.
          2   -1    0    0  502    0  0.00000000000E+00 -0.00000000000E+00 -0.19378932660E+03  0.19378932660E+03  0.00000000000E+00 0.  1.
    9000005    1    1    2  502    0 -0.14624910413E+03  0.13655480933E+03  0.51794465866E+03  0.68432644684E+03  0.40000000000E+03 0. -1.
   -9000005    1    1    2    0  501  0.14624910413E+03 -0.13655480933E+03  0.34156895332E+03  0.56276581833E+03  0.40000000000E+03 0.  1.
<mgrwt>
<rscale>  2 0.44725386E+03</rscale>
<asrwt>0</asrwt>
<pdfrwt beam="1">  1        2 0.29813743E-01 0.44725386E+03</pdfrwt>
<pdfrwt beam="2">  1       -2 0.16204660E+00 0.44725386E+03</pdfrwt>
<totfact> 0.45102821E+01</totfact>
</mgrwt>
</event>
<event>
 4    1  0.2358610E-002  0.5479008E+03  0.7818608E-02  0.1001981E+00
          2   -1    0    0  502    0  0.00000000000E+00  0.00000000000E+00  0.80331306997E+03  0.80331306997E+03  0.00000000000E+00 0. -1.
         -2   -1    0    0    0  501 -0.00000000000E+00 -0.00000000000E+00 -0.43711772372E+03  0.43711772372E+03  0.00000000000E+00 0.  1.
    9000005    1    1    2  502    0 -0.36992095849E+03 -0.57912123676E+02 -0.53146140120E+02  0.55047238061E+03  0.40000000000E+03 0.  1.
   -9000005    1    1    2    0  501  0.36992095849E+03  0.57912123676E+02  0.41934148636E+03  0.68995841308E+03  0.40000000000E+03 0. -1.
<mgrwt>
<rscale>  2 0.54790084E+03</rscale>
<asrwt>0</asrwt>
<pdfrwt beam="1">  1        2 0.12358663E+00 0.54790084E+03</pdfrwt>
<pdfrwt beam="2">  1       -2 0.67248881E-01 0.54790084E+03</pdfrwt>
<totfact> 0.71615609E+01</totfact>
</mgrwt>
</event>
<event>
 4    1  0.2358610E-002  0.4589998E+03  0.7818608E-02  0.1025072E+00
         -3   -1    0    0    0  501 -0.00000000000E+00  0.00000000000E+00  0.15920992597E+04  0.15920992597E+04  0.00000000000E+00 0. -1.
          3   -1    0    0  502    0  0.00000000000E+00 -0.00000000000E+00 -0.13352472601E+03  0.13352472601E+03  0.00000000000E+00 0.  1.
    9000005    1    1    2  502    0  0.16243732500E+03 -0.15586836974E+03  0.64763671696E+03  0.79379729806E+03  0.40000000000E+03 0.  1.
   -9000005    1    1    2    0  501 -0.16243732500E+03  0.15586836974E+03  0.81093781672E+03  0.93182668766E+03  0.40000000000E+03 0.  1.
<mgrwt>
<rscale>  2 0.45899982E+03</rscale>
<asrwt>0</asrwt>
<pdfrwt beam="1">  1        3 0.20542267E-01 0.45899982E+03</pdfrwt>
<pdfrwt beam="2">  1       -3 0.24493833E+00 0.45899982E+03</pdfrwt>
<totfact> 0.45947929E+00</totfact>
</mgrwt>
</event>
<event>
 4    1  0.2358610E-002  0.5494037E+03  0.7818608E-02  0.1001632E+00
         -2   -1    0    0    0  501 -0.00000000000E+00  0.00000000000E+00  0.31939576789E+03  0.31939576789E+03  0.00000000000E+00 0.  1.
          2   -1    0    0  502    0  0.00000000000E+00 -0.00000000000E+00 -0.30214230123E+04  0.30214230123E+04  0.00000000000E+00 0. -1.
    9000005    1    1    2  502    0 -0.13303213581E+03  0.35234484238E+03 -0.27357593015E+04  0.27903805104E+04  0.40000000000E+03 0. -1.
   -9000005    1    1    2    0  501  0.13303213581E+03 -0.35234484238E+03  0.33732057151E+02  0.55043826973E+03  0.40000000000E+03 0. -1.
<mgrwt>
<rscale>  2 0.54940371E+03</rscale>
<asrwt>0</asrwt>
<pdfrwt beam="1">  1        2 0.46483429E+00 0.54940371E+03</pdfrwt>
<pdfrwt beam="2">  1       -2 0.49137813E-01 0.54940371E+03</pdfrwt>
<totfact> 0.73706947E+00</totfact>
</mgrwt>
</event>
<event>
 4    1  0.2358610E-002  0.4927098E+03  0.7818608E-02  0.1015699E+00
         -2   -1    0    0    0  501 -0.00000000000E+00  0.00000000000E+00  0.78185215319E+03  0.78185215319E+03  0.00000000000E+00 0. -1.
          2   -1    0    0  502    0  0.00000000000E+00 -0.00000000000E+00 -0.42999089840E+03  0.42999089840E+03  0.00000000000E+00 0.  1.
    9000005    1    1    2  502    0  0.28639069756E+03 -0.27264624640E+02  0.49534837959E+03  0.69866516198E+03  0.40000000000E+03 0. -1.
   -9000005    1    1    2    0  501 -0.28639069756E+03  0.27264624640E+02 -0.14348712480E+03  0.51317788961E+03  0.40000000000E+03 0.  1.
<mgrwt>
<rscale>  2 0.49270985E+03</rscale>
<asrwt>0</asrwt>
<pdfrwt beam="1">  1        2 0.66152446E-01 0.49270985E+03</pdfrwt>
<pdfrwt beam="2">  1       -2 0.12028495E+00 0.49270985E+03</pdfrwt>
<totfact> 0.39972967E+01</totfact>
</mgrwt>
</event>
<event>
 4    1  0.2358610E-002  0.4551177E+03  0.7818608E-02  0.1026207E+00
         -2   -1    0    0    0  501 -0.00000000000E+00  0.00000000000E+00  0.28537660449E+03  0.28537660449E+03  0.00000000000E+00 0.  1.
          2   -1    0    0  502    0  0.00000000000E+00 -0.00000000000E+00 -0.72695111855E+03  0.72695111855E+03  0.00000000000E+00 0. -1.
    9000005    1    1    2  502    0 -0.66419139632E+02  0.20668966760E+03 -0.24075104661E+03  0.51487201055E+03  0.40000000000E+03 0.  1.
   -9000005    1    1    2    0  501  0.66419139632E+02 -0.20668966760E+03 -0.20082346745E+03  0.49745571248E+03  0.40000000000E+03 0.  1.
<mgrwt>
<rscale>  2 0.45511770E+03</rscale>
<asrwt>0</asrwt>
<pdfrwt beam="1">  1        2 0.11183863E+00 0.45511770E+03</pdfrwt>
<pdfrwt beam="2">  1       -2 0.43904094E-01 0.45511770E+03</pdfrwt>
<totfact> 0.19748900E+02</totfact>
</mgrwt>
</event>
<event>
 4    1  0.2358610E-002  0.5173352E+03  0.7818608E-02  0.1009351E+00
          2   -1    0    0  502    0  0.00000000000E+00  0.00000000000E+00  0.17109152766E+03  0.17109152766E+03  0.00000000000E+00 0.  1.
         -2   -1    0    0    0  501 -0.00000000000E+00 -0.00000000000E+00 -0.16058128299E+04  0.16058128299E+04  0.00000000000E+00 0. -1.
    9000005    1    1    2  502    0  0.29080619826E+03  0.15187989614E+03 -0.57448402662E+03  0.77308967438E+03  0.40000000000E+03 0.  1.
   -9000005    1    1    2    0  501 -0.29080619826E+03 -0.15187989614E+03 -0.86023727559E+03  0.10038146832E+04  0.40000000000E+03 0.  1.
<mgrwt>
<rscale>  2 0.51733524E+03</rscale>
<asrwt>0</asrwt>
<pdfrwt beam="1">  1        2 0.26321774E-01 0.51733524E+03</pdfrwt>
<pdfrwt beam="2">  1       -2 0.24704812E+00 0.51733524E+03</pdfrwt>
<totfact> 0.14565887E+01</totfact>
</mgrwt>
</event>
<event>
 4    1  0.2358610E-002  0.7409429E+03  0.7818608E-02  0.9649668E-01
         -1   -1    0    0    0  501 -0.00000000000E+00  0.00000000000E+00  0.23851784581E+03  0.23851784581E+03  0.00000000000E+00 0. -1.
          1   -1    0    0  502    0  0.00000000000E+00 -0.00000000000E+00 -0.30781217492E+04  0.30781217492E+04  0.00000000000E+00 0.  1.
    9000005    1    1    2  502    0  0.52675615528E+03  0.33395253398E+03 -0.22526666418E+04  0.23713927007E+04  0.40000000000E+03 0. -1.
   -9000005    1    1    2    0  501 -0.52675615528E+03 -0.33395253398E+03 -0.58693726161E+03  0.94524689428E+03  0.40000000000E+03 0.  1.
<mgrwt>
<rscale>  2 0.74094287E+03</rscale>
<asrwt>0</asrwt>
<pdfrwt beam="1">  1        1 0.47355719E+00 0.74094287E+03</pdfrwt>
<pdfrwt beam="2">  1       -1 0.36695054E-01 0.74094287E+03</pdfrwt>
<totfact> 0.40048048E+00</totfact>
</mgrwt>
</event>
<event>
 4    1  0.2358610E-002  0.4135682E+03  0.7818608E-02  0.1039180E+00
          1   -1    0    0  502    0  0.00000000000E+00  0.00000000000E+00  0.84921188718E+03  0.84921188718E+03  0.00000000000E+00 0. -1.
         -1   -1    0    0    0  501 -0.00000000000E+00 -0.00000000000E+00 -0.20147212652E+03  0.20147212652E+03  0.00000000000E+00 0.  1.
    9000005    1    1    2  502    0 -0.99233542547E+02  0.34516591372E+02  0.33318854831E+03  0.53108690416E+03  0.40000000000E+03 0. -1.
   -9000005    1    1    2    0  501  0.99233542547E+02 -0.34516591372E+02  0.31455121235E+03  0.51959710953E+03  0.40000000000E+03 0.  1.
<mgrwt>
<rscale>  2 0.41356824E+03</rscale>
<asrwt>0</asrwt>
<pdfrwt beam="1">  1        1 0.13064798E+00 0.41356824E+03</pdfrwt>
<pdfrwt beam="2">  1       -1 0.30995712E-01 0.41356824E+03</pdfrwt>
<totfact> 0.20102098E+02</totfact>
</mgrwt>
</event>
<event>
 4    1  0.2358610E-002  0.4150714E+03  0.7818608E-02  0.1038682E+00
         -2   -1    0    0    0  501 -0.00000000000E+00  0.00000000000E+00  0.34133066104E+03  0.34133066104E+03  0.00000000000E+00 0.  1.
          2   -1    0    0  502    0  0.00000000000E+00 -0.00000000000E+00 -0.95191155827E+03  0.95191155827E+03  0.00000000000E+00 0. -1.
    9000005    1    1    2  502    0  0.38202886311E+02  0.10404224196E+03 -0.74847766723E+03  0.85586393017E+03  0.40000000000E+03 0. -1.
   -9000005    1    1    2    0  501 -0.38202886311E+02 -0.10404224196E+03  0.13789676999E+03  0.43737828914E+03  0.40000000000E+03 0.  1.
<mgrwt>
<rscale>  2 0.41507138E+03</rscale>
<asrwt>0</asrwt>
<pdfrwt beam="1">  1        2 0.14644793E+00 0.41507138E+03</pdfrwt>
<pdfrwt beam="2">  1       -2 0.52512409E-01 0.41507138E+03</pdfrwt>
<totfact> 0.96937661E+01</totfact>
</mgrwt>
</event>
<event>
 4    1  0.2358610E-002  0.4320695E+03  0.7818608E-02  0.1033208E+00
          2   -1    0    0  502    0  0.00000000000E+00  0.00000000000E+00  0.11744213687E+04  0.11744213687E+04  0.00000000000E+00 0. -1.
         -2   -1    0    0    0  501 -0.00000000000E+00 -0.00000000000E+00 -0.17335405936E+03  0.17335405936E+03  0.00000000000E+00 0.  1.
    9000005    1    1    2  502    0 -0.10899931668E+03  0.12166846159E+03  0.69472831714E+03  0.81812682404E+03  0.40000000000E+03 0. -1.
   -9000005    1    1    2    0  501  0.10899931668E+03 -0.12166846159E+03  0.30633899216E+03  0.52964860398E+03  0.40000000000E+03 0.  1.
<mgrwt>
<rscale>  2 0.43206951E+03</rscale>
<asrwt>0</asrwt>
<pdfrwt beam="1">  1        2 0.18068021E+00 0.43206951E+03</pdfrwt>
<pdfrwt beam="2">  1       -2 0.26669856E-01 0.43206951E+03</pdfrwt>
<totfact> 0.25875760E+02</totfact>
</mgrwt>
</event>
<event>
 4    1  0.2358610E-002  0.5428916E+03  0.7818608E-02  0.1003153E+00
         -1   -1    0    0    0  501 -0.00000000000E+00  0.00000000000E+00  0.13851047204E+03  0.13851047204E+03  0.00000000000E+00 0.  1.
          1   -1    0    0  502    0  0.00000000000E+00 -0.00000000000E+00 -0.23063937441E+04  0.23063937441E+04  0.00000000000E+00 0. -1.
    9000005    1    1    2  502    0  0.26085927509E+03  0.25823193265E+03 -0.14240534967E+04  0.15240274453E+04  0.40000000000E+03 0. -1.
   -9000005    1    1    2    0  501 -0.26085927509E+03 -0.25823193265E+03 -0.74382977532E+03  0.92087677085E+03  0.40000000000E+03 0.  1.
<mgrwt>
<rscale>  2 0.54289160E+03</rscale>
<asrwt>0</asrwt>
<pdfrwt beam="1">  1        1 0.35482984E+00 0.54289160E+03</pdfrwt>
<pdfrwt beam="2">  1       -1 0.21309302E-01 0.54289160E+03</pdfrwt>
<totfact> 0.36377488E+01</totfact>
</mgrwt>
</event>
<event>
 4    1  0.2358610E-002  0.4264397E+03  0.7818608E-02  0.1034991E+00
          1   -1    0    0  502    0  0.00000000000E+00  0.00000000000E+00  0.18755205891E+04  0.18755205891E+04  0.00000000000E+00 0. -1.
         -1   -1    0    0    0  501 -0.00000000000E+00 -0.00000000000E+00 -0.96960218489E+02  0.96960218489E+02  0.00000000000E+00 0.  1.
    9000005    1    1    2  502    0  0.13615950902E+03 -0.57544835199E+02  0.88868537643E+03  0.98570407235E+03  0.40000000000E+03 0. -1.
   -9000005    1    1    2    0  501 -0.13615950902E+03  0.57544835199E+02  0.88987499421E+03  0.98677673527E+03  0.40000000000E+03 0. -1.
<mgrwt>
<rscale>  2 0.42643970E+03</rscale>
<asrwt>0</asrwt>
<pdfrwt beam="1">  1        1 0.28854160E+00 0.42643970E+03</pdfrwt>
<pdfrwt beam="2">  1       -1 0.14916958E-01 0.42643970E+03</pdfrwt>
<totfact> 0.12836189E+02</totfact>
</mgrwt>
</event>
<event>
 4    1  0.2358610E-002  0.4062967E+03  0.7818608E-02  0.1041621E+00
         -1   -1    0    0    0  501 -0.00000000000E+00  0.00000000000E+00  0.20179734867E+03  0.20179734867E+03  0.00000000000E+00 0.  1.
          1   -1    0    0  502    0  0.00000000000E+00 -0.00000000000E+00 -0.11447845359E+04  0.11447845359E+04  0.00000000000E+00 0. -1.
    9000005    1    1    2  502    0 -0.65656120259E+02 -0.27681333248E+02 -0.83120102591E+03  0.92518761762E+03  0.40000000000E+03 0. -1.
   -9000005    1    1    2    0  501  0.65656120259E+02  0.27681333248E+02 -0.11178616130E+03  0.42139426692E+03  0.40000000000E+03 0.  1.
<mgrwt>
<rscale>  2 0.40629667E+03</rscale>
<asrwt>0</asrwt>
<pdfrwt beam="1">  1        1 0.17612070E+00 0.40629667E+03</pdfrwt>
<pdfrwt beam="2">  1       -1 0.31045745E-01 0.40629667E+03</pdfrwt>
<totfact> 0.11916316E+02</totfact>
</mgrwt>
</event>
<event>
 4    1  0.2358610E-002  0.5226425E+03  0.7818608E-02  0.1008032E+00
          1   -1    0    0  502    0  0.00000000000E+00  0.00000000000E+00  0.15370749708E+04  0.15370749708E+04  0.00000000000E+00 0. -1.
         -1   -1    0    0    0  501 -0.00000000000E+00 -0.00000000000E+00 -0.17918679085E+03  0.17918679085E+03  0.00000000000E+00 0.  1.
    9000005    1    1    2  502    0 -0.30649736692E+02 -0.33498627934E+03  0.60106785586E+03  0.79651602687E+03  0.40000000000E+03 0.  1.
   -9000005    1    1    2    0  501  0.30649736692E+02  0.33498627934E+03  0.75682032411E+03  0.91974573480E+03  0.40000000000E+03 0.  1.
<mgrwt>
<rscale>  2 0.52264253E+03</rscale>
<asrwt>0</asrwt>
<pdfrwt beam="1">  1        1 0.23647306E+00 0.52264253E+03</pdfrwt>
<pdfrwt beam="2">  1       -1 0.27567200E-01 0.52264253E+03</pdfrwt>
<totfact> 0.76814915E+01</totfact>
</mgrwt>
</event>
<event>
 4    1  0.2358610E-002  0.4077829E+03  0.7818608E-02  0.1041118E+00
          1   -1    0    0  502    0  0.00000000000E+00  0.00000000000E+00  0.12306166205E+03  0.12306166205E+03  0.00000000000E+00 0. -1.
         -1   -1    0    0    0  501 -0.00000000000E+00 -0.00000000000E+00 -0.13518795533E+04  0.13518795533E+04  0.00000000000E+00 0.  1.
    9000005    1    1    2  502    0 -0.40278410504E+02  0.68297369006E+02 -0.63034289857E+03  0.75074566315E+03  0.40000000000E+03 0.  1.
   -9000005    1    1    2    0  501  0.40278410504E+02 -0.68297369006E+02 -0.59847499266E+03  0.72419555218E+03  0.40000000000E+03 0. -1.
<mgrwt>
<rscale>  2 0.40778288E+03</rscale>
<asrwt>0</asrwt>
<pdfrwt beam="1">  1        1 0.18932565E-01 0.40778288E+03</pdfrwt>
<pdfrwt beam="2">  1       -1 0.20798146E+00 0.40778288E+03</pdfrwt>
<totfact> 0.39786417E+01</totfact>
</mgrwt>
</event>
<event>
 4    1  0.2358610E-002  0.4605392E+03  0.7818608E-02  0.1024625E+00
         -2   -1    0    0    0  501 -0.00000000000E+00  0.00000000000E+00  0.20186403851E+03  0.20186403851E+03  0.00000000000E+00 0. -1.
          2   -1    0    0  502    0  0.00000000000E+00 -0.00000000000E+00 -0.12011194416E+04  0.12011194416E+04  0.00000000000E+00 0.  1.
    9000005    1    1    2  502    0  0.62937028764E+02  0.21939752209E+03 -0.25137315943E+03  0.52467590718E+03  0.40000000000E+03 0. -1.
   -9000005    1    1    2    0  501 -0.62937028764E+02 -0.21939752209E+03 -0.74788224367E+03  0.87830757294E+03  0.40000000000E+03 0.  1.
<mgrwt>
<rscale>  2 0.46053919E+03</rscale>
<asrwt>0</asrwt>
<pdfrwt beam="1">  1        2 0.18478761E+00 0.46053919E+03</pdfrwt>
<pdfrwt beam="2">  1       -2 0.31056006E-01 0.46053919E+03</pdfrwt>
<totfact> 0.18843602E+02</totfact>
</mgrwt>
</event>
<event>
 4    1  0.2358610E-002  0.4287142E+03  0.7818608E-02  0.1034267E+00
          2   -1    0    0  502    0  0.00000000000E+00  0.00000000000E+00  0.90059595261E+03  0.90059595261E+03  0.00000000000E+00 0.  1.
         -2   -1    0    0    0  501 -0.00000000000E+00 -0.00000000000E+00 -0.23358286851E+03  0.23358286851E+03  0.00000000000E+00 0. -1.
    9000005    1    1    2  502    0 -0.30559726198E+02 -0.15120167743E+03  0.13197408278E+03  0.44856772359E+03  0.40000000000E+03 0. -1.
   -9000005    1    1    2    0  501  0.30559726198E+02  0.15120167743E+03  0.53503900132E+03  0.68561109753E+03  0.40000000000E+03 0. -1.
<mgrwt>
<rscale>  2 0.42871418E+03</rscale>
<asrwt>0</asrwt>
<pdfrwt beam="1">  1        2 0.13855322E+00 0.42871418E+03</pdfrwt>
<pdfrwt beam="2">  1       -2 0.35935826E-01 0.42871418E+03</pdfrwt>
<totfact> 0.22013632E+02</totfact>
</mgrwt>
</event>
<event>
 4    1  0.2358610E-002  0.4422497E+03  0.7818608E-02  0.1030059E+00
         -2   -1    0    0    0  501 -0.00000000000E+00  0.00000000000E+00  0.13711768172E+03  0.13711768172E+03  0.00000000000E+00 0. -1.
          2   -1    0    0  502    0  0.00000000000E+00 -0.00000000000E+00 -0.22107261338E+04  0.22107261338E+04  0.00000000000E+00 0.  1.
    9000005    1    1    2  502    0 -0.10373122938E+03 -0.15755842377E+03 -0.33757471819E+03  0.55636455243E+03  0.40000000000E+03 0. -1.
   -9000005    1    1    2    0  501  0.10373122938E+03  0.15755842377E+03 -0.17360337339E+04  0.17914792631E+04  0.40000000000E+03 0.  1.
<mgrwt>
<rscale>  2 0.44224973E+03</rscale>
<asrwt>0</asrwt>
<pdfrwt beam="1">  1        2 0.34011169E+00 0.44224973E+03</pdfrwt>
<pdfrwt beam="2">  1       -2 0.21095030E-01 0.44224973E+03</pdfrwt>
<totfact> 0.10653032E+02</totfact>
</mgrwt>
</event>
<event>
 4    1  0.2358610E-002  0.4877748E+03  0.7818608E-02  0.1017020E+00
          2   -1    0    0  502    0  0.00000000000E+00  0.00000000000E+00  0.20543884585E+04  0.20543884585E+04  0.00000000000E+00 0. -1.
         -2   -1    0    0    0  501 -0.00000000000E+00 -0.00000000000E+00 -0.14429289941E+03  0.14429289941E+03  0.00000000000E+00 0.  1.
    9000005    1    1    2  502    0 -0.23307647826E+02  0.27817435456E+03  0.46664116160E+03  0.67503940010E+03  0.40000000000E+03 0. -1.
   -9000005    1    1    2    0  501  0.23307647826E+02 -0.27817435456E+03  0.14434543975E+04  0.15236419578E+04  0.40000000000E+03 0. -1.
<mgrwt>
<rscale>  2 0.48777476E+03</rscale>
<asrwt>0</asrwt>
<pdfrwt beam="1">  1        2 0.31605974E+00 0.48777476E+03</pdfrwt>
<pdfrwt beam="2">  1       -2 0.22198909E-01 0.48777476E+03</pdfrwt>
<totfact> 0.11739791E+02</totfact>
</mgrwt>
</event>
<event>
 4    1  0.2358610E-002  0.4126639E+03  0.7818608E-02  0.1039481E+00
          2   -1    0    0  502    0  0.00000000000E+00  0.00000000000E+00  0.10371378938E+04  0.10371378938E+04  0.00000000000E+00 0.  1.
         -2   -1    0    0    0  501 -0.00000000000E+00 -0.00000000000E+00 -0.16728021021E+03  0.16728021021E+03  0.00000000000E+00 0. -1.
    9000005    1    1    2  502    0 -0.82886848147E+02 -0.58491489510E+02  0.51673019731E+03  0.66128781991E+03  0.40000000000E+03 0.  1.
   -9000005    1    1    2    0  501  0.82886848147E+02  0.58491489510E+02  0.35312748624E+03  0.54313028408E+03  0.40000000000E+03 0. -1.
<mgrwt>
<rscale>  2 0.41266389E+03</rscale>
<asrwt>0</asrwt>
<pdfrwt beam="1">  1        2 0.15955967E+00 0.41266389E+03</pdfrwt>
<pdfrwt beam="2">  1       -2 0.25735418E-01 0.41266389E+03</pdfrwt>
<totfact> 0.33398825E+02</totfact>
</mgrwt>
</event>
<event>
 4    1  0.2358610E-002  0.6427442E+03  0.7818608E-02  0.9820490E-01
         -2   -1    0    0    0  501 -0.00000000000E+00  0.00000000000E+00  0.43091650966E+03  0.43091650966E+03  0.00000000000E+00 0.  1.
          2   -1    0    0  502    0  0.00000000000E+00 -0.00000000000E+00 -0.97266123455E+03  0.97266123455E+03  0.00000000000E+00 0. -1.
    9000005    1    1    2  502    0 -0.40856633103E+03 -0.29358750774E+03 -0.35494848047E+03  0.73424008018E+03  0.40000000000E+03 0. -1.
   -9000005    1    1    2    0  501  0.40856633103E+03  0.29358750774E+03 -0.18679624443E+03  0.66933766403E+03  0.40000000000E+03 0.  1.
<mgrwt>
<rscale>  2 0.64274417E+03</rscale>
<asrwt>0</asrwt>
<pdfrwt beam="1">  1        2 0.14964019E+00 0.64274417E+03</pdfrwt>
<pdfrwt beam="2">  1       -2 0.66294849E-01 0.64274417E+03</pdfrwt>
<totfact> 0.56259081E+01</totfact>
</mgrwt>
</event>
<event>
 4    1  0.2358610E-002  0.4071127E+03  0.7818608E-02  0.1041344E+00
         -2   -1    0    0    0  501 -0.00000000000E+00  0.00000000000E+00  0.84493986189E+03  0.84493986189E+03  0.00000000000E+00 0.  1.
          2   -1    0    0  502    0  0.00000000000E+00 -0.00000000000E+00 -0.27225904209E+03  0.27225904209E+03  0.00000000000E+00 0. -1.
    9000005    1    1    2  502    0 -0.93230343018E+01  0.75191907756E+02 -0.89898392707E+01  0.40721193397E+03  0.40000000000E+03 0. -1.
   -9000005    1    1    2    0  501  0.93230343018E+01 -0.75191907756E+02  0.58167065907E+03  0.70998697001E+03  0.40000000000E+03 0.  1.
<mgrwt>
<rscale>  2 0.40711269E+03</rscale>
<asrwt>0</asrwt>
<pdfrwt beam="1">  1        2 0.41886007E-01 0.40711269E+03</pdfrwt>
<pdfrwt beam="2">  1       -2 0.12999075E+00 0.40711269E+03</pdfrwt>
<totfact> 0.55046463E+01</totfact>
</mgrwt>
</event>
<event>
 4    1  0.2358610E-002  0.4548526E+03  0.7818608E-02  0.1026285E+00
         -2   -1    0    0    0  501 -0.00000000000E+00  0.00000000000E+00  0.27833909200E+03  0.27833909200E+03  0.00000000000E+00 0. -1.
          2   -1    0    0  502    0  0.00000000000E+00 -0.00000000000E+00 -0.12812738892E+04  0.12812738892E+04  0.00000000000E+00 0.  1.
    9000005    1    1    2  502    0 -0.17380808721E+03 -0.12915725096E+03  0.38269335974E+01  0.45486865365E+03  0.40000000000E+03 0.  1.
   -9000005    1    1    2    0  501  0.17380808721E+03  0.12915725096E+03 -0.10067617308E+04  0.11047443276E+04  0.40000000000E+03 0.  1.
<mgrwt>
<rscale>  2 0.45485255E+03</rscale>
<asrwt>0</asrwt>
<pdfrwt beam="1">  1        2 0.19711906E+00 0.45485255E+03</pdfrwt>
<pdfrwt beam="2">  1       -2 0.42821399E-01 0.45485255E+03</pdfrwt>
<totfact> 0.92000339E+01</totfact>
</mgrwt>
</event>
<event>
 4    1  0.2358610E-002  0.5763306E+03  0.7818608E-02  0.9955767E-01
         -2   -1    0    0    0  501 -0.00000000000E+00  0.00000000000E+00  0.15172964182E+03  0.15172964182E+03  0.00000000000E+00 0.  1.
          2   -1    0    0  502    0  0.00000000000E+00 -0.00000000000E+00 -0.24077116011E+04  0.24077116011E+04  0.00000000000E+00 0. -1.
    9000005    1    1    2  502    0  0.23871900031E+03  0.33936740645E+03 -0.74241264725E+03  0.93985825339E+03  0.40000000000E+03 0.  1.
   -9000005    1    1    2    0  501 -0.23871900031E+03 -0.33936740645E+03 -0.15135693121E+04  0.16195829896E+04  0.40000000000E+03 0. -1.
<mgrwt>
<rscale>  2 0.57633063E+03</rscale>
<asrwt>0</asrwt>
<pdfrwt beam="1">  1        2 0.37041715E+00 0.57633063E+03</pdfrwt>
<pdfrwt beam="2">  1       -2 0.23343023E-01 0.57633063E+03</pdfrwt>
<totfact> 0.67860615E+01</totfact>
</mgrwt>
</event>
<event>
 4    1  0.2358610E-002  0.4344079E+03  0.7818608E-02  0.1032477E+00
         -1   -1    0    0    0  501 -0.00000000000E+00  0.00000000000E+00  0.41519275064E+03  0.41519275064E+03  0.00000000000E+00 0. -1.
          1   -1    0    0  502    0  0.00000000000E+00 -0.00000000000E+00 -0.10522949391E+04  0.10522949391E+04  0.00000000000E+00 0.  1.
    9000005    1    1    2  502    0 -0.81487643332E+01  0.16924493026E+03 -0.87157938301E+03  0.97383821534E+03  0.40000000000E+03 0.  1.
   -9000005    1    1    2    0  501  0.81487643332E+01 -0.16924493026E+03  0.23447719456E+03  0.49364947437E+03  0.40000000000E+03 0. -1.
<mgrwt>
<rscale>  2 0.43440793E+03</rscale>
<asrwt>0</asrwt>
<pdfrwt beam="1">  1        1 0.16189153E+00 0.43440793E+03</pdfrwt>
<pdfrwt beam="2">  1       -1 0.63875808E-01 0.43440793E+03</pdfrwt>
<totfact> 0.36774674E+01</totfact>
</mgrwt>
</event>
<event>
 4    1  0.2358610E-002  0.4331050E+03  0.7818608E-02  0.1032884E+00
          1   -1    0    0  502    0  0.00000000000E+00  0.00000000000E+00  0.85180921853E+03  0.85180921853E+03  0.00000000000E+00 0. -1.
         -1   -1    0    0    0  501 -0.00000000000E+00 -0.00000000000E+00 -0.23930818847E+03  0.23930818847E+03  0.00000000000E+00 0.  1.
    9000005    1    1    2  502    0 -0.16246501686E+03 -0.34424664392E+02  0.46035608346E+03  0.63206618546E+03  0.40000000000E+03 0. -1.
   -9000005    1    1    2    0  501  0.16246501686E+03  0.34424664392E+02  0.15214494660E+03  0.45905122154E+03  0.40000000000E+03 0.  1.
<mgrwt>
<rscale>  2 0.43310500E+03</rscale>
<asrwt>0</asrwt>
<pdfrwt beam="1">  1        1 0.13104757E+00 0.43310500E+03</pdfrwt>
<pdfrwt beam="2">  1       -1 0.36816645E-01 0.43310500E+03</pdfrwt>
<totfact> 0.14763440E+02</totfact>
</mgrwt>
</event>
<event>
 4    1  0.2358610E-002  0.4028507E+03  0.7818608E-02  0.1042797E+00
          2   -1    0    0  502    0  0.00000000000E+00  0.00000000000E+00  0.58531523251E+03  0.58531523251E+03  0.00000000000E+00 0.  1.
         -2   -1    0    0    0  501 -0.00000000000E+00 -0.00000000000E+00 -0.28108705960E+03  0.28108705960E+03  0.00000000000E+00 0. -1.
    9000005    1    1    2  502    0  0.13022773562E+02 -0.46033555789E+02  0.10161352049E+03  0.41546839643E+03  0.40000000000E+03 0.  1.
   -9000005    1    1    2    0  501 -0.13022773562E+02  0.46033555789E+02  0.20261465242E+03  0.45093389567E+03  0.40000000000E+03 0.  1.
<mgrwt>
<rscale>  2 0.40285069E+03</rscale>
<asrwt>0</asrwt>
<pdfrwt beam="1">  1        2 0.90048497E-01 0.40285069E+03</pdfrwt>
<pdfrwt beam="2">  1       -2 0.43244163E-01 0.40285069E+03</pdfrwt>
<totfact> 0.26570509E+02</totfact>
</mgrwt>
</event>
<event>
 4    1  0.2358610E-002  0.5832573E+03  0.7818608E-02  0.9940764E-01
         -1   -1    0    0    0  501 -0.00000000000E+00  0.00000000000E+00  0.31634081980E+03  0.31634081980E+03  0.00000000000E+00 0.  1.
          1   -1    0    0  502    0  0.00000000000E+00 -0.00000000000E+00 -0.10808864643E+04  0.10808864643E+04  0.00000000000E+00 0. -1.
    9000005    1    1    2  502    0  0.31648809263E+03 -0.28288576443E+03 -0.43210092488E+03  0.72587896909E+03  0.40000000000E+03 0. -1.
   -9000005    1    1    2    0  501 -0.31648809263E+03  0.28288576443E+03 -0.33244471965E+03  0.67134831505E+03  0.40000000000E+03 0.  1.
<mgrwt>
<rscale>  2 0.58325729E+03</rscale>
<asrwt>0</asrwt>
<pdfrwt beam="1">  1        1 0.16629022E+00 0.58325729E+03</pdfrwt>
<pdfrwt beam="2">  1       -1 0.48667819E-01 0.58325729E+03</pdfrwt>
<totfact> 0.57750316E+01</totfact>
</mgrwt>
</event>
<event>
 4    1  0.2358610E-002  0.4552549E+03  0.7818608E-02  0.1026166E+00
          2   -1    0    0  502    0  0.00000000000E+00  0.00000000000E+00  0.25805767082E+04  0.25805767082E+04  0.00000000000E+00 0.  1.
         -2   -1    0    0    0  501 -0.00000000000E+00 -0.00000000000E+00 -0.81047738286E+02  0.81047738286E+02  0.00000000000E+00 0. -1.
    9000005    1    1    2  502    0 -0.21662334172E+03  0.18203150759E+02  0.11231599251E+04  0.12119180022E+04  0.40000000000E+03 0. -1.
   -9000005    1    1    2    0  501  0.21662334172E+03 -0.18203150759E+02  0.13763690448E+04  0.14497064442E+04  0.40000000000E+03 0.  1.
<mgrwt>
<rscale>  2 0.45525490E+03</rscale>
<asrwt>0</asrwt>
<pdfrwt beam="1">  1        2 0.39701174E+00 0.45525490E+03</pdfrwt>
<pdfrwt beam="2">  1       -2 0.12468885E-01 0.45525490E+03</pdfrwt>
<totfact> 0.16171276E+02</totfact>
</mgrwt>
</event>
<event>
 4    1  0.2358610E-002  0.4778968E+03  0.7818608E-02  0.1019715E+00
         -2   -1    0    0    0  501 -0.00000000000E+00  0.00000000000E+00  0.24594961273E+03  0.24594961273E+03  0.00000000000E+00 0. -1.
          2   -1    0    0  502    0  0.00000000000E+00 -0.00000000000E+00 -0.99979331930E+03  0.99979331930E+03  0.00000000000E+00 0.  1.
    9000005    1    1    2  502    0  0.10402969963E+03  0.23992319708E+03 -0.54315064059E+03  0.72346246432E+03  0.40000000000E+03 0.  1.
   -9000005    1    1    2    0  501 -0.10402969963E+03 -0.23992319708E+03 -0.21069306598E+03  0.52228046771E+03  0.40000000000E+03 0. -1.
<mgrwt>
<rscale>  2 0.47789677E+03</rscale>
<asrwt>0</asrwt>
<pdfrwt beam="1">  1        2 0.15381435E+00 0.47789677E+03</pdfrwt>
<pdfrwt beam="2">  1       -2 0.37838403E-01 0.47789677E+03</pdfrwt>
<totfact> 0.17146808E+02</totfact>
</mgrwt>
</event>
<event>
 4    1  0.2358610E-002  0.4094371E+03  0.7818608E-02  0.1040560E+00
          2   -1    0    0  502    0  0.00000000000E+00  0.00000000000E+00  0.51505902856E+03  0.51505902856E+03  0.00000000000E+00 0. -1.
         -2   -1    0    0    0  501 -0.00000000000E+00 -0.00000000000E+00 -0.34087220276E+03  0.34087220276E+03  0.00000000000E+00 0.  1.
    9000005    1    1    2  502    0  0.87183569216E+02  0.61422395826E+01 -0.38639180546E+01  0.40945528658E+03  0.40000000000E+03 0.  1.
   -9000005    1    1    2    0  501 -0.87183569216E+02 -0.61422395826E+01  0.17805074385E+03  0.44647594474E+03  0.40000000000E+03 0. -1.
<mgrwt>
<rscale>  2 0.40943705E+03</rscale>
<asrwt>0</asrwt>
<pdfrwt beam="1">  1        2 0.79239850E-01 0.40943705E+03</pdfrwt>
<pdfrwt beam="2">  1       -2 0.52441877E-01 0.40943705E+03</pdfrwt>
<totfact> 0.20962101E+02</totfact>
</mgrwt>
</event>
<event>
 4    1  0.2358610E-002  0.4367016E+03  0.7818608E-02  0.1031764E+00
         -2   -1    0    0    0  501 -0.00000000000E+00  0.00000000000E+00  0.15402289574E+04  0.15402289574E+04  0.00000000000E+00 0. -1.
          2   -1    0    0  502    0  0.00000000000E+00 -0.00000000000E+00 -0.27416070222E+03  0.27416070222E+03  0.00000000000E+00 0.  1.
    9000005    1    1    2  502    0  0.81553403486E+02 -0.15510432064E+03 -0.38764197174E+02  0.43841871639E+03  0.40000000000E+03 0.  1.
   -9000005    1    1    2    0  501 -0.81553403486E+02  0.15510432064E+03  0.13048324524E+04  0.13759709433E+04  0.40000000000E+03 0. -1.
<mgrwt>
<rscale>  2 0.43670162E+03</rscale>
<asrwt>0</asrwt>
<pdfrwt beam="1">  1        2 0.42178571E-01 0.43670162E+03</pdfrwt>
<pdfrwt beam="2">  1       -2 0.23695830E+00 0.43670162E+03</pdfrwt>
<totfact> 0.10033208E+01</totfact>
</mgrwt>
</event>
<event>
 4    1  0.2358610E-002  0.4515846E+03  0.7818608E-02  0.1027251E+00
          2   -1    0    0  502    0  0.00000000000E+00  0.00000000000E+00  0.53865672141E+03  0.53865672141E+03  0.00000000000E+00 0. -1.
         -2   -1    0    0    0  501 -0.00000000000E+00 -0.00000000000E+00 -0.40898025212E+03  0.40898025212E+03  0.00000000000E+00 0.  1.
    9000005    1    1    2  502    0  0.74730913989E+02  0.19581616104E+03 -0.64327153221E+02  0.45614324622E+03  0.40000000000E+03 0.  1.
   -9000005    1    1    2    0  501 -0.74730913989E+02 -0.19581616104E+03  0.19400362251E+03  0.49149372730E+03  0.40000000000E+03 0.  1.
<mgrwt>
<rscale>  2 0.45158463E+03</rscale>
<asrwt>0</asrwt>
<pdfrwt beam="1">  1        2 0.82870265E-01 0.45158463E+03</pdfrwt>
<pdfrwt beam="2">  1       -2 0.62920039E-01 0.45158463E+03</pdfrwt>
<totfact> 0.13596633E+02</totfact>
</mgrwt>
</event>
<event>
 4    1  0.2358610E-002  0.4082424E+03  0.7818608E-02  0.1040962E+00
          2   -1    0    0  502    0  0.00000000000E+00  0.00000000000E+00  0.42359205561E+03  0.42359205561E+03  0.00000000000E+00 0.  1.
         -2   -1    0    0    0  501 -0.00000000000E+00 -0.00000000000E+00 -0.39967062917E+03  0.39967062917E+03  0.00000000000E+00 0. -1.
    9000005    1    1    2  502    0  0.79170868936E+02  0.19845974135E+02  0.63318684003E+02  0.41312364362E+03  0.40000000000E+03 0.  1.
   -9000005    1    1    2    0  501 -0.79170868936E+02 -0.19845974135E+02 -0.39397257556E+02  0.41013904116E+03  0.40000000000E+03 0. -1.
<mgrwt>
<rscale>  2 0.40824244E+03</rscale>
<asrwt>0</asrwt>
<pdfrwt beam="1">  1        2 0.65168009E-01 0.40824244E+03</pdfrwt>
<pdfrwt beam="2">  1       -2 0.61487789E-01 0.40824244E+03</pdfrwt>
<totfact> 0.18806574E+02</totfact>
</mgrwt>
</event>
<event>
 4    1  0.2358610E-002  0.4466741E+03  0.7818608E-02  0.1028719E+00
         -3   -1    0    0    0  501 -0.00000000000E+00  0.00000000000E+00  0.13982300626E+04  0.13982300626E+04  0.00000000000E+00 0. -1.
          3   -1    0    0  502    0  0.00000000000E+00 -0.00000000000E+00 -0.16442724400E+03  0.16442724400E+03  0.00000000000E+00 0.  1.
    9000005    1    1    2  502    0  0.10953715794E+03  0.16588960137E+03  0.33283598825E+03  0.55704357449E+03  0.40000000000E+03 0.  1.
   -9000005    1    1    2    0  501 -0.10953715794E+03 -0.16588960137E+03  0.90096683040E+03  0.10056137321E+04  0.40000000000E+03 0. -1.
<mgrwt>
<rscale>  2 0.44667410E+03</rscale>
<asrwt>0</asrwt>
<pdfrwt beam="1">  1        3 0.25296500E-01 0.44667410E+03</pdfrwt>
<pdfrwt beam="2">  1       -3 0.21511231E+00 0.44667410E+03</pdfrwt>
<totfact> 0.46855235E+00</totfact>
</mgrwt>
</event>
<event>
 4    1  0.2358610E-002  0.4805389E+03  0.7818608E-02  0.1018987E+00
          1   -1    0    0  502    0  0.00000000000E+00  0.00000000000E+00  0.32734760892E+04  0.32734760892E+04  0.00000000000E+00 0.  1.
         -1   -1    0    0    0  501 -0.00000000000E+00 -0.00000000000E+00 -0.82283601526E+02  0.82283601526E+02  0.00000000000E+00 0. -1.
    9000005    1    1    2  502    0 -0.25384100260E+03  0.80513376341E+02  0.96177430246E+03  0.10751406732E+04  0.40000000000E+03 0. -1.
   -9000005    1    1    2    0  501  0.25384100260E+03 -0.80513376341E+02  0.22294181852E+04  0.22806190175E+04  0.40000000000E+03 0.  1.
<mgrwt>
<rscale>  2 0.48053892E+03</rscale>
<asrwt>0</asrwt>
<pdfrwt beam="1">  1        1 0.50361161E+00 0.48053892E+03</pdfrwt>
<pdfrwt beam="2">  1       -1 0.12659018E-01 0.48053892E+03</pdfrwt>
<totfact> 0.18215555E+01</totfact>
</mgrwt>
</event>
<event>
 4    1  0.2358610E-002  0.4082762E+03  0.7818608E-02  0.1040951E+00
         -2   -1    0    0    0  501 -0.00000000000E+00  0.00000000000E+00  0.15911653137E+03  0.15911653137E+03  0.00000000000E+00 0. -1.
          2   -1    0    0  502    0  0.00000000000E+00 -0.00000000000E+00 -0.10585755897E+04  0.10585755897E+04  0.00000000000E+00 0.  1.
    9000005    1    1    2  502    0  0.41461079796E+02  0.70501430895E+02 -0.51174291801E+03  0.65465279884E+03  0.40000000000E+03 0. -1.
   -9000005    1    1    2    0  501 -0.41461079796E+02 -0.70501430895E+02 -0.38771614027E+03  0.56303932218E+03  0.40000000000E+03 0. -1.
<mgrwt>
<rscale>  2 0.40827622E+03</rscale>
<asrwt>0</asrwt>
<pdfrwt beam="1">  1        2 0.16285779E+00 0.40827622E+03</pdfrwt>
<pdfrwt beam="2">  1       -2 0.24479466E-01 0.40827622E+03</pdfrwt>
<totfact> 0.35448876E+02</totfact>
</mgrwt>
</event>
<event>
 4    1  0.2358610E-002  0.5661889E+03  0.7818608E-02  0.9978148E-01
         -2   -1    0    0    0  501 -0.00000000000E+00  0.00000000000E+00  0.24670307453E+03  0.24670307453E+03  0.00000000000E+00 0. -1.
          2   -1    0    0  502    0  0.00000000000E+00 -0.00000000000E+00 -0.13546015410E+04  0.13546015410E+04  0.00000000000E+00 0.  1.
    9000005    1    1    2  502    0  0.28019647944E+03  0.28646084970E+03 -0.71555297644E+03  0.91246147732E+03  0.40000000000E+03 0.  1.
   -9000005    1    1    2    0  501 -0.28019647944E+03 -0.28646084970E+03 -0.39234549002E+03  0.68884313820E+03  0.40000000000E+03 0. -1.
<mgrwt>
<rscale>  2 0.56618891E+03</rscale>
<asrwt>0</asrwt>
<pdfrwt beam="1">  1        2 0.20840024E+00 0.56618891E+03</pdfrwt>
<pdfrwt beam="2">  1       -2 0.37954319E-01 0.56618891E+03</pdfrwt>
<totfact> 0.10420392E+02</totfact>
</mgrwt>
</event>
<event>
 4    1  0.2358610E-002  0.4864452E+03  0.7818608E-02  0.1017379E+00
         -2   -1    0    0    0  501 -0.00000000000E+00  0.00000000000E+00  0.61215179006E+02  0.61215179006E+02  0.00000000000E+00 0.  1.
          2   -1    0    0  502    0  0.00000000000E+00 -0.00000000000E+00 -0.41259469843E+04  0.41259469843E+04  0.00000000000E+00 0. -1.
    9000005    1    1    2  502    0  0.14376456745E+03 -0.23656016280E+03 -0.15063914485E+04  0.15829858362E+04  0.40000000000E+03 0.  1.
   -9000005    1    1    2    0  501 -0.14376456745E+03  0.23656016280E+03 -0.25583403568E+04  0.26041763272E+04  0.40000000000E+03 0. -1.
<mgrwt>
<rscale>  2 0.48644523E+03</rscale>
<asrwt>0</asrwt>
<pdfrwt beam="1">  1        2 0.63476106E+00 0.48644523E+03</pdfrwt>
<pdfrwt beam="2">  1       -2 0.94177200E-02 0.48644523E+03</pdfrwt>
<totfact> 0.23981292E+01</totfact>
</mgrwt>
</event>
<event>
 4    1  0.2358610E-002  0.4525257E+03  0.7818608E-02  0.1026972E+00
         -2   -1    0    0    0  501 -0.00000000000E+00  0.00000000000E+00  0.21721591687E+03  0.21721591687E+03  0.00000000000E+00 0. -1.
          2   -1    0    0  502    0  0.00000000000E+00 -0.00000000000E+00 -0.24214909481E+04  0.24214909481E+04  0.00000000000E+00 0.  1.
    9000005    1    1    2  502    0 -0.20926107129E+03 -0.31453241915E+02 -0.21331556852E+04  0.21806266714E+04  0.40000000000E+03 0.  1.
   -9000005    1    1    2    0  501  0.20926107129E+03  0.31453241915E+02 -0.71119345966E+02  0.45808019359E+03  0.40000000000E+03 0. -1.
<mgrwt>
<rscale>  2 0.45252569E+03</rscale>
<asrwt>0</asrwt>
<pdfrwt beam="1">  1        2 0.37253704E+00 0.45252569E+03</pdfrwt>
<pdfrwt beam="2">  1       -2 0.33417836E-01 0.45252569E+03</pdfrwt>
<totfact> 0.35504147E+01</totfact>
</mgrwt>
</event>
<event>
 4    1  0.2358610E-002  0.4566079E+03  0.7818608E-02  0.1025770E+00
          2   -1    0    0  502    0  0.00000000000E+00  0.00000000000E+00  0.10944802301E+04  0.10944802301E+04  0.00000000000E+00 0.  1.
         -2   -1    0    0    0  501 -0.00000000000E+00 -0.00000000000E+00 -0.19589060185E+03  0.19589060185E+03  0.00000000000E+00 0. -1.
    9000005    1    1    2  502    0  0.75640424997E+02  0.20680733671E+03  0.55639269725E+03  0.71976633845E+03  0.40000000000E+03 0. -1.
   -9000005    1    1    2    0  501 -0.75640424997E+02 -0.20680733671E+03  0.34219693099E+03  0.57060449349E+03  0.40000000000E+03 0. -1.
<mgrwt>
<rscale>  2 0.45660787E+03</rscale>
<asrwt>0</asrwt>
<pdfrwt beam="1">  1        2 0.16838157E+00 0.45660787E+03</pdfrwt>
<pdfrwt beam="2">  1       -2 0.30137016E-01 0.45660787E+03</pdfrwt>
<totfact> 0.23041312E+02</totfact>
</mgrwt>
</event>
<event>
 4    1  0.2358610E-002  0.4393899E+03  0.7818608E-02  0.1030934E+00
          2   -1    0    0  502    0  0.00000000000E+00  0.00000000000E+00  0.13993874472E+04  0.13993874472E+04  0.00000000000E+00 0. -1.
         -2   -1    0    0    0  501 -0.00000000000E+00 -0.00000000000E+00 -0.16179618905E+03  0.16179618905E+03  0.00000000000E+00 0.  1.
    9000005    1    1    2  502    0 -0.15682362750E+03  0.92031872378E+02  0.31920234940E+03  0.54309635935E+03  0.40000000000E+03 0.  1.
   -9000005    1    1    2    0  501  0.15682362750E+03 -0.92031872378E+02  0.91838890875E+03  0.10180872769E+04  0.40000000000E+03 0. -1.
<mgrwt>
<rscale>  2 0.43938994E+03</rscale>
<asrwt>0</asrwt>
<pdfrwt beam="1">  1        2 0.21529037E+00 0.43938994E+03</pdfrwt>
<pdfrwt beam="2">  1       -2 0.24891722E-01 0.43938994E+03</pdfrwt>
<totfact> 0.21803683E+02</totfact>
</mgrwt>
</event>
<event>
 4    1  0.2358610E-002  0.5256418E+03  0.7818608E-02  0.1007295E+00
          2   -1    0    0  502    0  0.00000000000E+00  0.00000000000E+00  0.11083533532E+04  0.11083533532E+04  0.00000000000E+00 0. -1.
         -2   -1    0    0    0  501 -0.00000000000E+00 -0.00000000000E+00 -0.31559571321E+03  0.31559571321E+03  0.00000000000E+00 0.  1.
    9000005    1    1    2  502    0  0.33027397685E+03 -0.84961045264E+02  0.72272661008E+03  0.89366270590E+03  0.40000000000E+03 0. -1.
   -9000005    1    1    2    0  501 -0.33027397685E+03  0.84961045264E+02  0.70031029899E+02  0.53028636051E+03  0.40000000000E+03 0.  1.
<mgrwt>
<rscale>  2 0.52564178E+03</rscale>
<asrwt>0</asrwt>
<pdfrwt beam="1">  1        2 0.17051590E+00 0.52564178E+03</pdfrwt>
<pdfrwt beam="2">  1       -2 0.48553187E-01 0.52564178E+03</pdfrwt>
<totfact> 0.89668588E+01</totfact>
</mgrwt>
</event>
<event>
 4    1  0.2358610E-002  0.4144393E+03  0.7818608E-02  0.1038891E+00
         -2   -1    0    0    0  501 -0.00000000000E+00  0.00000000000E+00  0.85729427024E+02  0.85729427024E+02  0.00000000000E+00 0.  1.
          2   -1    0    0  502    0  0.00000000000E+00 -0.00000000000E+00 -0.21366813614E+04  0.21366813614E+04  0.00000000000E+00 0. -1.
    9000005    1    1    2  502    0  0.10635650883E+03 -0.21171973619E+02 -0.13028885585E+04  0.13672156214E+04  0.40000000000E+03 0. -1.
   -9000005    1    1    2    0  501 -0.10635650883E+03  0.21171973619E+02 -0.74806337590E+03  0.85519516708E+03  0.40000000000E+03 0.  1.
<mgrwt>
<rscale>  2 0.41443933E+03</rscale>
<asrwt>0</asrwt>
<pdfrwt beam="1">  1        2 0.32872019E+00 0.41443933E+03</pdfrwt>
<pdfrwt beam="2">  1       -2 0.13189144E-01 0.41443933E+03</pdfrwt>
<totfact> 0.26026092E+02</totfact>
</mgrwt>
</event>
<event>
 4    1  0.2358610E-002  0.4857318E+03  0.7818608E-02  0.1017572E+00
          2   -1    0    0  502    0  0.00000000000E+00  0.00000000000E+00  0.10720649341E+04  0.10720649341E+04  0.00000000000E+00 0. -1.
         -2   -1    0    0    0  501 -0.00000000000E+00 -0.00000000000E+00 -0.27202702429E+03  0.27202702429E+03  0.00000000000E+00 0.  1.
    9000005    1    1    2  502    0  0.20313702123E+03 -0.18620075057E+03  0.69371057392E+03  0.84685874222E+03  0.40000000000E+03 0. -1.
   -9000005    1    1    2    0  501 -0.20313702123E+03  0.18620075057E+03  0.10632733590E+03  0.49723321617E+03  0.40000000000E+03 0.  1.
<mgrwt>
<rscale>  2 0.48573179E+03</rscale>
<asrwt>0</asrwt>
<pdfrwt beam="1">  1        2 0.16493306E+00 0.48573179E+03</pdfrwt>
<pdfrwt beam="2">  1       -2 0.41850312E-01 0.48573179E+03</pdfrwt>
<totfact> 0.12719330E+02</totfact>
</mgrwt>
</event>
<event>
 4    1  0.2358610E-002  0.4671471E+03  0.7818608E-02  0.1022729E+00
         -2   -1    0    0    0  501 -0.00000000000E+00  0.00000000000E+00  0.22619279258E+03  0.22619279258E+03  0.00000000000E+00 0.  1.
          2   -1    0    0  502    0  0.00000000000E+00 -0.00000000000E+00 -0.97694454913E+03  0.97694454913E+03  0.00000000000E+00 0. -1.
    9000005    1    1    2  502    0 -0.23277893882E+02  0.24017607520E+03 -0.30825024507E+03  0.55968260740E+03  0.40000000000E+03 0.  1.
   -9000005    1    1    2    0  501  0.23277893882E+02 -0.24017607520E+03 -0.44250151149E+03  0.64345473431E+03  0.40000000000E+03 0. -1.
<mgrwt>
<rscale>  2 0.46714709E+03</rscale>
<asrwt>0</asrwt>
<pdfrwt beam="1">  1        2 0.15029916E+00 0.46714709E+03</pdfrwt>
<pdfrwt beam="2">  1       -2 0.34798891E-01 0.46714709E+03</pdfrwt>
<totfact> 0.20807497E+02</totfact>
</mgrwt>
</event>
<event>
 4    1  0.2358610E-002  0.5017646E+03  0.7818608E-02  0.1013319E+00
         -1   -1    0    0    0  501 -0.00000000000E+00  0.00000000000E+00  0.10989603779E+04  0.10989603779E+04  0.00000000000E+00 0. -1.
          1   -1    0    0  502    0  0.00000000000E+00 -0.00000000000E+00 -0.24658771878E+03  0.24658771878E+03  0.00000000000E+00 0.  1.
    9000005    1    1    2  502    0  0.25092335387E+03 -0.16972077621E+03  0.60536940594E+03  0.78628225787E+03  0.40000000000E+03 0.  1.
   -9000005    1    1    2    0  501 -0.25092335387E+03  0.16972077621E+03  0.24700325322E+03  0.55926583884E+03  0.40000000000E+03 0.  1.
<mgrwt>
<rscale>  2 0.50176456E+03</rscale>
<asrwt>0</asrwt>
<pdfrwt beam="1">  1        1 0.37936573E-01 0.50176456E+03</pdfrwt>
<pdfrwt beam="2">  1       -1 0.16907082E+00 0.50176456E+03</pdfrwt>
<totfact> 0.29757736E+01</totfact>
</mgrwt>
</event>
<event>
 4    1  0.2358610E-002  0.6064084E+03  0.7818608E-02  0.9892199E-01
          1   -1    0    0  502    0  0.00000000000E+00  0.00000000000E+00  0.14490445342E+04  0.14490445342E+04  0.00000000000E+00 0. -1.
         -1   -1    0    0    0  501 -0.00000000000E+00 -0.00000000000E+00 -0.32361753413E+03  0.32361753413E+03  0.00000000000E+00 0.  1.
    9000005    1    1    2  502    0 -0.45362144508E+03  0.44257213353E+02  0.97446981839E+03  0.11477467244E+04  0.40000000000E+03 0. -1.
   -9000005    1    1    2    0  501  0.45362144508E+03 -0.44257213353E+02  0.15095718165E+03  0.62491534392E+03  0.40000000000E+03 0.  1.
<mgrwt>
<rscale>  2 0.60640837E+03</rscale>
<asrwt>0</asrwt>
<pdfrwt beam="1">  1        1 0.22292992E+00 0.60640837E+03</pdfrwt>
<pdfrwt beam="2">  1       -1 0.49787314E-01 0.60640837E+03</pdfrwt>
<totfact> 0.30206683E+01</totfact>
</mgrwt>
</event>
<event>
 4    1  0.2358610E-002  0.4281318E+03  0.7818608E-02  0.1034452E+00
          2   -1    0    0  502    0  0.00000000000E+00  0.00000000000E+00  0.13943231833E+04  0.13943231833E+04  0.00000000000E+00 0.  1.
         -2   -1    0    0    0  501 -0.00000000000E+00 -0.00000000000E+00 -0.20559907802E+03  0.20559907802E+03  0.00000000000E+00 0. -1.
    9000005    1    1    2  502    0  0.82755585233E+02  0.12825098618E+03  0.11398325127E+03  0.44304512627E+03  0.40000000000E+03 0. -1.
   -9000005    1    1    2    0  501 -0.82755585233E+02 -0.12825098618E+03  0.10747408540E+04  0.11568771350E+04  0.40000000000E+03 0.  1.
<mgrwt>
<rscale>  2 0.42813176E+03</rscale>
<asrwt>0</asrwt>
<pdfrwt beam="1">  1        2 0.21451125E+00 0.42813176E+03</pdfrwt>
<pdfrwt beam="2">  1       -2 0.31630628E-01 0.42813176E+03</pdfrwt>
<totfact> 0.14210551E+02</totfact>
</mgrwt>
</event>
<event>
 4    1  0.2358610E-002  0.5707678E+03  0.7818608E-02  0.9967981E-01
         -1   -1    0    0    0  501 -0.00000000000E+00  0.00000000000E+00  0.40152661986E+03  0.40152661986E+03  0.00000000000E+00 0. -1.
          1   -1    0    0  502    0  0.00000000000E+00 -0.00000000000E+00 -0.85233969407E+03  0.85233969407E+03  0.00000000000E+00 0.  1.
    9000005    1    1    2  502    0  0.13910678223E+03  0.38265543431E+03 -0.36290202007E+03  0.67636806137E+03  0.40000000000E+03 0.  1.
   -9000005    1    1    2    0  501 -0.13910678223E+03 -0.38265543431E+03 -0.87911054138E+02  0.57749825256E+03  0.40000000000E+03 0.  1.
<mgrwt>
<rscale>  2 0.57076780E+03</rscale>
<asrwt>0</asrwt>
<pdfrwt beam="1">  1        1 0.13112918E+00 0.57076780E+03</pdfrwt>
<pdfrwt beam="2">  1       -1 0.61773327E-01 0.57076780E+03</pdfrwt>
<totfact> 0.55227571E+01</totfact>
</mgrwt>
</event>
<event>
 4    1  0.2358610E-002  0.4049374E+03  0.7818608E-02  0.1042083E+00
         -2   -1    0    0    0  501 -0.00000000000E+00  0.00000000000E+00  0.42301591693E+03  0.42301591693E+03  0.00000000000E+00 0. -1.
          2   -1    0    0  502    0  0.00000000000E+00 -0.00000000000E+00 -0.39286515896E+03  0.39286515896E+03  0.00000000000E+00 0.  1.
    9000005    1    1    2  502    0 -0.60887218013E+02 -0.16341515651E+02  0.62159820018E+02  0.40968053612E+03  0.40000000000E+03 0. -1.
   -9000005    1    1    2    0  501  0.60887218013E+02  0.16341515651E+02 -0.32009062047E+02  0.40620053976E+03  0.40000000000E+03 0.  1.
<mgrwt>
<rscale>  2 0.40493740E+03</rscale>
<asrwt>0</asrwt>
<pdfrwt beam="1">  1        2 0.60440794E-01 0.40493740E+03</pdfrwt>
<pdfrwt beam="2">  1       -2 0.65079372E-01 0.40493740E+03</pdfrwt>
<totfact> 0.18134947E+02</totfact>
</mgrwt>
</event>
<event>
 4    1  0.2358610E-002  0.4296154E+03  0.7818608E-02  0.1033982E+00
          1   -1    0    0  502    0  0.00000000000E+00  0.00000000000E+00  0.10462581592E+04  0.10462581592E+04  0.00000000000E+00 0.  1.
         -1   -1    0    0    0  501 -0.00000000000E+00 -0.00000000000E+00 -0.18134177462E+03  0.18134177462E+03  0.00000000000E+00 0. -1.
    9000005    1    1    2  502    0 -0.14934314893E+03  0.47602912038E+02  0.33122541862E+03  0.54247552139E+03  0.40000000000E+03 0. -1.
   -9000005    1    1    2    0  501  0.14934314893E+03 -0.47602912038E+02  0.53369096597E+03  0.68512441244E+03  0.40000000000E+03 0. -1.
<mgrwt>
<rscale>  2 0.42961542E+03</rscale>
<asrwt>0</asrwt>
<pdfrwt beam="1">  1        1 0.16096279E+00 0.42961542E+03</pdfrwt>
<pdfrwt beam="2">  1       -1 0.27898735E-01 0.42961542E+03</pdfrwt>
<totfact> 0.16864781E+02</totfact>
</mgrwt>
</event>
<event>
 4    1  0.2358610E-002  0.8462259E+03  0.7818608E-02  0.9495416E-01
          2   -1    0    0  502    0  0.00000000000E+00  0.00000000000E+00  0.21307735014E+04  0.21307735014E+04  0.00000000000E+00 0.  1.
         -2   -1    0    0    0  501 -0.00000000000E+00 -0.00000000000E+00 -0.37259310988E+03  0.37259310988E+03  0.00000000000E+00 0. -1.
    9000005    1    1    2  502    0 -0.60452849582E+03 -0.43662758803E+03  0.12709538350E+04  0.15268994739E+04  0.40000000000E+03 0.  1.
   -9000005    1    1    2    0  501  0.60452849582E+03  0.43662758803E+03  0.48722655653E+03  0.97646713733E+03  0.40000000000E+03 0. -1.
<mgrwt>
<rscale>  2 0.84622595E+03</rscale>
<asrwt>0</asrwt>
<pdfrwt beam="1">  1        2 0.32781130E+00 0.84622595E+03</pdfrwt>
<pdfrwt beam="2">  1       -2 0.57322018E-01 0.84622595E+03</pdfrwt>
<totfact> 0.16489392E+01</totfact>
</mgrwt>
</event>
<event>
 4    1  0.2358610E-002  0.4096489E+03  0.7818608E-02  0.1040489E+00
          1   -1    0    0  502    0  0.00000000000E+00  0.00000000000E+00  0.24244256842E+04  0.24244256842E+04  0.00000000000E+00 0. -1.
         -1   -1    0    0    0  501 -0.00000000000E+00 -0.00000000000E+00 -0.18186658201E+03  0.18186658201E+03  0.00000000000E+00 0.  1.
    9000005    1    1    2  502    0  0.57733167207E+02  0.66925856158E+02  0.95672754753E+02  0.42067263379E+03  0.40000000000E+03 0.  1.
   -9000005    1    1    2    0  501 -0.57733167207E+02 -0.66925856158E+02  0.21468863474E+04  0.21856196324E+04  0.40000000000E+03 0. -1.
<mgrwt>
<rscale>  2 0.40964886E+03</rscale>
<asrwt>0</asrwt>
<pdfrwt beam="1">  1        1 0.37298854E+00 0.40964886E+03</pdfrwt>
<pdfrwt beam="2">  1       -1 0.27979476E-01 0.40964886E+03</pdfrwt>
<totfact> 0.19742799E+01</totfact>
</mgrwt>
</event>
<event>
 4    1  0.2358610E-002  0.4261890E+03  0.7818608E-02  0.1035071E+00
         -2   -1    0    0    0  501 -0.00000000000E+00  0.00000000000E+00  0.69296144924E+03  0.69296144924E+03  0.00000000000E+00 0. -1.
          2   -1    0    0  502    0  0.00000000000E+00 -0.00000000000E+00 -0.27610555214E+03  0.27610555214E+03  0.00000000000E+00 0.  1.
    9000005    1    1    2  502    0 -0.15257697447E+02 -0.14630209447E+03  0.99366855715E+02  0.43761955188E+03  0.40000000000E+03 0.  1.
   -9000005    1    1    2    0  501  0.15257697447E+02  0.14630209447E+03  0.31748904138E+03  0.53144744950E+03  0.40000000000E+03 0.  1.
<mgrwt>
<rscale>  2 0.42618904E+03</rscale>
<asrwt>0</asrwt>
<pdfrwt beam="1">  1        2 0.42477778E-01 0.42618904E+03</pdfrwt>
<pdfrwt beam="2">  1       -2 0.10660945E+00 0.42618904E+03</pdfrwt>
<totfact> 0.87814517E+01</totfact>
</mgrwt>
</event>
<event>
 4    1  0.2358610E-002  0.4157514E+03  0.7818608E-02  0.1038458E+00
         -2   -1    0    0    0  501 -0.00000000000E+00  0.00000000000E+00  0.43259968888E+03  0.43259968888E+03  0.00000000000E+00 0. -1.
          2   -1    0    0  502    0  0.00000000000E+00 -0.00000000000E+00 -0.40285022336E+03  0.40285022336E+03  0.00000000000E+00 0.  1.
    9000005    1    1    2  502    0  0.75189158686E+02  0.84828035713E+02  0.52630309413E+02  0.41906939127E+03  0.40000000000E+03 0. -1.
   -9000005    1    1    2    0  501 -0.75189158686E+02 -0.84828035713E+02 -0.22880843887E+02  0.41638052097E+03  0.40000000000E+03 0.  1.
<mgrwt>
<rscale>  2 0.41575137E+03</rscale>
<asrwt>0</asrwt>
<pdfrwt beam="1">  1        2 0.61976958E-01 0.41575137E+03</pdfrwt>
<pdfrwt beam="2">  1       -2 0.66553798E-01 0.41575137E+03</pdfrwt>
<totfact> 0.16802874E+02</totfact>
</mgrwt>
</event>
<event>
 4    1  0.2358610E-002  0.4378513E+03  0.7818608E-02  0.1031408E+00
         -2   -1    0    0    0  501 -0.00000000000E+00  0.00000000000E+00  0.72615618916E+02  0.72615618916E+02  0.00000000000E+00 0. -1.
          2   -1    0    0  502    0  0.00000000000E+00 -0.00000000000E+00 -0.31270370811E+04  0.31270370811E+04  0.00000000000E+00 0.  1.
    9000005    1    1    2  502    0  0.16340692549E+03  0.70795027777E+02 -0.21585095734E+04  0.22024707348E+04  0.40000000000E+03 0. -1.
   -9000005    1    1    2    0  501 -0.16340692549E+03 -0.70795027777E+02 -0.89591188875E+03  0.99718196517E+03  0.40000000000E+03 0.  1.
<mgrwt>
<rscale>  2 0.43785130E+03</rscale>
<asrwt>0</asrwt>
<pdfrwt beam="1">  1        2 0.48108257E+00 0.43785130E+03</pdfrwt>
<pdfrwt beam="2">  1       -2 0.11171635E-01 0.43785130E+03</pdfrwt>
<totfact> 0.92677828E+01</totfact>
</mgrwt>
</event>
<event>
 4    1  0.2358610E-002  0.7178858E+03  0.7818608E-02  0.9687125E-01
          2   -1    0    0  502    0  0.00000000000E+00  0.00000000000E+00  0.20002116451E+04  0.20002116451E+04  0.00000000000E+00 0. -1.
         -2   -1    0    0    0  501 -0.00000000000E+00 -0.00000000000E+00 -0.30732664127E+03  0.30732664127E+03  0.00000000000E+00 0.  1.
    9000005    1    1    2  502    0  0.25097034048E+03 -0.54071611884E+03  0.38258679761E+03  0.81346953888E+03  0.40000000000E+03 0.  1.
   -9000005    1    1    2    0  501 -0.25097034048E+03  0.54071611884E+03  0.13102982062E+04  0.14940687475E+04  0.40000000000E+03 0.  1.
<mgrwt>
<rscale>  2 0.71788581E+03</rscale>
<asrwt>0</asrwt>
<pdfrwt beam="1">  1        2 0.30772486E+00 0.71788581E+03</pdfrwt>
<pdfrwt beam="2">  1       -2 0.47281023E-01 0.71788581E+03</pdfrwt>
<totfact> 0.29368024E+01</totfact>
</mgrwt>
</event>
<event>
 4    1  0.2358610E-002  0.4077750E+03  0.7818608E-02  0.1041120E+00
          2   -1    0    0  502    0  0.00000000000E+00  0.00000000000E+00  0.81805987213E+03  0.81805987213E+03  0.00000000000E+00 0. -1.
         -2   -1    0    0    0  501 -0.00000000000E+00 -0.00000000000E+00 -0.55374150051E+03  0.55374150051E+03  0.00000000000E+00 0.  1.
    9000005    1    1    2  502    0 -0.79217062774E+02 -0.22584149762E+01 -0.41352207935E+03  0.58075894619E+03  0.40000000000E+03 0.  1.
   -9000005    1    1    2    0  501  0.79217062774E+02  0.22584149762E+01  0.67784045097E+03  0.79104242645E+03  0.40000000000E+03 0. -1.
<mgrwt>
<rscale>  2 0.40777499E+03</rscale>
<asrwt>0</asrwt>
<pdfrwt beam="1">  1        2 0.12585537E+00 0.40777499E+03</pdfrwt>
<pdfrwt beam="2">  1       -2 0.85191000E-01 0.40777499E+03</pdfrwt>
<totfact> 0.42220150E+01</totfact>
</mgrwt>
</event>
<event>
 4    1  0.2358610E-002  0.4485781E+03  0.7818608E-02  0.1028147E+00
         -2   -1    0    0    0  501 -0.00000000000E+00  0.00000000000E+00  0.33667269390E+03  0.33667269390E+03  0.00000000000E+00 0. -1.
          2   -1    0    0  502    0  0.00000000000E+00 -0.00000000000E+00 -0.84545283363E+03  0.84545283363E+03  0.00000000000E+00 0.  1.
    9000005    1    1    2  502    0 -0.18378961869E+02 -0.20219915345E+03 -0.57436533486E+03  0.72877830771E+03  0.40000000000E+03 0.  1.
   -9000005    1    1    2    0  501  0.18378961869E+02  0.20219915345E+03  0.65585195136E+02  0.45334721982E+03  0.40000000000E+03 0. -1.
<mgrwt>
<rscale>  2 0.44857807E+03</rscale>
<asrwt>0</asrwt>
<pdfrwt beam="1">  1        2 0.13006966E+00 0.44857807E+03</pdfrwt>
<pdfrwt beam="2">  1       -2 0.51795800E-01 0.44857807E+03</pdfrwt>
<totfact> 0.11676864E+02</totfact>
</mgrwt>
</event>
<event>
 4    1  0.2358610E-002  0.4454280E+03  0.7818608E-02  0.1029094E+00
          1   -1    0    0  502    0  0.00000000000E+00  0.00000000000E+00  0.51910852502E+03  0.51910852502E+03  0.00000000000E+00 0.  1.
         -1   -1    0    0    0  501 -0.00000000000E+00 -0.00000000000E+00 -0.40796890673E+03  0.40796890673E+03  0.00000000000E+00 0. -1.
    9000005    1    1    2  502    0  0.19383952236E+03 -0.28849964277E+02  0.17205614330E+03  0.47750329561E+03  0.40000000000E+03 0. -1.
   -9000005    1    1    2    0  501 -0.19383952236E+03  0.28849964277E+02 -0.60916525006E+02  0.44957413614E+03  0.40000000000E+03 0. -1.
<mgrwt>
<rscale>  2 0.44542797E+03</rscale>
<asrwt>0</asrwt>
<pdfrwt beam="1">  1        1 0.79862851E-01 0.44542797E+03</pdfrwt>
<pdfrwt beam="2">  1       -1 0.62764447E-01 0.44542797E+03</pdfrwt>
<totfact> 0.11299632E+02</totfact>
</mgrwt>
</event>
<event>
 4    1  0.2358610E-002  0.4006521E+03  0.7818608E-02  0.1043554E+00
         -2   -1    0    0    0  501 -0.00000000000E+00  0.00000000000E+00  0.12744318177E+04  0.12744318177E+04  0.00000000000E+00 0. -1.
          2   -1    0    0  502    0  0.00000000000E+00 -0.00000000000E+00 -0.13474974687E+03  0.13474974687E+03  0.00000000000E+00 0.  1.
    9000005    1    1    2  502    0  0.15432190556E+02 -0.16851078895E+02  0.74983762331E+03  0.85016385050E+03  0.40000000000E+03 0. -1.
   -9000005    1    1    2    0  501 -0.15432190556E+02  0.16851078895E+02  0.38984444748E+03  0.55901771403E+03  0.40000000000E+03 0.  1.
<mgrwt>
<rscale>  2 0.40065211E+03</rscale>
<asrwt>0</asrwt>
<pdfrwt beam="1">  1        2 0.20730731E-01 0.40065211E+03</pdfrwt>
<pdfrwt beam="2">  1       -2 0.19606643E+00 0.40065211E+03</pdfrwt>
<totfact> 0.40194301E+01</totfact>
</mgrwt>
</event>
<event>
 4    1  0.2358610E-002  0.4509064E+03  0.7818608E-02  0.1027452E+00
          2   -1    0    0  502    0  0.00000000000E+00  0.00000000000E+00  0.52882184592E+03  0.52882184592E+03  0.00000000000E+00 0. -1.
         -2   -1    0    0    0  501 -0.00000000000E+00 -0.00000000000E+00 -0.55837628260E+03  0.55837628260E+03  0.00000000000E+00 0.  1.
    9000005    1    1    2  502    0  0.88719531367E+02 -0.18826954237E+03 -0.31814664736E+03  0.55184587075E+03  0.40000000000E+03 0.  1.
   -9000005    1    1    2    0  501 -0.88719531367E+02  0.18826954237E+03  0.28859221069E+03  0.53535225777E+03  0.40000000000E+03 0. -1.
<mgrwt>
<rscale>  2 0.45090639E+03</rscale>
<asrwt>0</asrwt>
<pdfrwt beam="1">  1        2 0.81357207E-01 0.45090639E+03</pdfrwt>
<pdfrwt beam="2">  1       -2 0.85904044E-01 0.45090639E+03</pdfrwt>
<totfact> 0.70224926E+01</totfact>
</mgrwt>
</event>
<event>
 4    1  0.2358610E-002  0.4117418E+03  0.7818608E-02  0.1039788E+00
          1   -1    0    0  502    0  0.00000000000E+00  0.00000000000E+00  0.51128065332E+03  0.51128065332E+03  0.00000000000E+00 0.  1.
         -1   -1    0    0    0  501 -0.00000000000E+00 -0.00000000000E+00 -0.40027755033E+03  0.40027755033E+03  0.00000000000E+00 0. -1.
    9000005    1    1    2  502    0  0.19558806716E+02  0.95649197645E+02 -0.13331453661E+03  0.43278641569E+03  0.40000000000E+03 0. -1.
   -9000005    1    1    2    0  501 -0.19558806716E+02 -0.95649197645E+02  0.24431763960E+03  0.47877178797E+03  0.40000000000E+03 0.  1.
<mgrwt>
<rscale>  2 0.41174181E+03</rscale>
<asrwt>0</asrwt>
<pdfrwt beam="1">  1        1 0.78658563E-01 0.41174181E+03</pdfrwt>
<pdfrwt beam="2">  1       -1 0.61581161E-01 0.41174181E+03</pdfrwt>
<totfact> 0.12019979E+02</totfact>
</mgrwt>
</event>
<event>
 4    1  0.2358610E-002  0.4082896E+03  0.7818608E-02  0.1040946E+00
         -3   -1    0    0    0  501 -0.00000000000E+00  0.00000000000E+00  0.40653921514E+03  0.40653921514E+03  0.00000000000E+00 0. -1.
          3   -1    0    0  502    0  0.00000000000E+00 -0.00000000000E+00 -0.45820682223E+03  0.45820682223E+03  0.00000000000E+00 0.  1.
    9000005    1    1    2  502    0  0.11198660144E+02 -0.81086312905E+02 -0.16600793283E+03  0.44074826590E+03  0.40000000000E+03 0.  1.
   -9000005    1    1    2    0  501 -0.11198660144E+02  0.81086312905E+02  0.11434032574E+03  0.42399777148E+03  0.40000000000E+03 0. -1.
<mgrwt>
<rscale>  2 0.40828960E+03</rscale>
<asrwt>0</asrwt>
<pdfrwt beam="1">  1        3 0.70493357E-01 0.40828960E+03</pdfrwt>
<pdfrwt beam="2">  1       -3 0.62544495E-01 0.40828960E+03</pdfrwt>
<totfact> 0.12411483E+01</totfact>
</mgrwt>
</event>
<event>
 4    1  0.2358610E-002  0.4891012E+03  0.7818608E-02  0.1016663E+00
         -1   -1    0    0    0  501 -0.00000000000E+00  0.00000000000E+00  0.13721593035E+03  0.13721593035E+03  0.00000000000E+00 0.  1.
          1   -1    0    0  502    0  0.00000000000E+00 -0.00000000000E+00 -0.21846293568E+04  0.21846293568E+04  0.00000000000E+00 0. -1.
    9000005    1    1    2  502    0  0.18733504536E+03  0.21006095703E+03 -0.50196616449E+03  0.70084952392E+03  0.40000000000E+03 0.  1.
   -9000005    1    1    2    0  501 -0.18733504536E+03 -0.21006095703E+03 -0.15454472620E+04  0.16209957633E+04  0.40000000000E+03 0. -1.
<mgrwt>
<rscale>  2 0.48910124E+03</rscale>
<asrwt>0</asrwt>
<pdfrwt beam="1">  1        1 0.33609679E+00 0.48910124E+03</pdfrwt>
<pdfrwt beam="2">  1       -1 0.21110145E-01 0.48910124E+03</pdfrwt>
<totfact> 0.44987327E+01</totfact>
</mgrwt>
</event>
<event>
 4    1  0.2358610E-002  0.6723513E+03  0.7818608E-02  0.9765719E-01
         -2   -1    0    0    0  501 -0.00000000000E+00  0.00000000000E+00  0.59210618281E+03  0.59210618281E+03  0.00000000000E+00 0.  1.
          2   -1    0    0  502    0  0.00000000000E+00 -0.00000000000E+00 -0.97011851705E+03  0.97011851705E+03  0.00000000000E+00 0. -1.
    9000005    1    1    2  502    0 -0.15860645273E+03  0.51662389700E+03  0.17150238120E+03  0.69387990643E+03  0.40000000000E+03 0.  1.
   -9000005    1    1    2    0  501  0.15860645273E+03 -0.51662389700E+03 -0.54951471544E+03  0.86834479343E+03  0.40000000000E+03 0. -1.
<mgrwt>
<rscale>  2 0.67235129E+03</rscale>
<asrwt>0</asrwt>
<pdfrwt beam="1">  1        2 0.14924900E+00 0.67235129E+03</pdfrwt>
<pdfrwt beam="2">  1       -2 0.91093259E-01 0.67235129E+03</pdfrwt>
<totfact> 0.27717289E+01</totfact>
</mgrwt>
</event>
<event>
 4    1  0.2358610E-002  0.4439409E+03  0.7818608E-02  0.1029544E+00
          1   -1    0    0  502    0  0.00000000000E+00  0.00000000000E+00  0.45169394633E+03  0.45169394633E+03  0.00000000000E+00 0. -1.
         -1   -1    0    0    0  501 -0.00000000000E+00 -0.00000000000E+00 -0.45075443220E+03  0.45075443220E+03  0.00000000000E+00 0.  1.
    9000005    1    1    2  502    0  0.71715507881E+01 -0.19243730899E+03 -0.80273702966E+02  0.45114012947E+03  0.40000000000E+03 0.  1.
   -9000005    1    1    2    0  501 -0.71715507881E+01  0.19243730899E+03  0.81213217100E+02  0.45130824905E+03  0.40000000000E+03 0.  1.
<mgrwt>
<rscale>  2 0.44394093E+03</rscale>
<asrwt>0</asrwt>
<pdfrwt beam="1">  1        1 0.69491377E-01 0.44394093E+03</pdfrwt>
<pdfrwt beam="2">  1       -1 0.69346835E-01 0.44394093E+03</pdfrwt>
<totfact> 0.11170059E+02</totfact>
</mgrwt>
</event>
<event>
 4    1  0.2358610E-002  0.5454371E+03  0.7818608E-02  0.1002556E+00
          2   -1    0    0  502    0  0.00000000000E+00  0.00000000000E+00  0.30516153546E+04  0.30516153546E+04  0.00000000000E+00 0.  1.
         -2   -1    0    0    0  501 -0.00000000000E+00 -0.00000000000E+00 -0.12314341803E+03  0.12314341803E+03  0.00000000000E+00 0. -1.
    9000005    1    1    2  502    0  0.33661034886E+03 -0.15554779052E+03  0.21887531569E+04  0.22556910302E+04  0.40000000000E+03 0.  1.
   -9000005    1    1    2    0  501 -0.33661034886E+03  0.15554779052E+03  0.73971877969E+03  0.91906774240E+03  0.40000000000E+03 0. -1.
<mgrwt>
<rscale>  2 0.54543711E+03</rscale>
<asrwt>0</asrwt>
<pdfrwt beam="1">  1        2 0.46947923E+00 0.54543711E+03</pdfrwt>
<pdfrwt beam="2">  1       -2 0.18945144E-01 0.54543711E+03</pdfrwt>
<totfact> 0.41579902E+01</totfact>
</mgrwt>
</event>
<event>
 4    1  0.2358610E-002  0.5217258E+03  0.7818608E-02  0.1008259E+00
         -1   -1    0    0    0  501 -0.00000000000E+00  0.00000000000E+00  0.32441008951E+03  0.32441008951E+03  0.00000000000E+00 0.  1.
          1   -1    0    0  502    0  0.00000000000E+00 -0.00000000000E+00 -0.22056508120E+04  0.22056508120E+04  0.00000000000E+00 0. -1.
    9000005    1    1    2  502    0  0.21484434411E+03  0.25698189334E+03  0.55135113813E+02  0.52463098124E+03  0.40000000000E+03 0.  1.
   -9000005    1    1    2    0  501 -0.21484434411E+03 -0.25698189334E+03 -0.19363758363E+04  0.20054299203E+04  0.40000000000E+03 0. -1.
<mgrwt>
<rscale>  2 0.52172578E+03</rscale>
<asrwt>0</asrwt>
<pdfrwt beam="1">  1        1 0.33933089E+00 0.52172578E+03</pdfrwt>
<pdfrwt beam="2">  1       -1 0.49909245E-01 0.52172578E+03</pdfrwt>
<totfact> 0.95467320E+00</totfact>
</mgrwt>
</event>
<event>
 4    1  0.2358610E-002  0.4552468E+03  0.7818608E-02  0.1026169E+00
         -2   -1    0    0    0  501 -0.00000000000E+00  0.00000000000E+00  0.17935557122E+03  0.17935557122E+03  0.00000000000E+00 0. -1.
          2   -1    0    0  502    0  0.00000000000E+00 -0.00000000000E+00 -0.18321226175E+04  0.18321226175E+04  0.00000000000E+00 0.  1.
    9000005    1    1    2  502    0 -0.20939233114E+03  0.58347841722E+02 -0.14375699531E+04  0.15079313609E+04  0.40000000000E+03 0. -1.
   -9000005    1    1    2    0  501  0.20939233114E+03 -0.58347841722E+02 -0.21519709321E+03  0.50354682791E+03  0.40000000000E+03 0. -1.
<mgrwt>
<rscale>  2 0.45524677E+03</rscale>
<asrwt>0</asrwt>
<pdfrwt beam="1">  1        2 0.28186502E+00 0.45524677E+03</pdfrwt>
<pdfrwt beam="2">  1       -2 0.27593165E-01 0.45524677E+03</pdfrwt>
<totfact> 0.10529513E+02</totfact>
</mgrwt>
</event>
<event>
 4    1  0.2358610E-002  0.4182583E+03  0.7818608E-02  0.1037635E+00
          2   -1    0    0  502    0  0.00000000000E+00  0.00000000000E+00  0.19692727460E+04  0.19692727460E+04  0.00000000000E+00 0. -1.
         -2   -1    0    0    0  501 -0.00000000000E+00 -0.00000000000E+00 -0.89361708259E+02  0.89361708259E+02  0.00000000000E+00 0.  1.
    9000005    1    1    2  502    0 -0.45679414073E+02 -0.11337265549E+03  0.10189937809E+04  0.11014936647E+04  0.40000000000E+03 0. -1.
   -9000005    1    1    2    0  501  0.45679414073E+02  0.11337265549E+03  0.86091725679E+03  0.95714078950E+03  0.40000000000E+03 0. -1.
<mgrwt>
<rscale>  2 0.41825826E+03</rscale>
<asrwt>0</asrwt>
<pdfrwt beam="1">  1        2 0.30296501E+00 0.41825826E+03</pdfrwt>
<pdfrwt beam="2">  1       -2 0.13747957E-01 0.41825826E+03</pdfrwt>
<totfact> 0.29860334E+02</totfact>
</mgrwt>
</event>
<event>
 4    1  0.2358610E-002  0.4544386E+03  0.7818608E-02  0.1026407E+00
          2   -1    0    0  502    0  0.00000000000E+00  0.00000000000E+00  0.55151950618E+03  0.55151950618E+03  0.00000000000E+00 0.  1.
         -2   -1    0    0    0  501 -0.00000000000E+00 -0.00000000000E+00 -0.37687832013E+03  0.37687832013E+03  0.00000000000E+00 0. -1.
    9000005    1    1    2  502    0 -0.16057944564E+03  0.14397464675E+03  0.50031305905E+02  0.45718441448E+03  0.40000000000E+03 0. -1.
   -9000005    1    1    2    0  501  0.16057944564E+03 -0.14397464675E+03  0.12460988014E+03  0.47121341184E+03  0.40000000000E+03 0.  1.
<mgrwt>
<rscale>  2 0.45443862E+03</rscale>
<asrwt>0</asrwt>
<pdfrwt beam="1">  1        2 0.84849155E-01 0.45443862E+03</pdfrwt>
<pdfrwt beam="2">  1       -2 0.57981280E-01 0.45443862E+03</pdfrwt>
<totfact> 0.15701283E+02</totfact>
</mgrwt>
</event>
<event>
 4    1  0.2358610E-002  0.4983585E+03  0.7818608E-02  0.1014208E+00
         -4   -1    0    0    0  501 -0.00000000000E+00  0.00000000000E+00  0.20085962603E+03  0.20085962603E+03  0.00000000000E+00 0.  1.
          4   -1    0    0  502    0  0.00000000000E+00 -0.00000000000E+00 -0.12373935627E+04  0.12373935627E+04  0.00000000000E+00 0. -1.
    9000005    1    1    2  502    0  0.25545502604E+03  0.15199967507E+03 -0.53768602695E+03  0.73312170553E+03  0.40000000000E+03 0.  1.
   -9000005    1    1    2    0  501 -0.25545502604E+03 -0.15199967507E+03 -0.49884790973E+03  0.70513148319E+03  0.40000000000E+03 0. -1.
<mgrwt>
<rscale>  2 0.49835848E+03</rscale>
<asrwt>0</asrwt>
<pdfrwt beam="1">  1        4 0.19036824E+00 0.49835848E+03</pdfrwt>
<pdfrwt beam="2">  1       -4 0.30901480E-01 0.49835848E+03</pdfrwt>
<totfact> 0.30684177E+00</totfact>
</mgrwt>
</event>
<event>
 4    1  0.2358610E-002  0.6181170E+03  0.7818608E-02  0.9868516E-01
          2   -1    0    0  502    0  0.00000000000E+00  0.00000000000E+00  0.41120121096E+03  0.41120121096E+03  0.00000000000E+00 0. -1.
         -2   -1    0    0    0  501 -0.00000000000E+00 -0.00000000000E+00 -0.99608494154E+03  0.99608494154E+03  0.00000000000E+00 0.  1.
    9000005    1    1    2  502    0 -0.26180359119E+02  0.47051372936E+03 -0.11004264448E+03  0.62783593743E+03  0.40000000000E+03 0. -1.
   -9000005    1    1    2    0  501  0.26180359119E+02 -0.47051372936E+03 -0.47484108610E+03  0.77945021507E+03  0.40000000000E+03 0. -1.
<mgrwt>
<rscale>  2 0.61811696E+03</rscale>
<asrwt>0</asrwt>
<pdfrwt beam="1">  1        2 0.63261724E-01 0.61811696E+03</pdfrwt>
<pdfrwt beam="2">  1       -2 0.15324384E+00 0.61811696E+03</pdfrwt>
<totfact> 0.22364057E+01</totfact>
</mgrwt>
</event>
<event>
 4    1  0.2358610E-002  0.4029961E+03  0.7818608E-02  0.1042747E+00
          2   -1    0    0  502    0  0.00000000000E+00  0.00000000000E+00  0.13033781867E+04  0.13033781867E+04  0.00000000000E+00 0. -1.
         -2   -1    0    0    0  501 -0.00000000000E+00 -0.00000000000E+00 -0.12598809977E+03  0.12598809977E+03  0.00000000000E+00 0.  1.
    9000005    1    1    2  502    0  0.32331207572E+02  0.36886077630E+02  0.66360888463E+03  0.77639077884E+03  0.40000000000E+03 0. -1.
   -9000005    1    1    2    0  501 -0.32331207572E+02 -0.36886077630E+02  0.51378120226E+03  0.65297550758E+03  0.40000000000E+03 0.  1.
<mgrwt>
<rscale>  2 0.40299614E+03</rscale>
<asrwt>0</asrwt>
<pdfrwt beam="1">  1        2 0.20051971E+00 0.40299614E+03</pdfrwt>
<pdfrwt beam="2">  1       -2 0.19382785E-01 0.40299614E+03</pdfrwt>
<totfact> 0.38414103E+02</totfact>
</mgrwt>
</event>
<event>
 4    1  0.2358610E-002  0.4416560E+03  0.7818608E-02  0.1030240E+00
         -2   -1    0    0    0  501 -0.00000000000E+00  0.00000000000E+00  0.10965631502E+03  0.10965631502E+03  0.00000000000E+00 0.  1.
          2   -1    0    0  502    0  0.00000000000E+00 -0.00000000000E+00 -0.17843193445E+04  0.17843193445E+04  0.00000000000E+00 0. -1.
    9000005    1    1    2  502    0 -0.99143268801E+02 -0.15884161849E+03 -0.78481080434E+03  0.90054874722E+03  0.40000000000E+03 0.  1.
   -9000005    1    1    2    0  501  0.99143268801E+02  0.15884161849E+03 -0.88985222516E+03  0.99342691233E+03  0.40000000000E+03 0. -1.
<mgrwt>
<rscale>  2 0.44165603E+03</rscale>
<asrwt>0</asrwt>
<pdfrwt beam="1">  1        2 0.27451065E+00 0.44165603E+03</pdfrwt>
<pdfrwt beam="2">  1       -2 0.16870203E-01 0.44165603E+03</pdfrwt>
<totfact> 0.26517335E+02</totfact>
</mgrwt>
</event>
<event>
 4    1  0.2358610E-002  0.4152053E+03  0.7818608E-02  0.1038638E+00
         -1   -1    0    0    0  501 -0.00000000000E+00  0.00000000000E+00  0.13575679833E+03  0.13575679833E+03  0.00000000000E+00 0.  1.
          1   -1    0    0  502    0  0.00000000000E+00 -0.00000000000E+00 -0.12862396433E+04  0.12862396433E+04  0.00000000000E+00 0. -1.
    9000005    1    1    2  502    0 -0.13593056299E+02 -0.11050187694E+03 -0.65541596762E+03  0.77586437385E+03  0.40000000000E+03 0. -1.
   -9000005    1    1    2    0  501  0.13593056299E+02  0.11050187694E+03 -0.49506687739E+03  0.64613206783E+03  0.40000000000E+03 0.  1.
<mgrwt>
<rscale>  2 0.41520529E+03</rscale>
<asrwt>0</asrwt>
<pdfrwt beam="1">  1        1 0.19788302E+00 0.41520529E+03</pdfrwt>
<pdfrwt beam="2">  1       -1 0.20885662E-01 0.41520529E+03</pdfrwt>
<totfact> 0.18463436E+02</totfact>
</mgrwt>
</event>
<event>
 4    1  0.2358610E-002  0.5171614E+03  0.7818608E-02  0.1009394E+00
         -1   -1    0    0    0  501 -0.00000000000E+00  0.00000000000E+00  0.32827919841E+03  0.32827919841E+03  0.00000000000E+00 0. -1.
          1   -1    0    0  502    0  0.00000000000E+00 -0.00000000000E+00 -0.83839204143E+03  0.83839204143E+03  0.00000000000E+00 0.  1.
    9000005    1    1    2  502    0 -0.59576528102E+02 -0.32234537678E+03 -0.35307424700E+03  0.62619272475E+03  0.40000000000E+03 0.  1.
   -9000005    1    1    2    0  501  0.59576528102E+02  0.32234537678E+03 -0.15703859602E+03  0.54047851509E+03  0.40000000000E+03 0. -1.
<mgrwt>
<rscale>  2 0.51716139E+03</rscale>
<asrwt>0</asrwt>
<pdfrwt beam="1">  1        1 0.12898339E+00 0.51716139E+03</pdfrwt>
<pdfrwt beam="2">  1       -1 0.50504493E-01 0.51716139E+03</pdfrwt>
<totfact> 0.84168374E+01</totfact>
</mgrwt>
</event>
<event>
 4    1  0.2358610E-002  0.4782307E+03  0.7818608E-02  0.1019623E+00
          4   -1    0    0  502    0  0.00000000000E+00  0.00000000000E+00  0.11664855386E+04  0.11664855386E+04  0.00000000000E+00 0.  1.
         -4   -1    0    0    0  501 -0.00000000000E+00 -0.00000000000E+00 -0.21926792438E+03  0.21926792438E+03  0.00000000000E+00 0. -1.
    9000005    1    1    2  502    0 -0.24992096939E+03 -0.79019470236E+02  0.24820606396E+03  0.53880499052E+03  0.40000000000E+03 0.  1.
   -9000005    1    1    2    0  501  0.24992096939E+03  0.79019470236E+02  0.69901155031E+03  0.84694847251E+03  0.40000000000E+03 0.  1.
<mgrwt>
<rscale>  2 0.47823066E+03</rscale>
<asrwt>0</asrwt>
<pdfrwt beam="1">  1        4 0.17945931E+00 0.47823066E+03</pdfrwt>
<pdfrwt beam="2">  1       -4 0.33733528E-01 0.47823066E+03</pdfrwt>
<totfact> 0.30595021E+00</totfact>
</mgrwt>
</event>
<event>
 4    1  0.2358610E-002  0.4208670E+03  0.7818608E-02  0.1036785E+00
         -1   -1    0    0    0  501 -0.00000000000E+00  0.00000000000E+00  0.20564129244E+03  0.20564129244E+03  0.00000000000E+00 0.  1.
          1   -1    0    0  502    0  0.00000000000E+00 -0.00000000000E+00 -0.17441327054E+04  0.17441327054E+04  0.00000000000E+00 0. -1.
    9000005    1    1    2  502    0 -0.11333162821E+03 -0.65459546655E+02 -0.14628177254E+04  0.15221579116E+04  0.40000000000E+03 0. -1.
   -9000005    1    1    2    0  501  0.11333162821E+03  0.65459546655E+02 -0.75673687570E+02  0.42761608622E+03  0.40000000000E+03 0.  1.
<mgrwt>
<rscale>  2 0.42086697E+03</rscale>
<asrwt>0</asrwt>
<pdfrwt beam="1">  1        1 0.26832811E+00 0.42086697E+03</pdfrwt>
<pdfrwt beam="2">  1       -1 0.31637122E-01 0.42086697E+03</pdfrwt>
<totfact> 0.44866086E+01</totfact>
</mgrwt>
</event>
<event>
 4    1  0.2358610E-002  0.5858632E+03  0.7818608E-02  0.9935177E-01
         -2   -1    0    0    0  501 -0.00000000000E+00  0.00000000000E+00  0.89952886830E+03  0.89952886830E+03  0.00000000000E+00 0. -1.
          2   -1    0    0  502    0  0.00000000000E+00 -0.00000000000E+00 -0.53423380820E+03  0.53423380820E+03  0.00000000000E+00 0.  1.
    9000005    1    1    2  502    0 -0.33427434466E+02 -0.42675323991E+03 -0.20057029173E+03  0.61924483290E+03  0.40000000000E+03 0.  1.
   -9000005    1    1    2    0  501  0.33427434466E+02  0.42675323991E+03  0.56586535183E+03  0.81451784361E+03  0.40000000000E+03 0. -1.
<mgrwt>
<rscale>  2 0.58586323E+03</rscale>
<asrwt>0</asrwt>
<pdfrwt beam="1">  1        2 0.82189817E-01 0.58586323E+03</pdfrwt>
<pdfrwt beam="2">  1       -2 0.13838906E+00 0.58586323E+03</pdfrwt>
<totfact> 0.21711247E+01</totfact>
</mgrwt>
</event>
<event>
 4    1  0.2358610E-002  0.4422519E+03  0.7818608E-02  0.1030058E+00
         -1   -1    0    0    0  501 -0.00000000000E+00  0.00000000000E+00  0.11856154276E+04  0.11856154276E+04  0.00000000000E+00 0. -1.
          1   -1    0    0  502    0  0.00000000000E+00 -0.00000000000E+00 -0.17686473313E+03  0.17686473313E+03  0.00000000000E+00 0.  1.
    9000005    1    1    2  502    0  0.17693397846E+03 -0.65429995210E+02  0.32768106064E+03  0.55041947141E+03  0.40000000000E+03 0.  1.
   -9000005    1    1    2    0  501 -0.17693397846E+03  0.65429995210E+02  0.68106963382E+03  0.81206068931E+03  0.40000000000E+03 0. -1.
<mgrwt>
<rscale>  2 0.44225187E+03</rscale>
<asrwt>0</asrwt>
<pdfrwt beam="1">  1        1 0.27209960E-01 0.44225187E+03</pdfrwt>
<pdfrwt beam="2">  1       -1 0.18240237E+00 0.44225187E+03</pdfrwt>
<totfact> 0.36925102E+01</totfact>
</mgrwt>
</event>
<event>
 4    1  0.2358610E-002  0.5380762E+03  0.7818608E-02  0.1004292E+00
          2   -1    0    0  502    0  0.00000000000E+00  0.00000000000E+00  0.23991123220E+04  0.23991123220E+04  0.00000000000E+00 0.  1.
         -2   -1    0    0    0  501 -0.00000000000E+00 -0.00000000000E+00 -0.17700495550E+03  0.17700495550E+03  0.00000000000E+00 0. -1.
    9000005    1    1    2  502    0 -0.35631825904E+03 -0.50629187339E+02  0.38446016940E+03  0.66131357024E+03  0.40000000000E+03 0. -1.
   -9000005    1    1    2    0  501  0.35631825904E+03  0.50629187339E+02  0.18376471971E+04  0.19148037073E+04  0.40000000000E+03 0. -1.
<mgrwt>
<rscale>  2 0.53807622E+03</rscale>
<asrwt>0</asrwt>
<pdfrwt beam="1">  1        2 0.36909418E+00 0.53807622E+03</pdfrwt>
<pdfrwt beam="2">  1       -2 0.27231533E-01 0.53807622E+03</pdfrwt>
<totfact> 0.52359881E+01</totfact>
</mgrwt>
</event>
<event>
 4    1  0.2358610E-002  0.4447070E+03  0.7818608E-02  0.1029312E+00
          2   -1    0    0  502    0  0.00000000000E+00  0.00000000000E+00  0.10677055581E+04  0.10677055581E+04  0.00000000000E+00 0. -1.
         -2   -1    0    0    0  501 -0.00000000000E+00 -0.00000000000E+00 -0.54433451313E+03  0.54433451313E+03  0.00000000000E+00 0.  1.
    9000005    1    1    2  502    0  0.83724210788E+02 -0.17536993285E+03  0.91636262646E+03  0.10185699878E+04  0.40000000000E+03 0. -1.
   -9000005    1    1    2    0  501 -0.83724210788E+02  0.17536993285E+03 -0.39299158149E+03  0.59347008345E+03  0.40000000000E+03 0.  1.
<mgrwt>
<rscale>  2 0.44470705E+03</rscale>
<asrwt>0</asrwt>
<pdfrwt beam="1">  1        2 0.16426239E+00 0.44470705E+03</pdfrwt>
<pdfrwt beam="2">  1       -2 0.83743771E-01 0.44470705E+03</pdfrwt>
<totfact> 0.30081195E+01</totfact>
</mgrwt>
</event>
<event>
 4    1  0.2358610E-002  0.7172277E+03  0.7818608E-02  0.9688216E-01
         -2   -1    0    0    0  501 -0.00000000000E+00  0.00000000000E+00  0.29221466314E+03  0.29221466314E+03  0.00000000000E+00 0. -1.
          2   -1    0    0  502    0  0.00000000000E+00 -0.00000000000E+00 -0.25517680634E+04  0.25517680634E+04  0.00000000000E+00 0.  1.
    9000005    1    1    2  502    0 -0.58193048502E+03 -0.12558838632E+03 -0.19216666508E+04  0.20511504697E+04  0.40000000000E+03 0.  1.
   -9000005    1    1    2    0  501  0.58193048502E+03  0.12558838632E+03 -0.33788674943E+03  0.79283225692E+03  0.40000000000E+03 0. -1.
<mgrwt>
<rscale>  2 0.71722767E+03</rscale>
<asrwt>0</asrwt>
<pdfrwt beam="1">  1        2 0.39257973E+00 0.71722767E+03</pdfrwt>
<pdfrwt beam="2">  1       -2 0.44956099E-01 0.71722767E+03</pdfrwt>
<totfact> 0.16058495E+01</totfact>
</mgrwt>
</event>
<event>
 4    1  0.2358610E-002  0.5749944E+03  0.7818608E-02  0.9958687E-01
         -1   -1    0    0    0  501 -0.00000000000E+00  0.00000000000E+00  0.16194819961E+03  0.16194819961E+03  0.00000000000E+00 0. -1.
          1   -1    0    0  502    0  0.00000000000E+00 -0.00000000000E+00 -0.20430275643E+04  0.20430275643E+04  0.00000000000E+00 0.  1.
    9000005    1    1    2  502    0 -0.37760877001E+03  0.16742215636E+03 -0.97060609693E+03  0.11281377385E+04  0.40000000000E+03 0.  1.
   -9000005    1    1    2    0  501  0.37760877001E+03 -0.16742215636E+03 -0.91047326772E+03  0.10768380254E+04  0.40000000000E+03 0.  1.
<mgrwt>
<rscale>  2 0.57499440E+03</rscale>
<asrwt>0</asrwt>
<pdfrwt beam="1">  1        1 0.31431190E+00 0.57499440E+03</pdfrwt>
<pdfrwt beam="2">  1       -1 0.24915110E-01 0.57499440E+03</pdfrwt>
<totfact> 0.41661232E+01</totfact>
</mgrwt>
</event>
<event>
 4    1  0.2358610E-002  0.4648555E+03  0.7818608E-02  0.1023382E+00
         -2   -1    0    0    0  501 -0.00000000000E+00  0.00000000000E+00  0.73040939177E+02  0.73040939177E+02  0.00000000000E+00 0.  1.
          2   -1    0    0  502    0  0.00000000000E+00 -0.00000000000E+00 -0.33149062129E+04  0.33149062129E+04  0.00000000000E+00 0. -1.
    9000005    1    1    2  502    0 -0.22713283436E+03 -0.67092118352E+02 -0.21763909839E+04  0.22254816089E+04  0.40000000000E+03 0. -1.
   -9000005    1    1    2    0  501  0.22713283436E+03  0.67092118352E+02 -0.10654742899E+04  0.11624655432E+04  0.40000000000E+03 0.  1.
<mgrwt>
<rscale>  2 0.46485554E+03</rscale>
<asrwt>0</asrwt>
<pdfrwt beam="1">  1        2 0.50998531E+00 0.46485554E+03</pdfrwt>
<pdfrwt beam="2">  1       -2 0.11237073E-01 0.46485554E+03</pdfrwt>
<totfact> 0.69453698E+01</totfact>
</mgrwt>
</event>
<event>
 4    1  0.2358610E-002  0.4672174E+03  0.7818608E-02  0.1022709E+00
          2   -1    0    0  502    0  0.00000000000E+00  0.00000000000E+00  0.15244308475E+04  0.15244308475E+04  0.00000000000E+00 0. -1.
         -2   -1    0    0    0  501 -0.00000000000E+00 -0.00000000000E+00 -0.17582939635E+03  0.17582939635E+03  0.00000000000E+00 0.  1.
    9000005    1    1    2  502    0 -0.21170749281E+03 -0.11606893297E+03  0.10405462140E+04  0.11406263557E+04  0.40000000000E+03 0. -1.
   -9000005    1    1    2    0  501  0.21170749281E+03  0.11606893297E+03  0.30805523716E+03  0.55963388823E+03  0.40000000000E+03 0.  1.
<mgrwt>
<rscale>  2 0.46721736E+03</rscale>
<asrwt>0</asrwt>
<pdfrwt beam="1">  1        2 0.23452781E+00 0.46721736E+03</pdfrwt>
<pdfrwt beam="2">  1       -2 0.27050677E-01 0.46721736E+03</pdfrwt>
<totfact> 0.15968924E+02</totfact>
</mgrwt>
</event>
<event>
 4    1  0.2358610E-002  0.4634536E+03  0.7818608E-02  0.1023784E+00
         -2   -1    0    0    0  501 -0.00000000000E+00  0.00000000000E+00  0.33387356683E+03  0.33387356683E+03  0.00000000000E+00 0.  1.
          2   -1    0    0  502    0  0.00000000000E+00 -0.00000000000E+00 -0.71972790631E+03  0.71972790631E+03  0.00000000000E+00 0. -1.
    9000005    1    1    2  502    0  0.13025084929E+02 -0.23370825784E+03 -0.21287675897E+02  0.46394220304E+03  0.40000000000E+03 0.  1.
   -9000005    1    1    2    0  501 -0.13025084929E+02  0.23370825784E+03 -0.36456666357E+03  0.58965927010E+03  0.40000000000E+03 0. -1.
<mgrwt>
<rscale>  2 0.46345356E+03</rscale>
<asrwt>0</asrwt>
<pdfrwt beam="1">  1        2 0.11072737E+00 0.46345356E+03</pdfrwt>
<pdfrwt beam="2">  1       -2 0.51365165E-01 0.46345356E+03</pdfrwt>
<totfact> 0.14600933E+02</totfact>
</mgrwt>
</event>
<event>
 4    1  0.2358610E-002  0.4007924E+03  0.7818608E-02  0.1043506E+00
          2   -1    0    0  502    0  0.00000000000E+00  0.00000000000E+00  0.13034715745E+03  0.13034715745E+03  0.00000000000E+00 0. -1.
         -2   -1    0    0    0  501 -0.00000000000E+00 -0.00000000000E+00 -0.16600199210E+04  0.16600199210E+04  0.00000000000E+00 0.  1.
    9000005    1    1    2  502    0 -0.26528649544E+01 -0.25049893841E+02 -0.12192015770E+04  0.12833888811E+04  0.40000000000E+03 0.  1.
   -9000005    1    1    2    0  501  0.26528649544E+01  0.25049893841E+02 -0.31047118656E+03  0.50697819732E+03  0.40000000000E+03 0. -1.
<mgrwt>
<rscale>  2 0.40079238E+03</rscale>
<asrwt>0</asrwt>
<pdfrwt beam="1">  1        2 0.20053410E-01 0.40079238E+03</pdfrwt>
<pdfrwt beam="2">  1       -2 0.25538767E+00 0.40079238E+03</pdfrwt>
<totfact> 0.18057906E+01</totfact>
</mgrwt>
</event>
<event>
 4    1  0.2358610E-002  0.4373271E+03  0.7818608E-02  0.1031570E+00
          2   -1    0    0  502    0  0.00000000000E+00  0.00000000000E+00  0.12478900064E+04  0.12478900064E+04  0.00000000000E+00 0. -1.
         -2   -1    0    0    0  501 -0.00000000000E+00 -0.00000000000E+00 -0.51056409141E+03  0.51056409141E+03  0.00000000000E+00 0.  1.
    9000005    1    1    2  502    0 -0.17678872521E+03 -0.86829513078E+00  0.11041808687E+04  0.11876322655E+04  0.40000000000E+03 0. -1.
   -9000005    1    1    2    0  501  0.17678872521E+03  0.86829513078E+00 -0.36685495364E+03  0.57082183236E+03  0.40000000000E+03 0.  1.
<mgrwt>
<rscale>  2 0.43732712E+03</rscale>
<asrwt>0</asrwt>
<pdfrwt beam="1">  1        2 0.19198308E+00 0.43732712E+03</pdfrwt>
<pdfrwt beam="2">  1       -2 0.78548322E-01 0.43732712E+03</pdfrwt>
<totfact> 0.27223579E+01</totfact>
</mgrwt>
</event>
<event>
 4    1  0.2358610E-002  0.5166480E+03  0.7818608E-02  0.1009523E+00
          1   -1    0    0  502    0  0.00000000000E+00  0.00000000000E+00  0.15044442146E+04  0.15044442146E+04  0.00000000000E+00 0. -1.
         -1   -1    0    0    0  501 -0.00000000000E+00 -0.00000000000E+00 -0.19237770275E+03  0.19237770275E+03  0.00000000000E+00 0.  1.
    9000005    1    1    2  502    0  0.24810647018E+03  0.21299832265E+03  0.41949710551E+03  0.66550952475E+03  0.40000000000E+03 0.  1.
   -9000005    1    1    2    0  501 -0.24810647018E+03 -0.21299832265E+03  0.89256940629E+03  0.10313123926E+04  0.40000000000E+03 0. -1.
<mgrwt>
<rscale>  2 0.51664795E+03</rscale>
<asrwt>0</asrwt>
<pdfrwt beam="1">  1        1 0.23145295E+00 0.51664795E+03</pdfrwt>
<pdfrwt beam="2">  1       -1 0.29596571E-01 0.51664795E+03</pdfrwt>
<totfact> 0.71581256E+01</totfact>
</mgrwt>
</event>
<event>
 4    1  0.2358610E-002  0.4319107E+03  0.7818608E-02  0.1033258E+00
         -2   -1    0    0    0  501 -0.00000000000E+00  0.00000000000E+00  0.63390704039E+02  0.63390704039E+02  0.00000000000E+00 0. -1.
          2   -1    0    0  502    0  0.00000000000E+00 -0.00000000000E+00 -0.30049566521E+04  0.30049566521E+04  0.00000000000E+00 0.  1.
    9000005    1    1    2  502    0  0.48984294045E+02  0.15539428652E+03 -0.16914115018E+04  0.17456860295E+04  0.40000000000E+03 0.  1.
   -9000005    1    1    2    0  501 -0.48984294045E+02 -0.15539428652E+03 -0.12501544463E+04  0.13226613266E+04  0.40000000000E+03 0. -1.
<mgrwt>
<rscale>  2 0.43191069E+03</rscale>
<asrwt>0</asrwt>
<pdfrwt beam="1">  1        2 0.46230086E+00 0.43191069E+03</pdfrwt>
<pdfrwt beam="2">  1       -2 0.97524194E-02 0.43191069E+03</pdfrwt>
<totfact> 0.13722240E+02</totfact>
</mgrwt>
</event>
<event>
 4    1  0.2358610E-002  0.4009562E+03  0.7818608E-02  0.1043449E+00
         -1   -1    0    0    0  501 -0.00000000000E+00  0.00000000000E+00  0.18122308105E+03  0.18122308105E+03  0.00000000000E+00 0.  1.
          1   -1    0    0  502    0  0.00000000000E+00 -0.00000000000E+00 -0.92141662889E+03  0.92141662889E+03  0.00000000000E+00 0. -1.
    9000005    1    1    2  502    0  0.27638564062E+02 -0.14168503888E+01 -0.26372496377E+03  0.47991327779E+03  0.40000000000E+03 0.  1.
   -9000005    1    1    2    0  501 -0.27638564062E+02  0.14168503888E+01 -0.47646858407E+03  0.62272643215E+03  0.40000000000E+03 0. -1.
<mgrwt>
<rscale>  2 0.40095623E+03</rscale>
<asrwt>0</asrwt>
<pdfrwt beam="1">  1        1 0.14175641E+00 0.40095623E+03</pdfrwt>
<pdfrwt beam="2">  1       -1 0.27880474E-01 0.40095623E+03</pdfrwt>
<totfact> 0.21120162E+02</totfact>
</mgrwt>
</event>
<event>
 4    1  0.2358610E-002  0.4607484E+03  0.7818608E-02  0.1024564E+00
         -1   -1    0    0    0  501 -0.00000000000E+00  0.00000000000E+00  0.89256212158E+03  0.89256212158E+03  0.00000000000E+00 0. -1.
          1   -1    0    0  502    0  0.00000000000E+00 -0.00000000000E+00 -0.29610975973E+03  0.29610975973E+03  0.00000000000E+00 0.  1.
    9000005    1    1    2  502    0 -0.22337701523E+03  0.48906186276E+02  0.34581903582E+02  0.46204438536E+03  0.40000000000E+03 0.  1.
   -9000005    1    1    2    0  501  0.22337701523E+03 -0.48906186276E+02  0.56187045827E+03  0.72662749595E+03  0.40000000000E+03 0. -1.
<mgrwt>
<rscale>  2 0.46074842E+03</rscale>
<asrwt>0</asrwt>
<pdfrwt beam="1">  1        1 0.45555348E-01 0.46074842E+03</pdfrwt>
<pdfrwt beam="2">  1       -1 0.13731725E+00 0.46074842E+03</pdfrwt>
<totfact> 0.41391952E+01</totfact>
</mgrwt>
</event>
<event>
 4    1  0.2358610E-002  0.4712703E+03  0.7818608E-02  0.1021562E+00
          1   -1    0    0  502    0  0.00000000000E+00  0.00000000000E+00  0.10700785584E+04  0.10700785584E+04  0.00000000000E+00 0.  1.
         -1   -1    0    0    0  501 -0.00000000000E+00 -0.00000000000E+00 -0.20968239403E+03  0.20968239403E+03  0.00000000000E+00 0. -1.
    9000005    1    1    2  502    0  0.13693196193E+03 -0.20819550731E+03  0.36568268104E+03  0.59650612291E+03  0.40000000000E+03 0.  1.
   -9000005    1    1    2    0  501 -0.13693196193E+03  0.20819550731E+03  0.49471348329E+03  0.68325482948E+03  0.40000000000E+03 0. -1.
<mgrwt>
<rscale>  2 0.47127034E+03</rscale>
<asrwt>0</asrwt>
<pdfrwt beam="1">  1        1 0.16462747E+00 0.47127034E+03</pdfrwt>
<pdfrwt beam="2">  1       -1 0.32258831E-01 0.47127034E+03</pdfrwt>
<totfact> 0.12535790E+02</totfact>
</mgrwt>
</event>
<event>
 4    1  0.2358610E-002  0.4801423E+03  0.7818608E-02  0.1019096E+00
         -1   -1    0    0    0  501 -0.00000000000E+00  0.00000000000E+00  0.91300285394E+02  0.91300285394E+02  0.00000000000E+00 0.  1.
          1   -1    0    0  502    0  0.00000000000E+00 -0.00000000000E+00 -0.25378453707E+04  0.25378453707E+04  0.00000000000E+00 0. -1.
    9000005    1    1    2  502    0  0.10796515267E+03  0.24265237160E+03 -0.11298847876E+04  0.12276710800E+04  0.40000000000E+03 0.  1.
   -9000005    1    1    2    0  501 -0.10796515267E+03 -0.24265237160E+03 -0.13166602977E+04  0.14014745760E+04  0.40000000000E+03 0. -1.
<mgrwt>
<rscale>  2 0.48014232E+03</rscale>
<asrwt>0</asrwt>
<pdfrwt beam="1">  1        1 0.39043771E+00 0.48014232E+03</pdfrwt>
<pdfrwt beam="2">  1       -1 0.14046199E-01 0.48014232E+03</pdfrwt>
<totfact> 0.50814805E+01</totfact>
</mgrwt>
</event>
<event>
 4    1  0.2358610E-002  0.4323237E+03  0.7818608E-02  0.1033128E+00
         -2   -1    0    0    0  501 -0.00000000000E+00  0.00000000000E+00  0.13963674594E+03  0.13963674594E+03  0.00000000000E+00 0. -1.
          2   -1    0    0  502    0  0.00000000000E+00 -0.00000000000E+00 -0.13451778658E+04  0.13451778658E+04  0.00000000000E+00 0.  1.
    9000005    1    1    2  502    0  0.16398927378E+03 -0.33672085363E+01 -0.65507793661E+03  0.78487637437E+03  0.40000000000E+03 0.  1.
   -9000005    1    1    2    0  501 -0.16398927378E+03  0.33672085363E+01 -0.55046318322E+03  0.69993823734E+03  0.40000000000E+03 0.  1.
<mgrwt>
<rscale>  2 0.43232374E+03</rscale>
<asrwt>0</asrwt>
<pdfrwt beam="1">  1        2 0.20695043E+00 0.43232374E+03</pdfrwt>
<pdfrwt beam="2">  1       -2 0.21482577E-01 0.43232374E+03</pdfrwt>
<totfact> 0.30349944E+02</totfact>
</mgrwt>
</event>
<event>
 4    1  0.2358610E-002  0.4964546E+03  0.7818608E-02  0.1014708E+00
         -2   -1    0    0    0  501 -0.00000000000E+00  0.00000000000E+00  0.11345798896E+03  0.11345798896E+03  0.00000000000E+00 0. -1.
          2   -1    0    0  502    0  0.00000000000E+00 -0.00000000000E+00 -0.22168767958E+04  0.22168767958E+04  0.00000000000E+00 0.  1.
    9000005    1    1    2  502    0  0.27957825782E+03 -0.91121568475E+02 -0.88652428645E+03  0.10160671498E+04  0.40000000000E+03 0. -1.
   -9000005    1    1    2    0  501 -0.27957825782E+03  0.91121568475E+02 -0.12168945204E+04  0.13142676350E+04  0.40000000000E+03 0. -1.
<mgrwt>
<rscale>  2 0.49645457E+03</rscale>
<asrwt>0</asrwt>
<pdfrwt beam="1">  1        2 0.34105792E+00 0.49645457E+03</pdfrwt>
<pdfrwt beam="2">  1       -2 0.17455078E-01 0.49645457E+03</pdfrwt>
<totfact> 0.14524935E+02</totfact>
</mgrwt>
</event>
<event>
 4    1  0.2358610E-002  0.5158059E+03  0.7818608E-02  0.1009734E+00
          2   -1    0    0  502    0  0.00000000000E+00  0.00000000000E+00  0.47191466245E+03  0.47191466245E+03  0.00000000000E+00 0.  1.
         -2   -1    0    0    0  501 -0.00000000000E+00 -0.00000000000E+00 -0.82636398702E+03  0.82636398702E+03  0.00000000000E+00 0. -1.
    9000005    1    1    2  502    0 -0.30595173740E+03 -0.11157625979E+03 -0.54314530486E+03  0.74904108670E+03  0.40000000000E+03 0. -1.
   -9000005    1    1    2    0  501  0.30595173740E+03  0.11157625979E+03  0.18869598030E+03  0.54923756276E+03  0.40000000000E+03 0.  1.
<mgrwt>
<rscale>  2 0.51580590E+03</rscale>
<asrwt>0</asrwt>
<pdfrwt beam="1">  1        2 0.72602256E-01 0.51580590E+03</pdfrwt>
<pdfrwt beam="2">  1       -2 0.12713292E+00 0.51580590E+03</pdfrwt>
<totfact> 0.31283074E+01</totfact>
</mgrwt>
</event>
<event>
 4    1  0.2358610E-002  0.4295617E+03  0.7818608E-02  0.1033999E+00
          4   -1    0    0  502    0  0.00000000000E+00  0.00000000000E+00  0.32607633985E+03  0.32607633985E+03  0.00000000000E+00 0.  1.
         -4   -1    0    0    0  501 -0.00000000000E+00 -0.00000000000E+00 -0.56724834941E+03  0.56724834941E+03  0.00000000000E+00 0. -1.
    9000005    1    1    2  502    0  0.46385842193E+02 -0.14957130291E+03 -0.14244633803E+03  0.45256400678E+03  0.40000000000E+03 0.  1.
   -9000005    1    1    2    0  501 -0.46385842193E+02  0.14957130291E+03 -0.98725671527E+02  0.44076068249E+03  0.40000000000E+03 0.  1.
<mgrwt>
<rscale>  2 0.42956166E+03</rscale>
<asrwt>0</asrwt>
<pdfrwt beam="1">  1        4 0.50165592E-01 0.42956166E+03</pdfrwt>
<pdfrwt beam="2">  1       -4 0.87268975E-01 0.42956166E+03</pdfrwt>
<totfact> 0.84117887E+00</totfact>
</mgrwt>
</event>
<event>
 4    1  0.2358610E-002  0.5806792E+03  0.7818608E-02  0.9946322E-01
         -1   -1    0    0    0  501 -0.00000000000E+00  0.00000000000E+00  0.67113938613E+03  0.67113938613E+03  0.00000000000E+00 0. -1.
          1   -1    0    0  502    0  0.00000000000E+00 -0.00000000000E+00 -0.50255895632E+03  0.50255895632E+03  0.00000000000E+00 0.  1.
    9000005    1    1    2  502    0  0.15715316315E+03 -0.39050130309E+03  0.74250063182E+02  0.58540708595E+03  0.40000000000E+03 0. -1.
   -9000005    1    1    2    0  501 -0.15715316315E+03  0.39050130309E+03  0.94330366636E+02  0.58829125650E+03  0.40000000000E+03 0. -1.
<mgrwt>
<rscale>  2 0.58067924E+03</rscale>
<asrwt>0</asrwt>
<pdfrwt beam="1">  1        1 0.77316762E-01 0.58067924E+03</pdfrwt>
<pdfrwt beam="2">  1       -1 0.10325221E+00 0.58067924E+03</pdfrwt>
<totfact> 0.40528709E+01</totfact>
</mgrwt>
</event>
<event>
 4    1  0.2358610E-002  0.4731077E+03  0.7818608E-02  0.1021047E+00
         -1   -1    0    0    0  501 -0.00000000000E+00  0.00000000000E+00  0.14644880047E+03  0.14644880047E+03  0.00000000000E+00 0.  1.
          1   -1    0    0  502    0  0.00000000000E+00 -0.00000000000E+00 -0.17430028173E+04  0.17430028173E+04  0.00000000000E+00 0. -1.
    9000005    1    1    2  502    0  0.38383510738E+02  0.24971504708E+03 -0.11297777081E+04  0.12248381805E+04  0.40000000000E+03 0. -1.
   -9000005    1    1    2    0  501 -0.38383510738E+02 -0.24971504708E+03 -0.46677630874E+03  0.66461343730E+03  0.40000000000E+03 0.  1.
<mgrwt>
<rscale>  2 0.47310770E+03</rscale>
<asrwt>0</asrwt>
<pdfrwt beam="1">  1        1 0.26815428E+00 0.47310770E+03</pdfrwt>
<pdfrwt beam="2">  1       -1 0.22530584E-01 0.47310770E+03</pdfrwt>
<totfact> 0.79309218E+01</totfact>
</mgrwt>
</event>
<event>
 4    1  0.2358610E-002  0.4424021E+03  0.7818608E-02  0.1030012E+00
         -1   -1    0    0    0  501 -0.00000000000E+00  0.00000000000E+00  0.27690817186E+03  0.27690817186E+03  0.00000000000E+00 0. -1.
          1   -1    0    0  502    0  0.00000000000E+00 -0.00000000000E+00 -0.91046284950E+03  0.91046284950E+03  0.00000000000E+00 0.  1.
    9000005    1    1    2  502    0  0.87657110255E+02 -0.16743918679E+03 -0.59756470822E+03  0.74350738447E+03  0.40000000000E+03 0.  1.
   -9000005    1    1    2    0  501 -0.87657110255E+02  0.16743918679E+03 -0.35989969413E+02  0.44386363689E+03  0.40000000000E+03 0. -1.
<mgrwt>
<rscale>  2 0.44240214E+03</rscale>
<asrwt>0</asrwt>
<pdfrwt beam="1">  1        1 0.14007121E+00 0.44240214E+03</pdfrwt>
<pdfrwt beam="2">  1       -1 0.42601257E-01 0.44240214E+03</pdfrwt>
<totfact> 0.10169647E+02</totfact>
</mgrwt>
</event>
<event>
 4    1  0.2358610E-002  0.5254680E+03  0.7818608E-02  0.1007337E+00
         -2   -1    0    0    0  501 -0.00000000000E+00  0.00000000000E+00  0.24688836270E+03  0.24688836270E+03  0.00000000000E+00 0. -1.
          2   -1    0    0  502    0  0.00000000000E+00 -0.00000000000E+00 -0.11963230429E+04  0.11963230429E+04  0.00000000000E+00 0.  1.
    9000005    1    1    2  502    0  0.25780985665E+03 -0.22282424867E+03 -0.65889917139E+03  0.84277202495E+03  0.40000000000E+03 0. -1.
   -9000005    1    1    2    0  501 -0.25780985665E+03  0.22282424867E+03 -0.29053550885E+03  0.60043938069E+03  0.40000000000E+03 0.  1.
<mgrwt>
<rscale>  2 0.52546795E+03</rscale>
<asrwt>0</asrwt>
<pdfrwt beam="1">  1        2 0.18404970E+00 0.52546795E+03</pdfrwt>
<pdfrwt beam="2">  1       -2 0.37982825E-01 0.52546795E+03</pdfrwt>
<totfact> 0.12884147E+02</totfact>
</mgrwt>
</event>
<event>
 4    1  0.2358610E-002  0.4311947E+03  0.7818608E-02  0.1033483E+00
         -2   -1    0    0    0  501 -0.00000000000E+00  0.00000000000E+00  0.16386665270E+03  0.16386665270E+03  0.00000000000E+00 0. -1.
          2   -1    0    0  502    0  0.00000000000E+00 -0.00000000000E+00 -0.12265507816E+04  0.12265507816E+04  0.00000000000E+00 0.  1.
    9000005    1    1    2  502    0 -0.24161488350E+02 -0.15920147108E+03 -0.34102978316E+03  0.54975467157E+03  0.40000000000E+03 0. -1.
   -9000005    1    1    2    0  501  0.24161488350E+02  0.15920147108E+03 -0.72165434570E+03  0.84066276270E+03  0.40000000000E+03 0.  1.
<mgrwt>
<rscale>  2 0.43119472E+03</rscale>
<asrwt>0</asrwt>
<pdfrwt beam="1">  1        2 0.18870013E+00 0.43119472E+03</pdfrwt>
<pdfrwt beam="2">  1       -2 0.25210253E-01 0.43119472E+03</pdfrwt>
<totfact> 0.26705406E+02</totfact>
</mgrwt>
</event>
<event>
 4    1  0.2358610E-002  0.4432776E+03  0.7818608E-02  0.1029746E+00
          2   -1    0    0  502    0  0.00000000000E+00  0.00000000000E+00  0.20855846826E+04  0.20855846826E+04  0.00000000000E+00 0. -1.
         -2   -1    0    0    0  501 -0.00000000000E+00 -0.00000000000E+00 -0.28708478951E+03  0.28708478951E+03  0.00000000000E+00 0.  1.
    9000005    1    1    2  502    0 -0.12083046721E+03 -0.14796966887E+03 -0.73124103707E+02  0.44926847124E+03  0.40000000000E+03 0.  1.
   -9000005    1    1    2    0  501  0.12083046721E+03  0.14796966887E+03  0.18716239968E+04  0.19234010008E+04  0.40000000000E+03 0. -1.
<mgrwt>
<rscale>  2 0.44327759E+03</rscale>
<asrwt>0</asrwt>
<pdfrwt beam="1">  1        2 0.32085917E+00 0.44327759E+03</pdfrwt>
<pdfrwt beam="2">  1       -2 0.44166892E-01 0.44327759E+03</pdfrwt>
<totfact> 0.31732292E+01</totfact>
</mgrwt>
</event>
<event>
 4    1  0.2358610E-002  0.4045717E+03  0.7818608E-02  0.1042208E+00
          1   -1    0    0  502    0  0.00000000000E+00  0.00000000000E+00  0.31625334504E+03  0.31625334504E+03  0.00000000000E+00 0. -1.
         -1   -1    0    0    0  501 -0.00000000000E+00 -0.00000000000E+00 -0.66400730820E+03  0.66400730820E+03  0.00000000000E+00 0.  1.
    9000005    1    1    2  502    0 -0.36212796596E+02 -0.48650536205E+02  0.56306666495E+02  0.40847115198E+03  0.40000000000E+03 0. -1.
   -9000005    1    1    2    0  501  0.36212796596E+02  0.48650536205E+02 -0.40406062966E+03  0.57178950126E+03  0.40000000000E+03 0.  1.
<mgrwt>
<rscale>  2 0.40457168E+03</rscale>
<asrwt>0</asrwt>
<pdfrwt beam="1">  1        1 0.48654361E-01 0.40457168E+03</pdfrwt>
<pdfrwt beam="2">  1       -1 0.10215497E+00 0.40457168E+03</pdfrwt>
<totfact> 0.77999672E+01</totfact>
</mgrwt>
</event>
<event>
 4    1  0.2358610E-002  0.4329553E+03  0.7818608E-02  0.1032930E+00
          2   -1    0    0  502    0  0.00000000000E+00  0.00000000000E+00  0.16890510409E+04  0.16890510409E+04  0.00000000000E+00 0.  1.
         -2   -1    0    0    0  501 -0.00000000000E+00 -0.00000000000E+00 -0.24691302957E+03  0.24691302957E+03  0.00000000000E+00 0. -1.
    9000005    1    1    2  502    0  0.15653441210E+03 -0.54288516505E+02  0.14392904651E+04  0.15029994371E+04  0.40000000000E+03 0.  1.
   -9000005    1    1    2    0  501 -0.15653441210E+03  0.54288516505E+02  0.28475462591E+01  0.43296463333E+03  0.40000000000E+03 0. -1.
<mgrwt>
<rscale>  2 0.43295527E+03</rscale>
<asrwt>0</asrwt>
<pdfrwt beam="1">  1        2 0.25985400E+00 0.43295527E+03</pdfrwt>
<pdfrwt beam="2">  1       -2 0.37986621E-01 0.43295527E+03</pdfrwt>
<totfact> 0.69507626E+01</totfact>
</mgrwt>
</event>
<event>
 4    1  0.2358610E-002  0.4763666E+03  0.7818608E-02  0.1020139E+00
         -2   -1    0    0    0  501 -0.00000000000E+00  0.00000000000E+00  0.24243408662E+03  0.24243408662E+03  0.00000000000E+00 0.  1.
          2   -1    0    0  502    0  0.00000000000E+00 -0.00000000000E+00 -0.13538307762E+04  0.13538307762E+04  0.00000000000E+00 0. -1.
    9000005    1    1    2  502    0  0.21285429785E+03 -0.14703119231E+03 -0.11231603387E+03  0.48942825326E+03  0.40000000000E+03 0.  1.
   -9000005    1    1    2    0  501 -0.21285429785E+03  0.14703119231E+03 -0.99908065572E+03  0.11068366096E+04  0.40000000000E+03 0. -1.
<mgrwt>
<rscale>  2 0.47636659E+03</rscale>
<asrwt>0</asrwt>
<pdfrwt beam="1">  1        2 0.20828166E+00 0.47636659E+03</pdfrwt>
<pdfrwt beam="2">  1       -2 0.37297552E-01 0.47636659E+03</pdfrwt>
<totfact> 0.10904525E+02</totfact>
</mgrwt>
</event>
<event>
 4    1  0.2358610E-002  0.4306478E+03  0.7818608E-02  0.1033656E+00
          4   -1    0    0  502    0  0.00000000000E+00  0.00000000000E+00  0.25210869713E+03  0.25210869713E+03  0.00000000000E+00 0. -1.
         -4   -1    0    0    0  501 -0.00000000000E+00 -0.00000000000E+00 -0.76035768409E+03  0.76035768409E+03  0.00000000000E+00 0.  1.
    9000005    1    1    2  502    0 -0.15552005070E+03  0.35651169242E+02 -0.16282336047E+03  0.46040084573E+03  0.40000000000E+03 0. -1.
   -9000005    1    1    2    0  501  0.15552005070E+03 -0.35651169242E+02 -0.34542562648E+03  0.55206553548E+03  0.40000000000E+03 0.  1.
<mgrwt>
<rscale>  2 0.43064776E+03</rscale>
<asrwt>0</asrwt>
<pdfrwt beam="1">  1        4 0.38785953E-01 0.43064776E+03</pdfrwt>
<pdfrwt beam="2">  1       -4 0.11697811E+00 0.43064776E+03</pdfrwt>
<totfact> 0.70905560E+00</totfact>
</mgrwt>
</event>
<event>
 4    1  0.2358610E-002  0.4051920E+03  0.7818608E-02  0.1041997E+00
          1   -1    0    0  502    0  0.00000000000E+00  0.00000000000E+00  0.69410394689E+03  0.69410394689E+03  0.00000000000E+00 0. -1.
         -1   -1    0    0    0  501 -0.00000000000E+00 -0.00000000000E+00 -0.23938825805E+03  0.23938825805E+03  0.00000000000E+00 0.  1.
    9000005    1    1    2  502    0  0.14290797024E+02 -0.63058289475E+02  0.27830539322E+03  0.49156328855E+03  0.40000000000E+03 0. -1.
   -9000005    1    1    2    0  501 -0.14290797024E+02  0.63058289475E+02  0.17641029562E+03  0.44192891640E+03  0.40000000000E+03 0.  1.
<mgrwt>
<rscale>  2 0.40519202E+03</rscale>
<asrwt>0</asrwt>
<pdfrwt beam="1">  1        1 0.10678522E+00 0.40519202E+03</pdfrwt>
<pdfrwt beam="2">  1       -1 0.36828963E-01 0.40519202E+03</pdfrwt>
<totfact> 0.20296947E+02</totfact>
</mgrwt>
</event>
<event>
 4    1  0.2358610E-002  0.4401056E+03  0.7818608E-02  0.1030714E+00
         -2   -1    0    0    0  501 -0.00000000000E+00  0.00000000000E+00  0.26711159960E+03  0.26711159960E+03  0.00000000000E+00 0.  1.
          2   -1    0    0  502    0  0.00000000000E+00 -0.00000000000E+00 -0.13264013969E+04  0.13264013969E+04  0.00000000000E+00 0. -1.
    9000005    1    1    2  502    0  0.16215603290E+03 -0.86013928471E+02  0.67939681873E+01  0.44015807717E+03  0.40000000000E+03 0.  1.
   -9000005    1    1    2    0  501 -0.16215603290E+03  0.86013928471E+02 -0.10660837655E+04  0.11533549193E+04  0.40000000000E+03 0. -1.
<mgrwt>
<rscale>  2 0.44010564E+03</rscale>
<asrwt>0</asrwt>
<pdfrwt beam="1">  1        2 0.20406175E+00 0.44010564E+03</pdfrwt>
<pdfrwt beam="2">  1       -2 0.41094092E-01 0.44010564E+03</pdfrwt>
<totfact> 0.94205531E+01</totfact>
</mgrwt>
</event>
<event>
 4    1  0.2358610E-002  0.4225346E+03  0.7818608E-02  0.1036245E+00
          2   -1    0    0  502    0  0.00000000000E+00  0.00000000000E+00  0.59143835028E+03  0.59143835028E+03  0.00000000000E+00 0. -1.
         -2   -1    0    0    0  501 -0.00000000000E+00 -0.00000000000E+00 -0.30915813370E+03  0.30915813370E+03  0.00000000000E+00 0.  1.
    9000005    1    1    2  502    0  0.13379801222E+03  0.25170974970E+02  0.71985798901E+02  0.42862272606E+03  0.40000000000E+03 0.  1.
   -9000005    1    1    2    0  501 -0.13379801222E+03 -0.25170974970E+02  0.21029441767E+03  0.47197375791E+03  0.40000000000E+03 0. -1.
<mgrwt>
<rscale>  2 0.42253460E+03</rscale>
<asrwt>0</asrwt>
<pdfrwt beam="1">  1        2 0.90990515E-01 0.42253460E+03</pdfrwt>
<pdfrwt beam="2">  1       -2 0.47562790E-01 0.42253460E+03</pdfrwt>
<totfact> 0.21713020E+02</totfact>
</mgrwt>
</event>
<event>
 4    1  0.2358610E-002  0.4224887E+03  0.7818608E-02  0.1036259E+00
         -2   -1    0    0    0  501 -0.00000000000E+00  0.00000000000E+00  0.11624144779E+03  0.11624144779E+03  0.00000000000E+00 0.  1.
          2   -1    0    0  502    0  0.00000000000E+00 -0.00000000000E+00 -0.18563310860E+04  0.18563310860E+04  0.00000000000E+00 0. -1.
    9000005    1    1    2  502    0 -0.10281784086E+03  0.89023347482E+02 -0.46006039449E+03  0.62462167059E+03  0.40000000000E+03 0.  1.
   -9000005    1    1    2    0  501  0.10281784086E+03 -0.89023347482E+02 -0.12800292438E+04  0.13479508632E+04  0.40000000000E+03 0. -1.
<mgrwt>
<rscale>  2 0.42248866E+03</rscale>
<asrwt>0</asrwt>
<pdfrwt beam="1">  1        2 0.28558937E+00 0.42248866E+03</pdfrwt>
<pdfrwt beam="2">  1       -2 0.17883302E-01 0.42248866E+03</pdfrwt>
<totfact> 0.22031438E+02</totfact>
</mgrwt>
</event>
<event>
 4    1  0.2358610E-002  0.4059367E+03  0.7818608E-02  0.1041743E+00
         -2   -1    0    0    0  501 -0.00000000000E+00  0.00000000000E+00  0.26351964911E+03  0.26351964911E+03  0.00000000000E+00 0.  1.
          2   -1    0    0  502    0  0.00000000000E+00 -0.00000000000E+00 -0.73076557037E+03  0.73076557037E+03  0.00000000000E+00 0. -1.
    9000005    1    1    2  502    0  0.34967716755E+02  0.59681167284E+02 -0.42246661657E+03  0.58588618781E+03  0.40000000000E+03 0. -1.
   -9000005    1    1    2    0  501 -0.34967716755E+02 -0.59681167284E+02 -0.44779304688E+02  0.40839903167E+03  0.40000000000E+03 0.  1.
<mgrwt>
<rscale>  2 0.40593667E+03</rscale>
<asrwt>0</asrwt>
<pdfrwt beam="1">  1        2 0.11242547E+00 0.40593667E+03</pdfrwt>
<pdfrwt beam="2">  1       -2 0.40541485E-01 0.40593667E+03</pdfrwt>
<totfact> 0.23011417E+02</totfact>
</mgrwt>
</event>
<event>
 4    1  0.2358610E-002  0.5504555E+03  0.7818608E-02  0.1001389E+00
          1   -1    0    0  502    0  0.00000000000E+00  0.00000000000E+00  0.28753046584E+03  0.28753046584E+03  0.00000000000E+00 0.  1.
         -1   -1    0    0    0  501 -0.00000000000E+00 -0.00000000000E+00 -0.10888934561E+04  0.10888934561E+04  0.00000000000E+00 0. -1.
    9000005    1    1    2  502    0  0.37060518949E+03 -0.75186577394E+02 -0.27714147632E+03  0.61628615577E+03  0.40000000000E+03 0. -1.
   -9000005    1    1    2    0  501 -0.37060518949E+03  0.75186577394E+02 -0.52422151397E+03  0.76013776620E+03  0.40000000000E+03 0.  1.
<mgrwt>
<rscale>  2 0.55045547E+03</rscale>
<asrwt>0</asrwt>
<pdfrwt beam="1">  1        1 0.44235456E-01 0.55045547E+03</pdfrwt>
<pdfrwt beam="2">  1       -1 0.16752207E+00 0.55045547E+03</pdfrwt>
<totfact> 0.24914843E+01</totfact>
</mgrwt>
</event>
<event>
 4    1  0.2358610E-002  0.5456245E+03  0.7818608E-02  0.1002512E+00
         -2   -1    0    0    0  501 -0.00000000000E+00  0.00000000000E+00  0.45377069193E+03  0.45377069193E+03  0.00000000000E+00 0. -1.
          2   -1    0    0  502    0  0.00000000000E+00 -0.00000000000E+00 -0.67619372456E+03  0.67619372456E+03  0.00000000000E+00 0.  1.
    9000005    1    1    2  502    0 -0.17523497384E+02 -0.37067373409E+03 -0.20867355615E+03  0.58416670835E+03  0.40000000000E+03 0.  1.
   -9000005    1    1    2    0  501  0.17523497384E+02  0.37067373409E+03 -0.13749476472E+02  0.54579770814E+03  0.40000000000E+03 0. -1.
<mgrwt>
<rscale>  2 0.54562450E+03</rscale>
<asrwt>0</asrwt>
<pdfrwt beam="1">  1        2 0.10402980E+00 0.54562450E+03</pdfrwt>
<pdfrwt beam="2">  1       -2 0.69810876E-01 0.54562450E+03</pdfrwt>
<totfact> 0.82263533E+01</totfact>
</mgrwt>
</event>
<event>
 4    1  0.2358610E-002  0.5259040E+03  0.7818608E-02  0.1007230E+00
          1   -1    0    0  502    0  0.00000000000E+00  0.00000000000E+00  0.11710698922E+04  0.11710698922E+04  0.00000000000E+00 0.  1.
         -1   -1    0    0    0  501 -0.00000000000E+00 -0.00000000000E+00 -0.25356062099E+03  0.25356062099E+03  0.00000000000E+00 0. -1.
    9000005    1    1    2  502    0 -0.39144111341E+02 -0.33917952140E+03  0.27222309223E+03  0.59218275991E+03  0.40000000000E+03 0. -1.
   -9000005    1    1    2    0  501  0.39144111341E+02  0.33917952140E+03  0.64528617902E+03  0.83244775333E+03  0.40000000000E+03 0.  1.
<mgrwt>
<rscale>  2 0.52590399E+03</rscale>
<asrwt>0</asrwt>
<pdfrwt beam="1">  1        1 0.18016460E+00 0.52590399E+03</pdfrwt>
<pdfrwt beam="2">  1       -1 0.39009327E-01 0.52590399E+03</pdfrwt>
<totfact> 0.74994451E+01</totfact>
</mgrwt>
</event>
<event>
 4    1  0.2358610E-002  0.4414995E+03  0.7818608E-02  0.1030288E+00
          2   -1    0    0  502    0  0.00000000000E+00  0.00000000000E+00  0.13356115961E+04  0.13356115961E+04  0.00000000000E+00 0. -1.
         -2   -1    0    0    0  501 -0.00000000000E+00 -0.00000000000E+00 -0.20498938550E+03  0.20498938550E+03  0.00000000000E+00 0.  1.
    9000005    1    1    2  502    0 -0.60887396685E+02 -0.17667626780E+03  0.15188779629E+03  0.46689579280E+03  0.40000000000E+03 0.  1.
   -9000005    1    1    2    0  501  0.60887396685E+02  0.17667626780E+03  0.97873441431E+03  0.10737051888E+04  0.40000000000E+03 0. -1.
<mgrwt>
<rscale>  2 0.44149947E+03</rscale>
<asrwt>0</asrwt>
<pdfrwt beam="1">  1        2 0.20547870E+00 0.44149947E+03</pdfrwt>
<pdfrwt beam="2">  1       -2 0.31536829E-01 0.44149947E+03</pdfrwt>
<totfact> 0.15381172E+02</totfact>
</mgrwt>
</event>
<event>
 4    1  0.2358610E-002  0.4042958E+03  0.7818608E-02  0.1042302E+00
          2   -1    0    0  502    0  0.00000000000E+00  0.00000000000E+00  0.15442450820E+04  0.15442450820E+04  0.00000000000E+00 0.  1.
         -2   -1    0    0    0  501 -0.00000000000E+00 -0.00000000000E+00 -0.13349240909E+03  0.13349240909E+03  0.00000000000E+00 0. -1.
    9000005    1    1    2  502    0 -0.58519247560E+02 -0.55339658808E+01  0.32363426427E+03  0.51787475718E+03  0.40000000000E+03 0. -1.
   -9000005    1    1    2    0  501  0.58519247560E+02  0.55339658808E+01  0.10871184086E+04  0.11598627339E+04  0.40000000000E+03 0.  1.
<mgrwt>
<rscale>  2 0.40429584E+03</rscale>
<asrwt>0</asrwt>
<pdfrwt beam="1">  1        2 0.23757615E+00 0.40429584E+03</pdfrwt>
<pdfrwt beam="2">  1       -2 0.20537295E-01 0.40429584E+03</pdfrwt>
<totfact> 0.25593749E+02</totfact>
</mgrwt>
</event>
<event>
 4    1  0.2358610E-002  0.4471430E+03  0.7818608E-02  0.1028577E+00
          1   -1    0    0  502    0  0.00000000000E+00  0.00000000000E+00  0.10738450541E+04  0.10738450541E+04  0.00000000000E+00 0. -1.
         -1   -1    0    0    0  501 -0.00000000000E+00 -0.00000000000E+00 -0.20940929178E+03  0.20940929178E+03  0.00000000000E+00 0.  1.
    9000005    1    1    2  502    0  0.64012292259E+02  0.18931258872E+03  0.64588121080E+03  0.78555672505E+03  0.40000000000E+03 0.  1.
   -9000005    1    1    2    0  501 -0.64012292259E+02 -0.18931258872E+03  0.21855455156E+03  0.49769762086E+03  0.40000000000E+03 0.  1.
<mgrwt>
<rscale>  2 0.44714296E+03</rscale>
<asrwt>0</asrwt>
<pdfrwt beam="1">  1        1 0.16520693E+00 0.44714296E+03</pdfrwt>
<pdfrwt beam="2">  1       -1 0.32216815E-01 0.44714296E+03</pdfrwt>
<totfact> 0.12521533E+02</totfact>
</mgrwt>
</event>
<event>
 4    1  0.2358610E-002  0.4208404E+03  0.7818608E-02  0.1036793E+00
          1   -1    0    0  502    0  0.00000000000E+00  0.00000000000E+00  0.66031464263E+03  0.66031464263E+03  0.00000000000E+00 0.  1.
         -1   -1    0    0    0  501 -0.00000000000E+00 -0.00000000000E+00 -0.32309047522E+03  0.32309047522E+03  0.00000000000E+00 0. -1.
    9000005    1    1    2  502    0  0.12818959828E+03  0.25963346583E+02  0.37125306560E+03  0.56119115032E+03  0.40000000000E+03 0.  1.
   -9000005    1    1    2    0  501 -0.12818959828E+03 -0.25963346583E+02 -0.34028898197E+02  0.42221396754E+03  0.40000000000E+03 0. -1.
<mgrwt>
<rscale>  2 0.42084043E+03</rscale>
<asrwt>0</asrwt>
<pdfrwt beam="1">  1        1 0.10158687E+00 0.42084043E+03</pdfrwt>
<pdfrwt beam="2">  1       -1 0.49706227E-01 0.42084043E+03</pdfrwt>
<totfact> 0.12634196E+02</totfact>
</mgrwt>
</event>
<event>
 4    1  0.2358610E-002  0.5186100E+03  0.7818608E-02  0.1009032E+00
         -2   -1    0    0    0  501 -0.00000000000E+00  0.00000000000E+00  0.12573344540E+04  0.12573344540E+04  0.00000000000E+00 0. -1.
          2   -1    0    0  502    0  0.00000000000E+00 -0.00000000000E+00 -0.26186091849E+03  0.26186091849E+03  0.00000000000E+00 0.  1.
    9000005    1    1    2  502    0 -0.19323918166E+03 -0.26760971748E+03  0.17268913308E+03  0.54660578016E+03  0.40000000000E+03 0.  1.
   -9000005    1    1    2    0  501  0.19323918166E+03  0.26760971748E+03  0.82278440238E+03  0.97258959228E+03  0.40000000000E+03 0. -1.
<mgrwt>
<rscale>  2 0.51861001E+03</rscale>
<asrwt>0</asrwt>
<pdfrwt beam="1">  1        2 0.40286296E-01 0.51861001E+03</pdfrwt>
<pdfrwt beam="2">  1       -2 0.19343607E+00 0.51861001E+03</pdfrwt>
<totfact> 0.19522921E+01</totfact>
</mgrwt>
</event>
<event>
 4    1  0.2358610E-002  0.4275106E+03  0.7818608E-02  0.1034649E+00
         -1   -1    0    0    0  501 -0.00000000000E+00  0.00000000000E+00  0.79771904846E+02  0.79771904846E+02  0.00000000000E+00 0. -1.
          1   -1    0    0  502    0  0.00000000000E+00 -0.00000000000E+00 -0.25700928046E+04  0.25700928046E+04  0.00000000000E+00 0.  1.
    9000005    1    1    2  502    0  0.11669666994E+02  0.15042988287E+03 -0.80862794384E+03  0.91468272223E+03  0.40000000000E+03 0. -1.
   -9000005    1    1    2    0  501 -0.11669666994E+02 -0.15042988287E+03 -0.16816929559E+04  0.17351819872E+04  0.40000000000E+03 0.  1.
<mgrwt>
<rscale>  2 0.42751062E+03</rscale>
<asrwt>0</asrwt>
<pdfrwt beam="1">  1        1 0.39539889E+00 0.42751062E+03</pdfrwt>
<pdfrwt beam="2">  1       -1 0.12272601E-01 0.42751062E+03</pdfrwt>
<totfact> 0.60587318E+01</totfact>
</mgrwt>
</event>
<event>
 4    1  0.2358610E-002  0.4924232E+03  0.7818608E-02  0.1015776E+00
         -1   -1    0    0    0  501 -0.00000000000E+00  0.00000000000E+00  0.35690750949E+03  0.35690750949E+03  0.00000000000E+00 0. -1.
          1   -1    0    0  502    0  0.00000000000E+00 -0.00000000000E+00 -0.68019090361E+03  0.68019090361E+03  0.00000000000E+00 0.  1.
    9000005    1    1    2  502    0  0.27184622669E+03  0.92629306830E+02 -0.14388440745E+03  0.51301392004E+03  0.40000000000E+03 0. -1.
   -9000005    1    1    2    0  501 -0.27184622669E+03 -0.92629306830E+02 -0.17939898667E+03  0.52408449306E+03  0.40000000000E+03 0. -1.
<mgrwt>
<rscale>  2 0.49242315E+03</rscale>
<asrwt>0</asrwt>
<pdfrwt beam="1">  1        1 0.10464475E+00 0.49242315E+03</pdfrwt>
<pdfrwt beam="2">  1       -1 0.54908847E-01 0.49242315E+03</pdfrwt>
<totfact> 0.99383684E+01</totfact>
</mgrwt>
</event>
<event>
 4    1  0.2358610E-002  0.4994209E+03  0.7818608E-02  0.1013930E+00
         -2   -1    0    0    0  501 -0.00000000000E+00  0.00000000000E+00  0.14106880307E+03  0.14106880307E+03  0.00000000000E+00 0.  1.
          2   -1    0    0  502    0  0.00000000000E+00 -0.00000000000E+00 -0.18971431208E+04  0.18971431208E+04  0.00000000000E+00 0. -1.
    9000005    1    1    2  502    0 -0.19826890312E+03 -0.22385418774E+03 -0.11438442041E+04  0.12481189120E+04  0.40000000000E+03 0. -1.
   -9000005    1    1    2    0  501  0.19826890312E+03  0.22385418774E+03 -0.61223011363E+03  0.79009301183E+03  0.40000000000E+03 0.  1.
<mgrwt>
<rscale>  2 0.49942092E+03</rscale>
<asrwt>0</asrwt>
<pdfrwt beam="1">  1        2 0.29186818E+00 0.49942092E+03</pdfrwt>
<pdfrwt beam="2">  1       -2 0.21702893E-01 0.49942092E+03</pdfrwt>
<totfact> 0.14816838E+02</totfact>
</mgrwt>
</event>
<event>
 4    1  0.2358610E-002  0.4139490E+03  0.7818608E-02  0.1039054E+00
         -1   -1    0    0    0  501 -0.00000000000E+00  0.00000000000E+00  0.13332016036E+03  0.13332016036E+03  0.00000000000E+00 0.  1.
          1   -1    0    0  502    0  0.00000000000E+00 -0.00000000000E+00 -0.12861535076E+04  0.12861535076E+04  0.00000000000E+00 0. -1.
    9000005    1    1    2  502    0  0.82494702338E+02 -0.67441945199E+02 -0.55792485952E+03  0.69471860545E+03  0.40000000000E+03 0. -1.
   -9000005    1    1    2    0  501 -0.82494702338E+02  0.67441945199E+02 -0.59490848776E+03  0.72475506255E+03  0.40000000000E+03 0.  1.
<mgrwt>
<rscale>  2 0.41394902E+03</rscale>
<asrwt>0</asrwt>
<pdfrwt beam="1">  1        1 0.19786978E+00 0.41394902E+03</pdfrwt>
<pdfrwt beam="2">  1       -1 0.20510793E-01 0.41394902E+03</pdfrwt>
<totfact> 0.19030177E+02</totfact>
</mgrwt>
</event>
<event>
 4    1  0.2358610E-002  0.4459723E+03  0.7818608E-02  0.1028930E+00
         -1   -1    0    0    0  501 -0.00000000000E+00  0.00000000000E+00  0.10490110680E+03  0.10490110680E+03  0.00000000000E+00 0. -1.
          1   -1    0    0  502    0  0.00000000000E+00 -0.00000000000E+00 -0.18967469656E+04  0.18967469656E+04  0.00000000000E+00 0.  1.
    9000005    1    1    2  502    0  0.18414791596E+03 -0.70574804062E+02 -0.87590522229E+03  0.98290447978E+03  0.40000000000E+03 0. -1.
   -9000005    1    1    2    0  501 -0.18414791596E+03  0.70574804062E+02 -0.91594063653E+03  0.10187435927E+04  0.40000000000E+03 0. -1.
<mgrwt>
<rscale>  2 0.44597226E+03</rscale>
<asrwt>0</asrwt>
<pdfrwt beam="1">  1        1 0.29180722E+00 0.44597226E+03</pdfrwt>
<pdfrwt beam="2">  1       -1 0.16138632E-01 0.44597226E+03</pdfrwt>
<totfact> 0.10911961E+02</totfact>
</mgrwt>
</event>
<event>
 4    1  0.2358610E-002  0.4996225E+03  0.7818608E-02  0.1013877E+00
         -2   -1    0    0    0  501 -0.00000000000E+00  0.00000000000E+00  0.72792910052E+02  0.72792910052E+02  0.00000000000E+00 0. -1.
          2   -1    0    0  502    0  0.00000000000E+00 -0.00000000000E+00 -0.37657585097E+04  0.37657585097E+04  0.00000000000E+00 0.  1.
    9000005    1    1    2  502    0  0.29902294990E+03 -0.14418987027E+02 -0.12727219358E+04  0.13672760357E+04  0.40000000000E+03 0. -1.
   -9000005    1    1    2    0  501 -0.29902294990E+03  0.14418987027E+02 -0.24202436639E+04  0.24712753841E+04  0.40000000000E+03 0.  1.
<mgrwt>
<rscale>  2 0.49962249E+03</rscale>
<asrwt>0</asrwt>
<pdfrwt beam="1">  1        2 0.57934736E+00 0.49962249E+03</pdfrwt>
<pdfrwt beam="2">  1       -2 0.11198911E-01 0.49962249E+03</pdfrwt>
<totfact> 0.34102241E+01</totfact>
</mgrwt>
</event>
<event>
 4    1  0.2358610E-002  0.4802383E+03  0.7818608E-02  0.1019070E+00
          2   -1    0    0  502    0  0.00000000000E+00  0.00000000000E+00  0.20486900636E+03  0.20486900636E+03  0.00000000000E+00 0. -1.
         -2   -1    0    0    0  501 -0.00000000000E+00 -0.00000000000E+00 -0.14174305353E+04  0.14174305353E+04  0.00000000000E+00 0.  1.
    9000005    1    1    2  502    0  0.16947796363E+02  0.26521990232E+03 -0.23831042014E+03  0.53611629404E+03  0.40000000000E+03 0. -1.
   -9000005    1    1    2    0  501 -0.16947796363E+02 -0.26521990232E+03 -0.97425110877E+03  0.10861832476E+04  0.40000000000E+03 0.  1.
<mgrwt>
<rscale>  2 0.48023830E+03</rscale>
<asrwt>0</asrwt>
<pdfrwt beam="1">  1        2 0.31518308E-01 0.48023830E+03</pdfrwt>
<pdfrwt beam="2">  1       -2 0.21806624E+00 0.48023830E+03</pdfrwt>
<totfact> 0.17949324E+01</totfact>
</mgrwt>
</event>
<event>
 4    1  0.2358610E-002  0.4553584E+03  0.7818608E-02  0.1026136E+00
          1   -1    0    0  502    0  0.00000000000E+00  0.00000000000E+00  0.15177074330E+04  0.15177074330E+04  0.00000000000E+00 0. -1.
         -1   -1    0    0    0  501 -0.00000000000E+00 -0.00000000000E+00 -0.15161410358E+03  0.15161410358E+03  0.00000000000E+00 0.  1.
    9000005    1    1    2  502    0 -0.73144773735E+02  0.20494163004E+03  0.94551745838E+03  0.10494543791E+04  0.40000000000E+03 0. -1.
   -9000005    1    1    2    0  501  0.73144773735E+02 -0.20494163004E+03  0.42057587104E+03  0.61986715750E+03  0.40000000000E+03 0.  1.
<mgrwt>
<rscale>  2 0.45535835E+03</rscale>
<asrwt>0</asrwt>
<pdfrwt beam="1">  1        1 0.23349344E+00 0.45535835E+03</pdfrwt>
<pdfrwt beam="2">  1       -1 0.23325248E-01 0.45535835E+03</pdfrwt>
<totfact> 0.10610233E+02</totfact>
</mgrwt>
</event>
<event>
 4    1  0.2358610E-002  0.4550660E+03  0.7818608E-02  0.1026222E+00
         -2   -1    0    0    0  501 -0.00000000000E+00  0.00000000000E+00  0.11433719003E+03  0.11433719003E+03  0.00000000000E+00 0.  1.
          2   -1    0    0  502    0  0.00000000000E+00 -0.00000000000E+00 -0.18121994092E+04  0.18121994092E+04  0.00000000000E+00 0. -1.
    9000005    1    1    2  502    0 -0.18726963569E+03  0.10961369990E+03 -0.82606975973E+03  0.94312052655E+03  0.40000000000E+03 0. -1.
   -9000005    1    1    2    0  501  0.18726963569E+03 -0.10961369990E+03 -0.87179245942E+03  0.98341607265E+03  0.40000000000E+03 0.  1.
<mgrwt>
<rscale>  2 0.45506602E+03</rscale>
<asrwt>0</asrwt>
<pdfrwt beam="1">  1        2 0.27879988E+00 0.45506602E+03</pdfrwt>
<pdfrwt beam="2">  1       -2 0.17590339E-01 0.45506602E+03</pdfrwt>
<totfact> 0.23819697E+02</totfact>
</mgrwt>
</event>
<event>
 4    1  0.2358610E-002  0.4676707E+03  0.7818608E-02  0.1022580E+00
         -2   -1    0    0    0  501 -0.00000000000E+00  0.00000000000E+00  0.77246223834E+03  0.77246223834E+03  0.00000000000E+00 0. -1.
          2   -1    0    0  502    0  0.00000000000E+00 -0.00000000000E+00 -0.94489697881E+03  0.94489697881E+03  0.00000000000E+00 0.  1.
    9000005    1    1    2  502    0  0.24221996328E+03  0.67341575514E+01 -0.80481834434E+03  0.93083211530E+03  0.40000000000E+03 0.  1.
   -9000005    1    1    2    0  501 -0.24221996328E+03 -0.67341575514E+01  0.63238360388E+03  0.78652710185E+03  0.40000000000E+03 0. -1.
<mgrwt>
<rscale>  2 0.46767067E+03</rscale>
<asrwt>0</asrwt>
<pdfrwt beam="1">  1        2 0.14536877E+00 0.46767067E+03</pdfrwt>
<pdfrwt beam="2">  1       -2 0.11884034E+00 0.46767067E+03</pdfrwt>
<totfact> 0.15719911E+01</totfact>
</mgrwt>
</event>
<event>
 4    1  0.2358610E-002  0.4384858E+03  0.7818608E-02  0.1031212E+00
         -2   -1    0    0    0  501 -0.00000000000E+00  0.00000000000E+00  0.21716173193E+03  0.21716173193E+03  0.00000000000E+00 0. -1.
          2   -1    0    0  502    0  0.00000000000E+00 -0.00000000000E+00 -0.10439096112E+04  0.10439096112E+04  0.00000000000E+00 0.  1.
    9000005    1    1    2  502    0  0.12737830615E+03 -0.12666710420E+03 -0.65909301529E+03  0.79162705295E+03  0.40000000000E+03 0.  1.
   -9000005    1    1    2    0  501 -0.12737830615E+03  0.12666710420E+03 -0.16765486398E+03  0.46944429018E+03  0.40000000000E+03 0. -1.
<mgrwt>
<rscale>  2 0.43848579E+03</rscale>
<asrwt>0</asrwt>
<pdfrwt beam="1">  1        2 0.16060148E+00 0.43848579E+03</pdfrwt>
<pdfrwt beam="2">  1       -2 0.33409497E-01 0.43848579E+03</pdfrwt>
<totfact> 0.20458827E+02</totfact>
</mgrwt>
</event>
<event>
 4    1  0.2358610E-002  0.4097797E+03  0.7818608E-02  0.1040445E+00
         -2   -1    0    0    0  501 -0.00000000000E+00  0.00000000000E+00  0.75738280515E+03  0.75738280515E+03  0.00000000000E+00 0. -1.
          2   -1    0    0  502    0  0.00000000000E+00 -0.00000000000E+00 -0.59395502555E+03  0.59395502555E+03  0.00000000000E+00 0.  1.
    9000005    1    1    2  502    0 -0.57095942201E+02  0.68260411387E+02  0.61661258908E+03  0.74035836957E+03  0.40000000000E+03 0. -1.
   -9000005    1    1    2    0  501  0.57095942201E+02 -0.68260411387E+02 -0.45318480948E+03  0.61097946113E+03  0.40000000000E+03 0.  1.
<mgrwt>
<rscale>  2 0.40977973E+03</rscale>
<asrwt>0</asrwt>
<pdfrwt beam="1">  1        2 0.91377696E-01 0.40977973E+03</pdfrwt>
<pdfrwt beam="2">  1       -2 0.11652043E+00 0.40977973E+03</pdfrwt>
<totfact> 0.30125319E+01</totfact>
</mgrwt>
</event>
<event>
 4    1  0.2358610E-002  0.4141262E+03  0.7818608E-02  0.1038995E+00
         -2   -1    0    0    0  501 -0.00000000000E+00  0.00000000000E+00  0.17112141177E+03  0.17112141177E+03  0.00000000000E+00 0. -1.
          2   -1    0    0  502    0  0.00000000000E+00 -0.00000000000E+00 -0.10148053494E+04  0.10148053494E+04  0.00000000000E+00 0.  1.
    9000005    1    1    2  502    0  0.76151583103E+02  0.75508171615E+02 -0.35579618161E+03  0.54597753657E+03  0.40000000000E+03 0. -1.
   -9000005    1    1    2    0  501 -0.76151583103E+02 -0.75508171615E+02 -0.48788775600E+03  0.63994922458E+03  0.40000000000E+03 0. -1.
<mgrwt>
<rscale>  2 0.41412625E+03</rscale>
<asrwt>0</asrwt>
<pdfrwt beam="1">  1        2 0.15612390E+00 0.41412625E+03</pdfrwt>
<pdfrwt beam="2">  1       -2 0.26326371E-01 0.41412625E+03</pdfrwt>
<totfact> 0.33094526E+02</totfact>
</mgrwt>
</event>
<event>
 4    1  0.2358610E-002  0.4771032E+03  0.7818608E-02  0.1019934E+00
         -1   -1    0    0    0  501 -0.00000000000E+00  0.00000000000E+00  0.17477140350E+04  0.17477140350E+04  0.00000000000E+00 0.  1.
          1   -1    0    0  502    0  0.00000000000E+00 -0.00000000000E+00 -0.13040348359E+03  0.13040348359E+03  0.00000000000E+00 0. -1.
    9000005    1    1    2  502    0  0.85925804212E+02 -0.24544699787E+03  0.84160102987E+03  0.96742946310E+03  0.40000000000E+03 0. -1.
   -9000005    1    1    2    0  501 -0.85925804212E+02  0.24544699787E+03  0.77570952149E+03  0.91068805544E+03  0.40000000000E+03 0.  1.
<mgrwt>
<rscale>  2 0.47710321E+03</rscale>
<asrwt>0</asrwt>
<pdfrwt beam="1">  1        1 0.20062076E-01 0.47710321E+03</pdfrwt>
<pdfrwt beam="2">  1       -1 0.26887907E+00 0.47710321E+03</pdfrwt>
<totfact> 0.14750879E+01</totfact>
</mgrwt>
</event>
<event>
 4    1  0.2358610E-002  0.4274339E+03  0.7818608E-02  0.1034674E+00
         -2   -1    0    0    0  501 -0.00000000000E+00  0.00000000000E+00  0.77073120297E+02  0.77073120297E+02  0.00000000000E+00 0.  1.
          2   -1    0    0  502    0  0.00000000000E+00 -0.00000000000E+00 -0.23705321571E+04  0.23705321571E+04  0.00000000000E+00 0. -1.
    9000005    1    1    2  502    0  0.93449254344E+02  0.11818212379E+03 -0.11528250322E+04  0.12295142668E+04  0.40000000000E+03 0.  1.
   -9000005    1    1    2    0  501 -0.93449254344E+02 -0.11818212379E+03 -0.11406340047E+04  0.12180910106E+04  0.40000000000E+03 0. -1.
<mgrwt>
<rscale>  2 0.42743395E+03</rscale>
<asrwt>0</asrwt>
<pdfrwt beam="1">  1        2 0.36469719E+00 0.42743395E+03</pdfrwt>
<pdfrwt beam="2">  1       -2 0.11857405E-01 0.42743395E+03</pdfrwt>
<totfact> 0.23090738E+02</totfact>
</mgrwt>
</event>
<event>
 4    1  0.2358610E-002  0.4236909E+03  0.7818608E-02  0.1035872E+00
         -2   -1    0    0    0  501 -0.00000000000E+00  0.00000000000E+00  0.42512523023E+03  0.42512523023E+03  0.00000000000E+00 0. -1.
          2   -1    0    0  502    0  0.00000000000E+00 -0.00000000000E+00 -0.44455584849E+03  0.44455584849E+03  0.00000000000E+00 0.  1.
    9000005    1    1    2  502    0  0.29978214326E+02  0.13643780662E+03 -0.10709432406E+03  0.43701620411E+03  0.40000000000E+03 0. -1.
   -9000005    1    1    2    0  501 -0.29978214326E+02 -0.13643780662E+03  0.87663705798E+02  0.43266487461E+03  0.40000000000E+03 0. -1.
<mgrwt>
<rscale>  2 0.42369089E+03</rscale>
<asrwt>0</asrwt>
<pdfrwt beam="1">  1        2 0.68393207E-01 0.42369089E+03</pdfrwt>
<pdfrwt beam="2">  1       -2 0.65403882E-01 0.42369089E+03</pdfrwt>
<totfact> 0.15617743E+02</totfact>
</mgrwt>
</event>
<event>
 4    1  0.2358610E-002  0.4712184E+03  0.7818608E-02  0.1021577E+00
          2   -1    0    0  502    0  0.00000000000E+00  0.00000000000E+00  0.40667422989E+04  0.40667422989E+04  0.00000000000E+00 0. -1.
         -2   -1    0    0    0  501 -0.00000000000E+00 -0.00000000000E+00 -0.55244827613E+02  0.55244827613E+02  0.00000000000E+00 0.  1.
    9000005    1    1    2  502    0 -0.23485629520E+03  0.83001648849E+02  0.22283026713E+04  0.22775819519E+04  0.40000000000E+03 0.  1.
   -9000005    1    1    2    0  501  0.23485629520E+03 -0.83001648849E+02  0.17831948000E+04  0.18444051746E+04  0.40000000000E+03 0. -1.
<mgrwt>
<rscale>  2 0.47121837E+03</rscale>
<asrwt>0</asrwt>
<pdfrwt beam="1">  1        2 0.62565243E+00 0.47121837E+03</pdfrwt>
<pdfrwt beam="2">  1       -2 0.84992074E-02 0.47121837E+03</pdfrwt>
<totfact> 0.31684427E+01</totfact>
</mgrwt>
</event>
<event>
 4    1  0.2358610E-002  0.4006425E+03  0.7818608E-02  0.1043557E+00
         -2   -1    0    0    0  501 -0.00000000000E+00  0.00000000000E+00  0.94613652114E+02  0.94613652114E+02  0.00000000000E+00 0. -1.
          2   -1    0    0  502    0  0.00000000000E+00 -0.00000000000E+00 -0.18195461436E+04  0.18195461436E+04  0.00000000000E+00 0.  1.
    9000005    1    1    2  502    0  0.13544929298E+02 -0.18192987212E+02 -0.61360567392E+03  0.73282083278E+03  0.40000000000E+03 0. -1.
   -9000005    1    1    2    0  501 -0.13544929298E+02  0.18192987212E+02 -0.11113268175E+04  0.11813389629E+04  0.40000000000E+03 0.  1.
<mgrwt>
<rscale>  2 0.40064255E+03</rscale>
<asrwt>0</asrwt>
<pdfrwt beam="1">  1        2 0.27993014E+00 0.40064255E+03</pdfrwt>
<pdfrwt beam="2">  1       -2 0.14555948E-01 0.40064255E+03</pdfrwt>
<totfact> 0.32720636E+02</totfact>
</mgrwt>
</event>
<event>
 4    1  0.2358610E-002  0.4333031E+03  0.7818608E-02  0.1032822E+00
          1   -1    0    0  502    0  0.00000000000E+00  0.00000000000E+00  0.27319771556E+04  0.27319771556E+04  0.00000000000E+00 0. -1.
         -1   -1    0    0    0  501 -0.00000000000E+00 -0.00000000000E+00 -0.70238565222E+02  0.70238565222E+02  0.00000000000E+00 0.  1.
    9000005    1    1    2  502    0 -0.69719401265E+02 -0.15129696299E+03  0.11251043406E+04  0.12056580540E+04  0.40000000000E+03 0. -1.
   -9000005    1    1    2    0  501  0.69719401265E+02  0.15129696299E+03  0.15366342498E+04  0.15965576669E+04  0.40000000000E+03 0. -1.
<mgrwt>
<rscale>  2 0.43330309E+03</rscale>
<asrwt>0</asrwt>
<pdfrwt beam="1">  1        1 0.42030410E+00 0.43330309E+03</pdfrwt>
<pdfrwt beam="2">  1       -1 0.10805935E-01 0.43330309E+03</pdfrwt>
<totfact> 0.57382689E+01</totfact>
</mgrwt>
</event>
<event>
 4    1  0.2358610E-002  0.4548621E+03  0.7818608E-02  0.1026282E+00
         -1   -1    0    0    0  501 -0.00000000000E+00  0.00000000000E+00  0.54973665231E+02  0.54973665231E+02  0.00000000000E+00 0. -1.
          1   -1    0    0  502    0  0.00000000000E+00 -0.00000000000E+00 -0.38366292347E+04  0.38366292347E+04  0.00000000000E+00 0.  1.
    9000005    1    1    2  502    0 -0.15939752484E+03  0.14660150335E+03 -0.21592601726E+04  0.22066499643E+04  0.40000000000E+03 0. -1.
   -9000005    1    1    2    0  501  0.15939752484E+03 -0.14660150335E+03 -0.16223953969E+04  0.16849529357E+04  0.40000000000E+03 0. -1.
<mgrwt>
<rscale>  2 0.45486215E+03</rscale>
<asrwt>0</asrwt>
<pdfrwt beam="1">  1        1 0.59025090E+00 0.45486215E+03</pdfrwt>
<pdfrwt beam="2">  1       -1 0.84574833E-02 0.45486215E+03</pdfrwt>
<totfact> 0.12660599E+01</totfact>
</mgrwt>
</event>
<event>
 4    1  0.2358610E-002  0.4295824E+03  0.7818608E-02  0.1033992E+00
         -2   -1    0    0    0  501 -0.00000000000E+00  0.00000000000E+00  0.16391075264E+03  0.16391075264E+03  0.00000000000E+00 0.  1.
          2   -1    0    0  502    0  0.00000000000E+00 -0.00000000000E+00 -0.14125396939E+04  0.14125396939E+04  0.00000000000E+00 0. -1.
    9000005    1    1    2  502    0 -0.11667096314E+03 -0.10454164768E+03 -0.26921820254E+03  0.50697091664E+03  0.40000000000E+03 0.  1.
   -9000005    1    1    2    0  501  0.11667096314E+03  0.10454164768E+03 -0.97941073870E+03  0.10694795299E+04  0.40000000000E+03 0.  1.
<mgrwt>
<rscale>  2 0.42958244E+03</rscale>
<asrwt>0</asrwt>
<pdfrwt beam="1">  1        2 0.21731380E+00 0.42958244E+03</pdfrwt>
<pdfrwt beam="2">  1       -2 0.25217039E-01 0.42958244E+03</pdfrwt>
<totfact> 0.20973853E+02</totfact>
</mgrwt>
</event>
<event>
 4    1  0.2358610E-002  0.4161268E+03  0.7818608E-02  0.1038334E+00
         -3   -1    0    0    0  501 -0.00000000000E+00  0.00000000000E+00  0.40346385567E+03  0.40346385567E+03  0.00000000000E+00 0. -1.
          3   -1    0    0  502    0  0.00000000000E+00 -0.00000000000E+00 -0.50530254982E+03  0.50530254982E+03  0.00000000000E+00 0.  1.
    9000005    1    1    2  502    0  0.11401940678E+03  0.12691630175E+02 -0.22727232116E+03  0.47414576932E+03  0.40000000000E+03 0.  1.
   -9000005    1    1    2    0  501 -0.11401940678E+03 -0.12691630175E+02  0.12543362702E+03  0.43462063617E+03  0.40000000000E+03 0. -1.
<mgrwt>
<rscale>  2 0.41612679E+03</rscale>
<asrwt>0</asrwt>
<pdfrwt beam="1">  1        3 0.77738854E-01 0.41612679E+03</pdfrwt>
<pdfrwt beam="2">  1       -3 0.62071362E-01 0.41612679E+03</pdfrwt>
<totfact> 0.10189488E+01</totfact>
</mgrwt>
</event>
<event>
 4    1  0.2358610E-002  0.5459539E+03  0.7818608E-02  0.1002435E+00
          1   -1    0    0  502    0  0.00000000000E+00  0.00000000000E+00  0.20939667892E+04  0.20939667892E+04  0.00000000000E+00 0.  1.
         -1   -1    0    0    0  501 -0.00000000000E+00 -0.00000000000E+00 -0.16716557774E+03  0.16716557774E+03  0.00000000000E+00 0. -1.
    9000005    1    1    2  502    0 -0.12537183999E+03 -0.34978218465E+03  0.52775972952E+03  0.75933919105E+03  0.40000000000E+03 0.  1.
   -9000005    1    1    2    0  501  0.12537183999E+03  0.34978218465E+03  0.13990414819E+04  0.15017931759E+04  0.40000000000E+03 0.  1.
<mgrwt>
<rscale>  2 0.54595391E+03</rscale>
<asrwt>0</asrwt>
<pdfrwt beam="1">  1        1 0.32214872E+00 0.54595391E+03</pdfrwt>
<pdfrwt beam="2">  1       -1 0.25717783E-01 0.54595391E+03</pdfrwt>
<totfact> 0.36700420E+01</totfact>
</mgrwt>
</event>
<event>
 4    1  0.2358610E-002  0.4220745E+03  0.7818608E-02  0.1036393E+00
          1   -1    0    0  502    0  0.00000000000E+00  0.00000000000E+00  0.14296940137E+04  0.14296940137E+04  0.00000000000E+00 0. -1.
         -1   -1    0    0    0  501 -0.00000000000E+00 -0.00000000000E+00 -0.23205661671E+03  0.23205661671E+03  0.00000000000E+00 0.  1.
    9000005    1    1    2  502    0 -0.10414524301E+03 -0.85443634538E+02  0.11642054202E+04  0.12383541928E+04  0.40000000000E+03 0. -1.
   -9000005    1    1    2    0  501  0.10414524301E+03  0.85443634538E+02  0.33431976775E+02  0.42339643763E+03  0.40000000000E+03 0.  1.
<mgrwt>
<rscale>  2 0.42207446E+03</rscale>
<asrwt>0</asrwt>
<pdfrwt beam="1">  1        1 0.21995292E+00 0.42207446E+03</pdfrwt>
<pdfrwt beam="2">  1       -1 0.35701019E-01 0.42207446E+03</pdfrwt>
<totfact> 0.58895293E+01</totfact>
</mgrwt>
</event>
<event>
 4    1  0.2358610E-002  0.4998529E+03  0.7818608E-02  0.1013817E+00
          2   -1    0    0  502    0  0.00000000000E+00  0.00000000000E+00  0.27522806794E+04  0.27522806794E+04  0.00000000000E+00 0.  1.
         -2   -1    0    0    0  501 -0.00000000000E+00 -0.00000000000E+00 -0.93392830541E+02  0.93392830541E+02  0.00000000000E+00 0. -1.
    9000005    1    1    2  502    0 -0.25688427462E+03 -0.15447779390E+03  0.15674167547E+04  0.16451894123E+04  0.40000000000E+03 0.  1.
   -9000005    1    1    2    0  501  0.25688427462E+03  0.15447779390E+03  0.10914710941E+04  0.12004840976E+04  0.40000000000E+03 0.  1.
<mgrwt>
<rscale>  2 0.49985290E+03</rscale>
<asrwt>0</asrwt>
<pdfrwt beam="1">  1        2 0.42342774E+00 0.49985290E+03</pdfrwt>
<pdfrwt beam="2">  1       -2 0.14368130E-01 0.49985290E+03</pdfrwt>
<totfact> 0.10114541E+02</totfact>
</mgrwt>
</event>
<event>
 4    1  0.2358610E-002  0.4430377E+03  0.7818608E-02  0.1029819E+00
         -1   -1    0    0    0  501 -0.00000000000E+00  0.00000000000E+00  0.28668941672E+03  0.28668941672E+03  0.00000000000E+00 0. -1.
          1   -1    0    0  502    0  0.00000000000E+00 -0.00000000000E+00 -0.94318728471E+03  0.94318728471E+03  0.00000000000E+00 0.  1.
    9000005    1    1    2  502    0  0.18546254441E+03  0.43428715922E+02 -0.65020212810E+03  0.78679426544E+03  0.40000000000E+03 0.  1.
   -9000005    1    1    2    0  501 -0.18546254441E+03 -0.43428715922E+02 -0.62957398900E+01  0.44308243599E+03  0.40000000000E+03 0.  1.
<mgrwt>
<rscale>  2 0.44303771E+03</rscale>
<asrwt>0</asrwt>
<pdfrwt beam="1">  1        1 0.14510574E+00 0.44303771E+03</pdfrwt>
<pdfrwt beam="2">  1       -1 0.44106063E-01 0.44303771E+03</pdfrwt>
<totfact> 0.89928403E+01</totfact>
</mgrwt>
</event>
<event>
 4    1  0.2358610E-002  0.5478039E+03  0.7818608E-02  0.1002004E+00
         -1   -1    0    0    0  501 -0.00000000000E+00  0.00000000000E+00  0.60784629649E+03  0.60784629649E+03  0.00000000000E+00 0. -1.
          1   -1    0    0  502    0  0.00000000000E+00 -0.00000000000E+00 -0.83608753842E+03  0.83608753842E+03  0.00000000000E+00 0.  1.
    9000005    1    1    2  502    0  0.34443669019E+03  0.14646660390E+03 -0.57613470441E+03  0.79499704228E+03  0.40000000000E+03 0.  1.
   -9000005    1    1    2    0  501 -0.34443669019E+03 -0.14646660390E+03  0.34789346248E+03  0.64893679264E+03  0.40000000000E+03 0. -1.
<mgrwt>
<rscale>  2 0.54780389E+03</rscale>
<asrwt>0</asrwt>
<pdfrwt beam="1">  1        1 0.12862885E+00 0.54780389E+03</pdfrwt>
<pdfrwt beam="2">  1       -1 0.93514815E-01 0.54780389E+03</pdfrwt>
<totfact> 0.24078876E+01</totfact>
</mgrwt>
</event>
<event>
 4    1  0.2358610E-002  0.4389379E+03  0.7818608E-02  0.1031073E+00
         -1   -1    0    0    0  501 -0.00000000000E+00  0.00000000000E+00  0.54957938238E+03  0.54957938238E+03  0.00000000000E+00 0.  1.
          1   -1    0    0  502    0  0.00000000000E+00 -0.00000000000E+00 -0.98022095453E+03  0.98022095453E+03  0.00000000000E+00 0. -1.
    9000005    1    1    2  502    0 -0.17572540771E+03  0.42273673488E+02  0.39772431092E+03  0.59232686068E+03  0.40000000000E+03 0.  1.
   -9000005    1    1    2    0  501  0.17572540771E+03 -0.42273673488E+02 -0.82836588307E+03  0.93747347623E+03  0.40000000000E+03 0. -1.
<mgrwt>
<rscale>  2 0.43893790E+03</rscale>
<asrwt>0</asrwt>
<pdfrwt beam="1">  1        1 0.15080322E+00 0.43893790E+03</pdfrwt>
<pdfrwt beam="2">  1       -1 0.84550675E-01 0.43893790E+03</pdfrwt>
<totfact> 0.23427736E+01</totfact>
</mgrwt>
</event>
<event>
 4    1  0.2358610E-002  0.5529777E+03  0.7818608E-02  0.1000807E+00
          2   -1    0    0  502    0  0.00000000000E+00  0.00000000000E+00  0.11906902248E+04  0.11906902248E+04  0.00000000000E+00 0.  1.
         -2   -1    0    0    0  501 -0.00000000000E+00 -0.00000000000E+00 -0.29620565604E+03  0.29620565604E+03  0.00000000000E+00 0. -1.
    9000005    1    1    2  502    0 -0.23336944082E+03  0.30219711152E+03  0.71836324128E+03  0.90654847446E+03  0.40000000000E+03 0.  1.
   -9000005    1    1    2    0  501  0.23336944082E+03 -0.30219711152E+03  0.17612132752E+03  0.58034740641E+03  0.40000000000E+03 0. -1.
<mgrwt>
<rscale>  2 0.55297775E+03</rscale>
<asrwt>0</asrwt>
<pdfrwt beam="1">  1        2 0.18318311E+00 0.55297775E+03</pdfrwt>
<pdfrwt beam="2">  1       -2 0.45570102E-01 0.55297775E+03</pdfrwt>
<totfact> 0.90668069E+01</totfact>
</mgrwt>
</event>
<event>
 4    1  0.2358610E-002  0.4186191E+03  0.7818608E-02  0.1037517E+00
          2   -1    0    0  502    0  0.00000000000E+00  0.00000000000E+00  0.11305466369E+04  0.11305466369E+04  0.00000000000E+00 0.  1.
         -2   -1    0    0    0  501 -0.00000000000E+00 -0.00000000000E+00 -0.21579089916E+03  0.21579089916E+03  0.00000000000E+00 0. -1.
    9000005    1    1    2  502    0 -0.12198004621E+03  0.19047093895E+02  0.10010178431E+03  0.43042106208E+03  0.40000000000E+03 0. -1.
   -9000005    1    1    2    0  501  0.12198004621E+03 -0.19047093895E+02  0.81465395342E+03  0.91591647396E+03  0.40000000000E+03 0.  1.
<mgrwt>
<rscale>  2 0.41861907E+03</rscale>
<asrwt>0</asrwt>
<pdfrwt beam="1">  1        2 0.17393025E+00 0.41861907E+03</pdfrwt>
<pdfrwt beam="2">  1       -2 0.33198600E-01 0.41861907E+03</pdfrwt>
<totfact> 0.18395530E+02</totfact>
</mgrwt>
</event>
<event>
 4    1  0.2358610E-002  0.4085730E+03  0.7818608E-02  0.1040851E+00
         -2   -1    0    0    0  501 -0.00000000000E+00  0.00000000000E+00  0.68535282661E+03  0.68535282661E+03  0.00000000000E+00 0.  1.
          2   -1    0    0  502    0  0.00000000000E+00 -0.00000000000E+00 -0.33937570754E+03  0.33937570754E+03  0.00000000000E+00 0. -1.
    9000005    1    1    2  502    0 -0.44602372305E+02 -0.70303309871E+02  0.44521629243E+03  0.60427599162E+03  0.40000000000E+03 0.  1.
   -9000005    1    1    2    0  501  0.44602372305E+02  0.70303309871E+02 -0.99239173358E+02  0.42045254253E+03  0.40000000000E+03 0. -1.
<mgrwt>
<rscale>  2 0.40857304E+03</rscale>
<asrwt>0</asrwt>
<pdfrwt beam="1">  1        2 0.52211647E-01 0.40857304E+03</pdfrwt>
<pdfrwt beam="2">  1       -2 0.10543890E+00 0.40857304E+03</pdfrwt>
<totfact> 0.72010767E+01</totfact>
</mgrwt>
</event>
<event>
 4    1  0.2358610E-002  0.4072681E+03  0.7818608E-02  0.1041292E+00
         -2   -1    0    0    0  501 -0.00000000000E+00  0.00000000000E+00  0.26073824937E+03  0.26073824937E+03  0.00000000000E+00 0. -1.
          2   -1    0    0  502    0  0.00000000000E+00 -0.00000000000E+00 -0.82740672870E+03  0.82740672870E+03  0.00000000000E+00 0.  1.
    9000005    1    1    2  502    0 -0.35998071620E+02 -0.67612239420E+02 -0.21750025974E+02  0.40784842737E+03  0.40000000000E+03 0. -1.
   -9000005    1    1    2    0  501  0.35998071620E+02  0.67612239420E+02 -0.54491845335E+03  0.68029655069E+03  0.40000000000E+03 0.  1.
<mgrwt>
<rscale>  2 0.40726806E+03</rscale>
<asrwt>0</asrwt>
<pdfrwt beam="1">  1        2 0.12729334E+00 0.40726806E+03</pdfrwt>
<pdfrwt beam="2">  1       -2 0.40113577E-01 0.40726806E+03</pdfrwt>
<totfact> 0.20022681E+02</totfact>
</mgrwt>
</event>
<event>
 4    1  0.2358610E-002  0.5537331E+03  0.7818608E-02  0.1000634E+00
         -2   -1    0    0    0  501 -0.00000000000E+00  0.00000000000E+00  0.62317035804E+03  0.62317035804E+03  0.00000000000E+00 0.  1.
          2   -1    0    0  502    0  0.00000000000E+00 -0.00000000000E+00 -0.49512087242E+03  0.49512087242E+03  0.00000000000E+00 0. -1.
    9000005    1    1    2  502    0 -0.87666877997E+02  0.37273961198E+03  0.10818261251E+03  0.56420189426E+03  0.40000000000E+03 0.  1.
   -9000005    1    1    2    0  501  0.87666877997E+02 -0.37273961198E+03  0.19866873112E+02  0.55408933620E+03  0.40000000000E+03 0.  1.
<mgrwt>
<rscale>  2 0.55373306E+03</rscale>
<asrwt>0</asrwt>
<pdfrwt beam="1">  1        2 0.76172442E-01 0.55373306E+03</pdfrwt>
<pdfrwt beam="2">  1       -2 0.95872363E-01 0.55373306E+03</pdfrwt>
<totfact> 0.58313818E+01</totfact>
</mgrwt>
</event>
<event>
 4    1  0.2358610E-002  0.4444670E+03  0.7818608E-02  0.1029385E+00
          2   -1    0    0  502    0  0.00000000000E+00  0.00000000000E+00  0.13696774319E+04  0.13696774319E+04  0.00000000000E+00 0. -1.
         -2   -1    0    0    0  501 -0.00000000000E+00 -0.00000000000E+00 -0.20461743246E+03  0.20461743246E+03  0.00000000000E+00 0.  1.
    9000005    1    1    2  502    0 -0.17105354729E+02  0.19302415806E+03  0.10101439838E+04  0.11036039991E+04  0.40000000000E+03 0. -1.
   -9000005    1    1    2    0  501  0.17105354729E+02 -0.19302415806E+03  0.15491601562E+03  0.47069086527E+03  0.40000000000E+03 0.  1.
<mgrwt>
<rscale>  2 0.44446701E+03</rscale>
<asrwt>0</asrwt>
<pdfrwt beam="1">  1        2 0.21071960E+00 0.44446701E+03</pdfrwt>
<pdfrwt beam="2">  1       -2 0.31479606E-01 0.44446701E+03</pdfrwt>
<totfact> 0.14764499E+02</totfact>
</mgrwt>
</event>
<event>
 4    1  0.2358610E-002  0.4269378E+03  0.7818608E-02  0.1034832E+00
         -1   -1    0    0    0  501 -0.00000000000E+00  0.00000000000E+00  0.80907316332E+02  0.80907316332E+02  0.00000000000E+00 0. -1.
          1   -1    0    0  502    0  0.00000000000E+00 -0.00000000000E+00 -0.24989995031E+04  0.24989995031E+04  0.00000000000E+00 0.  1.
    9000005    1    1    2  502    0 -0.51736553991E+02  0.13999732636E+03 -0.16138532374E+04  0.16693705983E+04  0.40000000000E+03 0.  1.
   -9000005    1    1    2    0  501  0.51736553991E+02 -0.13999732636E+03 -0.80423894932E+03  0.91053622114E+03  0.40000000000E+03 0.  1.
<mgrwt>
<rscale>  2 0.42693784E+03</rscale>
<asrwt>0</asrwt>
<pdfrwt beam="1">  1        1 0.38446148E+00 0.42693784E+03</pdfrwt>
<pdfrwt beam="2">  1       -1 0.12447279E-01 0.42693784E+03</pdfrwt>
<totfact> 0.66174992E+01</totfact>
</mgrwt>
</event>
<event>
 4    1  0.2358610E-002  0.4034383E+03  0.7818608E-02  0.1042596E+00
          1   -1    0    0  502    0  0.00000000000E+00  0.00000000000E+00  0.37080059166E+03  0.37080059166E+03  0.00000000000E+00 0.  1.
         -1   -1    0    0    0  501 -0.00000000000E+00 -0.00000000000E+00 -0.44202373786E+03  0.44202373786E+03  0.00000000000E+00 0. -1.
    9000005    1    1    2  502    0  0.41205584735E+02 -0.32627711313E+02 -0.17144059292E+01  0.40344194991E+03  0.40000000000E+03 0. -1.
   -9000005    1    1    2    0  501 -0.41205584735E+02  0.32627711313E+02 -0.69508740272E+02  0.40938237961E+03  0.40000000000E+03 0. -1.
<mgrwt>
<rscale>  2 0.40343831E+03</rscale>
<asrwt>0</asrwt>
<pdfrwt beam="1">  1        1 0.57046245E-01 0.40343831E+03</pdfrwt>
<pdfrwt beam="2">  1       -1 0.68003652E-01 0.40343831E+03</pdfrwt>
<totfact> 0.15108368E+02</totfact>
</mgrwt>
</event>
<event>
 4    1  0.2358610E-002  0.4680254E+03  0.7818608E-02  0.1022479E+00
          2   -1    0    0  502    0  0.00000000000E+00  0.00000000000E+00  0.33840009304E+04  0.33840009304E+04  0.00000000000E+00 0. -1.
         -2   -1    0    0    0  501 -0.00000000000E+00 -0.00000000000E+00 -0.72660594844E+02  0.72660594844E+02  0.00000000000E+00 0.  1.
    9000005    1    1    2  502    0 -0.14694021575E+03  0.19353635861E+03  0.10846924099E+04  0.11813574282E+04  0.40000000000E+03 0.  1.
   -9000005    1    1    2    0  501  0.14694021575E+03 -0.19353635861E+03  0.22266479257E+04  0.22753040971E+04  0.40000000000E+03 0. -1.
<mgrwt>
<rscale>  2 0.46802537E+03</rscale>
<asrwt>0</asrwt>
<pdfrwt beam="1">  1        2 0.52061540E+00 0.46802537E+03</pdfrwt>
<pdfrwt beam="2">  1       -2 0.11178556E-01 0.46802537E+03</pdfrwt>
<totfact> 0.63125984E+01</totfact>
</mgrwt>
</event>
<event>
 4    1  0.2358610E-002  0.4667178E+03  0.7818608E-02  0.1022851E+00
          1   -1    0    0  502    0  0.00000000000E+00  0.00000000000E+00  0.83547516299E+03  0.83547516299E+03  0.00000000000E+00 0. -1.
         -1   -1    0    0    0  501 -0.00000000000E+00 -0.00000000000E+00 -0.51336638363E+03  0.51336638363E+03  0.00000000000E+00 0.  1.
    9000005    1    1    2  502    0 -0.64899307086E+02  0.23154615642E+03  0.63417655769E+03  0.78740424747E+03  0.40000000000E+03 0. -1.
   -9000005    1    1    2    0  501  0.64899307086E+02 -0.23154615642E+03 -0.31206777832E+03  0.56143729915E+03  0.40000000000E+03 0.  1.
<mgrwt>
<rscale>  2 0.46671784E+03</rscale>
<asrwt>0</asrwt>
<pdfrwt beam="1">  1        1 0.12853464E+00 0.46671784E+03</pdfrwt>
<pdfrwt beam="2">  1       -1 0.78979444E-01 0.46671784E+03</pdfrwt>
<totfact> 0.35139112E+01</totfact>
</mgrwt>
</event>
<event>
 4    1  0.2358610E-002  0.4565149E+03  0.7818608E-02  0.1025797E+00
          2   -1    0    0  502    0  0.00000000000E+00  0.00000000000E+00  0.48003836631E+03  0.48003836631E+03  0.00000000000E+00 0.  1.
         -2   -1    0    0    0  501 -0.00000000000E+00 -0.00000000000E+00 -0.66435922482E+03  0.66435922482E+03  0.00000000000E+00 0. -1.
    9000005    1    1    2  502    0  0.72534948808E+02  0.20771262531E+03  0.24467077955E+03  0.51794753004E+03  0.40000000000E+03 0.  1.
   -9000005    1    1    2    0  501 -0.72534948808E+02 -0.20771262531E+03 -0.42899163806E+03  0.62645006109E+03  0.40000000000E+03 0. -1.
<mgrwt>
<rscale>  2 0.45651490E+03</rscale>
<asrwt>0</asrwt>
<pdfrwt beam="1">  1        2 0.73852056E-01 0.45651490E+03</pdfrwt>
<pdfrwt beam="2">  1       -2 0.10220911E+00 0.45651490E+03</pdfrwt>
<totfact> 0.52458744E+01</totfact>
</mgrwt>
</event>
<event>
 4    1  0.2358610E-002  0.5293152E+03  0.7818608E-02  0.1006398E+00
          2   -1    0    0  502    0  0.00000000000E+00  0.00000000000E+00  0.63194995334E+03  0.63194995334E+03  0.00000000000E+00 0.  1.
         -2   -1    0    0    0  501 -0.00000000000E+00 -0.00000000000E+00 -0.54113357278E+03  0.54113357278E+03  0.00000000000E+00 0. -1.
    9000005    1    1    2  502    0 -0.33928830762E+03 -0.71119447652E+02  0.29474209542E+03  0.60584439779E+03  0.40000000000E+03 0.  1.
   -9000005    1    1    2    0  501  0.33928830762E+03  0.71119447652E+02 -0.20392571486E+03  0.56723912832E+03  0.40000000000E+03 0. -1.
<mgrwt>
<rscale>  2 0.52931515E+03</rscale>
<asrwt>0</asrwt>
<pdfrwt beam="1">  1        2 0.97223070E-01 0.52931515E+03</pdfrwt>
<pdfrwt beam="2">  1       -2 0.83251319E-01 0.52931515E+03</pdfrwt>
<totfact> 0.60606131E+01</totfact>
</mgrwt>
</event>
<event>
 4    1  0.2358610E-002  0.4693382E+03  0.7818608E-02  0.1022107E+00
          1   -1    0    0  502    0  0.00000000000E+00  0.00000000000E+00  0.39814296082E+03  0.39814296082E+03  0.00000000000E+00 0. -1.
         -1   -1    0    0    0  501 -0.00000000000E+00 -0.00000000000E+00 -0.59597844378E+03  0.59597844378E+03  0.00000000000E+00 0.  1.
    9000005    1    1    2  502    0  0.10290801732E+03  0.22290872564E+03  0.34151924748E+02  0.47057912614E+03  0.40000000000E+03 0. -1.
   -9000005    1    1    2    0  501 -0.10290801732E+03 -0.22290872564E+03 -0.23198740771E+03  0.52354227846E+03  0.40000000000E+03 0.  1.
<mgrwt>
<rscale>  2 0.46933821E+03</rscale>
<asrwt>0</asrwt>
<pdfrwt beam="1">  1        1 0.61252764E-01 0.46933821E+03</pdfrwt>
<pdfrwt beam="2">  1       -1 0.91688991E-01 0.46933821E+03</pdfrwt>
<totfact> 0.73133347E+01</totfact>
</mgrwt>
</event>
<event>
 4    1  0.2358610E-002  0.4099841E+03  0.7818608E-02  0.1040376E+00
          2   -1    0    0  502    0  0.00000000000E+00  0.00000000000E+00  0.12518199782E+04  0.12518199782E+04  0.00000000000E+00 0.  1.
         -2   -1    0    0    0  501 -0.00000000000E+00 -0.00000000000E+00 -0.14577555866E+03  0.14577555866E+03  0.00000000000E+00 0. -1.
    9000005    1    1    2  502    0 -0.38786781606E+02  0.81132907320E+02  0.74930679049E+03  0.85413560361E+03  0.40000000000E+03 0.  1.
   -9000005    1    1    2    0  501  0.38786781606E+02 -0.81132907320E+02  0.35673762907E+03  0.54345993327E+03  0.40000000000E+03 0. -1.
<mgrwt>
<rscale>  2 0.40998410E+03</rscale>
<asrwt>0</asrwt>
<pdfrwt beam="1">  1        2 0.19258768E+00 0.40998410E+03</pdfrwt>
<pdfrwt beam="2">  1       -2 0.22427010E-01 0.40998410E+03</pdfrwt>
<totfact> 0.31852645E+02</totfact>
</mgrwt>
</event>
<event>
 4    1  0.2358610E-002  0.4850593E+03  0.7818608E-02  0.1017754E+00
         -2   -1    0    0    0  501 -0.00000000000E+00  0.00000000000E+00  0.57371506830E+03  0.57371506830E+03  0.00000000000E+00 0. -1.
          2   -1    0    0  502    0  0.00000000000E+00 -0.00000000000E+00 -0.43311308403E+03  0.43311308403E+03  0.00000000000E+00 0.  1.
    9000005    1    1    2  502    0 -0.24819832946E+03 -0.11696197649E+03 -0.45731545711E+02  0.48721031287E+03  0.40000000000E+03 0. -1.
   -9000005    1    1    2    0  501  0.24819832946E+03  0.11696197649E+03  0.18633352998E+03  0.51961783946E+03  0.40000000000E+03 0.  1.
<mgrwt>
<rscale>  2 0.48505929E+03</rscale>
<asrwt>0</asrwt>
<pdfrwt beam="1">  1        2 0.66632782E-01 0.48505929E+03</pdfrwt>
<pdfrwt beam="2">  1       -2 0.88263857E-01 0.48505929E+03</pdfrwt>
<totfact> 0.82614551E+01</totfact>
</mgrwt>
</event>
<event>
 4    1  0.2358610E-002  0.4777502E+03  0.7818608E-02  0.1019755E+00
          2   -1    0    0  502    0  0.00000000000E+00  0.00000000000E+00  0.20824930103E+04  0.20824930103E+04  0.00000000000E+00 0. -1.
         -2   -1    0    0    0  501 -0.00000000000E+00 -0.00000000000E+00 -0.16733590044E+03  0.16733590044E+03  0.00000000000E+00 0.  1.
    9000005    1    1    2  502    0 -0.21111408082E+03 -0.15387033715E+03  0.29682321863E+03  0.56244933896E+03  0.40000000000E+03 0.  1.
   -9000005    1    1    2    0  501  0.21111408082E+03  0.15387033715E+03  0.16183338913E+04  0.16873795718E+04  0.40000000000E+03 0.  1.
<mgrwt>
<rscale>  2 0.47775018E+03</rscale>
<asrwt>0</asrwt>
<pdfrwt beam="1">  1        2 0.32038352E+00 0.47775018E+03</pdfrwt>
<pdfrwt beam="2">  1       -2 0.25743986E-01 0.47775018E+03</pdfrwt>
<totfact> 0.87247577E+01</totfact>
</mgrwt>
</event>
<event>
 4    1  0.2358610E-002  0.4347262E+03  0.7818608E-02  0.1032377E+00
         -2   -1    0    0    0  501 -0.00000000000E+00  0.00000000000E+00  0.18294338124E+03  0.18294338124E+03  0.00000000000E+00 0.  1.
          2   -1    0    0  502    0  0.00000000000E+00 -0.00000000000E+00 -0.10697038789E+04  0.10697038789E+04  0.00000000000E+00 0. -1.
    9000005    1    1    2  502    0  0.17009514884E+03  0.73848233906E+01 -0.32741803611E+03  0.54423291489E+03  0.40000000000E+03 0.  1.
   -9000005    1    1    2    0  501 -0.17009514884E+03 -0.73848233906E+01 -0.55934246154E+03  0.70841434525E+03  0.40000000000E+03 0.  1.
<mgrwt>
<rscale>  2 0.43472623E+03</rscale>
<asrwt>0</asrwt>
<pdfrwt beam="1">  1        2 0.16456983E+00 0.43472623E+03</pdfrwt>
<pdfrwt beam="2">  1       -2 0.28145135E-01 0.43472623E+03</pdfrwt>
<totfact> 0.27087193E+02</totfact>
</mgrwt>
</event>
<event>
 4    1  0.2358610E-002  0.4585091E+03  0.7818608E-02  0.1025214E+00
          1   -1    0    0  502    0  0.00000000000E+00  0.00000000000E+00  0.22919679102E+03  0.22919679102E+03  0.00000000000E+00 0.  1.
         -1   -1    0    0    0  501 -0.00000000000E+00 -0.00000000000E+00 -0.91747986817E+03  0.91747986817E+03  0.00000000000E+00 0. -1.
    9000005    1    1    2  502    0  0.66807265500E+02 -0.21393322282E+03 -0.35322715611E+03  0.57879189555E+03  0.40000000000E+03 0. -1.
   -9000005    1    1    2    0  501 -0.66807265500E+02  0.21393322282E+03 -0.33505592104E+03  0.56788476364E+03  0.40000000000E+03 0.  1.
<mgrwt>
<rscale>  2 0.45850914E+03</rscale>
<asrwt>0</asrwt>
<pdfrwt beam="1">  1        1 0.35261045E-01 0.45850914E+03</pdfrwt>
<pdfrwt beam="2">  1       -1 0.14115075E+00 0.45850914E+03</pdfrwt>
<totfact> 0.53532094E+01</totfact>
</mgrwt>
</event>
<event>
 4    1  0.2358610E-002  0.4304772E+03  0.7818608E-02  0.1033709E+00
         -1   -1    0    0    0  501 -0.00000000000E+00  0.00000000000E+00  0.58754689147E+03  0.58754689147E+03  0.00000000000E+00 0. -1.
          1   -1    0    0  502    0  0.00000000000E+00 -0.00000000000E+00 -0.32436886018E+03  0.32436886018E+03  0.00000000000E+00 0.  1.
    9000005    1    1    2  502    0  0.26153663607E+02  0.15692878949E+03  0.20741899689E+03  0.47784233735E+03  0.40000000000E+03 0.  1.
   -9000005    1    1    2    0  501 -0.26153663607E+02 -0.15692878949E+03  0.55759034397E+02  0.43407341431E+03  0.40000000000E+03 0.  1.
<mgrwt>
<rscale>  2 0.43047725E+03</rscale>
<asrwt>0</asrwt>
<pdfrwt beam="1">  1        1 0.49902902E-01 0.43047725E+03</pdfrwt>
<pdfrwt beam="2">  1       -1 0.90391829E-01 0.43047725E+03</pdfrwt>
<totfact> 0.98812176E+01</totfact>
</mgrwt>
</event>
<event>
 4    1  0.2358610E-002  0.4210741E+03  0.7818608E-02  0.1036717E+00
         -2   -1    0    0    0  501 -0.00000000000E+00  0.00000000000E+00  0.18464515044E+03  0.18464515044E+03  0.00000000000E+00 0. -1.
          2   -1    0    0  502    0  0.00000000000E+00 -0.00000000000E+00 -0.96733183195E+03  0.96733183195E+03  0.00000000000E+00 0.  1.
    9000005    1    1    2  502    0 -0.27298647202E+02  0.12867845999E+03 -0.44066691472E+03  0.60950036254E+03  0.40000000000E+03 0. -1.
   -9000005    1    1    2    0  501  0.27298647202E+02 -0.12867845999E+03 -0.34201976679E+03  0.54247661985E+03  0.40000000000E+03 0.  1.
<mgrwt>
<rscale>  2 0.42107406E+03</rscale>
<asrwt>0</asrwt>
<pdfrwt beam="1">  1        2 0.14882028E+00 0.42107406E+03</pdfrwt>
<pdfrwt beam="2">  1       -2 0.28406946E-01 0.42107406E+03</pdfrwt>
<totfact> 0.30867120E+02</totfact>
</mgrwt>
</event>
<event>
 4    1  0.2358610E-002  0.4166666E+03  0.7818608E-02  0.1038157E+00
         -1   -1    0    0    0  501 -0.00000000000E+00  0.00000000000E+00  0.52919562929E+03  0.52919562929E+03  0.00000000000E+00 0. -1.
          1   -1    0    0  502    0  0.00000000000E+00 -0.00000000000E+00 -0.35366656556E+03  0.35366656556E+03  0.00000000000E+00 0.  1.
    9000005    1    1    2  502    0  0.68485730520E+02 -0.94449657032E+02 -0.31001342058E+02  0.41781828132E+03  0.40000000000E+03 0. -1.
   -9000005    1    1    2    0  501 -0.68485730520E+02  0.94449657032E+02  0.20653040579E+03  0.46504391353E+03  0.40000000000E+03 0.  1.
<mgrwt>
<rscale>  2 0.41666657E+03</rscale>
<asrwt>0</asrwt>
<pdfrwt beam="1">  1        1 0.54410241E-01 0.41666657E+03</pdfrwt>
<pdfrwt beam="2">  1       -1 0.81414712E-01 0.41666657E+03</pdfrwt>
<totfact> 0.11078157E+02</totfact>
</mgrwt>
</event>
<event>
 4    1  0.2358610E-002  0.4344503E+03  0.7818608E-02  0.1032463E+00
          1   -1    0    0  502    0  0.00000000000E+00  0.00000000000E+00  0.62004909699E+03  0.62004909699E+03  0.00000000000E+00 0. -1.
         -1   -1    0    0    0  501 -0.00000000000E+00 -0.00000000000E+00 -0.30453115855E+03  0.30453115855E+03  0.00000000000E+00 0.  1.
    9000005    1    1    2  502    0  0.12603509041E+03  0.11341154499E+03  0.14840862932E+03  0.45909927446E+03  0.40000000000E+03 0.  1.
   -9000005    1    1    2    0  501 -0.12603509041E+03 -0.11341154499E+03  0.16710930912E+03  0.46548098108E+03  0.40000000000E+03 0. -1.
<mgrwt>
<rscale>  2 0.43445025E+03</rscale>
<asrwt>0</asrwt>
<pdfrwt beam="1">  1        1 0.95392168E-01 0.43445025E+03</pdfrwt>
<pdfrwt beam="2">  1       -1 0.46850948E-01 0.43445025E+03</pdfrwt>
<totfact> 0.15421858E+02</totfact>
</mgrwt>
</event>
<event>
 4    1  0.2358610E-002  0.4808633E+03  0.7818608E-02  0.1018898E+00
          2   -1    0    0  502    0  0.00000000000E+00  0.00000000000E+00  0.16816200612E+04  0.16816200612E+04  0.00000000000E+00 0.  1.
         -2   -1    0    0    0  501 -0.00000000000E+00 -0.00000000000E+00 -0.17676532759E+03  0.17676532759E+03  0.00000000000E+00 0. -1.
    9000005    1    1    2  502    0 -0.18718777629E+03  0.19023733272E+03  0.31451252434E+03  0.57458474946E+03  0.40000000000E+03 0. -1.
   -9000005    1    1    2    0  501  0.18718777629E+03 -0.19023733272E+03  0.11903422093E+04  0.12838006393E+04  0.40000000000E+03 0.  1.
<mgrwt>
<rscale>  2 0.48086329E+03</rscale>
<asrwt>0</asrwt>
<pdfrwt beam="1">  1        2 0.25871077E+00 0.48086329E+03</pdfrwt>
<pdfrwt beam="2">  1       -2 0.27194667E-01 0.48086329E+03</pdfrwt>
<totfact> 0.12972809E+02</totfact>
</mgrwt>
</event>
<event>
 4    1  0.2358610E-002  0.4044466E+03  0.7818608E-02  0.1042251E+00
         -2   -1    0    0    0  501 -0.00000000000E+00  0.00000000000E+00  0.17730034115E+03  0.17730034115E+03  0.00000000000E+00 0. -1.
          2   -1    0    0  502    0  0.00000000000E+00 -0.00000000000E+00 -0.16155427077E+04  0.16155427077E+04  0.00000000000E+00 0.  1.
    9000005    1    1    2  502    0 -0.36547639417E+02  0.47342231127E+02 -0.13062078403E+04  0.13673901926E+04  0.40000000000E+03 0.  1.
   -9000005    1    1    2    0  501  0.36547639417E+02 -0.47342231127E+02 -0.13203452630E+03  0.42545285630E+03  0.40000000000E+03 0. -1.
<mgrwt>
<rscale>  2 0.40444656E+03</rscale>
<asrwt>0</asrwt>
<pdfrwt beam="1">  1        2 0.24854503E+00 0.40444656E+03</pdfrwt>
<pdfrwt beam="2">  1       -2 0.27276976E-01 0.40444656E+03</pdfrwt>
<totfact> 0.14166499E+02</totfact>
</mgrwt>
</event>
<event>
 4    1  0.2358610E-002  0.5210579E+03  0.7818608E-02  0.1008424E+00
          1   -1    0    0  502    0  0.00000000000E+00  0.00000000000E+00  0.20393677899E+03  0.20393677899E+03  0.00000000000E+00 0.  1.
         -1   -1    0    0    0  501 -0.00000000000E+00 -0.00000000000E+00 -0.14966604588E+04  0.14966604588E+04  0.00000000000E+00 0. -1.
    9000005    1    1    2  502    0  0.24680736873E+03 -0.22491658495E+03 -0.36372833359E+03  0.63545231773E+03  0.40000000000E+03 0.  1.
   -9000005    1    1    2    0  501 -0.24680736873E+03  0.22491658495E+03 -0.92899534619E+03  0.10651449200E+04  0.40000000000E+03 0. -1.
<mgrwt>
<rscale>  2 0.52105791E+03</rscale>
<asrwt>0</asrwt>
<pdfrwt beam="1">  1        1 0.31374889E-01 0.52105791E+03</pdfrwt>
<pdfrwt beam="2">  1       -1 0.23025545E+00 0.52105791E+03</pdfrwt>
<totfact> 0.14482487E+01</totfact>
</mgrwt>
</event>
<event>
 4    1  0.2358610E-002  0.4646525E+03  0.7818608E-02  0.1023440E+00
          2   -1    0    0  502    0  0.00000000000E+00  0.00000000000E+00  0.54809125215E+03  0.54809125215E+03  0.00000000000E+00 0.  1.
         -2   -1    0    0    0  501 -0.00000000000E+00 -0.00000000000E+00 -0.45509037932E+03  0.45509037932E+03  0.00000000000E+00 0. -1.
    9000005    1    1    2  502    0 -0.16125676469E+03 -0.17291099357E+03  0.23040193205E+03  0.51863957249E+03  0.40000000000E+03 0.  1.
   -9000005    1    1    2    0  501  0.16125676469E+03  0.17291099357E+03 -0.13740105922E+03  0.48454205899E+03  0.40000000000E+03 0. -1.
<mgrwt>
<rscale>  2 0.46465251E+03</rscale>
<asrwt>0</asrwt>
<pdfrwt beam="1">  1        2 0.84321731E-01 0.46465251E+03</pdfrwt>
<pdfrwt beam="2">  1       -2 0.70013904E-01 0.46465251E+03</pdfrwt>
<totfact> 0.10588093E+02</totfact>
</mgrwt>
</event>
<event>
 4    1  0.2358610E-002  0.5266565E+03  0.7818608E-02  0.1007046E+00
          1   -1    0    0  502    0  0.00000000000E+00  0.00000000000E+00  0.20800383026E+04  0.20800383026E+04  0.00000000000E+00 0.  1.
         -1   -1    0    0    0  501 -0.00000000000E+00 -0.00000000000E+00 -0.14001526050E+03  0.14001526050E+03  0.00000000000E+00 0. -1.
    9000005    1    1    2  502    0 -0.25711143646E+03  0.22640853979E+03  0.72777025159E+03  0.89834105815E+03  0.40000000000E+03 0. -1.
   -9000005    1    1    2    0  501  0.25711143646E+03 -0.22640853979E+03  0.12122527905E+04  0.13217125050E+04  0.40000000000E+03 0. -1.
<mgrwt>
<rscale>  2 0.52665655E+03</rscale>
<asrwt>0</asrwt>
<pdfrwt beam="1">  1        1 0.32000587E+00 0.52665655E+03</pdfrwt>
<pdfrwt beam="2">  1       -1 0.21540811E-01 0.52665655E+03</pdfrwt>
<totfact> 0.50691056E+01</totfact>
</mgrwt>
</event>
<event>
 4    1  0.2358610E-002  0.4807504E+03  0.7818608E-02  0.1018929E+00
         -2   -1    0    0    0  501 -0.00000000000E+00  0.00000000000E+00  0.16338291608E+03  0.16338291608E+03  0.00000000000E+00 0. -1.
          2   -1    0    0  502    0  0.00000000000E+00 -0.00000000000E+00 -0.14152378933E+04  0.14152378933E+04  0.00000000000E+00 0.  1.
    9000005    1    1    2  502    0 -0.20544807563E+03 -0.17003544317E+03 -0.64272580879E+03  0.80263156492E+03  0.40000000000E+03 0. -1.
   -9000005    1    1    2    0  501  0.20544807563E+03  0.17003544317E+03 -0.60912916848E+03  0.77598924451E+03  0.40000000000E+03 0. -1.
<mgrwt>
<rscale>  2 0.48075042E+03</rscale>
<asrwt>0</asrwt>
<pdfrwt beam="1">  1        2 0.21772890E+00 0.48075042E+03</pdfrwt>
<pdfrwt beam="2">  1       -2 0.25135834E-01 0.48075042E+03</pdfrwt>
<totfact> 0.20897380E+02</totfact>
</mgrwt>
</event>
<event>
 4    1  0.2358610E-002  0.4273694E+03  0.7818608E-02  0.1034694E+00
         -2   -1    0    0    0  501 -0.00000000000E+00  0.00000000000E+00  0.66464988423E+03  0.66464988423E+03  0.00000000000E+00 0. -1.
          2   -1    0    0  502    0  0.00000000000E+00 -0.00000000000E+00 -0.27892116557E+03  0.27892116557E+03  0.00000000000E+00 0.  1.
    9000005    1    1    2  502    0  0.13568828733E+03 -0.65063948813E+02  0.25022391832E+03  0.49523392256E+03  0.40000000000E+03 0. -1.
   -9000005    1    1    2    0  501 -0.13568828733E+03  0.65063948813E+02  0.13550480034E+03  0.44833712725E+03  0.40000000000E+03 0.  1.
<mgrwt>
<rscale>  2 0.42736943E+03</rscale>
<asrwt>0</asrwt>
<pdfrwt beam="1">  1        2 0.42910949E-01 0.42736943E+03</pdfrwt>
<pdfrwt beam="2">  1       -2 0.10225383E+00 0.42736943E+03</pdfrwt>
<totfact> 0.95883074E+01</totfact>
</mgrwt>
</event>
<event>
 4    1  0.2358610E-002  0.4197364E+03  0.7818608E-02  0.1037152E+00
          2   -1    0    0  502    0  0.00000000000E+00  0.00000000000E+00  0.13391223139E+04  0.13391223139E+04  0.00000000000E+00 0. -1.
         -2   -1    0    0    0  501 -0.00000000000E+00 -0.00000000000E+00 -0.15283641675E+03  0.15283641675E+03  0.00000000000E+00 0.  1.
    9000005    1    1    2  502    0  0.12356446228E+03  0.30173720369E+02  0.31482933612E+03  0.52468670711E+03  0.40000000000E+03 0.  1.
   -9000005    1    1    2    0  501 -0.12356446228E+03 -0.30173720369E+02  0.87145656099E+03  0.96727202349E+03  0.40000000000E+03 0. -1.
<mgrwt>
<rscale>  2 0.41973638E+03</rscale>
<asrwt>0</asrwt>
<pdfrwt beam="1">  1        2 0.20601881E+00 0.41973638E+03</pdfrwt>
<pdfrwt beam="2">  1       -2 0.23513296E-01 0.41973638E+03</pdfrwt>
<totfact> 0.26127665E+02</totfact>
</mgrwt>
</event>
<event>
 4    1  0.2358610E-002  0.4880719E+03  0.7818608E-02  0.1016940E+00
          2   -1    0    0  502    0  0.00000000000E+00  0.00000000000E+00  0.16969990873E+03  0.16969990873E+03  0.00000000000E+00 0. -1.
         -2   -1    0    0    0  501 -0.00000000000E+00 -0.00000000000E+00 -0.14149029668E+04  0.14149029668E+04  0.00000000000E+00 0.  1.
    9000005    1    1    2  502    0 -0.25910181680E+03  0.10526365951E+03 -0.55222007406E+03  0.73699470804E+03  0.40000000000E+03 0. -1.
   -9000005    1    1    2    0  501  0.25910181680E+03 -0.10526365951E+03 -0.69298298403E+03  0.84760816751E+03  0.40000000000E+03 0.  1.
<mgrwt>
<rscale>  2 0.48807191E+03</rscale>
<asrwt>0</asrwt>
<pdfrwt beam="1">  1        2 0.26107679E-01 0.48807191E+03</pdfrwt>
<pdfrwt beam="2">  1       -2 0.21767737E+00 0.48807191E+03</pdfrwt>
<totfact> 0.22289486E+01</totfact>
</mgrwt>
</event>
<event>
 4    1  0.2358610E-002  0.4161748E+03  0.7818608E-02  0.1038319E+00
         -2   -1    0    0    0  501 -0.00000000000E+00  0.00000000000E+00  0.20688655539E+03  0.20688655539E+03  0.00000000000E+00 0. -1.
          2   -1    0    0  502    0  0.00000000000E+00 -0.00000000000E+00 -0.12108668547E+04  0.12108668547E+04  0.00000000000E+00 0.  1.
    9000005    1    1    2  502    0 -0.84124999495E+02  0.78258810702E+02 -0.10818994218E+03  0.43000758201E+03  0.40000000000E+03 0. -1.
   -9000005    1    1    2    0  501  0.84124999495E+02 -0.78258810702E+02 -0.89579035714E+03  0.98774582810E+03  0.40000000000E+03 0.  1.
<mgrwt>
<rscale>  2 0.41617479E+03</rscale>
<asrwt>0</asrwt>
<pdfrwt beam="1">  1        2 0.18628721E+00 0.41617479E+03</pdfrwt>
<pdfrwt beam="2">  1       -2 0.31828700E-01 0.41617479E+03</pdfrwt>
<totfact> 0.17862289E+02</totfact>
</mgrwt>
</event>
<event>
 4    1  0.2358610E-002  0.5119911E+03  0.7818608E-02  0.1010696E+00
         -2   -1    0    0    0  501 -0.00000000000E+00  0.00000000000E+00  0.43359881132E+03  0.43359881132E+03  0.00000000000E+00 0.  1.
          2   -1    0    0  502    0  0.00000000000E+00 -0.00000000000E+00 -0.10274137692E+04  0.10274137692E+04  0.00000000000E+00 0. -1.
    9000005    1    1    2  502    0  0.19405326780E+03  0.25392558222E+03 -0.76555712896E+03  0.92098457628E+03  0.40000000000E+03 0. -1.
   -9000005    1    1    2    0  501 -0.19405326780E+03 -0.25392558222E+03  0.17174217107E+03  0.54002800425E+03  0.40000000000E+03 0.  1.
<mgrwt>
<rscale>  2 0.51199109E+03</rscale>
<asrwt>0</asrwt>
<pdfrwt beam="1">  1        2 0.15806366E+00 0.51199109E+03</pdfrwt>
<pdfrwt beam="2">  1       -2 0.66707509E-01 0.51199109E+03</pdfrwt>
<totfact> 0.52013089E+01</totfact>
</mgrwt>
</event>
<event>
 4    1  0.2358610E-002  0.4029400E+03  0.7818608E-02  0.1042766E+00
         -1   -1    0    0    0  501 -0.00000000000E+00  0.00000000000E+00  0.47793366275E+03  0.47793366275E+03  0.00000000000E+00 0. -1.
          1   -1    0    0  502    0  0.00000000000E+00 -0.00000000000E+00 -0.36732206958E+03  0.36732206958E+03  0.00000000000E+00 0.  1.
    9000005    1    1    2  502    0  0.34519997566E+02 -0.34191230253E+02 -0.60559679653E+02  0.40746551419E+03  0.40000000000E+03 0.  1.
   -9000005    1    1    2    0  501 -0.34519997566E+02  0.34191230253E+02  0.17117127282E+03  0.43779021814E+03  0.40000000000E+03 0. -1.
<mgrwt>
<rscale>  2 0.40294003E+03</rscale>
<asrwt>0</asrwt>
<pdfrwt beam="1">  1        1 0.56511087E-01 0.40294003E+03</pdfrwt>
<pdfrwt beam="2">  1       -1 0.73528256E-01 0.40294003E+03</pdfrwt>
<totfact> 0.13054780E+02</totfact>
</mgrwt>
</event>
<event>
 4    1  0.2358610E-002  0.4051956E+03  0.7818608E-02  0.1041995E+00
          2   -1    0    0  502    0  0.00000000000E+00  0.00000000000E+00  0.40606435337E+03  0.40606435337E+03  0.00000000000E+00 0. -1.
         -2   -1    0    0    0  501 -0.00000000000E+00 -0.00000000000E+00 -0.42707597517E+03  0.42707597517E+03  0.00000000000E+00 0.  1.
    9000005    1    1    2  502    0  0.15884571109E+02  0.62698887325E+02  0.85633350515E+02  0.41414555508E+03  0.40000000000E+03 0. -1.
   -9000005    1    1    2    0  501 -0.15884571109E+02 -0.62698887325E+02 -0.10664497231E+03  0.41899477346E+03  0.40000000000E+03 0.  1.
<mgrwt>
<rscale>  2 0.40519559E+03</rscale>
<asrwt>0</asrwt>
<pdfrwt beam="1">  1        2 0.62471439E-01 0.40519559E+03</pdfrwt>
<pdfrwt beam="2">  1       -2 0.65703996E-01 0.40519559E+03</pdfrwt>
<totfact> 0.17130803E+02</totfact>
</mgrwt>
</event>
<event>
 4    1  0.2358610E-002  0.4388481E+03  0.7818608E-02  0.1031101E+00
          1   -1    0    0  502    0  0.00000000000E+00  0.00000000000E+00  0.97211215592E+03  0.97211215592E+03  0.00000000000E+00 0.  1.
         -1   -1    0    0    0  501 -0.00000000000E+00 -0.00000000000E+00 -0.20116171837E+03  0.20116171837E+03  0.00000000000E+00 0. -1.
    9000005    1    1    2  502    0  0.13885632782E+03 -0.11535404177E+03  0.45769999766E+03  0.63409535764E+03  0.40000000000E+03 0.  1.
   -9000005    1    1    2    0  501 -0.13885632782E+03  0.11535404177E+03  0.31325043989E+03  0.53917851665E+03  0.40000000000E+03 0. -1.
<mgrwt>
<rscale>  2 0.43884808E+03</rscale>
<asrwt>0</asrwt>
<pdfrwt beam="1">  1        1 0.14955571E+00 0.43884808E+03</pdfrwt>
<pdfrwt beam="2">  1       -1 0.30947957E-01 0.43884808E+03</pdfrwt>
<totfact> 0.16044835E+02</totfact>
</mgrwt>
</event>
<event>
 4    1  0.2358610E-002  0.4153878E+03  0.7818608E-02  0.1038578E+00
          1   -1    0    0  502    0  0.00000000000E+00  0.00000000000E+00  0.74303344793E+03  0.74303344793E+03  0.00000000000E+00 0. -1.
         -1   -1    0    0    0  501 -0.00000000000E+00 -0.00000000000E+00 -0.23222061961E+03  0.23222061961E+03  0.00000000000E+00 0.  1.
    9000005    1    1    2  502    0 -0.51111399616E+02 -0.99672634530E+02  0.25637332220E+03  0.48813347517E+03  0.40000000000E+03 0. -1.
   -9000005    1    1    2    0  501  0.51111399616E+02  0.99672634530E+02  0.25443950612E+03  0.48712059238E+03  0.40000000000E+03 0. -1.
<mgrwt>
<rscale>  2 0.41538778E+03</rscale>
<asrwt>0</asrwt>
<pdfrwt beam="1">  1        1 0.11431284E+00 0.41538778E+03</pdfrwt>
<pdfrwt beam="2">  1       -1 0.35726250E-01 0.41538778E+03</pdfrwt>
<totfact> 0.19319811E+02</totfact>
</mgrwt>
</event>
<event>
 4    1  0.2358610E-002  0.4539020E+03  0.7818608E-02  0.1026565E+00
         -1   -1    0    0    0  501 -0.00000000000E+00  0.00000000000E+00  0.33064985395E+03  0.33064985395E+03  0.00000000000E+00 0.  1.
          1   -1    0    0  502    0  0.00000000000E+00 -0.00000000000E+00 -0.86026430193E+03  0.86026430193E+03  0.00000000000E+00 0. -1.
    9000005    1    1    2  502    0  0.19810188359E+03 -0.82356694615E+02  0.47845186162E+02  0.45641663343E+03  0.40000000000E+03 0.  1.
   -9000005    1    1    2    0  501 -0.19810188359E+03  0.82356694615E+02 -0.57745963414E+03  0.73449752245E+03  0.40000000000E+03 0. -1.
<mgrwt>
<rscale>  2 0.45390195E+03</rscale>
<asrwt>0</asrwt>
<pdfrwt beam="1">  1        1 0.13234835E+00 0.45390195E+03</pdfrwt>
<pdfrwt beam="2">  1       -1 0.50869208E-01 0.45390195E+03</pdfrwt>
<totfact> 0.80289671E+01</totfact>
</mgrwt>
</event>
<event>
 4    1  0.2358610E-002  0.4180195E+03  0.7818608E-02  0.1037713E+00
          1   -1    0    0  502    0  0.00000000000E+00  0.00000000000E+00  0.43937992138E+03  0.43937992138E+03  0.00000000000E+00 0.  1.
         -1   -1    0    0    0  501 -0.00000000000E+00 -0.00000000000E+00 -0.55644999612E+03  0.55644999612E+03  0.00000000000E+00 0. -1.
    9000005    1    1    2  502    0  0.31921023963E+02 -0.11713815163E+03  0.20741642146E+03  0.46664962255E+03  0.40000000000E+03 0.  1.
   -9000005    1    1    2    0  501 -0.31921023963E+02  0.11713815163E+03 -0.32448649620E+03  0.52918029494E+03  0.40000000000E+03 0. -1.
<mgrwt>
<rscale>  2 0.41801950E+03</rscale>
<asrwt>0</asrwt>
<pdfrwt beam="1">  1        1 0.67596911E-01 0.41801950E+03</pdfrwt>
<pdfrwt beam="2">  1       -1 0.85607692E-01 0.41801950E+03</pdfrwt>
<totfact> 0.75009203E+01</totfact>
</mgrwt>
</event>
<event>
 4    1  0.2358610E-002  0.4440078E+03  0.7818608E-02  0.1029524E+00
          1   -1    0    0  502    0  0.00000000000E+00  0.00000000000E+00  0.32247488803E+04  0.32247488803E+04  0.00000000000E+00 0.  1.
         -1   -1    0    0    0  501 -0.00000000000E+00 -0.00000000000E+00 -0.61145149478E+02  0.61145149478E+02  0.00000000000E+00 0. -1.
    9000005    1    1    2  502    0 -0.90339006675E+02 -0.17024044292E+03  0.15599729194E+04  0.16219304714E+04  0.40000000000E+03 0. -1.
   -9000005    1    1    2    0  501  0.90339006675E+02  0.17024044292E+03  0.16036308113E+04  0.16639635584E+04  0.40000000000E+03 0.  1.
<mgrwt>
<rscale>  2 0.44400782E+03</rscale>
<asrwt>0</asrwt>
<pdfrwt beam="1">  1        1 0.49611508E+00 0.44400782E+03</pdfrwt>
<pdfrwt beam="2">  1       -1 0.94069486E-02 0.44400782E+03</pdfrwt>
<totfact> 0.31885158E+01</totfact>
</mgrwt>
</event>
<event>
 4    1  0.2358610E-002  0.4125192E+03  0.7818608E-02  0.1039529E+00
          2   -1    0    0  502    0  0.00000000000E+00  0.00000000000E+00  0.10546854836E+04  0.10546854836E+04  0.00000000000E+00 0. -1.
         -2   -1    0    0    0  501 -0.00000000000E+00 -0.00000000000E+00 -0.16267488150E+03  0.16267488150E+03  0.00000000000E+00 0.  1.
    9000005    1    1    2  502    0 -0.69495452768E+02  0.73092153065E+02  0.50096423470E+03  0.64895088045E+03  0.40000000000E+03 0. -1.
   -9000005    1    1    2    0  501  0.69495452768E+02 -0.73092153065E+02  0.39104636745E+03  0.56840948469E+03  0.40000000000E+03 0.  1.
<mgrwt>
<rscale>  2 0.41251919E+03</rscale>
<asrwt>0</asrwt>
<pdfrwt beam="1">  1        2 0.16225930E+00 0.41251919E+03</pdfrwt>
<pdfrwt beam="2">  1       -2 0.25026906E-01 0.41251919E+03</pdfrwt>
<totfact> 0.34252494E+02</totfact>
</mgrwt>
</event>
<event>
 4    1  0.2358610E-002  0.7855093E+03  0.7818608E-02  0.9581232E-01
         -1   -1    0    0    0  501 -0.00000000000E+00  0.00000000000E+00  0.19896725311E+04  0.19896725311E+04  0.00000000000E+00 0.  1.
          1   -1    0    0  502    0  0.00000000000E+00 -0.00000000000E+00 -0.38647181360E+03  0.38647181360E+03  0.00000000000E+00 0. -1.
    9000005    1    1    2  502    0 -0.28663417965E+03  0.61226277658E+03  0.27350628736E+03  0.83176351793E+03  0.40000000000E+03 0. -1.
   -9000005    1    1    2    0  501  0.28663417965E+03 -0.61226277658E+03  0.13296944301E+04  0.15443808268E+04  0.40000000000E+03 0.  1.
<mgrwt>
<rscale>  2 0.78550930E+03</rscale>
<asrwt>0</asrwt>
<pdfrwt beam="1">  1        1 0.59457203E-01 0.78550930E+03</pdfrwt>
<pdfrwt beam="2">  1       -1 0.30610346E+00 0.78550930E+03</pdfrwt>
<totfact> 0.19809753E+00</totfact>
</mgrwt>
</event>
<event>
 4    1  0.2358610E-002  0.4819648E+03  0.7818608E-02  0.1018597E+00
         -2   -1    0    0    0  501 -0.00000000000E+00  0.00000000000E+00  0.25980289996E+03  0.25980289996E+03  0.00000000000E+00 0.  1.
          2   -1    0    0  502    0  0.00000000000E+00 -0.00000000000E+00 -0.10024512806E+04  0.10024512806E+04  0.00000000000E+00 0. -1.
    9000005    1    1    2  502    0  0.71075448915E+02 -0.25930350720E+03 -0.57881565600E+03  0.75320488044E+03  0.40000000000E+03 0. -1.
   -9000005    1    1    2    0  501 -0.71075448915E+02  0.25930350720E+03 -0.16383272461E+03  0.50904930010E+03  0.40000000000E+03 0.  1.
<mgrwt>
<rscale>  2 0.48196476E+03</rscale>
<asrwt>0</asrwt>
<pdfrwt beam="1">  1        2 0.15422328E+00 0.48196476E+03</pdfrwt>
<pdfrwt beam="2">  1       -2 0.39969676E-01 0.48196476E+03</pdfrwt>
<totfact> 0.15363779E+02</totfact>
</mgrwt>
</event>
<event>
 4    1  0.2358610E-002  0.5203870E+03  0.7818608E-02  0.1008590E+00
         -1   -1    0    0    0  501 -0.00000000000E+00  0.00000000000E+00  0.35822761579E+03  0.35822761579E+03  0.00000000000E+00 0. -1.
          1   -1    0    0  502    0  0.00000000000E+00 -0.00000000000E+00 -0.78048851431E+03  0.78048851431E+03  0.00000000000E+00 0.  1.
    9000005    1    1    2  502    0  0.10686814285E+03 -0.31524890558E+03 -0.31208219754E+03  0.60679318589E+03  0.40000000000E+03 0.  1.
   -9000005    1    1    2    0  501 -0.10686814285E+03  0.31524890558E+03 -0.11017870098E+03  0.53192294421E+03  0.40000000000E+03 0. -1.
<mgrwt>
<rscale>  2 0.52038704E+03</rscale>
<asrwt>0</asrwt>
<pdfrwt beam="1">  1        1 0.12007516E+00 0.52038704E+03</pdfrwt>
<pdfrwt beam="2">  1       -1 0.55111941E-01 0.52038704E+03</pdfrwt>
<totfact> 0.79835432E+01</totfact>
</mgrwt>
</event>
<event>
 4    1  0.2358610E-002  0.5756239E+03  0.7818608E-02  0.9957310E-01
          2   -1    0    0  502    0  0.00000000000E+00  0.00000000000E+00  0.29089589056E+04  0.29089589056E+04  0.00000000000E+00 0.  1.
         -2   -1    0    0    0  501 -0.00000000000E+00 -0.00000000000E+00 -0.31553667937E+03  0.31553667937E+03  0.00000000000E+00 0. -1.
    9000005    1    1    2  502    0 -0.29544243307E+03 -0.28992533162E+03  0.25855154909E+04  0.26488173366E+04  0.40000000000E+03 0.  1.
   -9000005    1    1    2    0  501  0.29544243307E+03  0.28992533162E+03  0.79067353648E+01  0.57567824836E+03  0.40000000000E+03 0. -1.
<mgrwt>
<rscale>  2 0.57562395E+03</rscale>
<asrwt>0</asrwt>
<pdfrwt beam="1">  1        2 0.44753212E+00 0.57562395E+03</pdfrwt>
<pdfrwt beam="2">  1       -2 0.48544107E-01 0.57562395E+03</pdfrwt>
<totfact> 0.87718814E+00</totfact>
</mgrwt>
</event>
<event>
 4    1  0.2358610E-002  0.4727827E+03  0.7818608E-02  0.1021138E+00
          1   -1    0    0  502    0  0.00000000000E+00  0.00000000000E+00  0.29942926839E+04  0.29942926839E+04  0.00000000000E+00 0.  1.
         -1   -1    0    0    0  501 -0.00000000000E+00 -0.00000000000E+00 -0.84985990593E+02  0.84985990593E+02  0.00000000000E+00 0. -1.
    9000005    1    1    2  502    0 -0.24841647289E+03 -0.42575861067E+02  0.91771441374E+03  0.10323387008E+04  0.40000000000E+03 0. -1.
   -9000005    1    1    2    0  501  0.24841647289E+03  0.42575861067E+02  0.19915922796E+04  0.20469399737E+04  0.40000000000E+03 0.  1.
<mgrwt>
<rscale>  2 0.47278266E+03</rscale>
<asrwt>0</asrwt>
<pdfrwt beam="1">  1        1 0.46066033E+00 0.47278266E+03</pdfrwt>
<pdfrwt beam="2">  1       -1 0.13074770E-01 0.47278266E+03</pdfrwt>
<totfact> 0.27584978E+01</totfact>
</mgrwt>
</event>
<event>
 4    1  0.2358610E-002  0.4499974E+03  0.7818608E-02  0.1027723E+00
         -2   -1    0    0    0  501 -0.00000000000E+00  0.00000000000E+00  0.67613910815E+02  0.67613910815E+02  0.00000000000E+00 0.  1.
          2   -1    0    0  502    0  0.00000000000E+00 -0.00000000000E+00 -0.30137778218E+04  0.30137778218E+04  0.00000000000E+00 0. -1.
    9000005    1    1    2  502    0 -0.19457015807E+03  0.68118393596E+02 -0.13511807974E+04  0.14241443779E+04  0.40000000000E+03 0. -1.
   -9000005    1    1    2    0  501  0.19457015807E+03 -0.68118393596E+02 -0.15949831136E+04  0.16572473547E+04  0.40000000000E+03 0. -1.
<mgrwt>
<rscale>  2 0.44999740E+03</rscale>
<asrwt>0</asrwt>
<pdfrwt beam="1">  1        2 0.46365809E+00 0.44999740E+03</pdfrwt>
<pdfrwt beam="2">  1       -2 0.10402141E-01 0.44999740E+03</pdfrwt>
<totfact> 0.12168951E+02</totfact>
</mgrwt>
</event>
<event>
 4    1  0.2358610E-002  0.4401711E+03  0.7818608E-02  0.1030694E+00
         -2   -1    0    0    0  501 -0.00000000000E+00  0.00000000000E+00  0.12054455766E+03  0.12054455766E+03  0.00000000000E+00 0.  1.
          2   -1    0    0  502    0  0.00000000000E+00 -0.00000000000E+00 -0.17370738527E+04  0.17370738527E+04  0.00000000000E+00 0. -1.
    9000005    1    1    2  502    0 -0.14306847080E+03 -0.11524749434E+03 -0.10621400464E+04  0.11497356438E+04  0.40000000000E+03 0. -1.
   -9000005    1    1    2    0  501  0.14306847080E+03  0.11524749434E+03 -0.55438924859E+03  0.70788276659E+03  0.40000000000E+03 0.  1.
<mgrwt>
<rscale>  2 0.44017107E+03</rscale>
<asrwt>0</asrwt>
<pdfrwt beam="1">  1        2 0.26724211E+00 0.44017107E+03</pdfrwt>
<pdfrwt beam="2">  1       -2 0.18545318E-01 0.44017107E+03</pdfrwt>
<totfact> 0.23920057E+02</totfact>
</mgrwt>
</event>
<event>
 4    1  0.2358610E-002  0.6392570E+03  0.7818608E-02  0.9827149E-01
          1   -1    0    0  502    0  0.00000000000E+00  0.00000000000E+00  0.92575557008E+03  0.92575557008E+03  0.00000000000E+00 0.  1.
         -1   -1    0    0    0  501 -0.00000000000E+00 -0.00000000000E+00 -0.44982612021E+03  0.44982612021E+03  0.00000000000E+00 0. -1.
    9000005    1    1    2  502    0  0.45448039172E+03  0.20517584715E+03  0.14395750295E+03  0.65526583718E+03  0.40000000000E+03 0.  1.
   -9000005    1    1    2    0  501 -0.45448039172E+03 -0.20517584715E+03  0.33197194692E+03  0.72031585312E+03  0.40000000000E+03 0. -1.
<mgrwt>
<rscale>  2 0.63925703E+03</rscale>
<asrwt>0</asrwt>
<pdfrwt beam="1">  1        1 0.14242393E+00 0.63925703E+03</pdfrwt>
<pdfrwt beam="2">  1       -1 0.69204019E-01 0.63925703E+03</pdfrwt>
<totfact> 0.38013667E+01</totfact>
</mgrwt>
</event>
<event>
 4    1  0.2358610E-002  0.4075987E+03  0.7818608E-02  0.1041180E+00
          1   -1    0    0  502    0  0.00000000000E+00  0.00000000000E+00  0.96595482999E+03  0.96595482999E+03  0.00000000000E+00 0.  1.
         -1   -1    0    0    0  501 -0.00000000000E+00 -0.00000000000E+00 -0.27171097662E+03  0.27171097662E+03  0.00000000000E+00 0. -1.
    9000005    1    1    2  502    0  0.28778285158E+02 -0.72859309737E+02  0.72201579603E+03  0.82912211310E+03  0.40000000000E+03 0.  1.
   -9000005    1    1    2    0  501 -0.28778285158E+02  0.72859309737E+02 -0.27771942657E+02  0.40854369352E+03  0.40000000000E+03 0. -1.
<mgrwt>
<rscale>  2 0.40759866E+03</rscale>
<asrwt>0</asrwt>
<pdfrwt beam="1">  1        1 0.14860843E+00 0.40759866E+03</pdfrwt>
<pdfrwt beam="2">  1       -1 0.41801689E-01 0.40759866E+03</pdfrwt>
<totfact> 0.95686196E+01</totfact>
</mgrwt>
</event>
<event>
 4    1  0.2358610E-002  0.7653455E+03  0.7818608E-02  0.9611579E-01
          1   -1    0    0  502    0  0.00000000000E+00  0.00000000000E+00  0.12679754320E+04  0.12679754320E+04  0.00000000000E+00 0. -1.
         -1   -1    0    0    0  501 -0.00000000000E+00 -0.00000000000E+00 -0.46240159960E+03  0.46240159960E+03  0.00000000000E+00 0.  1.
    9000005    1    1    2  502    0 -0.65210203492E+03 -0.22730448039E+02  0.37604513106E+03  0.85273892711E+03  0.40000000000E+03 0.  1.
   -9000005    1    1    2    0  501  0.65210203492E+03  0.22730448039E+02  0.42952870136E+03  0.87763810452E+03  0.40000000000E+03 0.  1.
<mgrwt>
<rscale>  2 0.76534550E+03</rscale>
<asrwt>0</asrwt>
<pdfrwt beam="1">  1        1 0.19507314E+00 0.76534550E+03</pdfrwt>
<pdfrwt beam="2">  1       -1 0.71138708E-01 0.76534550E+03</pdfrwt>
<totfact> 0.19604965E+01</totfact>
</mgrwt>
</event>
<event>
 4    1  0.2358610E-002  0.5156145E+03  0.7818608E-02  0.1009782E+00
         -2   -1    0    0    0  501 -0.00000000000E+00  0.00000000000E+00  0.32012709954E+03  0.32012709954E+03  0.00000000000E+00 0.  1.
          2   -1    0    0  502    0  0.00000000000E+00 -0.00000000000E+00 -0.83302317556E+03  0.83302317556E+03  0.00000000000E+00 0. -1.
    9000005    1    1    2  502    0 -0.17676493455E+03  0.27315275742E+03 -0.28832308501E+03  0.59075246282E+03  0.40000000000E+03 0.  1.
   -9000005    1    1    2    0  501  0.17676493455E+03 -0.27315275742E+03 -0.22457299101E+03  0.56239781229E+03  0.40000000000E+03 0.  1.
<mgrwt>
<rscale>  2 0.51561446E+03</rscale>
<asrwt>0</asrwt>
<pdfrwt beam="1">  1        2 0.12815741E+00 0.51561446E+03</pdfrwt>
<pdfrwt beam="2">  1       -2 0.49250323E-01 0.51561446E+03</pdfrwt>
<totfact> 0.13104196E+02</totfact>
</mgrwt>
</event>
<event>
 4    1  0.2358610E-002  0.4096141E+03  0.7818608E-02  0.1040501E+00
         -1   -1    0    0    0  501 -0.00000000000E+00  0.00000000000E+00  0.10166255119E+04  0.10166255119E+04  0.00000000000E+00 0.  1.
          1   -1    0    0  502    0  0.00000000000E+00 -0.00000000000E+00 -0.17215379737E+03  0.17215379737E+03  0.00000000000E+00 0. -1.
    9000005    1    1    2  502    0 -0.11645833445E+02  0.87453449668E+02  0.54306396751E+03  0.68022217261E+03  0.40000000000E+03 0. -1.
   -9000005    1    1    2    0  501  0.11645833445E+02 -0.87453449668E+02  0.30140774701E+03  0.50855713667E+03  0.40000000000E+03 0. -1.
<mgrwt>
<rscale>  2 0.40961412E+03</rscale>
<asrwt>0</asrwt>
<pdfrwt beam="1">  1        1 0.26485200E-01 0.40961412E+03</pdfrwt>
<pdfrwt beam="2">  1       -1 0.15640392E+00 0.40961412E+03</pdfrwt>
<totfact> 0.59276537E+01</totfact>
</mgrwt>
</event>
<event>
 4    1  0.2358610E-002  0.4038122E+03  0.7818608E-02  0.1042468E+00
          1   -1    0    0  502    0  0.00000000000E+00  0.00000000000E+00  0.16351111546E+04  0.16351111546E+04  0.00000000000E+00 0. -1.
         -1   -1    0    0    0  501 -0.00000000000E+00 -0.00000000000E+00 -0.12055706298E+03  0.12055706298E+03  0.00000000000E+00 0.  1.
    9000005    1    1    2  502    0  0.51701857977E+02  0.19779191963E+02  0.11221688972E+04  0.11926136560E+04  0.40000000000E+03 0. -1.
   -9000005    1    1    2    0  501 -0.51701857977E+02 -0.19779191963E+02  0.39238519440E+03  0.56305456160E+03  0.40000000000E+03 0.  1.
<mgrwt>
<rscale>  2 0.40381221E+03</rscale>
<asrwt>0</asrwt>
<pdfrwt beam="1">  1        1 0.25155555E+00 0.40381221E+03</pdfrwt>
<pdfrwt beam="2">  1       -1 0.18547242E-01 0.40381221E+03</pdfrwt>
<totfact> 0.13046370E+02</totfact>
</mgrwt>
</event>
<event>
 4    1  0.2358610E-002  0.4679377E+03  0.7818608E-02  0.1022504E+00
          1   -1    0    0  502    0  0.00000000000E+00  0.00000000000E+00  0.34490747897E+03  0.34490747897E+03  0.00000000000E+00 0.  1.
         -1   -1    0    0    0  501 -0.00000000000E+00 -0.00000000000E+00 -0.10845045718E+04  0.10845045718E+04  0.00000000000E+00 0. -1.
    9000005    1    1    2  502    0  0.96134192949E+02  0.22298859809E+03 -0.83000170753E+03  0.95282135390E+03  0.40000000000E+03 0. -1.
   -9000005    1    1    2    0  501 -0.96134192949E+02 -0.22298859809E+03  0.90404614753E+02  0.47659069682E+03  0.40000000000E+03 0.  1.
<mgrwt>
<rscale>  2 0.46793771E+03</rscale>
<asrwt>0</asrwt>
<pdfrwt beam="1">  1        1 0.53062690E-01 0.46793771E+03</pdfrwt>
<pdfrwt beam="2">  1       -1 0.16684685E+00 0.46793771E+03</pdfrwt>
<totfact> 0.20178047E+01</totfact>
</mgrwt>
</event>
<event>
 4    1  0.2358610E-002  0.4334967E+03  0.7818608E-02  0.1032761E+00
         -1   -1    0    0    0  501 -0.00000000000E+00  0.00000000000E+00  0.76882843505E+03  0.76882843505E+03  0.00000000000E+00 0. -1.
          1   -1    0    0  502    0  0.00000000000E+00 -0.00000000000E+00 -0.81195051111E+03  0.81195051111E+03  0.00000000000E+00 0.  1.
    9000005    1    1    2  502    0  0.82784362703E+02 -0.14514168328E+03  0.63923864191E+03  0.77236351561E+03  0.40000000000E+03 0. -1.
   -9000005    1    1    2    0  501 -0.82784362703E+02  0.14514168328E+03 -0.68236071797E+03  0.80841543056E+03  0.40000000000E+03 0.  1.
<mgrwt>
<rscale>  2 0.43349667E+03</rscale>
<asrwt>0</asrwt>
<pdfrwt beam="1">  1        1 0.12491546E+00 0.43349667E+03</pdfrwt>
<pdfrwt beam="2">  1       -1 0.11828130E+00 0.43349667E+03</pdfrwt>
<totfact> 0.15005203E+01</totfact>
</mgrwt>
</event>
<event>
 4    1  0.2358610E-002  0.5834150E+03  0.7818608E-02  0.9940425E-01
          2   -1    0    0  502    0  0.00000000000E+00  0.00000000000E+00  0.16080048769E+04  0.16080048769E+04  0.00000000000E+00 0.  1.
         -2   -1    0    0    0  501 -0.00000000000E+00 -0.00000000000E+00 -0.22133876900E+03  0.22133876900E+03  0.00000000000E+00 0. -1.
    9000005    1    1    2  502    0 -0.30425096453E+03  0.29631817590E+03  0.88446280408E+03  0.10595506418E+04  0.40000000000E+03 0.  1.
   -9000005    1    1    2    0  501  0.30425096453E+03 -0.29631817590E+03  0.50220330385E+03  0.76979300411E+03  0.40000000000E+03 0.  1.
<mgrwt>
<rscale>  2 0.58341504E+03</rscale>
<asrwt>0</asrwt>
<pdfrwt beam="1">  1        2 0.24738536E+00 0.58341504E+03</pdfrwt>
<pdfrwt beam="2">  1       -2 0.34052119E-01 0.58341504E+03</pdfrwt>
<totfact> 0.92558430E+01</totfact>
</mgrwt>
</event>
<event>
 4    1  0.2358610E-002  0.5821931E+03  0.7818608E-02  0.9943054E-01
         -1   -1    0    0    0  501 -0.00000000000E+00  0.00000000000E+00  0.56754139313E+03  0.56754139313E+03  0.00000000000E+00 0. -1.
          1   -1    0    0  502    0  0.00000000000E+00 -0.00000000000E+00 -0.10478504539E+04  0.10478504539E+04  0.00000000000E+00 0.  1.
    9000005    1    1    2  502    0 -0.41550693685E+03 -0.79389855906E+02  0.28951753581E+03  0.65020701883E+03  0.40000000000E+03 0. -1.
   -9000005    1    1    2    0  501  0.41550693685E+03  0.79389855906E+02 -0.76982659661E+03  0.96518482823E+03  0.40000000000E+03 0.  1.
<mgrwt>
<rscale>  2 0.58219306E+03</rscale>
<asrwt>0</asrwt>
<pdfrwt beam="1">  1        1 0.16120776E+00 0.58219306E+03</pdfrwt>
<pdfrwt beam="2">  1       -1 0.87314060E-01 0.58219306E+03</pdfrwt>
<totfact> 0.18917415E+01</totfact>
</mgrwt>
</event>
<event>
 4    1  0.2358610E-002  0.4164477E+03  0.7818608E-02  0.1038229E+00
         -3   -1    0    0    0  501 -0.00000000000E+00  0.00000000000E+00  0.36916066562E+03  0.36916066562E+03  0.00000000000E+00 0.  1.
          3   -1    0    0  502    0  0.00000000000E+00 -0.00000000000E+00 -0.84077037881E+03  0.84077037881E+03  0.00000000000E+00 0. -1.
    9000005    1    1    2  502    0  0.11126230164E+03  0.32394685337E+02  0.16604724281E+03  0.44833068404E+03  0.40000000000E+03 0.  1.
   -9000005    1    1    2    0  501 -0.11126230164E+03 -0.32394685337E+02 -0.63765695600E+03  0.76160036039E+03  0.40000000000E+03 0. -1.
<mgrwt>
<rscale>  2 0.41644773E+03</rscale>
<asrwt>0</asrwt>
<pdfrwt beam="1">  1        3 0.12934929E+00 0.41644773E+03</pdfrwt>
<pdfrwt beam="2">  1       -3 0.56793949E-01 0.41644773E+03</pdfrwt>
<totfact> 0.37595456E+00</totfact>
</mgrwt>
</event>
<event>
 4    1  0.2358610E-002  0.4770341E+03  0.7818608E-02  0.1019953E+00
         -2   -1    0    0    0  501 -0.00000000000E+00  0.00000000000E+00  0.45468806265E+03  0.45468806265E+03  0.00000000000E+00 0.  1.
          2   -1    0    0  502    0  0.00000000000E+00 -0.00000000000E+00 -0.65335868084E+03  0.65335868084E+03  0.00000000000E+00 0. -1.
    9000005    1    1    2  502    0 -0.22868312417E+03 -0.12355385796E+03 -0.36733116190E+03  0.60207450502E+03  0.40000000000E+03 0. -1.
   -9000005    1    1    2    0  501  0.22868312417E+03  0.12355385796E+03  0.16866054371E+03  0.50597223847E+03  0.40000000000E+03 0.  1.
<mgrwt>
<rscale>  2 0.47703409E+03</rscale>
<asrwt>0</asrwt>
<pdfrwt beam="1">  1        2 0.10051672E+00 0.47703409E+03</pdfrwt>
<pdfrwt beam="2">  1       -2 0.69952010E-01 0.47703409E+03</pdfrwt>
<totfact> 0.85973381E+01</totfact>
</mgrwt>
</event>
<event>
 4    1  0.2358610E-002  0.4053129E+03  0.7818608E-02  0.1041955E+00
          2   -1    0    0  502    0  0.00000000000E+00  0.00000000000E+00  0.39480954790E+03  0.39480954790E+03  0.00000000000E+00 0. -1.
         -2   -1    0    0    0  501 -0.00000000000E+00 -0.00000000000E+00 -0.48703702916E+03  0.48703702916E+03  0.00000000000E+00 0.  1.
    9000005    1    1    2  502    0 -0.13153851245E+02  0.64074147211E+02  0.12216605636E+03  0.42332383050E+03  0.40000000000E+03 0. -1.
   -9000005    1    1    2    0  501  0.13153851245E+02 -0.64074147211E+02 -0.21439353762E+03  0.45852274656E+03  0.40000000000E+03 0.  1.
<mgrwt>
<rscale>  2 0.40531287E+03</rscale>
<asrwt>0</asrwt>
<pdfrwt beam="1">  1        2 0.60739931E-01 0.40531287E+03</pdfrwt>
<pdfrwt beam="2">  1       -2 0.74928773E-01 0.40531287E+03</pdfrwt>
<totfact> 0.13298509E+02</totfact>
</mgrwt>
</event>
<event>
 4    1  0.2358610E-002  0.5258426E+03  0.7818608E-02  0.1007245E+00
         -1   -1    0    0    0  501 -0.00000000000E+00  0.00000000000E+00  0.55451709305E+03  0.55451709305E+03  0.00000000000E+00 0.  1.
          1   -1    0    0  502    0  0.00000000000E+00 -0.00000000000E+00 -0.51197138825E+03  0.51197138825E+03  0.00000000000E+00 0. -1.
    9000005    1    1    2  502    0 -0.83565333634E+02 -0.33094905389E+03 -0.64740046293E+02  0.52981290552E+03  0.40000000000E+03 0. -1.
   -9000005    1    1    2    0  501  0.83565333634E+02  0.33094905389E+03  0.10728575109E+03  0.53667557578E+03  0.40000000000E+03 0.  1.
<mgrwt>
<rscale>  2 0.52584260E+03</rscale>
<asrwt>0</asrwt>
<pdfrwt beam="1">  1        1 0.78764829E-01 0.52584260E+03</pdfrwt>
<pdfrwt beam="2">  1       -1 0.85310322E-01 0.52584260E+03</pdfrwt>
<totfact> 0.60735080E+01</totfact>
</mgrwt>
</event>
<event>
 4    1  0.2358610E-002  0.4202519E+03  0.7818608E-02  0.1036984E+00
         -1   -1    0    0    0  501 -0.00000000000E+00  0.00000000000E+00  0.32140457943E+03  0.32140457943E+03  0.00000000000E+00 0.  1.
          1   -1    0    0  502    0  0.00000000000E+00 -0.00000000000E+00 -0.58715784142E+03  0.58715784142E+03  0.00000000000E+00 0. -1.
    9000005    1    1    2  502    0 -0.10428681485E+03  0.75736019698E+02 -0.24792419312E+03  0.48793246455E+03  0.40000000000E+03 0. -1.
   -9000005    1    1    2    0  501  0.10428681485E+03 -0.75736019698E+02 -0.17829068873E+02  0.42062995629E+03  0.40000000000E+03 0. -1.
<mgrwt>
<rscale>  2 0.42025193E+03</rscale>
<asrwt>0</asrwt>
<pdfrwt beam="1">  1        1 0.90331974E-01 0.42025193E+03</pdfrwt>
<pdfrwt beam="2">  1       -1 0.49446859E-01 0.42025193E+03</pdfrwt>
<totfact> 0.15092480E+02</totfact>
</mgrwt>
</event>
<event>
 4    1  0.2358610E-002  0.4647942E+03  0.7818608E-02  0.1023400E+00
         -1   -1    0    0    0  501 -0.00000000000E+00  0.00000000000E+00  0.44405107728E+03  0.44405107728E+03  0.00000000000E+00 0.  1.
          1   -1    0    0  502    0  0.00000000000E+00 -0.00000000000E+00 -0.50861221321E+03  0.50861221321E+03  0.00000000000E+00 0. -1.
    9000005    1    1    2  502    0 -0.21240353419E+03  0.10449100126E+03  0.67024319966E+02  0.46960184214E+03  0.40000000000E+03 0.  1.
   -9000005    1    1    2    0  501  0.21240353419E+03 -0.10449100126E+03 -0.13158545590E+03  0.48306144835E+03  0.40000000000E+03 0. -1.
<mgrwt>
<rscale>  2 0.46479418E+03</rscale>
<asrwt>0</asrwt>
<pdfrwt beam="1">  1        1 0.78248032E-01 0.46479418E+03</pdfrwt>
<pdfrwt beam="2">  1       -1 0.68315551E-01 0.46479418E+03</pdfrwt>
<totfact> 0.97926202E+01</totfact>
</mgrwt>
</event>
<event>
 4    1  0.2358610E-002  0.4008075E+03  0.7818608E-02  0.1043500E+00
          1   -1    0    0  502    0  0.00000000000E+00  0.00000000000E+00  0.26604758302E+04  0.26604758302E+04  0.00000000000E+00 0.  1.
         -1   -1    0    0    0  501 -0.00000000000E+00 -0.00000000000E+00 -0.60749205934E+02  0.60749205934E+02  0.00000000000E+00 0. -1.
    9000005    1    1    2  502    0  0.12322605653E+02 -0.22244910549E+02  0.11941787321E+04  0.12596465880E+04  0.40000000000E+03 0. -1.
   -9000005    1    1    2    0  501 -0.12322605653E+02  0.22244910549E+02  0.14055478922E+04  0.14615784481E+04  0.40000000000E+03 0.  1.
<mgrwt>
<rscale>  2 0.40080754E+03</rscale>
<asrwt>0</asrwt>
<pdfrwt beam="1">  1        1 0.40930388E+00 0.40080754E+03</pdfrwt>
<pdfrwt beam="2">  1       -1 0.93460337E-02 0.40080754E+03</pdfrwt>
<totfact> 0.81189703E+01</totfact>
</mgrwt>
</event>
<event>
 4    1  0.2358610E-002  0.7343549E+03  0.7818608E-02  0.9660220E-01
         -2   -1    0    0    0  501 -0.00000000000E+00  0.00000000000E+00  0.96313050645E+03  0.96313050645E+03  0.00000000000E+00 0.  1.
          2   -1    0    0  502    0  0.00000000000E+00 -0.00000000000E+00 -0.60593057440E+03  0.60593057440E+03  0.00000000000E+00 0. -1.
    9000005    1    1    2  502    0 -0.36672268978E+03  0.49476422584E+03 -0.37583102094E+02  0.73531602725E+03  0.40000000000E+03 0. -1.
   -9000005    1    1    2    0  501  0.36672268978E+03 -0.49476422584E+03  0.39478303414E+03  0.83374505361E+03  0.40000000000E+03 0.  1.
<mgrwt>
<rscale>  2 0.73435493E+03</rscale>
<asrwt>0</asrwt>
<pdfrwt beam="1">  1        2 0.93220088E-01 0.73435493E+03</pdfrwt>
<pdfrwt beam="2">  1       -2 0.14817392E+00 0.73435493E+03</pdfrwt>
<totfact> 0.15408981E+01</totfact>
</mgrwt>
</event>
<event>
 4    1  0.2358610E-002  0.4910281E+03  0.7818608E-02  0.1016148E+00
          1   -1    0    0  502    0  0.00000000000E+00  0.00000000000E+00  0.29676759921E+03  0.29676759921E+03  0.00000000000E+00 0.  1.
         -1   -1    0    0    0  501 -0.00000000000E+00 -0.00000000000E+00 -0.19150903989E+04  0.19150903989E+04  0.00000000000E+00 0. -1.
    9000005    1    1    2  502    0  0.68672209535E+02 -0.27639233655E+03 -0.16483309482E+04  0.17199138091E+04  0.40000000000E+03 0. -1.
   -9000005    1    1    2    0  501 -0.68672209535E+02  0.27639233655E+03  0.30008148536E+02  0.49194418895E+03  0.40000000000E+03 0.  1.
<mgrwt>
<rscale>  2 0.49102810E+03</rscale>
<asrwt>0</asrwt>
<pdfrwt beam="1">  1        1 0.45656552E-01 0.49102810E+03</pdfrwt>
<pdfrwt beam="2">  1       -1 0.29462931E+00 0.49102810E+03</pdfrwt>
<totfact> 0.34969773E+00</totfact>
</mgrwt>
</event>
<event>
 4    1  0.2358610E-002  0.5745256E+03  0.7818608E-02  0.9959714E-01
          2   -1    0    0  502    0  0.00000000000E+00  0.00000000000E+00  0.16559099851E+04  0.16559099851E+04  0.00000000000E+00 0. -1.
         -2   -1    0    0    0  501 -0.00000000000E+00 -0.00000000000E+00 -0.20821029433E+03  0.20821029433E+03  0.00000000000E+00 0.  1.
    9000005    1    1    2  502    0  0.38609882481E+03  0.14493927443E+03  0.91629225343E+03  0.10815133792E+04  0.40000000000E+03 0.  1.
   -9000005    1    1    2    0  501 -0.38609882481E+03 -0.14493927443E+03  0.53140743737E+03  0.78260690023E+03  0.40000000000E+03 0. -1.
<mgrwt>
<rscale>  2 0.57452563E+03</rscale>
<asrwt>0</asrwt>
<pdfrwt beam="1">  1        2 0.25475537E+00 0.57452563E+03</pdfrwt>
<pdfrwt beam="2">  1       -2 0.32032354E-01 0.57452563E+03</pdfrwt>
<totfact> 0.97873381E+01</totfact>
</mgrwt>
</event>
<event>
 4    1  0.2358610E-002  0.4185252E+03  0.7818608E-02  0.1037547E+00
         -1   -1    0    0    0  501 -0.00000000000E+00  0.00000000000E+00  0.43309305085E+03  0.43309305085E+03  0.00000000000E+00 0. -1.
          1   -1    0    0  502    0  0.00000000000E+00 -0.00000000000E+00 -0.40606248123E+03  0.40606248123E+03  0.00000000000E+00 0.  1.
    9000005    1    1    2  502    0  0.17464557002E+02  0.12189477164E+03  0.39976941376E+02  0.42043013920E+03  0.40000000000E+03 0.  1.
   -9000005    1    1    2    0  501 -0.17464557002E+02 -0.12189477164E+03 -0.12946371751E+02  0.41872539288E+03  0.40000000000E+03 0.  1.
<mgrwt>
<rscale>  2 0.41852520E+03</rscale>
<asrwt>0</asrwt>
<pdfrwt beam="1">  1        1 0.62471151E-01 0.41852520E+03</pdfrwt>
<pdfrwt beam="2">  1       -1 0.66629700E-01 0.41852520E+03</pdfrwt>
<totfact> 0.13964616E+02</totfact>
</mgrwt>
</event>
<event>
 4    1  0.2358610E-002  0.4173441E+03  0.7818608E-02  0.1037934E+00
         -2   -1    0    0    0  501 -0.00000000000E+00  0.00000000000E+00  0.34058134040E+03  0.34058134040E+03  0.00000000000E+00 0.  1.
          2   -1    0    0  502    0  0.00000000000E+00 -0.00000000000E+00 -0.56055965323E+03  0.56055965323E+03  0.00000000000E+00 0. -1.
    9000005    1    1    2  502    0 -0.68147780640E+02  0.97631761505E+02  0.23430597777E+02  0.41800128442E+03  0.40000000000E+03 0.  1.
   -9000005    1    1    2    0  501  0.68147780640E+02 -0.97631761505E+02 -0.24340891060E+03  0.48313970921E+03  0.40000000000E+03 0. -1.
<mgrwt>
<rscale>  2 0.41734408E+03</rscale>
<asrwt>0</asrwt>
<pdfrwt beam="1">  1        2 0.86239946E-01 0.41734408E+03</pdfrwt>
<pdfrwt beam="2">  1       -2 0.52397130E-01 0.41734408E+03</pdfrwt>
<totfact> 0.19029921E+02</totfact>
</mgrwt>
</event>
<event>
 4    1  0.2358610E-002  0.4425816E+03  0.7818608E-02  0.1029958E+00
         -2   -1    0    0    0  501 -0.00000000000E+00  0.00000000000E+00  0.20373047328E+03  0.20373047328E+03  0.00000000000E+00 0.  1.
          2   -1    0    0  502    0  0.00000000000E+00 -0.00000000000E+00 -0.97185353411E+03  0.97185353411E+03  0.00000000000E+00 0. -1.
    9000005    1    1    2  502    0  0.15163148505E+03 -0.11351797656E+03 -0.32327157663E+03  0.54807203041E+03  0.40000000000E+03 0.  1.
   -9000005    1    1    2    0  501 -0.15163148505E+03  0.11351797656E+03 -0.44485148420E+03  0.62751197698E+03  0.40000000000E+03 0. -1.
<mgrwt>
<rscale>  2 0.44258156E+03</rscale>
<asrwt>0</asrwt>
<pdfrwt beam="1">  1        2 0.14951592E+00 0.44258156E+03</pdfrwt>
<pdfrwt beam="2">  1       -2 0.31343151E-01 0.44258156E+03</pdfrwt>
<totfact> 0.25547150E+02</totfact>
</mgrwt>
</event>
<event>
 4    1  0.2358610E-002  0.4419424E+03  0.7818608E-02  0.1030153E+00
         -1   -1    0    0    0  501 -0.00000000000E+00  0.00000000000E+00  0.25648733829E+03  0.25648733829E+03  0.00000000000E+00 0.  1.
          1   -1    0    0  502    0  0.00000000000E+00 -0.00000000000E+00 -0.82506362160E+03  0.82506362160E+03  0.00000000000E+00 0. -1.
    9000005    1    1    2  502    0  0.13890473383E+03  0.12656444716E+03 -0.43439638474E+03  0.61968806947E+03  0.40000000000E+03 0.  1.
   -9000005    1    1    2    0  501 -0.13890473383E+03 -0.12656444716E+03 -0.13417989858E+03  0.46186289042E+03  0.40000000000E+03 0. -1.
<mgrwt>
<rscale>  2 0.44194240E+03</rscale>
<asrwt>0</asrwt>
<pdfrwt beam="1">  1        1 0.12693286E+00 0.44194240E+03</pdfrwt>
<pdfrwt beam="2">  1       -1 0.39459591E-01 0.44194240E+03</pdfrwt>
<totfact> 0.13715246E+02</totfact>
</mgrwt>
</event>
<event>
 4    1  0.2358610E-002  0.4139814E+03  0.7818608E-02  0.1039043E+00
          2   -1    0    0  502    0  0.00000000000E+00  0.00000000000E+00  0.31844861121E+03  0.31844861121E+03  0.00000000000E+00 0.  1.
         -2   -1    0    0    0  501 -0.00000000000E+00 -0.00000000000E+00 -0.54079874584E+03  0.54079874584E+03  0.00000000000E+00 0. -1.
    9000005    1    1    2  502    0  0.10221059066E+03 -0.30554614768E+02 -0.81241458085E+02  0.42187766454E+03  0.40000000000E+03 0.  1.
   -9000005    1    1    2    0  501 -0.10221059066E+03  0.30554614768E+02 -0.14110867654E+03  0.43736969251E+03  0.40000000000E+03 0.  1.
<mgrwt>
<rscale>  2 0.41398139E+03</rscale>
<asrwt>0</asrwt>
<pdfrwt beam="1">  1        2 0.48992095E-01 0.41398139E+03</pdfrwt>
<pdfrwt beam="2">  1       -2 0.83199806E-01 0.41398139E+03</pdfrwt>
<totfact> 0.13341891E+02</totfact>
</mgrwt>
</event>
<event>
 4    1  0.2358610E-002  0.4290231E+03  0.7818608E-02  0.1034169E+00
          1   -1    0    0  502    0  0.00000000000E+00  0.00000000000E+00  0.21286391267E+04  0.21286391267E+04  0.00000000000E+00 0.  1.
         -1   -1    0    0    0  501 -0.00000000000E+00 -0.00000000000E+00 -0.10526538557E+03  0.10526538557E+03  0.00000000000E+00 0. -1.
    9000005    1    1    2  502    0 -0.95546874815E+02 -0.12219483102E+03  0.14836757676E+04  0.15444593116E+04  0.40000000000E+03 0.  1.
   -9000005    1    1    2    0  501  0.95546874815E+02  0.12219483102E+03  0.53969797355E+03  0.68944520062E+03  0.40000000000E+03 0. -1.
<mgrwt>
<rscale>  2 0.42902306E+03</rscale>
<asrwt>0</asrwt>
<pdfrwt beam="1">  1        1 0.32748291E+00 0.42902306E+03</pdfrwt>
<pdfrwt beam="2">  1       -1 0.16194676E-01 0.42902306E+03</pdfrwt>
<totfact> 0.76543586E+01</totfact>
</mgrwt>
</event>
<event>
 4    1  0.2358610E-002  0.4570018E+03  0.7818608E-02  0.1025654E+00
          1   -1    0    0  502    0  0.00000000000E+00  0.00000000000E+00  0.15514454614E+04  0.15514454614E+04  0.00000000000E+00 0.  1.
         -1   -1    0    0    0  501 -0.00000000000E+00 -0.00000000000E+00 -0.27018793593E+03  0.27018793593E+03  0.00000000000E+00 0. -1.
    9000005    1    1    2  502    0 -0.63253616985E+02 -0.21177723012E+03  0.12858098578E+04  0.13646089571E+04  0.40000000000E+03 0.  1.
   -9000005    1    1    2    0  501  0.63253616985E+02  0.21177723012E+03 -0.45523323460E+01  0.45702444025E+03  0.40000000000E+03 0. -1.
<mgrwt>
<rscale>  2 0.45700177E+03</rscale>
<asrwt>0</asrwt>
<pdfrwt beam="1">  1        1 0.23868391E+00 0.45700177E+03</pdfrwt>
<pdfrwt beam="2">  1       -1 0.41567375E-01 0.45700177E+03</pdfrwt>
<totfact> 0.36875708E+01</totfact>
</mgrwt>
</event>
<event>
 4    1  0.2358610E-002  0.5879103E+03  0.7818608E-02  0.9930811E-01
          2   -1    0    0  502    0  0.00000000000E+00  0.00000000000E+00  0.69787172879E+03  0.69787172879E+03  0.00000000000E+00 0. -1.
         -2   -1    0    0    0  501 -0.00000000000E+00 -0.00000000000E+00 -0.76086018897E+03  0.76086018897E+03  0.00000000000E+00 0.  1.
    9000005    1    1    2  502    0 -0.36273840789E+03  0.23250681505E+03 -0.46241240168E+03  0.74797312841E+03  0.40000000000E+03 0.  1.
   -9000005    1    1    2    0  501  0.36273840789E+03 -0.23250681505E+03  0.39942394150E+03  0.71075878935E+03  0.40000000000E+03 0. -1.
<mgrwt>
<rscale>  2 0.58791034E+03</rscale>
<asrwt>0</asrwt>
<pdfrwt beam="1">  1        2 0.10736488E+00 0.58791034E+03</pdfrwt>
<pdfrwt beam="2">  1       -2 0.11705541E+00 0.58791034E+03</pdfrwt>
<totfact> 0.23931186E+01</totfact>
</mgrwt>
</event>
<event>
 4    1  0.2358610E-002  0.4040064E+03  0.7818608E-02  0.1042401E+00
         -2   -1    0    0    0  501 -0.00000000000E+00  0.00000000000E+00  0.16611940508E+03  0.16611940508E+03  0.00000000000E+00 0.  1.
          2   -1    0    0  502    0  0.00000000000E+00 -0.00000000000E+00 -0.98256674661E+03  0.98256674661E+03  0.00000000000E+00 0. -1.
    9000005    1    1    2  502    0 -0.56691274480E+02 -0.26928130563E+01 -0.41035682086E+03  0.57585924692E+03  0.40000000000E+03 0. -1.
   -9000005    1    1    2    0  501  0.56691274480E+02  0.26928130563E+01 -0.40609052067E+03  0.57282690476E+03  0.40000000000E+03 0. -1.
<mgrwt>
<rscale>  2 0.40400638E+03</rscale>
<asrwt>0</asrwt>
<pdfrwt beam="1">  1        2 0.15116411E+00 0.40400638E+03</pdfrwt>
<pdfrwt beam="2">  1       -2 0.25556832E-01 0.40400638E+03</pdfrwt>
<totfact> 0.36592428E+02</totfact>
</mgrwt>
</event>
<event>
 4    1  0.2358610E-002  0.5667011E+03  0.7818608E-02  0.9977005E-01
         -2   -1    0    0    0  501 -0.00000000000E+00  0.00000000000E+00  0.10135070159E+03  0.10135070159E+03  0.00000000000E+00 0. -1.
          2   -1    0    0  502    0  0.00000000000E+00 -0.00000000000E+00 -0.40100723789E+04  0.40100723789E+04  0.00000000000E+00 0.  1.
    9000005    1    1    2  502    0 -0.67742005578E+02  0.39567809273E+03 -0.28959897302E+04  0.29509162390E+04  0.40000000000E+03 0.  1.
   -9000005    1    1    2    0  501  0.67742005578E+02 -0.39567809273E+03 -0.10127319471E+04  0.11605068415E+04  0.40000000000E+03 0. -1.
<mgrwt>
<rscale>  2 0.56670110E+03</rscale>
<asrwt>0</asrwt>
<pdfrwt beam="1">  1        2 0.61693421E+00 0.56670110E+03</pdfrwt>
<pdfrwt beam="2">  1       -2 0.15592416E-01 0.56670110E+03</pdfrwt>
<totfact> 0.12655796E+01</totfact>
</mgrwt>
</event>
<event>
 4    1  0.2358610E-002  0.5760452E+03  0.7818608E-02  0.9956390E-01
         -1   -1    0    0    0  501 -0.00000000000E+00  0.00000000000E+00  0.49777233598E+03  0.49777233598E+03  0.00000000000E+00 0. -1.
          1   -1    0    0  502    0  0.00000000000E+00 -0.00000000000E+00 -0.68419382861E+03  0.68419382861E+03  0.00000000000E+00 0.  1.
    9000005    1    1    2  502    0 -0.41269728387E+03 -0.38845498564E+02 -0.18790934042E+03  0.60591908790E+03  0.40000000000E+03 0.  1.
   -9000005    1    1    2    0  501  0.41269728387E+03  0.38845498564E+02  0.14878477916E+01  0.57604707669E+03  0.40000000000E+03 0. -1.
<mgrwt>
<rscale>  2 0.57604516E+03</rscale>
<asrwt>0</asrwt>
<pdfrwt beam="1">  1        1 0.10526059E+00 0.57604516E+03</pdfrwt>
<pdfrwt beam="2">  1       -1 0.76580359E-01 0.57604516E+03</pdfrwt>
<totfact> 0.50228472E+01</totfact>
</mgrwt>
</event>
<event>
 4    1  0.2358610E-002  0.4178366E+03  0.7818608E-02  0.1037773E+00
          2   -1    0    0  502    0  0.00000000000E+00  0.00000000000E+00  0.40146154476E+03  0.40146154476E+03  0.00000000000E+00 0.  1.
         -2   -1    0    0    0  501 -0.00000000000E+00 -0.00000000000E+00 -0.44655743724E+03  0.44655743724E+03  0.00000000000E+00 0. -1.
    9000005    1    1    2  502    0  0.99639990783E+02  0.68258860059E+02 -0.91115681160E+02  0.42765578108E+03  0.40000000000E+03 0.  1.
   -9000005    1    1    2    0  501 -0.99639990783E+02 -0.68258860059E+02  0.46019788678E+02  0.42036320092E+03  0.40000000000E+03 0.  1.
<mgrwt>
<rscale>  2 0.41783657E+03</rscale>
<asrwt>0</asrwt>
<pdfrwt beam="1">  1        2 0.61763315E-01 0.41783657E+03</pdfrwt>
<pdfrwt beam="2">  1       -2 0.68701144E-01 0.41783657E+03</pdfrwt>
<totfact> 0.15753165E+02</totfact>
</mgrwt>
</event>
<event>
 4    1  0.2358610E-002  0.5066222E+03  0.7818608E-02  0.1012065E+00
          1   -1    0    0  502    0  0.00000000000E+00  0.00000000000E+00  0.57868026455E+03  0.57868026455E+03  0.00000000000E+00 0.  1.
         -1   -1    0    0    0  501 -0.00000000000E+00 -0.00000000000E+00 -0.44354128535E+03  0.44354128535E+03  0.00000000000E+00 0. -1.
    9000005    1    1    2  502    0 -0.30816162103E+03 -0.41261071637E+02  0.69173421514E+02  0.51132281677E+03  0.40000000000E+03 0. -1.
   -9000005    1    1    2    0  501  0.30816162103E+03  0.41261071637E+02  0.65965557690E+02  0.51089873313E+03  0.40000000000E+03 0.  1.
<mgrwt>
<rscale>  2 0.50662221E+03</rscale>
<asrwt>0</asrwt>
<pdfrwt beam="1">  1        1 0.89027733E-01 0.50662221E+03</pdfrwt>
<pdfrwt beam="2">  1       -1 0.68237121E-01 0.50662221E+03</pdfrwt>
<totfact> 0.81724131E+01</totfact>
</mgrwt>
</event>
<event>
 4    1  0.2358610E-002  0.4130676E+03  0.7818608E-02  0.1039346E+00
         -1   -1    0    0    0  501 -0.00000000000E+00  0.00000000000E+00  0.14669285292E+03  0.14669285292E+03  0.00000000000E+00 0.  1.
          1   -1    0    0  502    0  0.00000000000E+00 -0.00000000000E+00 -0.12658359563E+04  0.12658359563E+04  0.00000000000E+00 0. -1.
    9000005    1    1    2  502    0  0.96815957219E+02  0.35376177735E+02 -0.76073467865E+03  0.86564545561E+03  0.40000000000E+03 0.  1.
   -9000005    1    1    2    0  501 -0.96815957219E+02 -0.35376177735E+02 -0.35840842470E+03  0.54688335358E+03  0.40000000000E+03 0.  1.
<mgrwt>
<rscale>  2 0.41306755E+03</rscale>
<asrwt>0</asrwt>
<pdfrwt beam="1">  1        1 0.19474399E+00 0.41306755E+03</pdfrwt>
<pdfrwt beam="2">  1       -1 0.22568131E-01 0.41306755E+03</pdfrwt>
<totfact> 0.16780570E+02</totfact>
</mgrwt>
</event>
<event>
 4    1  0.2358610E-002  0.9494236E+03  0.7818608E-02  0.9365825E-01
          2   -1    0    0  502    0  0.00000000000E+00  0.00000000000E+00  0.28777915603E+04  0.28777915603E+04  0.00000000000E+00 0.  1.
         -2   -1    0    0    0  501 -0.00000000000E+00 -0.00000000000E+00 -0.33139794780E+03  0.33139794780E+03  0.00000000000E+00 0. -1.
    9000005    1    1    2  502    0 -0.77348119198E+03  0.37832782625E+03  0.16489186587E+04  0.19027185397E+04  0.40000000000E+03 0.  1.
   -9000005    1    1    2    0  501  0.77348119198E+03 -0.37832782625E+03  0.89747495377E+03  0.13064709683E+04  0.40000000000E+03 0. -1.
<mgrwt>
<rscale>  2 0.94942356E+03</rscale>
<asrwt>0</asrwt>
<pdfrwt beam="1">  1        2 0.44273715E+00 0.94942356E+03</pdfrwt>
<pdfrwt beam="2">  1       -2 0.50984302E-01 0.94942356E+03</pdfrwt>
<totfact> 0.77445379E+00</totfact>
</mgrwt>
</event>
